<?xml version="1.0"?>
<VTKFile type="UnstructuredGrid"  version="0.1"  >
<UnstructuredGrid>
<Piece  NumberOfPoints="2601" NumberOfCells="5000">
<Points>
<DataArray  type="Float64"  NumberOfComponents="3"  format="ascii">0 0 0  0.04 0 0  0.08 0 0  0.12 0 0  0.16 0 0  0.2 0 0  0.24 0 0  0.28 0 0  0.32 0 0  0.36 0 0  0.4 0 0  0.44 0 0  0.48 0 0  0.52 0 0  0.5600000000000001 0 0  0.6 0 0  0.64 0 0  0.68 0 0  0.72 0 0  0.76 0 0  0.8 0 0  0.84 0 0  0.88 0 0  0.92 0 0  0.96 0 0  1 0 0  1.04 0 0  1.08 0 0  1.12 0 0  1.16 0 0  1.2 0 0  1.24 0 0  1.28 0 0  1.32 0 0  1.36 0 0  1.4 0 0  1.44 0 0  1.48 0 0  1.52 0 0  1.56 0 0  1.6 0 0  1.64 0 0  1.68 0 0  1.72 0 0  1.76 0 0  1.8 0 0  1.84 0 0  1.88 0 0  1.92 0 0  1.96 0 0  2 0 0  0 0.02 0  0.04 0.02 0  0.08 0.02 0  0.12 0.02 0  0.16 0.02 0  0.2 0.02 0  0.24 0.02 0  0.28 0.02 0  0.32 0.02 0  0.36 0.02 0  0.4 0.02 0  0.44 0.02 0  0.48 0.02 0  0.52 0.02 0  0.5600000000000001 0.02 0  0.6 0.02 0  0.64 0.02 0  0.68 0.02 0  0.72 0.02 0  0.76 0.02 0  0.8 0.02 0  0.84 0.02 0  0.88 0.02 0  0.92 0.02 0  0.96 0.02 0  1 0.02 0  1.04 0.02 0  1.08 0.02 0  1.12 0.02 0  1.16 0.02 0  1.2 0.02 0  1.24 0.02 0  1.28 0.02 0  1.32 0.02 0  1.36 0.02 0  1.4 0.02 0  1.44 0.02 0  1.48 0.02 0  1.52 0.02 0  1.56 0.02 0  1.6 0.02 0  1.64 0.02 0  1.68 0.02 0  1.72 0.02 0  1.76 0.02 0  1.8 0.02 0  1.84 0.02 0  1.88 0.02 0  1.92 0.02 0  1.96 0.02 0  2 0.02 0  0 0.04 0  0.04 0.04 0  0.08 0.04 0  0.12 0.04 0  0.16 0.04 0  0.2 0.04 0  0.24 0.04 0  0.28 0.04 0  0.32 0.04 0  0.36 0.04 0  0.4 0.04 0  0.44 0.04 0  0.48 0.04 0  0.52 0.04 0  0.5600000000000001 0.04 0  0.6 0.04 0  0.64 0.04 0  0.68 0.04 0  0.72 0.04 0  0.76 0.04 0  0.8 0.04 0  0.84 0.04 0  0.88 0.04 0  0.92 0.04 0  0.96 0.04 0  1 0.04 0  1.04 0.04 0  1.08 0.04 0  1.12 0.04 0  1.16 0.04 0  1.2 0.04 0  1.24 0.04 0  1.28 0.04 0  1.32 0.04 0  1.36 0.04 0  1.4 0.04 0  1.44 0.04 0  1.48 0.04 0  1.52 0.04 0  1.56 0.04 0  1.6 0.04 0  1.64 0.04 0  1.68 0.04 0  1.72 0.04 0  1.76 0.04 0  1.8 0.04 0  1.84 0.04 0  1.88 0.04 0  1.92 0.04 0  1.96 0.04 0  2 0.04 0  0 0.06 0  0.04 0.06 0  0.08 0.06 0  0.12 0.06 0  0.16 0.06 0  0.2 0.06 0  0.24 0.06 0  0.28 0.06 0  0.32 0.06 0  0.36 0.06 0  0.4 0.06 0  0.44 0.06 0  0.48 0.06 0  0.52 0.06 0  0.5600000000000001 0.06 0  0.6 0.06 0  0.64 0.06 0  0.68 0.06 0  0.72 0.06 0  0.76 0.06 0  0.8 0.06 0  0.84 0.06 0  0.88 0.06 0  0.92 0.06 0  0.96 0.06 0  1 0.06 0  1.04 0.06 0  1.08 0.06 0  1.12 0.06 0  1.16 0.06 0  1.2 0.06 0  1.24 0.06 0  1.28 0.06 0  1.32 0.06 0  1.36 0.06 0  1.4 0.06 0  1.44 0.06 0  1.48 0.06 0  1.52 0.06 0  1.56 0.06 0  1.6 0.06 0  1.64 0.06 0  1.68 0.06 0  1.72 0.06 0  1.76 0.06 0  1.8 0.06 0  1.84 0.06 0  1.88 0.06 0  1.92 0.06 0  1.96 0.06 0  2 0.06 0  0 0.08 0  0.04 0.08 0  0.08 0.08 0  0.12 0.08 0  0.16 0.08 0  0.2 0.08 0  0.24 0.08 0  0.28 0.08 0  0.32 0.08 0  0.36 0.08 0  0.4 0.08 0  0.44 0.08 0  0.48 0.08 0  0.52 0.08 0  0.5600000000000001 0.08 0  0.6 0.08 0  0.64 0.08 0  0.68 0.08 0  0.72 0.08 0  0.76 0.08 0  0.8 0.08 0  0.84 0.08 0  0.88 0.08 0  0.92 0.08 0  0.96 0.08 0  1 0.08 0  1.04 0.08 0  1.08 0.08 0  1.12 0.08 0  1.16 0.08 0  1.2 0.08 0  1.24 0.08 0  1.28 0.08 0  1.32 0.08 0  1.36 0.08 0  1.4 0.08 0  1.44 0.08 0  1.48 0.08 0  1.52 0.08 0  1.56 0.08 0  1.6 0.08 0  1.64 0.08 0  1.68 0.08 0  1.72 0.08 0  1.76 0.08 0  1.8 0.08 0  1.84 0.08 0  1.88 0.08 0  1.92 0.08 0  1.96 0.08 0  2 0.08 0  0 0.1 0  0.04 0.1 0  0.08 0.1 0  0.12 0.1 0  0.16 0.1 0  0.2 0.1 0  0.24 0.1 0  0.28 0.1 0  0.32 0.1 0  0.36 0.1 0  0.4 0.1 0  0.44 0.1 0  0.48 0.1 0  0.52 0.1 0  0.5600000000000001 0.1 0  0.6 0.1 0  0.64 0.1 0  0.68 0.1 0  0.72 0.1 0  0.76 0.1 0  0.8 0.1 0  0.84 0.1 0  0.88 0.1 0  0.92 0.1 0  0.96 0.1 0  1 0.1 0  1.04 0.1 0  1.08 0.1 0  1.12 0.1 0  1.16 0.1 0  1.2 0.1 0  1.24 0.1 0  1.28 0.1 0  1.32 0.1 0  1.36 0.1 0  1.4 0.1 0  1.44 0.1 0  1.48 0.1 0  1.52 0.1 0  1.56 0.1 0  1.6 0.1 0  1.64 0.1 0  1.68 0.1 0  1.72 0.1 0  1.76 0.1 0  1.8 0.1 0  1.84 0.1 0  1.88 0.1 0  1.92 0.1 0  1.96 0.1 0  2 0.1 0  0 0.12 0  0.04 0.12 0  0.08 0.12 0  0.12 0.12 0  0.16 0.12 0  0.2 0.12 0  0.24 0.12 0  0.28 0.12 0  0.32 0.12 0  0.36 0.12 0  0.4 0.12 0  0.44 0.12 0  0.48 0.12 0  0.52 0.12 0  0.5600000000000001 0.12 0  0.6 0.12 0  0.64 0.12 0  0.68 0.12 0  0.72 0.12 0  0.76 0.12 0  0.8 0.12 0  0.84 0.12 0  0.88 0.12 0  0.92 0.12 0  0.96 0.12 0  1 0.12 0  1.04 0.12 0  1.08 0.12 0  1.12 0.12 0  1.16 0.12 0  1.2 0.12 0  1.24 0.12 0  1.28 0.12 0  1.32 0.12 0  1.36 0.12 0  1.4 0.12 0  1.44 0.12 0  1.48 0.12 0  1.52 0.12 0  1.56 0.12 0  1.6 0.12 0  1.64 0.12 0  1.68 0.12 0  1.72 0.12 0  1.76 0.12 0  1.8 0.12 0  1.84 0.12 0  1.88 0.12 0  1.92 0.12 0  1.96 0.12 0  2 0.12 0  0 0.14 0  0.04 0.14 0  0.08 0.14 0  0.12 0.14 0  0.16 0.14 0  0.2 0.14 0  0.24 0.14 0  0.28 0.14 0  0.32 0.14 0  0.36 0.14 0  0.4 0.14 0  0.44 0.14 0  0.48 0.14 0  0.52 0.14 0  0.5600000000000001 0.14 0  0.6 0.14 0  0.64 0.14 0  0.68 0.14 0  0.72 0.14 0  0.76 0.14 0  0.8 0.14 0  0.84 0.14 0  0.88 0.14 0  0.92 0.14 0  0.96 0.14 0  1 0.14 0  1.04 0.14 0  1.08 0.14 0  1.12 0.14 0  1.16 0.14 0  1.2 0.14 0  1.24 0.14 0  1.28 0.14 0  1.32 0.14 0  1.36 0.14 0  1.4 0.14 0  1.44 0.14 0  1.48 0.14 0  1.52 0.14 0  1.56 0.14 0  1.6 0.14 0  1.64 0.14 0  1.68 0.14 0  1.72 0.14 0  1.76 0.14 0  1.8 0.14 0  1.84 0.14 0  1.88 0.14 0  1.92 0.14 0  1.96 0.14 0  2 0.14 0  0 0.16 0  0.04 0.16 0  0.08 0.16 0  0.12 0.16 0  0.16 0.16 0  0.2 0.16 0  0.24 0.16 0  0.28 0.16 0  0.32 0.16 0  0.36 0.16 0  0.4 0.16 0  0.44 0.16 0  0.48 0.16 0  0.52 0.16 0  0.5600000000000001 0.16 0  0.6 0.16 0  0.64 0.16 0  0.68 0.16 0  0.72 0.16 0  0.76 0.16 0  0.8 0.16 0  0.84 0.16 0  0.88 0.16 0  0.92 0.16 0  0.96 0.16 0  1 0.16 0  1.04 0.16 0  1.08 0.16 0  1.12 0.16 0  1.16 0.16 0  1.2 0.16 0  1.24 0.16 0  1.28 0.16 0  1.32 0.16 0  1.36 0.16 0  1.4 0.16 0  1.44 0.16 0  1.48 0.16 0  1.52 0.16 0  1.56 0.16 0  1.6 0.16 0  1.64 0.16 0  1.68 0.16 0  1.72 0.16 0  1.76 0.16 0  1.8 0.16 0  1.84 0.16 0  1.88 0.16 0  1.92 0.16 0  1.96 0.16 0  2 0.16 0  0 0.18 0  0.04 0.18 0  0.08 0.18 0  0.12 0.18 0  0.16 0.18 0  0.2 0.18 0  0.24 0.18 0  0.28 0.18 0  0.32 0.18 0  0.36 0.18 0  0.4 0.18 0  0.44 0.18 0  0.48 0.18 0  0.52 0.18 0  0.5600000000000001 0.18 0  0.6 0.18 0  0.64 0.18 0  0.68 0.18 0  0.72 0.18 0  0.76 0.18 0  0.8 0.18 0  0.84 0.18 0  0.88 0.18 0  0.92 0.18 0  0.96 0.18 0  1 0.18 0  1.04 0.18 0  1.08 0.18 0  1.12 0.18 0  1.16 0.18 0  1.2 0.18 0  1.24 0.18 0  1.28 0.18 0  1.32 0.18 0  1.36 0.18 0  1.4 0.18 0  1.44 0.18 0  1.48 0.18 0  1.52 0.18 0  1.56 0.18 0  1.6 0.18 0  1.64 0.18 0  1.68 0.18 0  1.72 0.18 0  1.76 0.18 0  1.8 0.18 0  1.84 0.18 0  1.88 0.18 0  1.92 0.18 0  1.96 0.18 0  2 0.18 0  0 0.2 0  0.04 0.2 0  0.08 0.2 0  0.12 0.2 0  0.16 0.2 0  0.2 0.2 0  0.24 0.2 0  0.28 0.2 0  0.32 0.2 0  0.36 0.2 0  0.4 0.2 0  0.44 0.2 0  0.48 0.2 0  0.52 0.2 0  0.5600000000000001 0.2 0  0.6 0.2 0  0.64 0.2 0  0.68 0.2 0  0.72 0.2 0  0.76 0.2 0  0.8 0.2 0  0.84 0.2 0  0.88 0.2 0  0.92 0.2 0  0.96 0.2 0  1 0.2 0  1.04 0.2 0  1.08 0.2 0  1.12 0.2 0  1.16 0.2 0  1.2 0.2 0  1.24 0.2 0  1.28 0.2 0  1.32 0.2 0  1.36 0.2 0  1.4 0.2 0  1.44 0.2 0  1.48 0.2 0  1.52 0.2 0  1.56 0.2 0  1.6 0.2 0  1.64 0.2 0  1.68 0.2 0  1.72 0.2 0  1.76 0.2 0  1.8 0.2 0  1.84 0.2 0  1.88 0.2 0  1.92 0.2 0  1.96 0.2 0  2 0.2 0  0 0.22 0  0.04 0.22 0  0.08 0.22 0  0.12 0.22 0  0.16 0.22 0  0.2 0.22 0  0.24 0.22 0  0.28 0.22 0  0.32 0.22 0  0.36 0.22 0  0.4 0.22 0  0.44 0.22 0  0.48 0.22 0  0.52 0.22 0  0.5600000000000001 0.22 0  0.6 0.22 0  0.64 0.22 0  0.68 0.22 0  0.72 0.22 0  0.76 0.22 0  0.8 0.22 0  0.84 0.22 0  0.88 0.22 0  0.92 0.22 0  0.96 0.22 0  1 0.22 0  1.04 0.22 0  1.08 0.22 0  1.12 0.22 0  1.16 0.22 0  1.2 0.22 0  1.24 0.22 0  1.28 0.22 0  1.32 0.22 0  1.36 0.22 0  1.4 0.22 0  1.44 0.22 0  1.48 0.22 0  1.52 0.22 0  1.56 0.22 0  1.6 0.22 0  1.64 0.22 0  1.68 0.22 0  1.72 0.22 0  1.76 0.22 0  1.8 0.22 0  1.84 0.22 0  1.88 0.22 0  1.92 0.22 0  1.96 0.22 0  2 0.22 0  0 0.24 0  0.04 0.24 0  0.08 0.24 0  0.12 0.24 0  0.16 0.24 0  0.2 0.24 0  0.24 0.24 0  0.28 0.24 0  0.32 0.24 0  0.36 0.24 0  0.4 0.24 0  0.44 0.24 0  0.48 0.24 0  0.52 0.24 0  0.5600000000000001 0.24 0  0.6 0.24 0  0.64 0.24 0  0.68 0.24 0  0.72 0.24 0  0.76 0.24 0  0.8 0.24 0  0.84 0.24 0  0.88 0.24 0  0.92 0.24 0  0.96 0.24 0  1 0.24 0  1.04 0.24 0  1.08 0.24 0  1.12 0.24 0  1.16 0.24 0  1.2 0.24 0  1.24 0.24 0  1.28 0.24 0  1.32 0.24 0  1.36 0.24 0  1.4 0.24 0  1.44 0.24 0  1.48 0.24 0  1.52 0.24 0  1.56 0.24 0  1.6 0.24 0  1.64 0.24 0  1.68 0.24 0  1.72 0.24 0  1.76 0.24 0  1.8 0.24 0  1.84 0.24 0  1.88 0.24 0  1.92 0.24 0  1.96 0.24 0  2 0.24 0  0 0.26 0  0.04 0.26 0  0.08 0.26 0  0.12 0.26 0  0.16 0.26 0  0.2 0.26 0  0.24 0.26 0  0.28 0.26 0  0.32 0.26 0  0.36 0.26 0  0.4 0.26 0  0.44 0.26 0  0.48 0.26 0  0.52 0.26 0  0.5600000000000001 0.26 0  0.6 0.26 0  0.64 0.26 0  0.68 0.26 0  0.72 0.26 0  0.76 0.26 0  0.8 0.26 0  0.84 0.26 0  0.88 0.26 0  0.92 0.26 0  0.96 0.26 0  1 0.26 0  1.04 0.26 0  1.08 0.26 0  1.12 0.26 0  1.16 0.26 0  1.2 0.26 0  1.24 0.26 0  1.28 0.26 0  1.32 0.26 0  1.36 0.26 0  1.4 0.26 0  1.44 0.26 0  1.48 0.26 0  1.52 0.26 0  1.56 0.26 0  1.6 0.26 0  1.64 0.26 0  1.68 0.26 0  1.72 0.26 0  1.76 0.26 0  1.8 0.26 0  1.84 0.26 0  1.88 0.26 0  1.92 0.26 0  1.96 0.26 0  2 0.26 0  0 0.28 0  0.04 0.28 0  0.08 0.28 0  0.12 0.28 0  0.16 0.28 0  0.2 0.28 0  0.24 0.28 0  0.28 0.28 0  0.32 0.28 0  0.36 0.28 0  0.4 0.28 0  0.44 0.28 0  0.48 0.28 0  0.52 0.28 0  0.5600000000000001 0.28 0  0.6 0.28 0  0.64 0.28 0  0.68 0.28 0  0.72 0.28 0  0.76 0.28 0  0.8 0.28 0  0.84 0.28 0  0.88 0.28 0  0.92 0.28 0  0.96 0.28 0  1 0.28 0  1.04 0.28 0  1.08 0.28 0  1.12 0.28 0  1.16 0.28 0  1.2 0.28 0  1.24 0.28 0  1.28 0.28 0  1.32 0.28 0  1.36 0.28 0  1.4 0.28 0  1.44 0.28 0  1.48 0.28 0  1.52 0.28 0  1.56 0.28 0  1.6 0.28 0  1.64 0.28 0  1.68 0.28 0  1.72 0.28 0  1.76 0.28 0  1.8 0.28 0  1.84 0.28 0  1.88 0.28 0  1.92 0.28 0  1.96 0.28 0  2 0.28 0  0 0.3 0  0.04 0.3 0  0.08 0.3 0  0.12 0.3 0  0.16 0.3 0  0.2 0.3 0  0.24 0.3 0  0.28 0.3 0  0.32 0.3 0  0.36 0.3 0  0.4 0.3 0  0.44 0.3
[...]
<PointData  Scalars="f_26-2"> 
<DataArray  type="Float64"  Name="f_26-2"  format="ascii">-2.7830091515314684e+03  -2.7847250791111774e+03  -2.7847954827889148e+03  -2.7850143690558757e+03  -2.7852363497007609e+03  -2.7854917701266299e+03  -2.7857686668543474e+03  -2.7860568731632811e+03  -2.7863455008705519e+03  -2.7866222951908376e+03  -2.7868734149157222e+03  -2.7870830202720394e+03  -2.7872330637348059e+03  -2.7873032377436466e+03  -2.7872711265046992e+03  -2.7871125973456433e+03  -2.7868024680628628e+03  -2.7863154806704169e+03  -2.7856275987700215e+03  -2.7847176247897487e+03  -2.7835691040529359e+03  -2.7821724454289642e+03  -2.7805271446816855e+03  -2.7786439494916331e+03  -2.7765467588452902e+03  -2.7742740093948678e+03  -2.7718792726052916e+03  -2.7694307717321221e+03  -2.7670095239480079e+03  -2.7647058074022129e+03  -2.7626136181205402e+03  -2.7608226718872907e+03  -2.7594072556178348e+03  -2.7584107692494167e+03  -2.7578240398087983e+03  -2.7575544984186909e+03  -2.7573819980321159e+03  -2.7568969226296526e+03  -2.7554148191391905e+03  -2.7518756974408316e+03  -2.7447173301678299e+03  -2.7318671183997440e+03  -2.7105917981209714e+03  -2.6789302543083977e+03  -2.6328545432328706e+03  -2.5883815171319525e+03  -2.5012329865407582e+03  -2.6655353488334640e+03  -2.1571325935439572e+03  -4.7547314207351446e+03  0.0000000000000000e+00  -2.7837966788436993e+03  -2.7845735565335663e+03  -2.7847607309248592e+03  -2.7849915950953960e+03  -2.7851957802267884e+03  -2.7854308423382490e+03  -2.7856814402286823e+03  -2.7859402710595436e+03  -2.7861969502168890e+03  -2.7864398206160704e+03  -2.7866557326774737e+03  -2.7868297627567290e+03  -2.7869450964464372e+03  -2.7869830315335571e+03  -2.7869231649963563e+03  -2.7867437919914778e+03  -2.7864225470362376e+03  -2.7859373099469176e+03  -2.7852673867530484e+03  -2.7843949572636275e+03  -2.7833067556764308e+03  -2.7819959187251920e+03  -2.7804638981325224e+03  -2.7787222922277647e+03  -2.7767944080072207e+03  -2.7747163227440396e+03  -2.7725371763775502e+03  -2.7703183935130228e+03  -2.7681315040538811e+03  -2.7660541940780054e+03  -2.7641641524337165e+03  -2.7625301491104829e+03  -2.7611995414728999e+03  -2.7601810055564611e+03  -2.7594207031611700e+03  -2.7587693941694870e+03  -2.7579373786988922e+03  -2.7564344572359541e+03  -2.7534938028402830e+03  -2.7479875431543037e+03  -2.7383495970445006e+03  -2.7225835375751039e+03  -2.6983813095222467e+03  -2.6638647613223366e+03  -2.6183771784732130e+03  -2.5669584158181924e+03  -2.5189128274836089e+03  -2.5301289371351663e+03  -2.5024988199037239e+03  -3.3817250903485115e+03  0.0000000000000000e+00  -2.7844492577277047e+03  -2.7845453191462339e+03  -2.7847634296751980e+03  -2.7849577809814964e+03  -2.7851495529549570e+03  -2.7853654793735573e+03  -2.7855918657461025e+03  -2.7858240525608549e+03  -2.7860518016725277e+03  -2.7862642921682927e+03  -2.7864491671444534e+03  -2.7865925372109277e+03  -2.7866789106414617e+03  -2.7866912392850495e+03  -2.7866111219119366e+03  -2.7864191867063109e+03  -2.7860956786020661e+03  -2.7856212683489571e+03  -2.7849780912154533e+03  -2.7841510095347221e+03  -2.7831290746346549e+03  -2.7819071391799439e+03  -2.7804875397347964e+03  -2.7788817306778119e+03  -2.7771117040635336e+03  -2.7752109758849060e+03  -2.7732248585135790e+03  -2.7712096733901290e+03  -2.7692304878917212e+03  -2.7673568827067575e+03  -2.7656561605497654e+03  -2.7641832725805248e+03  -2.7629665336697112e+03  -2.7619878924312302e+03  -2.7611561113898865e+03  -2.7602708145574134e+03  -2.7589751943877982e+03  -2.7566962601287864e+03  -2.7525739849413194e+03  -2.7453916299290245e+03  -2.7335246952983994e+03  -2.7149989927256361e+03  -2.6876299004781517e+03  -2.6499390609907023e+03  -2.6010606954690770e+03  -2.5479021480034926e+03  -2.4887775939794215e+03  -2.4894226931533481e+03  -2.3907838843340542e+03  -2.8402211556834218e+03  0.0000000000000000e+00  -2.7845731518975126e+03  -2.7845723630343459e+03  -2.7847577928440169e+03  -2.7849186719387144e+03  -2.7851007723479688e+03  -2.7852964842760384e+03  -2.7855011612200501e+03  -2.7857091591734347e+03  -2.7859108954863309e+03  -2.7860964180189130e+03  -2.7862542195796923e+03  -2.7863715237577385e+03  -2.7864342016739884e+03  -2.7864268579657141e+03  -2.7863330305166824e+03  -2.7861355376984584e+03  -2.7858169923457117e+03  -2.7853604967789979e+03  -2.7847505289207156e+03  -2.7839740221967459e+03  -2.7830216311603785e+03  -2.7818891580850241e+03  -2.7805790900950333e+03  -2.7791021580117531e+03  -2.7774787733613680e+03  -2.7757401265647518e+03  -2.7739286374323951e+03  -2.7720973423554678e+03  -2.7703076874875110e+03  -2.7686250802733571e+03  -2.7671114344376479e+03  -2.7658138173145012e+03  -2.7647481524745431e+03  -2.7638767252691246e+03  -2.7630779910426427e+03  -2.7621070295151949e+03  -2.7605451871963396e+03  -2.7577390148806080e+03  -2.7527318090172339e+03  -2.7442021329479294e+03  -2.7304298197980447e+03  -2.7093731863658195e+03  -2.6788364628277286e+03  -2.6372721386852672e+03  -2.5837538225045300e+03  -2.5231642772210753e+03  -2.4524774491881972e+03  -2.4170693554811724e+03  -2.2597404486760652e+03  -2.4668026473315404e+03  0.0000000000000000e+00  -2.7846247075656838e+03  -2.7846176655620734e+03  -2.7847390153768270e+03  -2.7848809289138894e+03  -2.7850478975139426e+03  -2.7852247611515604e+03  -2.7854099927982443e+03  -2.7855960382890858e+03  -2.7857745951275028e+03  -2.7859363865232208e+03  -2.7860708424166346e+03  -2.7861663330382098e+03  -2.7862100967019433e+03  -2.7861883524442892e+03  -2.7860864788359836e+03  -2.7858893132105977e+03  -2.7855815805102461e+03  -2.7851484677328899e+03  -2.7845763596896099e+03  -2.7838537517242657e+03  -2.7829723522605154e+03  -2.7819283783609239e+03  -2.7807240253921555e+03  -2.7793690506105636e+03  -2.7778823434630021e+03  -2.7762932584232226e+03  -2.7746423598574015e+03  -2.7729810799775369e+03  -2.7713696340523461e+03  -2.7698723882505346e+03  -2.7685497472669008e+03  -2.7674455218113385e+03  -2.7665686347597002e+03  -2.7658679109785362e+03  -2.7651985759332401e+03  -2.7642791001862311e+03  -2.7626374388488998e+03  -2.7595475392042699e+03  -2.7539604058964892e+03  -2.7444449477512812e+03  -2.7291583621995392e+03  -2.7059246350343706e+03  -2.6723763160208864e+03  -2.6266731472362185e+03  -2.5671345083326128e+03  -2.4969108611715915e+03  -2.4085564925899725e+03  -2.3377469878859774e+03  -2.1207858976861748e+03  -2.2020584966856532e+03  0.0000000000000000e+00  -2.7846252909433956e+03  -2.7846202110217923e+03  -2.7847117038783003e+03  -2.7848407242046305e+03  -2.7849907671763067e+03  -2.7851515132031541e+03  -2.7853188372062141e+03  -2.7854852003328165e+03  -2.7856432573430543e+03  -2.7857843562401267e+03  -2.7858989325844022e+03  -2.7859764917252915e+03  -2.7860056144460236e+03  -2.7859740618510355e+03  -2.7858689254287201e+03  -2.7856768699324257e+03  -2.7853844728640170e+03  -2.7849786814283934e+03  -2.7844474110027199e+03  -2.7837803167278412e+03  -2.7829697739719113e+03  -2.7820120989681950e+03  -2.7809090197784967e+03  -2.7796693604410498e+03  -2.7783108190188054e+03  -2.7768615983529367e+03  -2.7753614889671944e+03  -2.7738618187269662e+03  -2.7724234946734505e+03  -2.7711121944196057e+03  -2.7699896381477047e+03  -2.7690997927349640e+03  -2.7684488105183609e+03  -2.7679774620889721e+03  -2.7675247812304538e+03  -2.7667817283914851e+03  -2.7652341483578934e+03  -2.7620961202822868e+03  -2.7562380428583883e+03  -2.7461238957238324e+03  -2.7297748065282681e+03  -2.7048274124973796e+03  -2.6686263837222064e+03  -2.6187983092898144e+03  -2.5526440079077593e+03  -2.4711018873015396e+03  -2.3632213807800513e+03  -2.2572143906936167e+03  -1.9937217381918613e+03  -2.0054052165783726e+03  0.0000000000000000e+00  -2.7845911533447756e+03  -2.7846001422733020e+03  -2.7846793743334556e+03  -2.7847951078655587e+03  -2.7849307172427443e+03  -2.7850771269010957e+03  -2.7852281140240107e+03  -2.7853770573610054e+03  -2.7855170894760190e+03  -2.7856403323815402e+03  -2.7857382082720264e+03  -2.7858013300942016e+03  -2.7858195692560962e+03  -2.7857821293308702e+03  -2.7856776661093891e+03  -2.7854944693619300e+03  -2.7852207160062972e+03  -2.7848448207967463e+03  -2.7843559193365995e+03  -2.7837445323599964e+03  -2.7830034695244872e+03  -2.7821290292490162e+03  -2.7811225278807142e+03  -2.7799921353474747e+03  -2.7787548957035669e+03  -2.7774386653966981e+03  -2.7760835150497201e+03  -2.7747419294372976e+03  -2.7734769331924749e+03  -2.7723570986725322e+03  -2.7714472817374594e+03  -2.7707938850453097e+03  -2.7704034432006865e+03  -2.7702133223422861e+03  -2.7700533058077331e+03  -2.7695969047954191e+03  -2.7683015986241348e+03  -2.7653387923608684e+03  -2.7595169513434462e+03  -2.7492102376192820e+03  -2.7323050156777149e+03  -2.7062217665821945e+03  -2.6679337966404564e+03  -2.6143852061941079e+03  -2.5416482217113598e+03  -2.4484224614526088e+03  -2.3207748540547873e+03  -2.1824943614296994e+03  -1.8829223417949629e+03  -1.8525360637959452e+03  0.0000000000000000e+00  -2.7845359386666378e+03  -2.7845623254635489e+03  -2.7846378240965137e+03  -2.7847442164076729e+03  -2.7848683851682017e+03  -2.7850018226006805e+03  -2.7851383108757636e+03  -2.7852718977574787e+03  -2.7853962055871525e+03  -2.7855042083495459e+03  -2.7855882579813060e+03  -2.7856400408493896e+03  -2.7856506398678321e+03  -2.7856105819662048e+03  -2.7855099245928500e+03  -2.7853383768734516e+03  -2.7850854756211347e+03  -2.7847408475729853e+03  -2.7842946054647009e+03  -2.7837379440014961e+03  -2.7830640140865030e+03  -2.7822691516822383e+03  -2.7813545091525471e+03  -2.7803280696087377e+03  -2.7792069092441029e+03  -2.7780194069399940e+03  -2.7768068942295981e+03  -2.7756240150880317e+03  -2.7745368576006408e+03  -2.7736177637057717e+03  -2.7729356420947129e+03  -2.7725406000715529e+03  -2.7724417359612894e+03  -2.7725769395542766e+03  -2.7727734870385675e+03  -2.7726981695456484e+03  -2.7717958087065990e+03  -2.7692161503063307e+03  -2.7637308838865024e+03  -2.7536499003192125e+03  -2.7367427936559102e+03  -2.7102118692743816e+03  -2.6706213184278668e+03  -2.6141531037381196e+03  -2.5355668050183717e+03  -2.4313747138522003e+03  -2.2852391856669597e+03  -2.1181941145967908e+03  -1.7895149803657337e+03  -1.7283143120790469e+03  0.0000000000000000e+00  -2.7844671786266140e+03  -2.7845118789287808e+03  -2.7845888674893554e+03  -2.7846892694108774e+03  -2.7848039963931510e+03  -2.7849260354570092e+03  -2.7850498042770428e+03  -2.7851699082940154e+03  -2.7852806308006684e+03  -2.7853757637511417e+03  -2.7854485514268617e+03  -2.7854916982954542e+03  -2.7854974004094274e+03  -2.7854573759283444e+03  -2.7853629135066262e+03  -2.7852049393173866e+03  -2.7849741294500795e+03  -2.7846611066292880e+03  -2.7842567824467919e+03  -2.7837529268136363e+03  -2.7831430591365079e+03  -2.7824237501403691e+03  -2.7815963863515849e+03  -2.7806693689098638e+03  -2.7796605870250128e+03  -2.7785998259218377e+03  -2.7775305545657225e+03  -2.7765103185157132e+03  -2.7756087752232211e+03  -2.7749022877328284e+03  -2.7744639545628793e+03  -2.7743479827998640e+03  -2.7745673533733775e+03  -2.7750637066905524e+03  -2.7756682191481509e+03  -2.7760519984203124e+03  -2.7756642662042600e+03  -2.7736571366233302e+03  -2.7687963645196396e+03  -2.7593632306324230e+03  -2.7430458963156307e+03  -2.7168562665330282e+03  -2.6769589843667513e+03  -2.6187709545021303e+03  -2.5357384606603600e+03  -2.4223127806446355e+03  -2.2600824479341709e+03  -2.0679300524478240e+03  -1.7143534023059181e+03  -1.6239616168701189e+03  0.0000000000000000e+00  -2.7843906578641163e+03  -2.7844531243170372e+03  -2.7845341146350352e+03  -2.7846308869438785e+03  -2.7847380041568408e+03  -2.7848502293325014e+03  -2.7849628645334083e+03  -2.7850712193134150e+03  -2.7851703019316274e+03  -2.7852546831776012e+03  -2.7853184650142816e+03  -2.7853552924033938e+03  -2.7853583661564062e+03  -2.7853204548869444e+03  -2.7852339061907351e+03  -2.7850906695456770e+03  -2.7848823618864085e+03  -2.7846004252983785e+03  -2.7842364510154875e+03  -2.7837827648062034e+03  -2.7832333791757665e+03  -2.7825854052987211e+03  -2.7818409694230450e+03  -2.7810095838537973e+03  -2.7801107773849158e+03  -2.7791766014191780e+03  -2.7782534173165905e+03  -2.7774021716318566e+03  -2.7766962176035049e+03  -2.7762156735046046e+03  -2.7760373256560474e+03  -2.7762191520977817e+03  -2.7767785857041731e+03  -2.7776635562828810e+03  -2.7787150491358875e+03  -2.7796194187892233e+03  -2.7798479784340479e+03  -2.7785812410760182e+03  -2.7746143760867935e+03  -2.7662447726670612e+03  -2.7511314156265576e+03  -2.7261537856305090e+03  -2.6871352396669236e+03  -2.6287990212965028e+03  -2.5433505135604591e+03  -2.4233579577269693e+03  -2.2483739530678949e+03  -2.0351749392826134e+03  -1.6591672923353578e+03  -1.5371022359552512e+03  0.0000000000000000e+00  -2.7843108006318439e+03  -2.7843894813462894e+03  -2.7844754201928631e+03  -2.7845700994223262e+03  -2.7846710409204979e+03  -2.7847748000457659e+03  -2.7848777201377611e+03  -2.7849758986560028e+03  -2.7850650751946805e+03  -2.7851405748687043e+03  -2.7851973043203129e+03  -2.7852297610671567e+03  -2.7852320360810154e+03  -2.7851978037346666e+03  -2.7851203018592623e+03  -2.7849923219393213e+03  -2.7848062471307971e+03  -2.7845541992263429e+03  -2.7842283806430391e+03  -2.7838217169762743e+03  -2.7833289104400528e+03  -2.7827479919250381e+03  -2.7820823973955016e+03  -2.7813434847001008e+03  -2.7805532503574573e+03  -2.7797468164086467e+03  -2.7789740632922562e+03  -2.7782996243741109e+03  -2.7778003690669834e+03  -2.7775595054423075e+03  -2.7776565170250556e+03  -2.7781522553264172e+03  -2.7790685391832621e+03  -2.7803614474232518e+03  -2.7818870091875833e+03  -2.7833572043933459e+03  -2.7842829677342397e+03  -2.7839000505867161e+03  -2.7810713179372915e+03  -2.7741622112155678e+03  -2.7608698640706066e+03  -2.7380279945398752e+03  -2.7012243232279629e+03  -2.6446334757721320e+03  -2.5593624950274875e+03  -2.4363469612188260e+03  -2.2528955669201978e+03  -2.0236960220516232e+03  -1.6270977176449840e+03  -1.4715189072593105e+03  0.0000000000000000e+00  -2.7842310731958000e+03  -2.7843237633885105e+03  -2.7844145561911091e+03  -2.7845079202993302e+03  -2.7846037048543526e+03  -2.7847001165957258e+03  -2.7847945619095967e+03  -2.7848839489699476e+03  -2.7849647427681398e+03  -2.7850329873632040e+03  -2.7850843278805178e+03  -2.7851140223495522e+03  -2.7851169335966242e+03  -2.7850874984372913e+03  -2.7850196840074577e+03  -2.7849069577481464e+03  -2.7847423183967599e+03  -2.7845184606450443e+03  -2.7842281702526857e+03  -2.7838650621529587e+03  -2.7834247704164709e+03  -2.7829066634126716e+03  -2.7823160794904334e+03  -2.7816669535951082e+03  -2.7809845404656385e+03  -2.7803077571986414e+03  -2.7796905027746425e+03  -2.7792012069355101e+03  -2.7789198500987632e+03  -2.7789317880691265e+03  -2.7793178755531658e+03  -2.7801405276204005e+03  -2.7814253626656132e+03  -2.7831378001306725e+03  -2.7851533017772231e+03  -2.7872188482976849e+03  -2.7889015273377690e+03  -2.7895186406541820e+03  -2.7880400250604484e+03  -2.7829557315724296e+03  -2.7720801867715604e+03  -2.7523129817898271e+03  -2.7191558561356906e+03  -2.6664523819911683e+03  -2.5844313636004940e+03  -2.4627599219745912e+03  -2.2761521956307956e+03  -2.0376302594877623e+03  -1.6227283636007114e+03  -1.4364807235159137e+03  0.0000000000000000e+00  -2.7841542159904347e+03  -2.7842582543774488e+03  -2.7843530921500519e+03  -2.7844453250261299e+03  -2.7845365899587232e+03  -2.7846265204490051e+03  -2.7847135295378416e+03  -2.7847953171087784e+03  -2.7848690445191396e+03  -2.7849314249487784e+03  -2.7849787699664143e+03  -2.7850070034508653e+03  -2.7850116422786705e+03  -2.7849877482080979e+03  -2.7849298678611926e+03  -2.7848319957374983e+03  -2.7846876184987741e+03  -2.7844899244388916e+03  -2.7842322842257263e+03  -2.7839091187249492e+03  -2.7835172551021865e+03  -2.7830578214394227e+03  -2.7825386343751629e+03  -2.7819768942660526e+03  -2.7814018324668405e+03  -2.7808567861446663e+03  -2.7804000510881606e+03  -2.7801038276227132e+03  -2.7800506580956167e+03  -2.7803269486710428e+03  -2.7810134132628518e+03  -2.7821724607719816e+03  -2.7838325173057201e+03  -2.7859688856530925e+03  -2.7884798486075902e+03  -2.7911553315818833e+03  -2.7936332757907599e+03  -2.7953369083071429e+03  -2.7953811045669654e+03  -2.7924384126817804e+03  -2.7845269375476660e+03  -2.7687428420079887e+03  -2.7406895141332730e+03  -2.6941667564733798e+03  -2.6188343042344245e+03  -2.5036167348158874e+03  -2.3202618721180079e+03  -2.0812569882453349e+03  -1.6517308860964495e+03  -1.4455661386840668e+03  0.0000000000000000e+00  -2.7840823617364395e+03  -2.7841947781392350e+03  -2.7842923610202474e+03  -2.7843831875569344e+03  -2.7844702299486953e+03  -2.7845542996129275e+03  -2.7846347112367921e+03  -2.7847099008286091e+03  -2.7847776770265073e+03  -2.7848353628583636e+03  -2.7848798605866259e+03  -2.7849076653821144e+03  -2.7849148350847831e+03  -2.7848969281615359e+03  -2.7848489347795876e+03  -2.7847652458132929e+03  -2.7846397293236059e+03  -2.7844660093951393e+03  -2.7842380610178543e+03  -2.7839512364775287e+03  -2.7836038110570089e+03  -2.7831990674421268e+03  -2.7827478235942854e+03  -2.7822711541810500e+03  -2.7818028836174190e+03  -2.7813912794739481e+03  -2.7810992998447418e+03  -2.7810027949486771e+03  -2.7811862536909257e+03  -2.7817359937376405e+03  -2.7827310304327475e+03  -2.7842320819800011e+03  -2.7862690994803188e+03  -2.7888271956548438e+03  -2.7918297413162413e+03  -2.7951157442040562e+03  -2.7984060947841404e+03  -2.8012509905534944e+03  -2.8029448695818460e+03  -2.8023982271823156e+03  -2.7979207810850512e+03  -2.7869469035366742e+03  -2.7653980154728943e+03  -2.7273801465065785e+03  -2.6623916614328664e+03  -2.5593434575301990e+03  -2.3867405421153949e+03  -2.1585465531327818e+03  -1.7201821529432718e+03  -1.5149409259039239e+03  0.0000000000000000e+00  -2.7840171129955456e+03  -2.7841347473166188e+03  -2.7842334433659953e+03  -2.7843222445050078e+03  -2.7844050769239420e+03  -2.7844836816918269e+03  -2.7845581426198169e+03  -2.7846275520452518e+03  -2.7846903023874047e+03  -2.7847442603174236e+03  -2.7847868417992868e+03  -2.7848150223251000e+03  -2.7848252956519214e+03  -2.7848136009428854e+03  -2.7847752520042486e+03  -2.7847049239853836e+03  -2.7845967785899843e+03  -2.7844448331380504e+03  -2.7842436929920627e+03  -2.7839897591934778e+03  -2.7836829807930530e+03  -2.7833291340658284e+03  -2.7829424765711028e+03  -2.7825484553477891e+03  -2.7821859769785915e+03  -2.7819086228167926e+03  -2.7817841746051399e+03  -2.7818919534552156e+03  -2.7823177822158300e+03  -2.7831468108959334e+03  -2.7844548785167449e+03  -2.7862993469295679e+03  -2.7887102319241176e+03  -2.7916818171027471e+03  -2.7951636320324396e+03  -2.7990478052425865e+03  -2.8031470057107590e+03  -2.8071548442419203e+03  -2.8105740087373902e+03  -2.8126019758165316e+03  -2.8119230729939545e+03  -2.8064522896764802e+03  -2.7926613674341106e+03  -2.7653612782287159e+03  -2.7143972348970465e+03  -2.6296219556138790e+03  -2.4762183794424523e+03  -2.2725692755097703e+03  -1.8336301207040399e+03  -1.6610842219482379e+03  0.0000000000000000e+00  -2.7839595961594018e+03  -2.7840791998818231e+03  -2.7841771670573876e+03  -2.7842630768327576e+03  -2.7843414839666884e+03  -2.7844148234129161e+03  -2.7844838040577124e+03  -2.7845480804500266e+03  -2.7846065558278410e+03  -2.7846575708439582e+03  -2.7846989800838387e+03  -2.7847281549609152e+03  -2.7847419309619982e+03  -2.7847365266466054e+03  -2.7847074771218272e+03  -2.7846496481808585e+03  -2.7845574235999275e+03  -2.7844251806528996e+03  -2.7842481775178735e+03  -2.7840239580493208e+03  -2.7837543212235673e+03  -2.7834477955684774e+03  -2.7831224048640393e+03  -2.7828083295242095e+03  -2.7825498990668079e+03  -2.7824062549525297e+03  -2.7824500667995148e+03  -2.7827639192624547e+03  -2.7834344161381609e+03  -2.7845446046397797e+03  -2.7861658569995711e+03  -2.7883506508168152e+03  -