<?xml version="1.0"?>
<VTKFile type="UnstructuredGrid"  version="0.1"  >
<UnstructuredGrid>
<Piece  NumberOfPoints="2601" NumberOfCells="5000">
<Points>
<DataArray  type="Float64"  NumberOfComponents="3"  format="ascii">0 0 0  0.04 0 0  0.08 0 0  0.12 0 0  0.16 0 0  0.2 0 0  0.24 0 0  0.28 0 0  0.32 0 0  0.36 0 0  0.4 0 0  0.44 0 0  0.48 0 0  0.52 0 0  0.5600000000000001 0 0  0.6 0 0  0.64 0 0  0.68 0 0  0.72 0 0  0.76 0 0  0.8 0 0  0.84 0 0  0.88 0 0  0.92 0 0  0.96 0 0  1 0 0  1.04 0 0  1.08 0 0  1.12 0 0  1.16 0 0  1.2 0 0  1.24 0 0  1.28 0 0  1.32 0 0  1.36 0 0  1.4 0 0  1.44 0 0  1.48 0 0  1.52 0 0  1.56 0 0  1.6 0 0  1.64 0 0  1.68 0 0  1.72 0 0  1.76 0 0  1.8 0 0  1.84 0 0  1.88 0 0  1.92 0 0  1.96 0 0  2 0 0  0 0.02 0  0.04 0.02 0  0.08 0.02 0  0.12 0.02 0  0.16 0.02 0  0.2 0.02 0  0.24 0.02 0  0.28 0.02 0  0.32 0.02 0  0.36 0.02 0  0.4 0.02 0  0.44 0.02 0  0.48 0.02 0  0.52 0.02 0  0.5600000000000001 0.02 0  0.6 0.02 0  0.64 0.02 0  0.68 0.02 0  0.72 0.02 0  0.76 0.02 0  0.8 0.02 0  0.84 0.02 0  0.88 0.02 0  0.92 0.02 0  0.96 0.02 0  1 0.02 0  1.04 0.02 0  1.08 0.02 0  1.12 0.02 0  1.16 0.02 0  1.2 0.02 0  1.24 0.02 0  1.28 0.02 0  1.32 0.02 0  1.36 0.02 0  1.4 0.02 0  1.44 0.02 0  1.48 0.02 0  1.52 0.02 0  1.56 0.02 0  1.6 0.02 0  1.64 0.02 0  1.68 0.02 0  1.72 0.02 0  1.76 0.02 0  1.8 0.02 0  1.84 0.02 0  1.88 0.02 0  1.92 0.02 0  1.96 0.02 0  2 0.02 0  0 0.04 0  0.04 0.04 0  0.08 0.04 0  0.12 0.04 0  0.16 0.04 0  0.2 0.04 0  0.24 0.04 0  0.28 0.04 0  0.32 0.04 0  0.36 0.04 0  0.4 0.04 0  0.44 0.04 0  0.48 0.04 0  0.52 0.04 0  0.5600000000000001 0.04 0  0.6 0.04 0  0.64 0.04 0  0.68 0.04 0  0.72 0.04 0  0.76 0.04 0  0.8 0.04 0  0.84 0.04 0  0.88 0.04 0  0.92 0.04 0  0.96 0.04 0  1 0.04 0  1.04 0.04 0  1.08 0.04 0  1.12 0.04 0  1.16 0.04 0  1.2 0.04 0  1.24 0.04 0  1.28 0.04 0  1.32 0.04 0  1.36 0.04 0  1.4 0.04 0  1.44 0.04 0  1.48 0.04 0  1.52 0.04 0  1.56 0.04 0  1.6 0.04 0  1.64 0.04 0  1.68 0.04 0  1.72 0.04 0  1.76 0.04 0  1.8 0.04 0  1.84 0.04 0  1.88 0.04 0  1.92 0.04 0  1.96 0.04 0  2 0.04 0  0 0.06 0  0.04 0.06 0  0.08 0.06 0  0.12 0.06 0  0.16 0.06 0  0.2 0.06 0  0.24 0.06 0  0.28 0.06 0  0.32 0.06 0  0.36 0.06 0  0.4 0.06 0  0.44 0.06 0  0.48 0.06 0  0.52 0.06 0  0.5600000000000001 0.06 0  0.6 0.06 0  0.64 0.06 0  0.68 0.06 0  0.72 0.06 0  0.76 0.06 0  0.8 0.06 0  0.84 0.06 0  0.88 0.06 0  0.92 0.06 0  0.96 0.06 0  1 0.06 0  1.04 0.06 0  1.08 0.06 0  1.12 0.06 0  1.16 0.06 0  1.2 0.06 0  1.24 0.06 0  1.28 0.06 0  1.32 0.06 0  1.36 0.06 0  1.4 0.06 0  1.44 0.06 0  1.48 0.06 0  1.52 0.06 0  1.56 0.06 0  1.6 0.06 0  1.64 0.06 0  1.68 0.06 0  1.72 0.06 0  1.76 0.06 0  1.8 0.06 0  1.84 0.06 0  1.88 0.06 0  1.92 0.06 0  1.96 0.06 0  2 0.06 0  0 0.08 0  0.04 0.08 0  0.08 0.08 0  0.12 0.08 0  0.16 0.08 0  0.2 0.08 0  0.24 0.08 0  0.28 0.08 0  0.32 0.08 0  0.36 0.08 0  0.4 0.08 0  0.44 0.08 0  0.48 0.08 0  0.52 0.08 0  0.5600000000000001 0.08 0  0.6 0.08 0  0.64 0.08 0  0.68 0.08 0  0.72 0.08 0  0.76 0.08 0  0.8 0.08 0  0.84 0.08 0  0.88 0.08 0  0.92 0.08 0  0.96 0.08 0  1 0.08 0  1.04 0.08 0  1.08 0.08 0  1.12 0.08 0  1.16 0.08 0  1.2 0.08 0  1.24 0.08 0  1.28 0.08 0  1.32 0.08 0  1.36 0.08 0  1.4 0.08 0  1.44 0.08 0  1.48 0.08 0  1.52 0.08 0  1.56 0.08 0  1.6 0.08 0  1.64 0.08 0  1.68 0.08 0  1.72 0.08 0  1.76 0.08 0  1.8 0.08 0  1.84 0.08 0  1.88 0.08 0  1.92 0.08 0  1.96 0.08 0  2 0.08 0  0 0.1 0  0.04 0.1 0  0.08 0.1 0  0.12 0.1 0  0.16 0.1 0  0.2 0.1 0  0.24 0.1 0  0.28 0.1 0  0.32 0.1 0  0.36 0.1 0  0.4 0.1 0  0.44 0.1 0  0.48 0.1 0  0.52 0.1 0  0.5600000000000001 0.1 0  0.6 0.1 0  0.64 0.1 0  0.68 0.1 0  0.72 0.1 0  0.76 0.1 0  0.8 0.1 0  0.84 0.1 0  0.88 0.1 0  0.92 0.1 0  0.96 0.1 0  1 0.1 0  1.04 0.1 0  1.08 0.1 0  1.12 0.1 0  1.16 0.1 0  1.2 0.1 0  1.24 0.1 0  1.28 0.1 0  1.32 0.1 0  1.36 0.1 0  1.4 0.1 0  1.44 0.1 0  1.48 0.1 0  1.52 0.1 0  1.56 0.1 0  1.6 0.1 0  1.64 0.1 0  1.68 0.1 0  1.72 0.1 0  1.76 0.1 0  1.8 0.1 0  1.84 0.1 0  1.88 0.1 0  1.92 0.1 0  1.96 0.1 0  2 0.1 0  0 0.12 0  0.04 0.12 0  0.08 0.12 0  0.12 0.12 0  0.16 0.12 0  0.2 0.12 0  0.24 0.12 0  0.28 0.12 0  0.32 0.12 0  0.36 0.12 0  0.4 0.12 0  0.44 0.12 0  0.48 0.12 0  0.52 0.12 0  0.5600000000000001 0.12 0  0.6 0.12 0  0.64 0.12 0  0.68 0.12 0  0.72 0.12 0  0.76 0.12 0  0.8 0.12 0  0.84 0.12 0  0.88 0.12 0  0.92 0.12 0  0.96 0.12 0  1 0.12 0  1.04 0.12 0  1.08 0.12 0  1.12 0.12 0  1.16 0.12 0  1.2 0.12 0  1.24 0.12 0  1.28 0.12 0  1.32 0.12 0  1.36 0.12 0  1.4 0.12 0  1.44 0.12 0  1.48 0.12 0  1.52 0.12 0  1.56 0.12 0  1.6 0.12 0  1.64 0.12 0  1.68 0.12 0  1.72 0.12 0  1.76 0.12 0  1.8 0.12 0  1.84 0.12 0  1.88 0.12 0  1.92 0.12 0  1.96 0.12 0  2 0.12 0  0 0.14 0  0.04 0.14 0  0.08 0.14 0  0.12 0.14 0  0.16 0.14 0  0.2 0.14 0  0.24 0.14 0  0.28 0.14 0  0.32 0.14 0  0.36 0.14 0  0.4 0.14 0  0.44 0.14 0  0.48 0.14 0  0.52 0.14 0  0.5600000000000001 0.14 0  0.6 0.14 0  0.64 0.14 0  0.68 0.14 0  0.72 0.14 0  0.76 0.14 0  0.8 0.14 0  0.84 0.14 0  0.88 0.14 0  0.92 0.14 0  0.96 0.14 0  1 0.14 0  1.04 0.14 0  1.08 0.14 0  1.12 0.14 0  1.16 0.14 0  1.2 0.14 0  1.24 0.14 0  1.28 0.14 0  1.32 0.14 0  1.36 0.14 0  1.4 0.14 0  1.44 0.14 0  1.48 0.14 0  1.52 0.14 0  1.56 0.14 0  1.6 0.14 0  1.64 0.14 0  1.68 0.14 0  1.72 0.14 0  1.76 0.14 0  1.8 0.14 0  1.84 0.14 0  1.88 0.14 0  1.92 0.14 0  1.96 0.14 0  2 0.14 0  0 0.16 0  0.04 0.16 0  0.08 0.16 0  0.12 0.16 0  0.16 0.16 0  0.2 0.16 0  0.24 0.16 0  0.28 0.16 0  0.32 0.16 0  0.36 0.16 0  0.4 0.16 0  0.44 0.16 0  0.48 0.16 0  0.52 0.16 0  0.5600000000000001 0.16 0  0.6 0.16 0  0.64 0.16 0  0.68 0.16 0  0.72 0.16 0  0.76 0.16 0  0.8 0.16 0  0.84 0.16 0  0.88 0.16 0  0.92 0.16 0  0.96 0.16 0  1 0.16 0  1.04 0.16 0  1.08 0.16 0  1.12 0.16 0  1.16 0.16 0  1.2 0.16 0  1.24 0.16 0  1.28 0.16 0  1.32 0.16 0  1.36 0.16 0  1.4 0.16 0  1.44 0.16 0  1.48 0.16 0  1.52 0.16 0  1.56 0.16 0  1.6 0.16 0  1.64 0.16 0  1.68 0.16 0  1.72 0.16 0  1.76 0.16 0  1.8 0.16 0  1.84 0.16 0  1.88 0.16 0  1.92 0.16 0  1.96 0.16 0  2 0.16 0  0 0.18 0  0.04 0.18 0  0.08 0.18 0  0.12 0.18 0  0.16 0.18 0  0.2 0.18 0  0.24 0.18 0  0.28 0.18 0  0.32 0.18 0  0.36 0.18 0  0.4 0.18 0  0.44 0.18 0  0.48 0.18 0  0.52 0.18 0  0.5600000000000001 0.18 0  0.6 0.18 0  0.64 0.18 0  0.68 0.18 0  0.72 0.18 0  0.76 0.18 0  0.8 0.18 0  0.84 0.18 0  0.88 0.18 0  0.92 0.18 0  0.96 0.18 0  1 0.18 0  1.04 0.18 0  1.08 0.18 0  1.12 0.18 0  1.16 0.18 0  1.2 0.18 0  1.24 0.18 0  1.28 0.18 0  1.32 0.18 0  1.36 0.18 0  1.4 0.18 0  1.44 0.18 0  1.48 0.18 0  1.52 0.18 0  1.56 0.18 0  1.6 0.18 0  1.64 0.18 0  1.68 0.18 0  1.72 0.18 0  1.76 0.18 0  1.8 0.18 0  1.84 0.18 0  1.88 0.18 0  1.92 0.18 0  1.96 0.18 0  2 0.18 0  0 0.2 0  0.04 0.2 0  0.08 0.2 0  0.12 0.2 0  0.16 0.2 0  0.2 0.2 0  0.24 0.2 0  0.28 0.2 0  0.32 0.2 0  0.36 0.2 0  0.4 0.2 0  0.44 0.2 0  0.48 0.2 0  0.52 0.2 0  0.5600000000000001 0.2 0  0.6 0.2 0  0.64 0.2 0  0.68 0.2 0  0.72 0.2 0  0.76 0.2 0  0.8 0.2 0  0.84 0.2 0  0.88 0.2 0  0.92 0.2 0  0.96 0.2 0  1 0.2 0  1.04 0.2 0  1.08 0.2 0  1.12 0.2 0  1.16 0.2 0  1.2 0.2 0  1.24 0.2 0  1.28 0.2 0  1.32 0.2 0  1.36 0.2 0  1.4 0.2 0  1.44 0.2 0  1.48 0.2 0  1.52 0.2 0  1.56 0.2 0  1.6 0.2 0  1.64 0.2 0  1.68 0.2 0  1.72 0.2 0  1.76 0.2 0  1.8 0.2 0  1.84 0.2 0  1.88 0.2 0  1.92 0.2 0  1.96 0.2 0  2 0.2 0  0 0.22 0  0.04 0.22 0  0.08 0.22 0  0.12 0.22 0  0.16 0.22 0  0.2 0.22 0  0.24 0.22 0  0.28 0.22 0  0.32 0.22 0  0.36 0.22 0  0.4 0.22 0  0.44 0.22 0  0.48 0.22 0  0.52 0.22 0  0.5600000000000001 0.22 0  0.6 0.22 0  0.64 0.22 0  0.68 0.22 0  0.72 0.22 0  0.76 0.22 0  0.8 0.22 0  0.84 0.22 0  0.88 0.22 0  0.92 0.22 0  0.96 0.22 0  1 0.22 0  1.04 0.22 0  1.08 0.22 0  1.12 0.22 0  1.16 0.22 0  1.2 0.22 0  1.24 0.22 0  1.28 0.22 0  1.32 0.22 0  1.36 0.22 0  1.4 0.22 0  1.44 0.22 0  1.48 0.22 0  1.52 0.22 0  1.56 0.22 0  1.6 0.22 0  1.64 0.22 0  1.68 0.22 0  1.72 0.22 0  1.76 0.22 0  1.8 0.22 0  1.84 0.22 0  1.88 0.22 0  1.92 0.22 0  1.96 0.22 0  2 0.22 0  0 0.24 0  0.04 0.24 0  0.08 0.24 0  0.12 0.24 0  0.16 0.24 0  0.2 0.24 0  0.24 0.24 0  0.28 0.24 0  0.32 0.24 0  0.36 0.24 0  0.4 0.24 0  0.44 0.24 0  0.48 0.24 0  0.52 0.24 0  0.5600000000000001 0.24 0  0.6 0.24 0  0.64 0.24 0  0.68 0.24 0  0.72 0.24 0  0.76 0.24 0  0.8 0.24 0  0.84 0.24 0  0.88 0.24 0  0.92 0.24 0  0.96 0.24 0  1 0.24 0  1.04 0.24 0  1.08 0.24 0  1.12 0.24 0  1.16 0.24 0  1.2 0.24 0  1.24 0.24 0  1.28 0.24 0  1.32 0.24 0  1.36 0.24 0  1.4 0.24 0  1.44 0.24 0  1.48 0.24 0  1.52 0.24 0  1.56 0.24 0  1.6 0.24 0  1.64 0.24 0  1.68 0.24 0  1.72 0.24 0  1.76 0.24 0  1.8 0.24 0  1.84 0.24 0  1.88 0.24 0  1.92 0.24 0  1.96 0.24 0  2 0.24 0  0 0.26 0  0.04 0.26 0  0.08 0.26 0  0.12 0.26 0  0.16 0.26 0  0.2 0.26 0  0.24 0.26 0  0.28 0.26 0  0.32 0.26 0  0.36 0.26 0  0.4 0.26 0  0.44 0.26 0  0.48 0.26 0  0.52 0.26 0  0.5600000000000001 0.26 0  0.6 0.26 0  0.64 0.26 0  0.68 0.26 0  0.72 0.26 0  0.76 0.26 0  0.8 0.26 0  0.84 0.26 0  0.88 0.26 0  0.92 0.26 0  0.96 0.26 0  1 0.26 0  1.04 0.26 0  1.08 0.26 0  1.12 0.26 0  1.16 0.26 0  1.2 0.26 0  1.24 0.26 0  1.28 0.26 0  1.32 0.26 0  1.36 0.26 0  1.4 0.26 0  1.44 0.26 0  1.48 0.26 0  1.52 0.26 0  1.56 0.26 0  1.6 0.26 0  1.64 0.26 0  1.68 0.26 0  1.72 0.26 0  1.76 0.26 0  1.8 0.26 0  1.84 0.26 0  1.88 0.26 0  1.92 0.26 0  1.96 0.26 0  2 0.26 0  0 0.28 0  0.04 0.28 0  0.08 0.28 0  0.12 0.28 0  0.16 0.28 0  0.2 0.28 0  0.24 0.28 0  0.28 0.28 0  0.32 0.28 0  0.36 0.28 0  0.4 0.28 0  0.44 0.28 0  0.48 0.28 0  0.52 0.28 0  0.5600000000000001 0.28 0  0.6 0.28 0  0.64 0.28 0  0.68 0.28 0  0.72 0.28 0  0.76 0.28 0  0.8 0.28 0  0.84 0.28 0  0.88 0.28 0  0.92 0.28 0  0.96 0.28 0  1 0.28 0  1.04 0.28 0  1.08 0.28 0  1.12 0.28 0  1.16 0.28 0  1.2 0.28 0  1.24 0.28 0  1.28 0.28 0  1.32 0.28 0  1.36 0.28 0  1.4 0.28 0  1.44 0.28 0  1.48 0.28 0  1.52 0.28 0  1.56 0.28 0  1.6 0.28 0  1.64 0.28 0  1.68 0.28 0  1.72 0.28 0  1.76 0.28 0  1.8 0.28 0  1.84 0.28 0  1.88 0.28 0  1.92 0.28 0  1.96 0.28 0  2 0.28 0  0 0.3 0  0.04 0.3 0  0.08 0.3 0  0.12 0.3 0  0.16 0.3 0  0.2 0.3 0  0.24 0.3 0  0.28 0.3 0  0.32 0.3 0  0.36 0.3 0  0.4 0.3 0  0.44 0.3
[...]
<PointData  Scalars="f_26-2"> 
<DataArray  type="Float64"  Name="f_26-2"  format="ascii">3.6643458615909378e+02  3.6472778486010475e+02  3.6465544968161942e+02  3.6441332703164824e+02  3.6414956146777070e+02  3.6383707954045337e+02  3.6349098077057420e+02  3.6312419692837625e+02  3.6275016969409205e+02  3.6238375335868767e+02  3.6204171844746247e+02  3.6174345207413199e+02  3.6151144033843940e+02  3.6137156010465412e+02  3.6135310968710854e+02  3.6148851396686456e+02  3.6181263237736482e+02  3.6236159887611291e+02  3.6317113308975087e+02  3.6427428373554750e+02  3.6569860179901099e+02  3.6746279338543940e+02  3.6957297051310991e+02  3.7201869932765072e+02  3.7476913223828802e+02  3.7776959144234644e+02  3.8093902944208799e+02  3.8416880687915841e+02  3.8732317760859701e+02  3.9024173709672408e+02  3.9274386429502596e+02  3.9463487747970976e+02  3.9571326446549051e+02  3.9577800144551446e+02  3.9463474502319821e+02  3.9209970222767419e+02  3.8800044124581393e+02  3.8217395996847671e+02  3.7446428189060879e+02  3.6472490712934774e+02  3.5283496703944485e+02  3.3875052673478740e+02  3.2258746741710218e+02  3.0493662229508362e+02  2.8666243993838509e+02  2.7254090203615630e+02  2.5823240914469164e+02  2.9790597740028574e+02  2.3748700211881069e+02  7.3578829334644934e+02  0.0000000000000000e+00  3.6564474753977288e+02  3.6487353784913654e+02  3.6468257601145223e+02  3.6443035859101445e+02  3.6418872542048592e+02  3.6390245837095171e+02  3.6358965476833964e+02  3.6326022719622040e+02  3.6292710160284258e+02  3.6260458358773445e+02  3.6230880197505570e+02  3.6205822475215251e+02  3.6187399703464007e+02  3.6178012630453378e+02  3.6180342789690189e+02  3.6197317630589100e+02  3.6232040117455756e+02  3.6287677056124670e+02  3.6367301413083845e+02  3.6473685809338184e+02  3.6609047394522582e+02  3.6774748554621146e+02  3.6970963388654400e+02  3.7196326427148472e+02  3.7447587207457502e+02  3.7719301258999775e+02  3.8003593553846241e+02  3.8290032889983632e+02  3.8565653037983640e+02  3.8815146848893244e+02  3.9021241524718261e+02  3.9165236950293598e+02  3.9227656909764067e+02  3.9188931194125456e+02  3.9030005369208334e+02  3.8732778642096656e+02  3.8280317368451182e+02  3.7656899112491300e+02  3.6848137788159869e+02  3.5841713096126369e+02  3.4629691992490160e+02  3.3213857323117765e+02  3.1616673290107417e+02  2.9900695454240946e+02  2.8204529427898353e+02  2.6797511818266901e+02  2.6155043725126109e+02  2.7435730452712352e+02  2.9655305877288993e+02  4.8904831370494639e+02  0.0000000000000000e+00  3.6498738101592539e+02  3.6489932946667955e+02  3.6467669680626972e+02  3.6446264857388252e+02  3.6423706827956318e+02  3.6397508568372643e+02  3.6369283011807613e+02  3.6339738276969899e+02  3.6310144863182956e+02  3.6281846278363668e+02  3.6256371595657373e+02  3.6235453445086728e+02  3.6221052314029407e+02  3.6215366246026616e+02  3.6220819745087408e+02  3.6240027483607321e+02  3.6275727709913542e+02  3.6330680810911264e+02  3.6407529086081644e+02  3.6508614938366713e+02  3.6635756477667235e+02  3.6789982146574800e+02  3.6971229626604054e+02  3.7178019178298570e+02  3.7407117832640455e+02  3.7653218343995985e+02  3.7908664880612810e+02  3.8163264616877018e+02  3.8404228282839091e+02  3.8616280072677858e+02  3.8781964724706535e+02  3.8882154900627557e+02  3.8896726232555534e+02  3.8805326781813699e+02  3.8588134930244684e+02  3.8226493472045490e+02  3.7703350984049843e+02  3.7003553014716738e+02  3.6114231071211094e+02  3.5025812692113510e+02  3.3734621268533294e+02  3.2248386514377427e+02  3.0596722359851566e+02  2.8850164873147787e+02  2.7142114934075784e+02  2.5747817355926924e+02  2.4954094681273469e+02  2.5900914694414968e+02  2.6825730823322596e+02  3.7427435396657575e+02  0.0000000000000000e+00  3.6486257031589980e+02  3.6487314278788847e+02  3.6468290091809234e+02  3.6450380298744238e+02  3.6429098971379790e+02  3.6405377323728499e+02  3.6379893724702976e+02  3.6353435516284713e+02  3.6327195267307496e+02  3.6302419355981135e+02  3.6280539438123441e+02  3.6263157593237844e+02  3.6252067738112112e+02  3.6249257553368733e+02  3.6256894842521416e+02  3.6277293226170332e+02  3.6312853322362116e+02  3.6365975713083674e+02  3.6438941913592924e+02  3.6533759592243320e+02  3.6651968477759419e+02  3.6794404095617591e+02  3.6960918244777946e+02  3.7150058734274540e+02  3.7358717198441519e+02  3.7581763402417425e+02  3.7811697161313498e+02  3.8038363243591090e+02  3.8248786931746395e+02  3.8427192941851035e+02  3.8555261987525910e+02  3.8612652603259033e+02  3.8577770619237651e+02  3.8428712269675299e+02  3.8144256125837586e+02  3.7704758506913015e+02  3.7092845523734690e+02  3.6293912913007557e+02  3.5296665003699070e+02  3.4094199246053762e+02  3.2686595062047161e+02  3.1086037673271846e+02  2.9326782172946986e+02  2.7479241574094829e+02  2.5674132683146792e+02  2.4125753680797297e+02  2.3107130251422066e+02  2.3192302233976781e+02  2.3107780421711922e+02  2.7989465481572518e+02  0.0000000000000000e+00  3.6481500113729226e+02  3.6483190827446157e+02  3.6470566580047432e+02  3.6454675050298323e+02  3.6435171045394742e+02  3.6413734589528718e+02  3.6390705867493205e+02  3.6367044084129969e+02  3.6343797269819970e+02  3.6322128535829728e+02  3.6303356956278594e+02  3.6288944025742552e+02  3.6280510413403681e+02  3.6279832301411932e+02  3.6288828032322431e+02  3.6309528458215226e+02  3.6344028725489147e+02  3.6394418094571711e+02  3.6462683579814325e+02  3.6550581878204906e+02  3.6659472519844348e+02  3.6790103998628143e+02  3.6942344809829882e+02  3.7114854243498115e+02  3.7304695054218524e+02  3.7506903000274218e+02  3.7714046790124200e+02  3.7915834107319182e+02  3.8098840137528146e+02  3.8246446635579116e+02  3.8339073007735993e+02  3.8354748993379206e+02  3.8270020400557956e+02  3.8061104399788655e+02  3.7705140667314373e+02  3.7181350010671883e+02  3.6471946754736479e+02  3.5562776466234402e+02  3.4443883045254455e+02  3.3110485035290617e+02  3.1565267196524400e+02  2.9822803809842759e+02  2.7918135713299040e+02  2.5916959750778977e+02  2.3934880803655034e+02  2.2134002819477413e+02  2.0723837407538846e+02  1.9916673597999602e+02  1.8859414432501873e+02  1.9864463867356238e+02  0.0000000000000000e+00  3.6482329277627724e+02  3.6483683403087065e+02  3.6474007284321766e+02  3.6459491500212522e+02  3.6441904103761095e+02  3.6422429119253667e+02  3.6401643842790395e+02  3.6380485848150414e+02  3.6359887846203230e+02  3.6340930541143717e+02  3.6324808721223047e+02  3.6312839713870568e+02  3.6306469500677088e+02  3.6307267785936779e+02  3.6316916763745729e+02  3.6337188155776681e+02  3.6369907283033888e+02  3.6416900568667444e+02  3.6479921288478653e+02  3.6560545619267515e+02  3.6660027869426455e+02  3.6779101002948937e+02  3.6917707663543422e+02  3.7074649904717728e+02  3.7247154967748895e+02  3.7430371397931378e+02  3.7616834537356112e+02  3.7795970032540419e+02  3.7953731737156340e+02  3.8072486122708614e+02  3.8131247583698985e+02  3.8106329211791137e+02  3.7972401218662873e+02  3.7703856400572806e+02  3.7276295058921596e+02  3.6667896440171489e+02  3.5860476728501783e+02  3.4840165402977044e+02  3.3597871640053398e+02  3.2129983326929516e+02  3.0440137008703226e+02  2.8542653335753090e+02  2.6469488098936910e+02  2.4276273568035253e+02  2.2058615735345401e+02  1.9923593011451368e+02  1.8037930775790116e+02  1.6327834228704643e+02  1.4549390415252969e+02  1.2640869944720166e+02  0.0000000000000000e+00  3.6487072344996426e+02  3.6486758931777490e+02  3.6478224116003565e+02  3.6465089672155932e+02  3.6449132100861175e+02  3.6431393519387422e+02  3.6412639945763311e+02  3.6393695642928753e+02  3.6375423847664632e+02  3.6358804850595760e+02  3.6344907727814052e+02  3.6334905502665890e+02  3.6330072922897051e+02  3.6331783461774268e+02  3.6341501273998824e+02  3.6360766365982465e+02  3.6391171493316625e+02  3.6434326725198775e+02  3.6491805003724664e+02  3.6565057905421031e+02  3.6655286281327415e+02  3.6763246558767975e+02  3.6888972217453073e+02  3.7031393872600563e+02  3.7187853179634777e+02  3.7353527198284036e+02  3.7520810435608365e+02  3.7678737394248446e+02  3.7812560560523997e+02  3.7903615202180271e+02  3.7929590138438726e+02  3.7865273951660515e+02  3.7683760020804868e+02  3.7357986674514564e+02  3.6862390670032039e+02  3.6174401719636700e+02  3.5275539710509071e+02  3.4152012417164320e+02  3.2794951968953046e+02  3.1200690133324946e+02  2.9371832147541323e+02  2.7319559286927279e+02  2.5068825784657554e+02  2.2660994457150088e+02  2.0167781267190765e+02  1.7647039725264699e+02  1.5236930508481811e+02  1.2673136455878260e+02  1.0353999570261693e+02  6.1451562236103939e+01  0.0000000000000000e+00  3.6494292357094332e+02  3.6491893473957060e+02  3.6483602216043363e+02  3.6471422174059131e+02  3.6456759776977026e+02  3.6440578264698041e+02  3.6423621253964222e+02  3.6406623373162728e+02  3.6390375763919656e+02  3.6375748494266833e+02  3.6363688735669064e+02  3.6355227441264338e+02  3.6351476280283151e+02  3.6353626871103785e+02  3.6362947088527397e+02  3.6380775030175897e+02  3.6408508262548645e+02  3.6447583587582125e+02  3.6499438696114794e+02  3.6565441874332794e+02  3.6646770413992317e+02  3.6744213992991405e+02  3.6857878473488711e+02  3.6986771266725680e+02  3.7128264475708460e+02  3.7277457950584477e+02  3.7426499818379386e+02  3.7563961394543639e+02  3.7674396406584918e+02  3.7738227602010625e+02  3.7732083793308044e+02  3.7629649655036047e+02  3.7402993011817085e+02  3.7024218692653932e+02  3.6467196573230217e+02  3.5709062671575072e+02  3.4731229741854253e+02  3.3519781218198733e+02  3.2065355998234156e+02  3.0362880117129896e+02  2.8411829983626183e+02  2.6217351943356152e+02  2.3793810754876387e+02  2.1164849517856766e+02  1.8376398556329730e+02  1.5443650726955067e+02  1.2490996417907388e+02  9.1328534643997003e+01  6.3764698164981610e+01  2.8349888620975361e+00  0.0000000000000000e+00  3.6503153994485280e+02  3.6498526834197366e+02  3.6489921893013809e+02  3.6478333223920788e+02  3.6464734825268260e+02  3.6449914253742725e+02  3.6434528308570640e+02  3.6419232401917918e+02  3.6404727600888680e+02  3.6391776172609895e+02  3.6381206528781354e+02  3.6373913413096329e+02  3.6370857195632044e+02  3.6373065113026900e+02  3.6381633041327802e+02  3.6397728075210915e+02  3.6422588835141784e+02  3.6457517566563234e+02  3.6503853114703440e+02  3.6562907894717659e+02  3.6635845955448895e+02  3.6723475085969102e+02  3.6825926412601285e+02  3.6942203245804006e+02  3.7069599748623119e+02  3.7203020122719897e+02  3.7334267811402418e+02  3.7451414469897253e+02  3.7538388425498800e+02  3.7574927939950726e+02  3.7537013610418069e+02  3.7397822058335134e+02  3.7129137476746240e+02  3.6703040607041817e+02  3.6093598999272223e+02  3.5278242980292157e+02  3.4238555621277339e+02  3.2960339927729706e+02  3.1433045508203384e+02  2.9648868878309315e+02  2.7602146860775576e+02  2.5289328714862512e+02  2.2711092564780785e+02  1.9870738819694390e+02  1.6787453619932955e+02  1.3439896853762525e+02  9.9482277057805419e+01  5.8488171748957747e+01  2.6979739430051161e+01  -5.0184553723107456e+01  0.0000000000000000e+00  3.6512994945821561e+02  3.6506173170024761e+02  3.6496982230713678e+02  3.6485727781226905e+02  3.6472983813412833e+02  3.6459331434440179e+02  3.6445314761922731e+02  3.6431495016626207e+02  3.6418476543256503e+02  3.6406917672941603e+02  3.6397532040675020e+02  3.6391087554181746e+02  3.6388407448082273e+02  3.6390374299065184e+02  3.6397937673519840e+02  3.6412124546726454e+02  3.6434048739148255e+02  3.6464911724782741e+02  3.6505981460563908e+02  3.6558529454080167e+02  3.6623700321723669e+02  3.6702284940545576e+02  3.6794370978720951e+02  3.6898856266975088e+02  3.7012833342005507e+02  3.7130887259284253e+02  3.7244389159212199e+02  3.7340906069636804e+02  3.7403870167580652e+02  3.7412644505223807e+02  3.7343077440192025e+02  3.7168554599852888e+02  3.6861447971115996e+02  3.6394751512228072e+02  3.5743612517224221e+02  3.4886445828815027e+02  3.3805370788500841e+02  3.2485839326926612e+02  3.0915520041647784e+02  2.9082714587459901e+02  2.6974872429200747e+02  2.4577508374657236e+02  2.1875155653806482e+02  1.8848900001934643e+02  1.5490728145255076e+02  1.1747309457517382e+02  7.7379248784477028e+01  2.9436159241432588e+01  -6.0096401908237729e+00  -9.8018121379330893e+01  0.0000000000000000e+00  3.6523292179037963e+02  3.6514435893166745e+02  3.6504557636206596e+02  3.6493470763771194e+02  3.6481417092442695e+02  3.6468768709191909e+02  3.6455941060758317e+02  3.6443392972615067e+02  3.6431631820218553e+02  3.6421215192851480e+02  3.6412748692693560e+02  3.6406884822830199e+02  3.6404325511861828e+02  3.6405829749971133e+02  3.6412226849251300e+02  3.6424433583198885e+02  3.6443470316474924e+02  3.6470466431388326e+02  3.6506639204533025e+02  3.6553223719864252e+02  3.6611326094887687e+02  3.6681670903035126e+02  3.6764219360105164e+02  3.6857650541718829e+02  3.6958724978582666e+02  3.7061586645824252e+02  3.7157099374468999e+02  3.7232346217231458e+02  3.7270431678331465e+02  3.7250704659930756e+02  3.7149458964584062e+02  3.6941074228681714e+02  3.6599452011847598e+02  3.6099506803340790e+02  3.5418417082310646e+02  3.4536344844792143e+02  3.3436396585444214e+02  3.2103717069365945e+02  3.0523772861282453e+02  2.8680068690040133e+02  2.6551817194134429e+02  2.4111930831463306e+02  2.1327073411389401e+02  1.8154995361373807e+02  1.4560328092940188e+02  1.0460829684003471e+02  5.9729706240405633e+01  5.3277027526366849e+00  -3.4265080007301478e+01  -1.4049827923498822e+02  0.0000000000000000e+00  3.6533624814002343e+02  3.6522981107586503e+02  3.6512432048273712e+02  3.6501430416198559e+02  3.6489950451979837e+02  3.6478169949495418e+02  3.6466374021688080e+02  3.6454917563115862e+02  3.6444212541179985e+02  3.6434720738515631e+02  3.6426948514740167e+02  3.6421445560169553e+02  3.6418809395239481e+02  3.6419696899819701e+02  3.6424842653554686e+02  3.6435081400198948e+02  3.6451368124866838e+02  3.6474783823343046e+02  3.6506508610468228e+02  3.6547737503000451e+02  3.6599510135361055e+02  3.6662426737381588e+02  3.6736232127484624e+02  3.6819269732088776e+02  3.6907838958453141e+02  3.6995527984916731e+02  3.7072631704478982e+02  3.7125788457933777e+02  3.7137965370158531e+02  3.7088880575793132e+02  3.6955871289170938e+02  3.6715113044681675e+02  3.6342993065022529e+02  3.5817369114902846e+02  3.5118425816088200e+02  3.4228877204032773e+02  3.3133344037926344e+02  3.1816839351911329e+02  3.0262422248099159e+02  2.8448233311924395e+02  2.6344387132460497e+02  2.3910185853859224e+02  2.1093489194695900e+02  1.7828383080581764e+02  1.4052342047888348e+02  9.6567502211341278e+01  4.7499278052319099e+01  -1.2700750558449290e+01  -5.6652118856836921e+01  -1.7662451899308064e+02  0.0000000000000000e+00  3.6543652858420586e+02  3.6531532022164004e+02  3.6520412246876037e+02  3.6509481053702490e+02  3.6498502392393266e+02  3.6487484179765198e+02  3.6476588138996908e+02  3.6466068426834045e+02  3.6456245969743674e+02  3.6447493632528546e+02  3.6440228422260458e+02  3.6434910543896069e+02  3.6432050314583734e+02  3.6432223538597947e+02  3.6436094277782769e+02  3.6444441045441164e+02  3.6458177997134663e+02  3.6478356840034689e+02  3.6506128657564187e+02  3.6542639182187941e+02  3.6588828726523673e+02  3.6645112149139089e+02  3.6710928015323776e+02  3.6784171335420803e+02  3.6860559738953390e+02  3.6933022896174811e+02  3.6991238504540507e+02  3.7021450676319409e+02  3.7006684199990980e+02  3.6927404060511776e+02  3.6762570261283241e+02  3.6490925580396657e+02  3.6092261508775960e+02  3.5548366689846330e+02  3.4843387035307506e+02  3.3963405022379038e+02  3.2895144782597396e+02  3.1623798818393294e+02  3.0130051695626707e+02  2.8386485254788164e+02  2.6353787951029011e+02  2.3977340067666461e+02  2.1186064213630812e+02  1.7890880161108163e+02  1.4002814731859041e+02  9.3901134006945867e+01  4.1462145710841178e+01  -2.3552817350033440e+01  -7.1868026259215455e+01  -2.0439866799089955e+02  0.0000000000000000e+00  3.6553106595053055e+02  3.6539863455339793e+02  3.6528332310763585e+02  3.6517510008354151e+02  3.6507000035934925e+02  3.6496668276338431e+02  3.6486565547088662e+02  3.6476852593588598e+02  3.6467766066242484e+02  3.6459598099171853e+02  3.6452686911681502e+02  3.6447416746011305e+02  3.6444227482683488e+02  3.6443633728590248e+02  3.6446251265455749e+02  3.6452825324753042e+02  3.6464250164699519e+02  3.6481563222612237e+02  3.6505890715392917e+02  3.6538316887995393e+02  3.6579648991147059e+02  3.6630057852815014e+02  3.6688592531592542e+02  3.6752597999146889e+02  3.6817104281537996e+02  3.6874295868843433e+02  3.6913197981369581e+02  3.6919715137194191e+02  3.6877113884993236e+02  3.6766952477384615e+02  3.6570339568413954e+02  3.6269283497375824e+02  3.5847814649266240e+02  3.5292559142616795e+02  3.4592519090130259e+02  3.3737942282422472e+02  3.2718287957693974e+02  3.1519367467693456e+02  3.0119764653727634e+02  2.8486687836051175e+02  2.6571609996995005e+02  2.4306360366029239e+02  2.1601559276434566e+02  1.8346245501540866e+02  1.4426322468553144e+02  9.6917777982827801e+01  4.2147055759500127e+01  -2.6267194179972631e+01  -7.8581147678990902e+01  -2.2085937643224375e+02  0.0000000000000000e+00  3.6561779492623327e+02  3.6547797878807796e+02  3.6536055980923265e+02  3.6525421709997954e+02  3.6515381517114309e+02  3.6505687736705676e+02  3.6496296039512782e+02  3.6487283874436309e+02  3.6478812092958992e+02  3.6471101174108406e+02  3.6464421338708149e+02  3.6459093984532052e+02  3.6455504255004655e+02  3.6454123655108424e+02  3.6455539390943943e+02  3.6460483166276919e+02  3.6469846687455197e+02  3.6484664676141421e+02  3.6506040112055319e+02  3.6534983026927921e+02  3.6572136615078921e+02  3.6617376213125544e+02  3.6669290489435451e+02  3.6724590015631429e+02  3.6777531681461824e+02  3.6819487552712559e+02  3.6838807629376595e+02  3.6821109500405839e+02  3.6750061208831971e+02  3.6608607839263789e+02  3.6380449294948090e+02  3.6051448398523422e+02  3.5610584846406442e+02  3.5050107339573111e+02  3.4364671799316096e+02  3.3549437797571056e+02  3.2597250431815627e+02  3.1495089951993384e+02  3.0219939952334602e+02  2.8734182921097209e+02  2.6980801564162147e+02  2.4879072131353567e+02  2.2322643915431115e+02  1.9180568864896483e+02  1.5315520301389026e+02  1.0565774272257325e+02  4.9770508027927804e+01  -2.0179295969767839e+01  -7.5683494136579569e+01  -2.2244428047922409e+02  0.0000000000000000e+00  3.6569523077236192e+02  3.6555202315061433e+02  3.6543477219271148e+02  3.6533139882735861e+02  3.6523597914250848e+02  3.6514517764915155e+02  3.6505777223588410e+02  3.6497382230899052e+02  3.6489427405536946e+02  3.6482071034420915e+02  3.6475525849212397e+02  3.6470062591696160e+02  3.6466025757267130e+02  3.6463859528220769e+02  3.6464139269058370e+02  3.6467599482886357e+02  3.6475143195909612e+02  3.6487811135290400e+02  3.6506683470644509e+02  3.6532684973260984e+02  3.6566269702511852e+02  3.6606977356890781e+02  3.6652882539490054e+02  3.6699999395243981e+02  3.6741750945788937e+02  3.6768651847036000e+02  3.6768366474187332e+02  3.6726271518332953e+02  3.6626561486554880e+02  3.6453792055217144e+02  3.6194590153219389e+02  3.5839123342013335e+02  3.5381873705435282e+02  3.4821341679775094e+02  3.4158504099545883e+02  3.3394098321489395e+02  3.2524998386550919e+02  3.1539989099562473e+02  3.0415154094289585e+02  2.9108925739400917e+02  2.7556993351155893e+02  2.5667626147068552e+02  2.3319442672166167e+02  2.0363680923762786e+02  1.6642048571594850e+02  1.1987882693890383e+02  6.4178035111027469e+01  -5.1264555185476111e+00  -6.2624079585040391e+01  -2.0579745119206808e+02  0.0000000000000000e+00  3.6576242644818217e+02  3.6561985496322598e+02  3.6550519786290175e+02  3.6540608538497173e+02  3.6531614319158558e+02  3.6523143784762112e+02  3.6515014419213043e+02  3.6507173189151166e+02  3.6499658486882998e+02  3.6492575754249287e+02  3.6486090010387534e+02  3.6480432142887321e+02  3.6475918016719396e