<?xml version="1.0"?>
<VTKFile type="UnstructuredGrid"  version="0.1"  >
<UnstructuredGrid>
<Piece  NumberOfPoints="2601" NumberOfCells="5000">
<Points>
<DataArray  type="Float64"  NumberOfComponents="3"  format="ascii">0 0 0  0.04 0 0  0.08 0 0  0.12 0 0  0.16 0 0  0.2 0 0  0.24 0 0  0.28 0 0  0.32 0 0  0.36 0 0  0.4 0 0  0.44 0 0  0.48 0 0  0.52 0 0  0.5600000000000001 0 0  0.6 0 0  0.64 0 0  0.68 0 0  0.72 0 0  0.76 0 0  0.8 0 0  0.84 0 0  0.88 0 0  0.92 0 0  0.96 0 0  1 0 0  1.04 0 0  1.08 0 0  1.12 0 0  1.16 0 0  1.2 0 0  1.24 0 0  1.28 0 0  1.32 0 0  1.36 0 0  1.4 0 0  1.44 0 0  1.48 0 0  1.52 0 0  1.56 0 0  1.6 0 0  1.64 0 0  1.68 0 0  1.72 0 0  1.76 0 0  1.8 0 0  1.84 0 0  1.88 0 0  1.92 0 0  1.96 0 0  2 0 0  0 0.02 0  0.04 0.02 0  0.08 0.02 0  0.12 0.02 0  0.16 0.02 0  0.2 0.02 0  0.24 0.02 0  0.28 0.02 0  0.32 0.02 0  0.36 0.02 0  0.4 0.02 0  0.44 0.02 0  0.48 0.02 0  0.52 0.02 0  0.5600000000000001 0.02 0  0.6 0.02 0  0.64 0.02 0  0.68 0.02 0  0.72 0.02 0  0.76 0.02 0  0.8 0.02 0  0.84 0.02 0  0.88 0.02 0  0.92 0.02 0  0.96 0.02 0  1 0.02 0  1.04 0.02 0  1.08 0.02 0  1.12 0.02 0  1.16 0.02 0  1.2 0.02 0  1.24 0.02 0  1.28 0.02 0  1.32 0.02 0  1.36 0.02 0  1.4 0.02 0  1.44 0.02 0  1.48 0.02 0  1.52 0.02 0  1.56 0.02 0  1.6 0.02 0  1.64 0.02 0  1.68 0.02 0  1.72 0.02 0  1.76 0.02 0  1.8 0.02 0  1.84 0.02 0  1.88 0.02 0  1.92 0.02 0  1.96 0.02 0  2 0.02 0  0 0.04 0  0.04 0.04 0  0.08 0.04 0  0.12 0.04 0  0.16 0.04 0  0.2 0.04 0  0.24 0.04 0  0.28 0.04 0  0.32 0.04 0  0.36 0.04 0  0.4 0.04 0  0.44 0.04 0  0.48 0.04 0  0.52 0.04 0  0.5600000000000001 0.04 0  0.6 0.04 0  0.64 0.04 0  0.68 0.04 0  0.72 0.04 0  0.76 0.04 0  0.8 0.04 0  0.84 0.04 0  0.88 0.04 0  0.92 0.04 0  0.96 0.04 0  1 0.04 0  1.04 0.04 0  1.08 0.04 0  1.12 0.04 0  1.16 0.04 0  1.2 0.04 0  1.24 0.04 0  1.28 0.04 0  1.32 0.04 0  1.36 0.04 0  1.4 0.04 0  1.44 0.04 0  1.48 0.04 0  1.52 0.04 0  1.56 0.04 0  1.6 0.04 0  1.64 0.04 0  1.68 0.04 0  1.72 0.04 0  1.76 0.04 0  1.8 0.04 0  1.84 0.04 0  1.88 0.04 0  1.92 0.04 0  1.96 0.04 0  2 0.04 0  0 0.06 0  0.04 0.06 0  0.08 0.06 0  0.12 0.06 0  0.16 0.06 0  0.2 0.06 0  0.24 0.06 0  0.28 0.06 0  0.32 0.06 0  0.36 0.06 0  0.4 0.06 0  0.44 0.06 0  0.48 0.06 0  0.52 0.06 0  0.5600000000000001 0.06 0  0.6 0.06 0  0.64 0.06 0  0.68 0.06 0  0.72 0.06 0  0.76 0.06 0  0.8 0.06 0  0.84 0.06 0  0.88 0.06 0  0.92 0.06 0  0.96 0.06 0  1 0.06 0  1.04 0.06 0  1.08 0.06 0  1.12 0.06 0  1.16 0.06 0  1.2 0.06 0  1.24 0.06 0  1.28 0.06 0  1.32 0.06 0  1.36 0.06 0  1.4 0.06 0  1.44 0.06 0  1.48 0.06 0  1.52 0.06 0  1.56 0.06 0  1.6 0.06 0  1.64 0.06 0  1.68 0.06 0  1.72 0.06 0  1.76 0.06 0  1.8 0.06 0  1.84 0.06 0  1.88 0.06 0  1.92 0.06 0  1.96 0.06 0  2 0.06 0  0 0.08 0  0.04 0.08 0  0.08 0.08 0  0.12 0.08 0  0.16 0.08 0  0.2 0.08 0  0.24 0.08 0  0.28 0.08 0  0.32 0.08 0  0.36 0.08 0  0.4 0.08 0  0.44 0.08 0  0.48 0.08 0  0.52 0.08 0  0.5600000000000001 0.08 0  0.6 0.08 0  0.64 0.08 0  0.68 0.08 0  0.72 0.08 0  0.76 0.08 0  0.8 0.08 0  0.84 0.08 0  0.88 0.08 0  0.92 0.08 0  0.96 0.08 0  1 0.08 0  1.04 0.08 0  1.08 0.08 0  1.12 0.08 0  1.16 0.08 0  1.2 0.08 0  1.24 0.08 0  1.28 0.08 0  1.32 0.08 0  1.36 0.08 0  1.4 0.08 0  1.44 0.08 0  1.48 0.08 0  1.52 0.08 0  1.56 0.08 0  1.6 0.08 0  1.64 0.08 0  1.68 0.08 0  1.72 0.08 0  1.76 0.08 0  1.8 0.08 0  1.84 0.08 0  1.88 0.08 0  1.92 0.08 0  1.96 0.08 0  2 0.08 0  0 0.1 0  0.04 0.1 0  0.08 0.1 0  0.12 0.1 0  0.16 0.1 0  0.2 0.1 0  0.24 0.1 0  0.28 0.1 0  0.32 0.1 0  0.36 0.1 0  0.4 0.1 0  0.44 0.1 0  0.48 0.1 0  0.52 0.1 0  0.5600000000000001 0.1 0  0.6 0.1 0  0.64 0.1 0  0.68 0.1 0  0.72 0.1 0  0.76 0.1 0  0.8 0.1 0  0.84 0.1 0  0.88 0.1 0  0.92 0.1 0  0.96 0.1 0  1 0.1 0  1.04 0.1 0  1.08 0.1 0  1.12 0.1 0  1.16 0.1 0  1.2 0.1 0  1.24 0.1 0  1.28 0.1 0  1.32 0.1 0  1.36 0.1 0  1.4 0.1 0  1.44 0.1 0  1.48 0.1 0  1.52 0.1 0  1.56 0.1 0  1.6 0.1 0  1.64 0.1 0  1.68 0.1 0  1.72 0.1 0  1.76 0.1 0  1.8 0.1 0  1.84 0.1 0  1.88 0.1 0  1.92 0.1 0  1.96 0.1 0  2 0.1 0  0 0.12 0  0.04 0.12 0  0.08 0.12 0  0.12 0.12 0  0.16 0.12 0  0.2 0.12 0  0.24 0.12 0  0.28 0.12 0  0.32 0.12 0  0.36 0.12 0  0.4 0.12 0  0.44 0.12 0  0.48 0.12 0  0.52 0.12 0  0.5600000000000001 0.12 0  0.6 0.12 0  0.64 0.12 0  0.68 0.12 0  0.72 0.12 0  0.76 0.12 0  0.8 0.12 0  0.84 0.12 0  0.88 0.12 0  0.92 0.12 0  0.96 0.12 0  1 0.12 0  1.04 0.12 0  1.08 0.12 0  1.12 0.12 0  1.16 0.12 0  1.2 0.12 0  1.24 0.12 0  1.28 0.12 0  1.32 0.12 0  1.36 0.12 0  1.4 0.12 0  1.44 0.12 0  1.48 0.12 0  1.52 0.12 0  1.56 0.12 0  1.6 0.12 0  1.64 0.12 0  1.68 0.12 0  1.72 0.12 0  1.76 0.12 0  1.8 0.12 0  1.84 0.12 0  1.88 0.12 0  1.92 0.12 0  1.96 0.12 0  2 0.12 0  0 0.14 0  0.04 0.14 0  0.08 0.14 0  0.12 0.14 0  0.16 0.14 0  0.2 0.14 0  0.24 0.14 0  0.28 0.14 0  0.32 0.14 0  0.36 0.14 0  0.4 0.14 0  0.44 0.14 0  0.48 0.14 0  0.52 0.14 0  0.5600000000000001 0.14 0  0.6 0.14 0  0.64 0.14 0  0.68 0.14 0  0.72 0.14 0  0.76 0.14 0  0.8 0.14 0  0.84 0.14 0  0.88 0.14 0  0.92 0.14 0  0.96 0.14 0  1 0.14 0  1.04 0.14 0  1.08 0.14 0  1.12 0.14 0  1.16 0.14 0  1.2 0.14 0  1.24 0.14 0  1.28 0.14 0  1.32 0.14 0  1.36 0.14 0  1.4 0.14 0  1.44 0.14 0  1.48 0.14 0  1.52 0.14 0  1.56 0.14 0  1.6 0.14 0  1.64 0.14 0  1.68 0.14 0  1.72 0.14 0  1.76 0.14 0  1.8 0.14 0  1.84 0.14 0  1.88 0.14 0  1.92 0.14 0  1.96 0.14 0  2 0.14 0  0 0.16 0  0.04 0.16 0  0.08 0.16 0  0.12 0.16 0  0.16 0.16 0  0.2 0.16 0  0.24 0.16 0  0.28 0.16 0  0.32 0.16 0  0.36 0.16 0  0.4 0.16 0  0.44 0.16 0  0.48 0.16 0  0.52 0.16 0  0.5600000000000001 0.16 0  0.6 0.16 0  0.64 0.16 0  0.68 0.16 0  0.72 0.16 0  0.76 0.16 0  0.8 0.16 0  0.84 0.16 0  0.88 0.16 0  0.92 0.16 0  0.96 0.16 0  1 0.16 0  1.04 0.16 0  1.08 0.16 0  1.12 0.16 0  1.16 0.16 0  1.2 0.16 0  1.24 0.16 0  1.28 0.16 0  1.32 0.16 0  1.36 0.16 0  1.4 0.16 0  1.44 0.16 0  1.48 0.16 0  1.52 0.16 0  1.56 0.16 0  1.6 0.16 0  1.64 0.16 0  1.68 0.16 0  1.72 0.16 0  1.76 0.16 0  1.8 0.16 0  1.84 0.16 0  1.88 0.16 0  1.92 0.16 0  1.96 0.16 0  2 0.16 0  0 0.18 0  0.04 0.18 0  0.08 0.18 0  0.12 0.18 0  0.16 0.18 0  0.2 0.18 0  0.24 0.18 0  0.28 0.18 0  0.32 0.18 0  0.36 0.18 0  0.4 0.18 0  0.44 0.18 0  0.48 0.18 0  0.52 0.18 0  0.5600000000000001 0.18 0  0.6 0.18 0  0.64 0.18 0  0.68 0.18 0  0.72 0.18 0  0.76 0.18 0  0.8 0.18 0  0.84 0.18 0  0.88 0.18 0  0.92 0.18 0  0.96 0.18 0  1 0.18 0  1.04 0.18 0  1.08 0.18 0  1.12 0.18 0  1.16 0.18 0  1.2 0.18 0  1.24 0.18 0  1.28 0.18 0  1.32 0.18 0  1.36 0.18 0  1.4 0.18 0  1.44 0.18 0  1.48 0.18 0  1.52 0.18 0  1.56 0.18 0  1.6 0.18 0  1.64 0.18 0  1.68 0.18 0  1.72 0.18 0  1.76 0.18 0  1.8 0.18 0  1.84 0.18 0  1.88 0.18 0  1.92 0.18 0  1.96 0.18 0  2 0.18 0  0 0.2 0  0.04 0.2 0  0.08 0.2 0  0.12 0.2 0  0.16 0.2 0  0.2 0.2 0  0.24 0.2 0  0.28 0.2 0  0.32 0.2 0  0.36 0.2 0  0.4 0.2 0  0.44 0.2 0  0.48 0.2 0  0.52 0.2 0  0.5600000000000001 0.2 0  0.6 0.2 0  0.64 0.2 0  0.68 0.2 0  0.72 0.2 0  0.76 0.2 0  0.8 0.2 0  0.84 0.2 0  0.88 0.2 0  0.92 0.2 0  0.96 0.2 0  1 0.2 0  1.04 0.2 0  1.08 0.2 0  1.12 0.2 0  1.16 0.2 0  1.2 0.2 0  1.24 0.2 0  1.28 0.2 0  1.32 0.2 0  1.36 0.2 0  1.4 0.2 0  1.44 0.2 0  1.48 0.2 0  1.52 0.2 0  1.56 0.2 0  1.6 0.2 0  1.64 0.2 0  1.68 0.2 0  1.72 0.2 0  1.76 0.2 0  1.8 0.2 0  1.84 0.2 0  1.88 0.2 0  1.92 0.2 0  1.96 0.2 0  2 0.2 0  0 0.22 0  0.04 0.22 0  0.08 0.22 0  0.12 0.22 0  0.16 0.22 0  0.2 0.22 0  0.24 0.22 0  0.28 0.22 0  0.32 0.22 0  0.36 0.22 0  0.4 0.22 0  0.44 0.22 0  0.48 0.22 0  0.52 0.22 0  0.5600000000000001 0.22 0  0.6 0.22 0  0.64 0.22 0  0.68 0.22 0  0.72 0.22 0  0.76 0.22 0  0.8 0.22 0  0.84 0.22 0  0.88 0.22 0  0.92 0.22 0  0.96 0.22 0  1 0.22 0  1.04 0.22 0  1.08 0.22 0  1.12 0.22 0  1.16 0.22 0  1.2 0.22 0  1.24 0.22 0  1.28 0.22 0  1.32 0.22 0  1.36 0.22 0  1.4 0.22 0  1.44 0.22 0  1.48 0.22 0  1.52 0.22 0  1.56 0.22 0  1.6 0.22 0  1.64 0.22 0  1.68 0.22 0  1.72 0.22 0  1.76 0.22 0  1.8 0.22 0  1.84 0.22 0  1.88 0.22 0  1.92 0.22 0  1.96 0.22 0  2 0.22 0  0 0.24 0  0.04 0.24 0  0.08 0.24 0  0.12 0.24 0  0.16 0.24 0  0.2 0.24 0  0.24 0.24 0  0.28 0.24 0  0.32 0.24 0  0.36 0.24 0  0.4 0.24 0  0.44 0.24 0  0.48 0.24 0  0.52 0.24 0  0.5600000000000001 0.24 0  0.6 0.24 0  0.64 0.24 0  0.68 0.24 0  0.72 0.24 0  0.76 0.24 0  0.8 0.24 0  0.84 0.24 0  0.88 0.24 0  0.92 0.24 0  0.96 0.24 0  1 0.24 0  1.04 0.24 0  1.08 0.24 0  1.12 0.24 0  1.16 0.24 0  1.2 0.24 0  1.24 0.24 0  1.28 0.24 0  1.32 0.24 0  1.36 0.24 0  1.4 0.24 0  1.44 0.24 0  1.48 0.24 0  1.52 0.24 0  1.56 0.24 0  1.6 0.24 0  1.64 0.24 0  1.68 0.24 0  1.72 0.24 0  1.76 0.24 0  1.8 0.24 0  1.84 0.24 0  1.88 0.24 0  1.92 0.24 0  1.96 0.24 0  2 0.24 0  0 0.26 0  0.04 0.26 0  0.08 0.26 0  0.12 0.26 0  0.16 0.26 0  0.2 0.26 0  0.24 0.26 0  0.28 0.26 0  0.32 0.26 0  0.36 0.26 0  0.4 0.26 0  0.44 0.26 0  0.48 0.26 0  0.52 0.26 0  0.5600000000000001 0.26 0  0.6 0.26 0  0.64 0.26 0  0.68 0.26 0  0.72 0.26 0  0.76 0.26 0  0.8 0.26 0  0.84 0.26 0  0.88 0.26 0  0.92 0.26 0  0.96 0.26 0  1 0.26 0  1.04 0.26 0  1.08 0.26 0  1.12 0.26 0  1.16 0.26 0  1.2 0.26 0  1.24 0.26 0  1.28 0.26 0  1.32 0.26 0  1.36 0.26 0  1.4 0.26 0  1.44 0.26 0  1.48 0.26 0  1.52 0.26 0  1.56 0.26 0  1.6 0.26 0  1.64 0.26 0  1.68 0.26 0  1.72 0.26 0  1.76 0.26 0  1.8 0.26 0  1.84 0.26 0  1.88 0.26 0  1.92 0.26 0  1.96 0.26 0  2 0.26 0  0 0.28 0  0.04 0.28 0  0.08 0.28 0  0.12 0.28 0  0.16 0.28 0  0.2 0.28 0  0.24 0.28 0  0.28 0.28 0  0.32 0.28 0  0.36 0.28 0  0.4 0.28 0  0.44 0.28 0  0.48 0.28 0  0.52 0.28 0  0.5600000000000001 0.28 0  0.6 0.28 0  0.64 0.28 0  0.68 0.28 0  0.72 0.28 0  0.76 0.28 0  0.8 0.28 0  0.84 0.28 0  0.88 0.28 0  0.92 0.28 0  0.96 0.28 0  1 0.28 0  1.04 0.28 0  1.08 0.28 0  1.12 0.28 0  1.16 0.28 0  1.2 0.28 0  1.24 0.28 0  1.28 0.28 0  1.32 0.28 0  1.36 0.28 0  1.4 0.28 0  1.44 0.28 0  1.48 0.28 0  1.52 0.28 0  1.56 0.28 0  1.6 0.28 0  1.64 0.28 0  1.68 0.28 0  1.72 0.28 0  1.76 0.28 0  1.8 0.28 0  1.84 0.28 0  1.88 0.28 0  1.92 0.28 0  1.96 0.28 0  2 0.28 0  0 0.3 0  0.04 0.3 0  0.08 0.3 0  0.12 0.3 0  0.16 0.3 0  0.2 0.3 0  0.24 0.3 0  0.28 0.3 0  0.32 0.3 0  0.36 0.3 0  0.4 0.3 0  0.44 0.3
[...]
<PointData  Scalars="f_26-2"> 
<DataArray  type="Float64"  Name="f_26-2"  format="ascii">9.2898918926595088e+03  9.2885871296276982e+03  9.2876790438382341e+03  9.2849868561268831e+03  9.2809341385595544e+03  9.2756103864644901e+03  9.2690380738276381e+03  9.2611424438763570e+03  9.2517688906944477e+03  9.2406860763138811e+03  9.2275771306389688e+03  9.2120203379734794e+03  9.1934577153359496e+03  9.1711485072150299e+03  9.1441021752856614e+03  9.1109825226531320e+03  9.0699707746997410e+03  9.0185706461653608e+03  8.9533328838912093e+03  8.8694715141126853e+03  8.7603417929907191e+03  8.6167567757539455e+03  8.4261483131026125e+03  8.1716524484762322e+03  7.8313623671357427e+03  7.3782899275567142e+03  6.7820784480900538e+03  6.0139689019123307e+03  5.0564677062981436e+03  3.9160933116168458e+03  2.6272313617317950e+03  1.2203759618308923e+03  -4.0480395385621438e+02  -2.6731900925470959e+03  -6.4841567925242916e+03  -1.2908308036644295e+04  -2.1725068852970733e+04  -3.1317919227961916e+04  -4.0595514180797072e+04  -4.4850555602948145e+04  -3.6171322053331314e+04  -3.4301787060553674e+04  -2.5444583714147735e+04  9.1710032441251369e+03  -4.9518729294112716e+04  -1.3751906093013295e+05  -2.7935359649694880e+05  -1.8567549534222757e+05  2.7999449893121000e+04  1.6524830092088036e+04  0.0000000000000000e+00  9.2888675428076422e+03  9.2883625164305613e+03  9.2872818627921752e+03  9.2846646088380694e+03  9.2807294068913343e+03  9.2754810077382099e+03  9.2689273128676068e+03  9.2609797315725773e+03  9.2514722158203167e+03  9.2401570819396784e+03  9.2266937446504508e+03  9.2106271595593098e+03  9.1913538538171615e+03  9.1680721714927258e+03  9.1397110147341864e+03  9.1048285023681801e+03  9.0614681592075176e+03  9.0069554436944509e+03  8.9376118618580622e+03  8.8483587855672886e+03  8.7321817437070749e+03  8.5794363855369793e+03  8.3770168597277061e+03  8.1075097275789276e+03  7.7486798754606625e+03  7.2740507829392427e+03  6.6559843988917501e+03  5.8732331111370886e+03  4.9245803041043646e+03  3.8458419359562204e+03  2.7180371919864456e+03  1.6371247651799029e+03  6.1240485683200654e+02  -5.9072034953672562e+02  -2.6764058506961283e+03  -6.8659585861312326e+03  -1.5008275849436099e+04  -2.8103031067351130e+04  -4.0366031806539693e+04  -4.2048566142169904e+04  -3.6282544348415111e+04  -3.5538590624448829e+04  -3.3114202313671653e+04  -1.5876161759904637e+04  8.6519740397230253e+03  5.8759513878778351e+04  -1.3760582738470808e+04  -2.3917121677943206e+05  -5.9060278592847217e+03  2.3805107876106107e+04  0.0000000000000000e+00  9.2880480938768196e+03  9.2883671251559972e+03  9.2872192630786358e+03  9.2846999230929887e+03  9.2808555911976873e+03  9.2756853378496471e+03  9.2691744915271538e+03  9.2612192641008478e+03  9.2516444283922465e+03  9.2401915372548065e+03  9.2265070448612332e+03  9.2101198340161300e+03  9.1904071522538998e+03  9.1665451227612593e+03  9.1374380733505859e+03  9.1016180000061231e+03  9.0571013834115511e+03  9.0011851053595601e+03  8.9301564688016551e+03  8.8388856729853615e+03  8.7202671912364640e+03  8.5644916800886040e+03  8.3581907047144305e+03  8.0836594068270870e+03  7.7187242868787853e+03  7.2384981456177902e+03  6.6212757038339223e+03  5.8616749759603290e+03  4.9934122275315267e+03  4.1180309841639255e+03  3.4238665525687484e+03  3.1563520603283055e+03  3.5001888171643973e+03  4.3077310919710171e+03  4.5687919790424130e+03  1.6749962632546922e+03  -9.2666338941373542e+03  -2.8112967808629171e+04  -4.1205351251419459e+04  -4.0015967489237453e+04  -3.3625916891765002e+04  -3.6756857420640918e+04  -4.0546917103229876e+04  1.3747936631997065e+04  6.8127040947713496e+04  4.2362649804009205e+04  -4.8044907236669511e+04  -1.5343213817381032e+05  -1.0008388696112247e+05  3.1263762990615265e+04  0.0000000000000000e+00  9.2881681963417996e+03  9.2886497417244173e+03  9.2875154980775023e+03  9.2850769782139159e+03  9.2813094763851859e+03  9.2762249364311374e+03  9.2697780854709072e+03  9.2618549407095452e+03  9.2522724777109397e+03  9.2407659575864545e+03  9.2269766214064111e+03  9.2104291951027735e+03  9.1904990787816969e+03  9.1663648550846774e+03  9.1369404369152053e+03  9.1007779536365761e+03  9.0559279257335456e+03  8.9997368708672821e+03  8.9285543378956190e+03  8.8373134578934332e+03  8.7189485233886517e+03  8.5636389026454926e+03  8.3579641513806073e+03  8.0843049967793331e+03  7.7213648443649836e+03  7.2476557722836915e+03  6.6511483718385980e+03  5.9492252110182872e+03  5.2214734821454313e+03  4.6488988459435141e+03  4.5348269421647547e+03  5.2463008626342416e+03  7.0042385660074451e+03  9.3817414775791694e+03  1.0550566123414023e+04  6.2008327989202344e+03  -9.5072647564387498e+03  -3.0199825413922546e+04  -3.8855465876696937e+04  -3.4844741104415007e+04  -2.8623081131045325e+04  -3.0754068403328522e+04  -2.0722033880624869e+04  4.0966156588226506e+04  5.1125388702463904e+04  2.5174537920914336e+03  4.6972987065682333e+04  -1.1405248303927878e+04  -3.8257422320227357e+04  -1.4604642663081166e+04  0.0000000000000000e+00  9.2887866939838223e+03  9.2892460310893985e+03  9.2881663888032090e+03  9.2857815039448033e+03  9.2820915609184140e+03  9.2770991861250841e+03  9.2707377639552888e+03  9.2628859996512256e+03  9.2533543830577273e+03  9.2418759144987507e+03  9.2280925449919905e+03  9.2115335872123214e+03  9.1915847530483388e+03  9.1674434390463739e+03  9.1380545993613305e+03  9.1020180002941634e+03  9.0574526397488407e+03  9.0017968464571040e+03  8.9315134547251655e+03  8.8416615720018890e+03  8.7253002753343208e+03  8.5727321337018420e+03  8.3707349370211195e+03  8.1022779928331083e+03  7.7479361139335588e+03  7.2914283056519862e+03  6.7332379835232814e+03  6.1168999712892291e+03  5.5692636085241957e+03  5.3426471927239636e+03  5.8190641368314828e+03  7.3882648212787744e+03  1.0108209829742047e+04  1.3054824401874348e+04  1.3644844873436763e+04  6.5332745430308269e+03  -1.2254536243941089e+04  -2.8944105337447050e+04  -3.0584019957077489e+04  -2.7346390162151976e+04  -3.4438454527664500e+04  -3.2498939751409209e+04  7.5451300804717066e+03  2.4893754086473276e+04  1.3756949093652192e+04  1.0823421024838723e+05  1.8403248259352989e+05  1.2730527741870244e+04  3.9231846892280286e+04  -2.4521892643318144e+04  0.0000000000000000e+00  9.2898599361641554e+03  9.2902260278230060e+03  9.2891546915478757e+03  9.2868076388222835e+03  9.2831975446979595e+03  9.2783055591083921e+03  9.2720541938918286e+03  9.2643149465411807e+03  9.2548947388494744e+03  9.2435280880172631e+03  9.2298628377256027e+03  9.2134400855580134e+03  9.1936652967453301e+03  9.1697667300078883e+03  9.1407353711876567e+03  9.1052368965844598e+03  9.0614807670635273e+03  9.0070237153170892e+03  8.9384755314393169e+03  8.8510688026230055e+03  8.7380655112857166e+03  8.5900374775369582e+03  8.3942480910813520e+03  8.1348075120670728e+03  7.7951397631173022e+03  7.3656635400007990e+03  6.8610509497737648e+03  6.3512331132451300e+03  6.0043932591045068e+03  6.1207432881468376e+03  7.0987764438007343e+03  9.2289967013064324e+03  1.2264742602035158e+04  1.4852581755604484e+04  1.4131386756385447e+04  4.5802321580329517e+03  -1.4287778702367452e+04  -2.2495302575152404e+04  -1.6905528393677228e+04  -2.4576066790932924e+04  -5.2195625932633156e+04  -1.9482534183014712e+04  5.0403685162510534e+04  1.6105578762118839e+04  4.6908945892401542e+04  1.5422680579656005e+05  5.5626990258083817e+04  7.1508597504721751e+04  7.0697500276896490e+03  -4.9046827241511433e+04  0.0000000000000000e+00  9.2913361624062072e+03  9.2915570373664868e+03  9.2904612114010833e+03  9.2881477693286379e+03  9.2846185423386123e+03  9.2798391866341699e+03  9.2737248520550238e+03  9.2661413289799239e+03  9.2568955116709567e+03  9.2457270099449379e+03  9.2322945051033948e+03  9.2161572683674585e+03  9.1967485465077825e+03  9.1733373205497046e+03  9.1449724751300728e+03  9.1103997469406750e+03  9.0679361015924096e+03  9.0152781756148415e+03  8.9492126286608745e+03  8.8651931444637139e+03  8.7567699368812246e+03  8.6149461671399276e+03  8.4277769834508726e+03  8.1810589749783740e+03  7.8619338154931165e+03  7.4686310999452644e+03  7.0307052606288416e+03  6.6425489244823129e+03  6.5033468567845403e+03  6.9302114668512804e+03  8.2690259874010153e+03  1.0608154029496041e+04  1.3368648547949042e+04  1.5058513169589129e+04  1.3100133431246277e+04  2.2440634884315364e+03  -1.4222209742783027e+04  -1.1077354266731045e+04  -1.0657893012584018e+03  -2.7646341166538976e+04  -5.6367301681442412e+04  9.9424817629011723e+03  6.7636844335164438e+04  1.7076341083392403e+04  9.0814652436273565e+04  1.4517020686106494e+05  5.8039216801511007e+04  2.2652625765192985e+04  -8.3326034057510245e+04  -5.5947244209343495e+04  0.0000000000000000e+00  9.2931624173483069e+03  9.2932138255525697e+03  9.2920738671589188e+03  9.2897882808331797e+03  9.2863429763335062e+03  9.2816916306743915e+03  9.2757429225743308e+03  9.2683600635196453e+03  9.2593531615800839e+03  9.2484706407278118e+03  9.2353868539155737e+03  9.2196851970054922e+03  9.2008340000906228e+03  9.1781517620533959e+03  9.1507557706601892e+03  9.1174844572175807e+03  9.0767780083591279e+03  9.0264939630191784e+03  8.9636270187452155e+03  8.8839035214388005e+03  8.7812537674908181e+03  8.6472796212286121e+03  8.4711253225371129e+03  8.2407661799279267e+03  7.9477745906556402e+03  7.5989549015166112e+03  7.2387862447320658e+03  6.9831355151228672e+03  7.0505214465537292e+03  7.7440250512663879e+03  9.2977030219678345e+03  1.1540234274119046e+04  1.3640306807989060e+04  1.4337414308828920e+04  1.1727405364994233e+04  6.9700989858235425e+02  -1.2177024924933668e+04  3.1374388162660657e+03  1.3780577803379294e+04  -2.7026594653232532e+04  -3.9595264282892589e+04  2.5770056597711129e+04  5.0618795506838862e+04  4.2459874650564627e+04  1.0317865793572820e+05  5.3239571705804723e+04  2.9561472669990675e+04  -2.0707328067796025e+04  9.8966999390705696e+03  -1.8826506233242351e+04  0.0000000000000000e+00  9.2952933621117245e+03  9.2951666916063623e+03  9.2939716023918099e+03  9.2917116075736940e+03  9.2883567747362540e+03  9.2838504936535828e+03  9.2780971584687668e+03  9.2709605833358182e+03  9.2622572071840586e+03  9.2517481289032949e+03  9.2391280389059139e+03  9.2240101137130641e+03  9.2059046110704003e+03  9.1841877574334285e+03  9.1580551317184018e+03  9.1264500204312571e+03  9.0879514957455722e+03  9.0405997129686184e+03  8.9816302656500884e+03  8.9070958636157957e+03  8.8113986896238785e+03  8.6868971216373484e+03  8.5240868531538254e+03  8.3135256350421350e+03  8.0517493398327570e+03  7.7546018156408363e+03  7.4811611111580323e+03  7.3656354556481301e+03  7.6353504160660668e+03  8.5544220102951349e+03  1.0206743130810175e+04  1.2155557831406502e+04  1.3460334837284850e+04  1.3414031485298327e+04  1.0924101260921756e+04  4.9708361355150697e+02  -9.1244041066900663e+03  1.6648478745721102e+04  2.7432911828834443e+04  -1.7930543899045701e+04  -2.0881008589604444e+04  2.5370142173756558e+04  3.3263992782246503e+04  5.0884130655144822e+04  5.7309551634842966e+04  5.9923854479981921e+04  1.3495875145233500e+04  -6.7259769030294381e+04  7.1223124889646206e+03  2.9808304438844712e+04  0.0000000000000000e+00  9.2976879409897083e+03  9.2973849299398298e+03  9.2961315400920994e+03  9.2938986421998125e+03  9.2906429098278441e+03  9.2862998421241009e+03  9.2807720583779301e+03  9.2739268241691607e+03  9.2655900865084513e+03  9.2555393948386300e+03  9.2434942261240831e+03  9.2291028904556861e+03  9.2119240006749842e+03  9.1913992515955324e+03  9.1668119605031316e+03  9.1372221356225145e+03  9.1013633743035243e+03  9.0574804061801842e+03  9.0030826335764141e+03  8.9346010237718820e+03  8.8469934131853315e+03  8.7335087599926574e+03  8.5861995795886633e+03  8.3984929986553525e+03  8.1722175306039908e+03  7.9324391186756402e+03  7.7522940768076433e+03  7.7816042889178771e+03  8.2487070294724108e+03  9.3633940268167808e+03  1.1046200147379028e+04  1.2631621390161756e+04  1.3223214380927697e+04  1.2870126204998218e+04  1.1252344622793977e+04  1.9208560198801297e+03  -6.2553908020045228e+03  2.5967143356755572e+04  4.0003186372025390e+04  -7.4573242767128877e+03  -1.5571907114995198e+04  2.4013107262064885e+04  3.1951747866251178e+04  5.0563687788558680e+04  5.7295652672100987e+04  5.4942492271148782e+04  -1.4593328864955818e+04  -1.1426648509927386e+03  -1.4073098082003486e+05  -2.0569128330184353e+05  0.0000000000000000e+00  9.3003090600325431e+03  9.2998383189642846e+03  9.2985291648868406e+03  9.2963280571142277e+03  9.2931818323616226e+03  9.2890207861981944e+03  9.2837482399691926e+03  9.2772376615618014e+03  9.2693275871529204e+03  9.2598155563420751e+03  9.2484499875814472e+03  9.2349192759053312e+03  9.2188363210030857e+03  9.1997154722296764e+03  9.1769366575584027e+03  9.1496879113208433e+03  9.1168723986327313e+03  9.0769604454386372e+03  9.0277659382418260e+03  8.9661440120815969e+03  8.8876767662692382e+03  8.7866027279767131e+03  8.6566629127075576e+03  8.4943015525850296e+03  8.3067391941950573e+03  8.1281439676508053e+03  8.0449786920601910e+03  8.2205600397570870e+03  8.8798633791374996e+03  1.0173766865350428e+04  1.1869804508276307e+04  1.3135378827997138e+04  1.3238486535530377e+04  1.3048280331444479e+04  1.2937647481445290e+04  5.1595251024704576e+03  -4.1998661860335769e+03  2.8625969854464340e+04  4.8763934003483388e+04  -4.8467113985251644e+03  -2.2881856046387966e+04  2.7964366528054390e+04  3.6815473489830409e+04  5.8222157902151979e+04  5.9808341164804660e+04  3.9471427387517113e+04  -2.6982788857439045e+04  2.3360632004092393e+04  -2.1273951317896685e+05  -2.4007066352492626e+05  0.0000000000000000e+00  9.3031228506655316e+03  9.3024974845841753e+03  9.3011392579360636e+03  9.2989772489093521e+03  9.2959521972604834e+03  9.2919919635262031e+03  9.2870030063122776e+03  9.2808675686746519e+03  9.2734395990885441e+03  9.2645398405566884e+03  9.2539493950741580e+03  9.2414011661654840e+03  9.2265676375612456e+03  9.2090422576155379e+03  9.1883095806351921e+03  9.1636959447563022e+03  9.1342877366392295e+03  9.0987996232529513e+03  9.0553762046383254e+03  9.0013332189780886e+03  8.9329252098144389e+03  8.8454365678740469e+03  8.7343440314300551e+03  8.5991017971553629e+03  8.4521671697571619e+03  8.3363459197008979e+03  8.3504404293400057e+03  8.6696895302640223e+03  9.5146855275016896e+03  1.0982795757809228e+04  1.2717071377954810e+04  1.3786387045669628e+04  1.3685053475163626e+04  1.4036167921940063e+04  1.5879136512498246e+04  1.0290674391867447e+04  -2.4330654779578863e+03  2.3850056390160480e+04  4.9142587088668224e+04  -1.1935233570452838e+04  -3.2409880549737605e+04  3.4217909589788615e+04  3.4902635114201083e+04  6.3109759008404544e+04  5.2322078200848810e+04  2.7181827942049433e+04  -3.1237053928365345e+04  1.2168139658235939e+03  -1.5631685038903050e+05  -1.7305981922296254e+05  0.0000000000000000e+00  9.3060980318811071e+03  9.3053341517872359e+03  9.3039365074559537e+03  9.3018228322592895e+03  9.2989313300731446e+03  9.2951900998317069e+03  9.2905110069302809e+03  9.2847873716982540e+03  9.2778910373966628e+03  9.2696687376883201e+03  9.2599374652985698e+03  9.2484783964909529e+03  9.2350280954634964e+03  9.2192645837159234e+03  9.2007838628856171e+03  9.1790593040162603e+03  9.1533719699541471e+03  9.1226961043976389e+03  9.0855270106948756e+03  9.0396655363095506e+03  8.9820633177550972e+03  8.9090605771939736e+03  8.8178282752409377e+03  8.7106619930777870e+03  8.6048305373634539e+03  8.5509273674826381e+03  8.6587525598958000e+03  9.1142101140403956e+03  1.0135210347871969e+04  1.1778845960959516e+04  1.3603463995500559e+04  1.4641480780009239e+04  1.4610501422848170e+04  1.5710648854377934e+04  1.9666607067341112e+04  1.7073122040352504e+04  5.9609718609257823e+02  1.3373178521798287e+04  3.8310046297505491e+04  -2.3311684498212147e+04  -3.4088785159963561e+04  3.9232179130833756e+04  3.0558418225260521e+04  6.1308615240268569e+04  5.1614268179617909e+04  2.5352179457516046e+04  -3.6190088581107157e+04  -7.6642966546430798e+03  -1.8884635784553594e+05  -9.8381942495531039e+04  0.0000000000000000e+00  9.3092054577622475e+03  9.3083212409557545e+03  9.3068959199766432e+03  9.3048411391788595e+03  9.3020957759704779e+03  9.2985906022742620e+03  9.2942449064628909e+03  9.2889650540863768e+03  9.2826428459026738e+03  9.2751532720545965e+03  9.2663517806809286e+03  9.2560707954066856e+03  9.2441144855240927e+03  9.2302497125491918e+03  9.2141892073860326e+03  9.1955600476741129e+03  9.1738464953803741e+03  9.1482930890247917e+03  9.1177583155697303e+03  9.0805393548751981e+03  9.0342850951434139e+03  8.9763555535026171e+03  8.9054883437565313e+03  8.8264953300333600e+03  8.7607638719726619e+03  8.7654211297308811e+03  8.9594768687495998e+03  9.5382464719152740e+03  1.0720388017580095e+04  1.2540864326684166e+04  1.4517753590070281e+04  1.5696150158476337e+04  1.5960291978724437e+04  1.7824903911021691e+04  2.3668547457870496e+04  2.4734946276289756e+04  6.4690769176606454e+03  1.7173440269009118e+03  1.8066408686632785e+04  -3.2420917571150218e+04  -2.4597372134391208e+04  4.1839494301964980e+04  3.1195564267541507e+04  5.6864272069835853e+04  4.6325768231506016e+04  2.5160159697998122e+04  -1.9417573417338699e+04  -1.6109831440710717e+04  -1.2925649673383561e+05  -1.0820314676682123e+05  0.0000000000000000e+00  9.3124178165729409e+03  9.3114329205705599e+03  9.3099931339371524e+03  9.3080086412339715e+03  9.3054217801722752e+03  9.3021681123931248e+03  9.2981760478709984e+03  9.2933665740573924e+03  9.2876530270604162e+03  9.2809403209331558e+03  9.2731241864126077e+03  9.2640903574584390e+03  9.2537129980303707e+03  9.2418506411502731e+03  9.2283361648871287e+03  9.2129545140634018e+03  9.1953981244506449e+03  9.1751872744450538e+03  9.1515478550946245e+03  9.1232709876201479e+03  9.0886794859948041e+03  9.0460751592500765e+03  8.9955582602408595e+03  8.9439931060866402e+03  8.9159500262465699e+03  8.9734489249037088e+03  9.2424225294723528e+03  9.9260211973904843e+03  1.1247637759858970e+04  1.3240002273214428e+04  1.5424684654273509e+04  1.6895722650318698e+04  1.7618351787429081e+04  2.0112841864650087e+04  2.7223388971795459e+04  3.2003114072709399e+04  1.5483038458928961e+04  -5.3421791921358008e+03  -4.8230230923168165e+03  -3.6257771059250466e+04  -8.5085842907257738e+03  4.0444056140271088e+04  3.4140221925837701e+04  5.3844326017650936e+04  4.7194251787305759e+04  4.9822199648189882e+04  -1.7338204107397756e+04  -2.0043337740617710e+04  -1.3193320478093979e+03  -9.6691347241255251e+04  0.0000000000000000e+00  9.3157094665461173e+03  9.3146446587356168e+03  9.3132046632183446e+03  9.3113023037556741e+03  9.3088857224425265e+03  9.3058970287078391e+03  9.3022750915753277e+03  9.2979566653839211e+03  9.2928776665780333e+03  9.2869739402975792e+03  9.2801825085050768e+03  9.2724434585589952e+03  9.2637020544734405e+03  9.2539096875279865e+03  9.2430206445755939e+03  9.2309789911509815e+03  9.2176862727811913e+03  9.2029381689058500e+03  9.1863236503524258e+03  9.1671123236168478e+03  9.1442568028026089e+03  9.1168880211497690e+03  9.0862044823463148e+03  9.0605509000795300e+03  9.0665515064296178e+03  9.1691492873245188e+03  9.4984178292127144e+03  1.0263160482197489e+04  1.1694875972324597e+04  1.3842738201323195e+04  1.6271027488888210e+04  1.8150122912166051e+04  1.9442128827821321e+04  2.2373518989900193e+04  2.9877016662666501e+04  3.7506853303829121e+04  2.6031899825149780e+04  -3.9532566405796879e+03  -2.1368237875005525e+04  -3.5237270917508649e+04  5.2928114129234809e+03  3.2308571355520482e+04  3.2927529295948603e+04  4.8137115768220181e+04  4.8456627564650094e+04  7.5265784864819507e+04  -9.5245412665087442e+03  -2.3670475686179630e+04  3.0020301125458986e+03  -4.5530289458072162e+04  0.0000000000000000e+00  9.3190563812151759e+03  9.3179332885230797e+03  9.3165080960388805e+03  9.3146998818694829e+03  9.3124644956861430e+03  9.3097519785767308e+03  9.3065126114181894e+03  9.3026996036364435e+03  9.298271930