<?xml version="1.0"?>
<VTKFile type="UnstructuredGrid"  version="0.1"  >
<UnstructuredGrid>
<Piece  NumberOfPoints="2601" NumberOfCells="5000">
<Points>
<DataArray  type="Float64"  NumberOfComponents="3"  format="ascii">0 0 0  0.04 0 0  0.08 0 0  0.12 0 0  0.16 0 0  0.2 0 0  0.24 0 0  0.28 0 0  0.32 0 0  0.36 0 0  0.4 0 0  0.44 0 0  0.48 0 0  0.52 0 0  0.5600000000000001 0 0  0.6 0 0  0.64 0 0  0.68 0 0  0.72 0 0  0.76 0 0  0.8 0 0  0.84 0 0  0.88 0 0  0.92 0 0  0.96 0 0  1 0 0  1.04 0 0  1.08 0 0  1.12 0 0  1.16 0 0  1.2 0 0  1.24 0 0  1.28 0 0  1.32 0 0  1.36 0 0  1.4 0 0  1.44 0 0  1.48 0 0  1.52 0 0  1.56 0 0  1.6 0 0  1.64 0 0  1.68 0 0  1.72 0 0  1.76 0 0  1.8 0 0  1.84 0 0  1.88 0 0  1.92 0 0  1.96 0 0  2 0 0  0 0.02 0  0.04 0.02 0  0.08 0.02 0  0.12 0.02 0  0.16 0.02 0  0.2 0.02 0  0.24 0.02 0  0.28 0.02 0  0.32 0.02 0  0.36 0.02 0  0.4 0.02 0  0.44 0.02 0  0.48 0.02 0  0.52 0.02 0  0.5600000000000001 0.02 0  0.6 0.02 0  0.64 0.02 0  0.68 0.02 0  0.72 0.02 0  0.76 0.02 0  0.8 0.02 0  0.84 0.02 0  0.88 0.02 0  0.92 0.02 0  0.96 0.02 0  1 0.02 0  1.04 0.02 0  1.08 0.02 0  1.12 0.02 0  1.16 0.02 0  1.2 0.02 0  1.24 0.02 0  1.28 0.02 0  1.32 0.02 0  1.36 0.02 0  1.4 0.02 0  1.44 0.02 0  1.48 0.02 0  1.52 0.02 0  1.56 0.02 0  1.6 0.02 0  1.64 0.02 0  1.68 0.02 0  1.72 0.02 0  1.76 0.02 0  1.8 0.02 0  1.84 0.02 0  1.88 0.02 0  1.92 0.02 0  1.96 0.02 0  2 0.02 0  0 0.04 0  0.04 0.04 0  0.08 0.04 0  0.12 0.04 0  0.16 0.04 0  0.2 0.04 0  0.24 0.04 0  0.28 0.04 0  0.32 0.04 0  0.36 0.04 0  0.4 0.04 0  0.44 0.04 0  0.48 0.04 0  0.52 0.04 0  0.5600000000000001 0.04 0  0.6 0.04 0  0.64 0.04 0  0.68 0.04 0  0.72 0.04 0  0.76 0.04 0  0.8 0.04 0  0.84 0.04 0  0.88 0.04 0  0.92 0.04 0  0.96 0.04 0  1 0.04 0  1.04 0.04 0  1.08 0.04 0  1.12 0.04 0  1.16 0.04 0  1.2 0.04 0  1.24 0.04 0  1.28 0.04 0  1.32 0.04 0  1.36 0.04 0  1.4 0.04 0  1.44 0.04 0  1.48 0.04 0  1.52 0.04 0  1.56 0.04 0  1.6 0.04 0  1.64 0.04 0  1.68 0.04 0  1.72 0.04 0  1.76 0.04 0  1.8 0.04 0  1.84 0.04 0  1.88 0.04 0  1.92 0.04 0  1.96 0.04 0  2 0.04 0  0 0.06 0  0.04 0.06 0  0.08 0.06 0  0.12 0.06 0  0.16 0.06 0  0.2 0.06 0  0.24 0.06 0  0.28 0.06 0  0.32 0.06 0  0.36 0.06 0  0.4 0.06 0  0.44 0.06 0  0.48 0.06 0  0.52 0.06 0  0.5600000000000001 0.06 0  0.6 0.06 0  0.64 0.06 0  0.68 0.06 0  0.72 0.06 0  0.76 0.06 0  0.8 0.06 0  0.84 0.06 0  0.88 0.06 0  0.92 0.06 0  0.96 0.06 0  1 0.06 0  1.04 0.06 0  1.08 0.06 0  1.12 0.06 0  1.16 0.06 0  1.2 0.06 0  1.24 0.06 0  1.28 0.06 0  1.32 0.06 0  1.36 0.06 0  1.4 0.06 0  1.44 0.06 0  1.48 0.06 0  1.52 0.06 0  1.56 0.06 0  1.6 0.06 0  1.64 0.06 0  1.68 0.06 0  1.72 0.06 0  1.76 0.06 0  1.8 0.06 0  1.84 0.06 0  1.88 0.06 0  1.92 0.06 0  1.96 0.06 0  2 0.06 0  0 0.08 0  0.04 0.08 0  0.08 0.08 0  0.12 0.08 0  0.16 0.08 0  0.2 0.08 0  0.24 0.08 0  0.28 0.08 0  0.32 0.08 0  0.36 0.08 0  0.4 0.08 0  0.44 0.08 0  0.48 0.08 0  0.52 0.08 0  0.5600000000000001 0.08 0  0.6 0.08 0  0.64 0.08 0  0.68 0.08 0  0.72 0.08 0  0.76 0.08 0  0.8 0.08 0  0.84 0.08 0  0.88 0.08 0  0.92 0.08 0  0.96 0.08 0  1 0.08 0  1.04 0.08 0  1.08 0.08 0  1.12 0.08 0  1.16 0.08 0  1.2 0.08 0  1.24 0.08 0  1.28 0.08 0  1.32 0.08 0  1.36 0.08 0  1.4 0.08 0  1.44 0.08 0  1.48 0.08 0  1.52 0.08 0  1.56 0.08 0  1.6 0.08 0  1.64 0.08 0  1.68 0.08 0  1.72 0.08 0  1.76 0.08 0  1.8 0.08 0  1.84 0.08 0  1.88 0.08 0  1.92 0.08 0  1.96 0.08 0  2 0.08 0  0 0.1 0  0.04 0.1 0  0.08 0.1 0  0.12 0.1 0  0.16 0.1 0  0.2 0.1 0  0.24 0.1 0  0.28 0.1 0  0.32 0.1 0  0.36 0.1 0  0.4 0.1 0  0.44 0.1 0  0.48 0.1 0  0.52 0.1 0  0.5600000000000001 0.1 0  0.6 0.1 0  0.64 0.1 0  0.68 0.1 0  0.72 0.1 0  0.76 0.1 0  0.8 0.1 0  0.84 0.1 0  0.88 0.1 0  0.92 0.1 0  0.96 0.1 0  1 0.1 0  1.04 0.1 0  1.08 0.1 0  1.12 0.1 0  1.16 0.1 0  1.2 0.1 0  1.24 0.1 0  1.28 0.1 0  1.32 0.1 0  1.36 0.1 0  1.4 0.1 0  1.44 0.1 0  1.48 0.1 0  1.52 0.1 0  1.56 0.1 0  1.6 0.1 0  1.64 0.1 0  1.68 0.1 0  1.72 0.1 0  1.76 0.1 0  1.8 0.1 0  1.84 0.1 0  1.88 0.1 0  1.92 0.1 0  1.96 0.1 0  2 0.1 0  0 0.12 0  0.04 0.12 0  0.08 0.12 0  0.12 0.12 0  0.16 0.12 0  0.2 0.12 0  0.24 0.12 0  0.28 0.12 0  0.32 0.12 0  0.36 0.12 0  0.4 0.12 0  0.44 0.12 0  0.48 0.12 0  0.52 0.12 0  0.5600000000000001 0.12 0  0.6 0.12 0  0.64 0.12 0  0.68 0.12 0  0.72 0.12 0  0.76 0.12 0  0.8 0.12 0  0.84 0.12 0  0.88 0.12 0  0.92 0.12 0  0.96 0.12 0  1 0.12 0  1.04 0.12 0  1.08 0.12 0  1.12 0.12 0  1.16 0.12 0  1.2 0.12 0  1.24 0.12 0  1.28 0.12 0  1.32 0.12 0  1.36 0.12 0  1.4 0.12 0  1.44 0.12 0  1.48 0.12 0  1.52 0.12 0  1.56 0.12 0  1.6 0.12 0  1.64 0.12 0  1.68 0.12 0  1.72 0.12 0  1.76 0.12 0  1.8 0.12 0  1.84 0.12 0  1.88 0.12 0  1.92 0.12 0  1.96 0.12 0  2 0.12 0  0 0.14 0  0.04 0.14 0  0.08 0.14 0  0.12 0.14 0  0.16 0.14 0  0.2 0.14 0  0.24 0.14 0  0.28 0.14 0  0.32 0.14 0  0.36 0.14 0  0.4 0.14 0  0.44 0.14 0  0.48 0.14 0  0.52 0.14 0  0.5600000000000001 0.14 0  0.6 0.14 0  0.64 0.14 0  0.68 0.14 0  0.72 0.14 0  0.76 0.14 0  0.8 0.14 0  0.84 0.14 0  0.88 0.14 0  0.92 0.14 0  0.96 0.14 0  1 0.14 0  1.04 0.14 0  1.08 0.14 0  1.12 0.14 0  1.16 0.14 0  1.2 0.14 0  1.24 0.14 0  1.28 0.14 0  1.32 0.14 0  1.36 0.14 0  1.4 0.14 0  1.44 0.14 0  1.48 0.14 0  1.52 0.14 0  1.56 0.14 0  1.6 0.14 0  1.64 0.14 0  1.68 0.14 0  1.72 0.14 0  1.76 0.14 0  1.8 0.14 0  1.84 0.14 0  1.88 0.14 0  1.92 0.14 0  1.96 0.14 0  2 0.14 0  0 0.16 0  0.04 0.16 0  0.08 0.16 0  0.12 0.16 0  0.16 0.16 0  0.2 0.16 0  0.24 0.16 0  0.28 0.16 0  0.32 0.16 0  0.36 0.16 0  0.4 0.16 0  0.44 0.16 0  0.48 0.16 0  0.52 0.16 0  0.5600000000000001 0.16 0  0.6 0.16 0  0.64 0.16 0  0.68 0.16 0  0.72 0.16 0  0.76 0.16 0  0.8 0.16 0  0.84 0.16 0  0.88 0.16 0  0.92 0.16 0  0.96 0.16 0  1 0.16 0  1.04 0.16 0  1.08 0.16 0  1.12 0.16 0  1.16 0.16 0  1.2 0.16 0  1.24 0.16 0  1.28 0.16 0  1.32 0.16 0  1.36 0.16 0  1.4 0.16 0  1.44 0.16 0  1.48 0.16 0  1.52 0.16 0  1.56 0.16 0  1.6 0.16 0  1.64 0.16 0  1.68 0.16 0  1.72 0.16 0  1.76 0.16 0  1.8 0.16 0  1.84 0.16 0  1.88 0.16 0  1.92 0.16 0  1.96 0.16 0  2 0.16 0  0 0.18 0  0.04 0.18 0  0.08 0.18 0  0.12 0.18 0  0.16 0.18 0  0.2 0.18 0  0.24 0.18 0  0.28 0.18 0  0.32 0.18 0  0.36 0.18 0  0.4 0.18 0  0.44 0.18 0  0.48 0.18 0  0.52 0.18 0  0.5600000000000001 0.18 0  0.6 0.18 0  0.64 0.18 0  0.68 0.18 0  0.72 0.18 0  0.76 0.18 0  0.8 0.18 0  0.84 0.18 0  0.88 0.18 0  0.92 0.18 0  0.96 0.18 0  1 0.18 0  1.04 0.18 0  1.08 0.18 0  1.12 0.18 0  1.16 0.18 0  1.2 0.18 0  1.24 0.18 0  1.28 0.18 0  1.32 0.18 0  1.36 0.18 0  1.4 0.18 0  1.44 0.18 0  1.48 0.18 0  1.52 0.18 0  1.56 0.18 0  1.6 0.18 0  1.64 0.18 0  1.68 0.18 0  1.72 0.18 0  1.76 0.18 0  1.8 0.18 0  1.84 0.18 0  1.88 0.18 0  1.92 0.18 0  1.96 0.18 0  2 0.18 0  0 0.2 0  0.04 0.2 0  0.08 0.2 0  0.12 0.2 0  0.16 0.2 0  0.2 0.2 0  0.24 0.2 0  0.28 0.2 0  0.32 0.2 0  0.36 0.2 0  0.4 0.2 0  0.44 0.2 0  0.48 0.2 0  0.52 0.2 0  0.5600000000000001 0.2 0  0.6 0.2 0  0.64 0.2 0  0.68 0.2 0  0.72 0.2 0  0.76 0.2 0  0.8 0.2 0  0.84 0.2 0  0.88 0.2 0  0.92 0.2 0  0.96 0.2 0  1 0.2 0  1.04 0.2 0  1.08 0.2 0  1.12 0.2 0  1.16 0.2 0  1.2 0.2 0  1.24 0.2 0  1.28 0.2 0  1.32 0.2 0  1.36 0.2 0  1.4 0.2 0  1.44 0.2 0  1.48 0.2 0  1.52 0.2 0  1.56 0.2 0  1.6 0.2 0  1.64 0.2 0  1.68 0.2 0  1.72 0.2 0  1.76 0.2 0  1.8 0.2 0  1.84 0.2 0  1.88 0.2 0  1.92 0.2 0  1.96 0.2 0  2 0.2 0  0 0.22 0  0.04 0.22 0  0.08 0.22 0  0.12 0.22 0  0.16 0.22 0  0.2 0.22 0  0.24 0.22 0  0.28 0.22 0  0.32 0.22 0  0.36 0.22 0  0.4 0.22 0  0.44 0.22 0  0.48 0.22 0  0.52 0.22 0  0.5600000000000001 0.22 0  0.6 0.22 0  0.64 0.22 0  0.68 0.22 0  0.72 0.22 0  0.76 0.22 0  0.8 0.22 0  0.84 0.22 0  0.88 0.22 0  0.92 0.22 0  0.96 0.22 0  1 0.22 0  1.04 0.22 0  1.08 0.22 0  1.12 0.22 0  1.16 0.22 0  1.2 0.22 0  1.24 0.22 0  1.28 0.22 0  1.32 0.22 0  1.36 0.22 0  1.4 0.22 0  1.44 0.22 0  1.48 0.22 0  1.52 0.22 0  1.56 0.22 0  1.6 0.22 0  1.64 0.22 0  1.68 0.22 0  1.72 0.22 0  1.76 0.22 0  1.8 0.22 0  1.84 0.22 0  1.88 0.22 0  1.92 0.22 0  1.96 0.22 0  2 0.22 0  0 0.24 0  0.04 0.24 0  0.08 0.24 0  0.12 0.24 0  0.16 0.24 0  0.2 0.24 0  0.24 0.24 0  0.28 0.24 0  0.32 0.24 0  0.36 0.24 0  0.4 0.24 0  0.44 0.24 0  0.48 0.24 0  0.52 0.24 0  0.5600000000000001 0.24 0  0.6 0.24 0  0.64 0.24 0  0.68 0.24 0  0.72 0.24 0  0.76 0.24 0  0.8 0.24 0  0.84 0.24 0  0.88 0.24 0  0.92 0.24 0  0.96 0.24 0  1 0.24 0  1.04 0.24 0  1.08 0.24 0  1.12 0.24 0  1.16 0.24 0  1.2 0.24 0  1.24 0.24 0  1.28 0.24 0  1.32 0.24 0  1.36 0.24 0  1.4 0.24 0  1.44 0.24 0  1.48 0.24 0  1.52 0.24 0  1.56 0.24 0  1.6 0.24 0  1.64 0.24 0  1.68 0.24 0  1.72 0.24 0  1.76 0.24 0  1.8 0.24 0  1.84 0.24 0  1.88 0.24 0  1.92 0.24 0  1.96 0.24 0  2 0.24 0  0 0.26 0  0.04 0.26 0  0.08 0.26 0  0.12 0.26 0  0.16 0.26 0  0.2 0.26 0  0.24 0.26 0  0.28 0.26 0  0.32 0.26 0  0.36 0.26 0  0.4 0.26 0  0.44 0.26 0  0.48 0.26 0  0.52 0.26 0  0.5600000000000001 0.26 0  0.6 0.26 0  0.64 0.26 0  0.68 0.26 0  0.72 0.26 0  0.76 0.26 0  0.8 0.26 0  0.84 0.26 0  0.88 0.26 0  0.92 0.26 0  0.96 0.26 0  1 0.26 0  1.04 0.26 0  1.08 0.26 0  1.12 0.26 0  1.16 0.26 0  1.2 0.26 0  1.24 0.26 0  1.28 0.26 0  1.32 0.26 0  1.36 0.26 0  1.4 0.26 0  1.44 0.26 0  1.48 0.26 0  1.52 0.26 0  1.56 0.26 0  1.6 0.26 0  1.64 0.26 0  1.68 0.26 0  1.72 0.26 0  1.76 0.26 0  1.8 0.26 0  1.84 0.26 0  1.88 0.26 0  1.92 0.26 0  1.96 0.26 0  2 0.26 0  0 0.28 0  0.04 0.28 0  0.08 0.28 0  0.12 0.28 0  0.16 0.28 0  0.2 0.28 0  0.24 0.28 0  0.28 0.28 0  0.32 0.28 0  0.36 0.28 0  0.4 0.28 0  0.44 0.28 0  0.48 0.28 0  0.52 0.28 0  0.5600000000000001 0.28 0  0.6 0.28 0  0.64 0.28 0  0.68 0.28 0  0.72 0.28 0  0.76 0.28 0  0.8 0.28 0  0.84 0.28 0  0.88 0.28 0  0.92 0.28 0  0.96 0.28 0  1 0.28 0  1.04 0.28 0  1.08 0.28 0  1.12 0.28 0  1.16 0.28 0  1.2 0.28 0  1.24 0.28 0  1.28 0.28 0  1.32 0.28 0  1.36 0.28 0  1.4 0.28 0  1.44 0.28 0  1.48 0.28 0  1.52 0.28 0  1.56 0.28 0  1.6 0.28 0  1.64 0.28 0  1.68 0.28 0  1.72 0.28 0  1.76 0.28 0  1.8 0.28 0  1.84 0.28 0  1.88 0.28 0  1.92 0.28 0  1.96 0.28 0  2 0.28 0  0 0.3 0  0.04 0.3 0  0.08 0.3 0  0.12 0.3 0  0.16 0.3 0  0.2 0.3 0  0.24 0.3 0  0.28 0.3 0  0.32 0.3 0  0.36 0.3 0  0.4 0.3 0  0.44 0.3
[...]
<PointData  Vectors="f_26-0"> 
<DataArray  type="Float64"  Name="f_26-0"  NumberOfComponents="3" format="ascii">0.0000000000000000e+00 0.0000000000000000e+00 0.0000000000000000e+00  0.0000000000000000e+00 0.0000000000000000e+00 0.0000000000000000e+00  0.0000000000000000e+00 0.0000000000000000e+00 0.0000000000000000e+00  0.0000000000000000e+00 0.0000000000000000e+00 0.0000000000000000e+00  0.0000000000000000e+00 0.0000000000000000e+00 0.0000000000000000e+00  0.0000000000000000e+00 0.0000000000000000e+00 0.0000000000000000e+00  0.0000000000000000e+00 0.0000000000000000e+00 0.0000000000000000e+00  0.0000000000000000e+00 0.0000000000000000e+00 0.0000000000000000e+00  0.0000000000000000e+00 0.0000000000000000e+00 0.0000000000000000e+00  0.0000000000000000e+00 0.0000000000000000e+00 0.0000000000000000e+00  0.0000000000000000e+00 0.0000000000000000e+00 0.0000000000000000e+00  0.0000000000000000e+00 0.0000000000000000e+00 0.0000000000000000e+00  0.0000000000000000e+00 0.0000000000000000e+00 0.0000000000000000e+00  0.0000000000000000e+00 0.0000000000000000e+00 0.0000000000000000e+00  0.0000000000000000e+00 0.0000000000000000e+00 0.0000000000000000e+00  0.0000000000000000e+00 0.0000000000000000e+00 0.0000000000000000e+00  0.0000000000000000e+00 0.0000000000000000e+00 0.0000000000000000e+00  0.0000000000000000e+00 0.0000000000000000e+00 0.0000000000000000e+00  0.0000000000000000e+00 0.0000000000000000e+00 0.0000000000000000e+00  0.0000000000000000e+00 0.0000000000000000e+00 0.0000000000000000e+00  0.0000000000000000e+00 0.0000000000000000e+00 0.0000000000000000e+00  0.0000000000000000e+00 0.0000000000000000e+00 0.0000000000000000e+00  0.0000000000000000e+00 0.0000000000000000e+00 0.0000000000000000e+00  0.0000000000000000e+00 0.0000000000000000e+00 0.0000000000000000e+00  0.0000000000000000e+00 0.0000000000000000e+00 0.0000000000000000e+00  0.0000000000000000e+00 0.0000000000000000e+00 0.0000000000000000e+00  0.0000000000000000e+00 0.0000000000000000e+00 0.0000000000000000e+00  0.0000000000000000e+00 0.0000000000000000e+00 0.0000000000000000e+00  0.0000000000000000e+00 0.0000000000000000e+00 0.0000000000000000e+00  0.0000000000000000e+00 0.0000000000000000e+00 0.0000000000000000e+00  0.0000000000000000e+00 0.0000000000000000e+00 0.0000000000000000e+00  0.0000000000000000e+00 0.0000000000000000e+00 0.0000000000000000e+00  0.0000000000000000e+00 0.0000000000000000e+00 0.0000000000000000e+00  0.0000000000000000e+00 0.0000000000000000e+00 0.0000000000000000e+00  0.0000000000000000e+00 0.0000000000000000e+00 0.0000000000000000e+00  0.0000000000000000e+00 0.0000000000000000e+00 0.0000000000000000e+00  0.0000000000000000e+00 0.0000000000000000e+00 0.0000000000000000e+00  0.0000000000000000e+00 0.0000000000000000e+00 0.0000000000000000e+00  0.0000000000000000e+00 0.0000000000000000e+00 0.0000000000000000e+00  0.0000000000000000e+00 0.0000000000000000e+00 0.0000000000000000e+00  0.0000000000000000e+00 0.0000000000000000e+00 0.0000000000000000e+00  0.0000000000000000e+00 0.0000000000000000e+00 0.0000000000000000e+00  0.0000000000000000e+00 0.0000000000000000e+00 0.0000000000000000e+00  0.0000000000000000e+00 0.0000000000000000e+00 0.0000000000000000e+00  0.0000000000000000e+00 0.0000000000000000e+00 0.0000000000000000e+00  0.0000000000000000e+00 0.0000000000000000e+00 0.0000000000000000e+00  0.0000000000000000e+00 0.0000000000000000e+00 0.0000000000000000e+00  0.0000000000000000e+00 0.0000000000000000e+00 0.0000000000000000e+00  0.0000000000000000e+00 0.0000000000000000e+00 0.0000000000000000e+00  0.0000000000000000e+00 0.0000000000000000e+00 0.0000000000000000e+00  0.0000000000000000e+00 0.0000000000000000e+00 0.0000000000000000e+00  1.0000000000000000e-02 0.0000000000000000e+00 0.0000000000000000e+00  7.5746542069185397e-03 1.4664421045898727e-03 0.0000000000000000e+00  4.4605060597619197e-03 5.5048817669928305e-04 0.0000000000000000e+00  3.2699287821376672e-03 2.6264880785330783e-04 0.0000000000000000e+00  2.5188931517649434e-03 1.4459659120839161e-04 0.0000000000000000e+00  2.0908025121558977e-03 9.1225347645318181e-05 0.0000000000000000e+00  1.8065245239848131e-03 5.9815629695896984e-05 0.0000000000000000e+00  1.6155928449237285e-03 4.0701038666085791e-05 0.0000000000000000e+00  1.4836507620417433e-03 2.8171129142863709e-05 0.0000000000000000e+00  1.3915244334155293e-03 1.9637705649693675e-05 0.0000000000000000e+00  1.3270474122631475e-03 1.3677485561621211e-05 0.0000000000000000e+00  1.2821554939905660e-03 9.4353927956229204e-06 0.0000000000000000e+00  1.2513475684246822e-03 6.3770079885074243e-06 0.0000000000000000e+00  1.2307813300940940e-03 4.1469222100137541e-06 0.0000000000000000e+00  1.2177463345182857e-03 2.5003863547906028e-06 0.0000000000000000e+00  1.2103280541502985e-03 1.2634304131712048e-06 0.0000000000000000e+00  1.2071872300798048e-03 3.0930798891814805e-07 0.0000000000000000e+00  1.2074096955021782e-03 -4.5633982844009294e-07 0.0000000000000000e+00  1.2104020270725527e-03 -1.1053173944666483e-06 0.0000000000000000e+00  1.2158184535944034e-03 -1.6937038566964485e-06 0.0000000000000000e+00  1.2235100672347678e-03 -2.2668152301113586e-06 0.0000000000000000e+00  1.2334906520027669e-03 -2.8629682080245896e-06 0.0000000000000000e+00  1.2459154349777912e-03 -3.5164657089828278e-06 0.0000000000000000e+00  1.2610703624102420e-03 -4.2600864131892465e-06 0.0000000000000000e+00  1.2793704126432409e-03 -5.1272844287972900e-06 0.0000000000000000e+00  1.3013661541811270e-03 -6.1542640399178146e-06 0.0000000000000000e+00  1.3277583405696951e-03 -7.3820741318704622e-06 0.0000000000000000e+00  1.3594208650938846e-03 -8.8588596355511180e-06 0.0000000000000000e+00  1.3974329156622523e-03 -1.0642408457702810e-05 0.0000000000000000e+00  1.4431216950792703e-03 -1.2803137987341064e-05 0.0000000000000000e+00  1.4981176078160022e-03 -1.5427670554726162e-05 0.0000000000000000e+00  1.5644243384803508e-03 -1.8623143911830614e-05 0.0000000000000000e+00  1.6445066874574772e-03 -2.2522376140382220e-05 0.0000000000000000e+00  1.7413992292630140e-03 -2.7289925031623402e-05 0.0000000000000000e+00  1.8588384824285544e-03 -3.3128898055255810e-05 0.0000000000000000e+00  2.0014197187372355e-03 -4.0287973908355081e-05 0.0000000000000000e+00  2.1747754643873904e-03 -4.9067287309890339e-05 0.0000000000000000e+00  2.3857639978855662e-03 -5.9820299065405558e-05 0.0000000000000000e+00  2.6426376100703542e-03 -7.2945161064436704e-05 0.0000000000000000e+00  2.9551226899932341e-03 -8.8854896361519230e-05 0.0000000000000000e+00  3.3342744483982204e-03 -1.0789221582639409e-04 0.0000000000000000e+00  3.7917783799015737e-03 -1.3017356273753840e-04 0.0000000000000000e+00  4.3382418770522282e-03 -1.5508216411872644e-04 0.0000000000000000e+00  4.9783908364120976e-03 -1.8087847557942004e-04 0.0000000000000000e+00  5.7037144247327034e-03 -2.0055615753745529e-04 0.0000000000000000e+00  6.4597519792068472e-03 -2.0722354091802386e-04 0.0000000000000000e+00  7.1425247130127625e-03 -1.3586939183808530e-04 0.0000000000000000e+00  7.2360907101339600e-03 -3.2490360575926439e-05 0.0000000000000000e+00  6.4499336703463927e-03 9.2967124380487426e-04 0.0000000000000000e+00  -1.2764682514291629e-03 1.8254721577106810e-03 0.0000000000000000e+00  -1.5282714927773413e-02 1.5361974292882438e-02 0.0000000000000000e+00  1.0000000000000000e-02 0.0000000000000000e+00 0.0000000000000000e+00  9.9670645851229565e-03 2.9475592301288780e-03 0.0000000000000000e+00  7.5791719075810129e-03 1.5753061881613071e-03 0.0000000000000000e+00  5.8724586341480341e-03 8.6331980278037102e-04 0.0000000000000000e+00  4.7175278895405723e-03 5.1539012862730847e-04 0.0000000000000000e+00  3.9839591349505269e-03 3.3260069761978064e-04 0.0000000000000000e+00  3.4813668990569362e-03 2.2286054220582897e-04 0.0000000000000000e+00  3.1353182384854881e-03 1.5358432379387573e-04 0.0000000000000000e+00  2.8918414219302069e-03 1.0730104148818361e-04 0.0000000000000000e+00  2.7196652556011427e-03 7.5381824980474737e-05 0.0000000000000000e+00  2.5978229442113871e-03 5.2853278436427001e-05 0.0000000000000000e+00  2.5121526299341380e-03 3.6694603169030860e-05 0.0000000000000000e+00  2.4527803434750335e-03 2.4968672462832911e-05 0.0000000000000000e+00  2.4127094106773449e-03 1.6370997204722119e-05 0.0000000000000000e+00  2.3869444763421378e-03 9.9926376115136535e-06 0.0000000000000000e+00  2.3719209838616567e-03 5.1815394547806862e-06 0.0000000000000000e+00  2.3651223667809436e-03 1.4590840214493396e-06 0.0000000000000000e+00  2.3648148583642996e-03 -1.5332905202518575e-06 0.0000000000000000e+00  2.3698606826604365e-03 -4.0698715650439575e-06 0.0000000000000000e+00  2.3795856586555785e-03 -6.3657940403743001e-06 0.0000000000000000e+00  2.3936862597894806e-03 -8.5954557233121415e-06 0.0000000000000000e+00  2.4121664575073852e-03 -1.0906588832860641e-05 0.0000000000000000e+00  2.4352979687049655e-03 -1.3431485377492097e-05 0.0000000000000000e+00  2.4635997033236531e-03 -1.6296391548195855e-05 0.0000000000000000e+00  2.4978337545069752e-03 -1.9629817402358081e-05 0.0000000000000000e+00  2.5390164645646687e-03 -2.3570360077568531e-05 0.0000000000000000e+00  2.5884440936613565e-03 -2.8274562404089249e-05 0.0000000000000000e+00  2.6477335071022922e-03 -3.3925295888085509e-05 0.0000000000000000e+00  2.7188791315167263e-03 -4.0741149051717043e-05 0.0000000000000000e+00  2.8043282248561988e-03 -4.8987302067781917e-05 0.0000000000000000e+00  2.9070772313395331e-03 -5.8988353740258201e-05 0.0000000000000000e+00  3.0307925544344775e-03 -7.1143498935551219e-05 0.0000000000000000e+00  3.1799592628646428e-03 -8.5944264461479966e-05 0.0000000000000000e+00  3.3600606238475103e-03 -1.0399457131005746e-04 0.0000000000000000e+00  3.5777891043771944e-03 -1.2603196436972175e-04 0.0000000000000000e+00  3.8412841157953576e-03 -1.5294698970193458e-04 0.0000000000000000e+00  4.1603802975983843e-03 -1.8579406717217774e-04 0.0000000000000000e+00  4.5468276048782116e-03 -2.2578013461459369e-04 0.0000000000000000e+00  5.0143995538806168e-03 -2.7420369688143672e-04 0.0000000000000000e+00  5.5787210683407220e-03 -3.3228968515804693e-04 0.0000000000000000e+00  6.2564817873563532e-03 -4.0081194607262372e-04 0.0000000000000000e+00  7.0633476753390991e-03 -4.7927981815907048e-04 0.0000000000000000e+00  8.0093711031015286e-03 -5.6423100351137825e-04 0.0000000000000000e+00  9.0884380464053699e-03 -6.4556924522637981e-04 0.0000000000000000e+00  1.0259431672659655e-02 -6.9877240327321090e-04 0.0000000000000000e+00  1.1389648546012300e-02 -6.6593414929462633e-04 0.0000000000000000e+00  1.2203352356958283e-02 -4.1356086393762011e-04 0.0000000000000000e+00  1.1826455696647116e-02 4.0114991981412065e-04 0.0000000000000000e+00  9.1578355113326286e-03 2.7218260825846823e-03 0.0000000000000000e+00  -2.7061961218216432e-03 9.4620891359993072e-03 0.0000000000000000e+00  -2.0007219992098865e-02 3.1537454360742116e-02 0.0000000000000000e+00  1.0000000000000000e-02 0.0000000000000000e+00 0.0000000000000000e+00  1.0467032363305378e-02 3.4784894355126962e-03 0.0000000000000000e+00  9.3376030075383865e-03 2.5163949445131586e-03 0.0000000000000000e+00  7.7638341476329465e-03 1.5780873904363908e-03 0.0000000000000000e+00  6.5231649378962144e-03 1.0134027738719195e-03 0.0000000000000000e+00  5.6314126773555975e-03 6.7486211029629025e-04 0.0000000000000000e+00  4.9923258306301000e-03 4.6276997222995125e-04 0.0000000000000000e+00  4.5365765870739030e-03 3.2345601398946493e-04 0.0000000000000000e+00  4.2086735397119795e-03 2.2836799219426608e-04 0.0000000000000000e+00  3.9730245980671899e-03 1.6177157084703653e-04 0.0000000000000000e+00  3.8040885159914715e-03 1.1421936400554867e-04 0.0000000000000000e+00  3.6840144629417793e-03 7.9812888613817147e-05 0.0000000000000000e+00  3.5999644197937599e-03 5.4665268597032324e-05 0.0000000000000000e+00  3.5426585227619138e-03 3.6115657286214804e-05 0.0000000000000000e+00  3.5053640508322151e-03 2.2283417826022811e-05 0.0000000000000000e+00  3.4832159316482278e-03 1.1804662108456089e-05 0.0000000000000000e+00  3.4727430410811098e-03 3.6694237390122132e-06 0.0000000000000000e+00  3.4715311475639167e-03 -2.8844162645154492e-06 0.0000000000000000e+00  3.4779804738379687e-03 -8.4433414534752512e-06 0.0000000000000000e+00  3.4911309964787141e-03 -1.3469591047981975e-05 0.0000000000000000e+00  3.5105381669121921e-03 -1.8339252614069618e-05 0.0000000000000000e+00  3.5361874867230005e-03 -2.3371636064087235e-05 0.0000000000000000e+00  3.5684401087787928e-03 -2.8852868786559910e-05 0.0000000000000000e+00  3.6080041816711223e-03 -3.5055729976458318e-05 0.0000000000000000e+00  3.6559285127687104e-03 -4.2257220960513252e-05 0.0000000000000000e+00  3.7136165805439639e-03 -5.0755075629498470e-05 0.0000000000000000e+00  3.7828601441811699e-03 -6.0884256190710521e-05 0.0000000000000000e+00  3.8658927679799957e-03 -7.3034397790653355e-05 0.0000000000000000e+00  3.9654645357163430e-03 -8.7669120596123776e-05 0.0000000000000000e+00  4.0849400584676895e-03 -1.0534807862270527e-04 0.0000000000000000e+00  4.2284224885346128e-03 -1.2675250297526731e-04 0.0000000000000000e+00  4.4009064361849289e-03 -1.5271472585200906e-04 0.0000000000000000e+00  4.6084620365186508e-03 -1.8425156738540236e-04 0.0000000000000000e+00  4.8584501762053561e-03 -2.2260021613984587e-04 0.0000000000000000e+00  5.1597636564313489e-03 -2.6925276237645303e-04 0.0000000000000000e+00  5.5230783841420479e-03 -3.2598079123450800e-04 0.0000000000000000e+00  5.9610777662033971e-03 -3.9483243335524011e-04 0.0000000000000000e+00  6.4885746324555493e-03 -4.7806721183014586e-04 0.0000000000000000e+00  7.1223806206846376e-03 -5.7796160862670361e-04 0.0000000000000000e+00  7.8806398392362725e-03 -6.9635546197519926e-04 0.0000000000000000e+00  8.7810785230582819e-03 -8.3368626768832847e-04 0.0000000000000000e+00  9.8371497894040889e-03 -9.8700517554640857e-04 0.0000000000000000e+00  1.1050099479456257e-02 -1.1459453693704331e-03 0.0000000000000000e+00  1.2392840786512814e-02 -1.2844191832113272e-03 0.0000000000000000e+00  1.3779390737986112e-02 -1.3431456982467675e-03 0.0000000000000000e+00  1.4994994245508200e-02 -1.1909001053263617e-03 0.0000000000000000e+00  1.5596747789060084e-02 -5.3546522502395471e-04 0.0000000000000000e+00  1.4506134842842274e-02 1.3112312931021222e-03 0.0000000000000000e+00  1.0138370324744036e-02 6.0143039137472753e-03 0.0000000000000000e+00  -3.0948179725127987e-03 1.8055975846812729e-02 0.0000000000000000e+00  -2.0641662307153266e-02 4.6575916145875633e-02 0.0000000000000000e+00  1.0000000000000000e-02 0.0000000000000000e+00 0.0000000000000000e+00  1.0530546235304443e-02 3.4847297129449234e-03 0.0000000000000000e+00  1.0188700910177604e-02 3.1485375953198887e-03 0.0000000000000000e+00  9.0469754531801727e-03 2.2407315388176729e-03 0.0000000000000000e+00  7.9288374301553829e-03 1.5387905710591619e-03 0.0000000000000000e+00  7.0157934231196524e-03 1.0654794316399055e-03 0.0000000000000000e+00  6.3215830546684195e-03 7.4896161782806532e-04 0.0000000000000000e+00  5.8045938641259022e-03 5.3201827817418734e-04 0.0000000000000000e+00  5.4227307281259933e-03 3.8009947340986286e-04 0.0000000000000000e+00  5.1428717762534975e-03 2.7170210160921108e-04 0.0000000000000000e+00  4.9392543731022849e-03 1.9326775512148718e-04 0.0000000000000000e+00  4.7927983754152215e-03 1.3593922129040038e-04 0.0000000000000000e+00  4.6892200181882591e-03 9.3698165715185914e-05 0.0000000000000000e+00  4.6179148770734060e-03 6.2331898386439930e-05 0.0000000000000000e+00  4.5710295588793160e-03 3.8810002247843699e-05 0.0000000000000000e+00  4.5428019769967040e-03 2.0905197606682225e-05 0.0000000000000000e+00  4.5290709289636469e-03 6.9504829273707076e-06 0.0000000000000000e+00  4.5269133368884126e-03 -4.3228989516554289e-06 0.0000000000000000e+00  4.5343751708634816e-03 -1.3898176250807792e-05 0.0000000000000000e+00  4.5502731007275761e-03 -2.2554703561588523e-05 0.0000000000000000e+00  4.5740509452209749e-03 -3.0929376426653142e-05 0.0000000000000000e+00  4.6056796636565547e-03 -3.9564547580357938e-05 0.0000000000000000e+00  4.6455929314945790e-03 -4.8946857547365111e-05 0.0000000000000000e+00  4.6946527220528686e-03 -5.9540065170012794e-05 0.0000000000000000e+00  4.7541411469220465e-03 -7.1814198889446051e-05 0.0000000000000000e+00  4.8257762905219801e-03 -8.6272909015003450e-05 0.0000000000000000e+00  4.9117510284258916e-03 -1.0348064734349297e-04 0.0000000000000000e+00  5.0147948989918102e-03 -1.2409114681025157e-04 0.0000000000000000e+00  5.1382600010547765e-03 -1.4887855212073568e-04 0.0000000000000000e+00  5.2862325465987464e-03 -1.7877238645038599e-04 0.0000000000000000e+00  5.4636719346783016e-03 -2.1489721713989184e-04 0.0000000000000000e+00  5.6765786937746261e-03 -2.5861721635032030e-04 0.0000000000000000e+00  5.9321907403429470e-03 -3.1158446984112836e-04 0.0000000000000000e+00  6.2392030155730130e-03 -3.7578727818639903e-04 0.0000000000000000e+00  6.6079967018493075e-03 -4.5358975876802618e-04 0.0000000000000000e+00  7.0508474979233864e-03 -5.4774486416449752e-04 0.0000000000000000e+00  7.5820514628297409e-03 -6.6134593621019230e-04 0.0000000000000000e+00  8.2178517062832159e-03 -7.9765043573879640e-04 0.0000000000000000e+00  8.9759471998132490e-03 -9.5965085147835662e-04 0.0000000000000000e+00  9.8741897351319781e-03 -1.1491565511761012e-03 0.0000000000000000e+00  1.0927731434501115e-02 -1.3649369965172675e-03 0.0000000000000000e+00  1.2143332942615844e-02 -1.5990485012437911e-03 0.0000000000000000e+00  1.3508316694265924e-02 -1.8296129167572619e-03 0.0000000000000000e+00  1.4969791930415725e-02 -2.0064067849851455e-03 0.0000000000000000e+00  1.6395924929847528e-02 -2.0217504977176784e-03 0.0000000000000000e+00  1.7500450146936700e-02 -1.6486276500880929e-03 0.0000000000000000e+00  1.7725837160323544e-02 -4.0850649070248477e-04 0.0000000000000000e+00  1.5925054850050448e-02 2.7410251465296406e-03 0.0000000000000000e+00  1.0477307607618997e-02 1.0065006778673479e-02 0.0000000000000000e+00  -2.6550090598777649e-03 2.6500533620730998e-02 0.0000000000000000e+00  -1.9326078081730837e-02 5.9937487622703234e-02 0.0000000000000000e+00  1.0000000000000000e-02 0.0000000000000000e+00 0.0000000000000000e+00  1.0485693355218154e-02 3.2564733736571865e-03 0.0000000000000000e+00  1.0557969028485905e-02 3.4769052334763908e-03 0.0000000000000000e+00  9.8710180559895989e-03 2.7564831448831720e-03 0.0000000000000000e+00  8.9774515140773042e-03 2.0204828327186623e-03 0.0000000000000000e+00  8.1456984143744252e-03 1.4576740698245686e-03 0.0000000000000000e+00  7.4648827600245484e-03 1.0515747922850926e-03 0.0000000000000000e+00  6.9326673591405489e-03 7.6039853298693683e-04 0.0000000000000000e+00  6.5272912337509684e-03 5.5029044586325186e-04 0.0000000000000000e+00  6.2233755570270579e-03 3.9719880150690037e-04 0.0000000000000000e+00  5.9985620954378406e-03 2.8475488904608254e-04 0.0000000000000000e+00  5.8347375326076598e-03 2.0162755758281278e-04 0.0000000000000000e+00  5.7176307296125601e-03 1.3982777614821189e-04 0.0000000000000000e+00  5.6362608858796515e-03 9.3601779833865452e-05 0.0000000000000000e+00  5.5822859837577924e-03 5.8722371942081495e-05 0.0000000000000000e+00  5.5494717211676250e-03 3.2032364728510917e-05 0.0000000000000000e+00  5.5332528596782503e-03 1.1138842197455869e-05 0.0000000000000000e+00  5.5303886804604803e-03 -5.7977171920308287e-06 0.0000000000000000e+00  5.5386955856454321e-03 -2.0214424313210517e-05 0.0000000000000000e+00  5.5568437934469866e-03 -3.3257891397553885e-05 0.0000000000000000e+00  5.5842068635441498e-03 -4.5869986580092629e-05 0.0000000000000000e+00  5.6207551648606423e-03 -5.8855726554231483e-05 0.0000000000000000e+00  5.6669864403783125e-03 -7.2938899906563762e-05 0.0000000000000000e+00  5.7238883536671554e-03 -8.8809436432634467e-05 0.0000000000000000e+00  5.7929293881362502e-03 -1.0716560544219246e-04 0.0000000000000000e+00  5.8760757579997156e-03 -1.2875356974313229e-04 0.0000000000000000e+00  5.9758331075623590e-03 -1.5440647677520929e-04 0.0000000000000000e+00  6.0953127