<?xml version="1.0"?>
<VTKFile type="UnstructuredGrid"  version="0.1"  >
<UnstructuredGrid>
<Piece  NumberOfPoints="2601" NumberOfCells="5000">
<Points>
<DataArray  type="Float64"  NumberOfComponents="3"  format="ascii">0 0 0  0.04 0 0  0.08 0 0  0.12 0 0  0.16 0 0  0.2 0 0  0.24 0 0  0.28 0 0  0.32 0 0  0.36 0 0  0.4 0 0  0.44 0 0  0.48 0 0  0.52 0 0  0.5600000000000001 0 0  0.6 0 0  0.64 0 0  0.68 0 0  0.72 0 0  0.76 0 0  0.8 0 0  0.84 0 0  0.88 0 0  0.92 0 0  0.96 0 0  1 0 0  1.04 0 0  1.08 0 0  1.12 0 0  1.16 0 0  1.2 0 0  1.24 0 0  1.28 0 0  1.32 0 0  1.36 0 0  1.4 0 0  1.44 0 0  1.48 0 0  1.52 0 0  1.56 0 0  1.6 0 0  1.64 0 0  1.68 0 0  1.72 0 0  1.76 0 0  1.8 0 0  1.84 0 0  1.88 0 0  1.92 0 0  1.96 0 0  2 0 0  0 0.02 0  0.04 0.02 0  0.08 0.02 0  0.12 0.02 0  0.16 0.02 0  0.2 0.02 0  0.24 0.02 0  0.28 0.02 0  0.32 0.02 0  0.36 0.02 0  0.4 0.02 0  0.44 0.02 0  0.48 0.02 0  0.52 0.02 0  0.5600000000000001 0.02 0  0.6 0.02 0  0.64 0.02 0  0.68 0.02 0  0.72 0.02 0  0.76 0.02 0  0.8 0.02 0  0.84 0.02 0  0.88 0.02 0  0.92 0.02 0  0.96 0.02 0  1 0.02 0  1.04 0.02 0  1.08 0.02 0  1.12 0.02 0  1.16 0.02 0  1.2 0.02 0  1.24 0.02 0  1.28 0.02 0  1.32 0.02 0  1.36 0.02 0  1.4 0.02 0  1.44 0.02 0  1.48 0.02 0  1.52 0.02 0  1.56 0.02 0  1.6 0.02 0  1.64 0.02 0  1.68 0.02 0  1.72 0.02 0  1.76 0.02 0  1.8 0.02 0  1.84 0.02 0  1.88 0.02 0  1.92 0.02 0  1.96 0.02 0  2 0.02 0  0 0.04 0  0.04 0.04 0  0.08 0.04 0  0.12 0.04 0  0.16 0.04 0  0.2 0.04 0  0.24 0.04 0  0.28 0.04 0  0.32 0.04 0  0.36 0.04 0  0.4 0.04 0  0.44 0.04 0  0.48 0.04 0  0.52 0.04 0  0.5600000000000001 0.04 0  0.6 0.04 0  0.64 0.04 0  0.68 0.04 0  0.72 0.04 0  0.76 0.04 0  0.8 0.04 0  0.84 0.04 0  0.88 0.04 0  0.92 0.04 0  0.96 0.04 0  1 0.04 0  1.04 0.04 0  1.08 0.04 0  1.12 0.04 0  1.16 0.04 0  1.2 0.04 0  1.24 0.04 0  1.28 0.04 0  1.32 0.04 0  1.36 0.04 0  1.4 0.04 0  1.44 0.04 0  1.48 0.04 0  1.52 0.04 0  1.56 0.04 0  1.6 0.04 0  1.64 0.04 0  1.68 0.04 0  1.72 0.04 0  1.76 0.04 0  1.8 0.04 0  1.84 0.04 0  1.88 0.04 0  1.92 0.04 0  1.96 0.04 0  2 0.04 0  0 0.06 0  0.04 0.06 0  0.08 0.06 0  0.12 0.06 0  0.16 0.06 0  0.2 0.06 0  0.24 0.06 0  0.28 0.06 0  0.32 0.06 0  0.36 0.06 0  0.4 0.06 0  0.44 0.06 0  0.48 0.06 0  0.52 0.06 0  0.5600000000000001 0.06 0  0.6 0.06 0  0.64 0.06 0  0.68 0.06 0  0.72 0.06 0  0.76 0.06 0  0.8 0.06 0  0.84 0.06 0  0.88 0.06 0  0.92 0.06 0  0.96 0.06 0  1 0.06 0  1.04 0.06 0  1.08 0.06 0  1.12 0.06 0  1.16 0.06 0  1.2 0.06 0  1.24 0.06 0  1.28 0.06 0  1.32 0.06 0  1.36 0.06 0  1.4 0.06 0  1.44 0.06 0  1.48 0.06 0  1.52 0.06 0  1.56 0.06 0  1.6 0.06 0  1.64 0.06 0  1.68 0.06 0  1.72 0.06 0  1.76 0.06 0  1.8 0.06 0  1.84 0.06 0  1.88 0.06 0  1.92 0.06 0  1.96 0.06 0  2 0.06 0  0 0.08 0  0.04 0.08 0  0.08 0.08 0  0.12 0.08 0  0.16 0.08 0  0.2 0.08 0  0.24 0.08 0  0.28 0.08 0  0.32 0.08 0  0.36 0.08 0  0.4 0.08 0  0.44 0.08 0  0.48 0.08 0  0.52 0.08 0  0.5600000000000001 0.08 0  0.6 0.08 0  0.64 0.08 0  0.68 0.08 0  0.72 0.08 0  0.76 0.08 0  0.8 0.08 0  0.84 0.08 0  0.88 0.08 0  0.92 0.08 0  0.96 0.08 0  1 0.08 0  1.04 0.08 0  1.08 0.08 0  1.12 0.08 0  1.16 0.08 0  1.2 0.08 0  1.24 0.08 0  1.28 0.08 0  1.32 0.08 0  1.36 0.08 0  1.4 0.08 0  1.44 0.08 0  1.48 0.08 0  1.52 0.08 0  1.56 0.08 0  1.6 0.08 0  1.64 0.08 0  1.68 0.08 0  1.72 0.08 0  1.76 0.08 0  1.8 0.08 0  1.84 0.08 0  1.88 0.08 0  1.92 0.08 0  1.96 0.08 0  2 0.08 0  0 0.1 0  0.04 0.1 0  0.08 0.1 0  0.12 0.1 0  0.16 0.1 0  0.2 0.1 0  0.24 0.1 0  0.28 0.1 0  0.32 0.1 0  0.36 0.1 0  0.4 0.1 0  0.44 0.1 0  0.48 0.1 0  0.52 0.1 0  0.5600000000000001 0.1 0  0.6 0.1 0  0.64 0.1 0  0.68 0.1 0  0.72 0.1 0  0.76 0.1 0  0.8 0.1 0  0.84 0.1 0  0.88 0.1 0  0.92 0.1 0  0.96 0.1 0  1 0.1 0  1.04 0.1 0  1.08 0.1 0  1.12 0.1 0  1.16 0.1 0  1.2 0.1 0  1.24 0.1 0  1.28 0.1 0  1.32 0.1 0  1.36 0.1 0  1.4 0.1 0  1.44 0.1 0  1.48 0.1 0  1.52 0.1 0  1.56 0.1 0  1.6 0.1 0  1.64 0.1 0  1.68 0.1 0  1.72 0.1 0  1.76 0.1 0  1.8 0.1 0  1.84 0.1 0  1.88 0.1 0  1.92 0.1 0  1.96 0.1 0  2 0.1 0  0 0.12 0  0.04 0.12 0  0.08 0.12 0  0.12 0.12 0  0.16 0.12 0  0.2 0.12 0  0.24 0.12 0  0.28 0.12 0  0.32 0.12 0  0.36 0.12 0  0.4 0.12 0  0.44 0.12 0  0.48 0.12 0  0.52 0.12 0  0.5600000000000001 0.12 0  0.6 0.12 0  0.64 0.12 0  0.68 0.12 0  0.72 0.12 0  0.76 0.12 0  0.8 0.12 0  0.84 0.12 0  0.88 0.12 0  0.92 0.12 0  0.96 0.12 0  1 0.12 0  1.04 0.12 0  1.08 0.12 0  1.12 0.12 0  1.16 0.12 0  1.2 0.12 0  1.24 0.12 0  1.28 0.12 0  1.32 0.12 0  1.36 0.12 0  1.4 0.12 0  1.44 0.12 0  1.48 0.12 0  1.52 0.12 0  1.56 0.12 0  1.6 0.12 0  1.64 0.12 0  1.68 0.12 0  1.72 0.12 0  1.76 0.12 0  1.8 0.12 0  1.84 0.12 0  1.88 0.12 0  1.92 0.12 0  1.96 0.12 0  2 0.12 0  0 0.14 0  0.04 0.14 0  0.08 0.14 0  0.12 0.14 0  0.16 0.14 0  0.2 0.14 0  0.24 0.14 0  0.28 0.14 0  0.32 0.14 0  0.36 0.14 0  0.4 0.14 0  0.44 0.14 0  0.48 0.14 0  0.52 0.14 0  0.5600000000000001 0.14 0  0.6 0.14 0  0.64 0.14 0  0.68 0.14 0  0.72 0.14 0  0.76 0.14 0  0.8 0.14 0  0.84 0.14 0  0.88 0.14 0  0.92 0.14 0  0.96 0.14 0  1 0.14 0  1.04 0.14 0  1.08 0.14 0  1.12 0.14 0  1.16 0.14 0  1.2 0.14 0  1.24 0.14 0  1.28 0.14 0  1.32 0.14 0  1.36 0.14 0  1.4 0.14 0  1.44 0.14 0  1.48 0.14 0  1.52 0.14 0  1.56 0.14 0  1.6 0.14 0  1.64 0.14 0  1.68 0.14 0  1.72 0.14 0  1.76 0.14 0  1.8 0.14 0  1.84 0.14 0  1.88 0.14 0  1.92 0.14 0  1.96 0.14 0  2 0.14 0  0 0.16 0  0.04 0.16 0  0.08 0.16 0  0.12 0.16 0  0.16 0.16 0  0.2 0.16 0  0.24 0.16 0  0.28 0.16 0  0.32 0.16 0  0.36 0.16 0  0.4 0.16 0  0.44 0.16 0  0.48 0.16 0  0.52 0.16 0  0.5600000000000001 0.16 0  0.6 0.16 0  0.64 0.16 0  0.68 0.16 0  0.72 0.16 0  0.76 0.16 0  0.8 0.16 0  0.84 0.16 0  0.88 0.16 0  0.92 0.16 0  0.96 0.16 0  1 0.16 0  1.04 0.16 0  1.08 0.16 0  1.12 0.16 0  1.16 0.16 0  1.2 0.16 0  1.24 0.16 0  1.28 0.16 0  1.32 0.16 0  1.36 0.16 0  1.4 0.16 0  1.44 0.16 0  1.48 0.16 0  1.52 0.16 0  1.56 0.16 0  1.6 0.16 0  1.64 0.16 0  1.68 0.16 0  1.72 0.16 0  1.76 0.16 0  1.8 0.16 0  1.84 0.16 0  1.88 0.16 0  1.92 0.16 0  1.96 0.16 0  2 0.16 0  0 0.18 0  0.04 0.18 0  0.08 0.18 0  0.12 0.18 0  0.16 0.18 0  0.2 0.18 0  0.24 0.18 0  0.28 0.18 0  0.32 0.18 0  0.36 0.18 0  0.4 0.18 0  0.44 0.18 0  0.48 0.18 0  0.52 0.18 0  0.5600000000000001 0.18 0  0.6 0.18 0  0.64 0.18 0  0.68 0.18 0  0.72 0.18 0  0.76 0.18 0  0.8 0.18 0  0.84 0.18 0  0.88 0.18 0  0.92 0.18 0  0.96 0.18 0  1 0.18 0  1.04 0.18 0  1.08 0.18 0  1.12 0.18 0  1.16 0.18 0  1.2 0.18 0  1.24 0.18 0  1.28 0.18 0  1.32 0.18 0  1.36 0.18 0  1.4 0.18 0  1.44 0.18 0  1.48 0.18 0  1.52 0.18 0  1.56 0.18 0  1.6 0.18 0  1.64 0.18 0  1.68 0.18 0  1.72 0.18 0  1.76 0.18 0  1.8 0.18 0  1.84 0.18 0  1.88 0.18 0  1.92 0.18 0  1.96 0.18 0  2 0.18 0  0 0.2 0  0.04 0.2 0  0.08 0.2 0  0.12 0.2 0  0.16 0.2 0  0.2 0.2 0  0.24 0.2 0  0.28 0.2 0  0.32 0.2 0  0.36 0.2 0  0.4 0.2 0  0.44 0.2 0  0.48 0.2 0  0.52 0.2 0  0.5600000000000001 0.2 0  0.6 0.2 0  0.64 0.2 0  0.68 0.2 0  0.72 0.2 0  0.76 0.2 0  0.8 0.2 0  0.84 0.2 0  0.88 0.2 0  0.92 0.2 0  0.96 0.2 0  1 0.2 0  1.04 0.2 0  1.08 0.2 0  1.12 0.2 0  1.16 0.2 0  1.2 0.2 0  1.24 0.2 0  1.28 0.2 0  1.32 0.2 0  1.36 0.2 0  1.4 0.2 0  1.44 0.2 0  1.48 0.2 0  1.52 0.2 0  1.56 0.2 0  1.6 0.2 0  1.64 0.2 0  1.68 0.2 0  1.72 0.2 0  1.76 0.2 0  1.8 0.2 0  1.84 0.2 0  1.88 0.2 0  1.92 0.2 0  1.96 0.2 0  2 0.2 0  0 0.22 0  0.04 0.22 0  0.08 0.22 0  0.12 0.22 0  0.16 0.22 0  0.2 0.22 0  0.24 0.22 0  0.28 0.22 0  0.32 0.22 0  0.36 0.22 0  0.4 0.22 0  0.44 0.22 0  0.48 0.22 0  0.52 0.22 0  0.5600000000000001 0.22 0  0.6 0.22 0  0.64 0.22 0  0.68 0.22 0  0.72 0.22 0  0.76 0.22 0  0.8 0.22 0  0.84 0.22 0  0.88 0.22 0  0.92 0.22 0  0.96 0.22 0  1 0.22 0  1.04 0.22 0  1.08 0.22 0  1.12 0.22 0  1.16 0.22 0  1.2 0.22 0  1.24 0.22 0  1.28 0.22 0  1.32 0.22 0  1.36 0.22 0  1.4 0.22 0  1.44 0.22 0  1.48 0.22 0  1.52 0.22 0  1.56 0.22 0  1.6 0.22 0  1.64 0.22 0  1.68 0.22 0  1.72 0.22 0  1.76 0.22 0  1.8 0.22 0  1.84 0.22 0  1.88 0.22 0  1.92 0.22 0  1.96 0.22 0  2 0.22 0  0 0.24 0  0.04 0.24 0  0.08 0.24 0  0.12 0.24 0  0.16 0.24 0  0.2 0.24 0  0.24 0.24 0  0.28 0.24 0  0.32 0.24 0  0.36 0.24 0  0.4 0.24 0  0.44 0.24 0  0.48 0.24 0  0.52 0.24 0  0.5600000000000001 0.24 0  0.6 0.24 0  0.64 0.24 0  0.68 0.24 0  0.72 0.24 0  0.76 0.24 0  0.8 0.24 0  0.84 0.24 0  0.88 0.24 0  0.92 0.24 0  0.96 0.24 0  1 0.24 0  1.04 0.24 0  1.08 0.24 0  1.12 0.24 0  1.16 0.24 0  1.2 0.24 0  1.24 0.24 0  1.28 0.24 0  1.32 0.24 0  1.36 0.24 0  1.4 0.24 0  1.44 0.24 0  1.48 0.24 0  1.52 0.24 0  1.56 0.24 0  1.6 0.24 0  1.64 0.24 0  1.68 0.24 0  1.72 0.24 0  1.76 0.24 0  1.8 0.24 0  1.84 0.24 0  1.88 0.24 0  1.92 0.24 0  1.96 0.24 0  2 0.24 0  0 0.26 0  0.04 0.26 0  0.08 0.26 0  0.12 0.26 0  0.16 0.26 0  0.2 0.26 0  0.24 0.26 0  0.28 0.26 0  0.32 0.26 0  0.36 0.26 0  0.4 0.26 0  0.44 0.26 0  0.48 0.26 0  0.52 0.26 0  0.5600000000000001 0.26 0  0.6 0.26 0  0.64 0.26 0  0.68 0.26 0  0.72 0.26 0  0.76 0.26 0  0.8 0.26 0  0.84 0.26 0  0.88 0.26 0  0.92 0.26 0  0.96 0.26 0  1 0.26 0  1.04 0.26 0  1.08 0.26 0  1.12 0.26 0  1.16 0.26 0  1.2 0.26 0  1.24 0.26 0  1.28 0.26 0  1.32 0.26 0  1.36 0.26 0  1.4 0.26 0  1.44 0.26 0  1.48 0.26 0  1.52 0.26 0  1.56 0.26 0  1.6 0.26 0  1.64 0.26 0  1.68 0.26 0  1.72 0.26 0  1.76 0.26 0  1.8 0.26 0  1.84 0.26 0  1.88 0.26 0  1.92 0.26 0  1.96 0.26 0  2 0.26 0  0 0.28 0  0.04 0.28 0  0.08 0.28 0  0.12 0.28 0  0.16 0.28 0  0.2 0.28 0  0.24 0.28 0  0.28 0.28 0  0.32 0.28 0  0.36 0.28 0  0.4 0.28 0  0.44 0.28 0  0.48 0.28 0  0.52 0.28 0  0.5600000000000001 0.28 0  0.6 0.28 0  0.64 0.28 0  0.68 0.28 0  0.72 0.28 0  0.76 0.28 0  0.8 0.28 0  0.84 0.28 0  0.88 0.28 0  0.92 0.28 0  0.96 0.28 0  1 0.28 0  1.04 0.28 0  1.08 0.28 0  1.12 0.28 0  1.16 0.28 0  1.2 0.28 0  1.24 0.28 0  1.28 0.28 0  1.32 0.28 0  1.36 0.28 0  1.4 0.28 0  1.44 0.28 0  1.48 0.28 0  1.52 0.28 0  1.56 0.28 0  1.6 0.28 0  1.64 0.28 0  1.68 0.28 0  1.72 0.28 0  1.76 0.28 0  1.8 0.28 0  1.84 0.28 0  1.88 0.28 0  1.92 0.28 0  1.96 0.28 0  2 0.28 0  0 0.3 0  0.04 0.3 0  0.08 0.3 0  0.12 0.3 0  0.16 0.3 0  0.2 0.3 0  0.24 0.3 0  0.28 0.3 0  0.32 0.3 0  0.36 0.3 0  0.4 0.3 0  0.44 0.3
[...]
<PointData  Vectors="f_26-0"> 
<DataArray  type="Float64"  Name="f_26-0"  NumberOfComponents="3" format="ascii">0.0000000000000000e+00 0.0000000000000000e+00 0.0000000000000000e+00  0.0000000000000000e+00 0.0000000000000000e+00 0.0000000000000000e+00  0.0000000000000000e+00 0.0000000000000000e+00 0.0000000000000000e+00  0.0000000000000000e+00 0.0000000000000000e+00 0.0000000000000000e+00  0.0000000000000000e+00 0.0000000000000000e+00 0.0000000000000000e+00  0.0000000000000000e+00 0.0000000000000000e+00 0.0000000000000000e+00  0.0000000000000000e+00 0.0000000000000000e+00 0.0000000000000000e+00  0.0000000000000000e+00 0.0000000000000000e+00 0.0000000000000000e+00  0.0000000000000000e+00 0.0000000000000000e+00 0.0000000000000000e+00  0.0000000000000000e+00 0.0000000000000000e+00 0.0000000000000000e+00  0.0000000000000000e+00 0.0000000000000000e+00 0.0000000000000000e+00  0.0000000000000000e+00 0.0000000000000000e+00 0.0000000000000000e+00  0.0000000000000000e+00 0.0000000000000000e+00 0.0000000000000000e+00  0.0000000000000000e+00 0.0000000000000000e+00 0.0000000000000000e+00  0.0000000000000000e+00 0.0000000000000000e+00 0.0000000000000000e+00  0.0000000000000000e+00 0.0000000000000000e+00 0.0000000000000000e+00  0.0000000000000000e+00 0.0000000000000000e+00 0.0000000000000000e+00  0.0000000000000000e+00 0.0000000000000000e+00 0.0000000000000000e+00  0.0000000000000000e+00 0.0000000000000000e+00 0.0000000000000000e+00  0.0000000000000000e+00 0.0000000000000000e+00 0.0000000000000000e+00  0.0000000000000000e+00 0.0000000000000000e+00 0.0000000000000000e+00  0.0000000000000000e+00 0.0000000000000000e+00 0.0000000000000000e+00  0.0000000000000000e+00 0.0000000000000000e+00 0.0000000000000000e+00  0.0000000000000000e+00 0.0000000000000000e+00 0.0000000000000000e+00  0.0000000000000000e+00 0.0000000000000000e+00 0.0000000000000000e+00  0.0000000000000000e+00 0.0000000000000000e+00 0.0000000000000000e+00  0.0000000000000000e+00 0.0000000000000000e+00 0.0000000000000000e+00  0.0000000000000000e+00 0.0000000000000000e+00 0.0000000000000000e+00  0.0000000000000000e+00 0.0000000000000000e+00 0.0000000000000000e+00  0.0000000000000000e+00 0.0000000000000000e+00 0.0000000000000000e+00  0.0000000000000000e+00 0.0000000000000000e+00 0.0000000000000000e+00  0.0000000000000000e+00 0.0000000000000000e+00 0.0000000000000000e+00  0.0000000000000000e+00 0.0000000000000000e+00 0.0000000000000000e+00  0.0000000000000000e+00 0.0000000000000000e+00 0.0000000000000000e+00  0.0000000000000000e+00 0.0000000000000000e+00 0.0000000000000000e+00  0.0000000000000000e+00 0.0000000000000000e+00 0.0000000000000000e+00  0.0000000000000000e+00 0.0000000000000000e+00 0.0000000000000000e+00  0.0000000000000000e+00 0.0000000000000000e+00 0.0000000000000000e+00  0.0000000000000000e+00 0.0000000000000000e+00 0.0000000000000000e+00  0.0000000000000000e+00 0.0000000000000000e+00 0.0000000000000000e+00  0.0000000000000000e+00 0.0000000000000000e+00 0.0000000000000000e+00  0.0000000000000000e+00 0.0000000000000000e+00 0.0000000000000000e+00  0.0000000000000000e+00 0.0000000000000000e+00 0.0000000000000000e+00  0.0000000000000000e+00 0.0000000000000000e+00 0.0000000000000000e+00  0.0000000000000000e+00 0.0000000000000000e+00 0.0000000000000000e+00  0.0000000000000000e+00 0.0000000000000000e+00 0.0000000000000000e+00  0.0000000000000000e+00 0.0000000000000000e+00 0.0000000000000000e+00  0.0000000000000000e+00 0.0000000000000000e+00 0.0000000000000000e+00  0.0000000000000000e+00 0.0000000000000000e+00 0.0000000000000000e+00  0.0000000000000000e+00 0.0000000000000000e+00 0.0000000000000000e+00  0.0000000000000000e+00 0.0000000000000000e+00 0.0000000000000000e+00  1.0000000000000000e-02 0.0000000000000000e+00 0.0000000000000000e+00  1.6397075598494731e-01 -9.4615616591693402e-02 0.0000000000000000e+00  8.6184010243499187e-01 -2.4965135775132974e-01 0.0000000000000000e+00  2.0501274822839468e+00 -3.5624525501201038e-01 0.0000000000000000e+00  3.5679537675392492e+00 -4.2761911153931115e-01 0.0000000000000000e+00  5.3187400156097313e+00 -4.7955758101007478e-01 0.0000000000000000e+00  7.2507781084791310e+00 -5.2226962214310857e-01 0.0000000000000000e+00  9.3409055815055950e+00 -5.6131335457369269e-01 0.0000000000000000e+00  1.1580566832664321e+01 -5.9915220930592827e-01 0.0000000000000000e+00  1.3966224955710596e+01 -6.3608044320981261e-01 0.0000000000000000e+00  1.6492179700541278e+01 -6.7070119769218306e-01 0.0000000000000000e+00  1.9144565542576366e+01 -7.0012928522961726e-01 0.0000000000000000e+00  2.1895783189442646e+01 -7.2004434389960159e-01 0.0000000000000000e+00  2.4699032638099521e+01 -7.2471030709950013e-01 0.0000000000000000e+00  2.7483066884717989e+01 -7.0709266338546273e-01 0.0000000000000000e+00  3.0147876301214854e+01 -6.5926165156424377e-01 0.0000000000000000e+00  3.2562911063528858e+01 -5.7337510169679595e-01 0.0000000000000000e+00  3.4570862462446570e+01 -4.4370400056462617e-01 0.0000000000000000e+00  3.6002213440847420e+01 -2.7040626071985113e-01 0.0000000000000000e+00  3.6708977061092980e+01 -6.6045366996150337e-02 0.0000000000000000e+00  3.6630244985999646e+01 1.3394227141494489e-01 0.0000000000000000e+00  3.5906377862116216e+01 2.5592037599920414e-01 0.0000000000000000e+00  3.5059271343527158e+01 1.6879908625934181e-01 0.0000000000000000e+00  3.5243520970955643e+01 -3.3259009007528634e-01 0.0000000000000000e+00  3.8526604991429515e+01 -1.5217789442286724e+00 0.0000000000000000e+00  4.8039564497087468e+01 -3.6687718563410572e+00 0.0000000000000000e+00  6.7617463696316278e+01 -6.8294474151702822e+00 0.0000000000000000e+00  1.0026697349807237e+02 -1.0435573721299674e+01 0.0000000000000000e+00  1.4481920405952297e+02 -1.2806025050214293e+01 0.0000000000000000e+00  1.9146168327471892e+02 -1.1248630473608243e+01 0.0000000000000000e+00  2.2086646451564513e+02 -4.1223611212092646e+00 0.0000000000000000e+00  2.1605711714534590e+02 4.8491762105921286e+00 0.0000000000000000e+00  1.8618908255050187e+02 7.2008186289681344e+00 0.0000000000000000e+00  1.5084116016565625e+02 1.1119464798718742e+01 0.0000000000000000e+00  1.0307479013418821e+01 6.9468675876489755e+01 0.0000000000000000e+00  -5.0277927699472912e+02 1.8486913304655306e+02 0.0000000000000000e+00  -1.0835694963716176e+03 1.0060629620239997e+02 0.0000000000000000e+00  -7.2311389094791593e+02 -1.7198800554965834e+02 0.0000000000000000e+00  -7.6580990276155705e+02 1.9697892898310889e+02 0.0000000000000000e+00  -1.2926747370344212e+03 4.0220107014648349e+01 0.0000000000000000e+00  6.3194489904282648e+02 -7.1085830873601401e+02 0.0000000000000000e+00  1.1000101055887394e+03 1.5332005482415153e+02 0.0000000000000000e+00  -5.3396018332590461e+02 3.4292788552669373e+02 0.0000000000000000e+00  -2.6403405307513100e+02 5.7260490514455791e+00 0.0000000000000000e+00  5.0934316792608399e+02 -4.2968170210217767e+02 0.0000000000000000e+00  -6.0192891831005250e+02 6.1128142485490071e+02 0.0000000000000000e+00  -4.5080104407875737e+01 -1.9293750446285699e+02 0.0000000000000000e+00  9.1051140264761705e+02 -1.6658940687543654e+02 0.0000000000000000e+00  5.6922321689761884e+02 -3.8333879445187966e+02 0.0000000000000000e+00  7.5661686306415675e+01 3.0942614506019265e+02 0.0000000000000000e+00  -1.6105416665607411e-01 -6.2938912240824315e+01 0.0000000000000000e+00  1.0000000000000000e-02 0.0000000000000000e+00 0.0000000000000000e+00  4.4006312531561742e-01 -4.1805517277873816e-01 0.0000000000000000e+00  1.7854198550876901e+00 -9.4706293598832747e-01 0.0000000000000000e+00  3.9285384595862762e+00 -1.3279689628785496e+00 0.0000000000000000e+00  6.6495629765408557e+00 -1.5926066202609892e+00 0.0000000000000000e+00  9.7968462920294819e+00 -1.7896390620750589e+00 0.0000000000000000e+00  1.3282999175444443e+01 -1.9531988852754314e+00 0.0000000000000000e+00  1.7066348371663352e+01 -2.1028775109212101e+00 0.0000000000000000e+00  2.1130151942979989e+01 -2.2476839545700287e+00 0.0000000000000000e+00  2.5466936446731310e+01 -2.3888546365240084e+00 0.0000000000000000e+00  3.0066046433812389e+01 -2.5214283819681160e+00 0.0000000000000000e+00  3.4903022164669395e+01 -2.6349389277130086e+00 0.0000000000000000e+00  3.9929695171261606e+01 -2.7136114094360200e+00 0.0000000000000000e+00  4.5064505956815061e+01 -2.7364522617401987e+00 0.0000000000000000e+00  5.0183272741146247e+01 -2.6777025082095491e+00 0.0000000000000000e+00  5.5111641835678149e+01 -2.5083348188222292e+00 0.0000000000000000e+00  5.9621975045413620e+01 -2.1996548584910043e+00 0.0000000000000000e+00  6.3439810029895959e+01 -1.7306695048178793e+00 0.0000000000000000e+00  6.6268670641451905e+01 -1.1017359344102733e+00 0.0000000000000000e+00  6.7847254368671159e+01 -3.5800852489894108e-01 0.0000000000000000e+00  6.8059744067093291e+01 3.7313572285969437e-01 0.0000000000000000e+00  6.7126394190838525e+01 8.2768592680567632e-01 0.0000000000000000e+00  6.5901506000755262e+01 5.3732687836896165e-01 0.0000000000000000e+00  6.6283662466806234e+01 -1.2276510639827101e+00 0.0000000000000000e+00  7.1665067474211654e+01 -5.4345123387151668e+00 0.0000000000000000e+00  8.7156436826430152e+01 -1.3028156392229166e+01 0.0000000000000000e+00  1.1896590027029673e+02 -2.4179534355284723e+01 0.0000000000000000e+00  1.7185866086503091e+02 -3.6825663265319548e+01 0.0000000000000000e+00  2.4364500847017896e+02 -4.4915389812810041e+01 0.0000000000000000e+00  3.1772510850675661e+02 -3.8683594452509539e+01 0.0000000000000000e+00  3.6102064827981980e+02 -1.1827450559387033e+01 0.0000000000000000e+00  3.4176424107639059e+02 2.3274335336416542e+01 0.0000000000000000e+00  2.6668577250950403e+02 3.6841733685718602e+01 0.0000000000000000e+00  1.6138321636973936e+02 5.7298333415379950e+01 0.0000000000000000e+00  -1.1049489503848788e+02 2.6047187775943320e+02 0.0000000000000000e+00  -8.6434675215968923e+02 6.2035441847005768e+02 0.0000000000000000e+00  -1.5421462652325106e+03 2.3551259031921393e+02 0.0000000000000000e+00  -9.5371873799121715e+02 -6.9949016331077269e+02 0.0000000000000000e+00  -9.6771231843985925e+02 8.1219956739888028e+02 0.0000000000000000e+00  -8.6391915410817535e+02 -5.5029327332889477e+02 0.0000000000000000e+00  1.2384153043267052e+03 -2.1437976184072836e+03 0.0000000000000000e+00  2.3422799836223604e+02 1.6907492425451783e+03 0.0000000000000000e+00  -5.4348448309279445e+02 4.5776378807915449e+02 0.0000000000000000e+00  3.4603083822240569e+02 -9.5299640979161927e+02 0.0000000000000000e+00  8.5096275221358965e+01 1.7360584464926674e+02 0.0000000000000000e+00  -9.7057945298589019e+01 1.0694623169591011e+03 0.0000000000000000e+00  1.3537711778013852e+03 -1.9446759766465620e+03 0.0000000000000000e+00  3.5546562863101218e+02 4.1500302052001456e+02 0.0000000000000000e+00  3.6994017969676884e-01 1.1829590173541209e+02 0.0000000000000000e+00  4.6735428633994968e+02 8.2233576259960819e+02 0.0000000000000000e+00  -2.1783850950635224e+02 7.1059586370590580e+01 0.0000000000000000e+00  1.0000000000000000e-02 0.0000000000000000e+00 0.0000000000000000e+00  7.1590300414729913e-01 -9.8343992443790296e-01 0.0000000000000000e+00  2.6526341378235410e+00 -2.0204954668398085e+00 0.0000000000000000e+00  5.5868759482845096e+00 -2.7921024460076946e+00 0.0000000000000000e+00  9.2752751554396937e+00 -3.3449716556253040e+00 0.0000000000000000e+00  1.3540929020540789e+01 -3.7652307737267572e+00 0.0000000000000000e+00  1.8277145571099936e+01 -4.1174660072416867e+00 0.0000000000000000e+00  2.3431001688262409e+01 -4.4405628133946191e+00 0.0000000000000000e+00  2.8980717477759146e+01 -4.7530394427097544e+00 0.0000000000000000e+00  3.4916884927732902e+01 -5.0577886575891950e+00 0.0000000000000000e+00  4.1226620619044382e+01 -5.3449529318924007e+00 0.0000000000000000e+00  4.7879673899379732e+01 -5.5932365816174014e+00 0.0000000000000000e+00  5.4815304413101018e+01 -5.7702945740110847e+00 0.0000000000000000e+00  6.1929382949374471e+01 -5.8329264879422276e+00 0.0000000000000000e+00  6.9061991206697556e+01 -5.7280086918816897e+00 0.0000000000000000e+00  7.5987013673914802e+01 -5.3955310959370912e+00 0.0000000000000000e+00  8.2407080679023196e+01 -4.7758659099197764e+00 0.0000000000000000e+00  8.7960127092450278e+01 -3.8245874545542264e+00 0.0000000000000000e+00  9.2248255841483314e+01 -2.5398324636471297e+00 0.0000000000000000e+00  9.4905960392700166e+01 -1.0091344965202080e+00 0.0000000000000000e+00  9.5732938309293132e+01 5.1609544833554644e-01 0.0000000000000000e+00  9.4924732352533439e+01 1.5126795194618912e+00 0.0000000000000000e+00  9.3435370566389224e+01 1.0519203348861410e+00 0.0000000000000000e+00  9.3482091559835439e+01 -2.3130934368294906e+00 0.0000000000000000e+00  9.9114113394559155e+01 -1.0501406074983253e+01 0.0000000000000000e+00  1.1654635820389892e+02 -2.5395371585944620e+01 0.0000000000000000e+00  1.5352547204254716e+02 -4.7363218311657356e+01 0.0000000000000000e+00  2.1638994011152226e+02 -7.2359393905287249e+01 0.0000000000000000e+00  3.0328342530463880e+02 -8.8325347125049490e+01 0.0000000000000000e+00  3.9404215537194028e+02 -7.5302189211442254e+01 0.0000000000000000e+00  4.4475652700164846e+02 -1.8928546931200444e+01 0.0000000000000000e+00  4.0616491080219743e+02 5.9141127064033341e+01 0.0000000000000000e+00  2.7462729598220392e+02 9.9236377611429759e+01 0.0000000000000000e+00  9.6543297778398909e+01 1.4360307742536477e+02 0.0000000000000000e+00  -2.2441730725641267e+02 5.0877403525907812e+02 0.0000000000000000e+00  -1.0085035738282101e+03 1.1198107463265021e+03 0.0000000000000000e+00  -1.6800617074612805e+03 3.0603569194532344e+02 0.0000000000000000e+00  -9.5802167582494553e+02 -1.3064908664733989e+03 0.0000000000000000e+00  -5.8969584147657463e+02 1.2888223147201340e+03 0.0000000000000000e+00  -2.6922899248039550e+02 -1.4973122409706789e+03 0.0000000000000000e+00  9.6883886610813022e+02 -2.5973055076233031e+03 0.0000000000000000e+00  -4.8841795443069111e+02 3.1948554702574938e+03 0.0000000000000000e+00  1.6997585374281627e+02 -7.1801810870846919e+02 0.0000000000000000e+00  3.4913007488793238e+02 -7.1633136758856210e+02 0.0000000000000000e+00  1.2489644511844796e+02 4.9196996182496821e+02 0.0000000000000000e+00  9.8063295920541623e+02 2.0069070230546390e+02 0.0000000000000000e+00  6.3376662976143291e+02 -1.5282425487147259e+03 0.0000000000000000e+00  -4.8118308171193786e+02 9.0224770788943101e+02 0.0000000000000000e+00  -1.0501881387378087e+00 9.7253696319470606e+01 0.0000000000000000e+00  2.0337847505592566e+02 1.5686624496848313e+02 0.0000000000000000e+00  -2.7250344047383709e+02 -1.4164610330763631e+02 0.0000000000000000e+00  1.0000000000000000e-02 0.0000000000000000e+00 0.0000000000000000e+00  9.5553117965667034e-01 -1.7719714698502285e+00 0.0000000000000000e+00  3.4091850431972914e+00 -3.4167152864626469e+00 0.0000000000000000e+00  7.0044261121786606e+00 -4.6576454088072117e+00 0.0000000000000000e+00  1.1476941604729603e+01 -5.5687494087855454e+00 0.0000000000000000e+00  1.6640281991067010e+01 -6.2747307705686337e+00 0.0000000000000000e+00  2.2381202855442059e+01 -6.8730048669111667e+00 0.0000000000000000e+00  2.8643001478126539e+01 -7.4244405778171219e+00 0.0000000000000000e+00  3.5403377109889817e+01 -7.9589360756120522e+00 0.0000000000000000e+00  4.2654489996528923e+01 -8.4816963452601932e+00 0.0000000000000000e+00  5.0385295872959958e+01 -8.9773017169556351e+00 0.0000000000000000e+00  5.8565581816689630e+01 -9.4116163818877379e+00 0.0000000000000000e+00  6.7130601913655354e+01 -9.7323341404042960e+00 0.0000000000000000e+00  7.5965750550271252e+01 -9.8692240051055151e+00 0.0000000000000000e+00  8.4891491569956230e+01 -9.7355127249674371e+00 0.0000000000000000e+00  9.3650010810415893e+01 -9.2325358970365272e+00 0.0000000000000000e+00  1.0189699529621402e+02 -8.2609799773024442e+00 0.0000000000000000e+00  1.0920497297923677e+02 -6.7438889044952717e+00 0.0000000000000000e+00  1.1508929250245680e+02 -4.6692028099789038e+00 0.0000000000000000e+00  1.1907460701259403e+02 -2.1626356625272223e+00 0.0000000000000000e+00  1.2082876122594689e+02 3.9626489502349499e-01 0.0000000000000000e+00  1.2040080414301934e+02 2.2053727592200607e+00 0.0000000000000000e+00  1.1860458009892318e+02 1.8286132395303420e+00 0.0000000000000000e+00  1.1757252458498458e+02 -2.9892160915727066e+00 0.0000000000000000e+00  1.2142735263345456e+02 -1.5275130320456011e+01 0.0000000000000000e+00  1.3680624168407161e+02 -3.8083582201709412e+01 0.0000000000000000e+00  1.7250883304556839e+02 -7.2254112637695982e+01 0.0000000000000000e+00  2.3676967349734724e+02 -1.1185952794019776e+02 0.0000000000000000e+00  3.2997978794455128e+02 -1.3815437032579223e+02 0.0000000000000000e+00  4.3198024497898564e+02 -1.1842432120585289e+02 0.0000000000000000e+00  4.9075166360819952e+02 -2.5248744325289234e+01 0.0000000000000000e+00  4.3605677097837946e+02 1.1396142647806073e+02 0.0000000000000000e+00  2.4551035783275111e+02 1.9906015430411699e+02 0.0000000000000000e+00  2.0916473373095448e+00 2.5504684272479315e+02 0.0000000000000000e+00  -2.7999937451961057e+02 7.3568840082011502e+02 0.0000000000000000e+00  -9.2844701589258113e+02 1.5989947568947625e+03 0.0000000000000000e+00  -1.6238451729764533e+03 3.9502487164462275e+02 0.0000000000000000e+00  -9.1573142124852359e+02 -2.0462749465079532e+03 0.0000000000000000e+00  3.2778304003648039e+01 1.5263054978709979e+03 0.0000000000000000e+00  -5.4125480102380585e+01 -2.1587091548714930e+03 0.0000000000000000e+00  2.0702156708702367e+02 -2.3992802907347918e+03 0.0000000000000000e+00  -5.3416074965446637e+02 3.8543015807679240e+03 0.0000000000000000e+00  8.6333892376521260e+02 -2.0426712296246560e+03 0.0000000000000000e+00  5.1990604050312214e+01 3.7222467572210752e+02 0.0000000000000000e+00  6.1905722719918663e+02 -2.5973540582896123e+02 0.0000000000000000e+00  8.4961689511864768e+02 2.6585806496486907e+02 0.0000000000000000e+00  -8.8112306811211147e+02 -5.2885143521500515e+02 0.0000000000000000e+00  -4.1322286781524036e+02 1.6403664539929198e+02 0.0000000000000000e+00  2.5220876157712104e+02 3.9530312085562770e+02 0.0000000000000000e+00  -5.5952541542419237e+02 -7.4306183429589737e+02 0.0000000000000000e+00  1.0555328283959106e+02 -1.1924862712655904e+02 0.0000000000000000e+00  1.0000000000000000e-02 0.0000000000000000e+00 0.0000000000000000e+00  1.1508912726577238e+00 -2.7524672506563475e+00 0.0000000000000000e+00  4.0378104079612438e+00 -5.0870905605897736e+00 0.0000000000000000e+00  8.1808101418786006e+00 -6.8522116244761104e+00 0.0000000000000000e+00  1.3288504511346595e+01 -8.1718436847012530e+00 0.0000000000000000e+00  1.9171194965881377e+01 -9.2121447199020992e+00 0.0000000000000000e+00  2.5717180937809562e+01 -1.0104278159636328e+01 0.0000000000000000e+00  3.2872396004124830e+01 -1.0932240670862969e+01 0.0000000000000000e+00  4.0618859486018678e+01 -1.1738412093440919e+01 0.0000000000000000e+00  4.8954576608162355e+01 -1.2530935875536628e+01 0.0000000000000000e+00  5.7875214984410029e+01 -1.3288741387110155e+01 0.0000000000000000e+00  6.7357052082002610e+01 -1.3963916189937251e+01 0.0000000000000000e+00  7.7340200569652623e+01 -1.4482283331718927e+01 0.0000000000000000e+00  8.7711490567885406e+01 -1.4743531452507092e+01 0.0000000000000000e+00  9.8287042572444975e+01 -1.4622807514576303e+01 0.0000000000000000e+00  1.0879568660997009e+02 -1.3976644666783036e+01 0.0000000000000000e+00  1.1886615395648512e+02 -1.2657716796151686e+01 0.0000000000000000e+00  1.2802378468032896e+02 -1.0545426339267305e+01 0.0000000000000000e+00  1.3570690420187802e+02 -7.6028856638424029e+00 0.0000000000000000e+00  1.4131969942706178e+02 -3.9751264890343552e+00 0.0000000000000000e+00  1.4434793899391954e+02 -1.4661483800139505e-01 0.0000000000000000e+00  1.4457591865245232e+02 2.8270980094199238e+00 0.0000000000000000e+00  1.4245417683684408e+02 3.0223463499703662e+00 0.0000000000000000e+00  1.3966581473236238e+02 -2.6321659438150160e+00 0.0000000000000000e+00  1.3989156445446815e+02 -1.8355068098219689e+01 0.0000000000000000e+00  1.4960233797953765e+02 -4.8617331693993883e+01 0.0000000000000000e+00  1.7826104848565365e+02