<?xml version="1.0"?>
<VTKFile type="UnstructuredGrid"  version="0.1"  >
<UnstructuredGrid>
<Piece  NumberOfPoints="2601" NumberOfCells="5000">
<Points>
<DataArray  type="Float64"  NumberOfComponents="3"  format="ascii">0 0 0  0.04 0 0  0.08 0 0  0.12 0 0  0.16 0 0  0.2 0 0  0.24 0 0  0.28 0 0  0.32 0 0  0.36 0 0  0.4 0 0  0.44 0 0  0.48 0 0  0.52 0 0  0.5600000000000001 0 0  0.6 0 0  0.64 0 0  0.68 0 0  0.72 0 0  0.76 0 0  0.8 0 0  0.84 0 0  0.88 0 0  0.92 0 0  0.96 0 0  1 0 0  1.04 0 0  1.08 0 0  1.12 0 0  1.16 0 0  1.2 0 0  1.24 0 0  1.28 0 0  1.32 0 0  1.36 0 0  1.4 0 0  1.44 0 0  1.48 0 0  1.52 0 0  1.56 0 0  1.6 0 0  1.64 0 0  1.68 0 0  1.72 0 0  1.76 0 0  1.8 0 0  1.84 0 0  1.88 0 0  1.92 0 0  1.96 0 0  2 0 0  0 0.02 0  0.04 0.02 0  0.08 0.02 0  0.12 0.02 0  0.16 0.02 0  0.2 0.02 0  0.24 0.02 0  0.28 0.02 0  0.32 0.02 0  0.36 0.02 0  0.4 0.02 0  0.44 0.02 0  0.48 0.02 0  0.52 0.02 0  0.5600000000000001 0.02 0  0.6 0.02 0  0.64 0.02 0  0.68 0.02 0  0.72 0.02 0  0.76 0.02 0  0.8 0.02 0  0.84 0.02 0  0.88 0.02 0  0.92 0.02 0  0.96 0.02 0  1 0.02 0  1.04 0.02 0  1.08 0.02 0  1.12 0.02 0  1.16 0.02 0  1.2 0.02 0  1.24 0.02 0  1.28 0.02 0  1.32 0.02 0  1.36 0.02 0  1.4 0.02 0  1.44 0.02 0  1.48 0.02 0  1.52 0.02 0  1.56 0.02 0  1.6 0.02 0  1.64 0.02 0  1.68 0.02 0  1.72 0.02 0  1.76 0.02 0  1.8 0.02 0  1.84 0.02 0  1.88 0.02 0  1.92 0.02 0  1.96 0.02 0  2 0.02 0  0 0.04 0  0.04 0.04 0  0.08 0.04 0  0.12 0.04 0  0.16 0.04 0  0.2 0.04 0  0.24 0.04 0  0.28 0.04 0  0.32 0.04 0  0.36 0.04 0  0.4 0.04 0  0.44 0.04 0  0.48 0.04 0  0.52 0.04 0  0.5600000000000001 0.04 0  0.6 0.04 0  0.64 0.04 0  0.68 0.04 0  0.72 0.04 0  0.76 0.04 0  0.8 0.04 0  0.84 0.04 0  0.88 0.04 0  0.92 0.04 0  0.96 0.04 0  1 0.04 0  1.04 0.04 0  1.08 0.04 0  1.12 0.04 0  1.16 0.04 0  1.2 0.04 0  1.24 0.04 0  1.28 0.04 0  1.32 0.04 0  1.36 0.04 0  1.4 0.04 0  1.44 0.04 0  1.48 0.04 0  1.52 0.04 0  1.56 0.04 0  1.6 0.04 0  1.64 0.04 0  1.68 0.04 0  1.72 0.04 0  1.76 0.04 0  1.8 0.04 0  1.84 0.04 0  1.88 0.04 0  1.92 0.04 0  1.96 0.04 0  2 0.04 0  0 0.06 0  0.04 0.06 0  0.08 0.06 0  0.12 0.06 0  0.16 0.06 0  0.2 0.06 0  0.24 0.06 0  0.28 0.06 0  0.32 0.06 0  0.36 0.06 0  0.4 0.06 0  0.44 0.06 0  0.48 0.06 0  0.52 0.06 0  0.5600000000000001 0.06 0  0.6 0.06 0  0.64 0.06 0  0.68 0.06 0  0.72 0.06 0  0.76 0.06 0  0.8 0.06 0  0.84 0.06 0  0.88 0.06 0  0.92 0.06 0  0.96 0.06 0  1 0.06 0  1.04 0.06 0  1.08 0.06 0  1.12 0.06 0  1.16 0.06 0  1.2 0.06 0  1.24 0.06 0  1.28 0.06 0  1.32 0.06 0  1.36 0.06 0  1.4 0.06 0  1.44 0.06 0  1.48 0.06 0  1.52 0.06 0  1.56 0.06 0  1.6 0.06 0  1.64 0.06 0  1.68 0.06 0  1.72 0.06 0  1.76 0.06 0  1.8 0.06 0  1.84 0.06 0  1.88 0.06 0  1.92 0.06 0  1.96 0.06 0  2 0.06 0  0 0.08 0  0.04 0.08 0  0.08 0.08 0  0.12 0.08 0  0.16 0.08 0  0.2 0.08 0  0.24 0.08 0  0.28 0.08 0  0.32 0.08 0  0.36 0.08 0  0.4 0.08 0  0.44 0.08 0  0.48 0.08 0  0.52 0.08 0  0.5600000000000001 0.08 0  0.6 0.08 0  0.64 0.08 0  0.68 0.08 0  0.72 0.08 0  0.76 0.08 0  0.8 0.08 0  0.84 0.08 0  0.88 0.08 0  0.92 0.08 0  0.96 0.08 0  1 0.08 0  1.04 0.08 0  1.08 0.08 0  1.12 0.08 0  1.16 0.08 0  1.2 0.08 0  1.24 0.08 0  1.28 0.08 0  1.32 0.08 0  1.36 0.08 0  1.4 0.08 0  1.44 0.08 0  1.48 0.08 0  1.52 0.08 0  1.56 0.08 0  1.6 0.08 0  1.64 0.08 0  1.68 0.08 0  1.72 0.08 0  1.76 0.08 0  1.8 0.08 0  1.84 0.08 0  1.88 0.08 0  1.92 0.08 0  1.96 0.08 0  2 0.08 0  0 0.1 0  0.04 0.1 0  0.08 0.1 0  0.12 0.1 0  0.16 0.1 0  0.2 0.1 0  0.24 0.1 0  0.28 0.1 0  0.32 0.1 0  0.36 0.1 0  0.4 0.1 0  0.44 0.1 0  0.48 0.1 0  0.52 0.1 0  0.5600000000000001 0.1 0  0.6 0.1 0  0.64 0.1 0  0.68 0.1 0  0.72 0.1 0  0.76 0.1 0  0.8 0.1 0  0.84 0.1 0  0.88 0.1 0  0.92 0.1 0  0.96 0.1 0  1 0.1 0  1.04 0.1 0  1.08 0.1 0  1.12 0.1 0  1.16 0.1 0  1.2 0.1 0  1.24 0.1 0  1.28 0.1 0  1.32 0.1 0  1.36 0.1 0  1.4 0.1 0  1.44 0.1 0  1.48 0.1 0  1.52 0.1 0  1.56 0.1 0  1.6 0.1 0  1.64 0.1 0  1.68 0.1 0  1.72 0.1 0  1.76 0.1 0  1.8 0.1 0  1.84 0.1 0  1.88 0.1 0  1.92 0.1 0  1.96 0.1 0  2 0.1 0  0 0.12 0  0.04 0.12 0  0.08 0.12 0  0.12 0.12 0  0.16 0.12 0  0.2 0.12 0  0.24 0.12 0  0.28 0.12 0  0.32 0.12 0  0.36 0.12 0  0.4 0.12 0  0.44 0.12 0  0.48 0.12 0  0.52 0.12 0  0.5600000000000001 0.12 0  0.6 0.12 0  0.64 0.12 0  0.68 0.12 0  0.72 0.12 0  0.76 0.12 0  0.8 0.12 0  0.84 0.12 0  0.88 0.12 0  0.92 0.12 0  0.96 0.12 0  1 0.12 0  1.04 0.12 0  1.08 0.12 0  1.12 0.12 0  1.16 0.12 0  1.2 0.12 0  1.24 0.12 0  1.28 0.12 0  1.32 0.12 0  1.36 0.12 0  1.4 0.12 0  1.44 0.12 0  1.48 0.12 0  1.52 0.12 0  1.56 0.12 0  1.6 0.12 0  1.64 0.12 0  1.68 0.12 0  1.72 0.12 0  1.76 0.12 0  1.8 0.12 0  1.84 0.12 0  1.88 0.12 0  1.92 0.12 0  1.96 0.12 0  2 0.12 0  0 0.14 0  0.04 0.14 0  0.08 0.14 0  0.12 0.14 0  0.16 0.14 0  0.2 0.14 0  0.24 0.14 0  0.28 0.14 0  0.32 0.14 0  0.36 0.14 0  0.4 0.14 0  0.44 0.14 0  0.48 0.14 0  0.52 0.14 0  0.5600000000000001 0.14 0  0.6 0.14 0  0.64 0.14 0  0.68 0.14 0  0.72 0.14 0  0.76 0.14 0  0.8 0.14 0  0.84 0.14 0  0.88 0.14 0  0.92 0.14 0  0.96 0.14 0  1 0.14 0  1.04 0.14 0  1.08 0.14 0  1.12 0.14 0  1.16 0.14 0  1.2 0.14 0  1.24 0.14 0  1.28 0.14 0  1.32 0.14 0  1.36 0.14 0  1.4 0.14 0  1.44 0.14 0  1.48 0.14 0  1.52 0.14 0  1.56 0.14 0  1.6 0.14 0  1.64 0.14 0  1.68 0.14 0  1.72 0.14 0  1.76 0.14 0  1.8 0.14 0  1.84 0.14 0  1.88 0.14 0  1.92 0.14 0  1.96 0.14 0  2 0.14 0  0 0.16 0  0.04 0.16 0  0.08 0.16 0  0.12 0.16 0  0.16 0.16 0  0.2 0.16 0  0.24 0.16 0  0.28 0.16 0  0.32 0.16 0  0.36 0.16 0  0.4 0.16 0  0.44 0.16 0  0.48 0.16 0  0.52 0.16 0  0.5600000000000001 0.16 0  0.6 0.16 0  0.64 0.16 0  0.68 0.16 0  0.72 0.16 0  0.76 0.16 0  0.8 0.16 0  0.84 0.16 0  0.88 0.16 0  0.92 0.16 0  0.96 0.16 0  1 0.16 0  1.04 0.16 0  1.08 0.16 0  1.12 0.16 0  1.16 0.16 0  1.2 0.16 0  1.24 0.16 0  1.28 0.16 0  1.32 0.16 0  1.36 0.16 0  1.4 0.16 0  1.44 0.16 0  1.48 0.16 0  1.52 0.16 0  1.56 0.16 0  1.6 0.16 0  1.64 0.16 0  1.68 0.16 0  1.72 0.16 0  1.76 0.16 0  1.8 0.16 0  1.84 0.16 0  1.88 0.16 0  1.92 0.16 0  1.96 0.16 0  2 0.16 0  0 0.18 0  0.04 0.18 0  0.08 0.18 0  0.12 0.18 0  0.16 0.18 0  0.2 0.18 0  0.24 0.18 0  0.28 0.18 0  0.32 0.18 0  0.36 0.18 0  0.4 0.18 0  0.44 0.18 0  0.48 0.18 0  0.52 0.18 0  0.5600000000000001 0.18 0  0.6 0.18 0  0.64 0.18 0  0.68 0.18 0  0.72 0.18 0  0.76 0.18 0  0.8 0.18 0  0.84 0.18 0  0.88 0.18 0  0.92 0.18 0  0.96 0.18 0  1 0.18 0  1.04 0.18 0  1.08 0.18 0  1.12 0.18 0  1.16 0.18 0  1.2 0.18 0  1.24 0.18 0  1.28 0.18 0  1.32 0.18 0  1.36 0.18 0  1.4 0.18 0  1.44 0.18 0  1.48 0.18 0  1.52 0.18 0  1.56 0.18 0  1.6 0.18 0  1.64 0.18 0  1.68 0.18 0  1.72 0.18 0  1.76 0.18 0  1.8 0.18 0  1.84 0.18 0  1.88 0.18 0  1.92 0.18 0  1.96 0.18 0  2 0.18 0  0 0.2 0  0.04 0.2 0  0.08 0.2 0  0.12 0.2 0  0.16 0.2 0  0.2 0.2 0  0.24 0.2 0  0.28 0.2 0  0.32 0.2 0  0.36 0.2 0  0.4 0.2 0  0.44 0.2 0  0.48 0.2 0  0.52 0.2 0  0.5600000000000001 0.2 0  0.6 0.2 0  0.64 0.2 0  0.68 0.2 0  0.72 0.2 0  0.76 0.2 0  0.8 0.2 0  0.84 0.2 0  0.88 0.2 0  0.92 0.2 0  0.96 0.2 0  1 0.2 0  1.04 0.2 0  1.08 0.2 0  1.12 0.2 0  1.16 0.2 0  1.2 0.2 0  1.24 0.2 0  1.28 0.2 0  1.32 0.2 0  1.36 0.2 0  1.4 0.2 0  1.44 0.2 0  1.48 0.2 0  1.52 0.2 0  1.56 0.2 0  1.6 0.2 0  1.64 0.2 0  1.68 0.2 0  1.72 0.2 0  1.76 0.2 0  1.8 0.2 0  1.84 0.2 0  1.88 0.2 0  1.92 0.2 0  1.96 0.2 0  2 0.2 0  0 0.22 0  0.04 0.22 0  0.08 0.22 0  0.12 0.22 0  0.16 0.22 0  0.2 0.22 0  0.24 0.22 0  0.28 0.22 0  0.32 0.22 0  0.36 0.22 0  0.4 0.22 0  0.44 0.22 0  0.48 0.22 0  0.52 0.22 0  0.5600000000000001 0.22 0  0.6 0.22 0  0.64 0.22 0  0.68 0.22 0  0.72 0.22 0  0.76 0.22 0  0.8 0.22 0  0.84 0.22 0  0.88 0.22 0  0.92 0.22 0  0.96 0.22 0  1 0.22 0  1.04 0.22 0  1.08 0.22 0  1.12 0.22 0  1.16 0.22 0  1.2 0.22 0  1.24 0.22 0  1.28 0.22 0  1.32 0.22 0  1.36 0.22 0  1.4 0.22 0  1.44 0.22 0  1.48 0.22 0  1.52 0.22 0  1.56 0.22 0  1.6 0.22 0  1.64 0.22 0  1.68 0.22 0  1.72 0.22 0  1.76 0.22 0  1.8 0.22 0  1.84 0.22 0  1.88 0.22 0  1.92 0.22 0  1.96 0.22 0  2 0.22 0  0 0.24 0  0.04 0.24 0  0.08 0.24 0  0.12 0.24 0  0.16 0.24 0  0.2 0.24 0  0.24 0.24 0  0.28 0.24 0  0.32 0.24 0  0.36 0.24 0  0.4 0.24 0  0.44 0.24 0  0.48 0.24 0  0.52 0.24 0  0.5600000000000001 0.24 0  0.6 0.24 0  0.64 0.24 0  0.68 0.24 0  0.72 0.24 0  0.76 0.24 0  0.8 0.24 0  0.84 0.24 0  0.88 0.24 0  0.92 0.24 0  0.96 0.24 0  1 0.24 0  1.04 0.24 0  1.08 0.24 0  1.12 0.24 0  1.16 0.24 0  1.2 0.24 0  1.24 0.24 0  1.28 0.24 0  1.32 0.24 0  1.36 0.24 0  1.4 0.24 0  1.44 0.24 0  1.48 0.24 0  1.52 0.24 0  1.56 0.24 0  1.6 0.24 0  1.64 0.24 0  1.68 0.24 0  1.72 0.24 0  1.76 0.24 0  1.8 0.24 0  1.84 0.24 0  1.88 0.24 0  1.92 0.24 0  1.96 0.24 0  2 0.24 0  0 0.26 0  0.04 0.26 0  0.08 0.26 0  0.12 0.26 0  0.16 0.26 0  0.2 0.26 0  0.24 0.26 0  0.28 0.26 0  0.32 0.26 0  0.36 0.26 0  0.4 0.26 0  0.44 0.26 0  0.48 0.26 0  0.52 0.26 0  0.5600000000000001 0.26 0  0.6 0.26 0  0.64 0.26 0  0.68 0.26 0  0.72 0.26 0  0.76 0.26 0  0.8 0.26 0  0.84 0.26 0  0.88 0.26 0  0.92 0.26 0  0.96 0.26 0  1 0.26 0  1.04 0.26 0  1.08 0.26 0  1.12 0.26 0  1.16 0.26 0  1.2 0.26 0  1.24 0.26 0  1.28 0.26 0  1.32 0.26 0  1.36 0.26 0  1.4 0.26 0  1.44 0.26 0  1.48 0.26 0  1.52 0.26 0  1.56 0.26 0  1.6 0.26 0  1.64 0.26 0  1.68 0.26 0  1.72 0.26 0  1.76 0.26 0  1.8 0.26 0  1.84 0.26 0  1.88 0.26 0  1.92 0.26 0  1.96 0.26 0  2 0.26 0  0 0.28 0  0.04 0.28 0  0.08 0.28 0  0.12 0.28 0  0.16 0.28 0  0.2 0.28 0  0.24 0.28 0  0.28 0.28 0  0.32 0.28 0  0.36 0.28 0  0.4 0.28 0  0.44 0.28 0  0.48 0.28 0  0.52 0.28 0  0.5600000000000001 0.28 0  0.6 0.28 0  0.64 0.28 0  0.68 0.28 0  0.72 0.28 0  0.76 0.28 0  0.8 0.28 0  0.84 0.28 0  0.88 0.28 0  0.92 0.28 0  0.96 0.28 0  1 0.28 0  1.04 0.28 0  1.08 0.28 0  1.12 0.28 0  1.16 0.28 0  1.2 0.28 0  1.24 0.28 0  1.28 0.28 0  1.32 0.28 0  1.36 0.28 0  1.4 0.28 0  1.44 0.28 0  1.48 0.28 0  1.52 0.28 0  1.56 0.28 0  1.6 0.28 0  1.64 0.28 0  1.68 0.28 0  1.72 0.28 0  1.76 0.28 0  1.8 0.28 0  1.84 0.28 0  1.88 0.28 0  1.92 0.28 0  1.96 0.28 0  2 0.28 0  0 0.3 0  0.04 0.3 0  0.08 0.3 0  0.12 0.3 0  0.16 0.3 0  0.2 0.3 0  0.24 0.3 0  0.28 0.3 0  0.32 0.3 0  0.36 0.3 0  0.4 0.3 0  0.44 0.3
[...]
<PointData  Vectors="f_26-0"> 
<DataArray  type="Float64"  Name="f_26-0"  NumberOfComponents="3" format="ascii">0.0000000000000000e+00 0.0000000000000000e+00 0.0000000000000000e+00  0.0000000000000000e+00 0.0000000000000000e+00 0.0000000000000000e+00  0.0000000000000000e+00 0.0000000000000000e+00 0.0000000000000000e+00  0.0000000000000000e+00 0.0000000000000000e+00 0.0000000000000000e+00  0.0000000000000000e+00 0.0000000000000000e+00 0.0000000000000000e+00  0.0000000000000000e+00 0.0000000000000000e+00 0.0000000000000000e+00  0.0000000000000000e+00 0.0000000000000000e+00 0.0000000000000000e+00  0.0000000000000000e+00 0.0000000000000000e+00 0.0000000000000000e+00  0.0000000000000000e+00 0.0000000000000000e+00 0.0000000000000000e+00  0.0000000000000000e+00 0.0000000000000000e+00 0.0000000000000000e+00  0.0000000000000000e+00 0.0000000000000000e+00 0.0000000000000000e+00  0.0000000000000000e+00 0.0000000000000000e+00 0.0000000000000000e+00  0.0000000000000000e+00 0.0000000000000000e+00 0.0000000000000000e+00  0.0000000000000000e+00 0.0000000000000000e+00 0.0000000000000000e+00  0.0000000000000000e+00 0.0000000000000000e+00 0.0000000000000000e+00  0.0000000000000000e+00 0.0000000000000000e+00 0.0000000000000000e+00  0.0000000000000000e+00 0.0000000000000000e+00 0.0000000000000000e+00  0.0000000000000000e+00 0.0000000000000000e+00 0.0000000000000000e+00  0.0000000000000000e+00 0.0000000000000000e+00 0.0000000000000000e+00  0.0000000000000000e+00 0.0000000000000000e+00 0.0000000000000000e+00  0.0000000000000000e+00 0.0000000000000000e+00 0.0000000000000000e+00  0.0000000000000000e+00 0.0000000000000000e+00 0.0000000000000000e+00  0.0000000000000000e+00 0.0000000000000000e+00 0.0000000000000000e+00  0.0000000000000000e+00 0.0000000000000000e+00 0.0000000000000000e+00  0.0000000000000000e+00 0.0000000000000000e+00 0.0000000000000000e+00  0.0000000000000000e+00 0.0000000000000000e+00 0.0000000000000000e+00  0.0000000000000000e+00 0.0000000000000000e+00 0.0000000000000000e+00  0.0000000000000000e+00 0.0000000000000000e+00 0.0000000000000000e+00  0.0000000000000000e+00 0.0000000000000000e+00 0.0000000000000000e+00  0.0000000000000000e+00 0.0000000000000000e+00 0.0000000000000000e+00  0.0000000000000000e+00 0.0000000000000000e+00 0.0000000000000000e+00  0.0000000000000000e+00 0.0000000000000000e+00 0.0000000000000000e+00  0.0000000000000000e+00 0.0000000000000000e+00 0.0000000000000000e+00  0.0000000000000000e+00 0.0000000000000000e+00 0.0000000000000000e+00  0.0000000000000000e+00 0.0000000000000000e+00 0.0000000000000000e+00  0.0000000000000000e+00 0.0000000000000000e+00 0.0000000000000000e+00  0.0000000000000000e+00 0.0000000000000000e+00 0.0000000000000000e+00  0.0000000000000000e+00 0.0000000000000000e+00 0.0000000000000000e+00  0.0000000000000000e+00 0.0000000000000000e+00 0.0000000000000000e+00  0.0000000000000000e+00 0.0000000000000000e+00 0.0000000000000000e+00  0.0000000000000000e+00 0.0000000000000000e+00 0.0000000000000000e+00  0.0000000000000000e+00 0.0000000000000000e+00 0.0000000000000000e+00  0.0000000000000000e+00 0.0000000000000000e+00 0.0000000000000000e+00  0.0000000000000000e+00 0.0000000000000000e+00 0.0000000000000000e+00  0.0000000000000000e+00 0.0000000000000000e+00 0.0000000000000000e+00  0.0000000000000000e+00 0.0000000000000000e+00 0.0000000000000000e+00  0.0000000000000000e+00 0.0000000000000000e+00 0.0000000000000000e+00  0.0000000000000000e+00 0.0000000000000000e+00 0.0000000000000000e+00  0.0000000000000000e+00 0.0000000000000000e+00 0.0000000000000000e+00  0.0000000000000000e+00 0.0000000000000000e+00 0.0000000000000000e+00  0.0000000000000000e+00 0.0000000000000000e+00 0.0000000000000000e+00  1.0000000000000000e-02 0.0000000000000000e+00 0.0000000000000000e+00  -1.5142013132829820e-03 6.5206189254896681e-03 0.0000000000000000e+00  -3.6587123988027340e-02 1.1458591318727321e-02 0.0000000000000000e+00  -8.6762785019874181e-02 1.4609809959578149e-02 0.0000000000000000e+00  -1.4662350424672069e-01 1.6630828039779309e-02 0.0000000000000000e+00  -2.1321801962579187e-01 1.8217985047910619e-02 0.0000000000000000e+00  -2.8579143467478579e-01 1.9779133818762354e-02 0.0000000000000000e+00  -3.6471020054489212e-01 2.1545787165539929e-02 0.0000000000000000e+00  -4.5101294395177666e-01 2.3648017406806221e-02 0.0000000000000000e+00  -5.4613166710849670e-01 2.6167671998004099e-02 0.0000000000000000e+00  -6.5176376106577916e-01 2.9164420290881669e-02 0.0000000000000000e+00  -7.6981408878372837e-01 3.2689166757412638e-02 0.0000000000000000e+00  -9.0237231702834997e-01 3.6790010422316707e-02 0.0000000000000000e+00  -1.0517034396073102e+00 4.1513690042144120e-02 0.0000000000000000e+00  -1.2202368379157136e+00 4.6903773168982740e-02 0.0000000000000000e+00  -1.4105416709688183e+00 5.2995754827638783e-02 0.0000000000000000e+00  -1.6252754214404830e+00 5.9808492264611733e-02 0.0000000000000000e+00  -1.8670888882648675e+00 6.7330771913796827e-02 0.0000000000000000e+00  -2.1384650717290712e+00 7.5501230232569341e-02 0.0000000000000000e+00  -2.4414614953554628e+00 8.4179355687734173e-02 0.0000000000000000e+00  -2.7773161526351422e+00 9.3105033719647401e-02 0.0000000000000000e+00  -3.1458679773014455e+00 1.0184437460036147e-01 0.0000000000000000e+00  -3.5447367167987704e+00 1.0972092177306718e-01 0.0000000000000000e+00  -3.9682101694823197e+00 1.1573456408267788e-01 0.0000000000000000e+00  -4.4058082807197181e+00 1.1847654887888827e-01 0.0000000000000000e+00  -4.8405467185905522e+00 1.1605881474274148e-01 0.0000000000000000e+00  -5.2470226592387448e+00 1.0608961822955125e-01 0.0000000000000000e+00  -5.5896051816306231e+00 8.5743456192189996e-02 0.0000000000000000e+00  -5.8212310875940814e+00 5.1986504797259685e-02 0.0000000000000000e+00  -5.8835530661418840e+00 2.0192822457040615e-03 0.0000000000000000e+00  -5.7093797632408654e+00 -6.6028636417172007e-02 0.0000000000000000e+00  -5.2283435255761539e+00 -1.5218645661190872e-01 0.0000000000000000e+00  -4.3763448407465866e+00 -2.5366449202261948e-01 0.0000000000000000e+00  -3.1083962070789450e+00 -3.6410705122771897e-01 0.0000000000000000e+00  -1.4130394415241070e+00 -4.7348148040054555e-01 0.0000000000000000e+00  6.7511381477909327e-01 -5.6898463210669381e-01 0.0000000000000000e+00  3.0692004230772230e+00 -6.3710487297127649e-01 0.0000000000000000e+00  5.6343376118150541e+00 -6.6650999067972683e-01 0.0000000000000000e+00  8.2037544367629600e+00 -6.5097133214798952e-01 0.0000000000000000e+00  1.0604939625044512e+01 -5.9132230902414507e-01 0.0000000000000000e+00  1.2690017316149570e+01 -4.9630219229109024e-01 0.0000000000000000e+00  1.4370155520902504e+01 -3.8289066465028176e-01 0.0000000000000000e+00  1.5649157403424818e+01 -2.8086907534162464e-01 0.0000000000000000e+00  1.6707424874474906e+01 -2.4186902962783427e-01 0.0000000000000000e+00  1.7964937991147504e+01 -3.6614166823378425e-01 0.0000000000000000e+00  2.0462814310418246e+01 -8.1629236871923561e-01 0.0000000000000000e+00  2.5583250467824019e+01 -1.8997112188432514e+00 0.0000000000000000e+00  3.7071776532158090e+01 -3.7947470984171550e+00 0.0000000000000000e+00  5.6255993838353106e+01 -8.4576830619349384e+00 0.0000000000000000e+00  1.0374765946777244e+02 -1.2843711402048241e+01 0.0000000000000000e+00  1.6026551103252226e+02 -5.0095571803106751e+01 0.0000000000000000e+00  1.0000000000000000e-02 0.0000000000000000e+00 0.0000000000000000e+00  -1.1006399141984823e-02 2.3548222698161550e-02 0.0000000000000000e+00  -7.1493653250700423e-02 4.1803546920184183e-02 0.0000000000000000e+00  -1.5856138794788946e-01 5.3297856415863779e-02 0.0000000000000000e+00  -2.6278003879307682e-01 6.0850186201800355e-02 0.0000000000000000e+00  -3.7938154259581758e-01 6.6823935212992014e-02 0.0000000000000000e+00  -5.0690336331758334e-01 7.2669181786950171e-02 0.0000000000000000e+00  -6.4584723631860186e-01 7.9222210554235992e-02 0.0000000000000000e+00  -7.9790704221970465e-01 8.6968668610277855e-02 0.0000000000000000e+00  -9.6549757044965356e-01 9.6215931135393076e-02 0.0000000000000000e+00  -1.1515193080616097e+00 1.0718588540264584e-01 0.0000000000000000e+00  -1.3592421558749046e+00 1.2006352849492424e-01 0.0000000000000000e+00  -1.5922518112797441e+00 1.3501869351081439e-01 0.0000000000000000e+00  -1.8544191239149712e+00 1.5221094879065930e-01 0.0000000000000000e+00  -2.1498653071069702e+00 1.7178188044564577e-01 0.0000000000000000e+00  -2.4828994410475995e+00 1.9383523701371536e-01 0.0000000000000000e+00  -2.8579027314912295e+00 2.1840267866971294e-01 0.0000000000000000e+00  -3.2791274276069515e+00 2.4539054823762130e-01 0.0000000000000000e+00  -3.7503677155866857e+00 2.7450098722656807e-01 0.0000000000000000e+00  -4.2744459209940944e+00 3.0511900731272956e-01 0.0000000000000000e+00  -4.8524414022679156e+00 3.3615641438019239e-01 0.0000000000000000e+00  -5.4825748781348986e+00 3.6584502226386806e-01 0.0000000000000000e+00  -6.1586541177137324e+00 3.9147747623515677e-01 0.0000000000000000e+00  -6.8679993244735975e+00 4.0910724123996856e-01 0.0000000000000000e+00  -7.5888158082361645e+00 4.1324352418064075e-01 0.0000000000000000e+00  -8.2870914661505903e+00 3.9661519804503609e-01 0.0000000000000000e+00  -8.9132933564444876e+00 3.5013019085148300e-01 0.0000000000000000e+00  -9.3994390872093234e+00 2.6321575856410123e-01 0.0000000000000000e+00  -9.6575135255311881e+00 1.2476953214369971e-01 0.0000000000000000e+00  -9.5806176516816777e+00 -7.5058371296617021e-02 0.0000000000000000e+00  -9.0485083107907052e+00 -3.4215189818094982e-01 0.0000000000000000e+00  -7.9390423791853415e+00 -6.7496957008015901e-01 0.0000000000000000e+00  -6.1461467762075630e+00 -1.0609866132284171e+00 0.0000000000000000e+00  -3.6030659848425248e+00 -1.4742291325138630e+00 0.0000000000000000e+00  -3.0693185915949783e-01 -1.8754587964178782e+00 0.0000000000000000e+00  3.6620687976801096e+00 -2.2163792898442933e+00 0.0000000000000000e+00  8.1350109186375814e+00 -2.4481799844913423e+00 0.0000000000000000e+00  1.2868573019884895e+01 -2.5329197968444483e+00 0.0000000000000000e+00  1.7580730192314441e+01 -2.4544912286384579e+00 0.0000000000000000e+00  2.2002956828169051e+01 -2.2257162135355162e+00 0.0000000000000000e+00  2.5938369588978713e+01 -1.8905140625982619e+00 0.0000000000000000e+00  2.9324398821733830e+01 -1.5260893607015589e+00 0.0000000000000000e+00  3.2292593835566151e+01 -1.2537904367906896e+00 0.0000000000000000e+00  3.5293874256730589e+01 -1.2763329664597565e+00 0.0000000000000000e+00  3.9161886513931648e+01 -1.9230593590780929e+00 0.0000000000000000e+00  4.5586935648466643e+01 -3.7463752029608064e+00 0.0000000000000000e+00  5.6385360783244707e+01 -7.4063580816993868e+00 0.0000000000000000e+00  7.6315675053334260e+01 -1.4126532684049545e+01 0.0000000000000000e+00  1.0475874083518083e+02 -2.5211230218070295e+01 0.0000000000000000e+00  1.6513710585632671e+02 -4.7149580715680685e+01 0.0000000000000000e+00  2.0969454873018068e+02 -9.5079854530565825e+01 0.0000000000000000e+00  1.0000000000000000e-02 0.0000000000000000e+00 0.0000000000000000e+00  -2.1023602882303892e-02 4.9163448960964584e-02 0.0000000000000000e+00  -1.0176898111358185e-01 8.6107346595451481e-02 0.0000000000000000e+00  -2.1626409392752335e-01 1.0971477175548287e-01 0.0000000000000000e+00  -3.5321472481162358e-01 1.2556769758331768e-01 0.0000000000000000e+00  -5.0688905743390755e-01 1.3820834751270034e-01 0.0000000000000000e+00  -6.7536128454643707e-01 1.5052248422832326e-01 0.0000000000000000e+00  -8.5919975319121322e-01 1.6421611740874628e-01 0.0000000000000000e+00  -1.0605146131279088e+00 1.8030694602178221e-01 0.0000000000000000e+00  -1.2823833180106943e+00 1.9944398948099382e-01 0.0000000000000000e+00  -1.5285377299062433e+00 2.2209264752631025e-01 0.0000000000000000e+00  -1.8031990631945574e+00 2.4863323355207442e-01 0.0000000000000000e+00  -2.1109924017270618e+00 2.7940552252520806e-01 0.0000000000000000e+00  -2.4568896732716796e+00 3.1471806764010501e-01 0.0000000000000000e+00  -2.8461444132808933e+00 3.5483024279343739e-01 0.0000000000000000e+00  -3.2841850071726801e+00 3.9990769343197374e-01 0.0000000000000000e+00  -3.7764299489430582e+00 4.4994624221803403e-01 0.0000000000000000e+00  -4.3279794607237925e+00 5.0465449697162190e-01 0.0000000000000000e+00  -4.9431234169748750e+00 5.6328114239698412e-01 0.0000000000000000e+00  -5.6245869127255297e+00 6.2436959999037112e-01 0.0000000000000000e+00  -6.3724143172361991e+00 6.8542183126899647e-01 0.0000000000000000e+00  -7.1823752916424795e+00 7.4245731674996773e-01 0.0000000000000000e+00  -8.0437716670672650e+00 7.8946720093826028e-01 0.0000000000000000e+00  -8.9365486951356985e+00 8.1779364347215999e-01 0.0000000000000000e+00  -9.8276927967643690e+00 8.1551801772537358e-01 0.0000000000000000e+00  -1.0667063001094576e+01 7.6702461284201662e-01 0.0000000000000000e+00  -1.1383088613830719e+01 6.5301741283053139e-01 0.0000000000000000e+00  -1.1879190200759375e+01 4.5138773166734697e-01 0.0000000000000000e+00  -1.2032318311117017e+01 1.3941169816619617e-01 0.0000000000000000e+00  -1.1695538868763496e+01 -3.0228872800114531e-01 0.0000000000000000e+00  -1.0706877094430361e+01 -8.8387952363744304e-01 0.0000000000000000e+00  -8.9062729841174164e+00 -1.5990497943771436e+00 0.0000000000000000e+00  -6.1610563385576436e+00 -2.4178623647831583e+00 0.0000000000000000e+00  -2.3975596400123145e+00 -3.2823592799068315e+00 0.0000000000000000e+00  2.3673284241085342e+00 -4.1082250277955863e+00 0.0000000000000000e+00  8.0044703863483964e+00 -4.7951960271858782e+00 0.0000000000000000e+00  1.4271701097501911e+01 -5.2464221098741000e+00 0.0000000000000000e+00  2.0841950522770784e+01 -5.3930386200185136e+00 0.0000000000000000e+00  2.7360242963446183e+01 -5.2167182764269073e+00 0.0000000000000000e+00  3.3520773343818092e+01 -4.7630735144033816e+00 0.0000000000000000e+00  3.9147949160458133e+01 -4.1443601862156960e+00 0.0000000000000000e+00  4.4276946225483236e+01 -3.5411026878629857e+00 0.0000000000000000e+00  4.9218590878439954e+01 -3.2186167783376400e+00 0.0000000000000000e+00  5.4678759757168351e+01 -3.5803319515761749e+00 0.0000000000000000e+00  6.1731743491015621e+01 -5.2229463725181455e+00 0.0000000000000000e+00  7.2203060506926562e+01 -9.0043642016110859e+00 0.0000000000000000e+00  8.7254320964909056e+01 -1.5816798933908334e+01 0.0000000000000000e+00  1.1063445379534410e+02 -2.6943014280210804e+01 0.0000000000000000e+00  1.3597772831298457e+02 -4.3773433285249880e+01 0.0000000000000000e+00  1.8564164031948965e+02 -7.4744986765359570e+01 0.0000000000000000e+00  1.8319943206593382e+02 -1.2232819437008949e+02 0.0000000000000000e+00  1.0000000000000000e-02 0.0000000000000000e+00 0.0000000000000000e+00  -2.9151719607681752e-02 8.2164211810492715e-02 0.0000000000000000e+00  -1.2610515545751227e-01 1.4102605109538874e-01 0.0000000000000000e+00  -2.6101033819733827e-01 1.7919868888408313e-01 0.0000000000000000e+00  -4.2185685608977908e-01 2.0532912381638307e-01 0.0000000000000000e+00  -6.0248690726095022e-01 2.2636881037264869e-01 0.0000000000000000e+00  -8.0078899677494875e-01 2.4682665796158965e-01 0.0000000000000000e+00  -1.0174021088666123e+00 2.6944325097260768e-01 0.0000000000000000e+00  -1.2547107140597629e+00 2.9588841960369394e-01 0.0000000000000000e+00  -1.5162311695061004e+00 3.2723753004477263e-01 0.0000000000000000e+00  -1.8062512938325015e+00 3.6425915681945215e-01 0.0000000000000000e+00  -2.1296307784558199e+00 4.0757113123509320e-01 0.0000000000000000e+00  -2.4916875554028732e+00 4.5771179147334401e-01 0.0000000000000000e+00  -2.8981140909623289e+00 5.1515339288494877e-01 0.0000000000000000e+00  -3.3548801795961873e+00 5.8026943288872757e-01 0.0000000000000000e+00  -3.8680812595002076e+00 6.5325633870301969e-01 0.0000000000000000e+00  -4.4436867129970237e+00 7.3400091606727957e-01 0.0000000000000000e+00  -5.0871311397520014e+00 8.2187715726223964e-01 0.0000000000000000e+00  -5.8026741726607041e+00 9.1544914437227098e-01 0.0000000000000000e+00  -6.5924323495389867e+00 1.0120517600839947e+00 0.0000000000000000e+00  -7.4549629749388178e+00 1.1072202657081456e+00 0.0000000000000000e+00  -8.3832613995753000e+00 1.1939483473651045e+00 0.0000000000000000e+00  -9.3620320893209676e+00 1.2617797026685740e+00 0.0000000000000000e+00  -1.0364130958831968e+01 1.2957913605339335e+00 0.0000000000000000e+00  -1.1346182472624076e+01 1.2756198665607414e+00 0.0000000000000000e+00  -1.2243589381128547e+01 1.1748230388967922e+00 0.0000000000000000e+00  -1.2965515102840023e+01 9.6105551464218564e-01 0.0000000000000000e+00  -1.3390946790128210e+01 5.9773083153385631e-01 0.0000000000000000e+00  -1.3367598835238784e+01 4.7960156130057711e-02 0.0000000000000000e+00  -1.2716034635850807e+01 -7.1855407935490534e-01 0.0000000000000000e+00  -1.1241644204418908e+01 -1.7155352283933876e+00 0.0000000000000000e+00  -8.7565223497827258e+00 -2.9280754906066231e+00 0.0000000000000000e+00  -5.1113071544875828e+00 -4.3012501412570820e+00 0.0000000000000000e+00  -2.3339739855003605e-01 -5.7340006513973583e+00 0.0000000000000000e+00  5.8368164896717776e+00 -7.0838261658234671e+00 0.0000000000000000e+00  1.2924305354958708e+01 -8.1864689136598585e+00 0.0000000000000000e+00  2.0725839859276078e+01 -8.8902374751263409e+00 0.0000000000000000e+00  2.8853219471871167e+01 -9.0977987043539432e+00 0.0000000000000000e+00  3.6911034579015826e+01 -8.8026927593651738e+00 0.0000000000000000e+00  4.4595219219824592e+01 -8.1086227642633411e+00 0.0000000000000000e+00  5.1789170955752894e+01 -7.2293801505428874e+00 0.0000000000000000e+00  5.8647674973137114e+01 -6.4838470876509584e+00 0.0000000000000000e+00  6.5639525189927852e+01 -6.3079659812602351e+00 0.0000000000000000e+00  7.3617405420308117e+01 -7.3015567916403228e+00 0.0000000000000000e+00  8.3626436455802136e+01 -1.0247667095114066e+01 0.0000000000000000e+00  9.7118093311688156e+01 -1.6065093408327566e+01 0.0000000000000000e+00  1.1376971540509940e+02 -2.5363548771122854e+01 0.0000000000000000e+00  1.3528808758642072e+02 -3.8611228767343647e+01 0.0000000000000000e+00  1.4836122222551401e+02 -5.6199975686269106e+01 0.0000000000000000e+00  1.7636770696724608e+02 -8.5833625222986285e+01 0.0000000000000000e+00  1.1219471778395564e+02 -1.2571033051270065e+02 0.0000000000000000e+00  1.0000000000000000e-02 0.0000000000000000e+00 0.0000000000000000e+00  -3.5121036890413397e-02 1.2104879908357294e-01 0.0000000000000000e+00  -1.4436557512869180e-01 2.0398358213859361e-01 0.0000000000000000e+00  -2.9418108932200082e-01 2.5818969276810949e-01 0.0000000000000000e+00  -4.7203865850375010e-01 2.9589740850452007e-01 0.0000000000000000e+00  -6.7165130984981558e-01 3.2655621022695797e-01 0.0000000000000000e+00  -8.9092329904279965e-01 3.5637562444547316e-01 0.0000000000000000e+00  -1.1305869651616838e+00 3.8921278875422144e-01 0.0000000000000000e+00  -1.3932184057727370e+00 4.2745928391796700e-01 0.0000000000000000e+00  -1.6826171221971027e+00 4.7267179793792302e-01 0.0000000000000000e+00  -2.0034253357085703e+00 5.2596179181227798e-01 0.0000000000000000e+00  -2.3609077220771506e+00 5.8821120682049810e-01 0.0000000000000000e+00  -2.7608159112660533e+00 6.6017134142601874e-01 0.0000000000000000e+00  -3.2092811494649371e+00 7.4247892335764110e-01 0.0000000000000000e+00  -3.7126874114111450e+00 8.3560433502430609e-01 0.0000000000000000e+00  -4.2774785486605023e+00 9.3973153206540638e-01 0.0000000000000000e+00  -4.9098469088597518e+00 1.0545565249300040e+00 0.0000000000000000e+00  -5.6152374755724175e+00 1.1789801712112320e+00 0.0000000000000000e+00  -6.3975818254383121e+00 1.3106613183940437e+00 0.0000000000000000e+00  -7.2581516059849385e+00 1.4453895707388462e+00 0.0000000000000000e+00  -8.1938955572080250e+00 1.5762370504871299e+00 0.0000000000000000e+00  -9.1951051777936392e+00 1.6924627815492630e+00 0.0000000000000000e+00  -1.0242256535346405e+01 1.7781832998822795e+00 0.0000000000000000e+00  -1.1301923565733295e+01 1.8109045924254845e+00 0.0000000000000000e+00  -1.2321787017908854e+01 1.7601510467032773e+00 0.0000000000000000e+00  -1.3225017931173065e+01 1.5866385872009359e