<?xml version="1.0"?>
<VTKFile type="UnstructuredGrid"  version="0.1"  >
<UnstructuredGrid>
<Piece  NumberOfPoints="2601" NumberOfCells="5000">
<Points>
<DataArray  type="Float64"  NumberOfComponents="3"  format="ascii">0 0 0  0.04 0 0  0.08 0 0  0.12 0 0  0.16 0 0  0.2 0 0  0.24 0 0  0.28 0 0  0.32 0 0  0.36 0 0  0.4 0 0  0.44 0 0  0.48 0 0  0.52 0 0  0.5600000000000001 0 0  0.6 0 0  0.64 0 0  0.68 0 0  0.72 0 0  0.76 0 0  0.8 0 0  0.84 0 0  0.88 0 0  0.92 0 0  0.96 0 0  1 0 0  1.04 0 0  1.08 0 0  1.12 0 0  1.16 0 0  1.2 0 0  1.24 0 0  1.28 0 0  1.32 0 0  1.36 0 0  1.4 0 0  1.44 0 0  1.48 0 0  1.52 0 0  1.56 0 0  1.6 0 0  1.64 0 0  1.68 0 0  1.72 0 0  1.76 0 0  1.8 0 0  1.84 0 0  1.88 0 0  1.92 0 0  1.96 0 0  2 0 0  0 0.02 0  0.04 0.02 0  0.08 0.02 0  0.12 0.02 0  0.16 0.02 0  0.2 0.02 0  0.24 0.02 0  0.28 0.02 0  0.32 0.02 0  0.36 0.02 0  0.4 0.02 0  0.44 0.02 0  0.48 0.02 0  0.52 0.02 0  0.5600000000000001 0.02 0  0.6 0.02 0  0.64 0.02 0  0.68 0.02 0  0.72 0.02 0  0.76 0.02 0  0.8 0.02 0  0.84 0.02 0  0.88 0.02 0  0.92 0.02 0  0.96 0.02 0  1 0.02 0  1.04 0.02 0  1.08 0.02 0  1.12 0.02 0  1.16 0.02 0  1.2 0.02 0  1.24 0.02 0  1.28 0.02 0  1.32 0.02 0  1.36 0.02 0  1.4 0.02 0  1.44 0.02 0  1.48 0.02 0  1.52 0.02 0  1.56 0.02 0  1.6 0.02 0  1.64 0.02 0  1.68 0.02 0  1.72 0.02 0  1.76 0.02 0  1.8 0.02 0  1.84 0.02 0  1.88 0.02 0  1.92 0.02 0  1.96 0.02 0  2 0.02 0  0 0.04 0  0.04 0.04 0  0.08 0.04 0  0.12 0.04 0  0.16 0.04 0  0.2 0.04 0  0.24 0.04 0  0.28 0.04 0  0.32 0.04 0  0.36 0.04 0  0.4 0.04 0  0.44 0.04 0  0.48 0.04 0  0.52 0.04 0  0.5600000000000001 0.04 0  0.6 0.04 0  0.64 0.04 0  0.68 0.04 0  0.72 0.04 0  0.76 0.04 0  0.8 0.04 0  0.84 0.04 0  0.88 0.04 0  0.92 0.04 0  0.96 0.04 0  1 0.04 0  1.04 0.04 0  1.08 0.04 0  1.12 0.04 0  1.16 0.04 0  1.2 0.04 0  1.24 0.04 0  1.28 0.04 0  1.32 0.04 0  1.36 0.04 0  1.4 0.04 0  1.44 0.04 0  1.48 0.04 0  1.52 0.04 0  1.56 0.04 0  1.6 0.04 0  1.64 0.04 0  1.68 0.04 0  1.72 0.04 0  1.76 0.04 0  1.8 0.04 0  1.84 0.04 0  1.88 0.04 0  1.92 0.04 0  1.96 0.04 0  2 0.04 0  0 0.06 0  0.04 0.06 0  0.08 0.06 0  0.12 0.06 0  0.16 0.06 0  0.2 0.06 0  0.24 0.06 0  0.28 0.06 0  0.32 0.06 0  0.36 0.06 0  0.4 0.06 0  0.44 0.06 0  0.48 0.06 0  0.52 0.06 0  0.5600000000000001 0.06 0  0.6 0.06 0  0.64 0.06 0  0.68 0.06 0  0.72 0.06 0  0.76 0.06 0  0.8 0.06 0  0.84 0.06 0  0.88 0.06 0  0.92 0.06 0  0.96 0.06 0  1 0.06 0  1.04 0.06 0  1.08 0.06 0  1.12 0.06 0  1.16 0.06 0  1.2 0.06 0  1.24 0.06 0  1.28 0.06 0  1.32 0.06 0  1.36 0.06 0  1.4 0.06 0  1.44 0.06 0  1.48 0.06 0  1.52 0.06 0  1.56 0.06 0  1.6 0.06 0  1.64 0.06 0  1.68 0.06 0  1.72 0.06 0  1.76 0.06 0  1.8 0.06 0  1.84 0.06 0  1.88 0.06 0  1.92 0.06 0  1.96 0.06 0  2 0.06 0  0 0.08 0  0.04 0.08 0  0.08 0.08 0  0.12 0.08 0  0.16 0.08 0  0.2 0.08 0  0.24 0.08 0  0.28 0.08 0  0.32 0.08 0  0.36 0.08 0  0.4 0.08 0  0.44 0.08 0  0.48 0.08 0  0.52 0.08 0  0.5600000000000001 0.08 0  0.6 0.08 0  0.64 0.08 0  0.68 0.08 0  0.72 0.08 0  0.76 0.08 0  0.8 0.08 0  0.84 0.08 0  0.88 0.08 0  0.92 0.08 0  0.96 0.08 0  1 0.08 0  1.04 0.08 0  1.08 0.08 0  1.12 0.08 0  1.16 0.08 0  1.2 0.08 0  1.24 0.08 0  1.28 0.08 0  1.32 0.08 0  1.36 0.08 0  1.4 0.08 0  1.44 0.08 0  1.48 0.08 0  1.52 0.08 0  1.56 0.08 0  1.6 0.08 0  1.64 0.08 0  1.68 0.08 0  1.72 0.08 0  1.76 0.08 0  1.8 0.08 0  1.84 0.08 0  1.88 0.08 0  1.92 0.08 0  1.96 0.08 0  2 0.08 0  0 0.1 0  0.04 0.1 0  0.08 0.1 0  0.12 0.1 0  0.16 0.1 0  0.2 0.1 0  0.24 0.1 0  0.28 0.1 0  0.32 0.1 0  0.36 0.1 0  0.4 0.1 0  0.44 0.1 0  0.48 0.1 0  0.52 0.1 0  0.5600000000000001 0.1 0  0.6 0.1 0  0.64 0.1 0  0.68 0.1 0  0.72 0.1 0  0.76 0.1 0  0.8 0.1 0  0.84 0.1 0  0.88 0.1 0  0.92 0.1 0  0.96 0.1 0  1 0.1 0  1.04 0.1 0  1.08 0.1 0  1.12 0.1 0  1.16 0.1 0  1.2 0.1 0  1.24 0.1 0  1.28 0.1 0  1.32 0.1 0  1.36 0.1 0  1.4 0.1 0  1.44 0.1 0  1.48 0.1 0  1.52 0.1 0  1.56 0.1 0  1.6 0.1 0  1.64 0.1 0  1.68 0.1 0  1.72 0.1 0  1.76 0.1 0  1.8 0.1 0  1.84 0.1 0  1.88 0.1 0  1.92 0.1 0  1.96 0.1 0  2 0.1 0  0 0.12 0  0.04 0.12 0  0.08 0.12 0  0.12 0.12 0  0.16 0.12 0  0.2 0.12 0  0.24 0.12 0  0.28 0.12 0  0.32 0.12 0  0.36 0.12 0  0.4 0.12 0  0.44 0.12 0  0.48 0.12 0  0.52 0.12 0  0.5600000000000001 0.12 0  0.6 0.12 0  0.64 0.12 0  0.68 0.12 0  0.72 0.12 0  0.76 0.12 0  0.8 0.12 0  0.84 0.12 0  0.88 0.12 0  0.92 0.12 0  0.96 0.12 0  1 0.12 0  1.04 0.12 0  1.08 0.12 0  1.12 0.12 0  1.16 0.12 0  1.2 0.12 0  1.24 0.12 0  1.28 0.12 0  1.32 0.12 0  1.36 0.12 0  1.4 0.12 0  1.44 0.12 0  1.48 0.12 0  1.52 0.12 0  1.56 0.12 0  1.6 0.12 0  1.64 0.12 0  1.68 0.12 0  1.72 0.12 0  1.76 0.12 0  1.8 0.12 0  1.84 0.12 0  1.88 0.12 0  1.92 0.12 0  1.96 0.12 0  2 0.12 0  0 0.14 0  0.04 0.14 0  0.08 0.14 0  0.12 0.14 0  0.16 0.14 0  0.2 0.14 0  0.24 0.14 0  0.28 0.14 0  0.32 0.14 0  0.36 0.14 0  0.4 0.14 0  0.44 0.14 0  0.48 0.14 0  0.52 0.14 0  0.5600000000000001 0.14 0  0.6 0.14 0  0.64 0.14 0  0.68 0.14 0  0.72 0.14 0  0.76 0.14 0  0.8 0.14 0  0.84 0.14 0  0.88 0.14 0  0.92 0.14 0  0.96 0.14 0  1 0.14 0  1.04 0.14 0  1.08 0.14 0  1.12 0.14 0  1.16 0.14 0  1.2 0.14 0  1.24 0.14 0  1.28 0.14 0  1.32 0.14 0  1.36 0.14 0  1.4 0.14 0  1.44 0.14 0  1.48 0.14 0  1.52 0.14 0  1.56 0.14 0  1.6 0.14 0  1.64 0.14 0  1.68 0.14 0  1.72 0.14 0  1.76 0.14 0  1.8 0.14 0  1.84 0.14 0  1.88 0.14 0  1.92 0.14 0  1.96 0.14 0  2 0.14 0  0 0.16 0  0.04 0.16 0  0.08 0.16 0  0.12 0.16 0  0.16 0.16 0  0.2 0.16 0  0.24 0.16 0  0.28 0.16 0  0.32 0.16 0  0.36 0.16 0  0.4 0.16 0  0.44 0.16 0  0.48 0.16 0  0.52 0.16 0  0.5600000000000001 0.16 0  0.6 0.16 0  0.64 0.16 0  0.68 0.16 0  0.72 0.16 0  0.76 0.16 0  0.8 0.16 0  0.84 0.16 0  0.88 0.16 0  0.92 0.16 0  0.96 0.16 0  1 0.16 0  1.04 0.16 0  1.08 0.16 0  1.12 0.16 0  1.16 0.16 0  1.2 0.16 0  1.24 0.16 0  1.28 0.16 0  1.32 0.16 0  1.36 0.16 0  1.4 0.16 0  1.44 0.16 0  1.48 0.16 0  1.52 0.16 0  1.56 0.16 0  1.6 0.16 0  1.64 0.16 0  1.68 0.16 0  1.72 0.16 0  1.76 0.16 0  1.8 0.16 0  1.84 0.16 0  1.88 0.16 0  1.92 0.16 0  1.96 0.16 0  2 0.16 0  0 0.18 0  0.04 0.18 0  0.08 0.18 0  0.12 0.18 0  0.16 0.18 0  0.2 0.18 0  0.24 0.18 0  0.28 0.18 0  0.32 0.18 0  0.36 0.18 0  0.4 0.18 0  0.44 0.18 0  0.48 0.18 0  0.52 0.18 0  0.5600000000000001 0.18 0  0.6 0.18 0  0.64 0.18 0  0.68 0.18 0  0.72 0.18 0  0.76 0.18 0  0.8 0.18 0  0.84 0.18 0  0.88 0.18 0  0.92 0.18 0  0.96 0.18 0  1 0.18 0  1.04 0.18 0  1.08 0.18 0  1.12 0.18 0  1.16 0.18 0  1.2 0.18 0  1.24 0.18 0  1.28 0.18 0  1.32 0.18 0  1.36 0.18 0  1.4 0.18 0  1.44 0.18 0  1.48 0.18 0  1.52 0.18 0  1.56 0.18 0  1.6 0.18 0  1.64 0.18 0  1.68 0.18 0  1.72 0.18 0  1.76 0.18 0  1.8 0.18 0  1.84 0.18 0  1.88 0.18 0  1.92 0.18 0  1.96 0.18 0  2 0.18 0  0 0.2 0  0.04 0.2 0  0.08 0.2 0  0.12 0.2 0  0.16 0.2 0  0.2 0.2 0  0.24 0.2 0  0.28 0.2 0  0.32 0.2 0  0.36 0.2 0  0.4 0.2 0  0.44 0.2 0  0.48 0.2 0  0.52 0.2 0  0.5600000000000001 0.2 0  0.6 0.2 0  0.64 0.2 0  0.68 0.2 0  0.72 0.2 0  0.76 0.2 0  0.8 0.2 0  0.84 0.2 0  0.88 0.2 0  0.92 0.2 0  0.96 0.2 0  1 0.2 0  1.04 0.2 0  1.08 0.2 0  1.12 0.2 0  1.16 0.2 0  1.2 0.2 0  1.24 0.2 0  1.28 0.2 0  1.32 0.2 0  1.36 0.2 0  1.4 0.2 0  1.44 0.2 0  1.48 0.2 0  1.52 0.2 0  1.56 0.2 0  1.6 0.2 0  1.64 0.2 0  1.68 0.2 0  1.72 0.2 0  1.76 0.2 0  1.8 0.2 0  1.84 0.2 0  1.88 0.2 0  1.92 0.2 0  1.96 0.2 0  2 0.2 0  0 0.22 0  0.04 0.22 0  0.08 0.22 0  0.12 0.22 0  0.16 0.22 0  0.2 0.22 0  0.24 0.22 0  0.28 0.22 0  0.32 0.22 0  0.36 0.22 0  0.4 0.22 0  0.44 0.22 0  0.48 0.22 0  0.52 0.22 0  0.5600000000000001 0.22 0  0.6 0.22 0  0.64 0.22 0  0.68 0.22 0  0.72 0.22 0  0.76 0.22 0  0.8 0.22 0  0.84 0.22 0  0.88 0.22 0  0.92 0.22 0  0.96 0.22 0  1 0.22 0  1.04 0.22 0  1.08 0.22 0  1.12 0.22 0  1.16 0.22 0  1.2 0.22 0  1.24 0.22 0  1.28 0.22 0  1.32 0.22 0  1.36 0.22 0  1.4 0.22 0  1.44 0.22 0  1.48 0.22 0  1.52 0.22 0  1.56 0.22 0  1.6 0.22 0  1.64 0.22 0  1.68 0.22 0  1.72 0.22 0  1.76 0.22 0  1.8 0.22 0  1.84 0.22 0  1.88 0.22 0  1.92 0.22 0  1.96 0.22 0  2 0.22 0  0 0.24 0  0.04 0.24 0  0.08 0.24 0  0.12 0.24 0  0.16 0.24 0  0.2 0.24 0  0.24 0.24 0  0.28 0.24 0  0.32 0.24 0  0.36 0.24 0  0.4 0.24 0  0.44 0.24 0  0.48 0.24 0  0.52 0.24 0  0.5600000000000001 0.24 0  0.6 0.24 0  0.64 0.24 0  0.68 0.24 0  0.72 0.24 0  0.76 0.24 0  0.8 0.24 0  0.84 0.24 0  0.88 0.24 0  0.92 0.24 0  0.96 0.24 0  1 0.24 0  1.04 0.24 0  1.08 0.24 0  1.12 0.24 0  1.16 0.24 0  1.2 0.24 0  1.24 0.24 0  1.28 0.24 0  1.32 0.24 0  1.36 0.24 0  1.4 0.24 0  1.44 0.24 0  1.48 0.24 0  1.52 0.24 0  1.56 0.24 0  1.6 0.24 0  1.64 0.24 0  1.68 0.24 0  1.72 0.24 0  1.76 0.24 0  1.8 0.24 0  1.84 0.24 0  1.88 0.24 0  1.92 0.24 0  1.96 0.24 0  2 0.24 0  0 0.26 0  0.04 0.26 0  0.08 0.26 0  0.12 0.26 0  0.16 0.26 0  0.2 0.26 0  0.24 0.26 0  0.28 0.26 0  0.32 0.26 0  0.36 0.26 0  0.4 0.26 0  0.44 0.26 0  0.48 0.26 0  0.52 0.26 0  0.5600000000000001 0.26 0  0.6 0.26 0  0.64 0.26 0  0.68 0.26 0  0.72 0.26 0  0.76 0.26 0  0.8 0.26 0  0.84 0.26 0  0.88 0.26 0  0.92 0.26 0  0.96 0.26 0  1 0.26 0  1.04 0.26 0  1.08 0.26 0  1.12 0.26 0  1.16 0.26 0  1.2 0.26 0  1.24 0.26 0  1.28 0.26 0  1.32 0.26 0  1.36 0.26 0  1.4 0.26 0  1.44 0.26 0  1.48 0.26 0  1.52 0.26 0  1.56 0.26 0  1.6 0.26 0  1.64 0.26 0  1.68 0.26 0  1.72 0.26 0  1.76 0.26 0  1.8 0.26 0  1.84 0.26 0  1.88 0.26 0  1.92 0.26 0  1.96 0.26 0  2 0.26 0  0 0.28 0  0.04 0.28 0  0.08 0.28 0  0.12 0.28 0  0.16 0.28 0  0.2 0.28 0  0.24 0.28 0  0.28 0.28 0  0.32 0.28 0  0.36 0.28 0  0.4 0.28 0  0.44 0.28 0  0.48 0.28 0  0.52 0.28 0  0.5600000000000001 0.28 0  0.6 0.28 0  0.64 0.28 0  0.68 0.28 0  0.72 0.28 0  0.76 0.28 0  0.8 0.28 0  0.84 0.28 0  0.88 0.28 0  0.92 0.28 0  0.96 0.28 0  1 0.28 0  1.04 0.28 0  1.08 0.28 0  1.12 0.28 0  1.16 0.28 0  1.2 0.28 0  1.24 0.28 0  1.28 0.28 0  1.32 0.28 0  1.36 0.28 0  1.4 0.28 0  1.44 0.28 0  1.48 0.28 0  1.52 0.28 0  1.56 0.28 0  1.6 0.28 0  1.64 0.28 0  1.68 0.28 0  1.72 0.28 0  1.76 0.28 0  1.8 0.28 0  1.84 0.28 0  1.88 0.28 0  1.92 0.28 0  1.96 0.28 0  2 0.28 0  0 0.3 0  0.04 0.3 0  0.08 0.3 0  0.12 0.3 0  0.16 0.3 0  0.2 0.3 0  0.24 0.3 0  0.28 0.3 0  0.32 0.3 0  0.36 0.3 0  0.4 0.3 0  0.44 0.3
[...]
<PointData  Vectors="f_26-0"> 
<DataArray  type="Float64"  Name="f_26-0"  NumberOfComponents="3" format="ascii">0.0000000000000000e+00 0.0000000000000000e+00 0.0000000000000000e+00  0.0000000000000000e+00 0.0000000000000000e+00 0.0000000000000000e+00  0.0000000000000000e+00 0.0000000000000000e+00 0.0000000000000000e+00  0.0000000000000000e+00 0.0000000000000000e+00 0.0000000000000000e+00  0.0000000000000000e+00 0.0000000000000000e+00 0.0000000000000000e+00  0.0000000000000000e+00 0.0000000000000000e+00 0.0000000000000000e+00  0.0000000000000000e+00 0.0000000000000000e+00 0.0000000000000000e+00  0.0000000000000000e+00 0.0000000000000000e+00 0.0000000000000000e+00  0.0000000000000000e+00 0.0000000000000000e+00 0.0000000000000000e+00  0.0000000000000000e+00 0.0000000000000000e+00 0.0000000000000000e+00  0.0000000000000000e+00 0.0000000000000000e+00 0.0000000000000000e+00  0.0000000000000000e+00 0.0000000000000000e+00 0.0000000000000000e+00  0.0000000000000000e+00 0.0000000000000000e+00 0.0000000000000000e+00  0.0000000000000000e+00 0.0000000000000000e+00 0.0000000000000000e+00  0.0000000000000000e+00 0.0000000000000000e+00 0.0000000000000000e+00  0.0000000000000000e+00 0.0000000000000000e+00 0.0000000000000000e+00  0.0000000000000000e+00 0.0000000000000000e+00 0.0000000000000000e+00  0.0000000000000000e+00 0.0000000000000000e+00 0.0000000000000000e+00  0.0000000000000000e+00 0.0000000000000000e+00 0.0000000000000000e+00  0.0000000000000000e+00 0.0000000000000000e+00 0.0000000000000000e+00  0.0000000000000000e+00 0.0000000000000000e+00 0.0000000000000000e+00  0.0000000000000000e+00 0.0000000000000000e+00 0.0000000000000000e+00  0.0000000000000000e+00 0.0000000000000000e+00 0.0000000000000000e+00  0.0000000000000000e+00 0.0000000000000000e+00 0.0000000000000000e+00  0.0000000000000000e+00 0.0000000000000000e+00 0.0000000000000000e+00  0.0000000000000000e+00 0.0000000000000000e+00 0.0000000000000000e+00  0.0000000000000000e+00 0.0000000000000000e+00 0.0000000000000000e+00  0.0000000000000000e+00 0.0000000000000000e+00 0.0000000000000000e+00  0.0000000000000000e+00 0.0000000000000000e+00 0.0000000000000000e+00  0.0000000000000000e+00 0.0000000000000000e+00 0.0000000000000000e+00  0.0000000000000000e+00 0.0000000000000000e+00 0.0000000000000000e+00  0.0000000000000000e+00 0.0000000000000000e+00 0.0000000000000000e+00  0.0000000000000000e+00 0.0000000000000000e+00 0.0000000000000000e+00  0.0000000000000000e+00 0.0000000000000000e+00 0.0000000000000000e+00  0.0000000000000000e+00 0.0000000000000000e+00 0.0000000000000000e+00  0.0000000000000000e+00 0.0000000000000000e+00 0.0000000000000000e+00  0.0000000000000000e+00 0.0000000000000000e+00 0.0000000000000000e+00  0.0000000000000000e+00 0.0000000000000000e+00 0.0000000000000000e+00  0.0000000000000000e+00 0.0000000000000000e+00 0.0000000000000000e+00  0.0000000000000000e+00 0.0000000000000000e+00 0.0000000000000000e+00  0.0000000000000000e+00 0.0000000000000000e+00 0.0000000000000000e+00  0.0000000000000000e+00 0.0000000000000000e+00 0.0000000000000000e+00  0.0000000000000000e+00 0.0000000000000000e+00 0.0000000000000000e+00  0.0000000000000000e+00 0.0000000000000000e+00 0.0000000000000000e+00  0.0000000000000000e+00 0.0000000000000000e+00 0.0000000000000000e+00  0.0000000000000000e+00 0.0000000000000000e+00 0.0000000000000000e+00  0.0000000000000000e+00 0.0000000000000000e+00 0.0000000000000000e+00  0.0000000000000000e+00 0.0000000000000000e+00 0.0000000000000000e+00  0.0000000000000000e+00 0.0000000000000000e+00 0.0000000000000000e+00  0.0000000000000000e+00 0.0000000000000000e+00 0.0000000000000000e+00  0.0000000000000000e+00 0.0000000000000000e+00 0.0000000000000000e+00  1.0000000000000000e-02 0.0000000000000000e+00 0.0000000000000000e+00  7.5790205908623665e-03 1.4641012466301284e-03 0.0000000000000000e+00  4.4887943783171388e-03 5.4173579040293169e-04 0.0000000000000000e+00  3.3431978152755749e-03 2.4890223650508235e-04 0.0000000000000000e+00  2.6535256048767267e-03 1.2702644965661340e-04 0.0000000000000000e+00  2.3002046200262722e-03 7.0411797758669577e-05 0.0000000000000000e+00  2.1029631712442486e-03 3.5866819896004359e-05 0.0000000000000000e+00  2.0116788603372045e-03 1.3379596212475300e-05 0.0000000000000000e+00  1.9934700640200365e-03 -3.0223340344288941e-06 0.0000000000000000e+00  2.0315490291391279e-03 -1.6145821369738702e-05 0.0000000000000000e+00  2.1169429804676967e-03 -2.7616268982130224e-05 0.0000000000000000e+00  2.2455693482387709e-03 -3.8494174594976973e-05 0.0000000000000000e+00  2.4167416300119380e-03 -4.9537681744939795e-05 0.0000000000000000e+00  2.6323620547449877e-03 -6.1356751514207527e-05 0.0000000000000000e+00  2.8965377308010939e-03 -7.4493110239432823e-05 0.0000000000000000e+00  3.2154329280357631e-03 -8.9471946575186924e-05 0.0000000000000000e+00  3.5972846122779966e-03 -1.0683842604022694e-04 0.0000000000000000e+00  4.0525425270073866e-03 -1.2718745765352978e-04 0.0000000000000000e+00  4.5941184726275858e-03 -1.5119126774914166e-04 0.0000000000000000e+00  5.2377429027658223e-03 -1.7962771433912270e-04 0.0000000000000000e+00  6.0024364936400020e-03 -2.1341158752435265e-04 0.0000000000000000e+00  6.9111123667692986e-03 -2.5363093412470648e-04 0.0000000000000000e+00  7.9913325635870055e-03 -3.0159055173708806e-04 0.0000000000000000e+00  9.2762511593482717e-03 -3.5886512898398570e-04 0.0000000000000000e+00  1.0805786831412999e-02 -4.2736503644869668e-04 0.0000000000000000e+00  1.2628080474184780e-02 -5.0941849261881573e-04 0.0000000000000000e+00  1.4801309282623505e-02 -6.0787474525494543e-04 0.0000000000000000e+00  1.7395948294788348e-02 -7.2623401706567046e-04 0.0000000000000000e+00  2.0497594270766695e-02 -8.6881123066065739e-04 0.0000000000000000e+00  2.4210495258219986e-02 -1.0409418469757127e-03 0.0000000000000000e+00  2.8661961776368788e-02 -1.2492392884454408e-03 0.0000000000000000e+00  3.4007870278835117e-02 -1.5019138726662092e-03 0.0000000000000000e+00  4.0439501387940363e-02 -1.8091620309377892e-03 0.0000000000000000e+00  4.8191974105488880e-02 -2.1836299285309122e-03 0.0000000000000000e+00  5.7554520893278692e-02 -2.6409443644211071e-03 0.0000000000000000e+00  6.8882760445991995e-02 -3.2002789722584560e-03 0.0000000000000000e+00  8.2612879405361175e-02 -3.8848753307922312e-03 0.0000000000000000e+00  9.9277119689939228e-02 -4.7223418069477245e-03 0.0000000000000000e+00  1.1951882855760354e-01 -5.7443576397928379e-03 0.0000000000000000e+00  1.4410325347378852e-01 -6.9851108385794352e-03 0.0000000000000000e+00  1.7391583275861583e-01 -8.4766986489151173e-03 0.0000000000000000e+00  2.0993074507131099e-01 -1.0240068159368204e-02 0.0000000000000000e+00  2.5311997485073190e-01 -1.2258351756307684e-02 0.0000000000000000e+00  3.0420588074044863e-01 -1.4451118353315646e-02 0.0000000000000000e+00  3.6323693137629648e-01 -1.6472084512975070e-02 0.0000000000000000e+00  4.2798340340237928e-01 -1.7931472182069221e-02 0.0000000000000000e+00  4.9339058527602625e-01 -1.5665634181443507e-02 0.0000000000000000e+00  5.3467532698493359e-01 -1.1500152652874443e-02 0.0000000000000000e+00  5.3518138272379645e-01 3.3486275120185156e-02 0.0000000000000000e+00  2.0936790552962162e-01 7.7393403627679269e-02 0.0000000000000000e+00  -4.2397889670426747e-01 7.0988357463578511e-01 0.0000000000000000e+00  1.0000000000000000e-02 0.0000000000000000e+00 0.0000000000000000e+00  9.9809291234000883e-03 2.9348597237685188e-03 0.0000000000000000e+00  7.6420299288863288e-03 1.5410027592705155e-03 0.0000000000000000e+00  6.0190178403946529e-03 8.1115221689813854e-04 0.0000000000000000e+00  4.9766994546997061e-03 4.4898670023327692e-04 0.0000000000000000e+00  4.3804009976168151e-03 2.5385219363241148e-04 0.0000000000000000e+00  4.0381025599464295e-03 1.3206781374107022e-04 0.0000000000000000e+00  3.8761511802761278e-03 4.9818537584596870e-05 0.0000000000000000e+00  3.8433205539154551e-03 -1.1336380186866909e-05 0.0000000000000000e+00  3.9127381206601197e-03 -6.0850586289562121e-05 0.0000000000000000e+00  4.0693314671943056e-03 -1.0446804493261587e-04 0.0000000000000000e+00  4.3063065208772157e-03 -1.4599577682685013e-04 0.0000000000000000e+00  4.6227182873449166e-03 -1.8822771144206863e-04 0.0000000000000000e+00  5.0222408616216003e-03 -2.3344259613450856e-04 0.0000000000000000e+00  5.5125565221012876e-03 -2.8368499954158685e-04 0.0000000000000000e+00  6.1051338722123080e-03 -3.4094895918286800e-04 0.0000000000000000e+00  6.8152828541049688e-03 -4.0731082823685901e-04 0.0000000000000000e+00  7.6624278890121177e-03 -4.8503953386043664e-04 0.0000000000000000e+00  8.6705769524236375e-03 -5.7669985741037638e-04 0.0000000000000000e+00  9.8689857870498422e-03 -6.8525916785784624e-04 0.0000000000000000e+00  1.1293032524156201e-02 -8.1420570428246387e-04 0.0000000000000000e+00  1.2985331769463742e-02 -9.6768586049490388e-04 0.0000000000000000e+00  1.4997130999621839e-02 -1.1506683469217262e-03 0.0000000000000000e+00  1.7390047416307161e-02 -1.3691443035058171e-03 0.0000000000000000e+00  2.0238221407945581e-02 -1.6303743044662720e-03 0.0000000000000000e+00  2.3630984519018881e-02 -1.9431956952223749e-03 0.0000000000000000e+00  2.7676166254550823e-02 -2.3184068079935105e-03 0.0000000000000000e+00  3.2504195875710837e-02 -2.7692482307977795e-03 0.0000000000000000e+00  3.8273192815522286e-02 -3.3120052116891179e-03 0.0000000000000000e+00  4.5175281683550152e-02 -3.9667588995283684e-03 0.0000000000000000e+00  5.3444412194844235e-02 -4.7583162790169314e-03 0.0000000000000000e+00  6.3366004064945372e-02 -5.7173470610854477e-03 0.0000000000000000e+00  7.5288757930443165e-02 -6.8817461441619612e-03 0.0000000000000000e+00  8.9638949175073604e-02 -8.2982146308486823e-03 0.0000000000000000e+00  1.0693740034580780e-01 -1.0023996313454070e-02 0.0000000000000000e+00  1.2781902153558078e-01 -1.2128593284312305e-02 0.0000000000000000e+00  1.5305413189180428e-01 -1.4695065285621896e-02 0.0000000000000000e+00  1.8356946485483341e-01 -1.7820097928880986e-02 0.0000000000000000e+00  2.2046409256318575e-01 -2.1611234281934240e-02 0.0000000000000000e+00  2.6501079458904059e-01 -2.6178123618569922e-02 0.0000000000000000e+00  3.1862346772487848e-01 -3.1611706224437715e-02 0.0000000000000000e+00  3.8275386839341402e-01 -3.7939071015083405e-02 0.0000000000000000e+00  4.5864628862507989e-01 -4.5029695608240772e-02 0.0000000000000000e+00  5.4678527773412910e-01 -5.2398101554938119e-02 0.0000000000000000e+00  6.4585073619442823e-01 -5.8794071794131646e-02 0.0000000000000000e+00  7.4989988783964057e-01 -6.1236117904806327e-02 0.0000000000000000e+00  8.4526089229282264e-01 -5.2910378578836424e-02 0.0000000000000000e+00  8.8924291140531109e-01 -1.6715527090337828e-02 0.0000000000000000e+00  8.2414661440520298e-01 9.3290694040205679e-02 0.0000000000000000e+00  3.2145297962448932e-01 4.1581406374383212e-01 0.0000000000000000e+00  -4.6962063201809673e-01 1.4618212836363547e+00 0.0000000000000000e+00  1.0000000000000000e-02 0.0000000000000000e+00 0.0000000000000000e+00  1.0491630476112252e-02 3.4458833023983441e-03 0.0000000000000000e+00  9.4354864859492477e-03 2.4411894191092680e-03 0.0000000000000000e+00  7.9794503616713378e-03 1.4665629379236828e-03 0.0000000000000000e+00  6.8946676771200026e-03 8.7203050937030568e-04 0.0000000000000000e+00  6.1924601915134981e-03 5.0708279970866708e-04 0.0000000000000000e+00  5.7750109954138101e-03 2.6900173013127857e-04 0.0000000000000000e+00  5.5743570013777966e-03 1.0164569757195858e-04 0.0000000000000000e+00  5.5389062125182544e-03 -2.5553711723170241e-05 0.0000000000000000e+00  5.6391875433552266e-03 -1.3007883847993958e-04 0.0000000000000000e+00  5.8578382950642610e-03 -2.2302763162233122e-04 0.0000000000000000e+00  6.1872377347822281e-03 -3.1198975467449541e-04 0.0000000000000000e+00  6.6269615274990807e-03 -4.0269679083896134e-04 0.0000000000000000e+00  7.1825816310060403e-03 -4.9990628158344389e-04 0.0000000000000000e+00  7.8650244315560669e-03 -6.0794093062506319e-04 0.0000000000000000e+00  8.6903754812583823e-03 -7.3104824606963568e-04 0.0000000000000000e+00  9.6800134769158414e-03 -8.7366913086992860e-04 0.0000000000000000e+00  1.0861020147330720e-02 -1.0406656727292877e-03 0.0000000000000000e+00  1.2266847372475343e-02 -1.2375375863668383e-03 0.0000000000000000e+00  1.3938246173703912e-02 -1.4706476764599760e-03 0.0000000000000000e+00  1.5924481166662306e-02 -1.7474724994622111e-03 0.0000000000000000e+00  1.8284871041059015e-02 -2.0768933856425541e-03 0.0000000000000000e+00  2.1090713087075788e-02 -2.4695439323551669e-03 0.0000000000000000e+00  2.4427669258240293e-02 -2.9382324989612515e-03 0.0000000000000000e+00  2.8398714002691887e-02 -3.4984618936435216e-03 0.0000000000000000e+00  3.3127771125497099e-02 -4.1690732216774669e-03 0.0000000000000000e+00  3.8764198993296056e-02 -4.9730466143987758e-03 0.0000000000000000e+00  4.5488320660212030e-02 -5.9384979393136235e-03 0.0000000000000000e+00  5.3518237133649636e-02 -7.0999168370677688e-03 0.0000000000000000e+00  6.3118205150897125e-02 -8.4996959450387120e-03 0.0000000000000000e+00  7.4608898878127536e-02 -1.0190000842259642e-02 0.0000000000000000e+00  8.8379894516268070e-02 -1.2235019269472741e-02 0.0000000000000000e+00  1.0490469228580693e-01 -1.4713595913735835e-02 0.0000000000000000e+00  1.2475847539859292e-01 -1.7722186303088906e-02 0.0000000000000000e+00  1.4863851446397955e-01 -2.1377915614844194e-02 0.0000000000000000e+00  1.7738651376463968e-01 -2.5821242985487221e-02 0.0000000000000000e+00  2.1201097533606716e-01 -3.1217195556625065e-02 0.0000000000000000e+00  2.5370541176022360e-01 -3.7753136497472285e-02 0.0000000000000000e+00  3.0385388820959364e-01 -4.5629170177264665e-02 0.0000000000000000e+00  3.6400797884277147e-01 -5.5033766103831733e-02 0.0000000000000000e+00  4.3580371941583801e-01 -6.6090471905169881e-02 0.0000000000000000e+00  5.2076361374998870e-01 -7.8748125678419628e-02 0.0000000000000000e+00  6.1986965140835570e-01 -9.2560045372889949e-02 0.0000000000000000e+00  7.3270976148507672e-01 -1.0623737849374083e-01 0.0000000000000000e+00  8.5579843893429963e-01 -1.1673158361552295e-01 0.0000000000000000e+00  9.7905179448248669e-01 -1.1725109738473219e-01 0.0000000000000000e+00  1.0801220866172083e+00 -9.2827715977172931e-02 0.0000000000000000e+00  1.1054491171887340e+00 -8.9072723215171089e-03 0.0000000000000000e+00  9.7123710293801413e-01 2.1633998405367444e-01 0.0000000000000000e+00  4.0763321001179637e-01 7.9838943469623558e-01 0.0000000000000000e+00  -4.1466397931521043e-01 2.1720861172222103e+00 0.0000000000000000e+00  1.0000000000000000e-02 0.0000000000000000e+00 0.0000000000000000e+00  1.0565257257442805e-02 3.4229634223527177e-03 0.0000000000000000e+00  1.0318993917559201e-02 3.0184365981329067e-03 0.0000000000000000e+00  9.3247569928179216e-03 2.0518856292499246e-03 0.0000000000000000e+00  8.3990650888656256e-03 1.3005373221068547e-03 0.0000000000000000e+00  7.7190900399847330e-03 7.8273838518467165e-04 0.0000000000000000e+00  7.2974272014735492e-03 4.2204736539252363e-04 0.0000000000000000e+00  7.0945323233087571e-03 1.5731462083839982e-04 0.0000000000000000e+00  7.0732815292569003e-03 -4.9311518679931893e-05 0.0000000000000000e+00  7.2081581985676034e-03 -2.2225197437259527e-04 0.0000000000000000e+00  7.4835025023439966e-03 -3.7785056405172145e-04 0.0000000000000000e+00  7.8928605463039481e-03 -5.2783257732922490e-04 0.0000000000000000e+00  8.4372766296443268e-03 -6.8134963446494828e-04 0.0000000000000000e+00  9.1244968245421647e-03 -8.4617564336128982e-04 0.0000000000000000e+00  9.9684981795474074e-03 -1.0294865241069302e-03 0.0000000000000000e+00  1.0989426218159020e-02 -1.2384013530345758e-03 0.0000000000000000e+00  1.2213852615526509e-02 -1.4804036960008767e-03 0.0000000000000000e+00  1.3675330979083486e-02 -1.7637089560180843e-03 0.0000000000000000e+00  1.5415245034561603e-02 -2.0976200315624264e-03 0.0000000000000000e+00  1.7483964074942505e-02 -2.4929016067487333e-03 0.0000000000000000e+00  1.9942338482671310e-02 -2.9621980974493265e-03 0.0000000000000000e+00  2.2863585761711124e-02 -3.5205192621028014e-03 0.0000000000000000e+00  2.6335636439687046e-02 -4.1858192250444955e-03 0.0000000000000000e+00  3.0464030554842134e-02 -4.9796985096526615e-03 0.0000000000000000e+00  3.5375480220152210e-02 -5.9282642709487998e-03 0.0000000000000000e+00  4.1222242622355514e-02 -7.0631909828633181e-03 0.0000000000000000e+00  4.8187480935360322e-02 -8.4230319668419269e-03 0.0000000000000000e+00  5.6491827241988063e-02 -1.0054840513602814e-02 0.0000000000000000e+00  6.6401399164232752e-02 -1.2016166246409082e-02 0.0000000000000000e+00  7.8237554842212773e-02 -1.4377494486934393e-02 0.0000000000000000e+00  9.2388687875267453e-02 -1.7225187520260313e-02 0.0000000000000000e+00  1.0932434376434678e-01 -2.0664955556461570e-02 0.0000000000000000e+00  1.2961184394586217e-01 -2.4825811728292124e-02 0.0000000000000000e+00  1.5393536578269326e-01 -2.9864313944049543e-02 0.0000000000000000e+00  1.8311692692809620e-01 -3.5968603589202494e-02 0.0000000000000000e+00  2.1813776225385947e-01 -4.3361204187199284e-02 0.0000000000000000e+00  2.6015678065041170e-01 -5.2298539732029928e-02 0.0000000000000000e+00  3.1051960577089432e-01 -6.3063300468702746e-02 0.0000000000000000e+00  3.7074576973660084e-01 -7.5942436604843760e-02 0.0000000000000000e+00  4.4247188455425113e-01 -9.1177351164574677e-02 0.0000000000000000e+00  5.2730859549869491e-01 -1.0886125300901335e-01 0.0000000000000000e+00  6.2654157135277622e-01 -1.2873591291810518e-01 0.0000000000000000e+00  7.4053116738722258e-01 -1.4979603188257073e-01 0.0000000000000000e+00  8.6760138389423336e-01 -1.6951307115607753e-01 0.0000000000000000e+00  1.0018950387525081e+00 -1.8230105968591245e-01 0.0000000000000000e+00  1.1295257977939421e+00 -1.7633407282864680e-01 0.0000000000000000e+00  1.2217732932219565e+00 -1.2691666129477905e-01 0.0000000000000000e+00  1.2206086678192145e+00 1.8835891241202496e-02 0.0000000000000000e+00  1.0368320087664775e+00 3.7367442254968802e-01 0.0000000000000000e+00  4.7204748577394712e-01 1.1792419732509325e+00 0.0000000000000000e+00  -3.3984042063861480e-01 2.8199497209490003e+00 0.0000000000000000e+00  1.0000000000000000e-02 0.0000000000000000e+00 0.0000000000000000e+00  1.0529144113457187e-02 3.1571910802833279e-03 0.0000000000000000e+00  1.0716547150059076e-02 3.2795180026180463e-03 0.0000000000000000e+00  1.0202607819963455e-02 2.4749807017580747e-03 0.0000000000000000e+00  9.5320494604424020e-03 1.6670782484249583e-03 0.0000000000000000e+00  8.9691791576627933e-03 1.0385568458778384e-03 0.0000000000000000e+00  8.6025412779633173e-03 5.6664437325075457e-04 0.0000000000000000e+00  8.4326205542915589e-03 2.0403610003862186e-04 0.0000000000000000e+00  8.4436150278024650e-03 -8.7870633023890343e-05 0.0000000000000000e+00  8.6190250253839473e-03 -3.3739813963158877e-04 0.0000000000000000e+00  8.9481994008418064e-03 -5.6503598747655525e-04 0.0000000000000000e+00  9.4276266615128754e-03 -7.8638145056580803e-04 0.0000000000000000e+00  1.0060757480641863e-02 -1.0140936343600734e-03 0.0000000000000000e+00  1.0857832092000927e-02 -1.2592359551799653e-03 0.0000000000000000e+00  1.1835760242866816e-02 -1.5322141958161980e-03 0.0000000000000000e+00  1.3018279520227856e-02 -1.8434722247830438e-03 0.0000000000000000e+00  1.4436377796660753e-02 -2.2040617569316170e-03 0.0000000000000000e+00  1.6129004065781209e-02 -2.6261568814745901e-03 0.0000000000000000e+00  1.8144082589238258e-02 -3.1235638243199190e-03 0.0000000000000000e+00  2.0539859445365176e-02 -3.7122641176142741e-03 0.0000000000000000e+00  2.3386624073854740e-02 -4.4110244497710316e-03 0.0000000000000000e+00  2.6768864519598243e-02 -5.2421060839805064e-03 0.0000000000000000e+00  3.0787933434668659e-02 -6.2321095791045642e-03 0.0000000000000000e+00  3.5565323034411303e-02 -7.4129959118307753e-03 0.0000000000000000e+00  4.1246671551178601e-02 -8.8233324962311843e-03 0.0000000000000000e+00  4.8006651345307079e-02 -1.0509821538704028e-02 0.0000000000000000e+00  5.6054919051837196e-02 -1.25291778293