<?xml version="1.0"?>
<VTKFile type="UnstructuredGrid"  version="0.1"  >
<UnstructuredGrid>
<Piece  NumberOfPoints="2601" NumberOfCells="5000">
<Points>
<DataArray  type="Float64"  NumberOfComponents="3"  format="ascii">0 0 0  0.04 0 0  0.08 0 0  0.12 0 0  0.16 0 0  0.2 0 0  0.24 0 0  0.28 0 0  0.32 0 0  0.36 0 0  0.4 0 0  0.44 0 0  0.48 0 0  0.52 0 0  0.5600000000000001 0 0  0.6 0 0  0.64 0 0  0.68 0 0  0.72 0 0  0.76 0 0  0.8 0 0  0.84 0 0  0.88 0 0  0.92 0 0  0.96 0 0  1 0 0  1.04 0 0  1.08 0 0  1.12 0 0  1.16 0 0  1.2 0 0  1.24 0 0  1.28 0 0  1.32 0 0  1.36 0 0  1.4 0 0  1.44 0 0  1.48 0 0  1.52 0 0  1.56 0 0  1.6 0 0  1.64 0 0  1.68 0 0  1.72 0 0  1.76 0 0  1.8 0 0  1.84 0 0  1.88 0 0  1.92 0 0  1.96 0 0  2 0 0  0 0.02 0  0.04 0.02 0  0.08 0.02 0  0.12 0.02 0  0.16 0.02 0  0.2 0.02 0  0.24 0.02 0  0.28 0.02 0  0.32 0.02 0  0.36 0.02 0  0.4 0.02 0  0.44 0.02 0  0.48 0.02 0  0.52 0.02 0  0.5600000000000001 0.02 0  0.6 0.02 0  0.64 0.02 0  0.68 0.02 0  0.72 0.02 0  0.76 0.02 0  0.8 0.02 0  0.84 0.02 0  0.88 0.02 0  0.92 0.02 0  0.96 0.02 0  1 0.02 0  1.04 0.02 0  1.08 0.02 0  1.12 0.02 0  1.16 0.02 0  1.2 0.02 0  1.24 0.02 0  1.28 0.02 0  1.32 0.02 0  1.36 0.02 0  1.4 0.02 0  1.44 0.02 0  1.48 0.02 0  1.52 0.02 0  1.56 0.02 0  1.6 0.02 0  1.64 0.02 0  1.68 0.02 0  1.72 0.02 0  1.76 0.02 0  1.8 0.02 0  1.84 0.02 0  1.88 0.02 0  1.92 0.02 0  1.96 0.02 0  2 0.02 0  0 0.04 0  0.04 0.04 0  0.08 0.04 0  0.12 0.04 0  0.16 0.04 0  0.2 0.04 0  0.24 0.04 0  0.28 0.04 0  0.32 0.04 0  0.36 0.04 0  0.4 0.04 0  0.44 0.04 0  0.48 0.04 0  0.52 0.04 0  0.5600000000000001 0.04 0  0.6 0.04 0  0.64 0.04 0  0.68 0.04 0  0.72 0.04 0  0.76 0.04 0  0.8 0.04 0  0.84 0.04 0  0.88 0.04 0  0.92 0.04 0  0.96 0.04 0  1 0.04 0  1.04 0.04 0  1.08 0.04 0  1.12 0.04 0  1.16 0.04 0  1.2 0.04 0  1.24 0.04 0  1.28 0.04 0  1.32 0.04 0  1.36 0.04 0  1.4 0.04 0  1.44 0.04 0  1.48 0.04 0  1.52 0.04 0  1.56 0.04 0  1.6 0.04 0  1.64 0.04 0  1.68 0.04 0  1.72 0.04 0  1.76 0.04 0  1.8 0.04 0  1.84 0.04 0  1.88 0.04 0  1.92 0.04 0  1.96 0.04 0  2 0.04 0  0 0.06 0  0.04 0.06 0  0.08 0.06 0  0.12 0.06 0  0.16 0.06 0  0.2 0.06 0  0.24 0.06 0  0.28 0.06 0  0.32 0.06 0  0.36 0.06 0  0.4 0.06 0  0.44 0.06 0  0.48 0.06 0  0.52 0.06 0  0.5600000000000001 0.06 0  0.6 0.06 0  0.64 0.06 0  0.68 0.06 0  0.72 0.06 0  0.76 0.06 0  0.8 0.06 0  0.84 0.06 0  0.88 0.06 0  0.92 0.06 0  0.96 0.06 0  1 0.06 0  1.04 0.06 0  1.08 0.06 0  1.12 0.06 0  1.16 0.06 0  1.2 0.06 0  1.24 0.06 0  1.28 0.06 0  1.32 0.06 0  1.36 0.06 0  1.4 0.06 0  1.44 0.06 0  1.48 0.06 0  1.52 0.06 0  1.56 0.06 0  1.6 0.06 0  1.64 0.06 0  1.68 0.06 0  1.72 0.06 0  1.76 0.06 0  1.8 0.06 0  1.84 0.06 0  1.88 0.06 0  1.92 0.06 0  1.96 0.06 0  2 0.06 0  0 0.08 0  0.04 0.08 0  0.08 0.08 0  0.12 0.08 0  0.16 0.08 0  0.2 0.08 0  0.24 0.08 0  0.28 0.08 0  0.32 0.08 0  0.36 0.08 0  0.4 0.08 0  0.44 0.08 0  0.48 0.08 0  0.52 0.08 0  0.5600000000000001 0.08 0  0.6 0.08 0  0.64 0.08 0  0.68 0.08 0  0.72 0.08 0  0.76 0.08 0  0.8 0.08 0  0.84 0.08 0  0.88 0.08 0  0.92 0.08 0  0.96 0.08 0  1 0.08 0  1.04 0.08 0  1.08 0.08 0  1.12 0.08 0  1.16 0.08 0  1.2 0.08 0  1.24 0.08 0  1.28 0.08 0  1.32 0.08 0  1.36 0.08 0  1.4 0.08 0  1.44 0.08 0  1.48 0.08 0  1.52 0.08 0  1.56 0.08 0  1.6 0.08 0  1.64 0.08 0  1.68 0.08 0  1.72 0.08 0  1.76 0.08 0  1.8 0.08 0  1.84 0.08 0  1.88 0.08 0  1.92 0.08 0  1.96 0.08 0  2 0.08 0  0 0.1 0  0.04 0.1 0  0.08 0.1 0  0.12 0.1 0  0.16 0.1 0  0.2 0.1 0  0.24 0.1 0  0.28 0.1 0  0.32 0.1 0  0.36 0.1 0  0.4 0.1 0  0.44 0.1 0  0.48 0.1 0  0.52 0.1 0  0.5600000000000001 0.1 0  0.6 0.1 0  0.64 0.1 0  0.68 0.1 0  0.72 0.1 0  0.76 0.1 0  0.8 0.1 0  0.84 0.1 0  0.88 0.1 0  0.92 0.1 0  0.96 0.1 0  1 0.1 0  1.04 0.1 0  1.08 0.1 0  1.12 0.1 0  1.16 0.1 0  1.2 0.1 0  1.24 0.1 0  1.28 0.1 0  1.32 0.1 0  1.36 0.1 0  1.4 0.1 0  1.44 0.1 0  1.48 0.1 0  1.52 0.1 0  1.56 0.1 0  1.6 0.1 0  1.64 0.1 0  1.68 0.1 0  1.72 0.1 0  1.76 0.1 0  1.8 0.1 0  1.84 0.1 0  1.88 0.1 0  1.92 0.1 0  1.96 0.1 0  2 0.1 0  0 0.12 0  0.04 0.12 0  0.08 0.12 0  0.12 0.12 0  0.16 0.12 0  0.2 0.12 0  0.24 0.12 0  0.28 0.12 0  0.32 0.12 0  0.36 0.12 0  0.4 0.12 0  0.44 0.12 0  0.48 0.12 0  0.52 0.12 0  0.5600000000000001 0.12 0  0.6 0.12 0  0.64 0.12 0  0.68 0.12 0  0.72 0.12 0  0.76 0.12 0  0.8 0.12 0  0.84 0.12 0  0.88 0.12 0  0.92 0.12 0  0.96 0.12 0  1 0.12 0  1.04 0.12 0  1.08 0.12 0  1.12 0.12 0  1.16 0.12 0  1.2 0.12 0  1.24 0.12 0  1.28 0.12 0  1.32 0.12 0  1.36 0.12 0  1.4 0.12 0  1.44 0.12 0  1.48 0.12 0  1.52 0.12 0  1.56 0.12 0  1.6 0.12 0  1.64 0.12 0  1.68 0.12 0  1.72 0.12 0  1.76 0.12 0  1.8 0.12 0  1.84 0.12 0  1.88 0.12 0  1.92 0.12 0  1.96 0.12 0  2 0.12 0  0 0.14 0  0.04 0.14 0  0.08 0.14 0  0.12 0.14 0  0.16 0.14 0  0.2 0.14 0  0.24 0.14 0  0.28 0.14 0  0.32 0.14 0  0.36 0.14 0  0.4 0.14 0  0.44 0.14 0  0.48 0.14 0  0.52 0.14 0  0.5600000000000001 0.14 0  0.6 0.14 0  0.64 0.14 0  0.68 0.14 0  0.72 0.14 0  0.76 0.14 0  0.8 0.14 0  0.84 0.14 0  0.88 0.14 0  0.92 0.14 0  0.96 0.14 0  1 0.14 0  1.04 0.14 0  1.08 0.14 0  1.12 0.14 0  1.16 0.14 0  1.2 0.14 0  1.24 0.14 0  1.28 0.14 0  1.32 0.14 0  1.36 0.14 0  1.4 0.14 0  1.44 0.14 0  1.48 0.14 0  1.52 0.14 0  1.56 0.14 0  1.6 0.14 0  1.64 0.14 0  1.68 0.14 0  1.72 0.14 0  1.76 0.14 0  1.8 0.14 0  1.84 0.14 0  1.88 0.14 0  1.92 0.14 0  1.96 0.14 0  2 0.14 0  0 0.16 0  0.04 0.16 0  0.08 0.16 0  0.12 0.16 0  0.16 0.16 0  0.2 0.16 0  0.24 0.16 0  0.28 0.16 0  0.32 0.16 0  0.36 0.16 0  0.4 0.16 0  0.44 0.16 0  0.48 0.16 0  0.52 0.16 0  0.5600000000000001 0.16 0  0.6 0.16 0  0.64 0.16 0  0.68 0.16 0  0.72 0.16 0  0.76 0.16 0  0.8 0.16 0  0.84 0.16 0  0.88 0.16 0  0.92 0.16 0  0.96 0.16 0  1 0.16 0  1.04 0.16 0  1.08 0.16 0  1.12 0.16 0  1.16 0.16 0  1.2 0.16 0  1.24 0.16 0  1.28 0.16 0  1.32 0.16 0  1.36 0.16 0  1.4 0.16 0  1.44 0.16 0  1.48 0.16 0  1.52 0.16 0  1.56 0.16 0  1.6 0.16 0  1.64 0.16 0  1.68 0.16 0  1.72 0.16 0  1.76 0.16 0  1.8 0.16 0  1.84 0.16 0  1.88 0.16 0  1.92 0.16 0  1.96 0.16 0  2 0.16 0  0 0.18 0  0.04 0.18 0  0.08 0.18 0  0.12 0.18 0  0.16 0.18 0  0.2 0.18 0  0.24 0.18 0  0.28 0.18 0  0.32 0.18 0  0.36 0.18 0  0.4 0.18 0  0.44 0.18 0  0.48 0.18 0  0.52 0.18 0  0.5600000000000001 0.18 0  0.6 0.18 0  0.64 0.18 0  0.68 0.18 0  0.72 0.18 0  0.76 0.18 0  0.8 0.18 0  0.84 0.18 0  0.88 0.18 0  0.92 0.18 0  0.96 0.18 0  1 0.18 0  1.04 0.18 0  1.08 0.18 0  1.12 0.18 0  1.16 0.18 0  1.2 0.18 0  1.24 0.18 0  1.28 0.18 0  1.32 0.18 0  1.36 0.18 0  1.4 0.18 0  1.44 0.18 0  1.48 0.18 0  1.52 0.18 0  1.56 0.18 0  1.6 0.18 0  1.64 0.18 0  1.68 0.18 0  1.72 0.18 0  1.76 0.18 0  1.8 0.18 0  1.84 0.18 0  1.88 0.18 0  1.92 0.18 0  1.96 0.18 0  2 0.18 0  0 0.2 0  0.04 0.2 0  0.08 0.2 0  0.12 0.2 0  0.16 0.2 0  0.2 0.2 0  0.24 0.2 0  0.28 0.2 0  0.32 0.2 0  0.36 0.2 0  0.4 0.2 0  0.44 0.2 0  0.48 0.2 0  0.52 0.2 0  0.5600000000000001 0.2 0  0.6 0.2 0  0.64 0.2 0  0.68 0.2 0  0.72 0.2 0  0.76 0.2 0  0.8 0.2 0  0.84 0.2 0  0.88 0.2 0  0.92 0.2 0  0.96 0.2 0  1 0.2 0  1.04 0.2 0  1.08 0.2 0  1.12 0.2 0  1.16 0.2 0  1.2 0.2 0  1.24 0.2 0  1.28 0.2 0  1.32 0.2 0  1.36 0.2 0  1.4 0.2 0  1.44 0.2 0  1.48 0.2 0  1.52 0.2 0  1.56 0.2 0  1.6 0.2 0  1.64 0.2 0  1.68 0.2 0  1.72 0.2 0  1.76 0.2 0  1.8 0.2 0  1.84 0.2 0  1.88 0.2 0  1.92 0.2 0  1.96 0.2 0  2 0.2 0  0 0.22 0  0.04 0.22 0  0.08 0.22 0  0.12 0.22 0  0.16 0.22 0  0.2 0.22 0  0.24 0.22 0  0.28 0.22 0  0.32 0.22 0  0.36 0.22 0  0.4 0.22 0  0.44 0.22 0  0.48 0.22 0  0.52 0.22 0  0.5600000000000001 0.22 0  0.6 0.22 0  0.64 0.22 0  0.68 0.22 0  0.72 0.22 0  0.76 0.22 0  0.8 0.22 0  0.84 0.22 0  0.88 0.22 0  0.92 0.22 0  0.96 0.22 0  1 0.22 0  1.04 0.22 0  1.08 0.22 0  1.12 0.22 0  1.16 0.22 0  1.2 0.22 0  1.24 0.22 0  1.28 0.22 0  1.32 0.22 0  1.36 0.22 0  1.4 0.22 0  1.44 0.22 0  1.48 0.22 0  1.52 0.22 0  1.56 0.22 0  1.6 0.22 0  1.64 0.22 0  1.68 0.22 0  1.72 0.22 0  1.76 0.22 0  1.8 0.22 0  1.84 0.22 0  1.88 0.22 0  1.92 0.22 0  1.96 0.22 0  2 0.22 0  0 0.24 0  0.04 0.24 0  0.08 0.24 0  0.12 0.24 0  0.16 0.24 0  0.2 0.24 0  0.24 0.24 0  0.28 0.24 0  0.32 0.24 0  0.36 0.24 0  0.4 0.24 0  0.44 0.24 0  0.48 0.24 0  0.52 0.24 0  0.5600000000000001 0.24 0  0.6 0.24 0  0.64 0.24 0  0.68 0.24 0  0.72 0.24 0  0.76 0.24 0  0.8 0.24 0  0.84 0.24 0  0.88 0.24 0  0.92 0.24 0  0.96 0.24 0  1 0.24 0  1.04 0.24 0  1.08 0.24 0  1.12 0.24 0  1.16 0.24 0  1.2 0.24 0  1.24 0.24 0  1.28 0.24 0  1.32 0.24 0  1.36 0.24 0  1.4 0.24 0  1.44 0.24 0  1.48 0.24 0  1.52 0.24 0  1.56 0.24 0  1.6 0.24 0  1.64 0.24 0  1.68 0.24 0  1.72 0.24 0  1.76 0.24 0  1.8 0.24 0  1.84 0.24 0  1.88 0.24 0  1.92 0.24 0  1.96 0.24 0  2 0.24 0  0 0.26 0  0.04 0.26 0  0.08 0.26 0  0.12 0.26 0  0.16 0.26 0  0.2 0.26 0  0.24 0.26 0  0.28 0.26 0  0.32 0.26 0  0.36 0.26 0  0.4 0.26 0  0.44 0.26 0  0.48 0.26 0  0.52 0.26 0  0.5600000000000001 0.26 0  0.6 0.26 0  0.64 0.26 0  0.68 0.26 0  0.72 0.26 0  0.76 0.26 0  0.8 0.26 0  0.84 0.26 0  0.88 0.26 0  0.92 0.26 0  0.96 0.26 0  1 0.26 0  1.04 0.26 0  1.08 0.26 0  1.12 0.26 0  1.16 0.26 0  1.2 0.26 0  1.24 0.26 0  1.28 0.26 0  1.32 0.26 0  1.36 0.26 0  1.4 0.26 0  1.44 0.26 0  1.48 0.26 0  1.52 0.26 0  1.56 0.26 0  1.6 0.26 0  1.64 0.26 0  1.68 0.26 0  1.72 0.26 0  1.76 0.26 0  1.8 0.26 0  1.84 0.26 0  1.88 0.26 0  1.92 0.26 0  1.96 0.26 0  2 0.26 0  0 0.28 0  0.04 0.28 0  0.08 0.28 0  0.12 0.28 0  0.16 0.28 0  0.2 0.28 0  0.24 0.28 0  0.28 0.28 0  0.32 0.28 0  0.36 0.28 0  0.4 0.28 0  0.44 0.28 0  0.48 0.28 0  0.52 0.28 0  0.5600000000000001 0.28 0  0.6 0.28 0  0.64 0.28 0  0.68 0.28 0  0.72 0.28 0  0.76 0.28 0  0.8 0.28 0  0.84 0.28 0  0.88 0.28 0  0.92 0.28 0  0.96 0.28 0  1 0.28 0  1.04 0.28 0  1.08 0.28 0  1.12 0.28 0  1.16 0.28 0  1.2 0.28 0  1.24 0.28 0  1.28 0.28 0  1.32 0.28 0  1.36 0.28 0  1.4 0.28 0  1.44 0.28 0  1.48 0.28 0  1.52 0.28 0  1.56 0.28 0  1.6 0.28 0  1.64 0.28 0  1.68 0.28 0  1.72 0.28 0  1.76 0.28 0  1.8 0.28 0  1.84 0.28 0  1.88 0.28 0  1.92 0.28 0  1.96 0.28 0  2 0.28 0  0 0.3 0  0.04 0.3 0  0.08 0.3 0  0.12 0.3 0  0.16 0.3 0  0.2 0.3 0  0.24 0.3 0  0.28 0.3 0  0.32 0.3 0  0.36 0.3 0  0.4 0.3 0  0.44 0.3
[...]
<PointData  Vectors="f_26-0"> 
<DataArray  type="Float64"  Name="f_26-0"  NumberOfComponents="3" format="ascii">0.0000000000000000e+00 0.0000000000000000e+00 0.0000000000000000e+00  0.0000000000000000e+00 0.0000000000000000e+00 0.0000000000000000e+00  0.0000000000000000e+00 0.0000000000000000e+00 0.0000000000000000e+00  0.0000000000000000e+00 0.0000000000000000e+00 0.0000000000000000e+00  0.0000000000000000e+00 0.0000000000000000e+00 0.0000000000000000e+00  0.0000000000000000e+00 0.0000000000000000e+00 0.0000000000000000e+00  0.0000000000000000e+00 0.0000000000000000e+00 0.0000000000000000e+00  0.0000000000000000e+00 0.0000000000000000e+00 0.0000000000000000e+00  0.0000000000000000e+00 0.0000000000000000e+00 0.0000000000000000e+00  0.0000000000000000e+00 0.0000000000000000e+00 0.0000000000000000e+00  0.0000000000000000e+00 0.0000000000000000e+00 0.0000000000000000e+00  0.0000000000000000e+00 0.0000000000000000e+00 0.0000000000000000e+00  0.0000000000000000e+00 0.0000000000000000e+00 0.0000000000000000e+00  0.0000000000000000e+00 0.0000000000000000e+00 0.0000000000000000e+00  0.0000000000000000e+00 0.0000000000000000e+00 0.0000000000000000e+00  0.0000000000000000e+00 0.0000000000000000e+00 0.0000000000000000e+00  0.0000000000000000e+00 0.0000000000000000e+00 0.0000000000000000e+00  0.0000000000000000e+00 0.0000000000000000e+00 0.0000000000000000e+00  0.0000000000000000e+00 0.0000000000000000e+00 0.0000000000000000e+00  0.0000000000000000e+00 0.0000000000000000e+00 0.0000000000000000e+00  0.0000000000000000e+00 0.0000000000000000e+00 0.0000000000000000e+00  0.0000000000000000e+00 0.0000000000000000e+00 0.0000000000000000e+00  0.0000000000000000e+00 0.0000000000000000e+00 0.0000000000000000e+00  0.0000000000000000e+00 0.0000000000000000e+00 0.0000000000000000e+00  0.0000000000000000e+00 0.0000000000000000e+00 0.0000000000000000e+00  0.0000000000000000e+00 0.0000000000000000e+00 0.0000000000000000e+00  0.0000000000000000e+00 0.0000000000000000e+00 0.0000000000000000e+00  0.0000000000000000e+00 0.0000000000000000e+00 0.0000000000000000e+00  0.0000000000000000e+00 0.0000000000000000e+00 0.0000000000000000e+00  0.0000000000000000e+00 0.0000000000000000e+00 0.0000000000000000e+00  0.0000000000000000e+00 0.0000000000000000e+00 0.0000000000000000e+00  0.0000000000000000e+00 0.0000000000000000e+00 0.0000000000000000e+00  0.0000000000000000e+00 0.0000000000000000e+00 0.0000000000000000e+00  0.0000000000000000e+00 0.0000000000000000e+00 0.0000000000000000e+00  0.0000000000000000e+00 0.0000000000000000e+00 0.0000000000000000e+00  0.0000000000000000e+00 0.0000000000000000e+00 0.0000000000000000e+00  0.0000000000000000e+00 0.0000000000000000e+00 0.0000000000000000e+00  0.0000000000000000e+00 0.0000000000000000e+00 0.0000000000000000e+00  0.0000000000000000e+00 0.0000000000000000e+00 0.0000000000000000e+00  0.0000000000000000e+00 0.0000000000000000e+00 0.0000000000000000e+00  0.0000000000000000e+00 0.0000000000000000e+00 0.0000000000000000e+00  0.0000000000000000e+00 0.0000000000000000e+00 0.0000000000000000e+00  0.0000000000000000e+00 0.0000000000000000e+00 0.0000000000000000e+00  0.0000000000000000e+00 0.0000000000000000e+00 0.0000000000000000e+00  0.0000000000000000e+00 0.0000000000000000e+00 0.0000000000000000e+00  0.0000000000000000e+00 0.0000000000000000e+00 0.0000000000000000e+00  0.0000000000000000e+00 0.0000000000000000e+00 0.0000000000000000e+00  0.0000000000000000e+00 0.0000000000000000e+00 0.0000000000000000e+00  0.0000000000000000e+00 0.0000000000000000e+00 0.0000000000000000e+00  0.0000000000000000e+00 0.0000000000000000e+00 0.0000000000000000e+00  0.0000000000000000e+00 0.0000000000000000e+00 0.0000000000000000e+00  1.0000000000000000e-02 0.0000000000000000e+00 0.0000000000000000e+00  8.4963272611578555e-03 1.0478273011815520e-03 0.0000000000000000e+00  7.0597955213250012e-03 1.1564647540202451e-04 0.0000000000000000e+00  6.8836891347184865e-03 1.2582371447893086e-04 0.0000000000000000e+00  5.6489929987043113e-03 4.5417287228229308e-04 0.0000000000000000e+00  2.8240960372102925e-03 9.2642259247465559e-04 0.0000000000000000e+00  -2.0274243453824053e-03 1.4736252577055961e-03 0.0000000000000000e+00  -9.1546076901461541e-03 2.0802845144572940e-03 0.0000000000000000e+00  -1.8786057092335572e-02 2.7437853140883628e-03 0.0000000000000000e+00  -3.1152780370356473e-02 3.4677352179664695e-03 0.0000000000000000e+00  -4.6500600875635845e-02 4.2561743988887924e-03 0.0000000000000000e+00  -6.5084260621255441e-02 5.1100302358517060e-03 0.0000000000000000e+00  -8.7149339145299598e-02 6.0242713821508590e-03 0.0000000000000000e+00  -1.1290354696150093e-01 6.9852732255709128e-03 0.0000000000000000e+00  -1.4247787835778836e-01 7.9682751791121924e-03 0.0000000000000000e+00  -1.7587792925443027e-01 8.9349062805139465e-03 0.0000000000000000e+00  -2.1292587085304460e-01 9.8308930304850609e-03 0.0000000000000000e+00  -2.5319425485615171e-01 1.0584179698181559e-02 0.0000000000000000e+00  -2.9593397577149511e-01 1.1103816145891973e-02 0.0000000000000000e+00  -3.4000035212825369e-01 1.1280092478231196e-02 0.0000000000000000e+00  -3.8378338019454433e-01 1.0986507941353836e-02 0.0000000000000000e+00  -4.2515064756749094e-01 1.0084226690607273e-02 0.0000000000000000e+00  -4.6141393154151245e-01 8.4296581433471445e-03 0.0000000000000000e+00  -4.8933275118852310e-01 5.8856606266316043e-03 0.0000000000000000e+00  -5.0516952377371305e-01 2.3365609770596078e-03 0.0000000000000000e+00  -5.0481078278871105e-01 -2.2933191463465033e-03 0.0000000000000000e+00  -4.8396637554949534e-01 -8.0186351647805153e-03 0.0000000000000000e+00  -4.3845299423249751e-01 -1.4771334980346471e-02 0.0000000000000000e+00  -3.6455942157161364e-01 -2.2381042418353606e-02 0.0000000000000000e+00  -2.5947862124344340e-01 -3.0560992102569594e-02 0.0000000000000000e+00  -1.2177710009544025e-01 -3.8903442970210762e-02 0.0000000000000000e+00  4.8143567470407815e-02 -4.6888427452135777e-02 0.0000000000000000e+00  2.4765215907069843e-01 -5.3908943121820631e-02 0.0000000000000000e+00  4.7162877982502677e-01 -5.9314165703893924e-02 0.0000000000000000e+00  7.1241181916326113e-01 -6.2469953508664272e-02 0.0000000000000000e+00  9.6001241813707183e-01 -6.2832927553863910e-02 0.0000000000000000e+00  1.2026360678050683e+00 -6.0030974816962630e-02 0.0000000000000000e+00  1.4275151065517917e+00 -5.3939539119706746e-02 0.0000000000000000e+00  1.6220075282985971e+00 -4.4740224752209609e-02 0.0000000000000000e+00  1.7748615886079784e+00 -3.2947088305459844e-02 0.0000000000000000e+00  1.8774916949742209e+00 -1.9387698862230497e-02 0.0000000000000000e+00  1.9250712434628503e+00 -5.1308649425824008e-03 0.0000000000000000e+00  1.9172342956606496e+00 8.6380904490730819e-03 0.0000000000000000e+00  1.8581995341181987e+00 2.0792658303524222e-02 0.0000000000000000e+00  1.7561609946665417e+00 3.0441148515875548e-02 0.0000000000000000e+00  1.6220302855652098e+00 3.7215497163680063e-02 0.0000000000000000e+00  1.4671306414199614e+00 4.0897744263814241e-02 0.0000000000000000e+00  1.3037670010895377e+00 4.2962178613935129e-02 0.0000000000000000e+00  1.1376235460996416e+00 3.7505299546185054e-02 0.0000000000000000e+00  1.0231237081756885e+00 3.0198433382249423e-02 0.0000000000000000e+00  9.5741067342542052e-01 -6.7104774564442429e-02 0.0000000000000000e+00  1.0000000000000000e-02 0.0000000000000000e+00 0.0000000000000000e+00  1.1399673456555322e-02 1.5217067781209119e-03 0.0000000000000000e+00  1.1228596956549073e-02 2.6014157077269655e-04 0.0000000000000000e+00  1.0336018838069470e-02 6.9723010573175470e-04 0.0000000000000000e+00  7.2283551711171973e-03 2.0500618510828502e-03 0.0000000000000000e+00  9.7342945606365293e-04 3.8846651802669861e-03 0.0000000000000000e+00  -9.1484657956429176e-03 6.0121103654523127e-03 0.0000000000000000e+00  -2.3627559040821876e-02 8.3737192015158213e-03 0.0000000000000000e+00  -4.2912067537506794e-02 1.0959270776928211e-02 0.0000000000000000e+00  -6.7446292419748782e-02 1.3779353496130700e-02 0.0000000000000000e+00  -9.7691533580458748e-02 1.6845576478177519e-02 0.0000000000000000e+00  -1.3411340950399378e-01 2.0157405427138054e-02 0.0000000000000000e+00  -1.7714744101266405e-01 2.3691141927058377e-02 0.0000000000000000e+00  -2.2714435248092252e-01 2.7389778640631413e-02 0.0000000000000000e+00  -2.8429630141410545e-01 3.1153219265212001e-02 0.0000000000000000e+00  -3.4854476970291204e-01 3.4828850517779918e-02 0.0000000000000000e+00  -4.1947135211179626e-01 3.8202923411022160e-02 0.0000000000000000e+00  -4.9617401963071456e-01 4.0993644581259508e-02 0.0000000000000000e+00  -5.7713362890106013e-01 4.2847348086432854e-02 0.0000000000000000e+00  -6.6007852104018705e-01 4.3339581355970228e-02 0.0000000000000000e+00  -7.4185892777624352e-01 4.1983334676970123e-02 0.0000000000000000e+00  -8.1834734718099666e-01 3.8246868542813117e-02 0.0000000000000000e+00  -8.8438559886781798e-01 3.1583506751344470e-02 0.0000000000000000e+00  -9.3380316184322043e-01 2.1475200734397966e-02 0.0000000000000000e+00  -9.5953357307902076e-01 7.4904742241542026e-03 0.0000000000000000e+00  -9.5385481095278435e-01 -1.0644575165741849e-02 0.0000000000000000e+00  -9.0877431591276170e-01 -3.2966193911331564e-02 0.0000000000000000e+00  -8.1656842797952744e-01 -5.9190967455967872e-02 0.0000000000000000e+00  -6.7046894603796581e-01 -8.8642354295321038e-02 0.0000000000000000e+00  -4.6546661882508372e-01 -1.2019904728569818e-01 0.0000000000000000e+00  -1.9917435510592940e-01 -1.5228005933449382e-01 0.0000000000000000e+00  1.2733504603166865e-01 -1.8288106324942227e-01 0.0000000000000000e+00  5.0882625556219141e-01 -2.0967352856501034e-01 0.0000000000000000e+00  9.3545880167705742e-01 -2.3017221119185477e-01 0.0000000000000000e+00  1.3927298993647201e+00 -2.4196757110617279e-01 0.0000000000000000e+00  1.8619087331783910e+00 -2.4300819040324936e-01 0.0000000000000000e+00  2.3210256887587399e+00 -2.3190524206002219e-01 0.0000000000000000e+00  2.7464140869961646e+00 -2.0821821335794272e-01 0.0000000000000000e+00  3.1147165036055728e+00 -1.7267111829461812e-01 0.0000000000000000e+00  3.4051720581217952e+00 -1.2724513093880699e-01 0.0000000000000000e+00  3.6019109202301878e+00 -7.5100852724593548e-02 0.0000000000000000e+00  3.6959171334418977e+00 -2.0303295056283845e-02 0.0000000000000000e+00  3.6863020456217028e+00 3.2649038083124152e-02 0.0000000000000000e+00  3.5805656683601650e+00 7.9453866585250318e-02 0.0000000000000000e+00  3.3936249360737816e+00 1.1672795935183926e-01 0.0000000000000000e+00  3.1456476898967352e+00 1.4265217278240100e-01 0.0000000000000000e+00  2.8587103641321847e+00 1.5724949643634456e-01 0.0000000000000000e+00  2.5559859428195368e+00 1.6111289480683991e-01 0.0000000000000000e+00  2.2561513227683552e+00 1.4971836890771056e-01 0.0000000000000000e+00  2.0245541528447117e+00 9.7470565838594592e-02 0.0000000000000000e+00  1.8451666012856651e+00 -8.6555588871138858e-02 0.0000000000000000e+00  1.0000000000000000e-02 0.0000000000000000e+00 0.0000000000000000e+00  1.1962663237324807e-02 8.8296180355783044e-04 0.0000000000000000e+00  1.2748036364235776e-02 4.2876789311494895e-04 0.0000000000000000e+00  1.0865624885304700e-02 1.9909201923346497e-03 0.0000000000000000e+00  5.4106932711450494e-03 5.0782036149571346e-03 0.0000000000000000e+00  -4.7099221665966003e-03 9.0951371794523398e-03 0.0000000000000000e+00  -2.0374150977690821e-02 1.3743107816791073e-02 0.0000000000000000e+00  -4.2282883892196338e-02 1.8906556520758434e-02 0.0000000000000000e+00  -7.1081851994687820e-02 2.4563656605327545e-02 0.0000000000000000e+00  -1.0740733929256513e-01 3.0730676348614885e-02 0.0000000000000000e+00  -1.5190674775262814e-01 3.7424571887636184e-02 0.0000000000000000e+00  -2.0521788188912810e-01 4.4635416742047546e-02 0.0000000000000000e+00  -2.6791933770016457e-01 5.2302708932766576e-02 0.0000000000000000e+00  -3.4045245418279352e-01 6.0293482443098914e-02 0.0000000000000000e+00  -4.2301665560370955e-01 6.8381234975109700e-02 0.0000000000000000e+00  -5.1543930888343381e-01 7.6225792013737553e-02 0.0000000000000000e+00  -6.1702220047632217e-01 8.3355144377066565e-02 0.0000000000000000e+00  -7.2636869846904284e-01 8.9151240103695392e-02 0.0000000000000000e+00  -8.4119879528515240e-01 9.2842700426933503e-02 0.0000000000000000e+00  -9.5816353319531855e-01 9.3508398634148823e-02 0.0000000000000000e+00  -1.0726756787378158e+00 9.0096652278860295e-02 0.0000000000000000e+00  -1.1787795853758394e+00 8.1465209906538980e-02 0.0000000000000000e+00  -1.2690892913106293e+00 6.6446962769044562e-02 0.0000000000000000e+00  -1.3348289672294622e+00 4.3945032235610276e-02 0.0000000000000000e+00  -1.3660123700236422e+00 1.3058246350823024e-02 0.0000000000000000e+00  -1.3517961678533734e+00 -2.6766179297770379e-02 0.0000000000000000e+00  -1.2810339981074861e+00 -7.5561647673795987e-02 0.0000000000000000e+00  -1.1430423481657370e+00 -1.3266854561835550e-01 0.0000000000000000e+00  -9.2856510583966179e-01 -1.9658061186221118e-01 0.0000000000000000e+00  -6.3089161205800492e-01 -2.6483980365601734e-01 0.0000000000000000e+00  -2.4704581558308120e-01 -3.3401129853422518e-01 0.0000000000000000e+00  2.2107371171520382e-01 -3.9976906129469003e-01 0.0000000000000000e+00  7.6575509602064751e-01 -4.5711549248650224e-01 0.0000000000000000e+00  1.3729063674495945e+00 -5.0074531944626099e-01 0.0000000000000000e+00  2.0220280916820794e+00 -5.2554430026321530e-01 0.0000000000000000e+00  2.6868623685100381e+00 -5.2718881371364024e-01 0.0000000000000000e+00  3.3367938572678750e+00 -5.0278551599475962e-01 0.0000000000000000e+00  3.9389878387645387e+00 -4.5146476796684032e-01 0.0000000000000000e+00  4.4611370950234805e+00 -3.7482293639767267e-01 0.0000000000000000e+00  4.8745663888144408e+00 -2.7710402979819737e-01 0.0000000000000000e+00  5.1573301691742994e+00 -1.6502761463769861e-01 0.0000000000000000e+00  5.2968588912196513e+00 -4.7210954406224484e-02 0.0000000000000000e+00  5.2916914283564926e+00 6.6807447982191875e-02 0.0000000000000000e+00  5.1518717453289691e+00 1.6786368721898959e-01 0.0000000000000000e+00  4.8977806008468319e+00 2.4863209447283766e-01 0.0000000000000000e+00  4.5572904213740424e+00 3.0492546090455458e-01 0.0000000000000000e+00  4.1619915303300168e+00 3.3620585206404963e-01 0.0000000000000000e+00  3.7438679887858983e+00 3.4325839867154362e-01 0.0000000000000000e+00  3.3329264157709129e+00 3.1944424366840857e-01 0.0000000000000000e+00  2.9825551346905974e+00 2.2502238995094426e-01 0.0000000000000000e+00  2.6844006261741304e+00 -3.7705276343170592e-02 0.0000000000000000e+00  1.0000000000000000e-02 0.0000000000000000e+00 0.0000000000000000e+00  1.1734102212560927e-02 -1.1794510588093649e-04 0.0000000000000000e+00  1.2348743504053178e-02 8.0165589661529250e-04 0.0000000000000000e+00  9.0840090470612062e-03 4.2260216620924650e-03 0.0000000000000000e+00  8.9387504323439927e-04 9.7410399175712776e-03 0.0000000000000000e+00  -1.3372091630237551e-02 1.6700880653825960e-02 0.0000000000000000e+00  -3.4697569570405935e-02 2.4717377474151425e-02 0.0000000000000000e+00  -6.3955498466680763e-02 3.3624128999621680e-02 0.0000000000000000e+00  -1.0196182721683325e-01 4.3386046685617179e-02 0.0000000000000000e+00  -1.4952140984700368e-01 5.4021791534121143e-02 0.0000000000000000e+00  -2.0743934515327228e-01 6.5547857621093372e-02 0.0000000000000000e+00  -2.7649152850514203e-01 7.7933282275521543e-02 0.0000000000000000e+00  -3.5736053298229231e-01 9.1059877721562418e-02 0.0000000000000000e+00  -4.5053685471172805e-01 1.0468508136276523e-01 0.0000000000000000e+00  -5.5618742734259752e-01 1.1840622225541904e-01 0.0000000000000000e+00  -6.7399285919594087e-01 1.3162662312446410e-01 0.0000000000000000e+00  -8.0295638111403167e-01 1.4352540774268102e-01 0.0000000000000000e+00  -9.4119003373886523e-01 1.5303445016078163e-01 0.0000000000000000e+00  -1.0856875803583292e+00 1.5882753995282881e-01 0.0000000000000000e+00  -1.2320989749912292e+00 1.5932843566584148e-01 0.0000000000000000e+00  -1.3745277933281101e+00 1.5274579181983827e-01 0.0000000000000000e+00  -1.5053803932527396e+00 1.3714359173483776e-01 0.0000000000000000e+00  -1.6153028554667246e+00 1.1055519230804055e-01 0.0000000000000000e+00  -1.6932476198813471e+00 7.1146807302024911e-02 0.0000000000000000e+00  -1.7267143418054021e+00 1.7431682949613666e-02 0.0000000000000000e+00  -1.7022066369602533e+00 -5.1470966694342916e-02 0.0000000000000000e+00  -1.6059357996219676e+00 -1.3554787745199048e-01 0.0000000000000000e+00  -1.4247824411120225e+00 -2.3360152620469563e-01 0.0000000000000000e+00  -1.1474965769078429e+00 -3.4299642366151101e-01 0.0000000000000000e+00  -7.6607703278819494e-01 -4.5949010340455243e-01 0.0000000000000000e+00  -2.7722550666352486e-01 -5.7720181129528780e-01 0.0000000000000000e+00  3.1627486784008474e-01 -6.8876917953083250e-01 0.0000000000000000e+00  1.0044438452851250e+00 -7.8573066150949933e-01 0.0000000000000000e+00  1.7694580800970168e+00 -8.5914812006763031e-01 0.0000000000000000e+00  2.5856739657084837e+00 -9.0045038583823189e-01 0.0000000000000000e+00  3.4204769213310668e+00 -9.0243759113671351e-01 0.0000000000000000e+00  4.2360371087110202e+00 -8.6034239452716865e-01 0.0000000000000000e+00  4.9919412026600538e+00 -7.7280442000769101e-01 0.0000000000000000e+00  5.6485363791298244e+00 -6.4258688901522154e-01 0.0000000000000000e+00  6.1706813846992929e+00 -4.7685985294143385e-01 0.0000000000000000e+00  6.5314720555703953e+00 -2.8690299577967182e-01 0.0000000000000000e+00  6.7154195713367368e+00 -8.7147615885397225e-02 0.0000000000000000e+00  6.7205441163922490e+00 1.0642566822564675e-01 0.0000000000000000e+00  6.5588895191868994e+00 2.7839955032902958e-01 0.0000000000000000e+00  6.2552343744235257e+00 4.1628579684922373e-01 0.0000000000000000e+00  5.8437052548021837e+00 5.1262358300873800e-01 0.0000000000000000e+00  5.3636911057611236e+00 5.6586612143801751e-01 0.0000000000000000e+00  4.8535426632622114e+00 5.7741519429359167e-01 0.0000000000000000e+00  4.3507100365525186e+00 5.4077171607281904e-01 0.0000000000000000e+00  3.8878691955225535e+00 4.1323136580958553e-01 0.0000000000000000e+00  3.4776051421500989e+00 8.9555222280565783e-02 0.0000000000000000e+00  1.0000000000000000e-02 0.0000000000000000e+00 0.0000000000000000e+00  1.1145790202129167e-02 -9.4266650726118400e-04 0.0000000000000000e+00  1.0730377852083986e-02 1.6863478968889168e-03 0.0000000000000000e+00  5.6100685733210974e-03 7.5903937458857871e-03 0.0000000000000000e+00  -5.6192917861236057e-03 1.6180196684276289e-02 0.0000000000000000e+00  -2.4170103188002844e-02 2.6769743214560684e-02 0.0000000000000000e+00  -5.1124168786290593e-02 3.8907801215748196e-02 0.0000000000000000e+00  -8.7489871724701254e-02 5.2390219689168370e-02 0.0000000000000000e+00  -1.3422782584126910e-01 6.7168806539976117e-02 0.0000000000000000e+00  -1.9228683090408322e-01 8.3260896797831579e-02 0.0000000000000000e+00  -2.6260272289143333e-01 1.0067455197815611e-01 0.0000000000000000e+00  -3.4605951624296388e-01 1.1934394480919902e-01 0.0000000000000000e+00  -4.4341151038658994e-01 1.3907106283984713e-01 0.0000000000000000e+00  -5.5516652534959443e-01 1.5947053266300956e-01 0.0000000000000000e+00  -6.8143162040114946e-01 1.7991654621660882e-01 0.0000000000000000e+00  -8.2172307014800861e-01 1.9949280649567067e-01 0.0000000000000000e+00  -9.7474438956379084e-01 2.1694846352362399e-01 0.0000000000000000e+00  -1.1381392975554288e+00 2.3066526842251620e-01 0.0000000000000000e+00  -1.3082311763055723e+00 2.3864355148829489e-01 0.0000000000000000e+00  -1.4797667715376712e+00 2.3851694196253875e-01 0.0000000000000000e+00  -1.6456894130389319e+00 2.2760761338008814e-01 0.0000000000000000e+00  -1.7969753704214835e+00 2.0303468844255246e-01 0.0000000000000000e+00  -1.9225750895620390e+00 1.6188752015092497e-01 0.0000000000000000e+00  -2.0095074177607417e+00 1.0147202995683424e-01 0.0000000000000000e+00  -2.0431574019807974e+00 1.9631347704758145e-02 0.0000000000000000e+00  -2.0078243149103474e+00 -8.4868782998052172e-02 0.0000000000000000e+00  -1.8875536714510044e