<?xml version="1.0"?>
<VTKFile type="UnstructuredGrid"  version="0.1"  >
<UnstructuredGrid>
<Piece  NumberOfPoints="2601" NumberOfCells="5000">
<Points>
<DataArray  type="Float64"  NumberOfComponents="3"  format="ascii">0 0 0  0.04 0 0  0.08 0 0  0.12 0 0  0.16 0 0  0.2 0 0  0.24 0 0  0.28 0 0  0.32 0 0  0.36 0 0  0.4 0 0  0.44 0 0  0.48 0 0  0.52 0 0  0.5600000000000001 0 0  0.6 0 0  0.64 0 0  0.68 0 0  0.72 0 0  0.76 0 0  0.8 0 0  0.84 0 0  0.88 0 0  0.92 0 0  0.96 0 0  1 0 0  1.04 0 0  1.08 0 0  1.12 0 0  1.16 0 0  1.2 0 0  1.24 0 0  1.28 0 0  1.32 0 0  1.36 0 0  1.4 0 0  1.44 0 0  1.48 0 0  1.52 0 0  1.56 0 0  1.6 0 0  1.64 0 0  1.68 0 0  1.72 0 0  1.76 0 0  1.8 0 0  1.84 0 0  1.88 0 0  1.92 0 0  1.96 0 0  2 0 0  0 0.02 0  0.04 0.02 0  0.08 0.02 0  0.12 0.02 0  0.16 0.02 0  0.2 0.02 0  0.24 0.02 0  0.28 0.02 0  0.32 0.02 0  0.36 0.02 0  0.4 0.02 0  0.44 0.02 0  0.48 0.02 0  0.52 0.02 0  0.5600000000000001 0.02 0  0.6 0.02 0  0.64 0.02 0  0.68 0.02 0  0.72 0.02 0  0.76 0.02 0  0.8 0.02 0  0.84 0.02 0  0.88 0.02 0  0.92 0.02 0  0.96 0.02 0  1 0.02 0  1.04 0.02 0  1.08 0.02 0  1.12 0.02 0  1.16 0.02 0  1.2 0.02 0  1.24 0.02 0  1.28 0.02 0  1.32 0.02 0  1.36 0.02 0  1.4 0.02 0  1.44 0.02 0  1.48 0.02 0  1.52 0.02 0  1.56 0.02 0  1.6 0.02 0  1.64 0.02 0  1.68 0.02 0  1.72 0.02 0  1.76 0.02 0  1.8 0.02 0  1.84 0.02 0  1.88 0.02 0  1.92 0.02 0  1.96 0.02 0  2 0.02 0  0 0.04 0  0.04 0.04 0  0.08 0.04 0  0.12 0.04 0  0.16 0.04 0  0.2 0.04 0  0.24 0.04 0  0.28 0.04 0  0.32 0.04 0  0.36 0.04 0  0.4 0.04 0  0.44 0.04 0  0.48 0.04 0  0.52 0.04 0  0.5600000000000001 0.04 0  0.6 0.04 0  0.64 0.04 0  0.68 0.04 0  0.72 0.04 0  0.76 0.04 0  0.8 0.04 0  0.84 0.04 0  0.88 0.04 0  0.92 0.04 0  0.96 0.04 0  1 0.04 0  1.04 0.04 0  1.08 0.04 0  1.12 0.04 0  1.16 0.04 0  1.2 0.04 0  1.24 0.04 0  1.28 0.04 0  1.32 0.04 0  1.36 0.04 0  1.4 0.04 0  1.44 0.04 0  1.48 0.04 0  1.52 0.04 0  1.56 0.04 0  1.6 0.04 0  1.64 0.04 0  1.68 0.04 0  1.72 0.04 0  1.76 0.04 0  1.8 0.04 0  1.84 0.04 0  1.88 0.04 0  1.92 0.04 0  1.96 0.04 0  2 0.04 0  0 0.06 0  0.04 0.06 0  0.08 0.06 0  0.12 0.06 0  0.16 0.06 0  0.2 0.06 0  0.24 0.06 0  0.28 0.06 0  0.32 0.06 0  0.36 0.06 0  0.4 0.06 0  0.44 0.06 0  0.48 0.06 0  0.52 0.06 0  0.5600000000000001 0.06 0  0.6 0.06 0  0.64 0.06 0  0.68 0.06 0  0.72 0.06 0  0.76 0.06 0  0.8 0.06 0  0.84 0.06 0  0.88 0.06 0  0.92 0.06 0  0.96 0.06 0  1 0.06 0  1.04 0.06 0  1.08 0.06 0  1.12 0.06 0  1.16 0.06 0  1.2 0.06 0  1.24 0.06 0  1.28 0.06 0  1.32 0.06 0  1.36 0.06 0  1.4 0.06 0  1.44 0.06 0  1.48 0.06 0  1.52 0.06 0  1.56 0.06 0  1.6 0.06 0  1.64 0.06 0  1.68 0.06 0  1.72 0.06 0  1.76 0.06 0  1.8 0.06 0  1.84 0.06 0  1.88 0.06 0  1.92 0.06 0  1.96 0.06 0  2 0.06 0  0 0.08 0  0.04 0.08 0  0.08 0.08 0  0.12 0.08 0  0.16 0.08 0  0.2 0.08 0  0.24 0.08 0  0.28 0.08 0  0.32 0.08 0  0.36 0.08 0  0.4 0.08 0  0.44 0.08 0  0.48 0.08 0  0.52 0.08 0  0.5600000000000001 0.08 0  0.6 0.08 0  0.64 0.08 0  0.68 0.08 0  0.72 0.08 0  0.76 0.08 0  0.8 0.08 0  0.84 0.08 0  0.88 0.08 0  0.92 0.08 0  0.96 0.08 0  1 0.08 0  1.04 0.08 0  1.08 0.08 0  1.12 0.08 0  1.16 0.08 0  1.2 0.08 0  1.24 0.08 0  1.28 0.08 0  1.32 0.08 0  1.36 0.08 0  1.4 0.08 0  1.44 0.08 0  1.48 0.08 0  1.52 0.08 0  1.56 0.08 0  1.6 0.08 0  1.64 0.08 0  1.68 0.08 0  1.72 0.08 0  1.76 0.08 0  1.8 0.08 0  1.84 0.08 0  1.88 0.08 0  1.92 0.08 0  1.96 0.08 0  2 0.08 0  0 0.1 0  0.04 0.1 0  0.08 0.1 0  0.12 0.1 0  0.16 0.1 0  0.2 0.1 0  0.24 0.1 0  0.28 0.1 0  0.32 0.1 0  0.36 0.1 0  0.4 0.1 0  0.44 0.1 0  0.48 0.1 0  0.52 0.1 0  0.5600000000000001 0.1 0  0.6 0.1 0  0.64 0.1 0  0.68 0.1 0  0.72 0.1 0  0.76 0.1 0  0.8 0.1 0  0.84 0.1 0  0.88 0.1 0  0.92 0.1 0  0.96 0.1 0  1 0.1 0  1.04 0.1 0  1.08 0.1 0  1.12 0.1 0  1.16 0.1 0  1.2 0.1 0  1.24 0.1 0  1.28 0.1 0  1.32 0.1 0  1.36 0.1 0  1.4 0.1 0  1.44 0.1 0  1.48 0.1 0  1.52 0.1 0  1.56 0.1 0  1.6 0.1 0  1.64 0.1 0  1.68 0.1 0  1.72 0.1 0  1.76 0.1 0  1.8 0.1 0  1.84 0.1 0  1.88 0.1 0  1.92 0.1 0  1.96 0.1 0  2 0.1 0  0 0.12 0  0.04 0.12 0  0.08 0.12 0  0.12 0.12 0  0.16 0.12 0  0.2 0.12 0  0.24 0.12 0  0.28 0.12 0  0.32 0.12 0  0.36 0.12 0  0.4 0.12 0  0.44 0.12 0  0.48 0.12 0  0.52 0.12 0  0.5600000000000001 0.12 0  0.6 0.12 0  0.64 0.12 0  0.68 0.12 0  0.72 0.12 0  0.76 0.12 0  0.8 0.12 0  0.84 0.12 0  0.88 0.12 0  0.92 0.12 0  0.96 0.12 0  1 0.12 0  1.04 0.12 0  1.08 0.12 0  1.12 0.12 0  1.16 0.12 0  1.2 0.12 0  1.24 0.12 0  1.28 0.12 0  1.32 0.12 0  1.36 0.12 0  1.4 0.12 0  1.44 0.12 0  1.48 0.12 0  1.52 0.12 0  1.56 0.12 0  1.6 0.12 0  1.64 0.12 0  1.68 0.12 0  1.72 0.12 0  1.76 0.12 0  1.8 0.12 0  1.84 0.12 0  1.88 0.12 0  1.92 0.12 0  1.96 0.12 0  2 0.12 0  0 0.14 0  0.04 0.14 0  0.08 0.14 0  0.12 0.14 0  0.16 0.14 0  0.2 0.14 0  0.24 0.14 0  0.28 0.14 0  0.32 0.14 0  0.36 0.14 0  0.4 0.14 0  0.44 0.14 0  0.48 0.14 0  0.52 0.14 0  0.5600000000000001 0.14 0  0.6 0.14 0  0.64 0.14 0  0.68 0.14 0  0.72 0.14 0  0.76 0.14 0  0.8 0.14 0  0.84 0.14 0  0.88 0.14 0  0.92 0.14 0  0.96 0.14 0  1 0.14 0  1.04 0.14 0  1.08 0.14 0  1.12 0.14 0  1.16 0.14 0  1.2 0.14 0  1.24 0.14 0  1.28 0.14 0  1.32 0.14 0  1.36 0.14 0  1.4 0.14 0  1.44 0.14 0  1.48 0.14 0  1.52 0.14 0  1.56 0.14 0  1.6 0.14 0  1.64 0.14 0  1.68 0.14 0  1.72 0.14 0  1.76 0.14 0  1.8 0.14 0  1.84 0.14 0  1.88 0.14 0  1.92 0.14 0  1.96 0.14 0  2 0.14 0  0 0.16 0  0.04 0.16 0  0.08 0.16 0  0.12 0.16 0  0.16 0.16 0  0.2 0.16 0  0.24 0.16 0  0.28 0.16 0  0.32 0.16 0  0.36 0.16 0  0.4 0.16 0  0.44 0.16 0  0.48 0.16 0  0.52 0.16 0  0.5600000000000001 0.16 0  0.6 0.16 0  0.64 0.16 0  0.68 0.16 0  0.72 0.16 0  0.76 0.16 0  0.8 0.16 0  0.84 0.16 0  0.88 0.16 0  0.92 0.16 0  0.96 0.16 0  1 0.16 0  1.04 0.16 0  1.08 0.16 0  1.12 0.16 0  1.16 0.16 0  1.2 0.16 0  1.24 0.16 0  1.28 0.16 0  1.32 0.16 0  1.36 0.16 0  1.4 0.16 0  1.44 0.16 0  1.48 0.16 0  1.52 0.16 0  1.56 0.16 0  1.6 0.16 0  1.64 0.16 0  1.68 0.16 0  1.72 0.16 0  1.76 0.16 0  1.8 0.16 0  1.84 0.16 0  1.88 0.16 0  1.92 0.16 0  1.96 0.16 0  2 0.16 0  0 0.18 0  0.04 0.18 0  0.08 0.18 0  0.12 0.18 0  0.16 0.18 0  0.2 0.18 0  0.24 0.18 0  0.28 0.18 0  0.32 0.18 0  0.36 0.18 0  0.4 0.18 0  0.44 0.18 0  0.48 0.18 0  0.52 0.18 0  0.5600000000000001 0.18 0  0.6 0.18 0  0.64 0.18 0  0.68 0.18 0  0.72 0.18 0  0.76 0.18 0  0.8 0.18 0  0.84 0.18 0  0.88 0.18 0  0.92 0.18 0  0.96 0.18 0  1 0.18 0  1.04 0.18 0  1.08 0.18 0  1.12 0.18 0  1.16 0.18 0  1.2 0.18 0  1.24 0.18 0  1.28 0.18 0  1.32 0.18 0  1.36 0.18 0  1.4 0.18 0  1.44 0.18 0  1.48 0.18 0  1.52 0.18 0  1.56 0.18 0  1.6 0.18 0  1.64 0.18 0  1.68 0.18 0  1.72 0.18 0  1.76 0.18 0  1.8 0.18 0  1.84 0.18 0  1.88 0.18 0  1.92 0.18 0  1.96 0.18 0  2 0.18 0  0 0.2 0  0.04 0.2 0  0.08 0.2 0  0.12 0.2 0  0.16 0.2 0  0.2 0.2 0  0.24 0.2 0  0.28 0.2 0  0.32 0.2 0  0.36 0.2 0  0.4 0.2 0  0.44 0.2 0  0.48 0.2 0  0.52 0.2 0  0.5600000000000001 0.2 0  0.6 0.2 0  0.64 0.2 0  0.68 0.2 0  0.72 0.2 0  0.76 0.2 0  0.8 0.2 0  0.84 0.2 0  0.88 0.2 0  0.92 0.2 0  0.96 0.2 0  1 0.2 0  1.04 0.2 0  1.08 0.2 0  1.12 0.2 0  1.16 0.2 0  1.2 0.2 0  1.24 0.2 0  1.28 0.2 0  1.32 0.2 0  1.36 0.2 0  1.4 0.2 0  1.44 0.2 0  1.48 0.2 0  1.52 0.2 0  1.56 0.2 0  1.6 0.2 0  1.64 0.2 0  1.68 0.2 0  1.72 0.2 0  1.76 0.2 0  1.8 0.2 0  1.84 0.2 0  1.88 0.2 0  1.92 0.2 0  1.96 0.2 0  2 0.2 0  0 0.22 0  0.04 0.22 0  0.08 0.22 0  0.12 0.22 0  0.16 0.22 0  0.2 0.22 0  0.24 0.22 0  0.28 0.22 0  0.32 0.22 0  0.36 0.22 0  0.4 0.22 0  0.44 0.22 0  0.48 0.22 0  0.52 0.22 0  0.5600000000000001 0.22 0  0.6 0.22 0  0.64 0.22 0  0.68 0.22 0  0.72 0.22 0  0.76 0.22 0  0.8 0.22 0  0.84 0.22 0  0.88 0.22 0  0.92 0.22 0  0.96 0.22 0  1 0.22 0  1.04 0.22 0  1.08 0.22 0  1.12 0.22 0  1.16 0.22 0  1.2 0.22 0  1.24 0.22 0  1.28 0.22 0  1.32 0.22 0  1.36 0.22 0  1.4 0.22 0  1.44 0.22 0  1.48 0.22 0  1.52 0.22 0  1.56 0.22 0  1.6 0.22 0  1.64 0.22 0  1.68 0.22 0  1.72 0.22 0  1.76 0.22 0  1.8 0.22 0  1.84 0.22 0  1.88 0.22 0  1.92 0.22 0  1.96 0.22 0  2 0.22 0  0 0.24 0  0.04 0.24 0  0.08 0.24 0  0.12 0.24 0  0.16 0.24 0  0.2 0.24 0  0.24 0.24 0  0.28 0.24 0  0.32 0.24 0  0.36 0.24 0  0.4 0.24 0  0.44 0.24 0  0.48 0.24 0  0.52 0.24 0  0.5600000000000001 0.24 0  0.6 0.24 0  0.64 0.24 0  0.68 0.24 0  0.72 0.24 0  0.76 0.24 0  0.8 0.24 0  0.84 0.24 0  0.88 0.24 0  0.92 0.24 0  0.96 0.24 0  1 0.24 0  1.04 0.24 0  1.08 0.24 0  1.12 0.24 0  1.16 0.24 0  1.2 0.24 0  1.24 0.24 0  1.28 0.24 0  1.32 0.24 0  1.36 0.24 0  1.4 0.24 0  1.44 0.24 0  1.48 0.24 0  1.52 0.24 0  1.56 0.24 0  1.6 0.24 0  1.64 0.24 0  1.68 0.24 0  1.72 0.24 0  1.76 0.24 0  1.8 0.24 0  1.84 0.24 0  1.88 0.24 0  1.92 0.24 0  1.96 0.24 0  2 0.24 0  0 0.26 0  0.04 0.26 0  0.08 0.26 0  0.12 0.26 0  0.16 0.26 0  0.2 0.26 0  0.24 0.26 0  0.28 0.26 0  0.32 0.26 0  0.36 0.26 0  0.4 0.26 0  0.44 0.26 0  0.48 0.26 0  0.52 0.26 0  0.5600000000000001 0.26 0  0.6 0.26 0  0.64 0.26 0  0.68 0.26 0  0.72 0.26 0  0.76 0.26 0  0.8 0.26 0  0.84 0.26 0  0.88 0.26 0  0.92 0.26 0  0.96 0.26 0  1 0.26 0  1.04 0.26 0  1.08 0.26 0  1.12 0.26 0  1.16 0.26 0  1.2 0.26 0  1.24 0.26 0  1.28 0.26 0  1.32 0.26 0  1.36 0.26 0  1.4 0.26 0  1.44 0.26 0  1.48 0.26 0  1.52 0.26 0  1.56 0.26 0  1.6 0.26 0  1.64 0.26 0  1.68 0.26 0  1.72 0.26 0  1.76 0.26 0  1.8 0.26 0  1.84 0.26 0  1.88 0.26 0  1.92 0.26 0  1.96 0.26 0  2 0.26 0  0 0.28 0  0.04 0.28 0  0.08 0.28 0  0.12 0.28 0  0.16 0.28 0  0.2 0.28 0  0.24 0.28 0  0.28 0.28 0  0.32 0.28 0  0.36 0.28 0  0.4 0.28 0  0.44 0.28 0  0.48 0.28 0  0.52 0.28 0  0.5600000000000001 0.28 0  0.6 0.28 0  0.64 0.28 0  0.68 0.28 0  0.72 0.28 0  0.76 0.28 0  0.8 0.28 0  0.84 0.28 0  0.88 0.28 0  0.92 0.28 0  0.96 0.28 0  1 0.28 0  1.04 0.28 0  1.08 0.28 0  1.12 0.28 0  1.16 0.28 0  1.2 0.28 0  1.24 0.28 0  1.28 0.28 0  1.32 0.28 0  1.36 0.28 0  1.4 0.28 0  1.44 0.28 0  1.48 0.28 0  1.52 0.28 0  1.56 0.28 0  1.6 0.28 0  1.64 0.28 0  1.68 0.28 0  1.72 0.28 0  1.76 0.28 0  1.8 0.28 0  1.84 0.28 0  1.88 0.28 0  1.92 0.28 0  1.96 0.28 0  2 0.28 0  0 0.3 0  0.04 0.3 0  0.08 0.3 0  0.12 0.3 0  0.16 0.3 0  0.2 0.3 0  0.24 0.3 0  0.28 0.3 0  0.32 0.3 0  0.36 0.3 0  0.4 0.3 0  0.44 0.3
[...]
<PointData  Vectors="f_26-0"> 
<DataArray  type="Float64"  Name="f_26-0"  NumberOfComponents="3" format="ascii">0.0000000000000000e+00 0.0000000000000000e+00 0.0000000000000000e+00  0.0000000000000000e+00 0.0000000000000000e+00 0.0000000000000000e+00  0.0000000000000000e+00 0.0000000000000000e+00 0.0000000000000000e+00  0.0000000000000000e+00 0.0000000000000000e+00 0.0000000000000000e+00  0.0000000000000000e+00 0.0000000000000000e+00 0.0000000000000000e+00  0.0000000000000000e+00 0.0000000000000000e+00 0.0000000000000000e+00  0.0000000000000000e+00 0.0000000000000000e+00 0.0000000000000000e+00  0.0000000000000000e+00 0.0000000000000000e+00 0.0000000000000000e+00  0.0000000000000000e+00 0.0000000000000000e+00 0.0000000000000000e+00  0.0000000000000000e+00 0.0000000000000000e+00 0.0000000000000000e+00  0.0000000000000000e+00 0.0000000000000000e+00 0.0000000000000000e+00  0.0000000000000000e+00 0.0000000000000000e+00 0.0000000000000000e+00  0.0000000000000000e+00 0.0000000000000000e+00 0.0000000000000000e+00  0.0000000000000000e+00 0.0000000000000000e+00 0.0000000000000000e+00  0.0000000000000000e+00 0.0000000000000000e+00 0.0000000000000000e+00  0.0000000000000000e+00 0.0000000000000000e+00 0.0000000000000000e+00  0.0000000000000000e+00 0.0000000000000000e+00 0.0000000000000000e+00  0.0000000000000000e+00 0.0000000000000000e+00 0.0000000000000000e+00  0.0000000000000000e+00 0.0000000000000000e+00 0.0000000000000000e+00  0.0000000000000000e+00 0.0000000000000000e+00 0.0000000000000000e+00  0.0000000000000000e+00 0.0000000000000000e+00 0.0000000000000000e+00  0.0000000000000000e+00 0.0000000000000000e+00 0.0000000000000000e+00  0.0000000000000000e+00 0.0000000000000000e+00 0.0000000000000000e+00  0.0000000000000000e+00 0.0000000000000000e+00 0.0000000000000000e+00  0.0000000000000000e+00 0.0000000000000000e+00 0.0000000000000000e+00  0.0000000000000000e+00 0.0000000000000000e+00 0.0000000000000000e+00  0.0000000000000000e+00 0.0000000000000000e+00 0.0000000000000000e+00  0.0000000000000000e+00 0.0000000000000000e+00 0.0000000000000000e+00  0.0000000000000000e+00 0.0000000000000000e+00 0.0000000000000000e+00  0.0000000000000000e+00 0.0000000000000000e+00 0.0000000000000000e+00  0.0000000000000000e+00 0.0000000000000000e+00 0.0000000000000000e+00  0.0000000000000000e+00 0.0000000000000000e+00 0.0000000000000000e+00  0.0000000000000000e+00 0.0000000000000000e+00 0.0000000000000000e+00  0.0000000000000000e+00 0.0000000000000000e+00 0.0000000000000000e+00  0.0000000000000000e+00 0.0000000000000000e+00 0.0000000000000000e+00  0.0000000000000000e+00 0.0000000000000000e+00 0.0000000000000000e+00  0.0000000000000000e+00 0.0000000000000000e+00 0.0000000000000000e+00  0.0000000000000000e+00 0.0000000000000000e+00 0.0000000000000000e+00  0.0000000000000000e+00 0.0000000000000000e+00 0.0000000000000000e+00  0.0000000000000000e+00 0.0000000000000000e+00 0.0000000000000000e+00  0.0000000000000000e+00 0.0000000000000000e+00 0.0000000000000000e+00  0.0000000000000000e+00 0.0000000000000000e+00 0.0000000000000000e+00  0.0000000000000000e+00 0.0000000000000000e+00 0.0000000000000000e+00  0.0000000000000000e+00 0.0000000000000000e+00 0.0000000000000000e+00  0.0000000000000000e+00 0.0000000000000000e+00 0.0000000000000000e+00  0.0000000000000000e+00 0.0000000000000000e+00 0.0000000000000000e+00  0.0000000000000000e+00 0.0000000000000000e+00 0.0000000000000000e+00  0.0000000000000000e+00 0.0000000000000000e+00 0.0000000000000000e+00  0.0000000000000000e+00 0.0000000000000000e+00 0.0000000000000000e+00  0.0000000000000000e+00 0.0000000000000000e+00 0.0000000000000000e+00  0.0000000000000000e+00 0.0000000000000000e+00 0.0000000000000000e+00  1.0000000000000000e-02 0.0000000000000000e+00 0.0000000000000000e+00  1.5558396713852837e-02 -1.5078423782647025e-03 0.0000000000000000e+00  1.5821979442564305e-02 1.3801123919480189e-03 0.0000000000000000e+00  -2.0348176846690918e-03 7.0672380660441493e-03 0.0000000000000000e+00  -4.3025342765912827e-02 1.3041458122744119e-02 0.0000000000000000e+00  -1.0658463207522210e-01 1.8698615450818846e-02 0.0000000000000000e+00  -1.9149996228627031e-01 2.4004121140906613e-02 0.0000000000000000e+00  -2.9678949673388072e-01 2.9125895351638852e-02 0.0000000000000000e+00  -4.2219128762345559e-01 3.4264996449117568e-02 0.0000000000000000e+00  -5.6815514745103335e-01 3.9594243228930417e-02 0.0000000000000000e+00  -7.3566506421870459e-01 4.5221717205740711e-02 0.0000000000000000e+00  -9.2593997627162561e-01 5.1165330164942568e-02 0.0000000000000000e+00  -1.1400389917259115e+00 5.7329900560609263e-02 0.0000000000000000e+00  -1.3783759964668365e+00 6.3484627002950447e-02 0.0000000000000000e+00  -1.6401482656546780e+00 6.9242819703001154e-02 0.0000000000000000e+00  -1.9226966233433020e+00 7.4048525273672963e-02 0.0000000000000000e+00  -2.2208361153090399e+00 7.7175946979925400e-02 0.0000000000000000e+00  -2.5262179735634103e+00 7.7745890708717832e-02 0.0000000000000000e+00  -2.8267918941842427e+00 7.4757235720396276e-02 0.0000000000000000e+00  -3.1064153251050874e+00 6.7122810694602630e-02 0.0000000000000000e+00  -3.3446089291288996e+00 5.3695795194515200e-02 0.0000000000000000e+00  -3.5164208719049652e+00 3.3293124861993720e-02 0.0000000000000000e+00  -3.5924980435397575e+00 4.7900381462086406e-03 0.0000000000000000e+00  -3.5398484939369856e+00 -3.2556328474648608e-02 0.0000000000000000e+00  -3.3245601361765784e+00 -7.8364132461625963e-02 0.0000000000000000e+00  -2.9179567765026899e+00 -1.3004623849377311e-01 0.0000000000000000e+00  -2.3070378668253415e+00 -1.8187664457876684e-01 0.0000000000000000e+00  -1.5066677447912493e+00 -2.2551019840031433e-01 0.0000000000000000e+00  -5.6933578273238339e-01 -2.5010060599877726e-01 0.0000000000000000e+00  4.0042482457063294e-01 -2.4202483024238372e-01 0.0000000000000000e+00  1.2333251771735427e+00 -1.8033629488587660e-01 0.0000000000000000e+00  1.6339247770964429e+00 -2.8690170632843518e-02 0.0000000000000000e+00  1.2684424350640267e+00 1.9634408026513853e-01 0.0000000000000000e+00  -1.3488533832443006e-01 4.9623951981787118e-01 0.0000000000000000e+00  -2.4684412938371172e+00 6.3590961186152217e-01 0.0000000000000000e+00  -5.0176145668007059e+00 7.2507849745367015e-01 0.0000000000000000e+00  -7.9611702960771691e+00 6.1247804150131868e-01 0.0000000000000000e+00  -9.4123027215306596e+00 -5.7305864024244230e-02 0.0000000000000000e+00  -7.1603276184420714e+00 -8.8455249935382163e-01 0.0000000000000000e+00  -4.1396323074304133e+00 -8.1999024583915969e-01 0.0000000000000000e+00  -2.9103634003059566e+00 -5.3208296806103353e-02 0.0000000000000000e+00  -5.7940934441956635e+00 9.5302008461880239e-01 0.0000000000000000e+00  -7.2531972265857778e+00 4.0541404791137547e-01 0.0000000000000000e+00  -8.7408447301198908e+00 -1.1073763975894005e-01 0.0000000000000000e+00  -6.3830112201385312e+00 -1.2208854696330045e+00 0.0000000000000000e+00  -2.0879890506383334e+00 -3.3090173382833882e-01 0.0000000000000000e+00  -3.3726882074553863e+00 -8.4267448440180381e-01 0.0000000000000000e+00  -5.4708461075709280e-01 -3.4118885194093862e-01 0.0000000000000000e+00  1.6353429272040592e+00 -4.4711648368581320e+00 0.0000000000000000e+00  2.4847037990509495e+01 -4.7438738208014151e+00 0.0000000000000000e+00  2.0991822093655447e+01 5.9604099811364035e+00 0.0000000000000000e+00  1.0000000000000000e-02 0.0000000000000000e+00 0.0000000000000000e+00  1.7333321396192473e-02 -4.5899106899287513e-03 0.0000000000000000e+00  8.6754194948726864e-03 8.9667067852606044e-03 0.0000000000000000e+00  -3.5063744707119905e-02 3.0320196944362970e-02 0.0000000000000000e+00  -1.2036529705098169e-01 5.2814315806462724e-02 0.0000000000000000e+00  -2.4735555991363720e-01 7.4389354587198891e-02 0.0000000000000000e+00  -4.1454259652688485e-01 9.4871234446617575e-02 0.0000000000000000e+00  -6.2065949858260328e-01 1.1479508758686659e-01 0.0000000000000000e+00  -8.6551857387647424e-01 1.3485723093510657e-01 0.0000000000000000e+00  -1.1500791953300322e+00 1.5566615565906192e-01 0.0000000000000000e+00  -1.4761695888373281e+00 1.7759614912783592e-01 0.0000000000000000e+00  -1.8459584170235321e+00 2.0068355752516398e-01 0.0000000000000000e+00  -2.2612338716898033e+00 2.2453465418310692e-01 0.0000000000000000e+00  -2.7225052310674274e+00 2.4823720422538023e-01 0.0000000000000000e+00  -3.2279423426268874e+00 2.7028242761220062e-01 0.0000000000000000e+00  -3.7721924251258496e+00 2.8851531064315827e-01 0.0000000000000000e+00  -4.3451558741750773e+00 3.0013705066390661e-01 0.0000000000000000e+00  -4.9308494667966842e+00 3.0177831980231001e-01 0.0000000000000000e+00  -5.5065100996439247e+00 2.8964022720604410e-01 0.0000000000000000e+00  -6.0420609290016047e+00 2.5966492907066457e-01 0.0000000000000000e+00  -6.4999624550577932e+00 2.0767634977744567e-01 0.0000000000000000e+00  -6.8353461345150786e+00 1.2949009729836392e-01 0.0000000000000000e+00  -6.9964366186688567e+00 2.1208423379392088e-02 0.0000000000000000e+00  -6.9257677125865484e+00 -1.1974854556680548e-01 0.0000000000000000e+00  -6.5641187887676686e+00 -2.9212708129665921e-01 0.0000000000000000e+00  -5.8598734497225786e+00 -4.8684281899116577e-01 0.0000000000000000e+00  -4.7868501094567684e+00 -6.8318307768964959e-01 0.0000000000000000e+00  -3.3677451711201472e+00 -8.4828480667613460e-01 0.0000000000000000e+00  -1.7003748624328070e+00 -9.3870626867856710e-01 0.0000000000000000e+00  1.3786051680568475e-02 -8.9726419878720332e-01 0.0000000000000000e+00  1.4401377350993594e+00 -6.3467588660599850e-01 0.0000000000000000e+00  2.0217983484109370e+00 -4.4388506261956007e-02 0.0000000000000000e+00  1.2115231753566866e+00 8.7535655375547816e-01 0.0000000000000000e+00  -1.5433159705258059e+00 1.9285648271569540e+00 0.0000000000000000e+00  -5.7353721909701969e+00 2.4019031677165428e+00 0.0000000000000000e+00  -9.8460957715869704e+00 2.3930189713890750e+00 0.0000000000000000e+00  -1.3000334856231637e+01 1.9110362100227078e+00 0.0000000000000000e+00  -1.3411802966484792e+01 -1.1779260352704901e-01 0.0000000000000000e+00  -9.0522317188076400e+00 -2.7911250294049621e+00 0.0000000000000000e+00  -5.7788045162692603e+00 -1.7703470737595892e+00 0.0000000000000000e+00  -6.6672014528616019e+00 1.3499461397754426e+00 0.0000000000000000e+00  -1.1691228915647041e+01 2.4685827910961260e+00 0.0000000000000000e+00  -1.0706787377111390e+01 1.4003462280156191e+00 0.0000000000000000e+00  -1.2483404979749992e+01 -1.4747169922009189e+00 0.0000000000000000e+00  -8.0457579938480421e+00 -1.2387666640906014e+00 0.0000000000000000e+00  -7.0865163331524448e+00 -2.9297536420985315e+00 0.0000000000000000e+00  -7.4195724490838399e+00 2.2612249097974781e+00 0.0000000000000000e+00  -3.0040943570041310e+00 -4.1499037348844885e+00 0.0000000000000000e+00  -1.2135441082169884e+00 -8.3320259100976752e+00 0.0000000000000000e+00  2.2660705735527934e+01 -1.3794903644910480e+01 0.0000000000000000e+00  1.3735347198745826e+01 1.6044693186834412e+01 0.0000000000000000e+00  1.0000000000000000e-02 0.0000000000000000e+00 0.0000000000000000e+00  1.1546686714997640e-02 -4.4619066419382238e-03 0.0000000000000000e+00  -1.4186827043583775e-02 2.7015757774738632e-02 0.0000000000000000e+00  -8.9634127288863552e-02 7.2190319672701952e-02 0.0000000000000000e+00  -2.2188421052207116e-01 1.1991682157074372e-01 0.0000000000000000e+00  -4.1190129362108413e-01 1.6624119363341883e-01 0.0000000000000000e+00  -6.5846143296238846e-01 2.1070721721143332e-01 0.0000000000000000e+00  -9.6052913000955997e-01 2.5427920847139029e-01 0.0000000000000000e+00  -1.3182932060140222e+00 2.9831141661806454e-01 0.0000000000000000e+00  -1.7333280260222839e+00 3.4400614670388552e-01 0.0000000000000000e+00  -2.2082558493580238e+00 3.9208975421914805e-01 0.0000000000000000e+00  -2.7460464036258210e+00 4.4257799655526503e-01 0.0000000000000000e+00  -3.3490324822190898e+00 4.9457007326212510e-01 0.0000000000000000e+00  -4.0176672368540416e+00 5.4605475490613586e-01 0.0000000000000000e+00  -4.7490521548698403e+00 5.9374297182434255e-01 0.0000000000000000e+00  -5.5352998666431290e+00 6.3296661421574374e-01 0.0000000000000000e+00  -6.3618607461083538e+00 6.5769803055847986e-01 0.0000000000000000e+00  -7.2060189809775164e+00 6.6073692798093242e-01 0.0000000000000000e+00  -8.0358137892127903e+00 6.3406665792285377e-01 0.0000000000000000e+00  -8.8096102086653048e+00 5.6930049128788807e-01 0.0000000000000000e+00  -9.4763745032207698e+00 4.5806696510559042e-01 0.0000000000000000e+00  -9.9764345107215160e+00 2.9225626597907955e-01 0.0000000000000000e+00  -1.0242405346264491e+01 6.4439308435989343e-02 0.0000000000000000e+00  -1.0200359631328444e+01 -2.3047124414834505e-01 0.0000000000000000e+00  -9.7733414021496614e+00 -5.9064994398261783e-01 0.0000000000000000e+00  -8.8908755780280160e+00 -9.9920086169052358e-01 0.0000000000000000e+00  -7.5112340813382472e+00 -1.4147564523205818e+00 0.0000000000000000e+00  -5.6550724231405445e+00 -1.7672048619064118e+00 0.0000000000000000e+00  -3.4521223822170848e+00 -1.9587573812521020e+00 0.0000000000000000e+00  -1.1818039173308297e+00 -1.8579400338820007e+00 0.0000000000000000e+00  6.7056560827286738e-01 -1.2725179584967385e+00 0.0000000000000000e+00  1.3553337319443266e+00 -3.1675227271947873e-03 0.0000000000000000e+00  2.1493177650269449e-01 1.9623340508864315e+00 0.0000000000000000e+00  -3.5574934917432861e+00 4.0186469021532059e+00 0.0000000000000000e+00  -8.4309701463832614e+00 4.8188346123105994e+00 0.0000000000000000e+00  -1.2632765346856434e+01 3.9058960472503808e+00 0.0000000000000000e+00  -1.3789480481200791e+01 2.9476787753467528e+00 0.0000000000000000e+00  -1.4044971733313609e+01 -1.4422309428631774e+00 0.0000000000000000e+00  -8.5905387625015361e+00 -5.4512197166337302e+00 0.0000000000000000e+00  -6.9569855739686020e+00 -2.0443543413524115e+00 0.0000000000000000e+00  -1.0968559894660599e+01 2.0999041201962294e+00 0.0000000000000000e+00  -1.3968798846791145e+01 2.5838646845067692e+00 0.0000000000000000e+00  -1.0639397418625050e+01 1.2601168979294850e+00 0.0000000000000000e+00  -1.1441066044670594e+01 -2.3557534896365504e+00 0.0000000000000000e+00  -8.0516654908269256e+00 -1.7111733562209159e+00 0.0000000000000000e+00  -1.5150196057207062e+01 -4.2596515647061457e+00 0.0000000000000000e+00  -8.0205136865727358e+00 -2.2037591597619124e-01 0.0000000000000000e+00  -5.0084280671181816e+00 -6.1919859786066418e+00 0.0000000000000000e+00  -6.8791886701349299e+00 -1.0332018148869759e+01 0.0000000000000000e+00  8.6749544395000253e+00 -2.1664125766711770e+01 0.0000000000000000e+00  -8.3339850238754991e+00 2.3824093276098598e+01 0.0000000000000000e+00  1.0000000000000000e-02 0.0000000000000000e+00 0.0000000000000000e+00  2.0705459061272744e-03 2.7285755270159344e-03 0.0000000000000000e+00  -4.6778810025942058e-02 5.8599234915221760e-02 0.0000000000000000e+00  -1.5787501080108871e-01 1.3446722532286315e-01 0.0000000000000000e+00  -3.3857402337543685e-01 2.1463979525115454e-01 0.0000000000000000e+00  -5.9045411833648498e-01 2.9321617663731475e-01 0.0000000000000000e+00  -9.1284545542445827e-01 3.6936600225939242e-01 0.0000000000000000e+00  -1.3052739405343823e+00 4.4450079056200847e-01 0.0000000000000000e+00  -1.7685379737689586e+00 5.2071043459917965e-01 0.0000000000000000e+00  -2.3049305450997966e+00 5.9987169260987827e-01 0.0000000000000000e+00  -2.9178550820540927e+00 6.8309248678264312e-01 0.0000000000000000e+00  -3.6109945807305941e+00 7.7029931898662063e-01 0.0000000000000000e+00  -4.3871149565981966e+00 8.5987661008866789e-01 0.0000000000000000e+00  -5.2465369592695081e+00 9.4833152063519577e-01 0.0000000000000000e+00  -6.1853181123815597e+00 1.0300100263234513e+00 0.0000000000000000e+00  -7.1932344042144525e+00 1.0969348671175361e+00 0.0000000000000000e+00  -8.2517415877979605e+00 1.1388652307702878e+00 0.0000000000000000e+00  -9.3322090067444492e+00 1.1436704623152534e+00 0.0000000000000000e+00  -1.0394804894609866e+01 1.0980364569913714e+00 0.0000000000000000e+00  -1.1388390942042953e+01 9.8837073112753315e-01 0.0000000000000000e+00  -1.2251529535435882e+01 8.0160121796257544e-01 0.0000000000000000e+00  -1.2914233775215569e+01 5.2558444251167380e-01 0.0000000000000000e+00  -1.3299574811844762e+01 1.4938729214527177e-01 0.0000000000000000e+00  -1.3324452295817666e+01 -3.3495765642703451e-01 0.0000000000000000e+00  -1.2901109592447819e+01 -9.2626657812332169e-01 0.0000000000000000e+00  -1.1943790960865016e+01 -1.6010748687354845e+00 0.0000000000000000e+00  -1.0392203134973609e+01 -2.2957939946647890e+00 0.0000000000000000e+00  -8.2531976042977906e+00 -2.8939806565408634e+00 0.0000000000000000e+00  -5.6711137264741822e+00 -3.2228693226984508e+00 0.0000000000000000e+00  -2.9828108498778052e+00 -3.0479053137590815e+00 0.0000000000000000e+00  -8.0350996423280063e-01 -2.0493800171308854e+00 0.0000000000000000e+00  3.3508428141402813e-02 7.6460006217759835e-02 0.0000000000000000e+00  -1.1934805079244195e+00 3.2897029221422946e+00 0.0000000000000000e+00  -5.3363001312668290e+00 6.3290667245966423e+00 0.0000000000000000e+00  -9.4380154303183890e+00 7.0233274352337443e+00 0.0000000000000000e+00  -1.2669962048791129e+01 4.7119334904041184e+00 0.0000000000000000e+00  -1.1356808235800292e+01 3.5364143136972586e+00 0.0000000000000000e+00  -1.3313335810740460e+01 -3.4863704090175331e+00 0.0000000000000000e+00  -8.0883013978096887e+00 -6.4425855351929275e+00 0.0000000000000000e+00  -8.6185374443385356e+00 -9.5421191604946121e-01 0.0000000000000000e+00  -1.3152197289025002e+01 4.6793749900600536e+00 0.0000000000000000e+00  -1.1534617847360506e+01 4.2530182274806272e+00 0.0000000000000000e+00  -9.2561633412306890e+00 2.5145934683204713e-01 0.0000000000000000e+00  -7.8120583503173107e+00 -3.3501975746042141e+00 0.0000000000000000e+00  -1.0351831175779962e+01 -7.0950093876971054e-01 0.0000000000000000e+00  -1.1672463930573601e+01 3.7014653680771092e-01 0.0000000000000000e+00  -8.0923706949480430e+00 -4.6637871281471313e+00 0.0000000000000000e+00  -5.2922553581430609e+00 -4.8925484865355253e+00 0.0000000000000000e+00  -1.3337146623556880e+01 -8.8535341220843975e+00 0.0000000000000000e+00  -9.1900361457524369e+00 -2.1136630843223898e+01 0.0000000000000000e+00  -7.2580158928105874e+01 1.1944794539968029e+01 0.0000000000000000e+00  1.0000000000000000e-02 0.0000000000000000e+00 0.0000000000000000e+00  -9.1096838332428536e-03 1.9262971974228542e-02 0.0000000000000000e+00  -8.4457145684761301e-02 1.0574763875887010e-01 0.0000000000000000e+00  -2.3333762656753562e-01 2.1816048110315542e-01 0.0000000000000000e+00  -4.6260727970108029e-01 3.3676687294708724e-01 0.0000000000000000e+00  -7.7415120441590679e-01 4.5388100047489244e-01 0.0000000000000000e+00  -1.1679462514366759e+00 5.6831961197434999e-01 0.0000000000000000e+00  -1.6442479402400623e+00 6.8195684321382755e-01 0.0000000000000000e+00  -2.2046138824757739e+00 7.9764745664417402e-01 0.0000000000000000e+00  -2.8521232568634098e+00 9.1796922615715926e-01 0.0000000000000000e+00  -3.5909436067548581e+00 1.0443979507293173e+00 0.0000000000000000e+00  -4.4253938988762043e+00 1.1766789963703461e+00 0.0000000000000000e+00  -5.3585726592506440e+00 1.3122755718562820e+00 0.0000000000000000e+00  -6.3905886389324316e+00 1.4458592259555609e+00 0.0000000000000000e+00  -7.5164437075331847e+00 1.5688844700309452e+00 0.0000000000000000e+00  -8.7236814608690647e+00 1.6693590221980557e+00 0.0000000000000000e+00  -9.9900336934671721e+00 1.7319719652158709e+00 0.0000000000000000e+00  -1.1281454016007045e+01 1.7387402683979891e+00 0.0000000000000000e+00  -1.2551064830928643e+01 1.6702277040489064e+00 0.0000000000000000e+00  -1.3739548986555151e+01 1.5071388747990253e+00 0.0000000000000000e+00  -1.4777181834794531e+01 1.2317545566783679e+00 0.0000000000000000e+00  -1.5586986146818560e+01 8.2853701848844330e-01 0.0000000000000000e+00  -1.6087364841922469e+01 2.8388451748657595e-01 0.0000000000000000e+00  -1.6192485599153262e+01 -4.1298014612830580e-01 0.0000000000000000e+00  -1.5810437987599572e+01 -1.2633148343154357e+00 0.0000000000000000e+00  -1.484474