<?xml version="1.0"?>
<VTKFile type="UnstructuredGrid"  version="0.1"  >
<UnstructuredGrid>
<Piece  NumberOfPoints="2601" NumberOfCells="5000">
<Points>
<DataArray  type="Float64"  NumberOfComponents="3"  format="ascii">0 0 0  0.04 0 0  0.08 0 0  0.12 0 0  0.16 0 0  0.2 0 0  0.24 0 0  0.28 0 0  0.32 0 0  0.36 0 0  0.4 0 0  0.44 0 0  0.48 0 0  0.52 0 0  0.5600000000000001 0 0  0.6 0 0  0.64 0 0  0.68 0 0  0.72 0 0  0.76 0 0  0.8 0 0  0.84 0 0  0.88 0 0  0.92 0 0  0.96 0 0  1 0 0  1.04 0 0  1.08 0 0  1.12 0 0  1.16 0 0  1.2 0 0  1.24 0 0  1.28 0 0  1.32 0 0  1.36 0 0  1.4 0 0  1.44 0 0  1.48 0 0  1.52 0 0  1.56 0 0  1.6 0 0  1.64 0 0  1.68 0 0  1.72 0 0  1.76 0 0  1.8 0 0  1.84 0 0  1.88 0 0  1.92 0 0  1.96 0 0  2 0 0  0 0.02 0  0.04 0.02 0  0.08 0.02 0  0.12 0.02 0  0.16 0.02 0  0.2 0.02 0  0.24 0.02 0  0.28 0.02 0  0.32 0.02 0  0.36 0.02 0  0.4 0.02 0  0.44 0.02 0  0.48 0.02 0  0.52 0.02 0  0.5600000000000001 0.02 0  0.6 0.02 0  0.64 0.02 0  0.68 0.02 0  0.72 0.02 0  0.76 0.02 0  0.8 0.02 0  0.84 0.02 0  0.88 0.02 0  0.92 0.02 0  0.96 0.02 0  1 0.02 0  1.04 0.02 0  1.08 0.02 0  1.12 0.02 0  1.16 0.02 0  1.2 0.02 0  1.24 0.02 0  1.28 0.02 0  1.32 0.02 0  1.36 0.02 0  1.4 0.02 0  1.44 0.02 0  1.48 0.02 0  1.52 0.02 0  1.56 0.02 0  1.6 0.02 0  1.64 0.02 0  1.68 0.02 0  1.72 0.02 0  1.76 0.02 0  1.8 0.02 0  1.84 0.02 0  1.88 0.02 0  1.92 0.02 0  1.96 0.02 0  2 0.02 0  0 0.04 0  0.04 0.04 0  0.08 0.04 0  0.12 0.04 0  0.16 0.04 0  0.2 0.04 0  0.24 0.04 0  0.28 0.04 0  0.32 0.04 0  0.36 0.04 0  0.4 0.04 0  0.44 0.04 0  0.48 0.04 0  0.52 0.04 0  0.5600000000000001 0.04 0  0.6 0.04 0  0.64 0.04 0  0.68 0.04 0  0.72 0.04 0  0.76 0.04 0  0.8 0.04 0  0.84 0.04 0  0.88 0.04 0  0.92 0.04 0  0.96 0.04 0  1 0.04 0  1.04 0.04 0  1.08 0.04 0  1.12 0.04 0  1.16 0.04 0  1.2 0.04 0  1.24 0.04 0  1.28 0.04 0  1.32 0.04 0  1.36 0.04 0  1.4 0.04 0  1.44 0.04 0  1.48 0.04 0  1.52 0.04 0  1.56 0.04 0  1.6 0.04 0  1.64 0.04 0  1.68 0.04 0  1.72 0.04 0  1.76 0.04 0  1.8 0.04 0  1.84 0.04 0  1.88 0.04 0  1.92 0.04 0  1.96 0.04 0  2 0.04 0  0 0.06 0  0.04 0.06 0  0.08 0.06 0  0.12 0.06 0  0.16 0.06 0  0.2 0.06 0  0.24 0.06 0  0.28 0.06 0  0.32 0.06 0  0.36 0.06 0  0.4 0.06 0  0.44 0.06 0  0.48 0.06 0  0.52 0.06 0  0.5600000000000001 0.06 0  0.6 0.06 0  0.64 0.06 0  0.68 0.06 0  0.72 0.06 0  0.76 0.06 0  0.8 0.06 0  0.84 0.06 0  0.88 0.06 0  0.92 0.06 0  0.96 0.06 0  1 0.06 0  1.04 0.06 0  1.08 0.06 0  1.12 0.06 0  1.16 0.06 0  1.2 0.06 0  1.24 0.06 0  1.28 0.06 0  1.32 0.06 0  1.36 0.06 0  1.4 0.06 0  1.44 0.06 0  1.48 0.06 0  1.52 0.06 0  1.56 0.06 0  1.6 0.06 0  1.64 0.06 0  1.68 0.06 0  1.72 0.06 0  1.76 0.06 0  1.8 0.06 0  1.84 0.06 0  1.88 0.06 0  1.92 0.06 0  1.96 0.06 0  2 0.06 0  0 0.08 0  0.04 0.08 0  0.08 0.08 0  0.12 0.08 0  0.16 0.08 0  0.2 0.08 0  0.24 0.08 0  0.28 0.08 0  0.32 0.08 0  0.36 0.08 0  0.4 0.08 0  0.44 0.08 0  0.48 0.08 0  0.52 0.08 0  0.5600000000000001 0.08 0  0.6 0.08 0  0.64 0.08 0  0.68 0.08 0  0.72 0.08 0  0.76 0.08 0  0.8 0.08 0  0.84 0.08 0  0.88 0.08 0  0.92 0.08 0  0.96 0.08 0  1 0.08 0  1.04 0.08 0  1.08 0.08 0  1.12 0.08 0  1.16 0.08 0  1.2 0.08 0  1.24 0.08 0  1.28 0.08 0  1.32 0.08 0  1.36 0.08 0  1.4 0.08 0  1.44 0.08 0  1.48 0.08 0  1.52 0.08 0  1.56 0.08 0  1.6 0.08 0  1.64 0.08 0  1.68 0.08 0  1.72 0.08 0  1.76 0.08 0  1.8 0.08 0  1.84 0.08 0  1.88 0.08 0  1.92 0.08 0  1.96 0.08 0  2 0.08 0  0 0.1 0  0.04 0.1 0  0.08 0.1 0  0.12 0.1 0  0.16 0.1 0  0.2 0.1 0  0.24 0.1 0  0.28 0.1 0  0.32 0.1 0  0.36 0.1 0  0.4 0.1 0  0.44 0.1 0  0.48 0.1 0  0.52 0.1 0  0.5600000000000001 0.1 0  0.6 0.1 0  0.64 0.1 0  0.68 0.1 0  0.72 0.1 0  0.76 0.1 0  0.8 0.1 0  0.84 0.1 0  0.88 0.1 0  0.92 0.1 0  0.96 0.1 0  1 0.1 0  1.04 0.1 0  1.08 0.1 0  1.12 0.1 0  1.16 0.1 0  1.2 0.1 0  1.24 0.1 0  1.28 0.1 0  1.32 0.1 0  1.36 0.1 0  1.4 0.1 0  1.44 0.1 0  1.48 0.1 0  1.52 0.1 0  1.56 0.1 0  1.6 0.1 0  1.64 0.1 0  1.68 0.1 0  1.72 0.1 0  1.76 0.1 0  1.8 0.1 0  1.84 0.1 0  1.88 0.1 0  1.92 0.1 0  1.96 0.1 0  2 0.1 0  0 0.12 0  0.04 0.12 0  0.08 0.12 0  0.12 0.12 0  0.16 0.12 0  0.2 0.12 0  0.24 0.12 0  0.28 0.12 0  0.32 0.12 0  0.36 0.12 0  0.4 0.12 0  0.44 0.12 0  0.48 0.12 0  0.52 0.12 0  0.5600000000000001 0.12 0  0.6 0.12 0  0.64 0.12 0  0.68 0.12 0  0.72 0.12 0  0.76 0.12 0  0.8 0.12 0  0.84 0.12 0  0.88 0.12 0  0.92 0.12 0  0.96 0.12 0  1 0.12 0  1.04 0.12 0  1.08 0.12 0  1.12 0.12 0  1.16 0.12 0  1.2 0.12 0  1.24 0.12 0  1.28 0.12 0  1.32 0.12 0  1.36 0.12 0  1.4 0.12 0  1.44 0.12 0  1.48 0.12 0  1.52 0.12 0  1.56 0.12 0  1.6 0.12 0  1.64 0.12 0  1.68 0.12 0  1.72 0.12 0  1.76 0.12 0  1.8 0.12 0  1.84 0.12 0  1.88 0.12 0  1.92 0.12 0  1.96 0.12 0  2 0.12 0  0 0.14 0  0.04 0.14 0  0.08 0.14 0  0.12 0.14 0  0.16 0.14 0  0.2 0.14 0  0.24 0.14 0  0.28 0.14 0  0.32 0.14 0  0.36 0.14 0  0.4 0.14 0  0.44 0.14 0  0.48 0.14 0  0.52 0.14 0  0.5600000000000001 0.14 0  0.6 0.14 0  0.64 0.14 0  0.68 0.14 0  0.72 0.14 0  0.76 0.14 0  0.8 0.14 0  0.84 0.14 0  0.88 0.14 0  0.92 0.14 0  0.96 0.14 0  1 0.14 0  1.04 0.14 0  1.08 0.14 0  1.12 0.14 0  1.16 0.14 0  1.2 0.14 0  1.24 0.14 0  1.28 0.14 0  1.32 0.14 0  1.36 0.14 0  1.4 0.14 0  1.44 0.14 0  1.48 0.14 0  1.52 0.14 0  1.56 0.14 0  1.6 0.14 0  1.64 0.14 0  1.68 0.14 0  1.72 0.14 0  1.76 0.14 0  1.8 0.14 0  1.84 0.14 0  1.88 0.14 0  1.92 0.14 0  1.96 0.14 0  2 0.14 0  0 0.16 0  0.04 0.16 0  0.08 0.16 0  0.12 0.16 0  0.16 0.16 0  0.2 0.16 0  0.24 0.16 0  0.28 0.16 0  0.32 0.16 0  0.36 0.16 0  0.4 0.16 0  0.44 0.16 0  0.48 0.16 0  0.52 0.16 0  0.5600000000000001 0.16 0  0.6 0.16 0  0.64 0.16 0  0.68 0.16 0  0.72 0.16 0  0.76 0.16 0  0.8 0.16 0  0.84 0.16 0  0.88 0.16 0  0.92 0.16 0  0.96 0.16 0  1 0.16 0  1.04 0.16 0  1.08 0.16 0  1.12 0.16 0  1.16 0.16 0  1.2 0.16 0  1.24 0.16 0  1.28 0.16 0  1.32 0.16 0  1.36 0.16 0  1.4 0.16 0  1.44 0.16 0  1.48 0.16 0  1.52 0.16 0  1.56 0.16 0  1.6 0.16 0  1.64 0.16 0  1.68 0.16 0  1.72 0.16 0  1.76 0.16 0  1.8 0.16 0  1.84 0.16 0  1.88 0.16 0  1.92 0.16 0  1.96 0.16 0  2 0.16 0  0 0.18 0  0.04 0.18 0  0.08 0.18 0  0.12 0.18 0  0.16 0.18 0  0.2 0.18 0  0.24 0.18 0  0.28 0.18 0  0.32 0.18 0  0.36 0.18 0  0.4 0.18 0  0.44 0.18 0  0.48 0.18 0  0.52 0.18 0  0.5600000000000001 0.18 0  0.6 0.18 0  0.64 0.18 0  0.68 0.18 0  0.72 0.18 0  0.76 0.18 0  0.8 0.18 0  0.84 0.18 0  0.88 0.18 0  0.92 0.18 0  0.96 0.18 0  1 0.18 0  1.04 0.18 0  1.08 0.18 0  1.12 0.18 0  1.16 0.18 0  1.2 0.18 0  1.24 0.18 0  1.28 0.18 0  1.32 0.18 0  1.36 0.18 0  1.4 0.18 0  1.44 0.18 0  1.48 0.18 0  1.52 0.18 0  1.56 0.18 0  1.6 0.18 0  1.64 0.18 0  1.68 0.18 0  1.72 0.18 0  1.76 0.18 0  1.8 0.18 0  1.84 0.18 0  1.88 0.18 0  1.92 0.18 0  1.96 0.18 0  2 0.18 0  0 0.2 0  0.04 0.2 0  0.08 0.2 0  0.12 0.2 0  0.16 0.2 0  0.2 0.2 0  0.24 0.2 0  0.28 0.2 0  0.32 0.2 0  0.36 0.2 0  0.4 0.2 0  0.44 0.2 0  0.48 0.2 0  0.52 0.2 0  0.5600000000000001 0.2 0  0.6 0.2 0  0.64 0.2 0  0.68 0.2 0  0.72 0.2 0  0.76 0.2 0  0.8 0.2 0  0.84 0.2 0  0.88 0.2 0  0.92 0.2 0  0.96 0.2 0  1 0.2 0  1.04 0.2 0  1.08 0.2 0  1.12 0.2 0  1.16 0.2 0  1.2 0.2 0  1.24 0.2 0  1.28 0.2 0  1.32 0.2 0  1.36 0.2 0  1.4 0.2 0  1.44 0.2 0  1.48 0.2 0  1.52 0.2 0  1.56 0.2 0  1.6 0.2 0  1.64 0.2 0  1.68 0.2 0  1.72 0.2 0  1.76 0.2 0  1.8 0.2 0  1.84 0.2 0  1.88 0.2 0  1.92 0.2 0  1.96 0.2 0  2 0.2 0  0 0.22 0  0.04 0.22 0  0.08 0.22 0  0.12 0.22 0  0.16 0.22 0  0.2 0.22 0  0.24 0.22 0  0.28 0.22 0  0.32 0.22 0  0.36 0.22 0  0.4 0.22 0  0.44 0.22 0  0.48 0.22 0  0.52 0.22 0  0.5600000000000001 0.22 0  0.6 0.22 0  0.64 0.22 0  0.68 0.22 0  0.72 0.22 0  0.76 0.22 0  0.8 0.22 0  0.84 0.22 0  0.88 0.22 0  0.92 0.22 0  0.96 0.22 0  1 0.22 0  1.04 0.22 0  1.08 0.22 0  1.12 0.22 0  1.16 0.22 0  1.2 0.22 0  1.24 0.22 0  1.28 0.22 0  1.32 0.22 0  1.36 0.22 0  1.4 0.22 0  1.44 0.22 0  1.48 0.22 0  1.52 0.22 0  1.56 0.22 0  1.6 0.22 0  1.64 0.22 0  1.68 0.22 0  1.72 0.22 0  1.76 0.22 0  1.8 0.22 0  1.84 0.22 0  1.88 0.22 0  1.92 0.22 0  1.96 0.22 0  2 0.22 0  0 0.24 0  0.04 0.24 0  0.08 0.24 0  0.12 0.24 0  0.16 0.24 0  0.2 0.24 0  0.24 0.24 0  0.28 0.24 0  0.32 0.24 0  0.36 0.24 0  0.4 0.24 0  0.44 0.24 0  0.48 0.24 0  0.52 0.24 0  0.5600000000000001 0.24 0  0.6 0.24 0  0.64 0.24 0  0.68 0.24 0  0.72 0.24 0  0.76 0.24 0  0.8 0.24 0  0.84 0.24 0  0.88 0.24 0  0.92 0.24 0  0.96 0.24 0  1 0.24 0  1.04 0.24 0  1.08 0.24 0  1.12 0.24 0  1.16 0.24 0  1.2 0.24 0  1.24 0.24 0  1.28 0.24 0  1.32 0.24 0  1.36 0.24 0  1.4 0.24 0  1.44 0.24 0  1.48 0.24 0  1.52 0.24 0  1.56 0.24 0  1.6 0.24 0  1.64 0.24 0  1.68 0.24 0  1.72 0.24 0  1.76 0.24 0  1.8 0.24 0  1.84 0.24 0  1.88 0.24 0  1.92 0.24 0  1.96 0.24 0  2 0.24 0  0 0.26 0  0.04 0.26 0  0.08 0.26 0  0.12 0.26 0  0.16 0.26 0  0.2 0.26 0  0.24 0.26 0  0.28 0.26 0  0.32 0.26 0  0.36 0.26 0  0.4 0.26 0  0.44 0.26 0  0.48 0.26 0  0.52 0.26 0  0.5600000000000001 0.26 0  0.6 0.26 0  0.64 0.26 0  0.68 0.26 0  0.72 0.26 0  0.76 0.26 0  0.8 0.26 0  0.84 0.26 0  0.88 0.26 0  0.92 0.26 0  0.96 0.26 0  1 0.26 0  1.04 0.26 0  1.08 0.26 0  1.12 0.26 0  1.16 0.26 0  1.2 0.26 0  1.24 0.26 0  1.28 0.26 0  1.32 0.26 0  1.36 0.26 0  1.4 0.26 0  1.44 0.26 0  1.48 0.26 0  1.52 0.26 0  1.56 0.26 0  1.6 0.26 0  1.64 0.26 0  1.68 0.26 0  1.72 0.26 0  1.76 0.26 0  1.8 0.26 0  1.84 0.26 0  1.88 0.26 0  1.92 0.26 0  1.96 0.26 0  2 0.26 0  0 0.28 0  0.04 0.28 0  0.08 0.28 0  0.12 0.28 0  0.16 0.28 0  0.2 0.28 0  0.24 0.28 0  0.28 0.28 0  0.32 0.28 0  0.36 0.28 0  0.4 0.28 0  0.44 0.28 0  0.48 0.28 0  0.52 0.28 0  0.5600000000000001 0.28 0  0.6 0.28 0  0.64 0.28 0  0.68 0.28 0  0.72 0.28 0  0.76 0.28 0  0.8 0.28 0  0.84 0.28 0  0.88 0.28 0  0.92 0.28 0  0.96 0.28 0  1 0.28 0  1.04 0.28 0  1.08 0.28 0  1.12 0.28 0  1.16 0.28 0  1.2 0.28 0  1.24 0.28 0  1.28 0.28 0  1.32 0.28 0  1.36 0.28 0  1.4 0.28 0  1.44 0.28 0  1.48 0.28 0  1.52 0.28 0  1.56 0.28 0  1.6 0.28 0  1.64 0.28 0  1.68 0.28 0  1.72 0.28 0  1.76 0.28 0  1.8 0.28 0  1.84 0.28 0  1.88 0.28 0  1.92 0.28 0  1.96 0.28 0  2 0.28 0  0 0.3 0  0.04 0.3 0  0.08 0.3 0  0.12 0.3 0  0.16 0.3 0  0.2 0.3 0  0.24 0.3 0  0.28 0.3 0  0.32 0.3 0  0.36 0.3 0  0.4 0.3 0  0.44 0.3
[...]
<PointData  Vectors="f_26-0"> 
<DataArray  type="Float64"  Name="f_26-0"  NumberOfComponents="3" format="ascii">0.0000000000000000e+00 0.0000000000000000e+00 0.0000000000000000e+00  0.0000000000000000e+00 0.0000000000000000e+00 0.0000000000000000e+00  0.0000000000000000e+00 0.0000000000000000e+00 0.0000000000000000e+00  0.0000000000000000e+00 0.0000000000000000e+00 0.0000000000000000e+00  0.0000000000000000e+00 0.0000000000000000e+00 0.0000000000000000e+00  0.0000000000000000e+00 0.0000000000000000e+00 0.0000000000000000e+00  0.0000000000000000e+00 0.0000000000000000e+00 0.0000000000000000e+00  0.0000000000000000e+00 0.0000000000000000e+00 0.0000000000000000e+00  0.0000000000000000e+00 0.0000000000000000e+00 0.0000000000000000e+00  0.0000000000000000e+00 0.0000000000000000e+00 0.0000000000000000e+00  0.0000000000000000e+00 0.0000000000000000e+00 0.0000000000000000e+00  0.0000000000000000e+00 0.0000000000000000e+00 0.0000000000000000e+00  0.0000000000000000e+00 0.0000000000000000e+00 0.0000000000000000e+00  0.0000000000000000e+00 0.0000000000000000e+00 0.0000000000000000e+00  0.0000000000000000e+00 0.0000000000000000e+00 0.0000000000000000e+00  0.0000000000000000e+00 0.0000000000000000e+00 0.0000000000000000e+00  0.0000000000000000e+00 0.0000000000000000e+00 0.0000000000000000e+00  0.0000000000000000e+00 0.0000000000000000e+00 0.0000000000000000e+00  0.0000000000000000e+00 0.0000000000000000e+00 0.0000000000000000e+00  0.0000000000000000e+00 0.0000000000000000e+00 0.0000000000000000e+00  0.0000000000000000e+00 0.0000000000000000e+00 0.0000000000000000e+00  0.0000000000000000e+00 0.0000000000000000e+00 0.0000000000000000e+00  0.0000000000000000e+00 0.0000000000000000e+00 0.0000000000000000e+00  0.0000000000000000e+00 0.0000000000000000e+00 0.0000000000000000e+00  0.0000000000000000e+00 0.0000000000000000e+00 0.0000000000000000e+00  0.0000000000000000e+00 0.0000000000000000e+00 0.0000000000000000e+00  0.0000000000000000e+00 0.0000000000000000e+00 0.0000000000000000e+00  0.0000000000000000e+00 0.0000000000000000e+00 0.0000000000000000e+00  0.0000000000000000e+00 0.0000000000000000e+00 0.0000000000000000e+00  0.0000000000000000e+00 0.0000000000000000e+00 0.0000000000000000e+00  0.0000000000000000e+00 0.0000000000000000e+00 0.0000000000000000e+00  0.0000000000000000e+00 0.0000000000000000e+00 0.0000000000000000e+00  0.0000000000000000e+00 0.0000000000000000e+00 0.0000000000000000e+00  0.0000000000000000e+00 0.0000000000000000e+00 0.0000000000000000e+00  0.0000000000000000e+00 0.0000000000000000e+00 0.0000000000000000e+00  0.0000000000000000e+00 0.0000000000000000e+00 0.0000000000000000e+00  0.0000000000000000e+00 0.0000000000000000e+00 0.0000000000000000e+00  0.0000000000000000e+00 0.0000000000000000e+00 0.0000000000000000e+00  0.0000000000000000e+00 0.0000000000000000e+00 0.0000000000000000e+00  0.0000000000000000e+00 0.0000000000000000e+00 0.0000000000000000e+00  0.0000000000000000e+00 0.0000000000000000e+00 0.0000000000000000e+00  0.0000000000000000e+00 0.0000000000000000e+00 0.0000000000000000e+00  0.0000000000000000e+00 0.0000000000000000e+00 0.0000000000000000e+00  0.0000000000000000e+00 0.0000000000000000e+00 0.0000000000000000e+00  0.0000000000000000e+00 0.0000000000000000e+00 0.0000000000000000e+00  0.0000000000000000e+00 0.0000000000000000e+00 0.0000000000000000e+00  0.0000000000000000e+00 0.0000000000000000e+00 0.0000000000000000e+00  0.0000000000000000e+00 0.0000000000000000e+00 0.0000000000000000e+00  0.0000000000000000e+00 0.0000000000000000e+00 0.0000000000000000e+00  0.0000000000000000e+00 0.0000000000000000e+00 0.0000000000000000e+00  0.0000000000000000e+00 0.0000000000000000e+00 0.0000000000000000e+00  1.0000000000000000e-02 0.0000000000000000e+00 0.0000000000000000e+00  5.5217251844517028e-02 -2.7052217454668463e-02 0.0000000000000000e+00  2.5254644237607210e-01 -7.0294644510522350e-02 0.0000000000000000e+00  5.8273199516898266e-01 -9.8479326561216149e-02 0.0000000000000000e+00  9.9744732642684431e-01 -1.1635154777278410e-01 0.0000000000000000e+00  1.4686873526448292e+00 -1.2852396910692801e-01 0.0000000000000000e+00  1.9809318293330540e+00 -1.3780497166275407e-01 0.0000000000000000e+00  2.5263379113813351e+00 -1.4562360349076228e-01 0.0000000000000000e+00  3.1007547588748237e+00 -1.5258852805213274e-01 0.0000000000000000e+00  3.7014961851665462e+00 -1.5889335302632887e-01 0.0000000000000000e+00  4.3265753131135209e+00 -1.6473935437296414e-01 0.0000000000000000e+00  4.9758694174262459e+00 -1.7097702700798934e-01 0.0000000000000000e+00  5.6555898402085143e+00 -1.8028185124143342e-01 0.0000000000000000e+00  6.3889438245229462e+00 -1.9938931121520237e-01 0.0000000000000000e+00  7.2383530418349338e+00 -2.4323885858650615e-01 0.0000000000000000e+00  8.3483562417728336e+00 -3.4226682479952136e-01 0.0000000000000000e+00  1.0023033260113406e+01 -5.5420693887940042e-01 0.0000000000000000e+00  1.2854549564827394e+01 -9.8050084491200973e-01 0.0000000000000000e+00  1.7910402027611816e+01 -1.7818643695366898e+00 0.0000000000000000e+00  2.6940113331695791e+01 -3.1713010109951894e+00 0.0000000000000000e+00  4.2425744630455092e+01 -5.3274630513667667e+00 0.0000000000000000e+00  6.7011998136761548e+01 -8.1172546659526716e+00 0.0000000000000000e+00  1.0146127608114419e+02 -1.0509847704194877e+01 0.0000000000000000e+00  1.4036092764435574e+02 -9.8523315730092307e+00 0.0000000000000000e+00  1.6694258347463361e+02 -2.1465955544533442e+00 0.0000000000000000e+00  1.5396197683053182e+02 1.4302231682217670e+01 0.0000000000000000e+00  8.1491031733821060e+01 3.1450391950492971e+01 0.0000000000000000e+00  -3.1524910772118293e+01 3.1091272751278321e+01 0.0000000000000000e+00  -1.2321796050202308e+02 8.1433251405745963e+00 0.0000000000000000e+00  -1.4861328337234531e+02 -1.1860376197387724e+01 0.0000000000000000e+00  -1.2871953022804681e+02 -1.3020462743787265e+01 0.0000000000000000e+00  -9.9001002830549822e+01 -1.0279138850963877e+01 0.0000000000000000e+00  -6.5978388443187171e+01 -1.1040213715576748e+01 0.0000000000000000e+00  -3.1958100893397930e+01 -7.2397734027596163e+00 0.0000000000000000e+00  -2.0222141213278899e+01 -1.7088773163216544e+00 0.0000000000000000e+00  -1.2430619359093729e+01 -9.8021234860089166e+00 0.0000000000000000e+00  3.1184282517091241e+01 -7.9950468230918030e+00 0.0000000000000000e+00  -3.1393321021123100e+01 6.0403994508750770e+01 0.0000000000000000e+00  -1.1808890266611114e+02 -1.9363861242204297e+01 0.0000000000000000e+00  -2.6212221468196162e+02 8.9639569232586979e+01 0.0000000000000000e+00  -3.8918140988091187e+02 1.8295019897609922e+01 0.0000000000000000e+00  -1.9076887879944539e+02 -2.7380153663225897e+01 0.0000000000000000e+00  -1.0847593957269135e+02 5.1133723559919169e+01 0.0000000000000000e+00  -1.7397197302051120e+02 8.7197450239001792e+00 0.0000000000000000e+00  1.0616294202710709e+02 -9.8262254057006629e+01 0.0000000000000000e+00  3.2989215440080113e+02 -1.2871519772696044e+02 0.0000000000000000e+00  -2.6060030354336720e+02 8.5960846105616668e+01 0.0000000000000000e+00  -6.9950993992355086e+02 -1.4632899899753340e+02 0.0000000000000000e+00  1.0314944986260295e+02 -4.0840024834945666e+01 0.0000000000000000e+00  2.1590536976723624e+02 -9.2236105798621807e+01 0.0000000000000000e+00  -1.7117022924104540e+02 8.0629586848138615e+02 0.0000000000000000e+00  1.0000000000000000e-02 0.0000000000000000e+00 0.0000000000000000e+00  1.3509007849908794e-01 -1.1978315410475052e-01 0.0000000000000000e+00  5.1319505747952376e-01 -2.6536706190744164e-01 0.0000000000000000e+00  1.1046523046701429e+00 -3.6562434757875883e-01 0.0000000000000000e+00  1.8441576829569339e+00 -4.3181979270840637e-01 0.0000000000000000e+00  2.6874395178941750e+00 -4.7816738019968452e-01 0.0000000000000000e+00  3.6083636544164133e+00 -5.1406976861396936e-01 0.0000000000000000e+00  4.5932330883396295e+00 -5.4463968941620222e-01 0.0000000000000000e+00  5.6349556658207867e+00 -5.7221798135289048e-01 0.0000000000000000e+00  6.7295436443819794e+00 -5.9771214069452339e-01 0.0000000000000000e+00  7.8748950948094159e+00 -6.2209253732584746e-01 0.0000000000000000e+00  9.0727792855199336e+00 -6.4868048387397514e-01 0.0000000000000000e+00  1.0336190766081092e+01 -6.8728518338803768e-01 0.0000000000000000e+00  1.1706428151286485e+01 -7.6192503443743043e-01 0.0000000000000000e+00  1.3287644104731442e+01 -9.2486327552690262e-01 0.0000000000000000e+00  1.5311322195676413e+01 -1.2807404286912889e+00 0.0000000000000000e+00  1.8247964598330725e+01 -2.0244702231523823e+00 0.0000000000000000e+00  2.2983101009489832e+01 -3.4915538229472762e+00 0.0000000000000000e+00  3.1055240157659394e+01 -6.2003526039701624e+00 0.0000000000000000e+00  4.4882693744578894e+01 -1.0815084418556760e+01 0.0000000000000000e+00  6.7736397170403237e+01 -1.7856021298212937e+01 0.0000000000000000e+00  1.0292258613857869e+02 -2.6852845959757762e+01 0.0000000000000000e+00  1.5139233693679728e+02 -3.4697765908008982e+01 0.0000000000000000e+00  2.0744302538837414e+02 -3.3829582086256735e+01 0.0000000000000000e+00  2.5423954892213098e+02 -1.3303178667535198e+01 0.0000000000000000e+00  2.6412446804724004e+02 3.1899715966028701e+01 0.0000000000000000e+00  2.0917757284352678e+02 8.4276222511666376e+01 0.0000000000000000e+00  8.2870413626266753e+01 1.0271386309203790e+02 0.0000000000000000e+00  -7.6678198728621524e+01 6.4097555723260172e+01 0.0000000000000000e+00  -1.8998827933757175e+02 6.1916812136262473e+00 0.0000000000000000e+00  -2.0623418985143806e+02 -2.0829764775535981e+01 0.0000000000000000e+00  -1.5998601528953080e+02 -2.5497020024298667e+01 0.0000000000000000e+00  -1.0476770210385705e+02 -3.4188136728231690e+01 0.0000000000000000e+00  -4.2630017705162942e+01 -2.4647227661451964e+01 0.0000000000000000e+00  -3.0040834099796392e+01 3.4196631035800840e-01 0.0000000000000000e+00  -5.4609712258284269e+01 -1.6477709768456879e+01 0.0000000000000000e+00  -2.4937638959504174e+01 -3.6864866058586806e+01 0.0000000000000000e+00  -3.5314396237419857e+01 1.5590522994639497e+02 0.0000000000000000e+00  -1.8714727196178671e+02 -5.1722576465499870e+01 0.0000000000000000e+00  -3.0565658858647174e+02 3.3286749997575015e+02 0.0000000000000000e+00  -2.0086098126156935e+02 -3.3808280380336663e+02 0.0000000000000000e+00  1.8316515551670264e+02 -2.3272726207303350e+02 0.0000000000000000e+00  6.2604751247949515e+01 1.1723112098745425e+02 0.0000000000000000e+00  3.2281007805241092e+02 -1.3627994828088427e+02 0.0000000000000000e+00  5.2153923256061887e+02 -4.2948665424959802e+02 0.0000000000000000e+00  3.9609182569862048e+02 3.4694423866483800e+02 0.0000000000000000e+00  -1.8884165156752726e+02 4.6950017494590173e+02 0.0000000000000000e+00  1.1235593853194658e+02 -2.4612899930377051e+02 0.0000000000000000e+00  6.1533102474697891e+01 -1.5853130745570419e+02 0.0000000000000000e+00  -1.9450746892361897e+02 5.2916304285279671e+02 0.0000000000000000e+00  8.6069837357276796e+01 7.6301313683799364e+01 0.0000000000000000e+00  1.0000000000000000e-02 0.0000000000000000e+00 0.0000000000000000e+00  2.1150616772453412e-01 -2.8046512427660714e-01 0.0000000000000000e+00  7.5206632799327433e-01 -5.6361784165164830e-01 0.0000000000000000e+00  1.5573201473884550e+00 -7.6601549777381095e-01 0.0000000000000000e+00  2.5553529675559052e+00 -9.0430109757251220e-01 0.0000000000000000e+00  3.6944338899400333e+00 -1.0036474111272373e+00 0.0000000000000000e+00  4.9428662201550795e+00 -1.0819136987407660e+00 0.0000000000000000e+00  6.2837641085981808e+00 -1.1494095508425717e+00 0.0000000000000000e+00  7.7088507234245620e+00 -1.2111785673499051e+00 0.0000000000000000e+00  9.2143839375475771e+00 -1.2694637130563213e+00 0.0000000000000000e+00  1.0799588528112096e+01 -1.3266268104907528e+00 0.0000000000000000e+00  1.2468768749968829e+01 -1.3896211303236599e+00 0.0000000000000000e+00  1.4239405220851106e+01 -1.4779348843731721e+00 0.0000000000000000e+00  1.6160643875195927e+01 -1.6380977786346309e+00 0.0000000000000000e+00  1.8349558754649475e+01 -1.9694236854908655e+00 0.0000000000000000e+00  2.1056070024811380e+01 -2.6670060463667604e+00 0.0000000000000000e+00  2.4769340355640946e+01 -4.0866387342581740e+00 0.0000000000000000e+00  3.0372762116321017e+01 -6.8255339643228528e+00 0.0000000000000000e+00  3.9327247591313878e+01 -1.1777343239857149e+01 0.0000000000000000e+00  5.3789660731935300e+01 -2.0035141806483203e+01 0.0000000000000000e+00  7.6437023455821674e+01 -3.2364069729371813e+01 0.0000000000000000e+00  1.0960952367248032e+02 -4.7820828791034486e+01 0.0000000000000000e+00  1.5345557160213937e+02 -6.1326245694980621e+01 0.0000000000000000e+00  2.0344222853540313e+02 -6.1390243049849197e+01 0.0000000000000000e+00  2.4869960936358981e+02 -3.2178579223887709e+01 0.0000000000000000e+00  2.7230519420081743e+02 3.4501972075268945e+01 0.0000000000000000e+00  2.5170909590637979e+02 1.1998164970166059e+02 0.0000000000000000e+00  1.6239916290740271e+02 1.7360215247986042e+02 0.0000000000000000e+00  3.4810396528697574e+00 1.4811139371470401e+02 0.0000000000000000e+00  -1.5755136669296823e+02 5.8855273456761601e+01 0.0000000000000000e+00  -2.2340014301321847e+02 -2.2062417757960255e+01 0.0000000000000000e+00  -1.8646094288237288e+02 -5.6089073851535382e+01 0.0000000000000000e+00  -1.1606400394890518e+02 -7.4032184160287358e+01 0.0000000000000000e+00  -7.8818790475993978e+00 -5.5753804852843984e+01 0.0000000000000000e+00  -7.7053290972019930e+00 1.4050771539746687e+01 0.0000000000000000e+00  -6.1316262580430354e+01 1.0450974928777724e+01 0.0000000000000000e+00  -1.3176151642521549e+02 -7.2180205361184605e+01 0.0000000000000000e+00  -6.1384110516626812e+01 2.3096597037937954e+02 0.0000000000000000e+00  -2.1969416584554006e+02 -4.9489265293449387e+00 0.0000000000000000e+00  -2.1662747904530332e+02 3.2690588399177437e+02 0.0000000000000000e+00  2.2355988504821829e+02 -5.5837896801923648e+02 0.0000000000000000e+00  3.0331379044505775e+02 -2.1236084612540029e+02 0.0000000000000000e+00  1.8098505954587492e+02 1.6965296290225845e+02 0.0000000000000000e+00  4.8534376858334861e+02 -3.1048279901341243e+02 0.0000000000000000e+00  2.9579001169387641e+02 -4.4800912951774433e+02 0.0000000000000000e+00  4.1463255167184860e+02 8.4470496162226948e+02 0.0000000000000000e+00  5.9320482148480858e+02 -3.7269835918035625e+02 0.0000000000000000e+00  2.5546090877434895e+02 -8.0962810012991071e+01 0.0000000000000000e+00  3.0889280730991487e+01 1.2201621096347614e+02 0.0000000000000000e+00  -1.0587867765266390e+02 2.8194479453680731e+02 0.0000000000000000e+00  3.2715014582607614e+02 -1.6449502580500945e+02 0.0000000000000000e+00  1.0000000000000000e-02 0.0000000000000000e+00 0.0000000000000000e+00  2.7642948194868738e-01 -5.0238925834643111e-01 0.0000000000000000e+00  9.5675140847437934e-01 -9.4931734566932058e-01 0.0000000000000000e+00  1.9389141343030105e+00 -1.2739330480642033e+00 0.0000000000000000e+00  3.1450807125589133e+00 -1.5019134904563802e+00 0.0000000000000000e+00  4.5209180107882236e+00 -1.6697292896093883e+00 0.0000000000000000e+00  6.0331761904648733e+00 -1.8044625362569393e+00 0.0000000000000000e+00  7.6644422441049969e+00 -1.9225005980340395e+00 0.0000000000000000e+00  9.4072069706013188e+00 -2.0323212750926509e+00 0.0000000000000000e+00  1.1259585600850961e+01 -2.1380395005470749e+00 0.0000000000000000e+00  1.3223359112000029e+01 -2.2437912886329352e+00 0.0000000000000000e+00  1.5305422721138319e+01 -2.3604207344391641e+00 0.0000000000000000e+00  1.7524497322499197e+01 -2.5171064328729473e+00 0.0000000000000000e+00  1.9926390772435159e+01 -2.7820819384283024e+00 0.0000000000000000e+00  2.2612727777442029e+01 -3.2984060704872764e+00 0.0000000000000000e+00  2.5789006006053054e+01 -4.3416706583358815e+00 0.0000000000000000e+00  2.9835339832754741e+01 -6.4028542297978630e+00 0.0000000000000000e+00  3.5391270584330599e+01 -1.0281869330533812e+01 0.0000000000000000e+00  4.3413462067767725e+01 -1.7127053092322601e+01 0.0000000000000000e+00  5.5101619436348059e+01 -2.8247485533844113e+01 0.0000000000000000e+00  7.1506187964678602e+01 -4.4358269773433356e+01 0.0000000000000000e+00  9.2628702767098929e+01 -6.3832037037195946e+01 0.0000000000000000e+00  1.1615952533669154e+02 -7.9981504063430890e+01 0.0000000000000000e+00  1.3675698890631699e+02 -7.9121437515598515e+01 0.0000000000000000e+00  1.4731848515241867e+02 -4.3824935512986990e+01 0.0000000000000000e+00  1.4167923884791267e+02 3.4665911700959775e+01 0.0000000000000000e+00  1.1453278820370234e+02 1.3905827696660177e+02 0.0000000000000000e+00  5.8894383256966130e+01 2.2009704843495118e+02 0.0000000000000000e+00  -3.0793715833399077e+01 2.2011883038525940e+02 0.0000000000000000e+00  -1.3899131584856210e+02 1.2275891505049836e+02 0.0000000000000000e+00  -2.1085103015613853e+02 -1.1202215587501586e+01 0.0000000000000000e+00  -1.9026094871876066e+02 -9.0142125248123676e+01 0.0000000000000000e+00  -1.0236434292545739e+02 -1.3032365071606046e+02 0.0000000000000000e+00  7.4368815595370066e+01 -1.0371706866215641e+02 0.0000000000000000e+00  2.5579941259569473e+01 4.8751320204761718e+01 0.0000000000000000e+00  -3.2710614420804518e+01 6.7419086442636356e+01 0.0000000000000000e+00  -2.3871330138937057e+02 -9.2519566985905001e+01 0.0000000000000000e+00  -9.8841722512381594e+01 2.9171764654487640e+02 0.0000000000000000e+00  -1.6823501981988935e+02 4.3345346776022730e+01 0.0000000000000000e+00  -1.5261401937938924e+01 6.6103871969758302e+01 0.0000000000000000e+00  4.6807682922492438e+02 -5.0345197956874216e+02 0.0000000000000000e+00  1.3018764329713955e+01 -1.4000053257583812e+02 0.0000000000000000e+00  -6.6760605009127829e+01 1.1717497129243721e+02 0.0000000000000000e+00  1.3130318976031884e+02 -2.5841130468011829e+02 0.0000000000000000e+00  8.1225218772328240e+00 -2.3110034787089086e+02 0.0000000000000000e+00  -2.3408261511170699e+02 5.6155451019693419e+02 0.0000000000000000e+00  1.8849382605050192e+02 8.9805959859547528e+01 0.0000000000000000e+00  -1.9171897659598223e+01 1.0772495968199442e+02 0.0000000000000000e+00  -2.3211728809926353e+02 7.4741123437217240e+01 0.0000000000000000e+00  -1.2892646721335606e+02 1.8474818237074038e+00 0.0000000000000000e+00  -3.7418971806417524e+01 1.0513266700619425e+02 0.0000000000000000e+00  1.0000000000000000e-02 0.0000000000000000e+00 0.0000000000000000e+00  3.2854027444521278e-01 -7.7609250545728781e-01 0.0000000000000000e+00  1.1245475116005441e+00 -1.4085092218508459e+00 0.0000000000000000e+00  2.2523116135439296e+00 -1.8693923094203959e+00 0.0000000000000000e+00  3.6266441796712785e+00 -2.1999310815000275e+00 0.0000000000000000e+00  5.1927564359736547e+00 -2.4487813901862157e+00 0.0000000000000000e+00  6.9185158119352534e+00 -2.6526415212637842e+00 0.0000000000000000e+00  8.7882894425746692e+00 -2.8344791001593101e+00 0.0000000000000000e+00  1.0797254084516805e+01 -3.0067381001035272e+00 0.0000000000000000e+00  1.2947036626697546e+01 -3.1758055901438831e+00 0.0000000000000000e+00  1.5243262160624646e+01 -3.3476617363221162e+00 0.0000000000000000e+00  1.7695680810260125e+01 -3.5363794667149597e+00 0.0000000000000000e+00  2.0321847568776501e+01 -3.7785197584496997e+00 0.0000000000000000e+00  2.3155758045490231e+01 -4.1580619900077656e+00 0.0000000000000000e+00  2.6262683569379995e+01 -4.8480322101782223e+00 0.0000000000000000e+00  2.9759319551903708e+01 -6.1747268239452735e+00 0.0000000000000000e+00  3.3831205092991283e+01 -8.7034688348797022e+00 0.0000000000000000e+00  3.8721812266786685e+01 -1.3320062196026571e+01 0.0000000000000000e+00  4.4632695658532150e+01 -2.1220033130247810e+01 0.0000000000000000e+00  5.1423828463158117e+01 -3.3598509574007053e+01 0.0000000000000000e+00  5.7971410205083941e+01 -5.0683954479913297e+01 0.0000000000000000e+00  6.1161643665692459e+01 -6.9777573136239013e+01 0.0000000000000000e+00  5.4989246542771305e+01 -8.2656556648960944e+01 0.0000000000000000e+00  3.1114303243957924e+01 -7.4641647374656173e+01 0.0000000000000000e+00  -1.7051753880744748e+01 -2.9693698224878741e+01 0.0000000000000000e+00  -8.6615034359946534e+01 5.6234211297653431e+01 0.000000