<?xml version="1.0"?>
<VTKFile type="UnstructuredGrid"  version="0.1"  >
<UnstructuredGrid>
<Piece  NumberOfPoints="2601" NumberOfCells="5000">
<Points>
<DataArray  type="Float64"  NumberOfComponents="3"  format="ascii">0 0 0  0.04 0 0  0.08 0 0  0.12 0 0  0.16 0 0  0.2 0 0  0.24 0 0  0.28 0 0  0.32 0 0  0.36 0 0  0.4 0 0  0.44 0 0  0.48 0 0  0.52 0 0  0.5600000000000001 0 0  0.6 0 0  0.64 0 0  0.68 0 0  0.72 0 0  0.76 0 0  0.8 0 0  0.84 0 0  0.88 0 0  0.92 0 0  0.96 0 0  1 0 0  1.04 0 0  1.08 0 0  1.12 0 0  1.16 0 0  1.2 0 0  1.24 0 0  1.28 0 0  1.32 0 0  1.36 0 0  1.4 0 0  1.44 0 0  1.48 0 0  1.52 0 0  1.56 0 0  1.6 0 0  1.64 0 0  1.68 0 0  1.72 0 0  1.76 0 0  1.8 0 0  1.84 0 0  1.88 0 0  1.92 0 0  1.96 0 0  2 0 0  0 0.02 0  0.04 0.02 0  0.08 0.02 0  0.12 0.02 0  0.16 0.02 0  0.2 0.02 0  0.24 0.02 0  0.28 0.02 0  0.32 0.02 0  0.36 0.02 0  0.4 0.02 0  0.44 0.02 0  0.48 0.02 0  0.52 0.02 0  0.5600000000000001 0.02 0  0.6 0.02 0  0.64 0.02 0  0.68 0.02 0  0.72 0.02 0  0.76 0.02 0  0.8 0.02 0  0.84 0.02 0  0.88 0.02 0  0.92 0.02 0  0.96 0.02 0  1 0.02 0  1.04 0.02 0  1.08 0.02 0  1.12 0.02 0  1.16 0.02 0  1.2 0.02 0  1.24 0.02 0  1.28 0.02 0  1.32 0.02 0  1.36 0.02 0  1.4 0.02 0  1.44 0.02 0  1.48 0.02 0  1.52 0.02 0  1.56 0.02 0  1.6 0.02 0  1.64 0.02 0  1.68 0.02 0  1.72 0.02 0  1.76 0.02 0  1.8 0.02 0  1.84 0.02 0  1.88 0.02 0  1.92 0.02 0  1.96 0.02 0  2 0.02 0  0 0.04 0  0.04 0.04 0  0.08 0.04 0  0.12 0.04 0  0.16 0.04 0  0.2 0.04 0  0.24 0.04 0  0.28 0.04 0  0.32 0.04 0  0.36 0.04 0  0.4 0.04 0  0.44 0.04 0  0.48 0.04 0  0.52 0.04 0  0.5600000000000001 0.04 0  0.6 0.04 0  0.64 0.04 0  0.68 0.04 0  0.72 0.04 0  0.76 0.04 0  0.8 0.04 0  0.84 0.04 0  0.88 0.04 0  0.92 0.04 0  0.96 0.04 0  1 0.04 0  1.04 0.04 0  1.08 0.04 0  1.12 0.04 0  1.16 0.04 0  1.2 0.04 0  1.24 0.04 0  1.28 0.04 0  1.32 0.04 0  1.36 0.04 0  1.4 0.04 0  1.44 0.04 0  1.48 0.04 0  1.52 0.04 0  1.56 0.04 0  1.6 0.04 0  1.64 0.04 0  1.68 0.04 0  1.72 0.04 0  1.76 0.04 0  1.8 0.04 0  1.84 0.04 0  1.88 0.04 0  1.92 0.04 0  1.96 0.04 0  2 0.04 0  0 0.06 0  0.04 0.06 0  0.08 0.06 0  0.12 0.06 0  0.16 0.06 0  0.2 0.06 0  0.24 0.06 0  0.28 0.06 0  0.32 0.06 0  0.36 0.06 0  0.4 0.06 0  0.44 0.06 0  0.48 0.06 0  0.52 0.06 0  0.5600000000000001 0.06 0  0.6 0.06 0  0.64 0.06 0  0.68 0.06 0  0.72 0.06 0  0.76 0.06 0  0.8 0.06 0  0.84 0.06 0  0.88 0.06 0  0.92 0.06 0  0.96 0.06 0  1 0.06 0  1.04 0.06 0  1.08 0.06 0  1.12 0.06 0  1.16 0.06 0  1.2 0.06 0  1.24 0.06 0  1.28 0.06 0  1.32 0.06 0  1.36 0.06 0  1.4 0.06 0  1.44 0.06 0  1.48 0.06 0  1.52 0.06 0  1.56 0.06 0  1.6 0.06 0  1.64 0.06 0  1.68 0.06 0  1.72 0.06 0  1.76 0.06 0  1.8 0.06 0  1.84 0.06 0  1.88 0.06 0  1.92 0.06 0  1.96 0.06 0  2 0.06 0  0 0.08 0  0.04 0.08 0  0.08 0.08 0  0.12 0.08 0  0.16 0.08 0  0.2 0.08 0  0.24 0.08 0  0.28 0.08 0  0.32 0.08 0  0.36 0.08 0  0.4 0.08 0  0.44 0.08 0  0.48 0.08 0  0.52 0.08 0  0.5600000000000001 0.08 0  0.6 0.08 0  0.64 0.08 0  0.68 0.08 0  0.72 0.08 0  0.76 0.08 0  0.8 0.08 0  0.84 0.08 0  0.88 0.08 0  0.92 0.08 0  0.96 0.08 0  1 0.08 0  1.04 0.08 0  1.08 0.08 0  1.12 0.08 0  1.16 0.08 0  1.2 0.08 0  1.24 0.08 0  1.28 0.08 0  1.32 0.08 0  1.36 0.08 0  1.4 0.08 0  1.44 0.08 0  1.48 0.08 0  1.52 0.08 0  1.56 0.08 0  1.6 0.08 0  1.64 0.08 0  1.68 0.08 0  1.72 0.08 0  1.76 0.08 0  1.8 0.08 0  1.84 0.08 0  1.88 0.08 0  1.92 0.08 0  1.96 0.08 0  2 0.08 0  0 0.1 0  0.04 0.1 0  0.08 0.1 0  0.12 0.1 0  0.16 0.1 0  0.2 0.1 0  0.24 0.1 0  0.28 0.1 0  0.32 0.1 0  0.36 0.1 0  0.4 0.1 0  0.44 0.1 0  0.48 0.1 0  0.52 0.1 0  0.5600000000000001 0.1 0  0.6 0.1 0  0.64 0.1 0  0.68 0.1 0  0.72 0.1 0  0.76 0.1 0  0.8 0.1 0  0.84 0.1 0  0.88 0.1 0  0.92 0.1 0  0.96 0.1 0  1 0.1 0  1.04 0.1 0  1.08 0.1 0  1.12 0.1 0  1.16 0.1 0  1.2 0.1 0  1.24 0.1 0  1.28 0.1 0  1.32 0.1 0  1.36 0.1 0  1.4 0.1 0  1.44 0.1 0  1.48 0.1 0  1.52 0.1 0  1.56 0.1 0  1.6 0.1 0  1.64 0.1 0  1.68 0.1 0  1.72 0.1 0  1.76 0.1 0  1.8 0.1 0  1.84 0.1 0  1.88 0.1 0  1.92 0.1 0  1.96 0.1 0  2 0.1 0  0 0.12 0  0.04 0.12 0  0.08 0.12 0  0.12 0.12 0  0.16 0.12 0  0.2 0.12 0  0.24 0.12 0  0.28 0.12 0  0.32 0.12 0  0.36 0.12 0  0.4 0.12 0  0.44 0.12 0  0.48 0.12 0  0.52 0.12 0  0.5600000000000001 0.12 0  0.6 0.12 0  0.64 0.12 0  0.68 0.12 0  0.72 0.12 0  0.76 0.12 0  0.8 0.12 0  0.84 0.12 0  0.88 0.12 0  0.92 0.12 0  0.96 0.12 0  1 0.12 0  1.04 0.12 0  1.08 0.12 0  1.12 0.12 0  1.16 0.12 0  1.2 0.12 0  1.24 0.12 0  1.28 0.12 0  1.32 0.12 0  1.36 0.12 0  1.4 0.12 0  1.44 0.12 0  1.48 0.12 0  1.52 0.12 0  1.56 0.12 0  1.6 0.12 0  1.64 0.12 0  1.68 0.12 0  1.72 0.12 0  1.76 0.12 0  1.8 0.12 0  1.84 0.12 0  1.88 0.12 0  1.92 0.12 0  1.96 0.12 0  2 0.12 0  0 0.14 0  0.04 0.14 0  0.08 0.14 0  0.12 0.14 0  0.16 0.14 0  0.2 0.14 0  0.24 0.14 0  0.28 0.14 0  0.32 0.14 0  0.36 0.14 0  0.4 0.14 0  0.44 0.14 0  0.48 0.14 0  0.52 0.14 0  0.5600000000000001 0.14 0  0.6 0.14 0  0.64 0.14 0  0.68 0.14 0  0.72 0.14 0  0.76 0.14 0  0.8 0.14 0  0.84 0.14 0  0.88 0.14 0  0.92 0.14 0  0.96 0.14 0  1 0.14 0  1.04 0.14 0  1.08 0.14 0  1.12 0.14 0  1.16 0.14 0  1.2 0.14 0  1.24 0.14 0  1.28 0.14 0  1.32 0.14 0  1.36 0.14 0  1.4 0.14 0  1.44 0.14 0  1.48 0.14 0  1.52 0.14 0  1.56 0.14 0  1.6 0.14 0  1.64 0.14 0  1.68 0.14 0  1.72 0.14 0  1.76 0.14 0  1.8 0.14 0  1.84 0.14 0  1.88 0.14 0  1.92 0.14 0  1.96 0.14 0  2 0.14 0  0 0.16 0  0.04 0.16 0  0.08 0.16 0  0.12 0.16 0  0.16 0.16 0  0.2 0.16 0  0.24 0.16 0  0.28 0.16 0  0.32 0.16 0  0.36 0.16 0  0.4 0.16 0  0.44 0.16 0  0.48 0.16 0  0.52 0.16 0  0.5600000000000001 0.16 0  0.6 0.16 0  0.64 0.16 0  0.68 0.16 0  0.72 0.16 0  0.76 0.16 0  0.8 0.16 0  0.84 0.16 0  0.88 0.16 0  0.92 0.16 0  0.96 0.16 0  1 0.16 0  1.04 0.16 0  1.08 0.16 0  1.12 0.16 0  1.16 0.16 0  1.2 0.16 0  1.24 0.16 0  1.28 0.16 0  1.32 0.16 0  1.36 0.16 0  1.4 0.16 0  1.44 0.16 0  1.48 0.16 0  1.52 0.16 0  1.56 0.16 0  1.6 0.16 0  1.64 0.16 0  1.68 0.16 0  1.72 0.16 0  1.76 0.16 0  1.8 0.16 0  1.84 0.16 0  1.88 0.16 0  1.92 0.16 0  1.96 0.16 0  2 0.16 0  0 0.18 0  0.04 0.18 0  0.08 0.18 0  0.12 0.18 0  0.16 0.18 0  0.2 0.18 0  0.24 0.18 0  0.28 0.18 0  0.32 0.18 0  0.36 0.18 0  0.4 0.18 0  0.44 0.18 0  0.48 0.18 0  0.52 0.18 0  0.5600000000000001 0.18 0  0.6 0.18 0  0.64 0.18 0  0.68 0.18 0  0.72 0.18 0  0.76 0.18 0  0.8 0.18 0  0.84 0.18 0  0.88 0.18 0  0.92 0.18 0  0.96 0.18 0  1 0.18 0  1.04 0.18 0  1.08 0.18 0  1.12 0.18 0  1.16 0.18 0  1.2 0.18 0  1.24 0.18 0  1.28 0.18 0  1.32 0.18 0  1.36 0.18 0  1.4 0.18 0  1.44 0.18 0  1.48 0.18 0  1.52 0.18 0  1.56 0.18 0  1.6 0.18 0  1.64 0.18 0  1.68 0.18 0  1.72 0.18 0  1.76 0.18 0  1.8 0.18 0  1.84 0.18 0  1.88 0.18 0  1.92 0.18 0  1.96 0.18 0  2 0.18 0  0 0.2 0  0.04 0.2 0  0.08 0.2 0  0.12 0.2 0  0.16 0.2 0  0.2 0.2 0  0.24 0.2 0  0.28 0.2 0  0.32 0.2 0  0.36 0.2 0  0.4 0.2 0  0.44 0.2 0  0.48 0.2 0  0.52 0.2 0  0.5600000000000001 0.2 0  0.6 0.2 0  0.64 0.2 0  0.68 0.2 0  0.72 0.2 0  0.76 0.2 0  0.8 0.2 0  0.84 0.2 0  0.88 0.2 0  0.92 0.2 0  0.96 0.2 0  1 0.2 0  1.04 0.2 0  1.08 0.2 0  1.12 0.2 0  1.16 0.2 0  1.2 0.2 0  1.24 0.2 0  1.28 0.2 0  1.32 0.2 0  1.36 0.2 0  1.4 0.2 0  1.44 0.2 0  1.48 0.2 0  1.52 0.2 0  1.56 0.2 0  1.6 0.2 0  1.64 0.2 0  1.68 0.2 0  1.72 0.2 0  1.76 0.2 0  1.8 0.2 0  1.84 0.2 0  1.88 0.2 0  1.92 0.2 0  1.96 0.2 0  2 0.2 0  0 0.22 0  0.04 0.22 0  0.08 0.22 0  0.12 0.22 0  0.16 0.22 0  0.2 0.22 0  0.24 0.22 0  0.28 0.22 0  0.32 0.22 0  0.36 0.22 0  0.4 0.22 0  0.44 0.22 0  0.48 0.22 0  0.52 0.22 0  0.5600000000000001 0.22 0  0.6 0.22 0  0.64 0.22 0  0.68 0.22 0  0.72 0.22 0  0.76 0.22 0  0.8 0.22 0  0.84 0.22 0  0.88 0.22 0  0.92 0.22 0  0.96 0.22 0  1 0.22 0  1.04 0.22 0  1.08 0.22 0  1.12 0.22 0  1.16 0.22 0  1.2 0.22 0  1.24 0.22 0  1.28 0.22 0  1.32 0.22 0  1.36 0.22 0  1.4 0.22 0  1.44 0.22 0  1.48 0.22 0  1.52 0.22 0  1.56 0.22 0  1.6 0.22 0  1.64 0.22 0  1.68 0.22 0  1.72 0.22 0  1.76 0.22 0  1.8 0.22 0  1.84 0.22 0  1.88 0.22 0  1.92 0.22 0  1.96 0.22 0  2 0.22 0  0 0.24 0  0.04 0.24 0  0.08 0.24 0  0.12 0.24 0  0.16 0.24 0  0.2 0.24 0  0.24 0.24 0  0.28 0.24 0  0.32 0.24 0  0.36 0.24 0  0.4 0.24 0  0.44 0.24 0  0.48 0.24 0  0.52 0.24 0  0.5600000000000001 0.24 0  0.6 0.24 0  0.64 0.24 0  0.68 0.24 0  0.72 0.24 0  0.76 0.24 0  0.8 0.24 0  0.84 0.24 0  0.88 0.24 0  0.92 0.24 0  0.96 0.24 0  1 0.24 0  1.04 0.24 0  1.08 0.24 0  1.12 0.24 0  1.16 0.24 0  1.2 0.24 0  1.24 0.24 0  1.28 0.24 0  1.32 0.24 0  1.36 0.24 0  1.4 0.24 0  1.44 0.24 0  1.48 0.24 0  1.52 0.24 0  1.56 0.24 0  1.6 0.24 0  1.64 0.24 0  1.68 0.24 0  1.72 0.24 0  1.76 0.24 0  1.8 0.24 0  1.84 0.24 0  1.88 0.24 0  1.92 0.24 0  1.96 0.24 0  2 0.24 0  0 0.26 0  0.04 0.26 0  0.08 0.26 0  0.12 0.26 0  0.16 0.26 0  0.2 0.26 0  0.24 0.26 0  0.28 0.26 0  0.32 0.26 0  0.36 0.26 0  0.4 0.26 0  0.44 0.26 0  0.48 0.26 0  0.52 0.26 0  0.5600000000000001 0.26 0  0.6 0.26 0  0.64 0.26 0  0.68 0.26 0  0.72 0.26 0  0.76 0.26 0  0.8 0.26 0  0.84 0.26 0  0.88 0.26 0  0.92 0.26 0  0.96 0.26 0  1 0.26 0  1.04 0.26 0  1.08 0.26 0  1.12 0.26 0  1.16 0.26 0  1.2 0.26 0  1.24 0.26 0  1.28 0.26 0  1.32 0.26 0  1.36 0.26 0  1.4 0.26 0  1.44 0.26 0  1.48 0.26 0  1.52 0.26 0  1.56 0.26 0  1.6 0.26 0  1.64 0.26 0  1.68 0.26 0  1.72 0.26 0  1.76 0.26 0  1.8 0.26 0  1.84 0.26 0  1.88 0.26 0  1.92 0.26 0  1.96 0.26 0  2 0.26 0  0 0.28 0  0.04 0.28 0  0.08 0.28 0  0.12 0.28 0  0.16 0.28 0  0.2 0.28 0  0.24 0.28 0  0.28 0.28 0  0.32 0.28 0  0.36 0.28 0  0.4 0.28 0  0.44 0.28 0  0.48 0.28 0  0.52 0.28 0  0.5600000000000001 0.28 0  0.6 0.28 0  0.64 0.28 0  0.68 0.28 0  0.72 0.28 0  0.76 0.28 0  0.8 0.28 0  0.84 0.28 0  0.88 0.28 0  0.92 0.28 0  0.96 0.28 0  1 0.28 0  1.04 0.28 0  1.08 0.28 0  1.12 0.28 0  1.16 0.28 0  1.2 0.28 0  1.24 0.28 0  1.28 0.28 0  1.32 0.28 0  1.36 0.28 0  1.4 0.28 0  1.44 0.28 0  1.48 0.28 0  1.52 0.28 0  1.56 0.28 0  1.6 0.28 0  1.64 0.28 0  1.68 0.28 0  1.72 0.28 0  1.76 0.28 0  1.8 0.28 0  1.84 0.28 0  1.88 0.28 0  1.92 0.28 0  1.96 0.28 0  2 0.28 0  0 0.3 0  0.04 0.3 0  0.08 0.3 0  0.12 0.3 0  0.16 0.3 0  0.2 0.3 0  0.24 0.3 0  0.28 0.3 0  0.32 0.3 0  0.36 0.3 0  0.4 0.3 0  0.44 0.3
[...]
<PointData  Vectors="f_26-0"> 
<DataArray  type="Float64"  Name="f_26-0"  NumberOfComponents="3" format="ascii">0.0000000000000000e+00 0.0000000000000000e+00 0.0000000000000000e+00  0.0000000000000000e+00 0.0000000000000000e+00 0.0000000000000000e+00  0.0000000000000000e+00 0.0000000000000000e+00 0.0000000000000000e+00  0.0000000000000000e+00 0.0000000000000000e+00 0.0000000000000000e+00  0.0000000000000000e+00 0.0000000000000000e+00 0.0000000000000000e+00  0.0000000000000000e+00 0.0000000000000000e+00 0.0000000000000000e+00  0.0000000000000000e+00 0.0000000000000000e+00 0.0000000000000000e+00  0.0000000000000000e+00 0.0000000000000000e+00 0.0000000000000000e+00  0.0000000000000000e+00 0.0000000000000000e+00 0.0000000000000000e+00  0.0000000000000000e+00 0.0000000000000000e+00 0.0000000000000000e+00  0.0000000000000000e+00 0.0000000000000000e+00 0.0000000000000000e+00  0.0000000000000000e+00 0.0000000000000000e+00 0.0000000000000000e+00  0.0000000000000000e+00 0.0000000000000000e+00 0.0000000000000000e+00  0.0000000000000000e+00 0.0000000000000000e+00 0.0000000000000000e+00  0.0000000000000000e+00 0.0000000000000000e+00 0.0000000000000000e+00  0.0000000000000000e+00 0.0000000000000000e+00 0.0000000000000000e+00  0.0000000000000000e+00 0.0000000000000000e+00 0.0000000000000000e+00  0.0000000000000000e+00 0.0000000000000000e+00 0.0000000000000000e+00  0.0000000000000000e+00 0.0000000000000000e+00 0.0000000000000000e+00  0.0000000000000000e+00 0.0000000000000000e+00 0.0000000000000000e+00  0.0000000000000000e+00 0.0000000000000000e+00 0.0000000000000000e+00  0.0000000000000000e+00 0.0000000000000000e+00 0.0000000000000000e+00  0.0000000000000000e+00 0.0000000000000000e+00 0.0000000000000000e+00  0.0000000000000000e+00 0.0000000000000000e+00 0.0000000000000000e+00  0.0000000000000000e+00 0.0000000000000000e+00 0.0000000000000000e+00  0.0000000000000000e+00 0.0000000000000000e+00 0.0000000000000000e+00  0.0000000000000000e+00 0.0000000000000000e+00 0.0000000000000000e+00  0.0000000000000000e+00 0.0000000000000000e+00 0.0000000000000000e+00  0.0000000000000000e+00 0.0000000000000000e+00 0.0000000000000000e+00  0.0000000000000000e+00 0.0000000000000000e+00 0.0000000000000000e+00  0.0000000000000000e+00 0.0000000000000000e+00 0.0000000000000000e+00  0.0000000000000000e+00 0.0000000000000000e+00 0.0000000000000000e+00  0.0000000000000000e+00 0.0000000000000000e+00 0.0000000000000000e+00  0.0000000000000000e+00 0.0000000000000000e+00 0.0000000000000000e+00  0.0000000000000000e+00 0.0000000000000000e+00 0.0000000000000000e+00  0.0000000000000000e+00 0.0000000000000000e+00 0.0000000000000000e+00  0.0000000000000000e+00 0.0000000000000000e+00 0.0000000000000000e+00  0.0000000000000000e+00 0.0000000000000000e+00 0.0000000000000000e+00  0.0000000000000000e+00 0.0000000000000000e+00 0.0000000000000000e+00  0.0000000000000000e+00 0.0000000000000000e+00 0.0000000000000000e+00  0.0000000000000000e+00 0.0000000000000000e+00 0.0000000000000000e+00  0.0000000000000000e+00 0.0000000000000000e+00 0.0000000000000000e+00  0.0000000000000000e+00 0.0000000000000000e+00 0.0000000000000000e+00  0.0000000000000000e+00 0.0000000000000000e+00 0.0000000000000000e+00  0.0000000000000000e+00 0.0000000000000000e+00 0.0000000000000000e+00  0.0000000000000000e+00 0.0000000000000000e+00 0.0000000000000000e+00  0.0000000000000000e+00 0.0000000000000000e+00 0.0000000000000000e+00  0.0000000000000000e+00 0.0000000000000000e+00 0.0000000000000000e+00  0.0000000000000000e+00 0.0000000000000000e+00 0.0000000000000000e+00  0.0000000000000000e+00 0.0000000000000000e+00 0.0000000000000000e+00  0.0000000000000000e+00 0.0000000000000000e+00 0.0000000000000000e+00  1.0000000000000000e-02 0.0000000000000000e+00 0.0000000000000000e+00  7.5737235263576494e-03 1.4656382445826538e-03 0.0000000000000000e+00  4.4605163109715205e-03 5.4979707122103242e-04 0.0000000000000000e+00  3.2721866442226057e-03 2.6183475668562178e-04 0.0000000000000000e+00  2.5242224094375195e-03 1.4367760586099149e-04 0.0000000000000000e+00  2.0996238131795316e-03 9.0272029920740275e-05 0.0000000000000000e+00  1.8189057231956731e-03 5.8898913655652156e-05 0.0000000000000000e+00  1.6313132274027482e-03 3.9881524569712646e-05 0.0000000000000000e+00  1.5022670991704883e-03 2.7494079325735350e-05 0.0000000000000000e+00  1.4124340398639702e-03 1.9134848333591204e-05 0.0000000000000000e+00  1.3495394022089784e-03 1.3369552834258291e-05 0.0000000000000000e+00  1.3054493931854319e-03 9.3353506401249180e-06 0.0000000000000000e+00  1.2746184905451548e-03 6.4933279907761103e-06 0.0000000000000000e+00  1.2531723795649304e-03 4.4866470486333671e-06 0.0000000000000000e+00  1.2383694273240319e-03 3.0718687568384266e-06 0.0000000000000000e+00  1.2282545736003803e-03 2.0787173322367557e-06 0.0000000000000000e+00  1.2214298721208708e-03 1.3862124971880323e-06 0.0000000000000000e+00  1.2168965875685065e-03 9.0760822156317438e-07 0.0000000000000000e+00  1.2139438005939411e-03 5.8044975582359856e-07 0.0000000000000000e+00  1.2120684655986434e-03 3.5976511167523322e-07 0.0000000000000000e+00  1.2109174360904751e-03 2.1326386248576466e-07 0.0000000000000000e+00  1.2102452117506829e-03 1.1788175012306907e-07 0.0000000000000000e+00  1.2098831202297599e-03 5.7261134699643664e-08 0.0000000000000000e+00  1.2097168949914707e-03 1.9901199391665991e-08 0.0000000000000000e+00  1.2096704430302973e-03 -2.2028613909657600e-09 0.0000000000000000e+00  1.2096941756015304e-03 -1.4559314486918505e-08 0.0000000000000000e+00  1.2097566921758661e-03 -2.0910853119911970e-08 0.0000000000000000e+00  1.2098389155562805e-03 -2.3765937833907036e-08 0.0000000000000000e+00  1.2099300066626671e-03 -2.4782219283918056e-08 0.0000000000000000e+00  1.2100245615859781e-03 -2.5041042928196517e-08 0.0000000000000000e+00  1.2101207252218282e-03 -2.5242448738142970e-08 0.0000000000000000e+00  1.2102189552095177e-03 -2.5842768913283230e-08 0.0000000000000000e+00  1.2103212445346231e-03 -2.7151325736752716e-08 0.0000000000000000e+00  1.2104306666853230e-03 -2.9398420831340885e-08 0.0000000000000000e+00  1.2105511479218480e-03 -3.2783443907387289e-08 0.0000000000000000e+00  1.2106874000271319e-03 -3.7509186204589567e-08 0.0000000000000000e+00  1.2108449654168064e-03 -4.3805953569656607e-08 0.0000000000000000e+00  1.2110303348684234e-03 -5.1946402799311558e-08 0.0000000000000000e+00  1.2112510933450511e-03 -6.2247850057096070e-08 0.0000000000000000e+00  1.2115160242463226e-03 -7.5054253153172485e-08 0.0000000000000000e+00  1.2118350461071414e-03 -9.0668775916938041e-08 0.0000000000000000e+00  1.2122186905778156e-03 -1.0922298063242813e-07 0.0000000000000000e+00  1.2126767114847014e-03 -1.3023645156842920e-07 0.0000000000000000e+00  1.2132139876839319e-03 -1.5227145268682318e-07 0.0000000000000000e+00  1.2138241300576951e-03 -1.6928615895317906e-07 0.0000000000000000e+00  1.2144608024249686e-03 -1.7531544107280695e-07 0.0000000000000000e+00  1.2150341305633412e-03 -1.1322889644502478e-07 0.0000000000000000e+00  1.2150920711611313e-03 -2.3266424075514570e-08 0.0000000000000000e+00  1.2143767697380579e-03 8.2284428087043741e-07 0.0000000000000000e+00  1.2075524788792643e-03 1.6135090840669849e-06 0.0000000000000000e+00  1.1951720729573888e-03 1.3545669063143365e-05 0.0000000000000000e+00  1.0000000000000000e-02 0.0000000000000000e+00 0.0000000000000000e+00  9.9670631462113260e-03 2.9461812229169800e-03 0.0000000000000000e+00  7.5805981400154611e-03 1.5729929530181957e-03 0.0000000000000000e+00  5.8779424464339225e-03 8.6028792356202389e-04 0.0000000000000000e+00  4.7286274709313026e-03 5.1190945057586802e-04 0.0000000000000000e+00  4.0014937467158047e-03 3.2896626128635289e-04 0.0000000000000000e+00  3.5054969453632190e-03 2.1935323179597479e-04 0.0000000000000000e+00  3.1656689323386980e-03 1.5043629885874395e-04 0.0000000000000000e+00  2.9276227637096038e-03 1.0468778545360490e-04 0.0000000000000000e+00  2.7597830603267835e-03 7.3427444213248894e-05 0.0000000000000000e+00  2.6409722479688617e-03 5.1640100867794206e-05 0.0000000000000000e+00  2.5568889127939903e-03 3.6275158960380592e-05 0.0000000000000000e+00  2.4975669854197572e-03 2.5377959946108088e-05 0.0000000000000000e+00  2.4559420107216619e-03 1.7638091579459225e-05 0.0000000000000000e+00  2.4269538541058389e-03 1.2151135883729656e-05 0.0000000000000000e+00  2.4069572357039090e-03 8.2787111490443470e-06 0.0000000000000000e+00  2.3933223278538003e-03 5.5638633028038168e-06 0.0000000000000000e+00  2.3841549009821100e-03 3.6768416073629082e-06 0.0000000000000000e+00  2.3780960903803461e-03 2.3788947360058201e-06 0.0000000000000000e+00  2.3741769584040623e-03 1.4972156255770178e-06 0.0000000000000000e+00  2.3717119405473105e-03 9.0711888179693058e-07 0.0000000000000000e+00  2.3702204878184828e-03 5.1911721150521481e-07 0.0000000000000000e+00  2.3693694498886056e-03 2.6943643417424271e-07 0.0000000000000000e+00  2.3689308376867689e-03 1.1301163404768911e-07 0.0000000000000000e+00  2.3687510236310213e-03 1.8307832266710029e-08 0.0000000000000000e+00  2.3687284405782792e-03 -3.6502491352754374e-08 0.0000000000000000e+00  2.3687975726112802e-03 -6.6347849220795709e-08 0.0000000000000000e+00  2.3689175776246138e-03 -8.1308353058022087e-08 0.0000000000000000e+00  2.3690642959254835e-03 -8.8101990937552957e-08 0.0000000000000000e+00  2.3692247149002385e-03 -9.1153349789111039e-08 0.0000000000000000e+00  2.3693932007655153e-03 -9.3356019185779493e-08 0.0000000000000000e+00  2.3695689916213101e-03 -9.6612606657892111e-08 0.0000000000000000e+00  2.3697545843147181e-03 -1.0221520551951165e-07 0.0000000000000000e+00  2.3699547508090079e-03 -1.1111277034019733e-07 0.0000000000000000e+00  2.3701759951253107e-03 -1.2409889786875156e-07 0.0000000000000000e+00  2.3704263145061708e-03 -1.4194274035763801e-07 0.0000000000000000e+00  2.3707151605304711e-03 -1.6547575852553396e-07 0.0000000000000000e+00  2.3710535068930090e-03 -1.9563569037446570e-07 0.0000000000000000e+00  2.3714539131761505e-03 -2.3345318741649810e-07 0.0000000000000000e+00  2.3719304145149510e-03 -2.7993938667490717e-07 0.0000000000000000e+00  2.3724979302636299e-03 -3.3578252013428653e-07 0.0000000000000000e+00  2.3731705780268759e-03 -4.0065678571716816e-07 0.0000000000000000e+00  2.3739578197611911e-03 -4.7173636301764126e-07 0.0000000000000000e+00  2.3748553768794794e-03 -5.4046965659994157e-07 0.0000000000000000e+00  2.3758287678717748e-03 -5.8568178320815734e-07 0.0000000000000000e+00  2.3767635920669272e-03 -5.5677141045271387e-07 0.0000000000000000e+00  2.3774194978750775e-03 -3.3632511615689672e-07 0.0000000000000000e+00  2.3770295605955037e-03 3.7814264809149962e-07 0.0000000000000000e+00  2.3746202016969608e-03 2.4198959876728333e-06 0.0000000000000000e+00  2.3641126589594511e-03 8.3611807755992071e-06 0.0000000000000000e+00  2.3487737151430396e-03 2.7830303344752745e-05 0.0000000000000000e+00  1.0000000000000000e-02 0.0000000000000000e+00 0.0000000000000000e+00  1.0467938761861311e-02 3.4765407176010890e-03 0.0000000000000000e+00  9.3411375575807587e-03 2.5118651298186318e-03 0.0000000000000000e+00  7.7729488898510366e-03 1.5717786102246399e-03 0.0000000000000000e+00  6.5399506647591888e-03 1.0060379724350305e-03 0.0000000000000000e+00  5.6570073670042832e-03 6.6712672476475113e-04 0.0000000000000000e+00  5.0269780299954251e-03 4.5527627749019912e-04 0.0000000000000000e+00  4.5798067226539060e-03 3.1670430425724912e-04 0.0000000000000000e+00  4.2594279574641996e-03 2.2273948370292909e-04 0.0000000000000000e+00  4.0298215410469749e-03 1.5753853709333344e-04 0.0000000000000000e+00  3.8651431541499091e-03 1.1156533356675273e-04 0.0000000000000000e+00  3.7473356753006332e-03 7.8857443036000200e-05 0.0000000000000000e+00  3.6634205049672088e-03 5.5489788096953410e-05 0.0000000000000000e+00  3.6040118899267194e-03 3.8787921767294213e-05 0.0000000000000000e+00  3.5622768491947458e-03 2.6879920644378039e-05 0.0000000000000000e+00  3.5332294969560316e-03 1.8430298343821180e-05 0.0000000000000000e+00  3.5132341511137457e-03 1.2474783662531922e-05 0.0000000000000000e+00  3.4996476113995415e-03 8.3124751085121665e-06 0.0000000000000000e+00  3.4905577104025866e-03 5.4327301531519697e-06 0.0000000000000000e+00  3.4845901371344475e-03 3.4638941680648378e-06 0.0000000000000000e+00  3.4807649463644472e-03 2.1364329414570568e-06 0.0000000000000000e+00  3.4783898218508406e-03 1.2559537805871454e-06 0.0000000000000000e+00  3.4769808199069914e-03 6.8325159292129300e-07 0.0000000000000000e+00  3.4762037644914781e-03 3.1947661192807721e-07 0.0000000000000000e+00  3.4758311740740694e-03 9.5101881270851271e-08 0.0000000000000000e+00  3.4757108410616031e-03 -3.8261866711559972e-08 0.0000000000000000e+00  3.4757431114934892e-03 -1.1390921958175638e-07 0.0000000000000000e+00  3.4758646189623327e-03 -1.5447271306377062e-07 0.0000000000000000e+00  3.4760367705574478e-03 -1.7514981113733081e-07 0.0000000000000000e+00  3.4762377029029347e-03 -1.8603322894191982e-07 0.0000000000000000e+00  3.4764567505843978e-03 -1.9378006948788792e-07 0.0000000000000000e+00  3.4766907179600566e-03 -2.0279823778759524e-07 0.0000000000000000e+00  3.4769414343391357e-03 -2.1608416155447965e-07 0.0000000000000000e+00  3.4772142140186385e-03 -2.3581096025464686e-07 0.0000000000000000e+00  3.4775169458282421e-03 -2.6373823770518660e-07 0.0000000000000000e+00  3.4778596077829553e-03 -3.0149097974808964e-07 0.0000000000000000e+00  3.4782540435254580e-03 -3.5073244605709235e-07 0.0000000000000000e+00  3.4787138467028923e-03 -4.1322988355057856e-07 0.0000000000000000e+00  3.4792541654189869e-03 -4.9077482207374858e-07 0.0000000000000000e+00  3.4798911434440298e-03 -5.8485736862454412e-07 0.0000000000000000e+00  3.4806404943978201e-03 -6.9587899758860375e-07 0.0000000000000000e+00  3.4815142940249201e-03 -8.2145812299849992e-07 0.0000000000000000e+00  3.4825142274966972e-03 -9.5291306827470812e-07 0.0000000000000000e+00  3.4836176395954873e-03 -1.0679430058627317e-06 0.0000000000000000e+00  3.4847507666679201e-03 -1.1151545203849563e-06 0.0000000000000000e+00  3.4857272713121300e-03 -9.7970366824747135e-07 0.0000000000000000e+00  3.4861598585742720e-03 -4.0439593718379241e-07 0.0000000000000000e+00  3.4851016571191603e-03 1.2180924684281134e-06 0.0000000000000000e+00  3.4811523427389526e-03 5.3586310386758882e-06 0.0000000000000000e+00  3.4693942298131301e-03 1.5975130444412554e-05 0.0000000000000000e+00  3.4537884767975417e-03 4.1135073675213952e-05 0.0000000000000000e+00  1.0000000000000000e-02 0.0000000000000000e+00 0.0000000000000000e+00  1.0532139243952831e-02 3.4817453684019145e-03 0.0000000000000000e+00  1.0194358606362539e-02 3.1412953830911080e-03 0.0000000000000000e+00  9.0595848826989355e-03 2.2303442829354572e-03 0.0000000000000000e+00  7.9507331514772680e-03 1.5265333932801084e-03 0.0000000000000000e+00  7.0482959392858336e-03 1.0525447741890855e-03 0.0000000000000000e+00  6.3649999512349204e-03 7.3638862578331973e-04 0.0000000000000000e+00  5.8583719028711487e-03 5.2065459550326070e-04 0.0000000000000000e+00  5.4856234035582487e-03 3.7059493364356851e-04 0.0000000000000000e+00  5.2131060642513207e-03 2.6452570825318152e-04 0.0000000000000000e+00  5.0146760074069215e-03 1.8874056641696025e-04 0.0000000000000000e+00  4.8709864337387913e-03 1.3427472088057142e-04 0.0000000000000000e+00  4.7675659996591980e-03 9.5044743844467433e-05 0.0000000000000000e+00  4.6936653798015432e-03 6.6813827035657188e-05 0.0000000000000000e+00  4.6412942146079059e-03 4.6564917996956260e-05 0.0000000000000000e+00  4.6045296117112576e-03 3.2117415927905084e-05 0.0000000000000000e+00  4.5789972394728847e-03 2.1880435416808729e-05 0.0000000000000000e+00  4.5614829464520543e-03 1.4687867702135002e-05 0.0000000000000000e+00  4.5496399782605501e-03 9.6841691789694235e-06 0.0000000000000000e+00  4.5417675552894433e-03 6.2428806421796462e-06 0.0000000000000000e+00  4.5366433972389370e-03 3.9072127942090283e-06 0.0000000000000000e+00  4.5333973330562907e-03 2.3460671747403877e-06 0.0000000000000000e+00  4.5314163363792100e-03 1.3212021572170450e-06 0.0000000000000000e+00  4.5302736016247401e-03 6.6263518668732294e-07 0.0000000000000000e+00  4.5296759606794955e-03 2.5022481374295225e-07 0.0000000000000000e+00  4.5294252213055799e-03 -7.2811336029096208e-11 0.0000000000000000e+00  4.5293900029470899e-03 -1.4640310182374805e-07 0.0000000000000000e+00  4.5294854266918526e-03 -2.2852970142311813e-07 0.0000000000000000e+00  4.5296586320293349e-03 -2.7333091107394449e-07 0.0000000000000000e+00  4.5298785778797061e-03 -2.9878544050934772e-07 0.0000000000000000e+00  4.5301289648311946e-03 -3.1683829151572852e-07 0.0000000000000000e+00  4.5304034098490511e-03 -3.3544445346451970e-07 0.0000000000000000e+00  4.5307022301865028e-03 -3.6001473264194596e-07 0.0000000000000000e+00  4.5310303628072843e-03 -3.9442979267429980e-07 0.0000000000000000e+00  4.5313960691147842e-03 -4.4174115714437761e-07 0.0000000000000000e+00  4.5318101586370382e-03 -5.0463712699616199e-07 0.0000000000000000e+00  4.5322855114976772e-03 -5.8571188373112768e-07 0.0000000000000000e+00  4.5328366850729759e-03 -6.8752960440420794e-07 0.0000000000000000e+00  4.5334793397171615e-03 -8.1240923680287425e-07 0.0000000000000000e+00  4.5342290913547700e-03 -9.6174556337965885e-07 0.0000000000000000e+00  4.5350991127117045e-03 -1.1344830289055976e-06 0.0000000000000000e+00  4.5360953248785351e-03 -1.3239694757723484e-06 0.0000000000000000e+00  4.5372069334288535e-03 -1.5116498887807181e-06 0.0000000000000000e+00  4.5383884154744838e-03 -1.6543585630091904e-06 0.0000000000000000e+00  4.5395255907770765e-03 -1.6585330165552917e-06 0.0000000000000000e+00  4.5403692104812304e-03 -1.3253375994179377e-06 0.0000000000000000e+00  4.5404312390746309e-03 -2.3350075036622625e-07 0.0000000000000000e+00  4.5387048963418455e-03 2.5371241326387159e-06 0.0000000000000000e+00  4.5337593085851375e-03 8.9876785021057204e-06 0.0000000000000000e+00  4.5220476560641270e-03 2.3479256526539374e-05 0.0000000000000000e+00  4.5071760753709594e-03 5.2978132989742360e-05 0.0000000000000000e+00  1.0000000000000000e-02 0.0000000000000000e+00 0.0000000000000000e+00  1.0487819135322898e-02 3.2519126537303125e-03 0.0000000000000000e+00  1.0565387522276178e-02 3.4664472459125838e-03 0.0000000000000000e+00  9.8865627379440182e-03 2.7414181351025297e-03 0.0000000000000000e+00  9.0034611031628593e-03 2.0026221580403572e-03 0.0000000000000000e+00  8.1835353405602818e-03 1.4387671733046979e-03 0.0000000000000000e+00  7.5148678172495265e-03 1.0331492653481036e-03 0.0000000000000000e+00  6.9941897454840378e-03 7.4370579593507034e-04 0.0000000000000000e+00  6.5989716977731512e-03 5.3629668958729798e-04 0.0000000000000000e+00  6.3032382541710905e-03 3.8660909393917572e-04 0.0000000000000000e+00  6.0841888590048602e-03 2.7805921611966848e-04 0.0000000000000000e+00  5.9233921009522903e-03 1.9915825716553906e-04 0.0000000000000000e+00  5.8063457465171034e-03 1.4182076428398535e-04 0.0000000000000000e+00  5.7218855689857061e-03 1.0025620578177813e-04 0.0000000000000000e+00  5.6614954237298237e-03 7.0255673677070601e-05 0.0000000000000000e+00  5.6187405103775975e-03 4.8729568979225653e-05 0.0000000000000000e+00  5.5887963193105156e-03 3.3396399729473361e-05 0.0000000000000000e+00  5.5680746380290932e-03 2.2567756283624819e-05 0.0000000000000000e+00  5.5539287131753726e-03 1.4995167489875047e-05 0.0000000000000000e+00  5.5444231675794440e-03 9.7584232556239751e-06 0.0000000000000000e+00  5.5381558117721065e-03 6.1826907395689424e-06 0.0000000000000000e+00  5.5341207168178533e-03 3.7762957280787088e-06 0.0000000000000000e+00  5.5316038561012432e-03 2.1837469062384250e-06 0.0000000000000000e+00  5.5301042568011013e-03 1.1502223058151539e-06 0.0000000000000000e+00  5.5292749682107623e-03 4.9477788512391652e-07 0.0000000000000000e+00  5.5288792880655866e-03 9.0228776581394073e-08 0.0000000000000000e+00  5.5287586272865239e-03 -1.5186320401118511e-07 0.0000000000000000e+00  5.5288091666688861e-03 -2.9230783799280180e-07 0.00000000