<?xml version="1.0"?>
<VTKFile type="UnstructuredGrid"  version="0.1"  >
<UnstructuredGrid>
<Piece  NumberOfPoints="2601" NumberOfCells="5000">
<Points>
<DataArray  type="Float64"  NumberOfComponents="3"  format="ascii">0 0 0  0.04 0 0  0.08 0 0  0.12 0 0  0.16 0 0  0.2 0 0  0.24 0 0  0.28 0 0  0.32 0 0  0.36 0 0  0.4 0 0  0.44 0 0  0.48 0 0  0.52 0 0  0.5600000000000001 0 0  0.6 0 0  0.64 0 0  0.68 0 0  0.72 0 0  0.76 0 0  0.8 0 0  0.84 0 0  0.88 0 0  0.92 0 0  0.96 0 0  1 0 0  1.04 0 0  1.08 0 0  1.12 0 0  1.16 0 0  1.2 0 0  1.24 0 0  1.28 0 0  1.32 0 0  1.36 0 0  1.4 0 0  1.44 0 0  1.48 0 0  1.52 0 0  1.56 0 0  1.6 0 0  1.64 0 0  1.68 0 0  1.72 0 0  1.76 0 0  1.8 0 0  1.84 0 0  1.88 0 0  1.92 0 0  1.96 0 0  2 0 0  0 0.02 0  0.04 0.02 0  0.08 0.02 0  0.12 0.02 0  0.16 0.02 0  0.2 0.02 0  0.24 0.02 0  0.28 0.02 0  0.32 0.02 0  0.36 0.02 0  0.4 0.02 0  0.44 0.02 0  0.48 0.02 0  0.52 0.02 0  0.5600000000000001 0.02 0  0.6 0.02 0  0.64 0.02 0  0.68 0.02 0  0.72 0.02 0  0.76 0.02 0  0.8 0.02 0  0.84 0.02 0  0.88 0.02 0  0.92 0.02 0  0.96 0.02 0  1 0.02 0  1.04 0.02 0  1.08 0.02 0  1.12 0.02 0  1.16 0.02 0  1.2 0.02 0  1.24 0.02 0  1.28 0.02 0  1.32 0.02 0  1.36 0.02 0  1.4 0.02 0  1.44 0.02 0  1.48 0.02 0  1.52 0.02 0  1.56 0.02 0  1.6 0.02 0  1.64 0.02 0  1.68 0.02 0  1.72 0.02 0  1.76 0.02 0  1.8 0.02 0  1.84 0.02 0  1.88 0.02 0  1.92 0.02 0  1.96 0.02 0  2 0.02 0  0 0.04 0  0.04 0.04 0  0.08 0.04 0  0.12 0.04 0  0.16 0.04 0  0.2 0.04 0  0.24 0.04 0  0.28 0.04 0  0.32 0.04 0  0.36 0.04 0  0.4 0.04 0  0.44 0.04 0  0.48 0.04 0  0.52 0.04 0  0.5600000000000001 0.04 0  0.6 0.04 0  0.64 0.04 0  0.68 0.04 0  0.72 0.04 0  0.76 0.04 0  0.8 0.04 0  0.84 0.04 0  0.88 0.04 0  0.92 0.04 0  0.96 0.04 0  1 0.04 0  1.04 0.04 0  1.08 0.04 0  1.12 0.04 0  1.16 0.04 0  1.2 0.04 0  1.24 0.04 0  1.28 0.04 0  1.32 0.04 0  1.36 0.04 0  1.4 0.04 0  1.44 0.04 0  1.48 0.04 0  1.52 0.04 0  1.56 0.04 0  1.6 0.04 0  1.64 0.04 0  1.68 0.04 0  1.72 0.04 0  1.76 0.04 0  1.8 0.04 0  1.84 0.04 0  1.88 0.04 0  1.92 0.04 0  1.96 0.04 0  2 0.04 0  0 0.06 0  0.04 0.06 0  0.08 0.06 0  0.12 0.06 0  0.16 0.06 0  0.2 0.06 0  0.24 0.06 0  0.28 0.06 0  0.32 0.06 0  0.36 0.06 0  0.4 0.06 0  0.44 0.06 0  0.48 0.06 0  0.52 0.06 0  0.5600000000000001 0.06 0  0.6 0.06 0  0.64 0.06 0  0.68 0.06 0  0.72 0.06 0  0.76 0.06 0  0.8 0.06 0  0.84 0.06 0  0.88 0.06 0  0.92 0.06 0  0.96 0.06 0  1 0.06 0  1.04 0.06 0  1.08 0.06 0  1.12 0.06 0  1.16 0.06 0  1.2 0.06 0  1.24 0.06 0  1.28 0.06 0  1.32 0.06 0  1.36 0.06 0  1.4 0.06 0  1.44 0.06 0  1.48 0.06 0  1.52 0.06 0  1.56 0.06 0  1.6 0.06 0  1.64 0.06 0  1.68 0.06 0  1.72 0.06 0  1.76 0.06 0  1.8 0.06 0  1.84 0.06 0  1.88 0.06 0  1.92 0.06 0  1.96 0.06 0  2 0.06 0  0 0.08 0  0.04 0.08 0  0.08 0.08 0  0.12 0.08 0  0.16 0.08 0  0.2 0.08 0  0.24 0.08 0  0.28 0.08 0  0.32 0.08 0  0.36 0.08 0  0.4 0.08 0  0.44 0.08 0  0.48 0.08 0  0.52 0.08 0  0.5600000000000001 0.08 0  0.6 0.08 0  0.64 0.08 0  0.68 0.08 0  0.72 0.08 0  0.76 0.08 0  0.8 0.08 0  0.84 0.08 0  0.88 0.08 0  0.92 0.08 0  0.96 0.08 0  1 0.08 0  1.04 0.08 0  1.08 0.08 0  1.12 0.08 0  1.16 0.08 0  1.2 0.08 0  1.24 0.08 0  1.28 0.08 0  1.32 0.08 0  1.36 0.08 0  1.4 0.08 0  1.44 0.08 0  1.48 0.08 0  1.52 0.08 0  1.56 0.08 0  1.6 0.08 0  1.64 0.08 0  1.68 0.08 0  1.72 0.08 0  1.76 0.08 0  1.8 0.08 0  1.84 0.08 0  1.88 0.08 0  1.92 0.08 0  1.96 0.08 0  2 0.08 0  0 0.1 0  0.04 0.1 0  0.08 0.1 0  0.12 0.1 0  0.16 0.1 0  0.2 0.1 0  0.24 0.1 0  0.28 0.1 0  0.32 0.1 0  0.36 0.1 0  0.4 0.1 0  0.44 0.1 0  0.48 0.1 0  0.52 0.1 0  0.5600000000000001 0.1 0  0.6 0.1 0  0.64 0.1 0  0.68 0.1 0  0.72 0.1 0  0.76 0.1 0  0.8 0.1 0  0.84 0.1 0  0.88 0.1 0  0.92 0.1 0  0.96 0.1 0  1 0.1 0  1.04 0.1 0  1.08 0.1 0  1.12 0.1 0  1.16 0.1 0  1.2 0.1 0  1.24 0.1 0  1.28 0.1 0  1.32 0.1 0  1.36 0.1 0  1.4 0.1 0  1.44 0.1 0  1.48 0.1 0  1.52 0.1 0  1.56 0.1 0  1.6 0.1 0  1.64 0.1 0  1.68 0.1 0  1.72 0.1 0  1.76 0.1 0  1.8 0.1 0  1.84 0.1 0  1.88 0.1 0  1.92 0.1 0  1.96 0.1 0  2 0.1 0  0 0.12 0  0.04 0.12 0  0.08 0.12 0  0.12 0.12 0  0.16 0.12 0  0.2 0.12 0  0.24 0.12 0  0.28 0.12 0  0.32 0.12 0  0.36 0.12 0  0.4 0.12 0  0.44 0.12 0  0.48 0.12 0  0.52 0.12 0  0.5600000000000001 0.12 0  0.6 0.12 0  0.64 0.12 0  0.68 0.12 0  0.72 0.12 0  0.76 0.12 0  0.8 0.12 0  0.84 0.12 0  0.88 0.12 0  0.92 0.12 0  0.96 0.12 0  1 0.12 0  1.04 0.12 0  1.08 0.12 0  1.12 0.12 0  1.16 0.12 0  1.2 0.12 0  1.24 0.12 0  1.28 0.12 0  1.32 0.12 0  1.36 0.12 0  1.4 0.12 0  1.44 0.12 0  1.48 0.12 0  1.52 0.12 0  1.56 0.12 0  1.6 0.12 0  1.64 0.12 0  1.68 0.12 0  1.72 0.12 0  1.76 0.12 0  1.8 0.12 0  1.84 0.12 0  1.88 0.12 0  1.92 0.12 0  1.96 0.12 0  2 0.12 0  0 0.14 0  0.04 0.14 0  0.08 0.14 0  0.12 0.14 0  0.16 0.14 0  0.2 0.14 0  0.24 0.14 0  0.28 0.14 0  0.32 0.14 0  0.36 0.14 0  0.4 0.14 0  0.44 0.14 0  0.48 0.14 0  0.52 0.14 0  0.5600000000000001 0.14 0  0.6 0.14 0  0.64 0.14 0  0.68 0.14 0  0.72 0.14 0  0.76 0.14 0  0.8 0.14 0  0.84 0.14 0  0.88 0.14 0  0.92 0.14 0  0.96 0.14 0  1 0.14 0  1.04 0.14 0  1.08 0.14 0  1.12 0.14 0  1.16 0.14 0  1.2 0.14 0  1.24 0.14 0  1.28 0.14 0  1.32 0.14 0  1.36 0.14 0  1.4 0.14 0  1.44 0.14 0  1.48 0.14 0  1.52 0.14 0  1.56 0.14 0  1.6 0.14 0  1.64 0.14 0  1.68 0.14 0  1.72 0.14 0  1.76 0.14 0  1.8 0.14 0  1.84 0.14 0  1.88 0.14 0  1.92 0.14 0  1.96 0.14 0  2 0.14 0  0 0.16 0  0.04 0.16 0  0.08 0.16 0  0.12 0.16 0  0.16 0.16 0  0.2 0.16 0  0.24 0.16 0  0.28 0.16 0  0.32 0.16 0  0.36 0.16 0  0.4 0.16 0  0.44 0.16 0  0.48 0.16 0  0.52 0.16 0  0.5600000000000001 0.16 0  0.6 0.16 0  0.64 0.16 0  0.68 0.16 0  0.72 0.16 0  0.76 0.16 0  0.8 0.16 0  0.84 0.16 0  0.88 0.16 0  0.92 0.16 0  0.96 0.16 0  1 0.16 0  1.04 0.16 0  1.08 0.16 0  1.12 0.16 0  1.16 0.16 0  1.2 0.16 0  1.24 0.16 0  1.28 0.16 0  1.32 0.16 0  1.36 0.16 0  1.4 0.16 0  1.44 0.16 0  1.48 0.16 0  1.52 0.16 0  1.56 0.16 0  1.6 0.16 0  1.64 0.16 0  1.68 0.16 0  1.72 0.16 0  1.76 0.16 0  1.8 0.16 0  1.84 0.16 0  1.88 0.16 0  1.92 0.16 0  1.96 0.16 0  2 0.16 0  0 0.18 0  0.04 0.18 0  0.08 0.18 0  0.12 0.18 0  0.16 0.18 0  0.2 0.18 0  0.24 0.18 0  0.28 0.18 0  0.32 0.18 0  0.36 0.18 0  0.4 0.18 0  0.44 0.18 0  0.48 0.18 0  0.52 0.18 0  0.5600000000000001 0.18 0  0.6 0.18 0  0.64 0.18 0  0.68 0.18 0  0.72 0.18 0  0.76 0.18 0  0.8 0.18 0  0.84 0.18 0  0.88 0.18 0  0.92 0.18 0  0.96 0.18 0  1 0.18 0  1.04 0.18 0  1.08 0.18 0  1.12 0.18 0  1.16 0.18 0  1.2 0.18 0  1.24 0.18 0  1.28 0.18 0  1.32 0.18 0  1.36 0.18 0  1.4 0.18 0  1.44 0.18 0  1.48 0.18 0  1.52 0.18 0  1.56 0.18 0  1.6 0.18 0  1.64 0.18 0  1.68 0.18 0  1.72 0.18 0  1.76 0.18 0  1.8 0.18 0  1.84 0.18 0  1.88 0.18 0  1.92 0.18 0  1.96 0.18 0  2 0.18 0  0 0.2 0  0.04 0.2 0  0.08 0.2 0  0.12 0.2 0  0.16 0.2 0  0.2 0.2 0  0.24 0.2 0  0.28 0.2 0  0.32 0.2 0  0.36 0.2 0  0.4 0.2 0  0.44 0.2 0  0.48 0.2 0  0.52 0.2 0  0.5600000000000001 0.2 0  0.6 0.2 0  0.64 0.2 0  0.68 0.2 0  0.72 0.2 0  0.76 0.2 0  0.8 0.2 0  0.84 0.2 0  0.88 0.2 0  0.92 0.2 0  0.96 0.2 0  1 0.2 0  1.04 0.2 0  1.08 0.2 0  1.12 0.2 0  1.16 0.2 0  1.2 0.2 0  1.24 0.2 0  1.28 0.2 0  1.32 0.2 0  1.36 0.2 0  1.4 0.2 0  1.44 0.2 0  1.48 0.2 0  1.52 0.2 0  1.56 0.2 0  1.6 0.2 0  1.64 0.2 0  1.68 0.2 0  1.72 0.2 0  1.76 0.2 0  1.8 0.2 0  1.84 0.2 0  1.88 0.2 0  1.92 0.2 0  1.96 0.2 0  2 0.2 0  0 0.22 0  0.04 0.22 0  0.08 0.22 0  0.12 0.22 0  0.16 0.22 0  0.2 0.22 0  0.24 0.22 0  0.28 0.22 0  0.32 0.22 0  0.36 0.22 0  0.4 0.22 0  0.44 0.22 0  0.48 0.22 0  0.52 0.22 0  0.5600000000000001 0.22 0  0.6 0.22 0  0.64 0.22 0  0.68 0.22 0  0.72 0.22 0  0.76 0.22 0  0.8 0.22 0  0.84 0.22 0  0.88 0.22 0  0.92 0.22 0  0.96 0.22 0  1 0.22 0  1.04 0.22 0  1.08 0.22 0  1.12 0.22 0  1.16 0.22 0  1.2 0.22 0  1.24 0.22 0  1.28 0.22 0  1.32 0.22 0  1.36 0.22 0  1.4 0.22 0  1.44 0.22 0  1.48 0.22 0  1.52 0.22 0  1.56 0.22 0  1.6 0.22 0  1.64 0.22 0  1.68 0.22 0  1.72 0.22 0  1.76 0.22 0  1.8 0.22 0  1.84 0.22 0  1.88 0.22 0  1.92 0.22 0  1.96 0.22 0  2 0.22 0  0 0.24 0  0.04 0.24 0  0.08 0.24 0  0.12 0.24 0  0.16 0.24 0  0.2 0.24 0  0.24 0.24 0  0.28 0.24 0  0.32 0.24 0  0.36 0.24 0  0.4 0.24 0  0.44 0.24 0  0.48 0.24 0  0.52 0.24 0  0.5600000000000001 0.24 0  0.6 0.24 0  0.64 0.24 0  0.68 0.24 0  0.72 0.24 0  0.76 0.24 0  0.8 0.24 0  0.84 0.24 0  0.88 0.24 0  0.92 0.24 0  0.96 0.24 0  1 0.24 0  1.04 0.24 0  1.08 0.24 0  1.12 0.24 0  1.16 0.24 0  1.2 0.24 0  1.24 0.24 0  1.28 0.24 0  1.32 0.24 0  1.36 0.24 0  1.4 0.24 0  1.44 0.24 0  1.48 0.24 0  1.52 0.24 0  1.56 0.24 0  1.6 0.24 0  1.64 0.24 0  1.68 0.24 0  1.72 0.24 0  1.76 0.24 0  1.8 0.24 0  1.84 0.24 0  1.88 0.24 0  1.92 0.24 0  1.96 0.24 0  2 0.24 0  0 0.26 0  0.04 0.26 0  0.08 0.26 0  0.12 0.26 0  0.16 0.26 0  0.2 0.26 0  0.24 0.26 0  0.28 0.26 0  0.32 0.26 0  0.36 0.26 0  0.4 0.26 0  0.44 0.26 0  0.48 0.26 0  0.52 0.26 0  0.5600000000000001 0.26 0  0.6 0.26 0  0.64 0.26 0  0.68 0.26 0  0.72 0.26 0  0.76 0.26 0  0.8 0.26 0  0.84 0.26 0  0.88 0.26 0  0.92 0.26 0  0.96 0.26 0  1 0.26 0  1.04 0.26 0  1.08 0.26 0  1.12 0.26 0  1.16 0.26 0  1.2 0.26 0  1.24 0.26 0  1.28 0.26 0  1.32 0.26 0  1.36 0.26 0  1.4 0.26 0  1.44 0.26 0  1.48 0.26 0  1.52 0.26 0  1.56 0.26 0  1.6 0.26 0  1.64 0.26 0  1.68 0.26 0  1.72 0.26 0  1.76 0.26 0  1.8 0.26 0  1.84 0.26 0  1.88 0.26 0  1.92 0.26 0  1.96 0.26 0  2 0.26 0  0 0.28 0  0.04 0.28 0  0.08 0.28 0  0.12 0.28 0  0.16 0.28 0  0.2 0.28 0  0.24 0.28 0  0.28 0.28 0  0.32 0.28 0  0.36 0.28 0  0.4 0.28 0  0.44 0.28 0  0.48 0.28 0  0.52 0.28 0  0.5600000000000001 0.28 0  0.6 0.28 0  0.64 0.28 0  0.68 0.28 0  0.72 0.28 0  0.76 0.28 0  0.8 0.28 0  0.84 0.28 0  0.88 0.28 0  0.92 0.28 0  0.96 0.28 0  1 0.28 0  1.04 0.28 0  1.08 0.28 0  1.12 0.28 0  1.16 0.28 0  1.2 0.28 0  1.24 0.28 0  1.28 0.28 0  1.32 0.28 0  1.36 0.28 0  1.4 0.28 0  1.44 0.28 0  1.48 0.28 0  1.52 0.28 0  1.56 0.28 0  1.6 0.28 0  1.64 0.28 0  1.68 0.28 0  1.72 0.28 0  1.76 0.28 0  1.8 0.28 0  1.84 0.28 0  1.88 0.28 0  1.92 0.28 0  1.96 0.28 0  2 0.28 0  0 0.3 0  0.04 0.3 0  0.08 0.3 0  0.12 0.3 0  0.16 0.3 0  0.2 0.3 0  0.24 0.3 0  0.28 0.3 0  0.32 0.3 0  0.36 0.3 0  0.4 0.3 0  0.44 0.3
[...]
<PointData  Vectors="f_26-0"> 
<DataArray  type="Float64"  Name="f_26-0"  NumberOfComponents="3" format="ascii">0.0000000000000000e+00 0.0000000000000000e+00 0.0000000000000000e+00  0.0000000000000000e+00 0.0000000000000000e+00 0.0000000000000000e+00  0.0000000000000000e+00 0.0000000000000000e+00 0.0000000000000000e+00  0.0000000000000000e+00 0.0000000000000000e+00 0.0000000000000000e+00  0.0000000000000000e+00 0.0000000000000000e+00 0.0000000000000000e+00  0.0000000000000000e+00 0.0000000000000000e+00 0.0000000000000000e+00  0.0000000000000000e+00 0.0000000000000000e+00 0.0000000000000000e+00  0.0000000000000000e+00 0.0000000000000000e+00 0.0000000000000000e+00  0.0000000000000000e+00 0.0000000000000000e+00 0.0000000000000000e+00  0.0000000000000000e+00 0.0000000000000000e+00 0.0000000000000000e+00  0.0000000000000000e+00 0.0000000000000000e+00 0.0000000000000000e+00  0.0000000000000000e+00 0.0000000000000000e+00 0.0000000000000000e+00  0.0000000000000000e+00 0.0000000000000000e+00 0.0000000000000000e+00  0.0000000000000000e+00 0.0000000000000000e+00 0.0000000000000000e+00  0.0000000000000000e+00 0.0000000000000000e+00 0.0000000000000000e+00  0.0000000000000000e+00 0.0000000000000000e+00 0.0000000000000000e+00  0.0000000000000000e+00 0.0000000000000000e+00 0.0000000000000000e+00  0.0000000000000000e+00 0.0000000000000000e+00 0.0000000000000000e+00  0.0000000000000000e+00 0.0000000000000000e+00 0.0000000000000000e+00  0.0000000000000000e+00 0.0000000000000000e+00 0.0000000000000000e+00  0.0000000000000000e+00 0.0000000000000000e+00 0.0000000000000000e+00  0.0000000000000000e+00 0.0000000000000000e+00 0.0000000000000000e+00  0.0000000000000000e+00 0.0000000000000000e+00 0.0000000000000000e+00  0.0000000000000000e+00 0.0000000000000000e+00 0.0000000000000000e+00  0.0000000000000000e+00 0.0000000000000000e+00 0.0000000000000000e+00  0.0000000000000000e+00 0.0000000000000000e+00 0.0000000000000000e+00  0.0000000000000000e+00 0.0000000000000000e+00 0.0000000000000000e+00  0.0000000000000000e+00 0.0000000000000000e+00 0.0000000000000000e+00  0.0000000000000000e+00 0.0000000000000000e+00 0.0000000000000000e+00  0.0000000000000000e+00 0.0000000000000000e+00 0.0000000000000000e+00  0.0000000000000000e+00 0.0000000000000000e+00 0.0000000000000000e+00  0.0000000000000000e+00 0.0000000000000000e+00 0.0000000000000000e+00  0.0000000000000000e+00 0.0000000000000000e+00 0.0000000000000000e+00  0.0000000000000000e+00 0.0000000000000000e+00 0.0000000000000000e+00  0.0000000000000000e+00 0.0000000000000000e+00 0.0000000000000000e+00  0.0000000000000000e+00 0.0000000000000000e+00 0.0000000000000000e+00  0.0000000000000000e+00 0.0000000000000000e+00 0.0000000000000000e+00  0.0000000000000000e+00 0.0000000000000000e+00 0.0000000000000000e+00  0.0000000000000000e+00 0.0000000000000000e+00 0.0000000000000000e+00  0.0000000000000000e+00 0.0000000000000000e+00 0.0000000000000000e+00  0.0000000000000000e+00 0.0000000000000000e+00 0.0000000000000000e+00  0.0000000000000000e+00 0.0000000000000000e+00 0.0000000000000000e+00  0.0000000000000000e+00 0.0000000000000000e+00 0.0000000000000000e+00  0.0000000000000000e+00 0.0000000000000000e+00 0.0000000000000000e+00  0.0000000000000000e+00 0.0000000000000000e+00 0.0000000000000000e+00  0.0000000000000000e+00 0.0000000000000000e+00 0.0000000000000000e+00  0.0000000000000000e+00 0.0000000000000000e+00 0.0000000000000000e+00  0.0000000000000000e+00 0.0000000000000000e+00 0.0000000000000000e+00  0.0000000000000000e+00 0.0000000000000000e+00 0.0000000000000000e+00  0.0000000000000000e+00 0.0000000000000000e+00 0.0000000000000000e+00  0.0000000000000000e+00 0.0000000000000000e+00 0.0000000000000000e+00  1.0000000000000000e-02 0.0000000000000000e+00 0.0000000000000000e+00  3.0276110391320148e-03 4.2986675480518400e-03 0.0000000000000000e+00  -2.1072262275251687e-02 8.0847486402339085e-03 0.0000000000000000e+00  -5.8401262825425973e-02 1.1156144054530814e-02 0.0000000000000000e+00  -1.0600543143600251e-01 1.3440437337184936e-02 0.0000000000000000e+00  -1.6152135729064704e-01 1.5330440129012479e-02 0.0000000000000000e+00  -2.2412740244365312e-01 1.7128085295335251e-02 0.0000000000000000e+00  -2.9390051263219047e-01 1.9042031887848285e-02 0.0000000000000000e+00  -3.7156587377026512e-01 2.1206924923173977e-02 0.0000000000000000e+00  -4.5827274071100293e-01 2.3713466186187963e-02 0.0000000000000000e+00  -5.5546166392165952e-01 2.6623736871314221e-02 0.0000000000000000e+00  -6.6477144836760704e-01 2.9978793954932748e-02 0.0000000000000000e+00  -7.8796189943430039e-01 3.3800027236938673e-02 0.0000000000000000e+00  -9.2683108752960053e-01 3.8085300441173128e-02 0.0000000000000000e+00  -1.0831076386663359e+00 4.2800000782008588e-02 0.0000000000000000e+00  -1.2582972386346869e+00 4.7862278798618707e-02 0.0000000000000000e+00  -1.4534582288286224e+00 5.3121017034578902e-02 0.0000000000000000e+00  -1.6688739137860820e+00 5.8324243561918072e-02 0.0000000000000000e+00  -1.9035785084717058e+00 6.3074734610325103e-02 0.0000000000000000e+00  -2.1546787734569604e+00 6.6768342409116943e-02 0.0000000000000000e+00  -2.4163932460195823e+00 6.8509060338165506e-02 0.0000000000000000e+00  -2.6787042116602531e+00 6.6992925172090573e-02 0.0000000000000000e+00  -2.9254825699112099e+00 6.0350504218327855e-02 0.0000000000000000e+00  -3.1319008218584261e+00 4.5934923555934530e-02 0.0000000000000000e+00  -3.2608930282524979e+00 2.0039267537685406e-02 0.0000000000000000e+00  -3.2583520058909965e+00 -2.2475977563214348e-02 0.0000000000000000e+00  -3.0466742774370998e+00 -8.8667315376373443e-02 0.0000000000000000e+00  -2.5161768597921164e+00 -1.8812710975749275e-01 0.0000000000000000e+00  -1.5138274200310962e+00 -3.3375655559023987e-01 0.0000000000000000e+00  1.7132892815709982e-01 -5.4270240997407893e-01 0.0000000000000000e+00  2.8266614217124970e+00 -8.3744550529175288e-01 0.0000000000000000e+00  6.8388604246337819e+00 -1.2469890516464774e+00 0.0000000000000000e+00  1.2721431420345938e+01 -1.8080266913558352e+00 0.0000000000000000e+00  2.1146284665501589e+01 -2.5658607143447933e+00 0.0000000000000000e+00  3.2977730512905978e+01 -3.5746664623275253e+00 0.0000000000000000e+00  4.9305124894222857e+01 -4.8964197199852713e+00 0.0000000000000000e+00  7.1466981846981213e+01 -6.5973419219804157e+00 0.0000000000000000e+00  1.0105350804140012e+02 -8.7398843874528342e+00 0.0000000000000000e+00  1.3986471849155700e+02 -1.1367023623709878e+01 0.0000000000000000e+00  1.8978476142666301e+02 -1.4472683989162697e+01 0.0000000000000000e+00  2.5250495834116413e+02 -1.7952064315604275e+01 0.0000000000000000e+00  3.2900345795383311e+02 -2.1511835501554362e+01 0.0000000000000000e+00  4.1861057950591720e+02 -2.4576513802451004e+01 0.0000000000000000e+00  5.1779057150814185e+02 -2.6073858200197787e+01 0.0000000000000000e+00  6.1809695621003652e+02 -2.4888280636266259e+01 0.0000000000000000e+00  7.0832679586263328e+02 -1.8953001254787164e+01 0.0000000000000000e+00  7.7112404318218580e+02 -1.4904933219286702e+01 0.0000000000000000e+00  8.4776616558233263e+02 -7.6155015486972326e+00 0.0000000000000000e+00  9.4905896937784860e+02 -1.1660389768906944e+02 0.0000000000000000e+00  1.9643324674281841e+03 -2.4740181805429680e+02 0.0000000000000000e+00  3.7831778223172469e+03 -1.9977903567275259e+03 0.0000000000000000e+00  1.0000000000000000e-02 0.0000000000000000e+00 0.0000000000000000e+00  -2.8100820285107725e-03 1.5449071487422583e-02 0.0000000000000000e+00  -4.5785749074928217e-02 3.0224279214858506e-02 0.0000000000000000e+00  -1.1291419414978497e-01 4.1563781777506040e-02 0.0000000000000000e+00  -1.9835942199094972e-01 5.0149686085603468e-02 0.0000000000000000e+00  -2.9847382651514437e-01 5.7338991115741048e-02 0.0000000000000000e+00  -4.1182827343762302e-01 6.4207090004724660e-02 0.0000000000000000e+00  -5.3855569104890999e-01 7.1500263864827246e-02 0.0000000000000000e+00  -6.7991894859913160e-01 7.9717747557546612e-02 0.0000000000000000e+00  -8.3794934823203626e-01 8.9200605570861513e-02 0.0000000000000000e+00  -1.0152155078525131e+00 1.0018405805985169e-01 0.0000000000000000e+00  -1.2146530710776124e+00 1.1282356560405132e-01 0.0000000000000000e+00  -1.4394196435660622e+00 1.2719884546111207e-01 0.0000000000000000e+00  -1.6927377799070571e+00 1.4329886466221115e-01 0.0000000000000000e+00  -1.9776913485555547e+00 1.6098772093787969e-01 0.0000000000000000e+00  -2.2969371085424122e+00 1.7994854473485639e-01 0.0000000000000000e+00  -2.6522851519334969e+00 1.9959981349832215e-01 0.0000000000000000e+00  -3.0440883993921926e+00 2.1897541085198843e-01 0.0000000000000000e+00  -3.4703616585402304e+00 2.3655611254319611e-01 0.0000000000000000e+00  -3.9255234470805660e+00 2.5003563377418980e-01 0.0000000000000000e+00  -4.3986168908509420e+00 2.5599864152397811e-01 0.0000000000000000e+00  -4.8708170805374378e+00 2.4948095884661745e-01 0.0000000000000000e+00  -5.3119684589797824e+00 2.2337338794854866e-01 0.0000000000000000e+00  -5.6758141270368441e+00 1.6762017631160961e-01 0.0000000000000000e+00  -5.8934768397214583e+00 6.8151572330173729e-02 0.0000000000000000e+00  -5.8646278514246397e+00 -9.4521662304748968e-02 0.0000000000000000e+00  -5.4456369607330641e+00 -3.4713305071112649e-01 0.0000000000000000e+00  -4.4338438196115781e+00 -7.2598798697365363e-01 0.0000000000000000e+00  -2.5469466161001604e+00 -1.2798653482458981e+00 0.0000000000000000e+00  6.0359270648445240e-01 -2.0735258496549429e+00 0.0000000000000000e+00  5.5462128024417519e+00 -3.1917774732078610e+00 0.0000000000000000e+00  1.2990842606922978e+01 -4.7438970355704937e+00 0.0000000000000000e+00  2.3878668512729838e+01 -6.8679517737446476e+00 0.0000000000000000e+00  3.9439117131223171e+01 -9.7341551269836248e+00 0.0000000000000000e+00  6.1250925408190923e+01 -1.3545745551034308e+01 0.0000000000000000e+00  9.1300486987260996e+01 -1.8534851510708396e+01 0.0000000000000000e+00  1.3202465069268990e+02 -2.4949117589865246e+01 0.0000000000000000e+00  1.8631507395828959e+02 -3.3022010885045198e+01 0.0000000000000000e+00  2.5744514111477696e+02 -4.2914883684681847e+01 0.0000000000000000e+00  3.4885356151047341e+02 -5.4611389393810718e+01 0.0000000000000000e+00  4.6368013974161505e+02 -6.7735734794800621e+01 0.0000000000000000e+00  6.0390937345105306e+02 -8.1264437710613095e+01 0.0000000000000000e+00  7.6892920355629190e+02 -9.3136363764411300e+01 0.0000000000000000e+00  9.5368623439516125e+02 -9.9925049090653928e+01 0.0000000000000000e+00  1.1463154239933601e+03 -9.7195872857851811e+01 0.0000000000000000e+00  1.3316717755980887e+03 -8.2496556552683685e+01 0.0000000000000000e+00  1.4932900364908874e+03 -6.5102199002608785e+01 0.0000000000000000e+00  1.6967264559510245e+03 -9.4924895331837007e+01 0.0000000000000000e+00  2.0339737692761737e+03 -3.3179603596642983e+02 0.0000000000000000e+00  3.5442212181559339e+03 -1.2328870050753821e+03 0.0000000000000000e+00  5.6856468343881688e+03 -4.1474688981881400e+03 0.0000000000000000e+00  1.0000000000000000e-02 0.0000000000000000e+00 0.0000000000000000e+00  -1.0675482532091250e-02 3.2949472692300794e-02 0.0000000000000000e+00  -7.0402383974843816e-02 6.3765690605181446e-02 0.0000000000000000e+00  -1.6176743394082688e-01 8.7317237429597086e-02 0.0000000000000000e+00  -2.7751844131352804e-01 1.0545838100251853e-01 0.0000000000000000e+00  -4.1338593002229757e-01 1.2083406035715577e-01 0.0000000000000000e+00  -5.6762333746783822e-01 1.3558245847455852e-01 0.0000000000000000e+00  -7.4047836400300593e-01 1.5121428738493300e-01 0.0000000000000000e+00  -9.3365163137782081e-01 1.6876961910708599e-01 0.0000000000000000e+00  -1.1498738721632955e+00 1.8896928770682675e-01 0.0000000000000000e+00  -1.3926103674541412e+00 2.1231486052535831e-01 0.0000000000000000e+00  -1.6658344562903551e+00 2.3913844139346482e-01 0.0000000000000000e+00  -1.9738287104586896e+00 2.6960900385950770e-01 0.0000000000000000e+00  -2.3209667378579053e+00 3.0369964614716372e-01 0.0000000000000000e+00  -2.7114300655765589e+00 3.4111461925281894e-01 0.0000000000000000e+00  -3.1488083261136017e+00 3.8116969318152022e-01 0.0000000000000000e+00  -3.6355193582201095e+00 4.2261377473929324e-01 0.0000000000000000e+00  -4.1719671669931868e+00 4.6337330034760593e-01 0.0000000000000000e+00  -4.7553286773018764e+00 5.0019321967727959e-01 0.0000000000000000e+00  -5.3778228296810999e+00 5.2813876537812710e-01 0.0000000000000000e+00  -6.0242651221523866e+00 5.3991008247206873e-01 0.0000000000000000e+00  -6.6686438547268194e+00 5.2490663285832129e-01 0.0000000000000000e+00  -7.2693672201204311e+00 4.6795974250780603e-01 0.0000000000000000e+00  -7.7627189718744791e+00 3.4762979697957347e-01 0.0000000000000000e+00  -8.0539212539508700e+00 1.3394035812200261e-01 0.0000000000000000e+00  -8.0050349032793626e+00 -2.1460259956347874e-01 0.0000000000000000e+00  -7.4187333085230760e+00 -7.5487683281216211e-01 0.0000000000000000e+00  -6.0167775491935371e+00 -1.5640696904488909e+00 0.0000000000000000e+00  -3.4118247729899229e+00 -2.7458111422703317e+00 0.0000000000000000e+00  9.2893078513213845e-01 -4.4375790070766135e+00 0.0000000000000000e+00  7.7297675063590097e+00 -6.8192667606959478e+00 0.0000000000000000e+00  1.7963274808366737e+01 -1.0122485520694955e+01 0.0000000000000000e+00  3.2918396358845868e+01 -1.4639636917090415e+01 0.0000000000000000e+00  5.4278447090552135e+01 -2.0730940062232392e+01 0.0000000000000000e+00  8.4205026141591688e+01 -2.8826263709225866e+01 0.0000000000000000e+00  1.2541896939430691e+02 -3.9416524051995736e+01 0.0000000000000000e+00  1.8126185050613000e+02 -5.3026035476484907e+01 0.0000000000000000e+00  2.5570905043296423e+02 -7.0151625329534639e+01 0.0000000000000000e+00  3.5328656140368605e+02 -9.1145186163313724e+01 0.0000000000000000e+00  4.7881227035763072e+02 -1.1600287459300064e+02 0.0000000000000000e+00  6.3684611427138839e+02 -1.4400956083422520e+02 0.0000000000000000e+00  8.3068421451131871e+02 -1.7319126680830382e+02 0.0000000000000000e+00  1.0607603288636299e+03 -1.9961061273154300e+02 0.0000000000000000e+00  1.3225869875023293e+03 -2.1687182324115278e+02 0.0000000000000000e+00  1.6048155029921893e+03 -2.1712118781868693e+02 0.0000000000000000e+00  1.8927216750075404e+03 -1.9717975847328756e+02 0.0000000000000000e+00  2.1755616523040944e+03 -1.7792832338786141e+02 0.0000000000000000e+00  2.5211558541027739e+03 -2.5641416814112313e+02 0.0000000000000000e+00  3.0514868426695348e+03 -7.1532051906236734e+02 0.0000000000000000e+00  4.6247999137582601e+03 -2.2808726665548647e+03 0.0000000000000000e+00  6.5947261538531757e+03 -6.1510603954323469e+03 0.0000000000000000e+00  1.0000000000000000e-02 0.0000000000000000e+00 0.0000000000000000e+00  -1.7923972766800633e-02 5.6710953035294408e-02 0.0000000000000000e+00  -9.2647213591840999e-02 1.0688479651267140e-01 0.0000000000000000e+00  -2.0392741753019292e-01 1.4545718562886867e-01 0.0000000000000000e+00  -3.4400239256181347e-01 1.7563333447083970e-01 0.0000000000000000e+00  -5.0836292193690458e-01 2.0152970981486024e-01 0.0000000000000000e+00  -6.9521978255348726e-01 2.2649028009326816e-01 0.0000000000000000e+00  -9.0501150538475195e-01 2.5293622111824571e-01 0.0000000000000000e+00  -1.1398292531653587e+00 2.8257136354776374e-01 0.0000000000000000e+00  -1.4029806981056629e+00 3.1659502806062972e-01 0.0000000000000000e+00  -1.6986592428479690e+00 3.5585083810895979e-01 0.0000000000000000e+00  -2.0316835394937480e+00 4.0090084270051796e-01 0.0000000000000000e+00  -2.4072611288917662e+00 4.5203244865398107e-01 0.0000000000000000e+00  -2.8307252714989688e+00 5.0920210260964194e-01 0.0000000000000000e+00  -3.3071921850248804e+00 5.7191247683177560e-01 0.0000000000000000e+00  -3.8410771231221772e+00 6.3901175238310204e-01 0.0000000000000000e+00  -4.4353931344234603e+00 7.0839447724714910e-01 0.0000000000000000e+00  -5.0907334926865522e+00 7.7657294996306603e-01 0.0000000000000000e+00  -5.8038060464216867e+00 8.3807524940018885e-01 0.0000000000000000e+00  -6.5653425075134821e+00 8.8460996838882489e-01 0.0000000000000000e+00  -7.3571446800205305e+00 9.0391745198767726e-01 0.0000000000000000e+00  -8.1479487216902200e+00 8.7820201204629200e-01 0.0000000000000000e+00  -8.8876829747428374e+00 7.8200860838462571e-01 0.0000000000000000e+00  -9.4995596855978519e+00 5.7937098624003136e-01 0.0000000000000000e+00  -9.8692716654033639e+00 2.2001781341804089e-01 0.0000000000000000e+00  -9.8303595409799627e+00 -3.6561682774399062e-01 0.0000000000000000e+00  -9.1445768762117350e+00 -1.2728635174402914e+00 0.0000000000000000e+00  -7.4758223314240189e+00 -2.6310597367496822e+00 0.0000000000000000e+00  -4.3559608175177260e+00 -4.6138117119164654e+00 0.0000000000000000e+00  8.5932204776903387e-01 -7.4513874351812337e+00 0.0000000000000000e+00  9.0464950809128801e+00 -1.1445064529727635e+01 0.0000000000000000e+00  2.1383524756533305e+01 -1.6982731926282394e+01 0.0000000000000000e+00  3.9433227257185294e+01 -2.4554166745898662e+01 0.0000000000000000e+00  6.5239447798100585e+01 -3.4763015760739385e+01 0.0000000000000000e+00  1.0143165984287201e+02 -4.8330360511549252e+01 0.0000000000000000e+00  1.5132822551627638e+02 -6.6081425219410235e+01 0.0000000000000000e+00  2.1902021832316595e+02 -8.8901751277182214e+01 0.0000000000000000e+00  3.0940447678916689e+02 -1.1764074467558657e+02 0.0000000000000000e+00  4.2811584385326688e+02 -1.5292715925060241e+02 0.0000000000000000e+00  5.8127751016258969e+02 -1.9484233932455530e+02 0.0000000000000000e+00  7.7496086161491951e+02 -2.4237896397087823e+02 0.0000000000000000e+00  1.0141917385924132e+03 -2.9262801213129086e+02 0.0000000000000000e+00  1.3014361017667345e+03 -3.3977300585245058e+02 0.0000000000000000e+00  1.6345708956261842e+03 -3.7448632224039051e+02 0.0000000000000000e+00  2.0053657578967450e+03 -3.8565231035509100e+02 0.0000000000000000e+00  2.4015039884488046e+03 -3.6972380393062980e+02 0.0000000000000000e+00  2.8147550016666537e+03 -3.5876970710988400e+02 0.0000000000000000e+00  3.2924518481389414e+03 -4.9167821874381752e+02 0.0000000000000000e+00  3.9204663153009114e+03 -1.1512377293646136e+03 0.0000000000000000e+00  5.2851074981264401e+03 -3.1990637306517601e+03 0.0000000000000000e+00  6.8370188133694319e+03 -7.8532199725510636e+03 0.0000000000000000e+00  1.0000000000000000e-02 0.0000000000000000e+00 0.0000000000000000e+00  -2.3927113829440121e-02 8.6087586815034284e-02 0.0000000000000000e+00  -1.1142308308165011e-01 1.5807851488283409e-01 0.0000000000000000e+00  -2.3898697321733811e-01 2.1359741590145628e-01 0.0000000000000000e+00  -3.9843663810080998e-01 2.5762407105328122e-01 0.0000000000000000e+00  -5.8522541056377309e-01 2.9584722008999914e-01 0.0000000000000000e+00  -7.9771052251336438e-01 3.3289402554308439e-01 0.0000000000000000e+00  -1.0365820117802107e+00 3.7217924013262982e-01 0.0000000000000000e+00  -1.3043011834482785e+00 4.1614925232814615e-01 0.0000000000000000e+00  -1.6046692263151887e+00 4.6655366426107836e-01 0.0000000000000000e+00  -1.9424860925734744e+00 5.2463843231767926e-01 0.0000000000000000e+00  -2.3232755462696915e+00 5.9124245323845026e-01 0.0000000000000000e+00  -2.7530280640109068e+00 6.6680252727463585e-01 0.0000000000000000e+00  -3.2379105902522700e+00 7.5126868764325971e-01 0.0000000000000000e+00  -3.7838861275675013e+00 8.4392342333153558e-01 0.0000000000000000e+00  -4.3961755003598979e+00 9.4308714383894698e-01 0.0000000000000000e+00  -5.0784765471900482e+00 1.0456793724423497e+00 0.0000000000000000e+00  -5.8318300392058262e+00 1.1465899291590409e+00 0.0000000000000000e+00  -6.6529846936579391e+00 1.2377956313468204e+00 0.0000000000000000e+00  -7.5320626906722552e+00 1.3071344885748981e+00 0.0000000000000000e+00  -8.4492582705326473e+00 1.3366196068924374e+00 0.0000000000000000e+00  -9.3702105023600506e+00 1.3001377519565886e+00 0.0000000000000000e+00  -1.0239571562366386e+01 1.1603318691055162e+00 0.0000000000000000e+00  -1.0972137783489634e+01 8.6441295417108710e-01 0.0000000000000000e+00  -1.1440716732461876e+01 3.3858671223370507e-01 0.0000000000000000e+00  -1.1459666248976934e+01 -5.1927958034652788e-01 0