<?xml version="1.0"?>
<VTKFile type="UnstructuredGrid"  version="0.1"  >
<UnstructuredGrid>
<Piece  NumberOfPoints="2601" NumberOfCells="5000">
<Points>
<DataArray  type="Float64"  NumberOfComponents="3"  format="ascii">0 0 0  0.04 0 0  0.08 0 0  0.12 0 0  0.16 0 0  0.2 0 0  0.24 0 0  0.28 0 0  0.32 0 0  0.36 0 0  0.4 0 0  0.44 0 0  0.48 0 0  0.52 0 0  0.5600000000000001 0 0  0.6 0 0  0.64 0 0  0.68 0 0  0.72 0 0  0.76 0 0  0.8 0 0  0.84 0 0  0.88 0 0  0.92 0 0  0.96 0 0  1 0 0  1.04 0 0  1.08 0 0  1.12 0 0  1.16 0 0  1.2 0 0  1.24 0 0  1.28 0 0  1.32 0 0  1.36 0 0  1.4 0 0  1.44 0 0  1.48 0 0  1.52 0 0  1.56 0 0  1.6 0 0  1.64 0 0  1.68 0 0  1.72 0 0  1.76 0 0  1.8 0 0  1.84 0 0  1.88 0 0  1.92 0 0  1.96 0 0  2 0 0  0 0.02 0  0.04 0.02 0  0.08 0.02 0  0.12 0.02 0  0.16 0.02 0  0.2 0.02 0  0.24 0.02 0  0.28 0.02 0  0.32 0.02 0  0.36 0.02 0  0.4 0.02 0  0.44 0.02 0  0.48 0.02 0  0.52 0.02 0  0.5600000000000001 0.02 0  0.6 0.02 0  0.64 0.02 0  0.68 0.02 0  0.72 0.02 0  0.76 0.02 0  0.8 0.02 0  0.84 0.02 0  0.88 0.02 0  0.92 0.02 0  0.96 0.02 0  1 0.02 0  1.04 0.02 0  1.08 0.02 0  1.12 0.02 0  1.16 0.02 0  1.2 0.02 0  1.24 0.02 0  1.28 0.02 0  1.32 0.02 0  1.36 0.02 0  1.4 0.02 0  1.44 0.02 0  1.48 0.02 0  1.52 0.02 0  1.56 0.02 0  1.6 0.02 0  1.64 0.02 0  1.68 0.02 0  1.72 0.02 0  1.76 0.02 0  1.8 0.02 0  1.84 0.02 0  1.88 0.02 0  1.92 0.02 0  1.96 0.02 0  2 0.02 0  0 0.04 0  0.04 0.04 0  0.08 0.04 0  0.12 0.04 0  0.16 0.04 0  0.2 0.04 0  0.24 0.04 0  0.28 0.04 0  0.32 0.04 0  0.36 0.04 0  0.4 0.04 0  0.44 0.04 0  0.48 0.04 0  0.52 0.04 0  0.5600000000000001 0.04 0  0.6 0.04 0  0.64 0.04 0  0.68 0.04 0  0.72 0.04 0  0.76 0.04 0  0.8 0.04 0  0.84 0.04 0  0.88 0.04 0  0.92 0.04 0  0.96 0.04 0  1 0.04 0  1.04 0.04 0  1.08 0.04 0  1.12 0.04 0  1.16 0.04 0  1.2 0.04 0  1.24 0.04 0  1.28 0.04 0  1.32 0.04 0  1.36 0.04 0  1.4 0.04 0  1.44 0.04 0  1.48 0.04 0  1.52 0.04 0  1.56 0.04 0  1.6 0.04 0  1.64 0.04 0  1.68 0.04 0  1.72 0.04 0  1.76 0.04 0  1.8 0.04 0  1.84 0.04 0  1.88 0.04 0  1.92 0.04 0  1.96 0.04 0  2 0.04 0  0 0.06 0  0.04 0.06 0  0.08 0.06 0  0.12 0.06 0  0.16 0.06 0  0.2 0.06 0  0.24 0.06 0  0.28 0.06 0  0.32 0.06 0  0.36 0.06 0  0.4 0.06 0  0.44 0.06 0  0.48 0.06 0  0.52 0.06 0  0.5600000000000001 0.06 0  0.6 0.06 0  0.64 0.06 0  0.68 0.06 0  0.72 0.06 0  0.76 0.06 0  0.8 0.06 0  0.84 0.06 0  0.88 0.06 0  0.92 0.06 0  0.96 0.06 0  1 0.06 0  1.04 0.06 0  1.08 0.06 0  1.12 0.06 0  1.16 0.06 0  1.2 0.06 0  1.24 0.06 0  1.28 0.06 0  1.32 0.06 0  1.36 0.06 0  1.4 0.06 0  1.44 0.06 0  1.48 0.06 0  1.52 0.06 0  1.56 0.06 0  1.6 0.06 0  1.64 0.06 0  1.68 0.06 0  1.72 0.06 0  1.76 0.06 0  1.8 0.06 0  1.84 0.06 0  1.88 0.06 0  1.92 0.06 0  1.96 0.06 0  2 0.06 0  0 0.08 0  0.04 0.08 0  0.08 0.08 0  0.12 0.08 0  0.16 0.08 0  0.2 0.08 0  0.24 0.08 0  0.28 0.08 0  0.32 0.08 0  0.36 0.08 0  0.4 0.08 0  0.44 0.08 0  0.48 0.08 0  0.52 0.08 0  0.5600000000000001 0.08 0  0.6 0.08 0  0.64 0.08 0  0.68 0.08 0  0.72 0.08 0  0.76 0.08 0  0.8 0.08 0  0.84 0.08 0  0.88 0.08 0  0.92 0.08 0  0.96 0.08 0  1 0.08 0  1.04 0.08 0  1.08 0.08 0  1.12 0.08 0  1.16 0.08 0  1.2 0.08 0  1.24 0.08 0  1.28 0.08 0  1.32 0.08 0  1.36 0.08 0  1.4 0.08 0  1.44 0.08 0  1.48 0.08 0  1.52 0.08 0  1.56 0.08 0  1.6 0.08 0  1.64 0.08 0  1.68 0.08 0  1.72 0.08 0  1.76 0.08 0  1.8 0.08 0  1.84 0.08 0  1.88 0.08 0  1.92 0.08 0  1.96 0.08 0  2 0.08 0  0 0.1 0  0.04 0.1 0  0.08 0.1 0  0.12 0.1 0  0.16 0.1 0  0.2 0.1 0  0.24 0.1 0  0.28 0.1 0  0.32 0.1 0  0.36 0.1 0  0.4 0.1 0  0.44 0.1 0  0.48 0.1 0  0.52 0.1 0  0.5600000000000001 0.1 0  0.6 0.1 0  0.64 0.1 0  0.68 0.1 0  0.72 0.1 0  0.76 0.1 0  0.8 0.1 0  0.84 0.1 0  0.88 0.1 0  0.92 0.1 0  0.96 0.1 0  1 0.1 0  1.04 0.1 0  1.08 0.1 0  1.12 0.1 0  1.16 0.1 0  1.2 0.1 0  1.24 0.1 0  1.28 0.1 0  1.32 0.1 0  1.36 0.1 0  1.4 0.1 0  1.44 0.1 0  1.48 0.1 0  1.52 0.1 0  1.56 0.1 0  1.6 0.1 0  1.64 0.1 0  1.68 0.1 0  1.72 0.1 0  1.76 0.1 0  1.8 0.1 0  1.84 0.1 0  1.88 0.1 0  1.92 0.1 0  1.96 0.1 0  2 0.1 0  0 0.12 0  0.04 0.12 0  0.08 0.12 0  0.12 0.12 0  0.16 0.12 0  0.2 0.12 0  0.24 0.12 0  0.28 0.12 0  0.32 0.12 0  0.36 0.12 0  0.4 0.12 0  0.44 0.12 0  0.48 0.12 0  0.52 0.12 0  0.5600000000000001 0.12 0  0.6 0.12 0  0.64 0.12 0  0.68 0.12 0  0.72 0.12 0  0.76 0.12 0  0.8 0.12 0  0.84 0.12 0  0.88 0.12 0  0.92 0.12 0  0.96 0.12 0  1 0.12 0  1.04 0.12 0  1.08 0.12 0  1.12 0.12 0  1.16 0.12 0  1.2 0.12 0  1.24 0.12 0  1.28 0.12 0  1.32 0.12 0  1.36 0.12 0  1.4 0.12 0  1.44 0.12 0  1.48 0.12 0  1.52 0.12 0  1.56 0.12 0  1.6 0.12 0  1.64 0.12 0  1.68 0.12 0  1.72 0.12 0  1.76 0.12 0  1.8 0.12 0  1.84 0.12 0  1.88 0.12 0  1.92 0.12 0  1.96 0.12 0  2 0.12 0  0 0.14 0  0.04 0.14 0  0.08 0.14 0  0.12 0.14 0  0.16 0.14 0  0.2 0.14 0  0.24 0.14 0  0.28 0.14 0  0.32 0.14 0  0.36 0.14 0  0.4 0.14 0  0.44 0.14 0  0.48 0.14 0  0.52 0.14 0  0.5600000000000001 0.14 0  0.6 0.14 0  0.64 0.14 0  0.68 0.14 0  0.72 0.14 0  0.76 0.14 0  0.8 0.14 0  0.84 0.14 0  0.88 0.14 0  0.92 0.14 0  0.96 0.14 0  1 0.14 0  1.04 0.14 0  1.08 0.14 0  1.12 0.14 0  1.16 0.14 0  1.2 0.14 0  1.24 0.14 0  1.28 0.14 0  1.32 0.14 0  1.36 0.14 0  1.4 0.14 0  1.44 0.14 0  1.48 0.14 0  1.52 0.14 0  1.56 0.14 0  1.6 0.14 0  1.64 0.14 0  1.68 0.14 0  1.72 0.14 0  1.76 0.14 0  1.8 0.14 0  1.84 0.14 0  1.88 0.14 0  1.92 0.14 0  1.96 0.14 0  2 0.14 0  0 0.16 0  0.04 0.16 0  0.08 0.16 0  0.12 0.16 0  0.16 0.16 0  0.2 0.16 0  0.24 0.16 0  0.28 0.16 0  0.32 0.16 0  0.36 0.16 0  0.4 0.16 0  0.44 0.16 0  0.48 0.16 0  0.52 0.16 0  0.5600000000000001 0.16 0  0.6 0.16 0  0.64 0.16 0  0.68 0.16 0  0.72 0.16 0  0.76 0.16 0  0.8 0.16 0  0.84 0.16 0  0.88 0.16 0  0.92 0.16 0  0.96 0.16 0  1 0.16 0  1.04 0.16 0  1.08 0.16 0  1.12 0.16 0  1.16 0.16 0  1.2 0.16 0  1.24 0.16 0  1.28 0.16 0  1.32 0.16 0  1.36 0.16 0  1.4 0.16 0  1.44 0.16 0  1.48 0.16 0  1.52 0.16 0  1.56 0.16 0  1.6 0.16 0  1.64 0.16 0  1.68 0.16 0  1.72 0.16 0  1.76 0.16 0  1.8 0.16 0  1.84 0.16 0  1.88 0.16 0  1.92 0.16 0  1.96 0.16 0  2 0.16 0  0 0.18 0  0.04 0.18 0  0.08 0.18 0  0.12 0.18 0  0.16 0.18 0  0.2 0.18 0  0.24 0.18 0  0.28 0.18 0  0.32 0.18 0  0.36 0.18 0  0.4 0.18 0  0.44 0.18 0  0.48 0.18 0  0.52 0.18 0  0.5600000000000001 0.18 0  0.6 0.18 0  0.64 0.18 0  0.68 0.18 0  0.72 0.18 0  0.76 0.18 0  0.8 0.18 0  0.84 0.18 0  0.88 0.18 0  0.92 0.18 0  0.96 0.18 0  1 0.18 0  1.04 0.18 0  1.08 0.18 0  1.12 0.18 0  1.16 0.18 0  1.2 0.18 0  1.24 0.18 0  1.28 0.18 0  1.32 0.18 0  1.36 0.18 0  1.4 0.18 0  1.44 0.18 0  1.48 0.18 0  1.52 0.18 0  1.56 0.18 0  1.6 0.18 0  1.64 0.18 0  1.68 0.18 0  1.72 0.18 0  1.76 0.18 0  1.8 0.18 0  1.84 0.18 0  1.88 0.18 0  1.92 0.18 0  1.96 0.18 0  2 0.18 0  0 0.2 0  0.04 0.2 0  0.08 0.2 0  0.12 0.2 0  0.16 0.2 0  0.2 0.2 0  0.24 0.2 0  0.28 0.2 0  0.32 0.2 0  0.36 0.2 0  0.4 0.2 0  0.44 0.2 0  0.48 0.2 0  0.52 0.2 0  0.5600000000000001 0.2 0  0.6 0.2 0  0.64 0.2 0  0.68 0.2 0  0.72 0.2 0  0.76 0.2 0  0.8 0.2 0  0.84 0.2 0  0.88 0.2 0  0.92 0.2 0  0.96 0.2 0  1 0.2 0  1.04 0.2 0  1.08 0.2 0  1.12 0.2 0  1.16 0.2 0  1.2 0.2 0  1.24 0.2 0  1.28 0.2 0  1.32 0.2 0  1.36 0.2 0  1.4 0.2 0  1.44 0.2 0  1.48 0.2 0  1.52 0.2 0  1.56 0.2 0  1.6 0.2 0  1.64 0.2 0  1.68 0.2 0  1.72 0.2 0  1.76 0.2 0  1.8 0.2 0  1.84 0.2 0  1.88 0.2 0  1.92 0.2 0  1.96 0.2 0  2 0.2 0  0 0.22 0  0.04 0.22 0  0.08 0.22 0  0.12 0.22 0  0.16 0.22 0  0.2 0.22 0  0.24 0.22 0  0.28 0.22 0  0.32 0.22 0  0.36 0.22 0  0.4 0.22 0  0.44 0.22 0  0.48 0.22 0  0.52 0.22 0  0.5600000000000001 0.22 0  0.6 0.22 0  0.64 0.22 0  0.68 0.22 0  0.72 0.22 0  0.76 0.22 0  0.8 0.22 0  0.84 0.22 0  0.88 0.22 0  0.92 0.22 0  0.96 0.22 0  1 0.22 0  1.04 0.22 0  1.08 0.22 0  1.12 0.22 0  1.16 0.22 0  1.2 0.22 0  1.24 0.22 0  1.28 0.22 0  1.32 0.22 0  1.36 0.22 0  1.4 0.22 0  1.44 0.22 0  1.48 0.22 0  1.52 0.22 0  1.56 0.22 0  1.6 0.22 0  1.64 0.22 0  1.68 0.22 0  1.72 0.22 0  1.76 0.22 0  1.8 0.22 0  1.84 0.22 0  1.88 0.22 0  1.92 0.22 0  1.96 0.22 0  2 0.22 0  0 0.24 0  0.04 0.24 0  0.08 0.24 0  0.12 0.24 0  0.16 0.24 0  0.2 0.24 0  0.24 0.24 0  0.28 0.24 0  0.32 0.24 0  0.36 0.24 0  0.4 0.24 0  0.44 0.24 0  0.48 0.24 0  0.52 0.24 0  0.5600000000000001 0.24 0  0.6 0.24 0  0.64 0.24 0  0.68 0.24 0  0.72 0.24 0  0.76 0.24 0  0.8 0.24 0  0.84 0.24 0  0.88 0.24 0  0.92 0.24 0  0.96 0.24 0  1 0.24 0  1.04 0.24 0  1.08 0.24 0  1.12 0.24 0  1.16 0.24 0  1.2 0.24 0  1.24 0.24 0  1.28 0.24 0  1.32 0.24 0  1.36 0.24 0  1.4 0.24 0  1.44 0.24 0  1.48 0.24 0  1.52 0.24 0  1.56 0.24 0  1.6 0.24 0  1.64 0.24 0  1.68 0.24 0  1.72 0.24 0  1.76 0.24 0  1.8 0.24 0  1.84 0.24 0  1.88 0.24 0  1.92 0.24 0  1.96 0.24 0  2 0.24 0  0 0.26 0  0.04 0.26 0  0.08 0.26 0  0.12 0.26 0  0.16 0.26 0  0.2 0.26 0  0.24 0.26 0  0.28 0.26 0  0.32 0.26 0  0.36 0.26 0  0.4 0.26 0  0.44 0.26 0  0.48 0.26 0  0.52 0.26 0  0.5600000000000001 0.26 0  0.6 0.26 0  0.64 0.26 0  0.68 0.26 0  0.72 0.26 0  0.76 0.26 0  0.8 0.26 0  0.84 0.26 0  0.88 0.26 0  0.92 0.26 0  0.96 0.26 0  1 0.26 0  1.04 0.26 0  1.08 0.26 0  1.12 0.26 0  1.16 0.26 0  1.2 0.26 0  1.24 0.26 0  1.28 0.26 0  1.32 0.26 0  1.36 0.26 0  1.4 0.26 0  1.44 0.26 0  1.48 0.26 0  1.52 0.26 0  1.56 0.26 0  1.6 0.26 0  1.64 0.26 0  1.68 0.26 0  1.72 0.26 0  1.76 0.26 0  1.8 0.26 0  1.84 0.26 0  1.88 0.26 0  1.92 0.26 0  1.96 0.26 0  2 0.26 0  0 0.28 0  0.04 0.28 0  0.08 0.28 0  0.12 0.28 0  0.16 0.28 0  0.2 0.28 0  0.24 0.28 0  0.28 0.28 0  0.32 0.28 0  0.36 0.28 0  0.4 0.28 0  0.44 0.28 0  0.48 0.28 0  0.52 0.28 0  0.5600000000000001 0.28 0  0.6 0.28 0  0.64 0.28 0  0.68 0.28 0  0.72 0.28 0  0.76 0.28 0  0.8 0.28 0  0.84 0.28 0  0.88 0.28 0  0.92 0.28 0  0.96 0.28 0  1 0.28 0  1.04 0.28 0  1.08 0.28 0  1.12 0.28 0  1.16 0.28 0  1.2 0.28 0  1.24 0.28 0  1.28 0.28 0  1.32 0.28 0  1.36 0.28 0  1.4 0.28 0  1.44 0.28 0  1.48 0.28 0  1.52 0.28 0  1.56 0.28 0  1.6 0.28 0  1.64 0.28 0  1.68 0.28 0  1.72 0.28 0  1.76 0.28 0  1.8 0.28 0  1.84 0.28 0  1.88 0.28 0  1.92 0.28 0  1.96 0.28 0  2 0.28 0  0 0.3 0  0.04 0.3 0  0.08 0.3 0  0.12 0.3 0  0.16 0.3 0  0.2 0.3 0  0.24 0.3 0  0.28 0.3 0  0.32 0.3 0  0.36 0.3 0  0.4 0.3 0  0.44 0.3
[...]
<PointData  Vectors="f_26-0"> 
<DataArray  type="Float64"  Name="f_26-0"  NumberOfComponents="3" format="ascii">0.0000000000000000e+00 0.0000000000000000e+00 0.0000000000000000e+00  0.0000000000000000e+00 0.0000000000000000e+00 0.0000000000000000e+00  0.0000000000000000e+00 0.0000000000000000e+00 0.0000000000000000e+00  0.0000000000000000e+00 0.0000000000000000e+00 0.0000000000000000e+00  0.0000000000000000e+00 0.0000000000000000e+00 0.0000000000000000e+00  0.0000000000000000e+00 0.0000000000000000e+00 0.0000000000000000e+00  0.0000000000000000e+00 0.0000000000000000e+00 0.0000000000000000e+00  0.0000000000000000e+00 0.0000000000000000e+00 0.0000000000000000e+00  0.0000000000000000e+00 0.0000000000000000e+00 0.0000000000000000e+00  0.0000000000000000e+00 0.0000000000000000e+00 0.0000000000000000e+00  0.0000000000000000e+00 0.0000000000000000e+00 0.0000000000000000e+00  0.0000000000000000e+00 0.0000000000000000e+00 0.0000000000000000e+00  0.0000000000000000e+00 0.0000000000000000e+00 0.0000000000000000e+00  0.0000000000000000e+00 0.0000000000000000e+00 0.0000000000000000e+00  0.0000000000000000e+00 0.0000000000000000e+00 0.0000000000000000e+00  0.0000000000000000e+00 0.0000000000000000e+00 0.0000000000000000e+00  0.0000000000000000e+00 0.0000000000000000e+00 0.0000000000000000e+00  0.0000000000000000e+00 0.0000000000000000e+00 0.0000000000000000e+00  0.0000000000000000e+00 0.0000000000000000e+00 0.0000000000000000e+00  0.0000000000000000e+00 0.0000000000000000e+00 0.0000000000000000e+00  0.0000000000000000e+00 0.0000000000000000e+00 0.0000000000000000e+00  0.0000000000000000e+00 0.0000000000000000e+00 0.0000000000000000e+00  0.0000000000000000e+00 0.0000000000000000e+00 0.0000000000000000e+00  0.0000000000000000e+00 0.0000000000000000e+00 0.0000000000000000e+00  0.0000000000000000e+00 0.0000000000000000e+00 0.0000000000000000e+00  0.0000000000000000e+00 0.0000000000000000e+00 0.0000000000000000e+00  0.0000000000000000e+00 0.0000000000000000e+00 0.0000000000000000e+00  0.0000000000000000e+00 0.0000000000000000e+00 0.0000000000000000e+00  0.0000000000000000e+00 0.0000000000000000e+00 0.0000000000000000e+00  0.0000000000000000e+00 0.0000000000000000e+00 0.0000000000000000e+00  0.0000000000000000e+00 0.0000000000000000e+00 0.0000000000000000e+00  0.0000000000000000e+00 0.0000000000000000e+00 0.0000000000000000e+00  0.0000000000000000e+00 0.0000000000000000e+00 0.0000000000000000e+00  0.0000000000000000e+00 0.0000000000000000e+00 0.0000000000000000e+00  0.0000000000000000e+00 0.0000000000000000e+00 0.0000000000000000e+00  0.0000000000000000e+00 0.0000000000000000e+00 0.0000000000000000e+00  0.0000000000000000e+00 0.0000000000000000e+00 0.0000000000000000e+00  0.0000000000000000e+00 0.0000000000000000e+00 0.0000000000000000e+00  0.0000000000000000e+00 0.0000000000000000e+00 0.0000000000000000e+00  0.0000000000000000e+00 0.0000000000000000e+00 0.0000000000000000e+00  0.0000000000000000e+00 0.0000000000000000e+00 0.0000000000000000e+00  0.0000000000000000e+00 0.0000000000000000e+00 0.0000000000000000e+00  0.0000000000000000e+00 0.0000000000000000e+00 0.0000000000000000e+00  0.0000000000000000e+00 0.0000000000000000e+00 0.0000000000000000e+00  0.0000000000000000e+00 0.0000000000000000e+00 0.0000000000000000e+00  0.0000000000000000e+00 0.0000000000000000e+00 0.0000000000000000e+00  0.0000000000000000e+00 0.0000000000000000e+00 0.0000000000000000e+00  0.0000000000000000e+00 0.0000000000000000e+00 0.0000000000000000e+00  0.0000000000000000e+00 0.0000000000000000e+00 0.0000000000000000e+00  0.0000000000000000e+00 0.0000000000000000e+00 0.0000000000000000e+00  0.0000000000000000e+00 0.0000000000000000e+00 0.0000000000000000e+00  1.0000000000000000e-02 0.0000000000000000e+00 0.0000000000000000e+00  8.5648585040726359e-03 8.9372429603869945e-04 0.0000000000000000e+00  9.3487064726908136e-03 -8.0676184315296728e-04 0.0000000000000000e+00  1.4418167480899583e-02 -1.5861051295933571e-03 0.0000000000000000e+00  2.1387777221375838e-02 -2.0119640718426418e-03 0.0000000000000000e+00  2.9675541567735136e-02 -2.2903810866046225e-03 0.0000000000000000e+00  3.8924162228157033e-02 -2.5283813375269431e-03 0.0000000000000000e+00  4.9092776594324927e-02 -2.7742563835206880e-03 0.0000000000000000e+00  6.0272665626086595e-02 -3.0578470479521395e-03 0.0000000000000000e+00  7.2646319729123887e-02 -3.3981099112407173e-03 0.0000000000000000e+00  8.6458122326121531e-02 -3.8090313098493658e-03 0.0000000000000000e+00  1.0200170607269313e-01 -4.3025629366040957e-03 0.0000000000000000e+00  1.1961553903478853e-01 -4.8902479346861439e-03 0.0000000000000000e+00  1.3968326279089327e-01 -5.5841895793777904e-03 0.0000000000000000e+00  1.6263692101781788e-01 -6.3976264904739549e-03 0.0000000000000000e+00  1.8896195267759638e-01 -7.3452958702629450e-03 0.0000000000000000e+00  2.1920333333652589e-01 -8.4436763142072945e-03 0.0000000000000000e+00  2.5397251122232067e-01 -9.7111624676394018e-03 0.0000000000000000e+00  2.9395493165427111e-01 -1.1168197309322439e-02 0.0000000000000000e+00  3.3991800768363145e-01 -1.2837369706768624e-02 0.0000000000000000e+00  3.9271939751082630e-01 -1.4743470187357350e-02 0.0000000000000000e+00  4.5331539775467306e-01 -1.6913483949243597e-02 0.0000000000000000e+00  5.2276915596788820e-01 -1.9376485699416694e-02 0.0000000000000000e+00  6.0225824324940613e-01 -2.2163385812050549e-02 0.0000000000000000e+00  6.9308090785765675e-01 -2.5306462855951600e-02 0.0000000000000000e+00  7.9666006145095969e-01 -2.8838607034864638e-02 0.0000000000000000e+00  9.1454375663534448e-01 -3.2792198575938056e-02 0.0000000000000000e+00  1.0484006534840928e+00 -3.7197564313890000e-02 0.0000000000000000e+00  1.2000088448989104e+00 -4.2081009153908083e-02 0.0000000000000000e+00  1.3712365831584139e+00 -4.7462526379700554e-02 0.0000000000000000e+00  1.5640141739418705e+00 -5.3353478286967335e-02 0.0000000000000000e+00  1.7802979456853880e+00 -5.9754834219964463e-02 0.0000000000000000e+00  2.0220302216532793e+00 -6.6657000509823192e-02 0.0000000000000000e+00  2.2911043119273855e+00 -7.4042878377416493e-02 0.0000000000000000e+00  2.5893511685646353e+00 -8.1896686985728218e-02 0.0000000000000000e+00  2.9185763165668277e+00 -9.0221931775460951e-02 0.0000000000000000e+00  3.2806896289634908e+00 -9.9074066290976343e-02 0.0000000000000000e+00  3.6779988135133865e+00 -1.0861193146778289e-01 0.0000000000000000e+00  4.1137406063480570e+00 -1.1918509052161817e-01 0.0000000000000000e+00  4.5930434315107211e+00 -1.3143231597333510e-01 0.0000000000000000e+00  5.1242312827518557e+00 -1.4652719078056109e-01 0.0000000000000000e+00  5.7215560908437642e+00 -1.6609873304498926e-01 0.0000000000000000e+00  6.4061343729544848e+00 -1.9349594508659654e-01 0.0000000000000000e+00  7.2172332418379304e+00 -2.3047372319786125e-01 0.0000000000000000e+00  8.1898845038483614e+00 -2.8849553914326187e-01 0.0000000000000000e+00  9.4491106840774854e+00 -3.5367535971644326e-01 0.0000000000000000e+00  1.0911657355261907e+01 -4.8796397057192908e-01 0.0000000000000000e+00  1.3255657378165495e+01 -5.6401574681245037e-01 0.0000000000000000e+00  1.5105833881133870e+01 -1.0040972990264898e+00 0.0000000000000000e+00  2.1863544689126510e+01 -1.3784210937298111e+00 0.0000000000000000e+00  2.3995684101304818e+01 -3.5475387187759617e+00 0.0000000000000000e+00  1.0000000000000000e-02 0.0000000000000000e+00 0.0000000000000000e+00  1.2445346159783459e-02 5.2142564034862390e-04 0.0000000000000000e+00  1.7341200449552015e-02 -3.5018689519885700e-03 0.0000000000000000e+00  2.6720260573737668e-02 -5.9602233118195569e-03 0.0000000000000000e+00  3.9199561103321276e-02 -7.4450104816789825e-03 0.0000000000000000e+00  5.3910264343758174e-02 -8.4757086477393051e-03 0.0000000000000000e+00  7.0354906075917378e-02 -9.3644762118137402e-03 0.0000000000000000e+00  8.8463315829467593e-02 -1.0282949189426993e-02 0.0000000000000000e+00  1.0838952714208036e-01 -1.1338126254217885e-02 0.0000000000000000e+00  1.3044872450226394e-01 -1.2600319593142674e-02 0.0000000000000000e+00  1.5506764198550343e-01 -1.4122037995709137e-02 0.0000000000000000e+00  1.8276285591378699e-01 -1.5948070997613622e-02 0.0000000000000000e+00  2.1413198911757728e-01 -1.8121443163304454e-02 0.0000000000000000e+00  2.4985345602865688e-01 -2.0686970514103412e-02 0.0000000000000000e+00  2.9069138416317014e-01 -2.3693423373786653e-02 0.0000000000000000e+00  3.3750378567435130e-01 -2.7194899893407971e-02 0.0000000000000000e+00  3.9125285458135439e-01 -3.1251745766103962e-02 0.0000000000000000e+00  4.5301673192566938e-01 -3.5931214160693725e-02 0.0000000000000000e+00  5.2400235095759018e-01 -4.1307964798401008e-02 0.0000000000000000e+00  6.0555909997976165e-01 -4.7464434741097954e-02 0.0000000000000000e+00  6.9919305701490220e-01 -5.4491058838952236e-02 0.0000000000000000e+00  8.0658146934637398e-01 -6.2486265969406013e-02 0.0000000000000000e+00  9.2958697239813537e-01 -7.1556123507462113e-02 0.0000000000000000e+00  1.0702707620451726e+00 -8.1813446484423194e-02 0.0000000000000000e+00  1.2309035519882678e+00 -9.3376134503854041e-02 0.0000000000000000e+00  1.4139726783823356e+00 -1.0636446085868949e-01 0.0000000000000000e+00  1.6221832036317747e+00 -1.2089703669054878e-01 0.0000000000000000e+00  1.8584504186692459e+00 -1.3708524415955084e-01 0.0000000000000000e+00  2.1258809258818330e+00 -1.5502612900639515e-01 0.0000000000000000e+00  2.4277397933185298e+00 -1.7479413649096717e-01 0.0000000000000000e+00  2.7674025385774215e+00 -1.9643275739932470e-01 0.0000000000000000e+00  3.1482935493594377e+00 -2.1994823153449336e-01 0.0000000000000000e+00  3.5738177629080119e+00 -2.4530905514707907e-01 0.0000000000000000e+00  4.0473011260119831e+00 -2.7245727382585599e-01 0.0000000000000000e+00  4.5719683904004089e+00 -3.0134052888553714e-01 0.0000000000000000e+00  5.1510067337596777e+00 -3.3197762309624651e-01 0.0000000000000000e+00  5.7877875766365410e+00 -3.6457505667173645e-01 0.0000000000000000e+00  6.4863628264486461e+00 -3.9971724795282831e-01 0.0000000000000000e+00  7.2523636565413527e+00 -4.3865852261394139e-01 0.0000000000000000e+00  8.0945878641430102e+00 -4.8374699374084307e-01 0.0000000000000000e+00  9.0272145674063111e+00 -5.3900599010801298e-01 0.0000000000000000e+00  1.0073969441985502e+01 -6.1084702325055507e-01 0.0000000000000000e+00  1.1270448997556796e+01 -7.0889398174485618e-01 0.0000000000000000e+00  1.2678417182668257e+01 -8.4620283694688292e-01 0.0000000000000000e+00  1.4360328013565544e+01 -1.0400937552438927e+00 0.0000000000000000e+00  1.6489997852028250e+01 -1.3059738376168033e+00 0.0000000000000000e+00  1.8979484803548562e+01 -1.6721325913797283e+00 0.0000000000000000e+00  2.2688452851924563e+01 -2.1474023386430758e+00 0.0000000000000000e+00  2.5556396009161794e+01 -2.9689082411150225e+00 0.0000000000000000e+00  3.4275276107451951e+01 -4.5662391259816975e+00 0.0000000000000000e+00  2.9437116554028751e+01 -7.2001971932714239e+00 0.0000000000000000e+00  1.0000000000000000e-02 0.0000000000000000e+00 0.0000000000000000e+00  1.4344439153135069e-02 -2.0510577232178422e-03 0.0000000000000000e+00  2.3411685044536428e-02 -8.1617486196586542e-03 0.0000000000000000e+00  3.6709955806352973e-02 -1.2614224177643180e-02 0.0000000000000000e+00  5.3622569608231710e-02 -1.5540996067300564e-02 0.0000000000000000e+00  7.3300567242268952e-02 -1.7672825819778790e-02 0.0000000000000000e+00  9.5272162713633993e-02 -1.9534942807085291e-02 0.0000000000000000e+00  1.1947093450942271e-01 -2.1462443103588441e-02 0.0000000000000000e+00  1.4610640203690550e-01 -2.3670232873754159e-02 0.0000000000000000e+00  1.7559286873177468e-01 -2.6304498301638560e-02 0.0000000000000000e+00  2.0849238003764062e-01 -2.9475702705270938e-02 0.0000000000000000e+00  2.4548799289184203e-01 -3.3278149199131926e-02 0.0000000000000000e+00  2.8737176135188292e-01 -3.7802021672650614e-02 0.0000000000000000e+00  3.3504372854752590e-01 -4.3140703764691986e-02 0.0000000000000000e+00  3.8951763012297602e-01 -4.9395328065904881e-02 0.0000000000000000e+00  4.5193097770016633e-01 -5.6677687946201948e-02 0.0000000000000000e+00  5.2355803732263873e-01 -6.5112195204717685e-02 0.0000000000000000e+00  6.0582482331662924e-01 -7.4837284217189853e-02 0.0000000000000000e+00  7.0032558245049170e-01 -8.6006474196489824e-02 0.0000000000000000e+00  8.0884042011522839e-01 -9.8789165064734105e-02 0.0000000000000000e+00  9.3335375567516998e-01 -1.1337112864903207e-01 0.0000000000000000e+00  1.0760731997619930e+00 -1.2995454840820631e-01 0.0000000000000000e+00  1.2394482212363644e+00 -1.4875734835164398e-01 0.0000000000000000e+00  1.4261876093832466e+00 -1.7001143458340323e-01 0.0000000000000000e+00  1.6392742366415480e+00 -1.9395936117982435e-01 0.0000000000000000e+00  1.8819750077103108e+00 -2.2084885104691662e-01 0.0000000000000000e+00  2.1578432012124975e+00 -2.5092459782323534e-01 0.0000000000000000e+00  2.4707097964202069e+00 -2.8441691997481416e-01 0.0000000000000000e+00  2.8246600572673404e+00 -3.2152724008612621e-01 0.0000000000000000e+00  3.2239919885105048e+00 -3.6241116667512630e-01 0.0000000000000000e+00  3.6731548345421379e+00 -4.0716134727389175e-01 0.0000000000000000e+00  4.1766693397004699e+00 -4.5579445682819514e-01 0.0000000000000000e+00  4.7390380146955495e+00 -5.0824991849462986e-01 0.0000000000000000e+00  5.3646645076462605e+00 -5.6441245050531630e-01 0.0000000000000000e+00  6.0578174283597948e+00 -6.2417648456445129e-01 0.0000000000000000e+00  6.8226984525752812e+00 -6.8757800329981034e-01 0.0000000000000000e+00  7.6637039957851361e+00 -7.5502836030292753e-01 0.0000000000000000e+00  8.5860210998946567e+00 -8.2769448922933531e-01 0.0000000000000000e+00  9.5967141553416582e+00 -9.0807882360765813e-01 0.0000000000000000e+00  1.0706627010705434e+01 -1.0008539015957181e+00 0.0000000000000000e+00  1.1933055766185712e+01 -1.1139843775713478e+00 0.0000000000000000e+00  1.3304512375230118e+01 -1.2600957150630092e+00 0.0000000000000000e+00  1.4863769728800637e+01 -1.4578130624015242e+00 0.0000000000000000e+00  1.6682117405467135e+01 -1.7324145096198675e+00 0.0000000000000000e+00  1.8834445601056412e+01 -2.1144129315637579e+00 0.0000000000000000e+00  2.1501715541755274e+01 -2.6333637913285810e+00 0.0000000000000000e+00  2.4585541598838226e+01 -3.3128661730688038e+00 0.0000000000000000e+00  2.8889457532397287e+01 -4.1524414581117899e+00 0.0000000000000000e+00  3.1792957982478395e+01 -5.2428936148364889e+00 0.0000000000000000e+00  3.9519431043399777e+01 -6.5513387624843791e+00 0.0000000000000000e+00  2.5740582072849946e+01 -7.2191707143717423e+00 0.0000000000000000e+00  1.0000000000000000e-02 0.0000000000000000e+00 0.0000000000000000e+00  1.5546803961754991e-02 -6.2318962823068409e-03 0.0000000000000000e+00  2.7785664625921046e-02 -1.4648229611241020e-02 0.0000000000000000e+00  4.4466741007992486e-02 -2.1157075247354665e-02 0.0000000000000000e+00  6.4912640961046861e-02 -2.5718746036415149e-02 0.0000000000000000e+00  8.8392914151195850e-02 -2.9170506068055012e-02 0.0000000000000000e+00  1.1452521667173195e-01 -3.2237309041031982e-02 0.0000000000000000e+00  1.4327938502463772e-01 -3.5424430232045043e-02 0.0000000000000000e+00  1.7492083667508743e-01 -3.9070808551918773e-02 0.0000000000000000e+00  2.0993979293184939e-01 -4.3414533522560431e-02 0.0000000000000000e+00  2.4899797036784366e-01 -4.8637961152867462e-02 0.0000000000000000e+00  2.9289987504874032e-01 -5.4897413168824141e-02 0.0000000000000000e+00  3.4257933067631874e-01 -6.2342011517738591e-02 0.0000000000000000e+00  3.9909795038468687e-01 -7.1125472198142164e-02 0.0000000000000000e+00  4.6365115694221543e-01 -8.1413580045535894e-02 0.0000000000000000e+00  5.3757932881479176e-01 -9.3389026823694807e-02 0.0000000000000000e+00  6.2238238816828928e-01 -1.0725468729158365e-01 0.0000000000000000e+00  7.1973682705945241e-01 -1.2323597762230984e-01 0.0000000000000000e+00  8.3151456429032988e-01 -1.4158264925627428e-01 0.0000000000000000e+00  9.5980324144049722e-01 -1.6257015279188741e-01 0.0000000000000000e+00  1.1069276224074287e+00 -1.8650052083843779e-01 0.0000000000000000e+00  1.2754716661282959e+00 -2.1370253989031826e-01 0.0000000000000000e+00  1.4683005929076567e+00 -2.4453079492202567e-01 0.0000000000000000e+00  1.6885818511074069e+00 -2.7936297571518565e-01 0.0000000000000000e+00  1.9398033089990767e+00 -3.1859464738314819e-01 0.0000000000000000e+00  2.2257862643731285e+00 -3.6263054971462472e-01 0.0000000000000000e+00  2.5506900445170597e+00 -4.1187147458288320e-01 0.0000000000000000e+00  2.9190041984801725e+00 -4.6669599524857958e-01 0.0000000000000000e+00  3.3355238114811958e+00 -5.2743695726361028e-01 0.0000000000000000e+00  3.8053037041587046e+00 -5.9435391979452157e-01 0.0000000000000000e+00  4.3335888219914640e+00 -6.6760495047131962e-01 0.0000000000000000e+00  4.9257218261563231e+00 -7.4722466587972547e-01 0.0000000000000000e+00  5.5870358402215734e+00 -8.3312053306106704e-01 0.0000000000000000e+00  6.3227519339615101e+00 -9.2510654102159295e-01 0.0000000000000000e+00  7.1379183609579133e+00 -1.0230026689027385e+00 0.0000000000000000e+00  8.0374547067966216e+00 -1.1268401939081623e+00 0.0000000000000000e+00  9.0263952106785386e+00 -1.2372265247202732e+00 0.0000000000000000e+00  1.0110479303926239e+01 -1.3559375889291598e+00 0.0000000000000000e+00  1.1297250005028188e+01 -1.4868172764564389e+00 0.0000000000000000e+00  1.2597996578527660e+01 -1.6370608572992413e+00 0.0000000000000000e+00  1.4030454528029946e+01 -1.8189159138781505e+00 0.0000000000000000e+00  1.5623622208116235e+01 -2.0516956497031908e+00 0.0000000000000000e+00  1.7420533256723157e+01 -2.3635958131829722e+00 0.0000000000000000e+00  1.9491926565191143e+01 -2.7921570488511280e+00 0.0000000000000000e+00  2.1909362057943373e+01 -3.3802900258547735e+00 0.0000000000000000e+00  2.4838458713446219e+01 -4.1639439066008954e+00 0.0000000000000000e+00  2.8143546990479155e+01 -5.1438597942245874e+00 0.0000000000000000e+00  3.2479070766900030e+01 -6.2236804303718101e+00 0.0000000000000000e+00  3.4793191258057981e+01 -7.1139447772663376e+00 0.0000000000000000e+00  4.0528957311771933e+01 -6.6773322835237847e+00 0.0000000000000000e+00  1.9797407172087858e+01 -2.5227593390725285e+00 0.0000000000000000e+00  1.0000000000000000e-02 0.0000000000000000e+00 0.0000000000000000e+00  1.6356629872476262e-02 -1.1515657092861318e-02 0.0000000000000000e+00  3.0846694842697451e-02 -2.2632799668183153e-02 0.0000000000000000e+00  5.0213314169873860e-02 -3.1233787347854796e-02 0.0000000000000000e+00  7.3384359619871262e-02 -3.7497756129384281e-02 0.0000000000000000e+00  9.9700804534065657e-02 -4.2387331502748378e-02 0.0000000000000000e+00  1.2886272841817512e-01 -4.6808222541651595e-02 0.0000000000000000e+00  1.6089623225631455e-01 -5.1428386137096833e-02 0.0000000000000000e+00  1.9612046876309397e-01 -5.6716600029131120e-02 0.0000000000000000e+00  2.3508470212111951e-01 -6.3011249972715719e-02 0.0000000000000000e+00  2.7852268655975043e-01 -7.0575513136076296e-02 0.0000000000000000e+00  3.2732434545596795e-01 -7.9636357248678930e-02 0.0000000000000000e+00  3.8252247458944039e-01 -9.0410148197657983e-02 0.0000000000000000e+00  4.4529104090135807e-01 -1.0311920796306044e-01 0.0000000000000000e+00  5.1695134092690254e-01 -1.1800250017062638e-01 0.0000000000000000e+00  5.9898365615706062e-01 -1.3532264328617838e-01 0.0000000000000000e+00  6.9304268964284688e-01 -1.5537070505417683e-01 0.0000000000000000e+00  8.0097574651987580e-01 -1.7846968053850729e-01 0.0000000000000000e+00  9.2484302709447752e-01 -2.0497716561423895e-01 0.0000000000000000e+00  1.0669396447362973e+00 -2.3528743311178266e-01 0.0000000000000000e+00  1.2298190574763894e+00 -2.6983285472700524e-01 0.0000000000000000e+00  1.4163175187108927e+00 -3.0908435376369409e-01 0.0000000000000000e+00  1.6295788989181552e+00 -3.5355030277581051e-01 0.0000000000000000e+00  1.8730787920657392e+00 -4.0377299506012193e-01 0.0000000000000000e+00  2.1506461878264318e+00 -4.6032154255439328e-01 0.0000000000000000e+00  2.4664801754628676e+00 -5.2377984162308910e-01 0.0000000000000000e