<?xml version="1.0"?>
<VTKFile type="UnstructuredGrid"  version="0.1"  >
<UnstructuredGrid>
<Piece  NumberOfPoints="2601" NumberOfCells="5000">
<Points>
<DataArray  type="Float64"  NumberOfComponents="3"  format="ascii">0 0 0  0.04 0 0  0.08 0 0  0.12 0 0  0.16 0 0  0.2 0 0  0.24 0 0  0.28 0 0  0.32 0 0  0.36 0 0  0.4 0 0  0.44 0 0  0.48 0 0  0.52 0 0  0.5600000000000001 0 0  0.6 0 0  0.64 0 0  0.68 0 0  0.72 0 0  0.76 0 0  0.8 0 0  0.84 0 0  0.88 0 0  0.92 0 0  0.96 0 0  1 0 0  1.04 0 0  1.08 0 0  1.12 0 0  1.16 0 0  1.2 0 0  1.24 0 0  1.28 0 0  1.32 0 0  1.36 0 0  1.4 0 0  1.44 0 0  1.48 0 0  1.52 0 0  1.56 0 0  1.6 0 0  1.64 0 0  1.68 0 0  1.72 0 0  1.76 0 0  1.8 0 0  1.84 0 0  1.88 0 0  1.92 0 0  1.96 0 0  2 0 0  0 0.02 0  0.04 0.02 0  0.08 0.02 0  0.12 0.02 0  0.16 0.02 0  0.2 0.02 0  0.24 0.02 0  0.28 0.02 0  0.32 0.02 0  0.36 0.02 0  0.4 0.02 0  0.44 0.02 0  0.48 0.02 0  0.52 0.02 0  0.5600000000000001 0.02 0  0.6 0.02 0  0.64 0.02 0  0.68 0.02 0  0.72 0.02 0  0.76 0.02 0  0.8 0.02 0  0.84 0.02 0  0.88 0.02 0  0.92 0.02 0  0.96 0.02 0  1 0.02 0  1.04 0.02 0  1.08 0.02 0  1.12 0.02 0  1.16 0.02 0  1.2 0.02 0  1.24 0.02 0  1.28 0.02 0  1.32 0.02 0  1.36 0.02 0  1.4 0.02 0  1.44 0.02 0  1.48 0.02 0  1.52 0.02 0  1.56 0.02 0  1.6 0.02 0  1.64 0.02 0  1.68 0.02 0  1.72 0.02 0  1.76 0.02 0  1.8 0.02 0  1.84 0.02 0  1.88 0.02 0  1.92 0.02 0  1.96 0.02 0  2 0.02 0  0 0.04 0  0.04 0.04 0  0.08 0.04 0  0.12 0.04 0  0.16 0.04 0  0.2 0.04 0  0.24 0.04 0  0.28 0.04 0  0.32 0.04 0  0.36 0.04 0  0.4 0.04 0  0.44 0.04 0  0.48 0.04 0  0.52 0.04 0  0.5600000000000001 0.04 0  0.6 0.04 0  0.64 0.04 0  0.68 0.04 0  0.72 0.04 0  0.76 0.04 0  0.8 0.04 0  0.84 0.04 0  0.88 0.04 0  0.92 0.04 0  0.96 0.04 0  1 0.04 0  1.04 0.04 0  1.08 0.04 0  1.12 0.04 0  1.16 0.04 0  1.2 0.04 0  1.24 0.04 0  1.28 0.04 0  1.32 0.04 0  1.36 0.04 0  1.4 0.04 0  1.44 0.04 0  1.48 0.04 0  1.52 0.04 0  1.56 0.04 0  1.6 0.04 0  1.64 0.04 0  1.68 0.04 0  1.72 0.04 0  1.76 0.04 0  1.8 0.04 0  1.84 0.04 0  1.88 0.04 0  1.92 0.04 0  1.96 0.04 0  2 0.04 0  0 0.06 0  0.04 0.06 0  0.08 0.06 0  0.12 0.06 0  0.16 0.06 0  0.2 0.06 0  0.24 0.06 0  0.28 0.06 0  0.32 0.06 0  0.36 0.06 0  0.4 0.06 0  0.44 0.06 0  0.48 0.06 0  0.52 0.06 0  0.5600000000000001 0.06 0  0.6 0.06 0  0.64 0.06 0  0.68 0.06 0  0.72 0.06 0  0.76 0.06 0  0.8 0.06 0  0.84 0.06 0  0.88 0.06 0  0.92 0.06 0  0.96 0.06 0  1 0.06 0  1.04 0.06 0  1.08 0.06 0  1.12 0.06 0  1.16 0.06 0  1.2 0.06 0  1.24 0.06 0  1.28 0.06 0  1.32 0.06 0  1.36 0.06 0  1.4 0.06 0  1.44 0.06 0  1.48 0.06 0  1.52 0.06 0  1.56 0.06 0  1.6 0.06 0  1.64 0.06 0  1.68 0.06 0  1.72 0.06 0  1.76 0.06 0  1.8 0.06 0  1.84 0.06 0  1.88 0.06 0  1.92 0.06 0  1.96 0.06 0  2 0.06 0  0 0.08 0  0.04 0.08 0  0.08 0.08 0  0.12 0.08 0  0.16 0.08 0  0.2 0.08 0  0.24 0.08 0  0.28 0.08 0  0.32 0.08 0  0.36 0.08 0  0.4 0.08 0  0.44 0.08 0  0.48 0.08 0  0.52 0.08 0  0.5600000000000001 0.08 0  0.6 0.08 0  0.64 0.08 0  0.68 0.08 0  0.72 0.08 0  0.76 0.08 0  0.8 0.08 0  0.84 0.08 0  0.88 0.08 0  0.92 0.08 0  0.96 0.08 0  1 0.08 0  1.04 0.08 0  1.08 0.08 0  1.12 0.08 0  1.16 0.08 0  1.2 0.08 0  1.24 0.08 0  1.28 0.08 0  1.32 0.08 0  1.36 0.08 0  1.4 0.08 0  1.44 0.08 0  1.48 0.08 0  1.52 0.08 0  1.56 0.08 0  1.6 0.08 0  1.64 0.08 0  1.68 0.08 0  1.72 0.08 0  1.76 0.08 0  1.8 0.08 0  1.84 0.08 0  1.88 0.08 0  1.92 0.08 0  1.96 0.08 0  2 0.08 0  0 0.1 0  0.04 0.1 0  0.08 0.1 0  0.12 0.1 0  0.16 0.1 0  0.2 0.1 0  0.24 0.1 0  0.28 0.1 0  0.32 0.1 0  0.36 0.1 0  0.4 0.1 0  0.44 0.1 0  0.48 0.1 0  0.52 0.1 0  0.5600000000000001 0.1 0  0.6 0.1 0  0.64 0.1 0  0.68 0.1 0  0.72 0.1 0  0.76 0.1 0  0.8 0.1 0  0.84 0.1 0  0.88 0.1 0  0.92 0.1 0  0.96 0.1 0  1 0.1 0  1.04 0.1 0  1.08 0.1 0  1.12 0.1 0  1.16 0.1 0  1.2 0.1 0  1.24 0.1 0  1.28 0.1 0  1.32 0.1 0  1.36 0.1 0  1.4 0.1 0  1.44 0.1 0  1.48 0.1 0  1.52 0.1 0  1.56 0.1 0  1.6 0.1 0  1.64 0.1 0  1.68 0.1 0  1.72 0.1 0  1.76 0.1 0  1.8 0.1 0  1.84 0.1 0  1.88 0.1 0  1.92 0.1 0  1.96 0.1 0  2 0.1 0  0 0.12 0  0.04 0.12 0  0.08 0.12 0  0.12 0.12 0  0.16 0.12 0  0.2 0.12 0  0.24 0.12 0  0.28 0.12 0  0.32 0.12 0  0.36 0.12 0  0.4 0.12 0  0.44 0.12 0  0.48 0.12 0  0.52 0.12 0  0.5600000000000001 0.12 0  0.6 0.12 0  0.64 0.12 0  0.68 0.12 0  0.72 0.12 0  0.76 0.12 0  0.8 0.12 0  0.84 0.12 0  0.88 0.12 0  0.92 0.12 0  0.96 0.12 0  1 0.12 0  1.04 0.12 0  1.08 0.12 0  1.12 0.12 0  1.16 0.12 0  1.2 0.12 0  1.24 0.12 0  1.28 0.12 0  1.32 0.12 0  1.36 0.12 0  1.4 0.12 0  1.44 0.12 0  1.48 0.12 0  1.52 0.12 0  1.56 0.12 0  1.6 0.12 0  1.64 0.12 0  1.68 0.12 0  1.72 0.12 0  1.76 0.12 0  1.8 0.12 0  1.84 0.12 0  1.88 0.12 0  1.92 0.12 0  1.96 0.12 0  2 0.12 0  0 0.14 0  0.04 0.14 0  0.08 0.14 0  0.12 0.14 0  0.16 0.14 0  0.2 0.14 0  0.24 0.14 0  0.28 0.14 0  0.32 0.14 0  0.36 0.14 0  0.4 0.14 0  0.44 0.14 0  0.48 0.14 0  0.52 0.14 0  0.5600000000000001 0.14 0  0.6 0.14 0  0.64 0.14 0  0.68 0.14 0  0.72 0.14 0  0.76 0.14 0  0.8 0.14 0  0.84 0.14 0  0.88 0.14 0  0.92 0.14 0  0.96 0.14 0  1 0.14 0  1.04 0.14 0  1.08 0.14 0  1.12 0.14 0  1.16 0.14 0  1.2 0.14 0  1.24 0.14 0  1.28 0.14 0  1.32 0.14 0  1.36 0.14 0  1.4 0.14 0  1.44 0.14 0  1.48 0.14 0  1.52 0.14 0  1.56 0.14 0  1.6 0.14 0  1.64 0.14 0  1.68 0.14 0  1.72 0.14 0  1.76 0.14 0  1.8 0.14 0  1.84 0.14 0  1.88 0.14 0  1.92 0.14 0  1.96 0.14 0  2 0.14 0  0 0.16 0  0.04 0.16 0  0.08 0.16 0  0.12 0.16 0  0.16 0.16 0  0.2 0.16 0  0.24 0.16 0  0.28 0.16 0  0.32 0.16 0  0.36 0.16 0  0.4 0.16 0  0.44 0.16 0  0.48 0.16 0  0.52 0.16 0  0.5600000000000001 0.16 0  0.6 0.16 0  0.64 0.16 0  0.68 0.16 0  0.72 0.16 0  0.76 0.16 0  0.8 0.16 0  0.84 0.16 0  0.88 0.16 0  0.92 0.16 0  0.96 0.16 0  1 0.16 0  1.04 0.16 0  1.08 0.16 0  1.12 0.16 0  1.16 0.16 0  1.2 0.16 0  1.24 0.16 0  1.28 0.16 0  1.32 0.16 0  1.36 0.16 0  1.4 0.16 0  1.44 0.16 0  1.48 0.16 0  1.52 0.16 0  1.56 0.16 0  1.6 0.16 0  1.64 0.16 0  1.68 0.16 0  1.72 0.16 0  1.76 0.16 0  1.8 0.16 0  1.84 0.16 0  1.88 0.16 0  1.92 0.16 0  1.96 0.16 0  2 0.16 0  0 0.18 0  0.04 0.18 0  0.08 0.18 0  0.12 0.18 0  0.16 0.18 0  0.2 0.18 0  0.24 0.18 0  0.28 0.18 0  0.32 0.18 0  0.36 0.18 0  0.4 0.18 0  0.44 0.18 0  0.48 0.18 0  0.52 0.18 0  0.5600000000000001 0.18 0  0.6 0.18 0  0.64 0.18 0  0.68 0.18 0  0.72 0.18 0  0.76 0.18 0  0.8 0.18 0  0.84 0.18 0  0.88 0.18 0  0.92 0.18 0  0.96 0.18 0  1 0.18 0  1.04 0.18 0  1.08 0.18 0  1.12 0.18 0  1.16 0.18 0  1.2 0.18 0  1.24 0.18 0  1.28 0.18 0  1.32 0.18 0  1.36 0.18 0  1.4 0.18 0  1.44 0.18 0  1.48 0.18 0  1.52 0.18 0  1.56 0.18 0  1.6 0.18 0  1.64 0.18 0  1.68 0.18 0  1.72 0.18 0  1.76 0.18 0  1.8 0.18 0  1.84 0.18 0  1.88 0.18 0  1.92 0.18 0  1.96 0.18 0  2 0.18 0  0 0.2 0  0.04 0.2 0  0.08 0.2 0  0.12 0.2 0  0.16 0.2 0  0.2 0.2 0  0.24 0.2 0  0.28 0.2 0  0.32 0.2 0  0.36 0.2 0  0.4 0.2 0  0.44 0.2 0  0.48 0.2 0  0.52 0.2 0  0.5600000000000001 0.2 0  0.6 0.2 0  0.64 0.2 0  0.68 0.2 0  0.72 0.2 0  0.76 0.2 0  0.8 0.2 0  0.84 0.2 0  0.88 0.2 0  0.92 0.2 0  0.96 0.2 0  1 0.2 0  1.04 0.2 0  1.08 0.2 0  1.12 0.2 0  1.16 0.2 0  1.2 0.2 0  1.24 0.2 0  1.28 0.2 0  1.32 0.2 0  1.36 0.2 0  1.4 0.2 0  1.44 0.2 0  1.48 0.2 0  1.52 0.2 0  1.56 0.2 0  1.6 0.2 0  1.64 0.2 0  1.68 0.2 0  1.72 0.2 0  1.76 0.2 0  1.8 0.2 0  1.84 0.2 0  1.88 0.2 0  1.92 0.2 0  1.96 0.2 0  2 0.2 0  0 0.22 0  0.04 0.22 0  0.08 0.22 0  0.12 0.22 0  0.16 0.22 0  0.2 0.22 0  0.24 0.22 0  0.28 0.22 0  0.32 0.22 0  0.36 0.22 0  0.4 0.22 0  0.44 0.22 0  0.48 0.22 0  0.52 0.22 0  0.5600000000000001 0.22 0  0.6 0.22 0  0.64 0.22 0  0.68 0.22 0  0.72 0.22 0  0.76 0.22 0  0.8 0.22 0  0.84 0.22 0  0.88 0.22 0  0.92 0.22 0  0.96 0.22 0  1 0.22 0  1.04 0.22 0  1.08 0.22 0  1.12 0.22 0  1.16 0.22 0  1.2 0.22 0  1.24 0.22 0  1.28 0.22 0  1.32 0.22 0  1.36 0.22 0  1.4 0.22 0  1.44 0.22 0  1.48 0.22 0  1.52 0.22 0  1.56 0.22 0  1.6 0.22 0  1.64 0.22 0  1.68 0.22 0  1.72 0.22 0  1.76 0.22 0  1.8 0.22 0  1.84 0.22 0  1.88 0.22 0  1.92 0.22 0  1.96 0.22 0  2 0.22 0  0 0.24 0  0.04 0.24 0  0.08 0.24 0  0.12 0.24 0  0.16 0.24 0  0.2 0.24 0  0.24 0.24 0  0.28 0.24 0  0.32 0.24 0  0.36 0.24 0  0.4 0.24 0  0.44 0.24 0  0.48 0.24 0  0.52 0.24 0  0.5600000000000001 0.24 0  0.6 0.24 0  0.64 0.24 0  0.68 0.24 0  0.72 0.24 0  0.76 0.24 0  0.8 0.24 0  0.84 0.24 0  0.88 0.24 0  0.92 0.24 0  0.96 0.24 0  1 0.24 0  1.04 0.24 0  1.08 0.24 0  1.12 0.24 0  1.16 0.24 0  1.2 0.24 0  1.24 0.24 0  1.28 0.24 0  1.32 0.24 0  1.36 0.24 0  1.4 0.24 0  1.44 0.24 0  1.48 0.24 0  1.52 0.24 0  1.56 0.24 0  1.6 0.24 0  1.64 0.24 0  1.68 0.24 0  1.72 0.24 0  1.76 0.24 0  1.8 0.24 0  1.84 0.24 0  1.88 0.24 0  1.92 0.24 0  1.96 0.24 0  2 0.24 0  0 0.26 0  0.04 0.26 0  0.08 0.26 0  0.12 0.26 0  0.16 0.26 0  0.2 0.26 0  0.24 0.26 0  0.28 0.26 0  0.32 0.26 0  0.36 0.26 0  0.4 0.26 0  0.44 0.26 0  0.48 0.26 0  0.52 0.26 0  0.5600000000000001 0.26 0  0.6 0.26 0  0.64 0.26 0  0.68 0.26 0  0.72 0.26 0  0.76 0.26 0  0.8 0.26 0  0.84 0.26 0  0.88 0.26 0  0.92 0.26 0  0.96 0.26 0  1 0.26 0  1.04 0.26 0  1.08 0.26 0  1.12 0.26 0  1.16 0.26 0  1.2 0.26 0  1.24 0.26 0  1.28 0.26 0  1.32 0.26 0  1.36 0.26 0  1.4 0.26 0  1.44 0.26 0  1.48 0.26 0  1.52 0.26 0  1.56 0.26 0  1.6 0.26 0  1.64 0.26 0  1.68 0.26 0  1.72 0.26 0  1.76 0.26 0  1.8 0.26 0  1.84 0.26 0  1.88 0.26 0  1.92 0.26 0  1.96 0.26 0  2 0.26 0  0 0.28 0  0.04 0.28 0  0.08 0.28 0  0.12 0.28 0  0.16 0.28 0  0.2 0.28 0  0.24 0.28 0  0.28 0.28 0  0.32 0.28 0  0.36 0.28 0  0.4 0.28 0  0.44 0.28 0  0.48 0.28 0  0.52 0.28 0  0.5600000000000001 0.28 0  0.6 0.28 0  0.64 0.28 0  0.68 0.28 0  0.72 0.28 0  0.76 0.28 0  0.8 0.28 0  0.84 0.28 0  0.88 0.28 0  0.92 0.28 0  0.96 0.28 0  1 0.28 0  1.04 0.28 0  1.08 0.28 0  1.12 0.28 0  1.16 0.28 0  1.2 0.28 0  1.24 0.28 0  1.28 0.28 0  1.32 0.28 0  1.36 0.28 0  1.4 0.28 0  1.44 0.28 0  1.48 0.28 0  1.52 0.28 0  1.56 0.28 0  1.6 0.28 0  1.64 0.28 0  1.68 0.28 0  1.72 0.28 0  1.76 0.28 0  1.8 0.28 0  1.84 0.28 0  1.88 0.28 0  1.92 0.28 0  1.96 0.28 0  2 0.28 0  0 0.3 0  0.04 0.3 0  0.08 0.3 0  0.12 0.3 0  0.16 0.3 0  0.2 0.3 0  0.24 0.3 0  0.28 0.3 0  0.32 0.3 0  0.36 0.3 0  0.4 0.3 0  0.44 0.3
[...]
<PointData  Vectors="f_26-0"> 
<DataArray  type="Float64"  Name="f_26-0"  NumberOfComponents="3" format="ascii">0.0000000000000000e+00 0.0000000000000000e+00 0.0000000000000000e+00  0.0000000000000000e+00 0.0000000000000000e+00 0.0000000000000000e+00  0.0000000000000000e+00 0.0000000000000000e+00 0.0000000000000000e+00  0.0000000000000000e+00 0.0000000000000000e+00 0.0000000000000000e+00  0.0000000000000000e+00 0.0000000000000000e+00 0.0000000000000000e+00  0.0000000000000000e+00 0.0000000000000000e+00 0.0000000000000000e+00  0.0000000000000000e+00 0.0000000000000000e+00 0.0000000000000000e+00  0.0000000000000000e+00 0.0000000000000000e+00 0.0000000000000000e+00  0.0000000000000000e+00 0.0000000000000000e+00 0.0000000000000000e+00  0.0000000000000000e+00 0.0000000000000000e+00 0.0000000000000000e+00  0.0000000000000000e+00 0.0000000000000000e+00 0.0000000000000000e+00  0.0000000000000000e+00 0.0000000000000000e+00 0.0000000000000000e+00  0.0000000000000000e+00 0.0000000000000000e+00 0.0000000000000000e+00  0.0000000000000000e+00 0.0000000000000000e+00 0.0000000000000000e+00  0.0000000000000000e+00 0.0000000000000000e+00 0.0000000000000000e+00  0.0000000000000000e+00 0.0000000000000000e+00 0.0000000000000000e+00  0.0000000000000000e+00 0.0000000000000000e+00 0.0000000000000000e+00  0.0000000000000000e+00 0.0000000000000000e+00 0.0000000000000000e+00  0.0000000000000000e+00 0.0000000000000000e+00 0.0000000000000000e+00  0.0000000000000000e+00 0.0000000000000000e+00 0.0000000000000000e+00  0.0000000000000000e+00 0.0000000000000000e+00 0.0000000000000000e+00  0.0000000000000000e+00 0.0000000000000000e+00 0.0000000000000000e+00  0.0000000000000000e+00 0.0000000000000000e+00 0.0000000000000000e+00  0.0000000000000000e+00 0.0000000000000000e+00 0.0000000000000000e+00  0.0000000000000000e+00 0.0000000000000000e+00 0.0000000000000000e+00  0.0000000000000000e+00 0.0000000000000000e+00 0.0000000000000000e+00  0.0000000000000000e+00 0.0000000000000000e+00 0.0000000000000000e+00  0.0000000000000000e+00 0.0000000000000000e+00 0.0000000000000000e+00  0.0000000000000000e+00 0.0000000000000000e+00 0.0000000000000000e+00  0.0000000000000000e+00 0.0000000000000000e+00 0.0000000000000000e+00  0.0000000000000000e+00 0.0000000000000000e+00 0.0000000000000000e+00  0.0000000000000000e+00 0.0000000000000000e+00 0.0000000000000000e+00  0.0000000000000000e+00 0.0000000000000000e+00 0.0000000000000000e+00  0.0000000000000000e+00 0.0000000000000000e+00 0.0000000000000000e+00  0.0000000000000000e+00 0.0000000000000000e+00 0.0000000000000000e+00  0.0000000000000000e+00 0.0000000000000000e+00 0.0000000000000000e+00  0.0000000000000000e+00 0.0000000000000000e+00 0.0000000000000000e+00  0.0000000000000000e+00 0.0000000000000000e+00 0.0000000000000000e+00  0.0000000000000000e+00 0.0000000000000000e+00 0.0000000000000000e+00  0.0000000000000000e+00 0.0000000000000000e+00 0.0000000000000000e+00  0.0000000000000000e+00 0.0000000000000000e+00 0.0000000000000000e+00  0.0000000000000000e+00 0.0000000000000000e+00 0.0000000000000000e+00  0.0000000000000000e+00 0.0000000000000000e+00 0.0000000000000000e+00  0.0000000000000000e+00 0.0000000000000000e+00 0.0000000000000000e+00  0.0000000000000000e+00 0.0000000000000000e+00 0.0000000000000000e+00  0.0000000000000000e+00 0.0000000000000000e+00 0.0000000000000000e+00  0.0000000000000000e+00 0.0000000000000000e+00 0.0000000000000000e+00  0.0000000000000000e+00 0.0000000000000000e+00 0.0000000000000000e+00  0.0000000000000000e+00 0.0000000000000000e+00 0.0000000000000000e+00  0.0000000000000000e+00 0.0000000000000000e+00 0.0000000000000000e+00  0.0000000000000000e+00 0.0000000000000000e+00 0.0000000000000000e+00  1.0000000000000000e-02 0.0000000000000000e+00 0.0000000000000000e+00  1.6322700250408505e-02 4.6972240413395254e-03 0.0000000000000000e+00  -9.1584072189348761e-02 4.5951604057657421e-02 0.0000000000000000e+00  -3.5579622736395011e-01 8.4392207050023094e-02 0.0000000000000000e+00  -7.4660841006522161e-01 1.1251722957305949e-01 0.0000000000000000e+00  -1.2253049451515416e+00 1.3071414613968121e-01 0.0000000000000000e+00  -1.7565541595367897e+00 1.4011240745828149e-01 0.0000000000000000e+00  -2.3077116285474464e+00 1.4122709901959898e-01 0.0000000000000000e+00  -2.8465309523526816e+00 1.3391137254299781e-01 0.0000000000000000e+00  -3.3394792257875272e+00 1.1777208309150757e-01 0.0000000000000000e+00  -3.7520132567162090e+00 9.2765315178652732e-02 0.0000000000000000e+00  -4.0512767386811159e+00 5.9798677867461889e-02 0.0000000000000000e+00  -4.2106553507638154e+00 2.1097195483113756e-02 0.0000000000000000e+00  -4.2149239111564238e+00 -2.0025951036943851e-02 0.0000000000000000e+00  -4.0617193610083966e+00 -6.0556313990168704e-02 0.0000000000000000e+00  -3.7573186131359155e+00 -9.9068812951437199e-02 0.0000000000000000e+00  -3.3034224798431735e+00 -1.3910956143077488e-01 0.0000000000000000e+00  -2.6772896464392830e+00 -1.8696648769277491e-01 0.0000000000000000e+00  -1.8301504480908719e+00 -2.4951459384245059e-01 0.0000000000000000e+00  -6.9051909659867805e-01 -3.2712726441812473e-01 0.0000000000000000e+00  7.2261862329732329e-01 -3.8051402989905125e-01 0.0000000000000000e+00  2.2504508923244506e+00 -3.8340442434619915e-01 0.0000000000000000e+00  3.6551759902202203e+00 -3.3116965540601367e-01 0.0000000000000000e+00  4.8699882483844350e+00 -2.8635607576011968e-01 0.0000000000000000e+00  5.9136353375713666e+00 -2.4049810236770344e-01 0.0000000000000000e+00  6.7855869396551372e+00 -2.1479849926022718e-01 0.0000000000000000e+00  7.6634987610109171e+00 -2.7833154553889478e-01 0.0000000000000000e+00  8.5371470873356330e+00 -1.8624519214520896e-01 0.0000000000000000e+00  8.9829650406634070e+00 -9.3168198953615111e-02 0.0000000000000000e+00  9.1083708352402830e+00 -4.8587475937199552e-02 0.0000000000000000e+00  8.9896443184154489e+00 5.6715645831892300e-02 0.0000000000000000e+00  8.3200740779499913e+00 2.2715179090076057e-01 0.0000000000000000e+00  6.7491980110637693e+00 5.0523417637938239e-01 0.0000000000000000e+00  4.4718901091283403e+00 7.0654453116211380e-01 0.0000000000000000e+00  1.5124400923658650e+00 7.6325520050077800e-01 0.0000000000000000e+00  -1.6178999318000202e+00 9.2970452224575528e-01 0.0000000000000000e+00  -5.5626787331635636e+00 9.2907708542568057e-01 0.0000000000000000e+00  -8.2215635126304516e+00 3.0003894830911326e-01 0.0000000000000000e+00  -7.6521736597641388e+00 -5.1727525730281509e-01 0.0000000000000000e+00  -4.7638165309329166e+00 -9.5440999466363241e-01 0.0000000000000000e+00  -1.7664419170484433e+00 -7.0649263353224656e-01 0.0000000000000000e+00  -4.7950376752185453e-01 -1.0381946344855422e-01 0.0000000000000000e+00  -6.8719303655083197e-01 1.5321883741321024e-01 0.0000000000000000e+00  -8.6938232676664162e-01 -7.9906133841744029e-03 0.0000000000000000e+00  -2.3006620298058345e-01 -2.4415152329722414e-01 0.0000000000000000e+00  1.1338754720896247e+00 -5.0615689744890469e-01 0.0000000000000000e+00  3.8463434691121279e+00 -7.6503254702195866e-01 0.0000000000000000e+00  7.4284047582610118e+00 -2.2066154484435998e+00 0.0000000000000000e+00  1.7116464042907420e+01 -1.4262221257473839e+00 0.0000000000000000e+00  1.6408361318830888e+01 -6.0544010704841460e+00 0.0000000000000000e+00  3.6097633873380438e+01 2.2940244949948255e+01 0.0000000000000000e+00  1.0000000000000000e-02 0.0000000000000000e+00 0.0000000000000000e+00  -3.1464423372784343e-02 4.2314822897948995e-02 0.0000000000000000e+00  -2.8760579960794969e-01 1.9145269327322653e-01 0.0000000000000000e+00  -8.0642365288391060e-01 3.2954739103659131e-01 0.0000000000000000e+00  -1.5432535924414543e+00 4.3245073003336842e-01 0.0000000000000000e+00  -2.4350241697047044e+00 4.9960661948887075e-01 0.0000000000000000e+00  -3.4189310912507835e+00 5.3391586912959366e-01 0.0000000000000000e+00  -4.4344625158482680e+00 5.3667136760450174e-01 0.0000000000000000e+00  -5.4208802116780133e+00 5.0719432196238667e-01 0.0000000000000000e+00  -6.3154516041759674e+00 4.4422068575265111e-01 0.0000000000000000e+00  -7.0549096999114118e+00 3.4804281660887620e-01 0.0000000000000000e+00  -7.5809689887552496e+00 2.2269504224064363e-01 0.0000000000000000e+00  -7.8486726742621427e+00 7.7083681321798783e-02 0.0000000000000000e+00  -7.8344023506293912e+00 -7.6477680651484234e-02 0.0000000000000000e+00  -7.5350727811602525e+00 -2.2743051524246324e-01 0.0000000000000000e+00  -6.9563747351811154e+00 -3.7475781436414873e-01 0.0000000000000000e+00  -6.0804753984664606e+00 -5.3412277513535478e-01 0.0000000000000000e+00  -4.8411941799523381e+00 -7.3168411571336101e-01 0.0000000000000000e+00  -3.1333174572820890e+00 -9.8947109680916234e-01 0.0000000000000000e+00  -8.6702799384330498e-01 -1.2749403332567470e+00 0.0000000000000000e+00  1.7929623083872219e+00 -1.4692916447331150e+00 0.0000000000000000e+00  4.5576350162669783e+00 -1.4553731950336017e+00 0.0000000000000000e+00  7.0780003709989403e+00 -1.2684394275669126e+00 0.0000000000000000e+00  9.3221711744786102e+00 -1.1029434622233762e+00 0.0000000000000000e+00  1.1343998532113748e+01 -9.3096235237471803e-01 0.0000000000000000e+00  1.2978126696972028e+01 -8.2729280278775696e-01 0.0000000000000000e+00  1.4378856901580978e+01 -8.8987795232720690e-01 0.0000000000000000e+00  1.5684709021429914e+01 -5.7816156049821910e-01 0.0000000000000000e+00  1.6359716429983617e+01 -2.6295125479286713e-01 0.0000000000000000e+00  1.6450301360044893e+01 -5.7119380141779127e-02 0.0000000000000000e+00  1.6193491374430916e+01 3.2487060743426904e-01 0.0000000000000000e+00  1.5118556534870915e+01 9.1374197408687952e-01 0.0000000000000000e+00  1.2630329816094632e+01 1.8724063050274082e+00 0.0000000000000000e+00  9.0708817741117720e+00 2.5833526613734956e+00 0.0000000000000000e+00  3.9226740843444134e+00 2.9263418004325561e+00 0.0000000000000000e+00  -1.7820499681351540e+00 3.3804899303871774e+00 0.0000000000000000e+00  -8.3974463842361722e+00 3.3812047029828398e+00 0.0000000000000000e+00  -1.2079320810690591e+01 1.1785655883505386e+00 0.0000000000000000e+00  -1.1070039258522113e+01 -1.6882543123508753e+00 0.0000000000000000e+00  -7.3883958307802802e+00 -2.9677557572296585e+00 0.0000000000000000e+00  -3.9769793650009793e+00 -1.9638936178075816e+00 0.0000000000000000e+00  -2.5409798140974793e+00 -2.7841142106131522e-01 0.0000000000000000e+00  -2.1956569773914572e+00 2.2345537726483417e-01 0.0000000000000000e+00  -1.4555370813306967e+00 -3.2874795167864429e-01 0.0000000000000000e+00  2.9541778238440364e-01 -1.0537453992599781e+00 0.0000000000000000e+00  2.8187744409138880e+00 -1.6194468859192150e+00 0.0000000000000000e+00  6.2369863161786254e+00 -2.9997752951673640e+00 0.0000000000000000e+00  1.0997889815719867e+01 -4.7832301632323455e+00 0.0000000000000000e+00  1.9830483614970198e+01 -4.9043529183024743e+00 0.0000000000000000e+00  1.4305089084885827e+01 -4.7078227944377060e+00 0.0000000000000000e+00  3.2356823810767466e+01 2.8317167914197078e+01 0.0000000000000000e+00  1.0000000000000000e-02 0.0000000000000000e+00 0.0000000000000000e+00  -1.0327228431855327e-01 1.3728130526973578e-01 0.0000000000000000e+00  -5.2719900517715468e-01 4.4007167117126300e-01 0.0000000000000000e+00  -1.2885613326673637e+00 7.2048640685661069e-01 0.0000000000000000e+00  -2.3316595927735211e+00 9.3234459908123135e-01 0.0000000000000000e+00  -3.5774534058381686e+00 1.0713349987212288e+00 0.0000000000000000e+00  -4.9427447881937159e+00 1.1410664040671585e+00 0.0000000000000000e+00  -6.3445132921256464e+00 1.1430244250870429e+00 0.0000000000000000e+00  -7.6981249972782750e+00 1.0755227703321117e+00 0.0000000000000000e+00  -8.9164076392078240e+00 9.3635243714848304e-01 0.0000000000000000e+00  -9.9127163984331048e+00 7.2713085532369026e-01 0.0000000000000000e+00  -1.0608995130863105e+01 4.5764992048167236e-01 0.0000000000000000e+00  -1.0946961127460824e+01 1.4767184542799844e-01 0.0000000000000000e+00  -1.0896966287730343e+01 -1.7723729913692568e-01 0.0000000000000000e+00  -1.0453110831863455e+01 -4.9802996826995183e-01 0.0000000000000000e+00  -9.6120193993446712e+00 -8.1984629215991389e-01 0.0000000000000000e+00  -8.3220325031701154e+00 -1.1825230951609278e+00 0.0000000000000000e+00  -6.4721235421742618e+00 -1.6436904465020929e+00 0.0000000000000000e+00  -3.9094967394977886e+00 -2.2228729742467821e+00 0.0000000000000000e+00  -6.1900836787242952e-01 -2.8024123569187029e+00 0.0000000000000000e+00  3.0323302300751447e+00 -3.1367009117603017e+00 0.0000000000000000e+00  6.7741304586531053e+00 -3.0497631808172891e+00 0.0000000000000000e+00  1.0185906308509326e+01 -2.6978700950921777e+00 0.0000000000000000e+00  1.3231587552664848e+01 -2.3823166254523942e+00 0.0000000000000000e+00  1.6066350708793948e+01 -2.0628230373161891e+00 0.0000000000000000e+00  1.8265086443201447e+01 -1.7136743492793940e+00 0.0000000000000000e+00  2.0109684018576665e+01 -1.6170427259761622e+00 0.0000000000000000e+00  2.1429202214441514e+01 -1.0709898616149072e+00 0.0000000000000000e+00  2.1953041894907525e+01 -4.3505844572629077e-01 0.0000000000000000e+00  2.1854306805239005e+01 2.0898620482072108e-02 0.0000000000000000e+00  2.1377908359086852e+01 7.4847586927538068e-01 0.0000000000000000e+00  2.0167978470314694e+01 1.7863147441501575e+00 0.0000000000000000e+00  1.7349706879291379e+01 3.5681222665074532e+00 0.0000000000000000e+00  1.3470606566144360e+01 5.0820712235716377e+00 0.0000000000000000e+00  7.0723135084859194e+00 5.9902012219184186e+00 0.0000000000000000e+00  -3.9039956291853539e-01 6.9662286009074492e+00 0.0000000000000000e+00  -8.3317060125321163e+00 6.8236127685902872e+00 0.0000000000000000e+00  -1.2436853204645764e+01 1.9479069065134524e+00 0.0000000000000000e+00  -1.2071152647116524e+01 -3.0766118958908630e+00 0.0000000000000000e+00  -9.3969281541545904e+00 -4.7486397728007530e+00 0.0000000000000000e+00  -7.2957536673519394e+00 -3.0183503583068032e+00 0.0000000000000000e+00  -5.9286888109581994e+00 -8.1541190699735089e-01 0.0000000000000000e+00  -4.1246149837990433e+00 -3.8862003376358345e-01 0.0000000000000000e+00  -1.5105640946536805e+00 -1.3564304892363281e+00 0.0000000000000000e+00  1.7789487148924006e+00 -2.4676993081988341e+00 0.0000000000000000e+00  5.1846912557548732e+00 -3.2058582475582051e+00 0.0000000000000000e+00  8.3963194933088054e+00 -4.8556622291015632e+00 0.0000000000000000e+00  1.1723768602003892e+01 -7.2050853735005314e+00 0.0000000000000000e+00  1.3653714700511269e+01 -6.2669975197980374e+00 0.0000000000000000e+00  2.6926685959708858e+00 -1.7526249704758767e+00 0.0000000000000000e+00  -3.4758051783795544e+01 5.6796305823252318e+01 0.0000000000000000e+00  1.0000000000000000e-02 0.0000000000000000e+00 0.0000000000000000e+00  -1.7895000980098746e-01 2.9822981172069390e-01 0.0000000000000000e+00  -7.7251292826463847e-01 7.9108583862118054e-01 0.0000000000000000e+00  -1.7595090003097031e+00 1.2434143338494081e+00 0.0000000000000000e+00  -3.0720142432473856e+00 1.5878498446122624e+00 0.0000000000000000e+00  -4.6191435484259875e+00 1.8143841960913167e+00 0.0000000000000000e+00  -6.3029353350183435e+00 1.9257685587623918e+00 0.0000000000000000e+00  -8.0230344638454660e+00 1.9227046698699273e+00 0.0000000000000000e+00  -9.6757738292270457e+00 1.8019424361067202e+00 0.0000000000000000e+00  -1.1154360266327084e+01 1.5603871646194336e+00 0.0000000000000000e+00  -1.2353502663453582e+01 1.2020397264366980e+00 0.0000000000000000e+00  -1.3179399983846887e+01 7.4475488934459710e-01 0.0000000000000000e+00  -1.3562779210622343e+01 2.2231080097377603e-01 0.0000000000000000e+00  -1.3467257181513631e+01 -3.2408039604265043e-01 0.0000000000000000e+00  -1.2880955542362734e+01 -8.6809529296290477e-01 0.0000000000000000e+00  -1.1786175330095080e+01 -1.4277549274412555e+00 0.0000000000000000e+00  -1.0101375210378956e+01 -2.0779851676870784e+00 0.0000000000000000e+00  -7.6897377614342712e+00 -2.9072160184732221e+00 0.0000000000000000e+00  -4.3952473088665940e+00 -3.8952595666501497e+00 0.0000000000000000e+00  -3.8439361931187505e-01 -4.7894712735672087e+00 0.0000000000000000e+00  3.9006968131340556e+00 -5.2181063570360982e+00 0.0000000000000000e+00  8.3412211965247653e+00 -5.0478301926160949e+00 0.0000000000000000e+00  1.2500185218753172e+01 -4.5226840591131694e+00 0.0000000000000000e+00  1.6277732916083728e+01 -4.0284409099759806e+00 0.0000000000000000e+00  1.9990445717599115e+01 -3.5394154408971441e+00 0.0000000000000000e+00  2.2563141370507587e+01 -2.8439096739076888e+00 0.0000000000000000e+00  2.4847660708106954e+01 -2.3720005908906980e+00 0.0000000000000000e+00  2.5885319024456170e+01 -1.4653853368754171e+00 0.0000000000000000e+00  2.5867659675790314e+01 -4.8071585581766590e-01 0.0000000000000000e+00  2.5523456491764509e+01 2.7916235346648066e-01 0.0000000000000000e+00  2.4552254935512956e+01 1.2313783153437277e+00 0.0000000000000000e+00  2.3464903391100652e+01 2.6699710374103058e+00 0.0000000000000000e+00  2.0584430441117568e+01 5.2295721336105032e+00 0.0000000000000000e+00  1.7117551989287566e+01 7.7206312437865527e+00 0.0000000000000000e+00  1.0700154431797658e+01 9.5134067426495719e+00 0.0000000000000000e+00  2.0989996736641898e+00 1.1086649866261679e+01 0.0000000000000000e+00  -5.5864128374869324e+00 1.0578645033789854e+01 0.0000000000000000e+00  -1.0500608751799307e+01 2.8898503935315745e+00 0.0000000000000000e+00  -1.2115760396493299e+01 -3.7045113390918951e+00 0.0000000000000000e+00  -1.1508217319588589e+01 -5.6360055665168849e+00 0.0000000000000000e+00  -1.0946105663171636e+01 -3.8376888856240967e+00 0.0000000000000000e+00  -9.0214874511226082e+00 -1.8452226710773489e+00 0.0000000000000000e+00  -5.1750870720250823e+00 -2.0095900588568649e+00 0.0000000000000000e+00  -4.2930176898065081e-01 -3.3729459152594936e+00 0.0000000000000000e+00  4.4914316454576664e+00 -4.4992727135644577e+00 0.0000000000000000e+00  8.3804223131837077e+00 -4.8518034764447808e+00 0.0000000000000000e+00  1.0602928259274149e+01 -6.0560522904448471e+00 0.0000000000000000e+00  1.1160910903658792e+01 -7.8661104485605406e+00 0.0000000000000000e+00  6.8482873546382494e+00 -3.8548798295114053e+00 0.0000000000000000e+00  -7.5756741717404070e+00 1.2336973053892578e+01 0.0000000000000000e+00  -3.5661705879187970e+01 6.9253410479710325e+01 0.0000000000000000e+00  1.0000000000000000e-02 0.0000000000000000e+00 0.0000000000000000e+00  -2.4930526775249603e-01 5.2459264015290730e-01 0.0000000000000000e+00  -1.0014398269584335e+00 1.2390282300476472e+00 0.0000000000000000e+00  -2.1922162901362272e+00 1.8842767345651006e+00 0.0000000000000000e+00  -3.7386197037337059e+00 2.3769881378395690e+00 0.0000000000000000e+00  -5.5398401286204582e+00 2.7010533182807772e+00 0.0000000000000000e+00  -7.4873158270607574e+00 2.8571082472856495e+00 0.0000000000000000e+00  -9.4680076274263847e+00 2.8440321254456982e+00 0.0000000000000000e+00  -1.1363967193920969e+01 2.6564043860284570e+00 0.0000000000000000e+00  -1.3053409519105349e+01 2.2902291094676004e+00 0.0000000000000000e+00  -1.4416486536532290e+01 1.7526381318262727e+00 0.0000000000000000e+00  -1.5346400062705001e+01 1.0710954888706516e+00 0.0000000000000000e+00  -1.5763453071103349e+01 2.9528640731859329e-01 0.0000000000000000e+00  -1.5622482346504743e+01 -5.1684521885676249e-01 0.0000000000000000e+00  -1.4903668018124646e+01 -1.3328660910891341e+00 0.0000000000000000e+00  -1.3577392750824936e+01 -2.1878476052797668e+00 0.0000000000000000e+00  -1.1553783635322924e+01 -3.1942183069396544e+00 0.0000000000000000e+00  -8.7053154669903492e+00 -4.4544867081035608e+00 0.0000000000000000e+00  -4.9535475932412778e+00 -5.8761864835549442e+00 0.0000000000000000e+00  -6.4366718273221490e-01 -7.0350285449515386e+00 0.0000000000000000e+00  3.8959846451246620e+00 -7.4948165962688922e+00 0.0000000000000000e+00  8.6712239787624803e+00 -7.2724025592093318e+00 0.0000000000000000e+00  1.3420458239013053e+01 -6.6986255725734765e+00 0.0000000000000000e+00  1.8121669357707070e+01 -6.1208193428937880e+00 0.0000000000000000e+00  2.3030291078982209e+01 -5.3629125916458165e+00 0.0000000000000000e+00  2.5898949147965272e+01 -4.190673