<?xml version="1.0"?>
<VTKFile type="UnstructuredGrid"  version="0.1"  >
<UnstructuredGrid>
<Piece  NumberOfPoints="2601" NumberOfCells="5000">
<Points>
<DataArray  type="Float64"  NumberOfComponents="3"  format="ascii">0 0 0  0.04 0 0  0.08 0 0  0.12 0 0  0.16 0 0  0.2 0 0  0.24 0 0  0.28 0 0  0.32 0 0  0.36 0 0  0.4 0 0  0.44 0 0  0.48 0 0  0.52 0 0  0.5600000000000001 0 0  0.6 0 0  0.64 0 0  0.68 0 0  0.72 0 0  0.76 0 0  0.8 0 0  0.84 0 0  0.88 0 0  0.92 0 0  0.96 0 0  1 0 0  1.04 0 0  1.08 0 0  1.12 0 0  1.16 0 0  1.2 0 0  1.24 0 0  1.28 0 0  1.32 0 0  1.36 0 0  1.4 0 0  1.44 0 0  1.48 0 0  1.52 0 0  1.56 0 0  1.6 0 0  1.64 0 0  1.68 0 0  1.72 0 0  1.76 0 0  1.8 0 0  1.84 0 0  1.88 0 0  1.92 0 0  1.96 0 0  2 0 0  0 0.02 0  0.04 0.02 0  0.08 0.02 0  0.12 0.02 0  0.16 0.02 0  0.2 0.02 0  0.24 0.02 0  0.28 0.02 0  0.32 0.02 0  0.36 0.02 0  0.4 0.02 0  0.44 0.02 0  0.48 0.02 0  0.52 0.02 0  0.5600000000000001 0.02 0  0.6 0.02 0  0.64 0.02 0  0.68 0.02 0  0.72 0.02 0  0.76 0.02 0  0.8 0.02 0  0.84 0.02 0  0.88 0.02 0  0.92 0.02 0  0.96 0.02 0  1 0.02 0  1.04 0.02 0  1.08 0.02 0  1.12 0.02 0  1.16 0.02 0  1.2 0.02 0  1.24 0.02 0  1.28 0.02 0  1.32 0.02 0  1.36 0.02 0  1.4 0.02 0  1.44 0.02 0  1.48 0.02 0  1.52 0.02 0  1.56 0.02 0  1.6 0.02 0  1.64 0.02 0  1.68 0.02 0  1.72 0.02 0  1.76 0.02 0  1.8 0.02 0  1.84 0.02 0  1.88 0.02 0  1.92 0.02 0  1.96 0.02 0  2 0.02 0  0 0.04 0  0.04 0.04 0  0.08 0.04 0  0.12 0.04 0  0.16 0.04 0  0.2 0.04 0  0.24 0.04 0  0.28 0.04 0  0.32 0.04 0  0.36 0.04 0  0.4 0.04 0  0.44 0.04 0  0.48 0.04 0  0.52 0.04 0  0.5600000000000001 0.04 0  0.6 0.04 0  0.64 0.04 0  0.68 0.04 0  0.72 0.04 0  0.76 0.04 0  0.8 0.04 0  0.84 0.04 0  0.88 0.04 0  0.92 0.04 0  0.96 0.04 0  1 0.04 0  1.04 0.04 0  1.08 0.04 0  1.12 0.04 0  1.16 0.04 0  1.2 0.04 0  1.24 0.04 0  1.28 0.04 0  1.32 0.04 0  1.36 0.04 0  1.4 0.04 0  1.44 0.04 0  1.48 0.04 0  1.52 0.04 0  1.56 0.04 0  1.6 0.04 0  1.64 0.04 0  1.68 0.04 0  1.72 0.04 0  1.76 0.04 0  1.8 0.04 0  1.84 0.04 0  1.88 0.04 0  1.92 0.04 0  1.96 0.04 0  2 0.04 0  0 0.06 0  0.04 0.06 0  0.08 0.06 0  0.12 0.06 0  0.16 0.06 0  0.2 0.06 0  0.24 0.06 0  0.28 0.06 0  0.32 0.06 0  0.36 0.06 0  0.4 0.06 0  0.44 0.06 0  0.48 0.06 0  0.52 0.06 0  0.5600000000000001 0.06 0  0.6 0.06 0  0.64 0.06 0  0.68 0.06 0  0.72 0.06 0  0.76 0.06 0  0.8 0.06 0  0.84 0.06 0  0.88 0.06 0  0.92 0.06 0  0.96 0.06 0  1 0.06 0  1.04 0.06 0  1.08 0.06 0  1.12 0.06 0  1.16 0.06 0  1.2 0.06 0  1.24 0.06 0  1.28 0.06 0  1.32 0.06 0  1.36 0.06 0  1.4 0.06 0  1.44 0.06 0  1.48 0.06 0  1.52 0.06 0  1.56 0.06 0  1.6 0.06 0  1.64 0.06 0  1.68 0.06 0  1.72 0.06 0  1.76 0.06 0  1.8 0.06 0  1.84 0.06 0  1.88 0.06 0  1.92 0.06 0  1.96 0.06 0  2 0.06 0  0 0.08 0  0.04 0.08 0  0.08 0.08 0  0.12 0.08 0  0.16 0.08 0  0.2 0.08 0  0.24 0.08 0  0.28 0.08 0  0.32 0.08 0  0.36 0.08 0  0.4 0.08 0  0.44 0.08 0  0.48 0.08 0  0.52 0.08 0  0.5600000000000001 0.08 0  0.6 0.08 0  0.64 0.08 0  0.68 0.08 0  0.72 0.08 0  0.76 0.08 0  0.8 0.08 0  0.84 0.08 0  0.88 0.08 0  0.92 0.08 0  0.96 0.08 0  1 0.08 0  1.04 0.08 0  1.08 0.08 0  1.12 0.08 0  1.16 0.08 0  1.2 0.08 0  1.24 0.08 0  1.28 0.08 0  1.32 0.08 0  1.36 0.08 0  1.4 0.08 0  1.44 0.08 0  1.48 0.08 0  1.52 0.08 0  1.56 0.08 0  1.6 0.08 0  1.64 0.08 0  1.68 0.08 0  1.72 0.08 0  1.76 0.08 0  1.8 0.08 0  1.84 0.08 0  1.88 0.08 0  1.92 0.08 0  1.96 0.08 0  2 0.08 0  0 0.1 0  0.04 0.1 0  0.08 0.1 0  0.12 0.1 0  0.16 0.1 0  0.2 0.1 0  0.24 0.1 0  0.28 0.1 0  0.32 0.1 0  0.36 0.1 0  0.4 0.1 0  0.44 0.1 0  0.48 0.1 0  0.52 0.1 0  0.5600000000000001 0.1 0  0.6 0.1 0  0.64 0.1 0  0.68 0.1 0  0.72 0.1 0  0.76 0.1 0  0.8 0.1 0  0.84 0.1 0  0.88 0.1 0  0.92 0.1 0  0.96 0.1 0  1 0.1 0  1.04 0.1 0  1.08 0.1 0  1.12 0.1 0  1.16 0.1 0  1.2 0.1 0  1.24 0.1 0  1.28 0.1 0  1.32 0.1 0  1.36 0.1 0  1.4 0.1 0  1.44 0.1 0  1.48 0.1 0  1.52 0.1 0  1.56 0.1 0  1.6 0.1 0  1.64 0.1 0  1.68 0.1 0  1.72 0.1 0  1.76 0.1 0  1.8 0.1 0  1.84 0.1 0  1.88 0.1 0  1.92 0.1 0  1.96 0.1 0  2 0.1 0  0 0.12 0  0.04 0.12 0  0.08 0.12 0  0.12 0.12 0  0.16 0.12 0  0.2 0.12 0  0.24 0.12 0  0.28 0.12 0  0.32 0.12 0  0.36 0.12 0  0.4 0.12 0  0.44 0.12 0  0.48 0.12 0  0.52 0.12 0  0.5600000000000001 0.12 0  0.6 0.12 0  0.64 0.12 0  0.68 0.12 0  0.72 0.12 0  0.76 0.12 0  0.8 0.12 0  0.84 0.12 0  0.88 0.12 0  0.92 0.12 0  0.96 0.12 0  1 0.12 0  1.04 0.12 0  1.08 0.12 0  1.12 0.12 0  1.16 0.12 0  1.2 0.12 0  1.24 0.12 0  1.28 0.12 0  1.32 0.12 0  1.36 0.12 0  1.4 0.12 0  1.44 0.12 0  1.48 0.12 0  1.52 0.12 0  1.56 0.12 0  1.6 0.12 0  1.64 0.12 0  1.68 0.12 0  1.72 0.12 0  1.76 0.12 0  1.8 0.12 0  1.84 0.12 0  1.88 0.12 0  1.92 0.12 0  1.96 0.12 0  2 0.12 0  0 0.14 0  0.04 0.14 0  0.08 0.14 0  0.12 0.14 0  0.16 0.14 0  0.2 0.14 0  0.24 0.14 0  0.28 0.14 0  0.32 0.14 0  0.36 0.14 0  0.4 0.14 0  0.44 0.14 0  0.48 0.14 0  0.52 0.14 0  0.5600000000000001 0.14 0  0.6 0.14 0  0.64 0.14 0  0.68 0.14 0  0.72 0.14 0  0.76 0.14 0  0.8 0.14 0  0.84 0.14 0  0.88 0.14 0  0.92 0.14 0  0.96 0.14 0  1 0.14 0  1.04 0.14 0  1.08 0.14 0  1.12 0.14 0  1.16 0.14 0  1.2 0.14 0  1.24 0.14 0  1.28 0.14 0  1.32 0.14 0  1.36 0.14 0  1.4 0.14 0  1.44 0.14 0  1.48 0.14 0  1.52 0.14 0  1.56 0.14 0  1.6 0.14 0  1.64 0.14 0  1.68 0.14 0  1.72 0.14 0  1.76 0.14 0  1.8 0.14 0  1.84 0.14 0  1.88 0.14 0  1.92 0.14 0  1.96 0.14 0  2 0.14 0  0 0.16 0  0.04 0.16 0  0.08 0.16 0  0.12 0.16 0  0.16 0.16 0  0.2 0.16 0  0.24 0.16 0  0.28 0.16 0  0.32 0.16 0  0.36 0.16 0  0.4 0.16 0  0.44 0.16 0  0.48 0.16 0  0.52 0.16 0  0.5600000000000001 0.16 0  0.6 0.16 0  0.64 0.16 0  0.68 0.16 0  0.72 0.16 0  0.76 0.16 0  0.8 0.16 0  0.84 0.16 0  0.88 0.16 0  0.92 0.16 0  0.96 0.16 0  1 0.16 0  1.04 0.16 0  1.08 0.16 0  1.12 0.16 0  1.16 0.16 0  1.2 0.16 0  1.24 0.16 0  1.28 0.16 0  1.32 0.16 0  1.36 0.16 0  1.4 0.16 0  1.44 0.16 0  1.48 0.16 0  1.52 0.16 0  1.56 0.16 0  1.6 0.16 0  1.64 0.16 0  1.68 0.16 0  1.72 0.16 0  1.76 0.16 0  1.8 0.16 0  1.84 0.16 0  1.88 0.16 0  1.92 0.16 0  1.96 0.16 0  2 0.16 0  0 0.18 0  0.04 0.18 0  0.08 0.18 0  0.12 0.18 0  0.16 0.18 0  0.2 0.18 0  0.24 0.18 0  0.28 0.18 0  0.32 0.18 0  0.36 0.18 0  0.4 0.18 0  0.44 0.18 0  0.48 0.18 0  0.52 0.18 0  0.5600000000000001 0.18 0  0.6 0.18 0  0.64 0.18 0  0.68 0.18 0  0.72 0.18 0  0.76 0.18 0  0.8 0.18 0  0.84 0.18 0  0.88 0.18 0  0.92 0.18 0  0.96 0.18 0  1 0.18 0  1.04 0.18 0  1.08 0.18 0  1.12 0.18 0  1.16 0.18 0  1.2 0.18 0  1.24 0.18 0  1.28 0.18 0  1.32 0.18 0  1.36 0.18 0  1.4 0.18 0  1.44 0.18 0  1.48 0.18 0  1.52 0.18 0  1.56 0.18 0  1.6 0.18 0  1.64 0.18 0  1.68 0.18 0  1.72 0.18 0  1.76 0.18 0  1.8 0.18 0  1.84 0.18 0  1.88 0.18 0  1.92 0.18 0  1.96 0.18 0  2 0.18 0  0 0.2 0  0.04 0.2 0  0.08 0.2 0  0.12 0.2 0  0.16 0.2 0  0.2 0.2 0  0.24 0.2 0  0.28 0.2 0  0.32 0.2 0  0.36 0.2 0  0.4 0.2 0  0.44 0.2 0  0.48 0.2 0  0.52 0.2 0  0.5600000000000001 0.2 0  0.6 0.2 0  0.64 0.2 0  0.68 0.2 0  0.72 0.2 0  0.76 0.2 0  0.8 0.2 0  0.84 0.2 0  0.88 0.2 0  0.92 0.2 0  0.96 0.2 0  1 0.2 0  1.04 0.2 0  1.08 0.2 0  1.12 0.2 0  1.16 0.2 0  1.2 0.2 0  1.24 0.2 0  1.28 0.2 0  1.32 0.2 0  1.36 0.2 0  1.4 0.2 0  1.44 0.2 0  1.48 0.2 0  1.52 0.2 0  1.56 0.2 0  1.6 0.2 0  1.64 0.2 0  1.68 0.2 0  1.72 0.2 0  1.76 0.2 0  1.8 0.2 0  1.84 0.2 0  1.88 0.2 0  1.92 0.2 0  1.96 0.2 0  2 0.2 0  0 0.22 0  0.04 0.22 0  0.08 0.22 0  0.12 0.22 0  0.16 0.22 0  0.2 0.22 0  0.24 0.22 0  0.28 0.22 0  0.32 0.22 0  0.36 0.22 0  0.4 0.22 0  0.44 0.22 0  0.48 0.22 0  0.52 0.22 0  0.5600000000000001 0.22 0  0.6 0.22 0  0.64 0.22 0  0.68 0.22 0  0.72 0.22 0  0.76 0.22 0  0.8 0.22 0  0.84 0.22 0  0.88 0.22 0  0.92 0.22 0  0.96 0.22 0  1 0.22 0  1.04 0.22 0  1.08 0.22 0  1.12 0.22 0  1.16 0.22 0  1.2 0.22 0  1.24 0.22 0  1.28 0.22 0  1.32 0.22 0  1.36 0.22 0  1.4 0.22 0  1.44 0.22 0  1.48 0.22 0  1.52 0.22 0  1.56 0.22 0  1.6 0.22 0  1.64 0.22 0  1.68 0.22 0  1.72 0.22 0  1.76 0.22 0  1.8 0.22 0  1.84 0.22 0  1.88 0.22 0  1.92 0.22 0  1.96 0.22 0  2 0.22 0  0 0.24 0  0.04 0.24 0  0.08 0.24 0  0.12 0.24 0  0.16 0.24 0  0.2 0.24 0  0.24 0.24 0  0.28 0.24 0  0.32 0.24 0  0.36 0.24 0  0.4 0.24 0  0.44 0.24 0  0.48 0.24 0  0.52 0.24 0  0.5600000000000001 0.24 0  0.6 0.24 0  0.64 0.24 0  0.68 0.24 0  0.72 0.24 0  0.76 0.24 0  0.8 0.24 0  0.84 0.24 0  0.88 0.24 0  0.92 0.24 0  0.96 0.24 0  1 0.24 0  1.04 0.24 0  1.08 0.24 0  1.12 0.24 0  1.16 0.24 0  1.2 0.24 0  1.24 0.24 0  1.28 0.24 0  1.32 0.24 0  1.36 0.24 0  1.4 0.24 0  1.44 0.24 0  1.48 0.24 0  1.52 0.24 0  1.56 0.24 0  1.6 0.24 0  1.64 0.24 0  1.68 0.24 0  1.72 0.24 0  1.76 0.24 0  1.8 0.24 0  1.84 0.24 0  1.88 0.24 0  1.92 0.24 0  1.96 0.24 0  2 0.24 0  0 0.26 0  0.04 0.26 0  0.08 0.26 0  0.12 0.26 0  0.16 0.26 0  0.2 0.26 0  0.24 0.26 0  0.28 0.26 0  0.32 0.26 0  0.36 0.26 0  0.4 0.26 0  0.44 0.26 0  0.48 0.26 0  0.52 0.26 0  0.5600000000000001 0.26 0  0.6 0.26 0  0.64 0.26 0  0.68 0.26 0  0.72 0.26 0  0.76 0.26 0  0.8 0.26 0  0.84 0.26 0  0.88 0.26 0  0.92 0.26 0  0.96 0.26 0  1 0.26 0  1.04 0.26 0  1.08 0.26 0  1.12 0.26 0  1.16 0.26 0  1.2 0.26 0  1.24 0.26 0  1.28 0.26 0  1.32 0.26 0  1.36 0.26 0  1.4 0.26 0  1.44 0.26 0  1.48 0.26 0  1.52 0.26 0  1.56 0.26 0  1.6 0.26 0  1.64 0.26 0  1.68 0.26 0  1.72 0.26 0  1.76 0.26 0  1.8 0.26 0  1.84 0.26 0  1.88 0.26 0  1.92 0.26 0  1.96 0.26 0  2 0.26 0  0 0.28 0  0.04 0.28 0  0.08 0.28 0  0.12 0.28 0  0.16 0.28 0  0.2 0.28 0  0.24 0.28 0  0.28 0.28 0  0.32 0.28 0  0.36 0.28 0  0.4 0.28 0  0.44 0.28 0  0.48 0.28 0  0.52 0.28 0  0.5600000000000001 0.28 0  0.6 0.28 0  0.64 0.28 0  0.68 0.28 0  0.72 0.28 0  0.76 0.28 0  0.8 0.28 0  0.84 0.28 0  0.88 0.28 0  0.92 0.28 0  0.96 0.28 0  1 0.28 0  1.04 0.28 0  1.08 0.28 0  1.12 0.28 0  1.16 0.28 0  1.2 0.28 0  1.24 0.28 0  1.28 0.28 0  1.32 0.28 0  1.36 0.28 0  1.4 0.28 0  1.44 0.28 0  1.48 0.28 0  1.52 0.28 0  1.56 0.28 0  1.6 0.28 0  1.64 0.28 0  1.68 0.28 0  1.72 0.28 0  1.76 0.28 0  1.8 0.28 0  1.84 0.28 0  1.88 0.28 0  1.92 0.28 0  1.96 0.28 0  2 0.28 0  0 0.3 0  0.04 0.3 0  0.08 0.3 0  0.12 0.3 0  0.16 0.3 0  0.2 0.3 0  0.24 0.3 0  0.28 0.3 0  0.32 0.3 0  0.36 0.3 0  0.4 0.3 0  0.44 0.3
[...]
<PointData  Vectors="f_26-0"> 
<DataArray  type="Float64"  Name="f_26-0"  NumberOfComponents="3" format="ascii">0.0000000000000000e+00 0.0000000000000000e+00 0.0000000000000000e+00  0.0000000000000000e+00 0.0000000000000000e+00 0.0000000000000000e+00  0.0000000000000000e+00 0.0000000000000000e+00 0.0000000000000000e+00  0.0000000000000000e+00 0.0000000000000000e+00 0.0000000000000000e+00  0.0000000000000000e+00 0.0000000000000000e+00 0.0000000000000000e+00  0.0000000000000000e+00 0.0000000000000000e+00 0.0000000000000000e+00  0.0000000000000000e+00 0.0000000000000000e+00 0.0000000000000000e+00  0.0000000000000000e+00 0.0000000000000000e+00 0.0000000000000000e+00  0.0000000000000000e+00 0.0000000000000000e+00 0.0000000000000000e+00  0.0000000000000000e+00 0.0000000000000000e+00 0.0000000000000000e+00  0.0000000000000000e+00 0.0000000000000000e+00 0.0000000000000000e+00  0.0000000000000000e+00 0.0000000000000000e+00 0.0000000000000000e+00  0.0000000000000000e+00 0.0000000000000000e+00 0.0000000000000000e+00  0.0000000000000000e+00 0.0000000000000000e+00 0.0000000000000000e+00  0.0000000000000000e+00 0.0000000000000000e+00 0.0000000000000000e+00  0.0000000000000000e+00 0.0000000000000000e+00 0.0000000000000000e+00  0.0000000000000000e+00 0.0000000000000000e+00 0.0000000000000000e+00  0.0000000000000000e+00 0.0000000000000000e+00 0.0000000000000000e+00  0.0000000000000000e+00 0.0000000000000000e+00 0.0000000000000000e+00  0.0000000000000000e+00 0.0000000000000000e+00 0.0000000000000000e+00  0.0000000000000000e+00 0.0000000000000000e+00 0.0000000000000000e+00  0.0000000000000000e+00 0.0000000000000000e+00 0.0000000000000000e+00  0.0000000000000000e+00 0.0000000000000000e+00 0.0000000000000000e+00  0.0000000000000000e+00 0.0000000000000000e+00 0.0000000000000000e+00  0.0000000000000000e+00 0.0000000000000000e+00 0.0000000000000000e+00  0.0000000000000000e+00 0.0000000000000000e+00 0.0000000000000000e+00  0.0000000000000000e+00 0.0000000000000000e+00 0.0000000000000000e+00  0.0000000000000000e+00 0.0000000000000000e+00 0.0000000000000000e+00  0.0000000000000000e+00 0.0000000000000000e+00 0.0000000000000000e+00  0.0000000000000000e+00 0.0000000000000000e+00 0.0000000000000000e+00  0.0000000000000000e+00 0.0000000000000000e+00 0.0000000000000000e+00  0.0000000000000000e+00 0.0000000000000000e+00 0.0000000000000000e+00  0.0000000000000000e+00 0.0000000000000000e+00 0.0000000000000000e+00  0.0000000000000000e+00 0.0000000000000000e+00 0.0000000000000000e+00  0.0000000000000000e+00 0.0000000000000000e+00 0.0000000000000000e+00  0.0000000000000000e+00 0.0000000000000000e+00 0.0000000000000000e+00  0.0000000000000000e+00 0.0000000000000000e+00 0.0000000000000000e+00  0.0000000000000000e+00 0.0000000000000000e+00 0.0000000000000000e+00  0.0000000000000000e+00 0.0000000000000000e+00 0.0000000000000000e+00  0.0000000000000000e+00 0.0000000000000000e+00 0.0000000000000000e+00  0.0000000000000000e+00 0.0000000000000000e+00 0.0000000000000000e+00  0.0000000000000000e+00 0.0000000000000000e+00 0.0000000000000000e+00  0.0000000000000000e+00 0.0000000000000000e+00 0.0000000000000000e+00  0.0000000000000000e+00 0.0000000000000000e+00 0.0000000000000000e+00  0.0000000000000000e+00 0.0000000000000000e+00 0.0000000000000000e+00  0.0000000000000000e+00 0.0000000000000000e+00 0.0000000000000000e+00  0.0000000000000000e+00 0.0000000000000000e+00 0.0000000000000000e+00  0.0000000000000000e+00 0.0000000000000000e+00 0.0000000000000000e+00  0.0000000000000000e+00 0.0000000000000000e+00 0.0000000000000000e+00  0.0000000000000000e+00 0.0000000000000000e+00 0.0000000000000000e+00  0.0000000000000000e+00 0.0000000000000000e+00 0.0000000000000000e+00  1.0000000000000000e-02 0.0000000000000000e+00 0.0000000000000000e+00  -2.3851083817292688e-03 7.4289311569209959e-03 0.0000000000000000e+00  -4.7367332460937599e-02 1.5421056338845461e-02 0.0000000000000000e+00  -1.1873272834573186e-01 2.1384526249254236e-02 0.0000000000000000e+00  -2.0959915339426835e-01 2.5770387725350855e-02 0.0000000000000000e+00  -3.1556271656837742e-01 2.9366332865900461e-02 0.0000000000000000e+00  -4.3471551838167705e-01 3.2666678810608515e-02 0.0000000000000000e+00  -5.6648258670102902e-01 3.5945499825054031e-02 0.0000000000000000e+00  -7.1102254601856418e-01 3.9333010428453899e-02 0.0000000000000000e+00  -8.6880136985461542e-01 4.2872844513863854e-02 0.0000000000000000e+00  -1.0403217795751705e+00 4.6548282889664512e-02 0.0000000000000000e+00  -1.2259134852848486e+00 5.0291773944118316e-02 0.0000000000000000e+00  -1.4255350138375387e+00 5.3982824450663471e-02 0.0000000000000000e+00  -1.6385499375354970e+00 5.7437273773540583e-02 0.0000000000000000e+00  -1.8634485495104820e+00 6.0389651737279788e-02 0.0000000000000000e+00  -2.0974926037349015e+00 6.2470494279879961e-02 0.0000000000000000e+00  -2.3362718665765145e+00 6.3182556464650597e-02 0.0000000000000000e+00  -2.5731855876377412e+00 6.1884573275988931e-02 0.0000000000000000e+00  -2.7989123612117286e+00 5.7799943100117053e-02 0.0000000000000000e+00  -3.0010272084625225e+00 5.0082292397371629e-02 0.0000000000000000e+00  -3.1640915376165695e+00 3.7992387808807655e-02 0.0000000000000000e+00  -3.2708128882071641e+00 2.1272670738078110e-02 0.0000000000000000e+00  -3.3052793666212152e+00 8.4527744327214400e-04 0.0000000000000000e+00  -3.2598295617543580e+00 -2.0002341587042956e-02 0.0000000000000000e+00  -3.1477653127519329e+00 -3.3768781824373262e-02 0.0000000000000000e+00  -3.0246328502924942e+00 -2.6124276084950517e-02 0.0000000000000000e+00  -3.0206422917381701e+00 2.7306061144026492e-02 0.0000000000000000e+00  -3.3848489788770522e+00 1.6395566305722417e-01 0.0000000000000000e+00  -4.5360149705319479e+00 4.3505124264557832e-01 0.0000000000000000e+00  -7.1026960922225220e+00 8.9986696689852763e-01 0.0000000000000000e+00  -1.1912886788664553e+01 1.6063978737071785e+00 0.0000000000000000e+00  -1.9860692908949570e+01 2.5487713866710098e+00 0.0000000000000000e+00  -3.1542010135667599e+01 3.5926938540717859e+00 0.0000000000000000e+00  -4.6541404420896619e+01 4.3715954047470955e+00 0.0000000000000000e+00  -6.2332279213207279e+01 4.1884503959629749e+00 0.0000000000000000e+00  -7.3023923058295665e+01 2.0194554223035177e+00 0.0000000000000000e+00  -6.8750392338094869e+01 -3.2006881645665506e+00 0.0000000000000000e+00  -3.7301548129451334e+01 -1.1791384453533993e+01 0.0000000000000000e+00  2.9866143650718580e+01 -2.1957341090367358e+01 0.0000000000000000e+00  1.2596278942083848e+02 -2.8214499719213617e+01 0.0000000000000000e+00  2.1426690682345438e+02 -2.1127711524266644e+01 0.0000000000000000e+00  2.2176107782707953e+02 9.3871363507796470e+00 0.0000000000000000e+00  5.9132774382713421e+01 6.5149044121368831e+01 0.0000000000000000e+00  -3.1323149814994485e+02 1.2389228478411192e+02 0.0000000000000000e+00  -7.9299490283773707e+02 1.3832405700103700e+02 0.0000000000000000e+00  -1.1233248870734096e+03 6.3223963234306630e+01 0.0000000000000000e+00  -1.0423326787725007e+03 -1.2807652404897456e+02 0.0000000000000000e+00  -4.7635313989481415e+02 -2.3948794877758917e+02 0.0000000000000000e+00  5.1612257622187293e+01 -7.9158935922914253e+01 0.0000000000000000e+00  1.4076069125182690e+02 3.9864898864388500e+01 0.0000000000000000e+00  1.0013135064190266e+02 2.1893532637597104e+02 0.0000000000000000e+00  1.0000000000000000e-02 0.0000000000000000e+00 0.0000000000000000e+00  -1.6079006509583452e-02 2.8516751528942615e-02 0.0000000000000000e+00  -9.7956673083283832e-02 5.7596983803385217e-02 0.0000000000000000e+00  -2.2540015052607132e-01 7.9280356985736503e-02 0.0000000000000000e+00  -3.8726974612130788e-01 9.5611973830719260e-02 0.0000000000000000e+00  -5.7665337276917916e-01 1.0914089763260415e-01 0.0000000000000000e+00  -7.9015138118354433e-01 1.2155453035221069e-01 0.0000000000000000e+00  -1.0265508259600031e+00 1.3380493159753476e-01 0.0000000000000000e+00  -1.2858541688167431e+00 1.4635491901488704e-01 0.0000000000000000e+00  -1.5685785864564272e+00 1.5935364828977072e-01 0.0000000000000000e+00  -1.8752783822464540e+00 1.7272556835913941e-01 0.0000000000000000e+00  -2.2061624979867593e+00 1.8620284094453812e-01 0.0000000000000000e+00  -2.5607310597420878e+00 1.9931716244408837e-01 0.0000000000000000e+00  -2.9373690267394523e+00 2.1136108288812674e-01 0.0000000000000000e+00  -3.3328498716052573e+00 2.2132520725312341e-01 0.0000000000000000e+00  -3.7417159530475090e+00 2.2781934795570993e-01 0.0000000000000000e+00  -4.1555269727607334e+00 2.2899425784621041e-01 0.0000000000000000e+00  -4.5620190878454974e+00 2.2249921105185047e-01 0.0000000000000000e+00  -4.9443181829237677e+00 2.0554442587543581e-01 0.0000000000000000e+00  -5.2805350511597586e+00 1.7519264691577996e-01 0.0000000000000000e+00  -5.5443823491776216e+00 1.2908778177281149e-01 0.0000000000000000e+00  -5.7079439232304585e+00 6.6943162307855686e-02 0.0000000000000000e+00  -5.7484353448853485e+00 -6.7524006341621113e-03 0.0000000000000000e+00  -5.6617019593593527e+00 -7.8238050271730294e-02 0.0000000000000000e+00  -5.4861362318020470e+00 -1.1763569772366395e-01 0.0000000000000000e+00  -5.3411575069447093e+00 -6.9571267370929585e-02 0.0000000000000000e+00  -5.4832618295525659e+00 1.5776794265894672e-01 0.0000000000000000e+00  -6.3777874889629462e+00 7.0156156060678432e-01 0.0000000000000000e+00  -8.7724925003244483e+00 1.7427740252470505e+00 0.0000000000000000e+00  -1.3735262343240153e+01 3.4777366197468802e+00 0.0000000000000000e+00  -2.2579139583315623e+01 6.0367406876919469e+00 0.0000000000000000e+00  -3.6546571598011987e+01 9.3167822769468351e+00 0.0000000000000000e+00  -5.6083681931051771e+01 1.2705655317792548e+01 0.0000000000000000e+00  -7.9565297762141910e+01 1.4727796743757754e+01 0.0000000000000000e+00  -1.0154949565616754e+02 1.2774595167052430e+01 0.0000000000000000e+00  -1.1119978685316192e+02 3.3128339972586791e+00 0.0000000000000000e+00  -9.2490953356466235e+01 -1.6772767514308661e+01 0.0000000000000000e+00  -2.8894546624495547e+01 -4.7030828254746943e+01 0.0000000000000000e+00  8.4724811201965252e+01 -7.8583560302941549e+01 0.0000000000000000e+00  2.2335702061218200e+02 -8.9855186037836788e+01 0.0000000000000000e+00  3.1518864168984607e+02 -4.8685110635899171e+01 0.0000000000000000e+00  2.4800402680573018e+02 7.1239961491816857e+01 0.0000000000000000e+00  -7.5585285472555753e+01 2.5492368184041428e+02 0.0000000000000000e+00  -6.2509220264882924e+02 4.0855293576910219e+02 0.0000000000000000e+00  -1.1587898537027406e+03 3.8039871335721034e+02 0.0000000000000000e+00  -1.3102187092808460e+03 7.0381117284270346e+01 0.0000000000000000e+00  -8.8884992378308766e+02 -3.5515869683368771e+02 0.0000000000000000e+00  -3.2096142921328038e+02 -4.4799018745944670e+02 0.0000000000000000e+00  -1.6796112269273141e+02 -2.1791146111530645e+02 0.0000000000000000e+00  9.5287689309282109e-01 2.9332438647233740e+01 0.0000000000000000e+00  -2.8858724886826587e+02 -1.8090602321199228e+02 0.0000000000000000e+00  1.0000000000000000e-02 0.0000000000000000e+00 0.0000000000000000e+00  -3.1351546877202249e-02 6.2578283140649754e-02 0.0000000000000000e+00  -1.4568158799757727e-01 1.2136874476659840e-01 0.0000000000000000e+00  -3.1833980492474301e-01 1.6586539397989655e-01 0.0000000000000000e+00  -5.3627985698624381e-01 2.0006644243297150e-01 0.0000000000000000e+00  -7.9135093997196171e-01 2.2867675561662459e-01 0.0000000000000000e+00  -1.0792150210372002e+00 2.5492937471784011e-01 0.0000000000000000e+00  -1.3981396739992693e+00 2.8069082045960331e-01 0.0000000000000000e+00  -1.7478490768433621e+00 3.0688334428210717e-01 0.0000000000000000e+00  -2.1286848136383165e+00 3.3379223394267005e-01 0.0000000000000000e+00  -2.5409886861154485e+00 3.6123469268845732e-01 0.0000000000000000e+00  -2.9845932141248133e+00 3.8862164068702626e-01 0.0000000000000000e+00  -3.4583319566859423e+00 4.1494049246878312e-01 0.0000000000000000e+00  -3.9594951925183661e+00 4.3867753117011710e-01 0.0000000000000000e+00  -4.4831748352058582e+00 4.5769355795000033e-01 0.0000000000000000e+00  -5.0214625872598706e+00 4.6907189100740065e-01 0.0000000000000000e+00  -5.5625034682637322e+00 4.6897740199190546e-01 0.0000000000000000e+00  -6.0894832453562886e+00 4.5260624575701580e-01 0.0000000000000000e+00  -6.5797741758764658e+00 4.1437846755239832e-01 0.0000000000000000e+00  -7.0047224202179139e+00 3.4864238891013782e-01 0.0000000000000000e+00  -7.3309875852335091e+00 2.5133204678351545e-01 0.0000000000000000e+00  -7.5249966421962879e+00 1.2324781007721713e-01 0.0000000000000000e+00  -7.5629787633214178e+00 -2.4115222420147027e-02 0.0000000000000000e+00  -7.4501340966522758e+00 -1.5909021053403749e-01 0.0000000000000000e+00  -7.2534511711528529e+00 -2.1576382806048156e-01 0.0000000000000000e+00  -7.1527372881122719e+00 -7.5340893904136869e-02 0.0000000000000000e+00  -7.5119274168161700e+00 4.5429801329836866e-01 0.0000000000000000e+00  -8.9647711201164864e+00 1.6522954966018308e+00 0.0000000000000000e+00  -1.2491160728653972e+01 3.8727930373258799e+00 0.0000000000000000e+00  -1.9427602435537196e+01 7.4725019725115267e+00 0.0000000000000000e+00  -3.1305475805516110e+01 1.2625393194724694e+01 0.0000000000000000e+00  -4.9353436032863819e+01 1.8964879544434694e+01 0.0000000000000000e+00  -7.3473886726625437e+01 2.5028026141378113e+01 0.0000000000000000e+00  -1.0059746070139919e+02 2.7606152072773966e+01 0.0000000000000000e+00  -1.2268515479651418e+02 2.1395984863550154e+01 0.0000000000000000e+00  -1.2544432733979033e+02 -1.9697733155931887e-01 0.0000000000000000e+00  -9.0025962825168406e+01 -4.1833881900434953e+01 0.0000000000000000e+00  -9.0916836444423599e-01 -9.9593155637608120e+01 0.0000000000000000e+00  1.3783155093064588e+02 -1.5196190820088077e+02 0.0000000000000000e+00  2.8140367539745841e+02 -1.5438230673538703e+02 0.0000000000000000e+00  3.3380389742928060e+02 -4.9461859171267605e+01 0.0000000000000000e+00  1.7566877361959652e+02 1.9321252940401391e+02 0.0000000000000000e+00  -2.4179093442335451e+02 5.0827761404176596e+02 0.0000000000000000e+00  -7.5694768295263191e+02 6.8708360526490878e+02 0.0000000000000000e+00  -9.5882066706944988e+02 4.6014564299287878e+02 0.0000000000000000e+00  -4.2077526955292439e+02 -1.9084492940129564e+02 0.0000000000000000e+00  5.3366892169282892e+02 -6.6176124717824973e+02 0.0000000000000000e+00  5.2747670896219552e+02 -4.1897309306230107e+02 0.0000000000000000e+00  -2.3562679918693601e+02 -1.0664226749638399e+02 0.0000000000000000e+00  -4.2825359588075975e+02 -1.0924905683830139e+02 0.0000000000000000e+00  1.5962250000252226e+02 4.5729592296637534e+01 0.0000000000000000e+00  1.0000000000000000e-02 0.0000000000000000e+00 0.0000000000000000e+00  -4.4782196945044074e-02 1.0875144969219287e-01 0.0000000000000000e+00  -1.8737661215009196e-01 2.0315063923702734e-01 0.0000000000000000e+00  -3.9691667855972712e-01 2.7535566919996968e-01 0.0000000000000000e+00  -6.5935865367790913e-01 3.3178805889170748e-01 0.0000000000000000e+00  -9.6598605844037644e-01 3.7945495283335295e-01 0.0000000000000000e+00  -1.3120083939694116e+00 4.2324449261511249e-01 0.0000000000000000e+00  -1.6953469886768449e+00 4.6604087095408092e-01 0.0000000000000000e+00  -2.1154442995610050e+00 5.0927962815100691e-01 0.0000000000000000e+00  -2.5723743112853419e+00 5.5338240239562908e-01 0.0000000000000000e+00  -3.0661454442697522e+00 5.9800683576128921e-01 0.0000000000000000e+00  -3.5961101839392682e+00 6.4213817320591671e-01 0.0000000000000000e+00  -4.1603894709255957e+00 6.8406018828449167e-01 0.0000000000000000e+00  -4.7552349471068593e+00 7.2123208511753345e-01 0.0000000000000000e+00  -5.3742703132577549e+00 7.5009431229024226e-01 0.0000000000000000e+00  -6.0075784107922514e+00 7.6583767776458667e-01 0.0000000000000000e+00  -6.6406500048639652e+00 7.6220496619946865e-01 0.0000000000000000e+00  -7.2533073131388326e+00 7.3146441592443834e-01 0.0000000000000000e+00  -7.8188964330373381e+00 6.6481626420904572e-01 0.0000000000000000e+00  -8.3043572336131817e+00 5.5368625924322357e-01 0.0000000000000000e+00  -8.6722861770607249e+00 3.9263853825702838e-01 0.0000000000000000e+00  -8.8868604516874914e+00 1.8499809066843684e-01 0.0000000000000000e+00  -8.9264974532045755e+00 -4.7354765259658482e-02 0.0000000000000000e+00  -8.8072525834017981e+00 -2.4836267601304476e-01 0.0000000000000000e+00  -8.6217750109935114e+00 -3.0511605888795995e-01 0.0000000000000000e+00  -8.5981194355822446e+00 -1.8813325671181314e-02 0.0000000000000000e+00  -9.1788339094133242e+00 9.2508145129744945e-01 0.0000000000000000e+00  -1.1110097040804558e+01 2.9719859924578196e+00 0.0000000000000000e+00  -1.5508474548742466e+01 6.6660030402550721e+00 0.0000000000000000e+00  -2.3834418194658770e+01 1.2513267557420313e+01 0.0000000000000000e+00  -3.7647272745812820e+01 2.0659009906932781e+01 0.0000000000000000e+00  -5.7962839959524764e+01 3.0295155146012384e+01 0.0000000000000000e+00  -8.4033351367882560e+01 3.8789798835922788e+01 0.0000000000000000e+00  -1.1152995169232504e+02 4.0766276320513398e+01 0.0000000000000000e+00  -1.3059275081960709e+02 2.7844172719973134e+01 0.0000000000000000e+00  -1.2515366383851978e+02 -9.5506934473785670e+00 0.0000000000000000e+00  -7.6165729388448383e+01 -7.6422136165331864e+01 0.0000000000000000e+00  2.8074206268080779e+01 -1.6246223069029602e+02 0.0000000000000000e+00  1.7348913365972226e+02 -2.2926116924574151e+02 0.0000000000000000e+00  3.0057819101055168e+02 -2.0637714897577695e+02 0.0000000000000000e+00  3.0382876581649015e+02 -1.5852286842993317e+01 0.0000000000000000e+00  8.2545568062879141e+01 3.5647889993184259e+02 0.0000000000000000e+00  -3.3317798614746505e+02 7.5725665865011445e+02 0.0000000000000000e+00  -6.3937823449206883e+02 8.2370276666480027e+02 0.0000000000000000e+00  -2.9756949449558090e+02 2.0911124531705352e+02 0.0000000000000000e+00  8.5478684130485181e+02 -7.5140648614064798e+02 0.0000000000000000e+00  1.3964691564467196e+03 -8.1969840881114101e+02 0.0000000000000000e+00  2.7191443544097996e+02 2.1425437873221146e+01 0.0000000000000000e+00  -3.6910106965182695e+02 1.5879991497822871e+02 0.0000000000000000e+00  -4.6703166839771211e+02 -1.0560554167740780e+02 0.0000000000000000e+00  2.8199963766410963e+02 -7.7995096817888253e+01 0.0000000000000000e+00  1.0000000000000000e-02 0.0000000000000000e+00 0.0000000000000000e+00  -5.5667999563150043e-02 1.6541689398929227e-01 0.0000000000000000e+00  -2.2185187801035242e-01 2.9995778859438665e-01 0.0000000000000000e+00  -4.6132940491628316e-01 4.0319615186636099e-01 0.0000000000000000e+00  -7.5892106773776657e-01 4.8493119969002940e-01 0.0000000000000000e+00  -1.1056228140782456e+00 5.5457185840549028e-01 0.0000000000000000e+00  -1.4965037255415272e+00 6.1867466828465545e-01 0.0000000000000000e+00  -1.9292979609777021e+00 6.8115372936923479e-01 0.0000000000000000e+00  -2.4032249656031643e+00 7.4395726134473972e-01 0.0000000000000000e+00  -2.9180881582300695e+00 8.0762082401602775e-01 0.0000000000000000e+00  -3.4735457221797836e+00 8.7159084286584798e-01 0.0000000000000000e+00  -4.0684792884124361e+00 9.3434318075345846e-01 0.0000000000000000e+00  -4.7003703545877666e+00 9.9333955332916113e-01 0.0000000000000000e+00  -5.3646106204356840e+00 1.0448557480747402e+00 0.0000000000000000e+00  -6.0536887778880937e+00 1.0837149978748359e+00 0.0000000000000000e+00  -6.7562254657955316e+00 1.1029795102504343e+00 0.0000000000000000e+00  -7.4558853109547139e+00 1.0937064369131595e+00 0.0000000000000000e+00  -8.1303063715400405e+00 1.0449787800041155e+00 0.0000000000000000e+00  -8.7503915395002156e+00 9.4459977690543040e-01 0.0000000000000000e+00  -9.2806546874817659e+00 7.8111642598690145e-01 0.0000000000000000e+00  -9.6818647473870936e+00 5.4823033779047181e-01 0.0000000000000000e+00  -9.9180284247070389e+00 2.5314249566120134e-01 0.0000000000000000e+00  -9.9707790583192377e+00 -6.9148411661919360e-02 0.0000000000000000e+00  -9.8653120945185666e+00 -3.3342294887646501e-01 0.0000000000000000e+00  -9.7125912509853354e+00 -3.7236352319859362e-01 0.0000000000000000e+00  -9.7714570557927409e+00 1.03001592240