<?xml version="1.0"?>
<VTKFile type="UnstructuredGrid"  version="0.1"  >
<UnstructuredGrid>
<Piece  NumberOfPoints="2601" NumberOfCells="5000">
<Points>
<DataArray  type="Float64"  NumberOfComponents="3"  format="ascii">0 0 0  0.04 0 0  0.08 0 0  0.12 0 0  0.16 0 0  0.2 0 0  0.24 0 0  0.28 0 0  0.32 0 0  0.36 0 0  0.4 0 0  0.44 0 0  0.48 0 0  0.52 0 0  0.5600000000000001 0 0  0.6 0 0  0.64 0 0  0.68 0 0  0.72 0 0  0.76 0 0  0.8 0 0  0.84 0 0  0.88 0 0  0.92 0 0  0.96 0 0  1 0 0  1.04 0 0  1.08 0 0  1.12 0 0  1.16 0 0  1.2 0 0  1.24 0 0  1.28 0 0  1.32 0 0  1.36 0 0  1.4 0 0  1.44 0 0  1.48 0 0  1.52 0 0  1.56 0 0  1.6 0 0  1.64 0 0  1.68 0 0  1.72 0 0  1.76 0 0  1.8 0 0  1.84 0 0  1.88 0 0  1.92 0 0  1.96 0 0  2 0 0  0 0.02 0  0.04 0.02 0  0.08 0.02 0  0.12 0.02 0  0.16 0.02 0  0.2 0.02 0  0.24 0.02 0  0.28 0.02 0  0.32 0.02 0  0.36 0.02 0  0.4 0.02 0  0.44 0.02 0  0.48 0.02 0  0.52 0.02 0  0.5600000000000001 0.02 0  0.6 0.02 0  0.64 0.02 0  0.68 0.02 0  0.72 0.02 0  0.76 0.02 0  0.8 0.02 0  0.84 0.02 0  0.88 0.02 0  0.92 0.02 0  0.96 0.02 0  1 0.02 0  1.04 0.02 0  1.08 0.02 0  1.12 0.02 0  1.16 0.02 0  1.2 0.02 0  1.24 0.02 0  1.28 0.02 0  1.32 0.02 0  1.36 0.02 0  1.4 0.02 0  1.44 0.02 0  1.48 0.02 0  1.52 0.02 0  1.56 0.02 0  1.6 0.02 0  1.64 0.02 0  1.68 0.02 0  1.72 0.02 0  1.76 0.02 0  1.8 0.02 0  1.84 0.02 0  1.88 0.02 0  1.92 0.02 0  1.96 0.02 0  2 0.02 0  0 0.04 0  0.04 0.04 0  0.08 0.04 0  0.12 0.04 0  0.16 0.04 0  0.2 0.04 0  0.24 0.04 0  0.28 0.04 0  0.32 0.04 0  0.36 0.04 0  0.4 0.04 0  0.44 0.04 0  0.48 0.04 0  0.52 0.04 0  0.5600000000000001 0.04 0  0.6 0.04 0  0.64 0.04 0  0.68 0.04 0  0.72 0.04 0  0.76 0.04 0  0.8 0.04 0  0.84 0.04 0  0.88 0.04 0  0.92 0.04 0  0.96 0.04 0  1 0.04 0  1.04 0.04 0  1.08 0.04 0  1.12 0.04 0  1.16 0.04 0  1.2 0.04 0  1.24 0.04 0  1.28 0.04 0  1.32 0.04 0  1.36 0.04 0  1.4 0.04 0  1.44 0.04 0  1.48 0.04 0  1.52 0.04 0  1.56 0.04 0  1.6 0.04 0  1.64 0.04 0  1.68 0.04 0  1.72 0.04 0  1.76 0.04 0  1.8 0.04 0  1.84 0.04 0  1.88 0.04 0  1.92 0.04 0  1.96 0.04 0  2 0.04 0  0 0.06 0  0.04 0.06 0  0.08 0.06 0  0.12 0.06 0  0.16 0.06 0  0.2 0.06 0  0.24 0.06 0  0.28 0.06 0  0.32 0.06 0  0.36 0.06 0  0.4 0.06 0  0.44 0.06 0  0.48 0.06 0  0.52 0.06 0  0.5600000000000001 0.06 0  0.6 0.06 0  0.64 0.06 0  0.68 0.06 0  0.72 0.06 0  0.76 0.06 0  0.8 0.06 0  0.84 0.06 0  0.88 0.06 0  0.92 0.06 0  0.96 0.06 0  1 0.06 0  1.04 0.06 0  1.08 0.06 0  1.12 0.06 0  1.16 0.06 0  1.2 0.06 0  1.24 0.06 0  1.28 0.06 0  1.32 0.06 0  1.36 0.06 0  1.4 0.06 0  1.44 0.06 0  1.48 0.06 0  1.52 0.06 0  1.56 0.06 0  1.6 0.06 0  1.64 0.06 0  1.68 0.06 0  1.72 0.06 0  1.76 0.06 0  1.8 0.06 0  1.84 0.06 0  1.88 0.06 0  1.92 0.06 0  1.96 0.06 0  2 0.06 0  0 0.08 0  0.04 0.08 0  0.08 0.08 0  0.12 0.08 0  0.16 0.08 0  0.2 0.08 0  0.24 0.08 0  0.28 0.08 0  0.32 0.08 0  0.36 0.08 0  0.4 0.08 0  0.44 0.08 0  0.48 0.08 0  0.52 0.08 0  0.5600000000000001 0.08 0  0.6 0.08 0  0.64 0.08 0  0.68 0.08 0  0.72 0.08 0  0.76 0.08 0  0.8 0.08 0  0.84 0.08 0  0.88 0.08 0  0.92 0.08 0  0.96 0.08 0  1 0.08 0  1.04 0.08 0  1.08 0.08 0  1.12 0.08 0  1.16 0.08 0  1.2 0.08 0  1.24 0.08 0  1.28 0.08 0  1.32 0.08 0  1.36 0.08 0  1.4 0.08 0  1.44 0.08 0  1.48 0.08 0  1.52 0.08 0  1.56 0.08 0  1.6 0.08 0  1.64 0.08 0  1.68 0.08 0  1.72 0.08 0  1.76 0.08 0  1.8 0.08 0  1.84 0.08 0  1.88 0.08 0  1.92 0.08 0  1.96 0.08 0  2 0.08 0  0 0.1 0  0.04 0.1 0  0.08 0.1 0  0.12 0.1 0  0.16 0.1 0  0.2 0.1 0  0.24 0.1 0  0.28 0.1 0  0.32 0.1 0  0.36 0.1 0  0.4 0.1 0  0.44 0.1 0  0.48 0.1 0  0.52 0.1 0  0.5600000000000001 0.1 0  0.6 0.1 0  0.64 0.1 0  0.68 0.1 0  0.72 0.1 0  0.76 0.1 0  0.8 0.1 0  0.84 0.1 0  0.88 0.1 0  0.92 0.1 0  0.96 0.1 0  1 0.1 0  1.04 0.1 0  1.08 0.1 0  1.12 0.1 0  1.16 0.1 0  1.2 0.1 0  1.24 0.1 0  1.28 0.1 0  1.32 0.1 0  1.36 0.1 0  1.4 0.1 0  1.44 0.1 0  1.48 0.1 0  1.52 0.1 0  1.56 0.1 0  1.6 0.1 0  1.64 0.1 0  1.68 0.1 0  1.72 0.1 0  1.76 0.1 0  1.8 0.1 0  1.84 0.1 0  1.88 0.1 0  1.92 0.1 0  1.96 0.1 0  2 0.1 0  0 0.12 0  0.04 0.12 0  0.08 0.12 0  0.12 0.12 0  0.16 0.12 0  0.2 0.12 0  0.24 0.12 0  0.28 0.12 0  0.32 0.12 0  0.36 0.12 0  0.4 0.12 0  0.44 0.12 0  0.48 0.12 0  0.52 0.12 0  0.5600000000000001 0.12 0  0.6 0.12 0  0.64 0.12 0  0.68 0.12 0  0.72 0.12 0  0.76 0.12 0  0.8 0.12 0  0.84 0.12 0  0.88 0.12 0  0.92 0.12 0  0.96 0.12 0  1 0.12 0  1.04 0.12 0  1.08 0.12 0  1.12 0.12 0  1.16 0.12 0  1.2 0.12 0  1.24 0.12 0  1.28 0.12 0  1.32 0.12 0  1.36 0.12 0  1.4 0.12 0  1.44 0.12 0  1.48 0.12 0  1.52 0.12 0  1.56 0.12 0  1.6 0.12 0  1.64 0.12 0  1.68 0.12 0  1.72 0.12 0  1.76 0.12 0  1.8 0.12 0  1.84 0.12 0  1.88 0.12 0  1.92 0.12 0  1.96 0.12 0  2 0.12 0  0 0.14 0  0.04 0.14 0  0.08 0.14 0  0.12 0.14 0  0.16 0.14 0  0.2 0.14 0  0.24 0.14 0  0.28 0.14 0  0.32 0.14 0  0.36 0.14 0  0.4 0.14 0  0.44 0.14 0  0.48 0.14 0  0.52 0.14 0  0.5600000000000001 0.14 0  0.6 0.14 0  0.64 0.14 0  0.68 0.14 0  0.72 0.14 0  0.76 0.14 0  0.8 0.14 0  0.84 0.14 0  0.88 0.14 0  0.92 0.14 0  0.96 0.14 0  1 0.14 0  1.04 0.14 0  1.08 0.14 0  1.12 0.14 0  1.16 0.14 0  1.2 0.14 0  1.24 0.14 0  1.28 0.14 0  1.32 0.14 0  1.36 0.14 0  1.4 0.14 0  1.44 0.14 0  1.48 0.14 0  1.52 0.14 0  1.56 0.14 0  1.6 0.14 0  1.64 0.14 0  1.68 0.14 0  1.72 0.14 0  1.76 0.14 0  1.8 0.14 0  1.84 0.14 0  1.88 0.14 0  1.92 0.14 0  1.96 0.14 0  2 0.14 0  0 0.16 0  0.04 0.16 0  0.08 0.16 0  0.12 0.16 0  0.16 0.16 0  0.2 0.16 0  0.24 0.16 0  0.28 0.16 0  0.32 0.16 0  0.36 0.16 0  0.4 0.16 0  0.44 0.16 0  0.48 0.16 0  0.52 0.16 0  0.5600000000000001 0.16 0  0.6 0.16 0  0.64 0.16 0  0.68 0.16 0  0.72 0.16 0  0.76 0.16 0  0.8 0.16 0  0.84 0.16 0  0.88 0.16 0  0.92 0.16 0  0.96 0.16 0  1 0.16 0  1.04 0.16 0  1.08 0.16 0  1.12 0.16 0  1.16 0.16 0  1.2 0.16 0  1.24 0.16 0  1.28 0.16 0  1.32 0.16 0  1.36 0.16 0  1.4 0.16 0  1.44 0.16 0  1.48 0.16 0  1.52 0.16 0  1.56 0.16 0  1.6 0.16 0  1.64 0.16 0  1.68 0.16 0  1.72 0.16 0  1.76 0.16 0  1.8 0.16 0  1.84 0.16 0  1.88 0.16 0  1.92 0.16 0  1.96 0.16 0  2 0.16 0  0 0.18 0  0.04 0.18 0  0.08 0.18 0  0.12 0.18 0  0.16 0.18 0  0.2 0.18 0  0.24 0.18 0  0.28 0.18 0  0.32 0.18 0  0.36 0.18 0  0.4 0.18 0  0.44 0.18 0  0.48 0.18 0  0.52 0.18 0  0.5600000000000001 0.18 0  0.6 0.18 0  0.64 0.18 0  0.68 0.18 0  0.72 0.18 0  0.76 0.18 0  0.8 0.18 0  0.84 0.18 0  0.88 0.18 0  0.92 0.18 0  0.96 0.18 0  1 0.18 0  1.04 0.18 0  1.08 0.18 0  1.12 0.18 0  1.16 0.18 0  1.2 0.18 0  1.24 0.18 0  1.28 0.18 0  1.32 0.18 0  1.36 0.18 0  1.4 0.18 0  1.44 0.18 0  1.48 0.18 0  1.52 0.18 0  1.56 0.18 0  1.6 0.18 0  1.64 0.18 0  1.68 0.18 0  1.72 0.18 0  1.76 0.18 0  1.8 0.18 0  1.84 0.18 0  1.88 0.18 0  1.92 0.18 0  1.96 0.18 0  2 0.18 0  0 0.2 0  0.04 0.2 0  0.08 0.2 0  0.12 0.2 0  0.16 0.2 0  0.2 0.2 0  0.24 0.2 0  0.28 0.2 0  0.32 0.2 0  0.36 0.2 0  0.4 0.2 0  0.44 0.2 0  0.48 0.2 0  0.52 0.2 0  0.5600000000000001 0.2 0  0.6 0.2 0  0.64 0.2 0  0.68 0.2 0  0.72 0.2 0  0.76 0.2 0  0.8 0.2 0  0.84 0.2 0  0.88 0.2 0  0.92 0.2 0  0.96 0.2 0  1 0.2 0  1.04 0.2 0  1.08 0.2 0  1.12 0.2 0  1.16 0.2 0  1.2 0.2 0  1.24 0.2 0  1.28 0.2 0  1.32 0.2 0  1.36 0.2 0  1.4 0.2 0  1.44 0.2 0  1.48 0.2 0  1.52 0.2 0  1.56 0.2 0  1.6 0.2 0  1.64 0.2 0  1.68 0.2 0  1.72 0.2 0  1.76 0.2 0  1.8 0.2 0  1.84 0.2 0  1.88 0.2 0  1.92 0.2 0  1.96 0.2 0  2 0.2 0  0 0.22 0  0.04 0.22 0  0.08 0.22 0  0.12 0.22 0  0.16 0.22 0  0.2 0.22 0  0.24 0.22 0  0.28 0.22 0  0.32 0.22 0  0.36 0.22 0  0.4 0.22 0  0.44 0.22 0  0.48 0.22 0  0.52 0.22 0  0.5600000000000001 0.22 0  0.6 0.22 0  0.64 0.22 0  0.68 0.22 0  0.72 0.22 0  0.76 0.22 0  0.8 0.22 0  0.84 0.22 0  0.88 0.22 0  0.92 0.22 0  0.96 0.22 0  1 0.22 0  1.04 0.22 0  1.08 0.22 0  1.12 0.22 0  1.16 0.22 0  1.2 0.22 0  1.24 0.22 0  1.28 0.22 0  1.32 0.22 0  1.36 0.22 0  1.4 0.22 0  1.44 0.22 0  1.48 0.22 0  1.52 0.22 0  1.56 0.22 0  1.6 0.22 0  1.64 0.22 0  1.68 0.22 0  1.72 0.22 0  1.76 0.22 0  1.8 0.22 0  1.84 0.22 0  1.88 0.22 0  1.92 0.22 0  1.96 0.22 0  2 0.22 0  0 0.24 0  0.04 0.24 0  0.08 0.24 0  0.12 0.24 0  0.16 0.24 0  0.2 0.24 0  0.24 0.24 0  0.28 0.24 0  0.32 0.24 0  0.36 0.24 0  0.4 0.24 0  0.44 0.24 0  0.48 0.24 0  0.52 0.24 0  0.5600000000000001 0.24 0  0.6 0.24 0  0.64 0.24 0  0.68 0.24 0  0.72 0.24 0  0.76 0.24 0  0.8 0.24 0  0.84 0.24 0  0.88 0.24 0  0.92 0.24 0  0.96 0.24 0  1 0.24 0  1.04 0.24 0  1.08 0.24 0  1.12 0.24 0  1.16 0.24 0  1.2 0.24 0  1.24 0.24 0  1.28 0.24 0  1.32 0.24 0  1.36 0.24 0  1.4 0.24 0  1.44 0.24 0  1.48 0.24 0  1.52 0.24 0  1.56 0.24 0  1.6 0.24 0  1.64 0.24 0  1.68 0.24 0  1.72 0.24 0  1.76 0.24 0  1.8 0.24 0  1.84 0.24 0  1.88 0.24 0  1.92 0.24 0  1.96 0.24 0  2 0.24 0  0 0.26 0  0.04 0.26 0  0.08 0.26 0  0.12 0.26 0  0.16 0.26 0  0.2 0.26 0  0.24 0.26 0  0.28 0.26 0  0.32 0.26 0  0.36 0.26 0  0.4 0.26 0  0.44 0.26 0  0.48 0.26 0  0.52 0.26 0  0.5600000000000001 0.26 0  0.6 0.26 0  0.64 0.26 0  0.68 0.26 0  0.72 0.26 0  0.76 0.26 0  0.8 0.26 0  0.84 0.26 0  0.88 0.26 0  0.92 0.26 0  0.96 0.26 0  1 0.26 0  1.04 0.26 0  1.08 0.26 0  1.12 0.26 0  1.16 0.26 0  1.2 0.26 0  1.24 0.26 0  1.28 0.26 0  1.32 0.26 0  1.36 0.26 0  1.4 0.26 0  1.44 0.26 0  1.48 0.26 0  1.52 0.26 0  1.56 0.26 0  1.6 0.26 0  1.64 0.26 0  1.68 0.26 0  1.72 0.26 0  1.76 0.26 0  1.8 0.26 0  1.84 0.26 0  1.88 0.26 0  1.92 0.26 0  1.96 0.26 0  2 0.26 0  0 0.28 0  0.04 0.28 0  0.08 0.28 0  0.12 0.28 0  0.16 0.28 0  0.2 0.28 0  0.24 0.28 0  0.28 0.28 0  0.32 0.28 0  0.36 0.28 0  0.4 0.28 0  0.44 0.28 0  0.48 0.28 0  0.52 0.28 0  0.5600000000000001 0.28 0  0.6 0.28 0  0.64 0.28 0  0.68 0.28 0  0.72 0.28 0  0.76 0.28 0  0.8 0.28 0  0.84 0.28 0  0.88 0.28 0  0.92 0.28 0  0.96 0.28 0  1 0.28 0  1.04 0.28 0  1.08 0.28 0  1.12 0.28 0  1.16 0.28 0  1.2 0.28 0  1.24 0.28 0  1.28 0.28 0  1.32 0.28 0  1.36 0.28 0  1.4 0.28 0  1.44 0.28 0  1.48 0.28 0  1.52 0.28 0  1.56 0.28 0  1.6 0.28 0  1.64 0.28 0  1.68 0.28 0  1.72 0.28 0  1.76 0.28 0  1.8 0.28 0  1.84 0.28 0  1.88 0.28 0  1.92 0.28 0  1.96 0.28 0  2 0.28 0  0 0.3 0  0.04 0.3 0  0.08 0.3 0  0.12 0.3 0  0.16 0.3 0  0.2 0.3 0  0.24 0.3 0  0.28 0.3 0  0.32 0.3 0  0.36 0.3 0  0.4 0.3 0  0.44 0.3
[...]
<PointData  Vectors="f_26-0"> 
<DataArray  type="Float64"  Name="f_26-0"  NumberOfComponents="3" format="ascii">0.0000000000000000e+00 0.0000000000000000e+00 0.0000000000000000e+00  0.0000000000000000e+00 0.0000000000000000e+00 0.0000000000000000e+00  0.0000000000000000e+00 0.0000000000000000e+00 0.0000000000000000e+00  0.0000000000000000e+00 0.0000000000000000e+00 0.0000000000000000e+00  0.0000000000000000e+00 0.0000000000000000e+00 0.0000000000000000e+00  0.0000000000000000e+00 0.0000000000000000e+00 0.0000000000000000e+00  0.0000000000000000e+00 0.0000000000000000e+00 0.0000000000000000e+00  0.0000000000000000e+00 0.0000000000000000e+00 0.0000000000000000e+00  0.0000000000000000e+00 0.0000000000000000e+00 0.0000000000000000e+00  0.0000000000000000e+00 0.0000000000000000e+00 0.0000000000000000e+00  0.0000000000000000e+00 0.0000000000000000e+00 0.0000000000000000e+00  0.0000000000000000e+00 0.0000000000000000e+00 0.0000000000000000e+00  0.0000000000000000e+00 0.0000000000000000e+00 0.0000000000000000e+00  0.0000000000000000e+00 0.0000000000000000e+00 0.0000000000000000e+00  0.0000000000000000e+00 0.0000000000000000e+00 0.0000000000000000e+00  0.0000000000000000e+00 0.0000000000000000e+00 0.0000000000000000e+00  0.0000000000000000e+00 0.0000000000000000e+00 0.0000000000000000e+00  0.0000000000000000e+00 0.0000000000000000e+00 0.0000000000000000e+00  0.0000000000000000e+00 0.0000000000000000e+00 0.0000000000000000e+00  0.0000000000000000e+00 0.0000000000000000e+00 0.0000000000000000e+00  0.0000000000000000e+00 0.0000000000000000e+00 0.0000000000000000e+00  0.0000000000000000e+00 0.0000000000000000e+00 0.0000000000000000e+00  0.0000000000000000e+00 0.0000000000000000e+00 0.0000000000000000e+00  0.0000000000000000e+00 0.0000000000000000e+00 0.0000000000000000e+00  0.0000000000000000e+00 0.0000000000000000e+00 0.0000000000000000e+00  0.0000000000000000e+00 0.0000000000000000e+00 0.0000000000000000e+00  0.0000000000000000e+00 0.0000000000000000e+00 0.0000000000000000e+00  0.0000000000000000e+00 0.0000000000000000e+00 0.0000000000000000e+00  0.0000000000000000e+00 0.0000000000000000e+00 0.0000000000000000e+00  0.0000000000000000e+00 0.0000000000000000e+00 0.0000000000000000e+00  0.0000000000000000e+00 0.0000000000000000e+00 0.0000000000000000e+00  0.0000000000000000e+00 0.0000000000000000e+00 0.0000000000000000e+00  0.0000000000000000e+00 0.0000000000000000e+00 0.0000000000000000e+00  0.0000000000000000e+00 0.0000000000000000e+00 0.0000000000000000e+00  0.0000000000000000e+00 0.0000000000000000e+00 0.0000000000000000e+00  0.0000000000000000e+00 0.0000000000000000e+00 0.0000000000000000e+00  0.0000000000000000e+00 0.0000000000000000e+00 0.0000000000000000e+00  0.0000000000000000e+00 0.0000000000000000e+00 0.0000000000000000e+00  0.0000000000000000e+00 0.0000000000000000e+00 0.0000000000000000e+00  0.0000000000000000e+00 0.0000000000000000e+00 0.0000000000000000e+00  0.0000000000000000e+00 0.0000000000000000e+00 0.0000000000000000e+00  0.0000000000000000e+00 0.0000000000000000e+00 0.0000000000000000e+00  0.0000000000000000e+00 0.0000000000000000e+00 0.0000000000000000e+00  0.0000000000000000e+00 0.0000000000000000e+00 0.0000000000000000e+00  0.0000000000000000e+00 0.0000000000000000e+00 0.0000000000000000e+00  0.0000000000000000e+00 0.0000000000000000e+00 0.0000000000000000e+00  0.0000000000000000e+00 0.0000000000000000e+00 0.0000000000000000e+00  0.0000000000000000e+00 0.0000000000000000e+00 0.0000000000000000e+00  0.0000000000000000e+00 0.0000000000000000e+00 0.0000000000000000e+00  0.0000000000000000e+00 0.0000000000000000e+00 0.0000000000000000e+00  0.0000000000000000e+00 0.0000000000000000e+00 0.0000000000000000e+00  1.0000000000000000e-02 0.0000000000000000e+00 0.0000000000000000e+00  1.5237637706781582e-01 -6.3545072893668827e-02 0.0000000000000000e+00  3.9271290717970403e-01 -4.8834409583716702e-02 0.0000000000000000e+00  3.9593558144149626e-01 4.2243339444806842e-02 0.0000000000000000e+00  4.2907897010473449e-02 1.2283167507782954e-01 0.0000000000000000e+00  -4.7111356880341682e-01 1.2397541520583583e-01 0.0000000000000000e+00  -8.5257806678734749e-01 8.6131454467245086e-02 0.0000000000000000e+00  -1.1573942454930550e+00 6.5435544363624198e-02 0.0000000000000000e+00  -1.2497308640265228e+00 -3.4911364681922226e-03 0.0000000000000000e+00  -1.2383061296040134e+00 -2.8333744221050276e-02 0.0000000000000000e+00  -1.2731146890651459e+00 1.6521595670698142e-01 0.0000000000000000e+00  -2.9526901786495658e+00 9.7679156758501462e-01 0.0000000000000000e+00  -8.0345733852812344e+00 2.3922862439467663e+00 0.0000000000000000e+00  -2.1913783111112060e+01 2.2808084189185798e+00 0.0000000000000000e+00  -2.5153449382377108e+01 -3.4976664237530222e+00 0.0000000000000000e+00  -8.5656164441332070e+00 -5.1493014399939172e+00 0.0000000000000000e+00  7.3989530757448563e+00 -3.6323537906734593e+00 0.0000000000000000e+00  1.8310839667553235e+01 -3.3747629753611661e+00 0.0000000000000000e+00  1.9347616346003196e+01 2.1498915845486093e+00 0.0000000000000000e+00  6.0230980899332840e+00 3.2858638089174419e+00 0.0000000000000000e+00  -1.6817744403604559e-01 2.1830657352402724e-01 0.0000000000000000e+00  -1.4266090204272167e-01 7.0477294677107805e-01 0.0000000000000000e+00  -6.8627343273155708e+00 2.5847159266571222e+00 0.0000000000000000e+00  -1.1985537616286690e+01 -7.4744943429399613e-01 0.0000000000000000e+00  -6.4378928482626785e+00 4.6501095148282259e+00 0.0000000000000000e+00  -2.7678302626352146e+01 -1.3855581808441917e+01 0.0000000000000000e+00  4.8784148599795010e+01 9.7493845041867004e+00 0.0000000000000000e+00  1.7542457750287380e+01 6.6522890340528189e+00 0.0000000000000000e+00  1.1745883894438203e+01 4.6316461649738123e+00 0.0000000000000000e+00  -2.4105648194874281e+00 5.5243374278896322e+00 0.0000000000000000e+00  3.1836938760930606e+00 -4.3560351294178119e+00 0.0000000000000000e+00  3.7575443946271427e+00 2.6191146754791855e-01 0.0000000000000000e+00  4.6591610685205903e-01 2.2415868861392014e+00 0.0000000000000000e+00  -4.5054328355163470e+01 2.0399230688733880e+01 0.0000000000000000e+00  -9.1128287636330597e+01 3.1471267733808794e+00 0.0000000000000000e+00  -1.2048005118303021e+02 2.5218293989093059e+01 0.0000000000000000e+00  -4.5836261920916954e+01 -3.0837752721255875e+01 0.0000000000000000e+00  -3.9885780324331542e+01 6.9716138338642297e+00 0.0000000000000000e+00  4.0436692802347576e+00 -7.2064829742724839e+01 0.0000000000000000e+00  3.6859005946363780e+01 -1.5366973219482237e+01 0.0000000000000000e+00  5.1849333428451075e+01 7.6416328624595039e+01 0.0000000000000000e+00  -8.4882821029961988e+01 -1.3703077887356066e+01 0.0000000000000000e+00  -9.1888418704129947e+01 -5.3027598041759627e-01 0.0000000000000000e+00  -5.0348358579725861e+01 7.0353996599992366e+00 0.0000000000000000e+00  -2.3908469751728092e+01 -4.3223667132889183e+00 0.0000000000000000e+00  2.6488655439315285e+00 -1.1805179593219821e+00 0.0000000000000000e+00  -3.6890300971911918e+00 3.3111454609109079e+00 0.0000000000000000e+00  -1.6253243350133495e+01 9.7214801717871169e-01 0.0000000000000000e+00  -1.5780480471134567e+01 3.9400478362748044e+00 0.0000000000000000e+00  -2.9957615274828502e+01 -1.5727735211247987e+01 0.0000000000000000e+00  5.7513030838956967e+00 1.7494416433863439e+01 0.0000000000000000e+00  1.0000000000000000e-02 0.0000000000000000e+00 0.0000000000000000e+00  2.6401663392084956e-01 -2.3222950137289580e-01 0.0000000000000000e+00  6.2419782925275225e-01 -1.4845269998627175e-01 0.0000000000000000e+00  5.4847007416657412e-01 1.8901245129814626e-01 0.0000000000000000e+00  -1.3373498171818732e-01 4.6839952551199820e-01 0.0000000000000000e+00  -1.0718087516288224e+00 4.7050567481124594e-01 0.0000000000000000e+00  -1.8038934331194645e+00 3.1456329834574143e-01 0.0000000000000000e+00  -2.3689719049563194e+00 2.2384600722833850e-01 0.0000000000000000e+00  -2.6191264138161645e+00 9.3289903937421384e-02 0.0000000000000000e+00  -3.0538937059005105e+00 -1.0013960346227110e-02 0.0000000000000000e+00  -3.2089832375208327e+00 2.7680920820452010e-01 0.0000000000000000e+00  -3.1147835808683166e+00 1.9508612586841612e+00 0.0000000000000000e+00  -7.3573264839408941e+00 8.1998317286395572e+00 0.0000000000000000e+00  -3.0446344314143911e+01 1.2209381449406747e+01 0.0000000000000000e+00  -3.5586190031463147e+01 -4.9475144029238791e+00 0.0000000000000000e+00  -2.0467252518358258e+01 -1.7165743375910672e+01 0.0000000000000000e+00  1.6472839078854906e+00 -1.4194990950645209e+01 0.0000000000000000e+00  1.8994093262265654e+01 -5.6907123233643127e+00 0.0000000000000000e+00  2.4247909016430413e+01 8.1960123745201958e+00 0.0000000000000000e+00  1.4534223255778768e+01 7.7445047585574995e+00 0.0000000000000000e+00  -1.3866801314102439e-01 2.5722226327542046e+00 0.0000000000000000e+00  -1.5285949838008601e+00 2.3172290662723989e+00 0.0000000000000000e+00  -1.1198131514188091e+01 3.9162409070847519e+00 0.0000000000000000e+00  -1.1371232758201520e+01 2.8056397454002653e+00 0.0000000000000000e+00  -1.0150957277466025e+01 -3.4119785104013728e-01 0.0000000000000000e+00  -2.7658404582734100e+01 -1.9838222818726873e+01 0.0000000000000000e+00  4.6950023857400964e+01 -2.2772224447875637e+00 0.0000000000000000e+00  1.0920986675441098e+01 1.6936375918321058e+01 0.0000000000000000e+00  3.0828194701512398e+01 4.0040332329290379e+01 0.0000000000000000e+00  2.6295296610410004e+00 -4.7482900820001461e+00 0.0000000000000000e+00  2.0131546619853882e+01 7.2516698897337770e+00 0.0000000000000000e+00  1.7754013281822850e+01 -8.7535176306499007e-01 0.0000000000000000e+00  6.3903450888411779e+00 1.8847138044694336e+01 0.0000000000000000e+00  -8.6200539699897789e+01 5.8376281837174524e+01 0.0000000000000000e+00  -1.2171495607876733e+02 3.3587954922226238e+01 0.0000000000000000e+00  -1.1729836190282477e+02 -3.8758427245371173e+01 0.0000000000000000e+00  -1.3423835930025601e+02 -5.2935058481346857e+01 0.0000000000000000e+00  -4.3173677685890063e+01 6.1070426360528529e+00 0.0000000000000000e+00  1.3726176180847624e+01 -3.8905578385059471e+01 0.0000000000000000e+00  -2.1808037736808382e+02 2.9405152397350133e+01 0.0000000000000000e+00  4.3038558992132991e+01 6.4275401436203182e+01 0.0000000000000000e+00  -9.0946768120397749e+01 1.0926623238605401e+02 0.0000000000000000e+00  -1.0156070997217077e+02 -8.3716155234455144e+01 0.0000000000000000e+00  -6.4040756001367328e+01 -6.2068070738212462e+01 0.0000000000000000e+00  -1.9243240574530340e+01 -2.0137521612383807e+01 0.0000000000000000e+00  2.9397136062435338e+00 -4.9488079484354497e+00 0.0000000000000000e+00  -4.5241494330689589e+00 1.2275746074714855e+01 0.0000000000000000e+00  -2.2559183407853126e+01 8.4674784400552578e+00 0.0000000000000000e+00  -2.3449752271670032e+01 6.0638014059610903e+00 0.0000000000000000e+00  -5.5124910316427219e+01 -2.0934834168337246e-01 0.0000000000000000e+00  1.2745571930370810e+01 2.4762419218989780e+01 0.0000000000000000e+00  1.0000000000000000e-02 0.0000000000000000e+00 0.0000000000000000e+00  3.4676874435755728e-01 -4.6933350892570913e-01 0.0000000000000000e+00  7.8732279897086821e-01 -2.5760355736353630e-01 0.0000000000000000e+00  5.9371597495101935e-01 4.4908769654274816e-01 0.0000000000000000e+00  -4.3739275244650583e-01 1.0219766344038563e+00 0.0000000000000000e+00  -1.8029432097464051e+00 1.0214464689958798e+00 0.0000000000000000e+00  -2.9071863814364520e+00 6.8220141662316913e-01 0.0000000000000000e+00  -3.6755150211163841e+00 5.1035770297511529e-01 0.0000000000000000e+00  -4.2920717718447969e+00 3.7817577094709581e-01 0.0000000000000000e+00  -5.3655723158358004e+00 1.1288441359026014e-01 0.0000000000000000e+00  -4.3259741897939579e+00 -1.5643525333967112e-01 0.0000000000000000e+00  -2.2392273950904004e-01 1.2803278697927110e+00 0.0000000000000000e+00  -7.8619198179967609e-01 1.4231165650027148e+01 0.0000000000000000e+00  -2.4675884550455635e+01 2.3883823498208933e+01 0.0000000000000000e+00  -1.8894576161701217e+01 -8.4896550333125198e+00 0.0000000000000000e+00  -1.1354197078703226e+01 -2.4806972130040272e+01 0.0000000000000000e+00  7.9964509858856636e-01 -1.9505851122321406e+01 0.0000000000000000e+00  1.0131606018575942e+01 -1.1808171008281843e+01 0.0000000000000000e+00  1.5900622503074411e+01 8.7307705741760397e+00 0.0000000000000000e+00  1.5804404934409279e+01 1.5599137872937900e+01 0.0000000000000000e+00  4.1001661146304830e-01 6.8748245171418167e+00 0.0000000000000000e+00  -2.6212594608242625e+00 3.3282233216589985e+00 0.0000000000000000e+00  -1.3786093196734395e+01 9.6440449405707422e+00 0.0000000000000000e+00  -7.8970147592324702e+00 4.9245375504075382e+00 0.0000000000000000e+00  -1.8005965309447053e+01 -1.4260850734870369e+01 0.0000000000000000e+00  3.0399323858962735e+01 -1.0971405241794761e+01 0.0000000000000000e+00  2.9966917570395104e+00 -3.6496007153551602e+01 0.0000000000000000e+00  -7.6056707794612990e+00 1.7490209437195382e+01 0.0000000000000000e+00  6.0017229419540740e+01 -1.5501188012380769e+01 0.0000000000000000e+00  4.5182014485729965e+01 7.2468904711439412e+00 0.0000000000000000e+00  5.0157557805042821e+01 -1.4731456957042456e+01 0.0000000000000000e+00  1.4658963787227616e+01 1.1113880908568806e+01 0.0000000000000000e+00  4.2730783099792236e+00 5.1695566113527860e+01 0.0000000000000000e+00  -1.1691177917021678e+02 9.5734349449062236e+01 0.0000000000000000e+00  -9.0010178324582952e+01 4.8391546346065553e+01 0.0000000000000000e+00  -1.9456471942897039e+02 -1.1557066746134808e+01 0.0000000000000000e+00  -1.1530918976965032e+02 -4.8106664652257230e+01 0.0000000000000000e+00  -7.6004320213326722e+01 5.0571361069615378e+01 0.0000000000000000e+00  1.0543276112869442e+01 4.2939045707294063e+01 0.0000000000000000e+00  -3.2861425579744662e+02 -1.7891719659527229e+02 0.0000000000000000e+00  -9.0185035800417850e+01 1.3610556474230660e+02 0.0000000000000000e+00  -9.1199574806084005e+00 7.9358978726931838e+01 0.0000000000000000e+00  -3.1745940497487698e+01 -5.2390548992195143e+01 0.0000000000000000e+00  -5.1104455730324126e+01 -2.1316611888860887e+01 0.0000000000000000e+00  -1.7152835763904921e+00 -3.7009861444891953e+01 0.0000000000000000e+00  -4.0891753544913207e+00 -1.0860076499391139e+01 0.0000000000000000e+00  -2.5076704383909201e+00 2.3977092890235962e+01 0.0000000000000000e+00  -1.8707849822985981e+01 9.3717099332338165e+00 0.0000000000000000e+00  -3.3861798442514669e+01 3.4051143130559227e+00 0.0000000000000000e+00  -4.7404176736306113e+01 -1.3199013040462679e+01 0.0000000000000000e+00  -5.6883060299063040e+00 8.6595351509486136e+00 0.0000000000000000e+00  1.0000000000000000e-02 0.0000000000000000e+00 0.0000000000000000e+00  4.1776910238371617e-01 -7.6315446242573792e-01 0.0000000000000000e+00  9.2331401857442441e-01 -3.6175455146543595e-01 0.0000000000000000e+00  5.7568343354367291e-01 8.4021147222741843e-01 0.0000000000000000e+00  -8.5120430863243368e-01 1.7991573844206334e+00 0.0000000000000000e+00  -2.6902995671229486e+00 1.7865123905138027e+00 0.0000000000000000e+00  -4.1620957867059225e+00 1.1834410567087923e+00 0.0000000000000000e+00  -5.0404836542455165e+00 9.2131253924400680e-01 0.0000000000000000e+00  -6.1413997536815685e+00 8.6547960917519728e-01 0.0000000000000000e+00  -7.3542506019665597e+00 3.2930009858031589e-01 0.0000000000000000e+00  -4.2787639490408296e+00 -1.8262580094865837e+00 0.0000000000000000e+00  3.3799463189568035e+00 -3.6731027766836712e+00 0.0000000000000000e+00  1.1677561807437522e+01 1.8956603495525219e+01 0.0000000000000000e+00  5.7932986185818987e+00 2.8408053904483772e+01 0.0000000000000000e+00  2.2716080763699470e+01 -1.8871577132497272e+01 0.0000000000000000e+00  2.5168976186966372e+01 -2.7579125810307687e+01 0.0000000000000000e+00  1.8861096822578258e+01 -2.2156049567886360e+01 0.0000000000000000e+00  1.0632313985210597e+01 -1.2586672291300152e+01 0.0000000000000000e+00  1.2285781278263446e+01 6.3148076089108152e-01 0.0000000000000000e+00  1.0641614581806939e+01 2.2970145421802588e+01 0.0000000000000000e+00  4.3176779568295398e+00 1.1173424642026825e+01 0.0000000000000000e+00  -3.3897989023622634e+00 6.5812819017205051e+00 0.0000000000000000e+00  -1.5670504713993044e+01 1.3956714725681596e+01 0.0000000000000000e+00  -5.4250542409073059e+00 -3.9505255832661906e-01 0.0000000000000000e+00  -9.2336975121162759e+00 -1.4627704998705577e+01 0.0000000000000000e+00  4.0973559177995803e+01 -3.2414477662165567e+01 0.0000000000000000e+00  3.2060981539032298e+01 -1.7343589018505881e+01 0.0000000000000000e+00  5.4299628872750807e+00 5.8708558900907439e+00 0.0000000000000000e+00  2.2709476684734504e+01 3.6229165859201579e+01 0.0000000000000000e+00  3.8684640781263163e+01 -1.7914034307460540e+01 0.0000000000000000e+00  1.0564891057356760e+01 1.0659412159603708e+01 0.0000000000000000e+00  2.0234507412932420e+01 1.4296826216104645e+01 0.0000000000000000e+00  6.7285401595915628e+00 5.4638551220055405e+01 0.0000000000000000e+00  -7.3264446099148444e+01 1.3064034570347329e+02 0.0000000000000000e+00  -5.0247483087227970e+01 7.4294163799977909e+01 0.0000000000000000e+00  -1.3497121398149116e+02 -5.8265459602110205e+01 0.0000000000000000e+00  -1.6762552233383471e+02 -3.2673274453255807e+01 0.0000000000000000e+00  -6.4249357256287524e+01 -1.1844830658979420e+02 0.0000000000000000e+00  5.0965820035952518e+01 9.1086085798714777e+01 0.0000000000000000e+00  -1.7597438821546724e+01 -2.1194121038357076e+02 0.0000000000000000e+00  1.7737264011033403e+01 1.0832176648321139e+02 0.0000000000000000e+00  -1.2910932322543585e+01 2.7301140197118379e+01 0.0000000000000000e+00  -1.8261425369687643e+01 -3.4969504201973550e+01 0.0000000000000000e+00  -1.4014043697365594e+01 -3.8404480638971080e+01 0.0000000000000000e+00  -8.4187121263987805e+00 -4.0972853875670701e+01 0.0000000000000000e+00  -4.4442436383912121e+00 -4.1024585838395984e+00 0.0000000000000000e+00  -1.1111880100913643e+01 1.5567538370841081e+01 0.0000000000000000e+00  -4.7375040464670404e+00 3.9419211935392269e+01 0.0000000000000000e+00  -3.4785308273002016e+01 2.0791265644028076e+01 0.0000000000000000e+00  -3.2075761147146366e+01 -1.1369139976855879e+01 0.0000000000000000e+00  1.9098007003469494e+01 1.5367832055104994e+01 0.0000000000000000e+00  1.0000000000000000e-02 0.0000000000000000e+00 0.0000000000000000e+00  4.7688381143724901e-01 -1.1074917518102714e+00 0.0000000000000000e+00  1.0201713474590983e+00 -4.4573644537350965e-01 0.0000000000000000e+00  4.5472615623284290e-01 1.3911998534896577e+00 0.0000000000000000e+00  -1.4366771646141554e+00 2.8293409837751602e+00 0.0000000000000000e+00  -3.8066656019675822e+00 2.7789253084189562e+00 0.0000000000000000e+00  -5.5864335403265040e+00 1.7868272201887592e+00 0.0000000000000000e+00  -6.4814350515737154e+00 1.4003572130122177e+00 0.0000000000000000e+00  -7.8720056693395764e+00 1.4638335343283824e+00 0.0000000000000000e+00  -8.3550780562749871e+00 4.6078251937490350e-01 0.0000000000000000e+00  -4.9781727638693152e+00 -5.2819070972759574e+00 0.0000000000000000e+00  4.4516359780579924e+00 -1.1531933286145881e+01 0.0000000000000000e+00  2.3112009801250672e+01 1.9139609094663605e+01 0.0000000000000000e+00  4.0465500892248969e+01 1.2700807738090793e+01 0.0000000000000000e+00  6.9329800854783556e+01 -3.3921267913011043e+01 0.0000000000000000e+00  6.2356107829047268e+01 -2.4728406466462616e+01 0.0000000000000000e+00  4.2675840257064685e+01 -1.4198273912435351e+01 0.0000000000000000e+00  2.5133980826482624e+01 -7.5990294256107900e+00 0.0000000000000000e+00  1.7850921711857115e+01 -1.1628676841478013e-01 0.0000000000000000e+00  4.8698850595169718e+00 2.4709325661637450e+01 0.0000000000000000e+00  1.0302046855442370e+01 1.4796263001579216e+01 0.0000000000000000e+00  -5.4008221426835856e+00 1.1280688964401136e+01 0.0000000000000000e+00  -1.4745983588815593e+01 1.6298856453873022e+01 0.0000000000000000e+00  -1.2064236605045100e+00 -1.0850374032724382e+01 0.0000000000000000e+00  9.0370714544540114e+00 -1.9320452515452910e+01 0.0000000000000000e+00  3.3038158771021386e+01 -6.0351656861314609e+01 0.00000000000000