<?xml version="1.0"?>
<VTKFile type="UnstructuredGrid"  version="0.1"  >
<UnstructuredGrid>
<Piece  NumberOfPoints="2601" NumberOfCells="5000">
<Points>
<DataArray  type="Float64"  NumberOfComponents="3"  format="ascii">0 0 0  0.04 0 0  0.08 0 0  0.12 0 0  0.16 0 0  0.2 0 0  0.24 0 0  0.28 0 0  0.32 0 0  0.36 0 0  0.4 0 0  0.44 0 0  0.48 0 0  0.52 0 0  0.5600000000000001 0 0  0.6 0 0  0.64 0 0  0.68 0 0  0.72 0 0  0.76 0 0  0.8 0 0  0.84 0 0  0.88 0 0  0.92 0 0  0.96 0 0  1 0 0  1.04 0 0  1.08 0 0  1.12 0 0  1.16 0 0  1.2 0 0  1.24 0 0  1.28 0 0  1.32 0 0  1.36 0 0  1.4 0 0  1.44 0 0  1.48 0 0  1.52 0 0  1.56 0 0  1.6 0 0  1.64 0 0  1.68 0 0  1.72 0 0  1.76 0 0  1.8 0 0  1.84 0 0  1.88 0 0  1.92 0 0  1.96 0 0  2 0 0  0 0.02 0  0.04 0.02 0  0.08 0.02 0  0.12 0.02 0  0.16 0.02 0  0.2 0.02 0  0.24 0.02 0  0.28 0.02 0  0.32 0.02 0  0.36 0.02 0  0.4 0.02 0  0.44 0.02 0  0.48 0.02 0  0.52 0.02 0  0.5600000000000001 0.02 0  0.6 0.02 0  0.64 0.02 0  0.68 0.02 0  0.72 0.02 0  0.76 0.02 0  0.8 0.02 0  0.84 0.02 0  0.88 0.02 0  0.92 0.02 0  0.96 0.02 0  1 0.02 0  1.04 0.02 0  1.08 0.02 0  1.12 0.02 0  1.16 0.02 0  1.2 0.02 0  1.24 0.02 0  1.28 0.02 0  1.32 0.02 0  1.36 0.02 0  1.4 0.02 0  1.44 0.02 0  1.48 0.02 0  1.52 0.02 0  1.56 0.02 0  1.6 0.02 0  1.64 0.02 0  1.68 0.02 0  1.72 0.02 0  1.76 0.02 0  1.8 0.02 0  1.84 0.02 0  1.88 0.02 0  1.92 0.02 0  1.96 0.02 0  2 0.02 0  0 0.04 0  0.04 0.04 0  0.08 0.04 0  0.12 0.04 0  0.16 0.04 0  0.2 0.04 0  0.24 0.04 0  0.28 0.04 0  0.32 0.04 0  0.36 0.04 0  0.4 0.04 0  0.44 0.04 0  0.48 0.04 0  0.52 0.04 0  0.5600000000000001 0.04 0  0.6 0.04 0  0.64 0.04 0  0.68 0.04 0  0.72 0.04 0  0.76 0.04 0  0.8 0.04 0  0.84 0.04 0  0.88 0.04 0  0.92 0.04 0  0.96 0.04 0  1 0.04 0  1.04 0.04 0  1.08 0.04 0  1.12 0.04 0  1.16 0.04 0  1.2 0.04 0  1.24 0.04 0  1.28 0.04 0  1.32 0.04 0  1.36 0.04 0  1.4 0.04 0  1.44 0.04 0  1.48 0.04 0  1.52 0.04 0  1.56 0.04 0  1.6 0.04 0  1.64 0.04 0  1.68 0.04 0  1.72 0.04 0  1.76 0.04 0  1.8 0.04 0  1.84 0.04 0  1.88 0.04 0  1.92 0.04 0  1.96 0.04 0  2 0.04 0  0 0.06 0  0.04 0.06 0  0.08 0.06 0  0.12 0.06 0  0.16 0.06 0  0.2 0.06 0  0.24 0.06 0  0.28 0.06 0  0.32 0.06 0  0.36 0.06 0  0.4 0.06 0  0.44 0.06 0  0.48 0.06 0  0.52 0.06 0  0.5600000000000001 0.06 0  0.6 0.06 0  0.64 0.06 0  0.68 0.06 0  0.72 0.06 0  0.76 0.06 0  0.8 0.06 0  0.84 0.06 0  0.88 0.06 0  0.92 0.06 0  0.96 0.06 0  1 0.06 0  1.04 0.06 0  1.08 0.06 0  1.12 0.06 0  1.16 0.06 0  1.2 0.06 0  1.24 0.06 0  1.28 0.06 0  1.32 0.06 0  1.36 0.06 0  1.4 0.06 0  1.44 0.06 0  1.48 0.06 0  1.52 0.06 0  1.56 0.06 0  1.6 0.06 0  1.64 0.06 0  1.68 0.06 0  1.72 0.06 0  1.76 0.06 0  1.8 0.06 0  1.84 0.06 0  1.88 0.06 0  1.92 0.06 0  1.96 0.06 0  2 0.06 0  0 0.08 0  0.04 0.08 0  0.08 0.08 0  0.12 0.08 0  0.16 0.08 0  0.2 0.08 0  0.24 0.08 0  0.28 0.08 0  0.32 0.08 0  0.36 0.08 0  0.4 0.08 0  0.44 0.08 0  0.48 0.08 0  0.52 0.08 0  0.5600000000000001 0.08 0  0.6 0.08 0  0.64 0.08 0  0.68 0.08 0  0.72 0.08 0  0.76 0.08 0  0.8 0.08 0  0.84 0.08 0  0.88 0.08 0  0.92 0.08 0  0.96 0.08 0  1 0.08 0  1.04 0.08 0  1.08 0.08 0  1.12 0.08 0  1.16 0.08 0  1.2 0.08 0  1.24 0.08 0  1.28 0.08 0  1.32 0.08 0  1.36 0.08 0  1.4 0.08 0  1.44 0.08 0  1.48 0.08 0  1.52 0.08 0  1.56 0.08 0  1.6 0.08 0  1.64 0.08 0  1.68 0.08 0  1.72 0.08 0  1.76 0.08 0  1.8 0.08 0  1.84 0.08 0  1.88 0.08 0  1.92 0.08 0  1.96 0.08 0  2 0.08 0  0 0.1 0  0.04 0.1 0  0.08 0.1 0  0.12 0.1 0  0.16 0.1 0  0.2 0.1 0  0.24 0.1 0  0.28 0.1 0  0.32 0.1 0  0.36 0.1 0  0.4 0.1 0  0.44 0.1 0  0.48 0.1 0  0.52 0.1 0  0.5600000000000001 0.1 0  0.6 0.1 0  0.64 0.1 0  0.68 0.1 0  0.72 0.1 0  0.76 0.1 0  0.8 0.1 0  0.84 0.1 0  0.88 0.1 0  0.92 0.1 0  0.96 0.1 0  1 0.1 0  1.04 0.1 0  1.08 0.1 0  1.12 0.1 0  1.16 0.1 0  1.2 0.1 0  1.24 0.1 0  1.28 0.1 0  1.32 0.1 0  1.36 0.1 0  1.4 0.1 0  1.44 0.1 0  1.48 0.1 0  1.52 0.1 0  1.56 0.1 0  1.6 0.1 0  1.64 0.1 0  1.68 0.1 0  1.72 0.1 0  1.76 0.1 0  1.8 0.1 0  1.84 0.1 0  1.88 0.1 0  1.92 0.1 0  1.96 0.1 0  2 0.1 0  0 0.12 0  0.04 0.12 0  0.08 0.12 0  0.12 0.12 0  0.16 0.12 0  0.2 0.12 0  0.24 0.12 0  0.28 0.12 0  0.32 0.12 0  0.36 0.12 0  0.4 0.12 0  0.44 0.12 0  0.48 0.12 0  0.52 0.12 0  0.5600000000000001 0.12 0  0.6 0.12 0  0.64 0.12 0  0.68 0.12 0  0.72 0.12 0  0.76 0.12 0  0.8 0.12 0  0.84 0.12 0  0.88 0.12 0  0.92 0.12 0  0.96 0.12 0  1 0.12 0  1.04 0.12 0  1.08 0.12 0  1.12 0.12 0  1.16 0.12 0  1.2 0.12 0  1.24 0.12 0  1.28 0.12 0  1.32 0.12 0  1.36 0.12 0  1.4 0.12 0  1.44 0.12 0  1.48 0.12 0  1.52 0.12 0  1.56 0.12 0  1.6 0.12 0  1.64 0.12 0  1.68 0.12 0  1.72 0.12 0  1.76 0.12 0  1.8 0.12 0  1.84 0.12 0  1.88 0.12 0  1.92 0.12 0  1.96 0.12 0  2 0.12 0  0 0.14 0  0.04 0.14 0  0.08 0.14 0  0.12 0.14 0  0.16 0.14 0  0.2 0.14 0  0.24 0.14 0  0.28 0.14 0  0.32 0.14 0  0.36 0.14 0  0.4 0.14 0  0.44 0.14 0  0.48 0.14 0  0.52 0.14 0  0.5600000000000001 0.14 0  0.6 0.14 0  0.64 0.14 0  0.68 0.14 0  0.72 0.14 0  0.76 0.14 0  0.8 0.14 0  0.84 0.14 0  0.88 0.14 0  0.92 0.14 0  0.96 0.14 0  1 0.14 0  1.04 0.14 0  1.08 0.14 0  1.12 0.14 0  1.16 0.14 0  1.2 0.14 0  1.24 0.14 0  1.28 0.14 0  1.32 0.14 0  1.36 0.14 0  1.4 0.14 0  1.44 0.14 0  1.48 0.14 0  1.52 0.14 0  1.56 0.14 0  1.6 0.14 0  1.64 0.14 0  1.68 0.14 0  1.72 0.14 0  1.76 0.14 0  1.8 0.14 0  1.84 0.14 0  1.88 0.14 0  1.92 0.14 0  1.96 0.14 0  2 0.14 0  0 0.16 0  0.04 0.16 0  0.08 0.16 0  0.12 0.16 0  0.16 0.16 0  0.2 0.16 0  0.24 0.16 0  0.28 0.16 0  0.32 0.16 0  0.36 0.16 0  0.4 0.16 0  0.44 0.16 0  0.48 0.16 0  0.52 0.16 0  0.5600000000000001 0.16 0  0.6 0.16 0  0.64 0.16 0  0.68 0.16 0  0.72 0.16 0  0.76 0.16 0  0.8 0.16 0  0.84 0.16 0  0.88 0.16 0  0.92 0.16 0  0.96 0.16 0  1 0.16 0  1.04 0.16 0  1.08 0.16 0  1.12 0.16 0  1.16 0.16 0  1.2 0.16 0  1.24 0.16 0  1.28 0.16 0  1.32 0.16 0  1.36 0.16 0  1.4 0.16 0  1.44 0.16 0  1.48 0.16 0  1.52 0.16 0  1.56 0.16 0  1.6 0.16 0  1.64 0.16 0  1.68 0.16 0  1.72 0.16 0  1.76 0.16 0  1.8 0.16 0  1.84 0.16 0  1.88 0.16 0  1.92 0.16 0  1.96 0.16 0  2 0.16 0  0 0.18 0  0.04 0.18 0  0.08 0.18 0  0.12 0.18 0  0.16 0.18 0  0.2 0.18 0  0.24 0.18 0  0.28 0.18 0  0.32 0.18 0  0.36 0.18 0  0.4 0.18 0  0.44 0.18 0  0.48 0.18 0  0.52 0.18 0  0.5600000000000001 0.18 0  0.6 0.18 0  0.64 0.18 0  0.68 0.18 0  0.72 0.18 0  0.76 0.18 0  0.8 0.18 0  0.84 0.18 0  0.88 0.18 0  0.92 0.18 0  0.96 0.18 0  1 0.18 0  1.04 0.18 0  1.08 0.18 0  1.12 0.18 0  1.16 0.18 0  1.2 0.18 0  1.24 0.18 0  1.28 0.18 0  1.32 0.18 0  1.36 0.18 0  1.4 0.18 0  1.44 0.18 0  1.48 0.18 0  1.52 0.18 0  1.56 0.18 0  1.6 0.18 0  1.64 0.18 0  1.68 0.18 0  1.72 0.18 0  1.76 0.18 0  1.8 0.18 0  1.84 0.18 0  1.88 0.18 0  1.92 0.18 0  1.96 0.18 0  2 0.18 0  0 0.2 0  0.04 0.2 0  0.08 0.2 0  0.12 0.2 0  0.16 0.2 0  0.2 0.2 0  0.24 0.2 0  0.28 0.2 0  0.32 0.2 0  0.36 0.2 0  0.4 0.2 0  0.44 0.2 0  0.48 0.2 0  0.52 0.2 0  0.5600000000000001 0.2 0  0.6 0.2 0  0.64 0.2 0  0.68 0.2 0  0.72 0.2 0  0.76 0.2 0  0.8 0.2 0  0.84 0.2 0  0.88 0.2 0  0.92 0.2 0  0.96 0.2 0  1 0.2 0  1.04 0.2 0  1.08 0.2 0  1.12 0.2 0  1.16 0.2 0  1.2 0.2 0  1.24 0.2 0  1.28 0.2 0  1.32 0.2 0  1.36 0.2 0  1.4 0.2 0  1.44 0.2 0  1.48 0.2 0  1.52 0.2 0  1.56 0.2 0  1.6 0.2 0  1.64 0.2 0  1.68 0.2 0  1.72 0.2 0  1.76 0.2 0  1.8 0.2 0  1.84 0.2 0  1.88 0.2 0  1.92 0.2 0  1.96 0.2 0  2 0.2 0  0 0.22 0  0.04 0.22 0  0.08 0.22 0  0.12 0.22 0  0.16 0.22 0  0.2 0.22 0  0.24 0.22 0  0.28 0.22 0  0.32 0.22 0  0.36 0.22 0  0.4 0.22 0  0.44 0.22 0  0.48 0.22 0  0.52 0.22 0  0.5600000000000001 0.22 0  0.6 0.22 0  0.64 0.22 0  0.68 0.22 0  0.72 0.22 0  0.76 0.22 0  0.8 0.22 0  0.84 0.22 0  0.88 0.22 0  0.92 0.22 0  0.96 0.22 0  1 0.22 0  1.04 0.22 0  1.08 0.22 0  1.12 0.22 0  1.16 0.22 0  1.2 0.22 0  1.24 0.22 0  1.28 0.22 0  1.32 0.22 0  1.36 0.22 0  1.4 0.22 0  1.44 0.22 0  1.48 0.22 0  1.52 0.22 0  1.56 0.22 0  1.6 0.22 0  1.64 0.22 0  1.68 0.22 0  1.72 0.22 0  1.76 0.22 0  1.8 0.22 0  1.84 0.22 0  1.88 0.22 0  1.92 0.22 0  1.96 0.22 0  2 0.22 0  0 0.24 0  0.04 0.24 0  0.08 0.24 0  0.12 0.24 0  0.16 0.24 0  0.2 0.24 0  0.24 0.24 0  0.28 0.24 0  0.32 0.24 0  0.36 0.24 0  0.4 0.24 0  0.44 0.24 0  0.48 0.24 0  0.52 0.24 0  0.5600000000000001 0.24 0  0.6 0.24 0  0.64 0.24 0  0.68 0.24 0  0.72 0.24 0  0.76 0.24 0  0.8 0.24 0  0.84 0.24 0  0.88 0.24 0  0.92 0.24 0  0.96 0.24 0  1 0.24 0  1.04 0.24 0  1.08 0.24 0  1.12 0.24 0  1.16 0.24 0  1.2 0.24 0  1.24 0.24 0  1.28 0.24 0  1.32 0.24 0  1.36 0.24 0  1.4 0.24 0  1.44 0.24 0  1.48 0.24 0  1.52 0.24 0  1.56 0.24 0  1.6 0.24 0  1.64 0.24 0  1.68 0.24 0  1.72 0.24 0  1.76 0.24 0  1.8 0.24 0  1.84 0.24 0  1.88 0.24 0  1.92 0.24 0  1.96 0.24 0  2 0.24 0  0 0.26 0  0.04 0.26 0  0.08 0.26 0  0.12 0.26 0  0.16 0.26 0  0.2 0.26 0  0.24 0.26 0  0.28 0.26 0  0.32 0.26 0  0.36 0.26 0  0.4 0.26 0  0.44 0.26 0  0.48 0.26 0  0.52 0.26 0  0.5600000000000001 0.26 0  0.6 0.26 0  0.64 0.26 0  0.68 0.26 0  0.72 0.26 0  0.76 0.26 0  0.8 0.26 0  0.84 0.26 0  0.88 0.26 0  0.92 0.26 0  0.96 0.26 0  1 0.26 0  1.04 0.26 0  1.08 0.26 0  1.12 0.26 0  1.16 0.26 0  1.2 0.26 0  1.24 0.26 0  1.28 0.26 0  1.32 0.26 0  1.36 0.26 0  1.4 0.26 0  1.44 0.26 0  1.48 0.26 0  1.52 0.26 0  1.56 0.26 0  1.6 0.26 0  1.64 0.26 0  1.68 0.26 0  1.72 0.26 0  1.76 0.26 0  1.8 0.26 0  1.84 0.26 0  1.88 0.26 0  1.92 0.26 0  1.96 0.26 0  2 0.26 0  0 0.28 0  0.04 0.28 0  0.08 0.28 0  0.12 0.28 0  0.16 0.28 0  0.2 0.28 0  0.24 0.28 0  0.28 0.28 0  0.32 0.28 0  0.36 0.28 0  0.4 0.28 0  0.44 0.28 0  0.48 0.28 0  0.52 0.28 0  0.5600000000000001 0.28 0  0.6 0.28 0  0.64 0.28 0  0.68 0.28 0  0.72 0.28 0  0.76 0.28 0  0.8 0.28 0  0.84 0.28 0  0.88 0.28 0  0.92 0.28 0  0.96 0.28 0  1 0.28 0  1.04 0.28 0  1.08 0.28 0  1.12 0.28 0  1.16 0.28 0  1.2 0.28 0  1.24 0.28 0  1.28 0.28 0  1.32 0.28 0  1.36 0.28 0  1.4 0.28 0  1.44 0.28 0  1.48 0.28 0  1.52 0.28 0  1.56 0.28 0  1.6 0.28 0  1.64 0.28 0  1.68 0.28 0  1.72 0.28 0  1.76 0.28 0  1.8 0.28 0  1.84 0.28 0  1.88 0.28 0  1.92 0.28 0  1.96 0.28 0  2 0.28 0  0 0.3 0  0.04 0.3 0  0.08 0.3 0  0.12 0.3 0  0.16 0.3 0  0.2 0.3 0  0.24 0.3 0  0.28 0.3 0  0.32 0.3 0  0.36 0.3 0  0.4 0.3 0  0.44 0.3
[...]
<PointData  Vectors="f_26-1"> 
<DataArray  type="Float64"  Name="f_26-1"  NumberOfComponents="3" format="ascii">1.0000000000000000e-04 0.0000000000000000e+00 0.0000000000000000e+00  9.8000000003450064e-05 3.6363989059327121e-14 0.0000000000000000e+00  9.6000000006896341e-05 7.2820656843805491e-14 0.0000000000000000e+00  9.4000000010335084e-05 1.0946520870070020e-13 0.0000000000000000e+00  9.2000000013762171e-05 1.4639804249240907e-13 0.0000000000000000e+00  9.0000000017173009e-05 1.8372770540664610e-13 0.0000000000000000e+00  8.8000000020562393e-05 2.2157432285597088e-13 0.0000000000000000e+00  8.6000000023924185e-05 2.6007373708740995e-13 0.0000000000000000e+00  8.4000000027251431e-05 2.9938268689066634e-13 0.0000000000000000e+00  8.2000000030535932e-05 3.3968550394207109e-13 0.0000000000000000e+00  8.0000000033768025e-05 3.8120302940163904e-13 0.0000000000000000e+00  7.8000000036936381e-05 4.2420482996010207e-13 0.0000000000000000e+00  7.6000000040027759e-05 4.6902642386614897e-13 0.0000000000000000e+00  7.4000000043026383e-05 5.1609431687543379e-13 0.0000000000000000e+00  7.2000000045913660e-05 5.6596361036994743e-13 0.0000000000000000e+00  7.0000000048666631e-05 6.1937665991456563e-13 0.0000000000000000e+00  6.8000000051257080e-05 6.7735870134197757e-13 0.0000000000000000e+00  6.6000000053649717e-05 7.4138224601280780e-13 0.0000000000000000e+00  6.4000000055801823e-05 8.1366866817795578e-13 0.0000000000000000e+00  6.2000000057667104e-05 8.9778781336979324e-13 0.0000000000000000e+00  6.0000000059204582e-05 9.9997456539939693e-13 0.0000000000000000e+00  5.8000000060394337e-05 1.1323754994848919e-12 0.0000000000000000e+00  5.6000000061283077e-05 1.3219361779790178e-12 0.0000000000000000e+00  5.4000000061495925e-05 1.5517894475572994e-12 0.0000000000000000e+00  5.2000000061341547e-05 1.3326165960376194e-12 0.0000000000000000e+00  5.0000000060832255e-05 1.1784483244013120e-12 0.0000000000000000e+00  4.8000000059987654e-05 1.0719031950254337e-12 0.0000000000000000e+00  4.6000000058833763e-05 9.9257030620055400e-13 0.0000000000000000e+00  4.4000000057401145e-05 9.3017252639414013e-13 0.0000000000000000e+00  4.2000000055722724e-05 8.7910318787915142e-13 0.0000000000000000e+00  4.0000000053831400e-05 8.3595116492343457e-13 0.0000000000000000e+00  3.8000000051758730e-05 7.9844354808067997e-13 0.0000000000000000e+00  3.6000000049533403e-05 7.6491279803855718e-13 0.0000000000000000e+00  3.4000000047180900e-05 7.3399661102792150e-13 0.0000000000000000e+00  3.2000000044723298e-05 7.0447685828795558e-13 0.0000000000000000e+00  3.0000000042179470e-05 6.7525494032696891e-13 0.0000000000000000e+00  2.8000000039565142e-05 6.4544852055271109e-13 0.0000000000000000e+00  2.6000000036893447e-05 6.1450654640715010e-13 0.0000000000000000e+00  2.4000000034175249e-05 5.8213128391300297e-13 0.0000000000000000e+00  2.2000000031419460e-05 5.4812888509904029e-13 0.0000000000000000e+00  2.0000000028633293e-05 5.1225501434220900e-13 0.0000000000000000e+00  1.8000000025822698e-05 4.7412930407667677e-13 0.0000000000000000e+00  1.6000000022992444e-05 4.3327356271212989e-13 0.0000000000000000e+00  1.4000000020146518e-05 3.8926010600116844e-13 0.0000000000000000e+00  1.2000000017288148e-05 3.4183605101435545e-13 0.0000000000000000e+00  1.0000000014419990e-05 2.9095805320806076e-13 0.0000000000000000e+00  8.0000000115442676e-06 2.3681793116742665e-13 0.0000000000000000e+00  6.0000000086628746e-06 1.7993389005565442e-13 0.0000000000000000e+00  4.0000000057774117e-06 1.2103402312591430e-13 0.0000000000000000e+00  2.0000000028893428e-06 6.0832387021090932e-14 0.0000000000000000e+00  0.0000000000000000e+00 0.0000000000000000e+00 0.0000000000000000e+00  1.0000000000000000e-04 0.0000000000000000e+00 0.0000000000000000e+00  9.8000000003450538e-05 3.6352404218683180e-14 0.0000000000000000e+00  9.6000000006897249e-05 7.2797171334753404e-14 0.0000000000000000e+00  9.4000000010336561e-05 1.0942917345884845e-13 0.0000000000000000e+00  9.2000000013764218e-05 1.4634843885209306e-13 0.0000000000000000e+00  9.0000000017175720e-05 1.8366308608976014e-13 0.0000000000000000e+00  8.8000000020565836e-05 2.2149272325820666e-13 0.0000000000000000e+00  8.6000000023928481e-05 2.5997254514093278e-13 0.0000000000000000e+00  8.4000000027256770e-05 2.9925845348464766e-13 0.0000000000000000e+00  8.2000000030542491e-05 3.3953366539105068e-13 0.0000000000000000e+00  8.0000000033776008e-05 3.8101749501427715e-13 0.0000000000000000e+00  7.8000000036946004e-05 4.2397735579165406e-13 0.0000000000000000e+00  7.6000000040039346e-05 4.6874563647824434e-13 0.0000000000000000e+00  7.4000000043040302e-05 5.1574414181478031e-13 0.0000000000000000e+00  7.2000000045930397e-05 5.6552064086368438e-13 0.0000000000000000e+00  7.0000000048686960e-05 6.1880553592921665e-13 0.0000000000000000e+00  6.8000000051281841e-05 6.7660351343655038e-13 0.0000000000000000e+00  6.6000000053679763e-05 7.4034938632601788e-13 0.0000000000000000e+00  6.4000000055837710e-05 8.1218957779962000e-13 0.0000000000000000e+00  6.2000000057708100e-05 8.9552936251507288e-13 0.0000000000000000e+00  6.0000000059248052e-05 9.9619779264241008e-13 0.0000000000000000e+00  5.8000000060431979e-05 1.1252305314338134e-12 0.0000000000000000e+00  5.6000000061250727e-05 1.3067180513527973e-12 0.0000000000000000e+00  5.4000000061541827e-05 1.6079177126945443e-12 0.0000000000000000e+00  5.2000000061385918e-05 1.3244910235521984e-12 0.0000000000000000e+00  5.0000000060874173e-05 1.1724954316187587e-12 0.0000000000000000e+00  4.8000000060026319e-05 1.0685016649565591e-12 0.0000000000000000e+00  4.6000000058868593e-05 9.9045341757324616e-13 0.0000000000000000e+00  4.4000000057431868e-05 9.2875647123271188e-13 0.0000000000000000e+00  4.2000000055749328e-05 8.7811352343424242e-13 0.0000000000000000e+00  4.0000000053854101e-05 8.3524561415931441e-13 0.0000000000000000e+00  3.8000000051777818e-05 7.9794643973060108e-13 0.0000000000000000e+00  3.6000000049549307e-05 7.6458597765962142e-13 0.0000000000000000e+00  3.4000000047194033e-05 7.3382205674408792e-13 0.0000000000000000e+00  3.2000000044734085e-05 7.0443962894058328e-13 0.0000000000000000e+00  3.0000000042188276e-05 6.7532800305362767e-13 0.0000000000000000e+00  2.8000000039572308e-05 6.4559046484912402e-13 0.0000000000000000e+00  2.6000000036899268e-05 6.1468570745072326e-13 0.0000000000000000e+00  2.4000000034179962e-05 5.8233467595297980e-13 0.0000000000000000e+00  2.2000000031423258e-05 5.4836281909189874e-13 0.0000000000000000e+00  2.0000000028636356e-05 5.1253649428079676e-13 0.0000000000000000e+00  1.8000000025825151e-05 4.7447055796405365e-13 0.0000000000000000e+00  1.6000000022994409e-05 4.3366827713043181e-13 0.0000000000000000e+00  1.4000000020148074e-05 3.8968643078565016e-13 0.0000000000000000e+00  1.2000000017289371e-05 3.4226779386679080e-13 0.0000000000000000e+00  1.0000000014420938e-05 2.9136581873735319e-13 0.0000000000000000e+00  8.0000000115449791e-06 2.3716092105131895e-13 0.0000000000000000e+00  6.0000000086633828e-06 1.8018586828290034e-13 0.0000000000000000e+00  4.0000000057777395e-06 1.2119674427279975e-13 0.0000000000000000e+00  2.0000000028895037e-06 6.0911230885624422e-14 0.0000000000000000e+00  0.0000000000000000e+00 0.0000000000000000e+00 0.0000000000000000e+00  1.0000000000000000e-04 0.0000000000000000e+00 0.0000000000000000e+00  9.8000000003451839e-05 3.6317728653692456e-14 0.0000000000000000e+00  9.6000000006900041e-05 7.2726877073695093e-14 0.0000000000000000e+00  9.4000000010340884e-05 1.0932132239970943e-13 0.0000000000000000e+00  9.2000000013770303e-05 1.4619998975067142e-13 0.0000000000000000e+00  9.0000000017183743e-05 1.8346971929017927e-13 0.0000000000000000e+00  8.8000000020576136e-05 2.2124857748187238e-13 0.0000000000000000e+00  8.6000000023941369e-05 2.5966983157920829e-13 0.0000000000000000e+00  8.4000000027272762e-05 2.9888689418795697e-13 0.0000000000000000e+00  8.2000000030562061e-05 3.3907967241082413e-13 0.0000000000000000e+00  8.0000000033799806e-05 3.8046295283837764e-13 0.0000000000000000e+00  7.8000000036974776e-05 4.2329777664590277e-13 0.0000000000000000e+00  7.6000000040073987e-05 4.6790729292785308e-13 0.0000000000000000e+00  7.4000000043081935e-05 5.1469946832603481e-13 0.0000000000000000e+00  7.2000000045980542e-05 5.6420057235326406e-13 0.0000000000000000e+00  7.0000000048747689e-05 6.1710614133341706e-13 0.0000000000000000e+00  6.8000000051355837e-05 6.7436135168558955e-13 0.0000000000000000e+00  6.6000000053769819e-05 7.3729294699319410e-13 0.0000000000000000e+00  6.4000000055945480e-05 8.0783558911082115e-13 0.0000000000000000e+00  6.2000000057831658e-05 8.8893875030738083e-13 0.0000000000000000e+00  6.0000000059380501e-05 9.8532994271940623e-13 0.0000000000000000e+00  5.8000000060560952e-05 1.1049718681008399e-12 0.0000000000000000e+00  5.6000000061350277e-05 1.2615718893708866e-12 0.0000000000000000e+00  5.4000000061679670e-05 1.4747172150171880e-12 0.0000000000000000e+00  5.2000000061519275e-05 1.2835076767645500e-12 0.0000000000000000e+00  5.0000000061000124e-05 1.1545420825183953e-12 0.0000000000000000e+00  4.8000000060142458e-05 1.0586137550679628e-12 0.0000000000000000e+00  4.6000000058973185e-05 9.8424870368524374e-13 0.0000000000000000e+00  4.4000000057524053e-05 9.2457691643576809e-13 0.0000000000000000e+00  4.2000000055829098e-05 8.7518009935844779e-13 0.0000000000000000e+00  4.0000000053922053e-05 8.3314787968364054e-13 0.0000000000000000e+00  3.8000000051834990e-05 7.9646465329108880e-13 0.0000000000000000e+00  3.6000000049596897e-05 7.6361002199182394e-13 0.0000000000000000e+00  3.4000000047233328e-05 7.3330212918224692e-13 0.0000000000000000e+00  3.2000000044766347e-05 7.0433469911407389e-13 0.0000000000000000e+00  3.0000000042214629e-05 6.7555754385967312e-13 0.0000000000000000e+00  2.8000000039593742e-05 6.4602421394401149e-13 0.0000000000000000e+00  2.6000000036916645e-05 6.1522643701913186e-13 0.0000000000000000e+00  2.4000000034194036e-05 5.8294327433379074e-13 0.0000000000000000e+00  2.2000000031434636e-05 5.4906037007226254e-13 0.0000000000000000e+00  2.0000000028645494e-05 5.1337787709579463e-13 0.0000000000000000e+00  1.8000000025832479e-05 4.7549589798065018e-13 0.0000000000000000e+00  1.6000000023000271e-05 4.3485788292652361e-13 0.0000000000000000e+00  1.4000000020152730e-05 3.9097195321365107e-13 0.0000000000000000e+00  1.2000000017293028e-05 3.4357037127187066e-13 0.0000000000000000e+00  1.0000000014423764e-05 2.9259931490579493e-13 0.0000000000000000e+00  8.0000000115471001e-06 2.3819644970580750e-13 0.0000000000000000e+00  6.0000000086648965e-06 1.8094136432056666e-13 0.0000000000000000e+00  4.0000000057787152e-06 1.2168356276395392e-13 0.0000000000000000e+00  2.0000000028899810e-06 6.1146504124770161e-14 0.0000000000000000e+00  0.0000000000000000e+00 0.0000000000000000e+00 0.0000000000000000e+00  1.0000000000000000e-04 0.0000000000000000e+00 0.0000000000000000e+00  9.8000000003454116e-05 3.6260198147124197e-14 0.0000000000000000e+00  9.6000000006904717e-05 7.2610258586133861e-14 0.0000000000000000e+00  9.4000000010348149e-05 1.0914241583433353e-13 0.0000000000000000e+00  9.2000000013780440e-05 1.4595377510211332e-13 0.0000000000000000e+00  9.0000000017197146e-05 1.8314907032755212e-13 0.0000000000000000e+00  8.8000000020593185e-05 2.2084383272912741e-13 0.0000000000000000e+00  8.6000000023962782e-05 2.5916816588963075e-13 0.0000000000000000e+00  8.4000000027299257e-05 2.9827140598773665e-13 0.0000000000000000e+00  8.2000000030594479e-05 3.3832805387942625e-13 0.0000000000000000e+00  8.0000000033839271e-05 3.7954552481748508e-13 0.0000000000000000e+00  7.8000000037022535e-05 4.2217452438154521e-13 0.0000000000000000e+00  7.6000000040131436e-05 4.6652328459840389e-13 0.0000000000000000e+00  7.4000000043150972e-05 5.1297756268002791e-13 0.0000000000000000e+00  7.2000000046063592e-05 5.6202938760461303e-13 0.0000000000000000e+00  7.0000000048848235e-05 6.1431933639461253e-13 0.0000000000000000e+00  6.8000000051478366e-05 6.7070009369577071e-13 0.0000000000000000e+00  6.6000000053919466e-05 7.3233374595786533e-13 0.0000000000000000e+00  6.4000000056125620e-05 8.0084147065229002e-13 0.0000000000000000e+00  6.2000000058039568e-05 8.7852613029582291e-13 0.0000000000000000e+00  6.0000000059605087e-05 9.6864940955405076e-13 0.0000000000000000e+00  5.8000000060787747e-05 1.0754736807957134e-12 0.0000000000000000e+00  5.6000000061564814e-05 1.2022894012949125e-12 0.0000000000000000e+00  5.4000000061910673e-05 1.3381025469393208e-12 0.0000000000000000e+00  5.2000000061742356e-05 1.2269633439752817e-12 0.0000000000000000e+00  5.0000000061210723e-05 1.1283294167191023e-12 0.0000000000000000e+00  4.8000000060336496e-05 1.0433350261624380e-12 0.0000000000000000e+00  4.6000000059147762e-05 9.7437067376393024e-13 0.0000000000000000e+00  4.4000000057677718e-05 9.1782861909578548e-13 0.0000000000000000e+00  4.2000000055961859e-05 8.7040552593202481e-13 0.0000000000000000e+00  4.0000000054035013e-05 8.2971289688740303e-13 0.0000000000000000e+00  3.8000000051929905e-05 7.9402571807825467e-13 0.0000000000000000e+00  3.6000000049675868e-05 7.6199738170160486e-13 0.0000000000000000e+00  3.4000000047298496e-05 7.3244708593505568e-13 0.0000000000000000e+00  3.2000000044819805e-05 7.0418220058412158e-13 0.0000000000000000e+00  3.0000000042258264e-05 6.7597612833103340e-13 0.0000000000000000e+00  2.8000000039629225e-05 6.4677407479120345e-13 0.0000000000000000e+00  2.6000000036945424e-05 6.1613851302765630e-13 0.0000000000000000e+00  2.4000000034217306e-05 5.8395180810864857e-13 0.0000000000000000e+00  2.2000000031453419e-05 5.5020781823136168e-13 0.0000000000000000e+00  2.0000000028660608e-05 5.1476913144546205e-13 0.0000000000000000e+00  1.8000000025844609e-05 4.7721024698199194e-13 0.0000000000000000e+00  1.6000000023009964e-05 4.3685946738730220e-13 0.0000000000000000e+00  1.4000000020160426e-05 3.9313638869887926e-13 0.0000000000000000e+00  1.2000000017299080e-05 3.4576531728302429e-13 0.0000000000000000e+00  1.0000000014428440e-05 2.9469076328271452e-13 0.0000000000000000e+00  8.0000000115506186e-06 2.3994503340660951e-13 0.0000000000000000e+00  6.0000000086674071e-06 1.8219753940107583e-13 0.0000000000000000e+00  4.0000000057803288e-06 1.2249019552575076e-13 0.0000000000000000e+00  2.0000000028907700e-06 6.1534138735312538e-14 0.0000000000000000e+00  0.0000000000000000e+00 0.0000000000000000e+00 0.0000000000000000e+00  1.0000000000000000e-04 0.0000000000000000e+00 0.0000000000000000e+00  9.8000000003457287e-05 3.6180202067584577e-14 0.0000000000000000e+00  9.6000000006911168e-05 7.2448115896275161e-14 0.0000000000000000e+00  9.4000000010358191e-05 1.0889370876406259e-13 0.0000000000000000e+00  9.2000000013794453e-05 1.4561157646414056e-13 0.0000000000000000e+00  9.0000000017215672e-05 1.8270355457089078e-13 0.0000000000000000e+00  8.8000000020616861e-05 2.2028169528665034e-13 0.0000000000000000e+00  8.6000000023992516e-05 2.5847177346565249e-13 0.0000000000000000e+00  8.4000000027336025e-05 2.9741756583912014e-13 0.0000000000000000e+00  8.2000000030639581e-05 3.3728622958643610e-13 0.0000000000000000e+00  8.0000000033894104e-05 3.7827521464009229e-13 0.0000000000000000e+00  7.8000000037088874e-05 4.2062133195398794e-13 0.0000000000000000e+00  7.6000000040211233e-05 4.6461289680276380e-13 0.0000000000000000e+00  7.4000000043246707e-05 5.1060627032328081e-13 0.0000000000000000e+00  7.2000000046178707e-05 5.5904867188960871e-13 0.0000000000000000e+00  7.0000000048987379e-05 6.1050982932801858e-13 0.0000000000000000e+00  6.8000000051648125e-05 6.6572561196571869e-13 0.0000000000000000e+00  6.6000000054127904e-05 7.2565602681445439e-13 0.0000000000000000e+00  6.4000000056378849e-05 7.9155311845648223e-13 0.0000000000000000e+00  6.2000000058334620e-05 8.6500385538059163e-13 0.0000000000000000e+00  6.0000000059925340e-05 9.4779362839283660e-13 0.0000000000000000e+00  5.8000000061115969e-05 1.0409776311762033e-12 0.0000000000000000e+00  5.6000000061887194e-05 1.1407575569326369e-12 0.0000000000000000e+00  5.4000000062233745e-05 1.2213592815479821e-12 0.0000000000000000e+00  5.2000000062056273e-05 1.1672926922590478e-12 0.0000000000000000e+00  5.0000000061507015e-05 1.0987068667449312e-12 0.0000000000000000e+00  4.8000000060609200e-05 1.0240487877173746e-12 0.0000000000000000e+00  4.6000000059392676e-05 9.6138706941002685e-13 0.0000000000000000e+00  4.4000000057892878e-05 9.0880058137970697e-13 0.0000000000000000e+00  4.2000000056147386e-05 8.6394833647581713e-13 0.0000000000000000e+00  4.0000000054192588e-05 8.2502655153229756e-13 0.0000000000000000e+00  3.8000000052062110e-05 7.9067207225729647e-13 0.0000000000000000e+00  3.6000000049785684e-05 7.5976523125886107e-13 0.0000000000000000e+00  3.4000000047389033e-05 7.3127069008396084e-13 0.0000000000000000e+00  3.2000000044893992e-05 7.0401499877970827e-13 0.0000000000000000e+00  3.0000000042318780e-05 6.7664370812407931e-13 0.0000000000000000e+00  2.8000000039678408e-05 6.4788231269432513e-13 0.0000000000000000e+00  2.6000000036985285e-05 6.1743837482504616e-13 0.0000000000000000e+00  2.4000000034249541e-05 5.8534966312307655e-13 0.0000000000000000e+00  2.2000000031479416e-05 5.5177894061761363e-13 0.0000000000000000e+00  2.0000000028681547e-05 5.1669043521452212e-13 0.0000000000000000e+00  1.8000000025861404e-05 4.7962256976613887e-13 0.0000000000000000e+00  1.6000000023023385e-05 4.3970412662151416e-13 0.0000000000000000e+00  1.4000000020171087e-05 3.9621282236596562e-13 0.0000000000000000e+00  1.2000000017307458e-05 3.4888613394029188e-13 0.0000000000000000e+00  1.0000000014434914e-05 2.9770000562858308e-13 0.0000000000000000e+00  8.0000000115554874e-06 2.4244405813976913e-13 0.0000000000000000e+00  6.0000000086708816e-06 1.8394367694903286e-13 0.0000000000000000e+00  4.0000000057825642e-06 1.2360900651632598e-13 0.0000000000000000e+00  2.0000000028918640e-06 6.2066293832073493e-14 0.0000000000000000e+00  0.0000000000000000e+00 0.0000000000000000e+00 0.0000000000000000e+00  1.0000000000000000e-04 0.0000000000000000e+00 0.0000000000000000e+00  9.8000000003461299e-05 3.6078278047768453e-14 0.0000000000000000e+00  9.6000000006919394e-05 7.2241553446642273e-14 0.0000000000000000e+00  9.4000000010370890e-05 1.0857693298571904e-13 0.0000000000000000e+00  9.2000000013812194e-05 1.4517585022449961e-13 0.0000000000000000e+00  9.0000000017239118e-05 1.8213649816197698e-13 0.0000000000000000e+00  8.8000000020646880e-05 2.1956657347836262e-13 0.0000000000000000e+00  8.6000000024030152e-05 2.5758645249305808e-13 0.0000000000000000e+00  8.4000000027382687e-05 2.9633300784704128e-13 0.0000000000000000e+00  8.2000000030696909e-05 3.3596432496686101e-13 0.0000000000000000e+00  8.0000000033963873e-05 3.7666562139763949e-13 0.0000000000000000e+00  7.8000000037173225e-05 4.1865677764271020e-13 0.0000000000000000e+00  7.6000000040312728e-05 4.6220205683918834e-13 0.0000000000000000e+00  7.4000000043368381e-05 5.0762272095508122e-13 0.0000000000000000e+00  7.2000000046324640e-05 5.5531326720658382e-13 0.0000000000000000e+00  7.0000000049163467e-05 6.0576166596160222e-13 0.0000000000000000e+00  6.8000000051863176e-05 6.5957247218290768e-13 0.0000000000000000e+00  6.6000000054393574e-05 7.1748663847271995e-13 0.0000000000000000e+00  6.4000000056705844e-05 7.8037635494015381e-13 0.0000000000000000e+00  6.2000000058720921e-05 8.4914682144332658e-13 0.0000000000000000e+00  6.0000000060345597e-05 9.2433928978884195e-13 0.0000000000000000e+00  5.8000000061549012e-05 1.0048326008134273e-12 0.0000000000000000e+00  5.6000000062315773e-05 1.0840202628556338e-12 0.0000000000000000e+00  5.4000000062656516e-05 1.1406508836081850e-12 0.0000000000000000e+00  5.2000000062463107e-05 1.1112518495991096e-12 0.0000000000000000e+00  5.0000000061890484e-05 1.0706023801491200e-12 0.0000000000000000e+00  4.8000000060961566e-05 1.0017634590922592e-12 0.0000000000000000e+00  4.6000000059708416e-05 9.4588465748686611e-13 0.0000000000000000e+00  4.4000000058169472e-05 8.9783898288202084e-13 0.0000000000000000e+00  4.200000