<?xml version="1.0"?>
<VTKFile type="UnstructuredGrid"  version="0.1"  >
<UnstructuredGrid>
<Piece  NumberOfPoints="2601" NumberOfCells="5000">
<Points>
<DataArray  type="Float64"  NumberOfComponents="3"  format="ascii">0 0 0  0.04 0 0  0.08 0 0  0.12 0 0  0.16 0 0  0.2 0 0  0.24 0 0  0.28 0 0  0.32 0 0  0.36 0 0  0.4 0 0  0.44 0 0  0.48 0 0  0.52 0 0  0.5600000000000001 0 0  0.6 0 0  0.64 0 0  0.68 0 0  0.72 0 0  0.76 0 0  0.8 0 0  0.84 0 0  0.88 0 0  0.92 0 0  0.96 0 0  1 0 0  1.04 0 0  1.08 0 0  1.12 0 0  1.16 0 0  1.2 0 0  1.24 0 0  1.28 0 0  1.32 0 0  1.36 0 0  1.4 0 0  1.44 0 0  1.48 0 0  1.52 0 0  1.56 0 0  1.6 0 0  1.64 0 0  1.68 0 0  1.72 0 0  1.76 0 0  1.8 0 0  1.84 0 0  1.88 0 0  1.92 0 0  1.96 0 0  2 0 0  0 0.02 0  0.04 0.02 0  0.08 0.02 0  0.12 0.02 0  0.16 0.02 0  0.2 0.02 0  0.24 0.02 0  0.28 0.02 0  0.32 0.02 0  0.36 0.02 0  0.4 0.02 0  0.44 0.02 0  0.48 0.02 0  0.52 0.02 0  0.5600000000000001 0.02 0  0.6 0.02 0  0.64 0.02 0  0.68 0.02 0  0.72 0.02 0  0.76 0.02 0  0.8 0.02 0  0.84 0.02 0  0.88 0.02 0  0.92 0.02 0  0.96 0.02 0  1 0.02 0  1.04 0.02 0  1.08 0.02 0  1.12 0.02 0  1.16 0.02 0  1.2 0.02 0  1.24 0.02 0  1.28 0.02 0  1.32 0.02 0  1.36 0.02 0  1.4 0.02 0  1.44 0.02 0  1.48 0.02 0  1.52 0.02 0  1.56 0.02 0  1.6 0.02 0  1.64 0.02 0  1.68 0.02 0  1.72 0.02 0  1.76 0.02 0  1.8 0.02 0  1.84 0.02 0  1.88 0.02 0  1.92 0.02 0  1.96 0.02 0  2 0.02 0  0 0.04 0  0.04 0.04 0  0.08 0.04 0  0.12 0.04 0  0.16 0.04 0  0.2 0.04 0  0.24 0.04 0  0.28 0.04 0  0.32 0.04 0  0.36 0.04 0  0.4 0.04 0  0.44 0.04 0  0.48 0.04 0  0.52 0.04 0  0.5600000000000001 0.04 0  0.6 0.04 0  0.64 0.04 0  0.68 0.04 0  0.72 0.04 0  0.76 0.04 0  0.8 0.04 0  0.84 0.04 0  0.88 0.04 0  0.92 0.04 0  0.96 0.04 0  1 0.04 0  1.04 0.04 0  1.08 0.04 0  1.12 0.04 0  1.16 0.04 0  1.2 0.04 0  1.24 0.04 0  1.28 0.04 0  1.32 0.04 0  1.36 0.04 0  1.4 0.04 0  1.44 0.04 0  1.48 0.04 0  1.52 0.04 0  1.56 0.04 0  1.6 0.04 0  1.64 0.04 0  1.68 0.04 0  1.72 0.04 0  1.76 0.04 0  1.8 0.04 0  1.84 0.04 0  1.88 0.04 0  1.92 0.04 0  1.96 0.04 0  2 0.04 0  0 0.06 0  0.04 0.06 0  0.08 0.06 0  0.12 0.06 0  0.16 0.06 0  0.2 0.06 0  0.24 0.06 0  0.28 0.06 0  0.32 0.06 0  0.36 0.06 0  0.4 0.06 0  0.44 0.06 0  0.48 0.06 0  0.52 0.06 0  0.5600000000000001 0.06 0  0.6 0.06 0  0.64 0.06 0  0.68 0.06 0  0.72 0.06 0  0.76 0.06 0  0.8 0.06 0  0.84 0.06 0  0.88 0.06 0  0.92 0.06 0  0.96 0.06 0  1 0.06 0  1.04 0.06 0  1.08 0.06 0  1.12 0.06 0  1.16 0.06 0  1.2 0.06 0  1.24 0.06 0  1.28 0.06 0  1.32 0.06 0  1.36 0.06 0  1.4 0.06 0  1.44 0.06 0  1.48 0.06 0  1.52 0.06 0  1.56 0.06 0  1.6 0.06 0  1.64 0.06 0  1.68 0.06 0  1.72 0.06 0  1.76 0.06 0  1.8 0.06 0  1.84 0.06 0  1.88 0.06 0  1.92 0.06 0  1.96 0.06 0  2 0.06 0  0 0.08 0  0.04 0.08 0  0.08 0.08 0  0.12 0.08 0  0.16 0.08 0  0.2 0.08 0  0.24 0.08 0  0.28 0.08 0  0.32 0.08 0  0.36 0.08 0  0.4 0.08 0  0.44 0.08 0  0.48 0.08 0  0.52 0.08 0  0.5600000000000001 0.08 0  0.6 0.08 0  0.64 0.08 0  0.68 0.08 0  0.72 0.08 0  0.76 0.08 0  0.8 0.08 0  0.84 0.08 0  0.88 0.08 0  0.92 0.08 0  0.96 0.08 0  1 0.08 0  1.04 0.08 0  1.08 0.08 0  1.12 0.08 0  1.16 0.08 0  1.2 0.08 0  1.24 0.08 0  1.28 0.08 0  1.32 0.08 0  1.36 0.08 0  1.4 0.08 0  1.44 0.08 0  1.48 0.08 0  1.52 0.08 0  1.56 0.08 0  1.6 0.08 0  1.64 0.08 0  1.68 0.08 0  1.72 0.08 0  1.76 0.08 0  1.8 0.08 0  1.84 0.08 0  1.88 0.08 0  1.92 0.08 0  1.96 0.08 0  2 0.08 0  0 0.1 0  0.04 0.1 0  0.08 0.1 0  0.12 0.1 0  0.16 0.1 0  0.2 0.1 0  0.24 0.1 0  0.28 0.1 0  0.32 0.1 0  0.36 0.1 0  0.4 0.1 0  0.44 0.1 0  0.48 0.1 0  0.52 0.1 0  0.5600000000000001 0.1 0  0.6 0.1 0  0.64 0.1 0  0.68 0.1 0  0.72 0.1 0  0.76 0.1 0  0.8 0.1 0  0.84 0.1 0  0.88 0.1 0  0.92 0.1 0  0.96 0.1 0  1 0.1 0  1.04 0.1 0  1.08 0.1 0  1.12 0.1 0  1.16 0.1 0  1.2 0.1 0  1.24 0.1 0  1.28 0.1 0  1.32 0.1 0  1.36 0.1 0  1.4 0.1 0  1.44 0.1 0  1.48 0.1 0  1.52 0.1 0  1.56 0.1 0  1.6 0.1 0  1.64 0.1 0  1.68 0.1 0  1.72 0.1 0  1.76 0.1 0  1.8 0.1 0  1.84 0.1 0  1.88 0.1 0  1.92 0.1 0  1.96 0.1 0  2 0.1 0  0 0.12 0  0.04 0.12 0  0.08 0.12 0  0.12 0.12 0  0.16 0.12 0  0.2 0.12 0  0.24 0.12 0  0.28 0.12 0  0.32 0.12 0  0.36 0.12 0  0.4 0.12 0  0.44 0.12 0  0.48 0.12 0  0.52 0.12 0  0.5600000000000001 0.12 0  0.6 0.12 0  0.64 0.12 0  0.68 0.12 0  0.72 0.12 0  0.76 0.12 0  0.8 0.12 0  0.84 0.12 0  0.88 0.12 0  0.92 0.12 0  0.96 0.12 0  1 0.12 0  1.04 0.12 0  1.08 0.12 0  1.12 0.12 0  1.16 0.12 0  1.2 0.12 0  1.24 0.12 0  1.28 0.12 0  1.32 0.12 0  1.36 0.12 0  1.4 0.12 0  1.44 0.12 0  1.48 0.12 0  1.52 0.12 0  1.56 0.12 0  1.6 0.12 0  1.64 0.12 0  1.68 0.12 0  1.72 0.12 0  1.76 0.12 0  1.8 0.12 0  1.84 0.12 0  1.88 0.12 0  1.92 0.12 0  1.96 0.12 0  2 0.12 0  0 0.14 0  0.04 0.14 0  0.08 0.14 0  0.12 0.14 0  0.16 0.14 0  0.2 0.14 0  0.24 0.14 0  0.28 0.14 0  0.32 0.14 0  0.36 0.14 0  0.4 0.14 0  0.44 0.14 0  0.48 0.14 0  0.52 0.14 0  0.5600000000000001 0.14 0  0.6 0.14 0  0.64 0.14 0  0.68 0.14 0  0.72 0.14 0  0.76 0.14 0  0.8 0.14 0  0.84 0.14 0  0.88 0.14 0  0.92 0.14 0  0.96 0.14 0  1 0.14 0  1.04 0.14 0  1.08 0.14 0  1.12 0.14 0  1.16 0.14 0  1.2 0.14 0  1.24 0.14 0  1.28 0.14 0  1.32 0.14 0  1.36 0.14 0  1.4 0.14 0  1.44 0.14 0  1.48 0.14 0  1.52 0.14 0  1.56 0.14 0  1.6 0.14 0  1.64 0.14 0  1.68 0.14 0  1.72 0.14 0  1.76 0.14 0  1.8 0.14 0  1.84 0.14 0  1.88 0.14 0  1.92 0.14 0  1.96 0.14 0  2 0.14 0  0 0.16 0  0.04 0.16 0  0.08 0.16 0  0.12 0.16 0  0.16 0.16 0  0.2 0.16 0  0.24 0.16 0  0.28 0.16 0  0.32 0.16 0  0.36 0.16 0  0.4 0.16 0  0.44 0.16 0  0.48 0.16 0  0.52 0.16 0  0.5600000000000001 0.16 0  0.6 0.16 0  0.64 0.16 0  0.68 0.16 0  0.72 0.16 0  0.76 0.16 0  0.8 0.16 0  0.84 0.16 0  0.88 0.16 0  0.92 0.16 0  0.96 0.16 0  1 0.16 0  1.04 0.16 0  1.08 0.16 0  1.12 0.16 0  1.16 0.16 0  1.2 0.16 0  1.24 0.16 0  1.28 0.16 0  1.32 0.16 0  1.36 0.16 0  1.4 0.16 0  1.44 0.16 0  1.48 0.16 0  1.52 0.16 0  1.56 0.16 0  1.6 0.16 0  1.64 0.16 0  1.68 0.16 0  1.72 0.16 0  1.76 0.16 0  1.8 0.16 0  1.84 0.16 0  1.88 0.16 0  1.92 0.16 0  1.96 0.16 0  2 0.16 0  0 0.18 0  0.04 0.18 0  0.08 0.18 0  0.12 0.18 0  0.16 0.18 0  0.2 0.18 0  0.24 0.18 0  0.28 0.18 0  0.32 0.18 0  0.36 0.18 0  0.4 0.18 0  0.44 0.18 0  0.48 0.18 0  0.52 0.18 0  0.5600000000000001 0.18 0  0.6 0.18 0  0.64 0.18 0  0.68 0.18 0  0.72 0.18 0  0.76 0.18 0  0.8 0.18 0  0.84 0.18 0  0.88 0.18 0  0.92 0.18 0  0.96 0.18 0  1 0.18 0  1.04 0.18 0  1.08 0.18 0  1.12 0.18 0  1.16 0.18 0  1.2 0.18 0  1.24 0.18 0  1.28 0.18 0  1.32 0.18 0  1.36 0.18 0  1.4 0.18 0  1.44 0.18 0  1.48 0.18 0  1.52 0.18 0  1.56 0.18 0  1.6 0.18 0  1.64 0.18 0  1.68 0.18 0  1.72 0.18 0  1.76 0.18 0  1.8 0.18 0  1.84 0.18 0  1.88 0.18 0  1.92 0.18 0  1.96 0.18 0  2 0.18 0  0 0.2 0  0.04 0.2 0  0.08 0.2 0  0.12 0.2 0  0.16 0.2 0  0.2 0.2 0  0.24 0.2 0  0.28 0.2 0  0.32 0.2 0  0.36 0.2 0  0.4 0.2 0  0.44 0.2 0  0.48 0.2 0  0.52 0.2 0  0.5600000000000001 0.2 0  0.6 0.2 0  0.64 0.2 0  0.68 0.2 0  0.72 0.2 0  0.76 0.2 0  0.8 0.2 0  0.84 0.2 0  0.88 0.2 0  0.92 0.2 0  0.96 0.2 0  1 0.2 0  1.04 0.2 0  1.08 0.2 0  1.12 0.2 0  1.16 0.2 0  1.2 0.2 0  1.24 0.2 0  1.28 0.2 0  1.32 0.2 0  1.36 0.2 0  1.4 0.2 0  1.44 0.2 0  1.48 0.2 0  1.52 0.2 0  1.56 0.2 0  1.6 0.2 0  1.64 0.2 0  1.68 0.2 0  1.72 0.2 0  1.76 0.2 0  1.8 0.2 0  1.84 0.2 0  1.88 0.2 0  1.92 0.2 0  1.96 0.2 0  2 0.2 0  0 0.22 0  0.04 0.22 0  0.08 0.22 0  0.12 0.22 0  0.16 0.22 0  0.2 0.22 0  0.24 0.22 0  0.28 0.22 0  0.32 0.22 0  0.36 0.22 0  0.4 0.22 0  0.44 0.22 0  0.48 0.22 0  0.52 0.22 0  0.5600000000000001 0.22 0  0.6 0.22 0  0.64 0.22 0  0.68 0.22 0  0.72 0.22 0  0.76 0.22 0  0.8 0.22 0  0.84 0.22 0  0.88 0.22 0  0.92 0.22 0  0.96 0.22 0  1 0.22 0  1.04 0.22 0  1.08 0.22 0  1.12 0.22 0  1.16 0.22 0  1.2 0.22 0  1.24 0.22 0  1.28 0.22 0  1.32 0.22 0  1.36 0.22 0  1.4 0.22 0  1.44 0.22 0  1.48 0.22 0  1.52 0.22 0  1.56 0.22 0  1.6 0.22 0  1.64 0.22 0  1.68 0.22 0  1.72 0.22 0  1.76 0.22 0  1.8 0.22 0  1.84 0.22 0  1.88 0.22 0  1.92 0.22 0  1.96 0.22 0  2 0.22 0  0 0.24 0  0.04 0.24 0  0.08 0.24 0  0.12 0.24 0  0.16 0.24 0  0.2 0.24 0  0.24 0.24 0  0.28 0.24 0  0.32 0.24 0  0.36 0.24 0  0.4 0.24 0  0.44 0.24 0  0.48 0.24 0  0.52 0.24 0  0.5600000000000001 0.24 0  0.6 0.24 0  0.64 0.24 0  0.68 0.24 0  0.72 0.24 0  0.76 0.24 0  0.8 0.24 0  0.84 0.24 0  0.88 0.24 0  0.92 0.24 0  0.96 0.24 0  1 0.24 0  1.04 0.24 0  1.08 0.24 0  1.12 0.24 0  1.16 0.24 0  1.2 0.24 0  1.24 0.24 0  1.28 0.24 0  1.32 0.24 0  1.36 0.24 0  1.4 0.24 0  1.44 0.24 0  1.48 0.24 0  1.52 0.24 0  1.56 0.24 0  1.6 0.24 0  1.64 0.24 0  1.68 0.24 0  1.72 0.24 0  1.76 0.24 0  1.8 0.24 0  1.84 0.24 0  1.88 0.24 0  1.92 0.24 0  1.96 0.24 0  2 0.24 0  0 0.26 0  0.04 0.26 0  0.08 0.26 0  0.12 0.26 0  0.16 0.26 0  0.2 0.26 0  0.24 0.26 0  0.28 0.26 0  0.32 0.26 0  0.36 0.26 0  0.4 0.26 0  0.44 0.26 0  0.48 0.26 0  0.52 0.26 0  0.5600000000000001 0.26 0  0.6 0.26 0  0.64 0.26 0  0.68 0.26 0  0.72 0.26 0  0.76 0.26 0  0.8 0.26 0  0.84 0.26 0  0.88 0.26 0  0.92 0.26 0  0.96 0.26 0  1 0.26 0  1.04 0.26 0  1.08 0.26 0  1.12 0.26 0  1.16 0.26 0  1.2 0.26 0  1.24 0.26 0  1.28 0.26 0  1.32 0.26 0  1.36 0.26 0  1.4 0.26 0  1.44 0.26 0  1.48 0.26 0  1.52 0.26 0  1.56 0.26 0  1.6 0.26 0  1.64 0.26 0  1.68 0.26 0  1.72 0.26 0  1.76 0.26 0  1.8 0.26 0  1.84 0.26 0  1.88 0.26 0  1.92 0.26 0  1.96 0.26 0  2 0.26 0  0 0.28 0  0.04 0.28 0  0.08 0.28 0  0.12 0.28 0  0.16 0.28 0  0.2 0.28 0  0.24 0.28 0  0.28 0.28 0  0.32 0.28 0  0.36 0.28 0  0.4 0.28 0  0.44 0.28 0  0.48 0.28 0  0.52 0.28 0  0.5600000000000001 0.28 0  0.6 0.28 0  0.64 0.28 0  0.68 0.28 0  0.72 0.28 0  0.76 0.28 0  0.8 0.28 0  0.84 0.28 0  0.88 0.28 0  0.92 0.28 0  0.96 0.28 0  1 0.28 0  1.04 0.28 0  1.08 0.28 0  1.12 0.28 0  1.16 0.28 0  1.2 0.28 0  1.24 0.28 0  1.28 0.28 0  1.32 0.28 0  1.36 0.28 0  1.4 0.28 0  1.44 0.28 0  1.48 0.28 0  1.52 0.28 0  1.56 0.28 0  1.6 0.28 0  1.64 0.28 0  1.68 0.28 0  1.72 0.28 0  1.76 0.28 0  1.8 0.28 0  1.84 0.28 0  1.88 0.28 0  1.92 0.28 0  1.96 0.28 0  2 0.28 0  0 0.3 0  0.04 0.3 0  0.08 0.3 0  0.12 0.3 0  0.16 0.3 0  0.2 0.3 0  0.24 0.3 0  0.28 0.3 0  0.32 0.3 0  0.36 0.3 0  0.4 0.3 0  0.44 0.3
[...]
<PointData  Vectors="f_26-1"> 
<DataArray  type="Float64"  Name="f_26-1"  NumberOfComponents="3" format="ascii">1.0000000000000000e-04 0.0000000000000000e+00 0.0000000000000000e+00  9.7999999985745950e-05 1.3288579436166707e-13 0.0000000000000000e+00  9.5999999971489212e-05 2.6549281451580080e-13 0.0000000000000000e+00  9.3999999957227677e-05 3.9753930281743047e-13 0.0000000000000000e+00  9.1999999942959812e-05 5.2873756171392672e-13 0.0000000000000000e+00  8.9999999928684643e-05 6.5879105388856461e-13 0.0000000000000000e+00  8.7999999914402223e-05 7.8739159402930094e-13 0.0000000000000000e+00  8.5999999900113663e-05 9.1421667529660970e-13 0.0000000000000000e+00  8.3999999885821472e-05 1.0389269844233758e-12 0.0000000000000000e+00  8.1999999871529457e-05 1.1611641732721114e-12 0.0000000000000000e+00  7.9999999857243350e-05 1.2805489716500274e-12 0.0000000000000000e+00  7.7999999842971108e-05 1.3966797453790196e-12 0.0000000000000000e+00  7.5999999828723735e-05 1.5091316231830634e-12 0.0000000000000000e+00  7.3999999814516356e-05 1.6174563336210542e-12 0.0000000000000000e+00  7.1999999800369379e-05 1.7211829056364002e-12 0.0000000000000000e+00  6.9999999786309939e-05 1.8198193878827599e-12 0.0000000000000000e+00  6.7999999772374477e-05 1.9128557270176401e-12 0.0000000000000000e+00  6.5999999758610699e-05 1.9997679052205316e-12 0.0000000000000000e+00  6.3999999745080675e-05 2.0800233572094964e-12 0.0000000000000000e+00  6.1999999731864933e-05 2.1530875267012216e-12 0.0000000000000000e+00  5.9999999719065898e-05 2.2184311374206764e-12 0.0000000000000000e+00  5.7999999706812624e-05 2.2755373321122878e-12 0.0000000000000000e+00  5.5999999695264907e-05 2.3239073238674177e-12 0.0000000000000000e+00  5.3999999684616272e-05 2.3630628038950697e-12 0.0000000000000000e+00  5.1999999675094719e-05 2.3925435318358685e-12 0.0000000000000000e+00  4.9999999666960823e-05 2.4119000916734811e-12 0.0000000000000000e+00  4.7999999660500143e-05 2.4206854800893132e-12 0.0000000000000000e+00  4.5999999656011036e-05 2.4184543637583147e-12 0.0000000000000000e+00  4.3999999653786917e-05 2.4047814470902607e-12 0.0000000000000000e+00  4.1999999654093494e-05 2.3793035665005352e-12 0.0000000000000000e+00  3.9999999657139430e-05 2.3417728908213912e-12 0.0000000000000000e+00  3.7999999663042164e-05 2.2920971176524594e-12 0.0000000000000000e+00  3.5999999671794514e-05 2.2303543775976405e-12 0.0000000000000000e+00  3.3999999683244758e-05 2.1567880487476439e-12 0.0000000000000000e+00  3.1999999697100739e-05 2.0717949739950907e-12 0.0000000000000000e+00  2.9999999712959847e-05 1.9759205295406717e-12 0.0000000000000000e+00  2.7999999730358730e-05 1.8698718883157559e-12 0.0000000000000000e+00  2.5999999748830748e-05 1.7545598428440444e-12 0.0000000000000000e+00  2.3999999767956585e-05 1.6311764610185958e-12 0.0000000000000000e+00  2.1999999787398890e-05 1.5012981986996067e-12 0.0000000000000000e+00  1.9999999806917693e-05 1.3669496698788773e-12 0.0000000000000000e+00  1.7999999826369529e-05 1.2304669957848514e-12 0.0000000000000000e+00  1.5999999845695109e-05 1.0939806441466534e-12 0.0000000000000000e+00  1.3999999864900391e-05 9.5859752564123073e-13 0.0000000000000000e+00  1.1999999884033494e-05 8.2408542730169595e-13 0.0000000000000000e+00  9.9999999031605298e-06 6.8954751571393717e-13 0.0000000000000000e+00  7.9999999223429958e-06 5.5413065341867775e-13 0.0000000000000000e+00  5.9999999416209106e-06 4.1736135451934744e-13 0.0000000000000000e+00  3.9999999610049467e-06 2.7918908029725658e-13 0.0000000000000000e+00  1.9999999804775583e-06 1.3990012932578035e-13 0.0000000000000000e+00  0.0000000000000000e+00 0.0000000000000000e+00 0.0000000000000000e+00  1.0000000000000000e-04 0.0000000000000000e+00 0.0000000000000000e+00  9.7999999985746248e-05 1.3292064113760863e-13 0.0000000000000000e+00  9.5999999971489768e-05 2.6556288099736375e-13 0.0000000000000000e+00  9.3999999957228503e-05 3.9764533149307211e-13 0.0000000000000000e+00  9.1999999942960734e-05 5.2888065755415892e-13 0.0000000000000000e+00  8.9999999928685564e-05 6.5897267289280212e-13 0.0000000000000000e+00  8.7999999914403009e-05 7.8761352638847974e-13 0.0000000000000000e+00  8.5999999900114138e-05 9.1448102181417743e-13 0.0000000000000000e+00  8.3999999885821445e-05 1.0392361244581294e-12 0.0000000000000000e+00  8.1999999871528725e-05 1.1615207220809637e-12 0.0000000000000000e+00  7.9999999857241616e-05 1.2809557247311429e-12 0.0000000000000000e+00  7.7999999842967978e-05 1.3971396073696376e-12 0.0000000000000000e+00  7.5999999828718748e-05 1.5096475191038202e-12 0.0000000000000000e+00  7.3999999814508820e-05 1.6180311009238846e-12 0.0000000000000000e+00  7.1999999800358402e-05 1.7218191668575226e-12 0.0000000000000000e+00  6.9999999786294462e-05 1.8205194057716960e-12 0.0000000000000000e+00  6.7999999772353037e-05 1.9136212471341395e-12 0.0000000000000000e+00  6.5999999758581466e-05 2.0005999959972720e-12 0.0000000000000000e+00  6.3999999745041413e-05 2.0809222675216524e-12 0.0000000000000000e+00  6.1999999731812838e-05 2.1540525965477556e-12 0.0000000000000000e+00  5.9999999718997675e-05 2.2194608144241566e-12 0.0000000000000000e+00  5.7999999706724438e-05 2.2766293574793479e-12 0.0000000000000000e+00  5.5999999695152557e-05 2.3250591378333527e-12 0.0000000000000000e+00  5.3999999684475373e-05 2.3642721479059261e-12 0.0000000000000000e+00  5.1999999674921274e-05 2.3938090528487678e-12 0.0000000000000000e+00  4.9999999666751674e-05 2.4132214881012041e-12 0.0000000000000000e+00  4.7999999660253717e-05 2.4220625431826671e-12 0.0000000000000000e+00  4.5999999655727917e-05 2.4198845888004469e-12 0.0000000000000000e+00  4.3999999653470601e-05 2.4062570675804704e-12 0.0000000000000000e+00  4.1999999653751069e-05 2.3808101658867128e-12 0.0000000000000000e+00  3.9999999656782314e-05 2.3432910280076154e-12 0.0000000000000000e+00  3.7999999662685963e-05 2.2936054885131955e-12 0.0000000000000000e+00  3.5999999671457293e-05 2.2318323261970385e-12 0.0000000000000000e+00  3.3999999682944055e-05 2.1582163919854636e-12 0.0000000000000000e+00  3.1999999696850356e-05 2.0731551452078245e-12 0.0000000000000000e+00  2.9999999712767371e-05 1.9771923041369832e-12 0.0000000000000000e+00  2.7999999730224597e-05 1.8710298138466063e-12 0.0000000000000000e+00  2.5999999748749027e-05 1.7555687598882615e-12 0.0000000000000000e+00  2.3999999767917035e-05 1.6319883210802888e-12 0.0000000000000000e+00  2.1999999787389329e-05 1.5018569820123244e-12 0.0000000000000000e+00  1.9999999806926072e-05 1.3672164380380399e-12 0.0000000000000000e+00  1.7999999826385297e-05 1.2304674554778726e-12 0.0000000000000000e+00  1.5999999845710153e-05 1.0938427400050568e-12 0.0000000000000000e+00  1.3999999864909415e-05 9.5848864812049491e-13 0.0000000000000000e+00  1.1999999884034253e-05 8.2408865395772420e-13 0.0000000000000000e+00  9.9999999031536045e-06 6.8965738455237503e-13 0.0000000000000000e+00  7.9999999223310696e-06 5.5429970799418656e-13 0.0000000000000000e+00  5.9999999416076452e-06 4.1753672643469245e-13 0.0000000000000000e+00  3.9999999609938768e-06 2.7932866489092983e-13 0.0000000000000000e+00  1.9999999804713309e-06 1.3997652662006843e-13 0.0000000000000000e+00  0.0000000000000000e+00 0.0000000000000000e+00 0.0000000000000000e+00  1.0000000000000000e-04 0.0000000000000000e+00 0.0000000000000000e+00  9.7999999985747170e-05 1.3302508823301342e-13 0.0000000000000000e+00  9.5999999971491543e-05 2.6577289481993827e-13 0.0000000000000000e+00  9.3999999957230956e-05 3.9796314127736939e-13 0.0000000000000000e+00  9.1999999942963539e-05 5.2930958107500218e-13 0.0000000000000000e+00  8.9999999928688329e-05 6.5951708235778137e-13 0.0000000000000000e+00  8.7999999914405286e-05 7.8827879826515291e-13 0.0000000000000000e+00  8.5999999900115547e-05 9.1527346652718129e-13 0.0000000000000000e+00  8.3999999885821404e-05 1.0401628907481621e-12 0.0000000000000000e+00  8.1999999871526543e-05 1.1625896696329792e-12 0.0000000000000000e+00  7.9999999857236466e-05 1.2821752578151790e-12 0.0000000000000000e+00  7.7999999842958748e-05 1.3985184620863337e-12 0.0000000000000000e+00  7.5999999828703894e-05 1.5111944975031058e-12 0.0000000000000000e+00  7.3999999814486391e-05 1.6197547471983221e-12 0.0000000000000000e+00  7.1999999800325795e-05 1.7237273848335123e-12 0.0000000000000000e+00  6.9999999786248343e-05 1.8226190230485646e-12 0.0000000000000000e+00  6.7999999772289137e-05 1.9159175403754660e-12 0.0000000000000000e+00  6.5999999758494310e-05 2.0030962061087010e-12 0.0000000000000000e+00  6.3999999744924292e-05 2.0836191634583779e-12 0.0000000000000000e+00  6.1999999731657390e-05 2.1569481941817152e-12 0.0000000000000000e+00  5.9999999718793940e-05 2.2225504101329382e-12 0.0000000000000000e+00  5.7999999706460949e-05 2.2799060735217045e-12 0.0000000000000000e+00  5.5999999694816556e-05 2.3285151443696452e-12 0.0000000000000000e+00  5.3999999684053714e-05 2.3679005181992093e-12 0.0000000000000000e+00  5.1999999674401724e-05 2.3976056912842684e-12 0.0000000000000000e+00  4.9999999666124626e-05 2.4171857295716694e-12 0.0000000000000000e+00  4.7999999659514230e-05 2.4261943586419415e-12 0.0000000000000000e+00  4.5999999654877666e-05 2.4241772055520172e-12 0.0000000000000000e+00  4.3999999652519823e-05 2.4106875331891255e-12 0.0000000000000000e+00  4.1999999652720928e-05 2.3853348243192258e-12 0.0000000000000000e+00  3.9999999655707138e-05 2.3478507655976686e-12 0.0000000000000000e+00  3.7999999661612867e-05 2.2981357650793670e-12 0.0000000000000000e+00  3.5999999670441199e-05 2.2362709677702903e-12 0.0000000000000000e+00  3.3999999682038468e-05 2.1625060633648008e-12 0.0000000000000000e+00  3.1999999696097303e-05 2.0772407149938576e-12 0.0000000000000000e+00  2.9999999712189840e-05 1.9810139910381784e-12 0.0000000000000000e+00  2.7999999729823662e-05 1.8745123802944479e-12 0.0000000000000000e+00  2.5999999748506402e-05 1.7586075231448850e-12 0.0000000000000000e+00  2.3999999767801405e-05 1.6344379062069800e-12 0.0000000000000000e+00  2.1999999787363674e-05 1.5035430665516217e-12 0.0000000000000000e+00  1.9999999806953827e-05 1.3680103158436734e-12 0.0000000000000000e+00  1.7999999826434659e-05 1.2304368483990557e-12 0.0000000000000000e+00  1.5999999845756587e-05 1.0933871799663969e-12 0.0000000000000000e+00  1.3999999864937039e-05 9.5814124616931094e-13 0.0000000000000000e+00  1.1999999884036382e-05 8.2409969942439722e-13 0.0000000000000000e+00  9.9999999031321508e-06 6.8999885517902227e-13 0.0000000000000000e+00  7.9999999222943660e-06 5.5482008882002203e-13 0.0000000000000000e+00  5.9999999415669579e-06 4.1807336834610441e-13 0.0000000000000000e+00  3.9999999609600023e-06 2.7975426866637795e-13 0.0000000000000000e+00  1.9999999804522998e-06 1.4020902100165826e-13 0.0000000000000000e+00  0.0000000000000000e+00 0.0000000000000000e+00 0.0000000000000000e+00  1.0000000000000000e-04 0.0000000000000000e+00 0.0000000000000000e+00  9.7999999985748783e-05 1.3319885573994038e-13 0.0000000000000000e+00  9.5999999971494633e-05 2.6612229867488619e-13 0.0000000000000000e+00  9.3999999957235117e-05 3.9849190272661630e-13 0.0000000000000000e+00  9.1999999942968323e-05 5.3002323922455894e-13 0.0000000000000000e+00  8.9999999928693099e-05 6.6042293816661236e-13 0.0000000000000000e+00  8.7999999914409270e-05 7.8938583205316183e-13 0.0000000000000000e+00  8.5999999900118000e-05 9.1659222225044610e-13 0.0000000000000000e+00  8.3999999885821526e-05 1.0417053183722357e-12 0.0000000000000000e+00  8.1999999871523182e-05 1.1643689148606493e-12 0.0000000000000000e+00  7.9999999857228226e-05 1.2842053868769765e-12 0.0000000000000000e+00  7.7999999842943759e-05 1.4008141090166248e-12 0.0000000000000000e+00  7.5999999828679730e-05 1.5137704223327799e-12 0.0000000000000000e+00  7.3999999814449718e-05 1.6226252964877665e-12 0.0000000000000000e+00  7.1999999800272411e-05 1.7269058526645364e-12 0.0000000000000000e+00  6.9999999786172666e-05 1.8261169205474719e-12 0.0000000000000000e+00  6.7999999772184119e-05 1.9197437965152095e-12 0.0000000000000000e+00  6.5999999758350978e-05 2.0072563433160204e-12 0.0000000000000000e+00  6.3999999744731372e-05 2.0881145410516889e-12 0.0000000000000000e+00  6.1999999731401085e-05 2.1617754955087032e-12 0.0000000000000000e+00  5.9999999718457627e-05 2.2277016439823342e-12 0.0000000000000000e+00  5.7999999706025337e-05 2.2853694376992690e-12 0.0000000000000000e+00  5.5999999694260177e-05 2.3342770751605332e-12 0.0000000000000000e+00  5.3999999683354356e-05 2.3739489386786247e-12 0.0000000000000000e+00  5.1999999673538483e-05 2.4039336134191834e-12 0.0000000000000000e+00  4.9999999665080932e-05 2.4237928233464184e-12 0.0000000000000000e+00  4.7999999658281296e-05 2.4330826196412662e-12 0.0000000000000000e+00  4.5999999653457754e-05 2.4313379521218318e-12 0.0000000000000000e+00  4.3999999650929359e-05 2.4180837579245323e-12 0.0000000000000000e+00  4.1999999650994519e-05 2.3928923202146536e-12 0.0000000000000000e+00  3.9999999653902050e-05 2.3554682386369097e-12 0.0000000000000000e+00  3.7999999659809134e-05 2.3057034908432332e-12 0.0000000000000000e+00  3.5999999668732883e-05 2.2436846361176465e-12 0.0000000000000000e+00  3.3999999680517488e-05 2.1696708457355007e-12 0.0000000000000000e+00  3.1999999694835813e-05 2.0840666286760752e-12 0.0000000000000000e+00  2.9999999711226964e-05 1.9874043996363882e-12 0.0000000000000000e+00  2.7999999729160513e-05 1.8803457583437475e-12 0.0000000000000000e+00  2.5999999748110723e-05 1.7637124763485946e-12 0.0000000000000000e+00  2.3999999767618958e-05 1.6385687970130347e-12 0.0000000000000000e+00  2.1999999787331029e-05 1.5063886288540669e-12 0.0000000000000000e+00  1.9999999807008915e-05 1.3693143728334739e-12 0.0000000000000000e+00  1.7999999826523753e-05 1.2302752915672493e-12 0.0000000000000000e+00  1.5999999845838394e-05 1.0924806862688436e-12 0.0000000000000000e+00  1.3999999864984945e-05 9.5749274745508349e-13 0.0000000000000000e+00  1.1999999884039411e-05 8.2412556926618535e-13 0.0000000000000000e+00  9.9999999030940903e-06 6.9060980633407648e-13 0.0000000000000000e+00  7.9999999222300762e-06 5.5573245817458685e-13 0.0000000000000000e+00  5.9999999414961587e-06 4.1900310505896862e-13 0.0000000000000000e+00  3.9999999609013147e-06 2.8048640943807429e-13 0.0000000000000000e+00  1.9999999804194175e-06 1.4060745871748276e-13 0.0000000000000000e+00  0.0000000000000000e+00 0.0000000000000000e+00 0.0000000000000000e+00  1.0000000000000000e-04 0.0000000000000000e+00 0.0000000000000000e+00  9.7999999985751141e-05 1.3344147644811596e-13 0.0000000000000000e+00  9.5999999971499038e-05 2.6661016225063827e-13 0.0000000000000000e+00  9.3999999957241175e-05 3.9923023106431026e-13 0.0000000000000000e+00  9.1999999942975194e-05 5.3101980676308794e-13 0.0000000000000000e+00  8.9999999928699943e-05 6.6168799523931914e-13 0.0000000000000000e+00  8.7999999914415138e-05 7.9093199176348757e-13 0.0000000000000000e+00  8.5999999900121795e-05 9.1843430149258523e-13 0.0000000000000000e+00  8.3999999885822055e-05 1.0438601209046528e-12 0.0000000000000000e+00  8.1999999871518967e-05 1.1668549412063423e-12 0.0000000000000000e+00  7.9999999857217343e-05 1.2870424534079437e-12 0.0000000000000000e+00  7.7999999842923715e-05 1.4040228581527888e-12 0.0000000000000000e+00  7.5999999828647055e-05 1.5173717069527465e-12 0.0000000000000000e+00  7.3999999814399926e-05 1.6266394252717663e-12 0.0000000000000000e+00  7.1999999800199607e-05 1.7313516925690198e-12 0.0000000000000000e+00  6.9999999786069301e-05 1.8310108660251804e-12 0.0000000000000000e+00  6.7999999772040299e-05 1.9250986349466845e-12 0.0000000000000000e+00  6.5999999758154304e-05 2.0130800677896259e-12 0.0000000000000000e+00  6.3999999744466176e-05 2.0944092294646626e-12 0.0000000000000000e+00  6.1999999731048055e-05 2.1685364983315387e-12 0.0000000000000000e+00  5.9999999717993541e-05 2.2349174665209057e-12 0.0000000000000000e+00  5.7999999705422934e-05 2.2930228409407521e-12 0.0000000000000000e+00  5.5999999693489018e-05 2.3423479494372143e-12 0.0000000000000000e+00  5.3999999682382524e-05 2.3824191563524286e-12 0.0000000000000000e+00  5.1999999672335655e-05 2.4127929017574291e-12 0.0000000000000000e+00  4.9999999663622789e-05 2.4330422705292645e-12 0.0000000000000000e+00  4.7999999656554358e-05 2.4427294965941639e-12 0.0000000000000000e+00  4.5999999651464069e-05 2.4413760803611130e-12 0.0000000000000000e+00  4.3999999648690543e-05 2.4284642935380852e-12 0.0000000000000000e+00  4.1999999648557510e-05 2.4035079770770495e-12 0.0000000000000000e+00  3.9999999651347114e-05 2.3661708782301345e-12 0.0000000000000000e+00  3.7999999657251291e-05 2.3163347433400793e-12 0.0000000000000000e+00  3.5999999666309372e-05 2.2540970383791421e-12 0.0000000000000000e+00  3.3999999678363104e-05 2.1797332347755230e-12 0.0000000000000000e+00  3.1999999693056156e-05 2.0936570453533595e-12 0.0000000000000000e+00  2.9999999709878494e-05 1.9963939112978367e-12 0.0000000000000000e+00  2.7999999728243190e-05 1.8885727965686754e-12 0.0000000000000000e+00  2.5999999747575547e-05 1.7709450288874068e-12 0.0000000000000000e+00  2.3999999767385566e-05 1.6444588100249433e-12 0.0000000000000000e+00  2.1999999787306970e-05 1.5104577131219204e-12 0.0000000000000000e+00  1.9999999807104789e-05 1.3711096361346835e-12 0.0000000000000000e+00  1.7999999826662897e-05 1.2298026157434876e-12 0.0000000000000000e+00  1.5999999845962223e-05 1.0908725259501298e-12 0.0000000000000000e+00  1.3999999865055884e-05 9.5643905858464132e-13 0.0000000000000000e+00  1.1999999884042384e-05 8.2418858529377677e-13 0.0000000000000000e+00  9.9999999030357111e-06 6.9156115379597625e-13 0.0000000000000000e+00  7.9999999221332722e-06 5.5710782876818452e-13 0.0000000000000000e+00  5.9999999413905913e-06 4.2037967739815178e-13 0.0000000000000000e+00  3.9999999608143922e-06 2.8155911398469520e-13 0.0000000000000000e+00  1.9999999803709160e-06 1.4118802343253015e-13 0.0000000000000000e+00  0.0000000000000000e+00 0.0000000000000000e+00 0.0000000000000000e+00  1.0000000000000000e-04 0.0000000000000000e+00 0.0000000000000000e+00  9.7999999985754258e-05 1.3375229481769004e-13 0.0000000000000000e+00  9.5999999971504974e-05 2.6723518007360298e-13 0.0000000000000000e+00  9.3999999957249157e-05 4.0017618268072735e-13 0.0000000000000000e+00  9.1999999942984423e-05 5.3229672110725339e-13 0.0000000000000000e+00  8.9999999928709146e-05 6.6330910030004120e-13 0.0000000000000000e+00  8.7999999914423121e-05 7.9291357317258066e-13 0.0000000000000000e+00  8.5999999900127216e-05 9.2079550331398230e-13 0.0000000000000000e+00  8.3999999885823342e-05 1.0466226732146635e-12 0.0000000000000000e+00  8.1999999871514386e-05 1.1700427945770561e-12 0.0000000000000000e+00  7.9999999857204468e-05 1.2906812968030997e-12 0.0000000000000000e+00  7.7999999842899361e-05 1.4081394962751734e-12 0.0000000000000000e+00  7.5999999828606967e-05 1.5219932741929473e-12 0.0000000000000000e+00  7.3999999814338451e-05 1.6317924168112076e-12 0.0000000000000000e+00  7.1999999800109293e-05 1.7370608059337760e-12 0.0000000000000000e+00  6.9999999785940579e-05 1.8372976626365520e-12 0.0000000000000000e+00  6.7999999771860742e-05 1.9319800573978010e-12 0.0000000000000000e+00  6.5999999757908109e-05 2.0205668600552095e-12 0.0000000000000000e+00  6.3999999744133475e-05 2.1025043910796759e-12 0.0000000000000000e+00  6.1999999730604155e-05 2.1772340763237527e-12 0.0000000000000000e+00  5.9999999717408438e-05 2.2442021875018572e-12 0.0000000000000000e+00  5.7999999704661336e-05 2.3028713106630817e-12 0.0000000000000000e+00  5.5999999692511007e-05 2.3527322991092068e-12 0.0000000000000000e+00  5.3999999681145748e-05 2.3933137394037830e-12 0.0000000000000000e+00  5.1999999670799327e-05 2.4241832842539665e-12 0.0000000000000000e+00  4.9999999661753543e-05 2.4449322533888469e-12 0.0000000000000000e+00  4.7999999654332910e-05 2.4551365341215480e-12 0.0000000000000000e+00  4.5999999648891196e-05 2.4543038012478871e-12 0.0000000000000000e+00  4.3999999645791617e-05 2.4418559615611415e-12 0.0000000000000000e+00  4.199999