<?xml version="1.0"?>
<VTKFile type="UnstructuredGrid"  version="0.1"  >
<UnstructuredGrid>
<Piece  NumberOfPoints="1419" NumberOfCells="2698">
<Points>
<DataArray  type="Float64"  NumberOfComponents="3"  format="ascii">0 0 0  0 0.41 0  2.5 0 0  2.5 0.41 0  0.6 0.19 0  0.6 0.21 0  0.25 0.2 0  0.15 0.2 0  0.2489897948556636 0.21 0  0.2489897948556636 0.19 0  0.6 0.2 0  0 0.3807142857143437 0  0 0.3514285714286952 0  0 0.3221428571430699 0  0 0.29285714285744 0  0 0.2635714285718054 0  0 0.2342857142861561 0  0 0.2050000000005308 0  0 0.175714285714732 0  0 0.1464285714289574 0  0 0.1171428571431897 0  0 0.08785714285737878 0  0 0.05857142857161107 0  0 0.02928571428580012 0  0.03015443760436003 0 0  0.06140001986583606 0 0  0.09377624077125973 0 0  0.1273239957535082 0 0  0.1620856860351972 0 0  0.1981052433264291 0 0  0.235428184091502 0 0  0.2741016576309132 0 0  0.3141745521465447 0 0  0.3556974926295285 0 0  0.3987229542472677 0 0  0.4433053055141081 0 0  0.4895008759286886 0 0  0.5373680609405097 0 0  0.5869673343216626 0 0  0.6383613676634521 0 0  0.6916151138468254 0 0  0.7467958595648856 0 0  0.8039733463919316 0 0  0.8632198139502143 0 0  0.9246101326867038 0 0  0.9882218810934433 0 0  1.054135445558498 0 0  1.122434100542598 0 0  1.193204177141305 0 0  1.266535089879536 0 0  1.342519516046404 0 0  1.421253448503939 0 0  1.502836389106271 0 0  1.587371439758838 0 0  1.674965418777374 0 0  1.765729001825544 0 0  1.859776908880082 0 0  1.957227977487062 0 0  2.058205329869943 0 0  2.162836591189951 0 0  2.271253957290865 0 0  2.383594446803425 0 0  2.5 0.1024999999997612 0  2.5 0.2049999999994743 0  2.5 0.3074999999997183 0  2.383594446803656 0.41 0  2.271253957291315 0.41 0  2.162836591190598 0.41 0  2.058205329870775 0.41 0  1.957227977488067 0.41 0  1.859776908881246 0.41 0  1.765729001826854 0.41 0  1.674965418778818 0.41 0  1.58737143976041 0.41 0  1.502836389107956 0.41 0  1.421253448505726 0.41 0  1.342519516048286 0.41 0  1.266535089881505 0.41 0  1.193204177143353 0.41 0  1.122434100544716 0.41 0  1.05413544556068 0.41 0  0.9882218810956305 0.41 0  0.9246101326886647 0.41 0  0.8632198139519631 0.41 0  0.8039733463934788 0.41 0  0.7467958595662458 0.41 0  0.6916151138480078 0.41 0  0.6383613676644679 0.41 0  0.5869673343225223 0.41 0  0.5373680609412221 0.41 0  0.4895008759292634 0.41 0  0.4433053055145528 0.41 0  0.3987229542475914 0.41 0  0.3556974926297398 0.41 0  0.3141745521466497 0.41 0  0.2741016576310038 0.41 0  0.2354281840915826 0.41 0  0.1981052433265003 0.41 0  0.1620856860352591 0.41 0  0.1273239957535623 0.41 0  0.09377624077128965 0.41 0  0.06140001986584975 0.41 0  0.03015443760436654 0.41 0  0.2497468076502589 0.2050254481002335 0  0.2497468076502614 0.1949745518997913 0  0.2469965252529372 0.1829317073451959 0  0.2439893735792749 0.1762316384219906 0  0.2400332147834255 0.1700443375285386 0  0.2352133972704371 0.1645032867342007 0  0.2296339016332438 0.1597280261969788 0  0.2234150974217223 0.1558215752574715 0  0.2166911463437691 0.1528682099456123 0  0.2096071079204251 0.1509316448471593 0  0.2023158100364996 0.1500536585536553 0  0.194974551899914 0.1502531923497262 0  0.1877417105387872 0.1515259415822739 0  0.1807733240461124 0.153844448527136 0  0.1742197252835808 0.15715869474974 0  0.1682222986673531 0.1613971801805478 0  0.162910430003803 0.1664684656256651 0  0.1583987151779087 0.1722631454351573 0  0.1547844879126891 0.178656207771761 0  0.1521457199348551 0.1855097315605723 0  0.1505393388476355 0.1926758619366523 0  0.1505393388476328 0.2073241380633295 0  0.1521457199348437 0.2144902684393899 0  0.1547844879126531 0.221343792228163 0  0.1583987151778488 0.2277368545647528 0  0.1629104300036858 0.2335315343742052 0  0.1682222986671726 0.2386028198193036 0  0.1742197252833576 0.2428413052501257 0  0.1807733240458683 0.2461555514727623 0  0.1877417105384929 0.2484740584176516 0  0.1949745518995776 0.2497468076502398 0  0.202315810036185 0.2499463414463592 0  0.2096071079201568 0.2490683551528932 0  0.2166911463435495 0.2471317900544655 0  0.2234150974215506 0.2441784247426195 0  0.2296339016331197 0.2402719738031125 0  0.2352133972703547 0.2354967132658811 0  0.2400332147833751 0.2299556624715287 0  0.2439893735792577 0.2237683615780412 0  0.246996525252926 0.2170682926548348 0  0.25645809709277 0.21 0  0.2639263993298655 0.21 0  0.271394701566961 0.21 0  0.2788630038040554 0.21 0  0.2863313060411479 0.21 0  0.2937996082782405 0.21 0  0.301267910515333 0.21 0  0.3087362127524279 0.21 0  0.3162045149895234 0.21 0  0.3236728172265972 0.21 0  0.3311411194636928 0.21 0  0.3386094217007701 0.21 0  0.3460777239378666 0.21 0  0.3535460261749672 0.21 0  0.3610143284120516 0.21 0  0.3684826306491596 0.21 0  0.3759509328862226 0.21 0  0.383419235123329 0.21 0  0.3908875373604028 0.21 0  0.3983558395975142 0.21 0  0.4058241418345938 0.21 0  0.4132924440716992 0.21 0  0.4207607463087888 0.21 0  0.4282290485459029 0.21 0  0.4356973507830418 0.21 0  0.4431656530201649 0.21 0  0.4506339552573136 0.21 0  0.4581022574944306 0.21 0  0.4655705597315852 0.21 0  0.4730388619686996 0.21 0  0.480507164205851 0.21 0  0.4879754664429498 0.21 0  0.4954437686800938 0.21 0  0.502912070917267 0.21 0  0.5103803731544119 0.21 0  0.5178486753915261 0.21 0  0.5253169776286404 0.21 0  0.5327852798657868 0.21 0  0.5402535821029386 0.21 0  0.54772188434007 0.21 0  0.5551901865771842 0.21 0  0.5626584888143201 0.21 0  0.5701267910514778 0.21 0  0.5775950932886138 0.21 0  0.5850633955257281 0.21 0  0.5925316977628483 0.21 0  0.6 0.2050000000000054 0  0.6 0.1950000000000217 0  0.5925316977628897 0.19 0  0.5850633955257988 0.19 0  0.5775950932887378 0.19 0  0.5701267910515998 0.19 0  0.5626584888145268 0.19 0  0.5551901865773963 0.19 0  0.547721884340339 0.19 0  0.5402535821032429 0.19 0  0.5327852798661811 0.19 0  0.5253169776290537 0.19 0  0.5178486753919799 0.19 0  0.5103803731549078 0.19 0  0.502912070917822 0.19 0  0.4954437686807294 0.19 0  0.4879754664436223 0.19 0  0.4805071642065402 0.19 0  0.4730388619694271 0.19 0  0.4655705597323621 0.19 0  0.4581022574952563 0.19 0  0.4506339552581777 0.19 0  0.4431656530210671 0.19 0  0.4356973507839815 0.19 0  0.4282290485468779 0.19 0  0.4207607463097617 0.19 0  0.4132924440726327 0.19 0  0.4058241418354857 0.19 0  0.3983558395983636 0.19 0  0.3908875373612097 0.19 0  0.3834192351240934 0.19 0  0.3759509328869369 0.19 0  0.3684826306498175 0.19 0  0.361014328412667 0.19 0  0.3535460261755617 0.19 0  0.3460777239384295 0.19 0  0.3386094217012945 0.19 0  0.3311411194641595 0.19 0  0.3236728172270245 0.19 0  0.3162045149898895 0.19 0  0.3087362127527544 0.19 0  0.3012679105156187 0.19 0  0.2937996082784807 0.19 0  0.2863313060413428 0.19 0  0.2788630038042048 0.19 0  0.2713947015670686 0.19 0  0.2639263993299336 0.19 0  0.2564580970927985 0.19 0  0.2607803159922026 0.2000727136295815 0  0.5887803774232762 0.2001272386983733 0  0.5745072403740523 0.2002044435018727 0  0.5511891430099709 0.2001122610077113 0  0.2751288526855082 0.20000000000002 0  0.5365194309847112 0.1999999999999436 0  0.2894621222999649 0.1998691686390484 0  0.5215828265105155 0.1999999999999228 0  0.3127789816668748 0.1998657885438805 0  0.3274069683451451 0.2000000000000796 0  0.5066462220363641 0.199999999999908 0  0.3650630746574081 0.199866017807523 0  0.476773013087985 0.1999999999998713 0  0.3417402379596385 0.1998691686391011 0  0.3796850840047755 0.200000000000134 0  0.4618364086138087 0.1999999999998546 0  0.4917096175621762 0.1999999999998808 0  0.3946216884789568 0.2000000000001512 0  0.446899804139621 0.1999999999998389 0  0.4089549580935208 0.1998691686391595 0  0.4322718174608562 0.200127451265745 0  0.4201487168029707 0.1999966199048527 0  0.3528922713220932 0.2000185703532356 0  0.5633122436674589 0.1999814296467508 0  0.3006558810093873 0.1999966199048318 0  0.5815926498168407 0.1966545283159175 0  0.2677053789419034 0.1964246479135325 0  0.5290511287476175 0.1970915826863981 0  0.5439877332217911 0.197091582686394 0  0.2825131256993216 0.2035478995978015 0  0.3199386661080599 0.202908417313604 0  0.4842413153250809 0.1970915826863873 0  0.5141145242734466 0.1970915826863843 0  0.3722167817676917 0.2029084173136195 0  0.4693047108508938 0.1970915826863783 0  0.3348752705822316 0.202908417313609 0  0.3871533862418661 0.2029084173136212 0  0.4543681063767183 0.1970915826863795 0  0.4991779197992749 0.1970915826863902 0  0.4020059614928624 0.203547899597858 0  0.4394315019025246 0.1970915826863714 0  0.2550657455369551 0.2034088125358657 0  0.2548908499171161 0.1966940311614271 0  0.5946539510196798 0.2024302972968126 0  0.267698176732111 0.2039977513680092 0  0.4261685417851465 0.196409292431739 0  0.3590076176283495 0.196411355804271 0  0.5571672426447437 0.2036011176410121 0  0.3066757059912147 0.1964092924317024 0  0.594380730180568 0.1966558399668133 0  0.4842413153245942 0.2040749161535287 0  0.4693047108503577 0.2040749161535231 0  0.3871533862424271 0.1959250838464788 0  0.372246743208829 0.1959123236376545 0  0.5141145242731028 0.2040749161535395 0  0.4543681063761134 0.2040749161535186 0  0.4019979587101454 0.1959834479682427 0  0.4394608940728603 0.2040870543693135 0  0.5439623148931173 0.2040856076781014 0  0.5290511287473298 0.2040749161535501 0  0.4991779197988497 0.2040749161535382 0  0.3347912413592433 0.1959225448935183 0  0.3199680582793816 0.1959123018030061 0  0.2825051229162361 0.1959834479681729 0  0.3590471196690275 0.2036304442587945 0  0.5571594006495384 0.1963685282145804 0  0.3067669986803285 0.203627750582736 0  0.4262598344738712 0.2036568242185335 0  0.5814408164431408 0.2041285596160068 0  0.5688286748170428 0.1961819304477386 0  0.4145905603063645 0.2038180695522843 0  0.3473758401724931 0.2038180695522752 0  0.2950977245128307 0.2038180695522663 0  0.5688286748170693 0.203818069552238 0  0.2950977245127906 0.1961819304477774 0  0.3473758401723931 0.1961819304478349 0  0.4145905603061963 0.1961819304479011 0  0.2601812407614425 0.2056861609747042
[...]
<PointData  Vectors="f_40-1"> 
<DataArray  type="Float64"  Name="f_40-1"  NumberOfComponents="3" format="ascii">0.0000000000000000e+00 0.0000000000000000e+00 0.0000000000000000e+00  0.0000000000000000e+00 0.0000000000000000e+00 0.0000000000000000e+00  0.0000000000000000e+00 0.0000000000000000e+00 0.0000000000000000e+00  0.0000000000000000e+00 0.0000000000000000e+00 0.0000000000000000e+00  5.6655944299928791e-05 1.0197580508690689e-03 0.0000000000000000e+00  -1.3562524666670881e-05 1.0190938561983737e-03 0.0000000000000000e+00  0.0000000000000000e+00 0.0000000000000000e+00 0.0000000000000000e+00  0.0000000000000000e+00 0.0000000000000000e+00 0.0000000000000000e+00  0.0000000000000000e+00 0.0000000000000000e+00 0.0000000000000000e+00  0.0000000000000000e+00 0.0000000000000000e+00 0.0000000000000000e+00  2.1301974715590506e-05 1.0194213513137654e-03 0.0000000000000000e+00  0.0000000000000000e+00 0.0000000000000000e+00 0.0000000000000000e+00  0.0000000000000000e+00 0.0000000000000000e+00 0.0000000000000000e+00  0.0000000000000000e+00 0.0000000000000000e+00 0.0000000000000000e+00  0.0000000000000000e+00 0.0000000000000000e+00 0.0000000000000000e+00  0.0000000000000000e+00 0.0000000000000000e+00 0.0000000000000000e+00  0.0000000000000000e+00 0.0000000000000000e+00 0.0000000000000000e+00  0.0000000000000000e+00 0.0000000000000000e+00 0.0000000000000000e+00  0.0000000000000000e+00 0.0000000000000000e+00 0.0000000000000000e+00  0.0000000000000000e+00 0.0000000000000000e+00 0.0000000000000000e+00  0.0000000000000000e+00 0.0000000000000000e+00 0.0000000000000000e+00  0.0000000000000000e+00 0.0000000000000000e+00 0.0000000000000000e+00  0.0000000000000000e+00 0.0000000000000000e+00 0.0000000000000000e+00  0.0000000000000000e+00 0.0000000000000000e+00 0.0000000000000000e+00  0.0000000000000000e+00 0.0000000000000000e+00 0.0000000000000000e+00  0.0000000000000000e+00 0.0000000000000000e+00 0.0000000000000000e+00  0.0000000000000000e+00 0.0000000000000000e+00 0.0000000000000000e+00  0.0000000000000000e+00 0.0000000000000000e+00 0.0000000000000000e+00  0.0000000000000000e+00 0.0000000000000000e+00 0.0000000000000000e+00  0.0000000000000000e+00 0.0000000000000000e+00 0.0000000000000000e+00  0.0000000000000000e+00 0.0000000000000000e+00 0.0000000000000000e+00  0.0000000000000000e+00 0.0000000000000000e+00 0.0000000000000000e+00  0.0000000000000000e+00 0.0000000000000000e+00 0.0000000000000000e+00  0.0000000000000000e+00 0.0000000000000000e+00 0.0000000000000000e+00  0.0000000000000000e+00 0.0000000000000000e+00 0.0000000000000000e+00  0.0000000000000000e+00 0.0000000000000000e+00 0.0000000000000000e+00  0.0000000000000000e+00 0.0000000000000000e+00 0.0000000000000000e+00  0.0000000000000000e+00 0.0000000000000000e+00 0.0000000000000000e+00  0.0000000000000000e+00 0.0000000000000000e+00 0.0000000000000000e+00  0.0000000000000000e+00 0.0000000000000000e+00 0.0000000000000000e+00  0.0000000000000000e+00 0.0000000000000000e+00 0.0000000000000000e+00  0.0000000000000000e+00 0.0000000000000000e+00 0.0000000000000000e+00  0.0000000000000000e+00 0.0000000000000000e+00 0.0000000000000000e+00  0.0000000000000000e+00 0.0000000000000000e+00 0.0000000000000000e+00  0.0000000000000000e+00 0.0000000000000000e+00 0.0000000000000000e+00  0.0000000000000000e+00 0.0000000000000000e+00 0.0000000000000000e+00  0.0000000000000000e+00 0.0000000000000000e+00 0.0000000000000000e+00  0.0000000000000000e+00 0.0000000000000000e+00 0.0000000000000000e+00  0.0000000000000000e+00 0.0000000000000000e+00 0.0000000000000000e+00  0.0000000000000000e+00 0.0000000000000000e+00 0.0000000000000000e+00  0.0000000000000000e+00 0.0000000000000000e+00 0.0000000000000000e+00  0.0000000000000000e+00 0.0000000000000000e+00 0.0000000000000000e+00  0.0000000000000000e+00 0.0000000000000000e+00 0.0000000000000000e+00  0.0000000000000000e+00 0.0000000000000000e+00 0.0000000000000000e+00  0.0000000000000000e+00 0.0000000000000000e+00 0.0000000000000000e+00  0.0000000000000000e+00 0.0000000000000000e+00 0.0000000000000000e+00  0.0000000000000000e+00 0.0000000000000000e+00 0.0000000000000000e+00  0.0000000000000000e+00 0.0000000000000000e+00 0.0000000000000000e+00  0.0000000000000000e+00 0.0000000000000000e+00 0.0000000000000000e+00  0.0000000000000000e+00 0.0000000000000000e+00 0.0000000000000000e+00  0.0000000000000000e+00 0.0000000000000000e+00 0.0000000000000000e+00  0.0000000000000000e+00 0.0000000000000000e+00 0.0000000000000000e+00  0.0000000000000000e+00 0.0000000000000000e+00 0.0000000000000000e+00  0.0000000000000000e+00 0.0000000000000000e+00 0.0000000000000000e+00  0.0000000000000000e+00 0.0000000000000000e+00 0.0000000000000000e+00  0.0000000000000000e+00 0.0000000000000000e+00 0.0000000000000000e+00  0.0000000000000000e+00 0.0000000000000000e+00 0.0000000000000000e+00  0.0000000000000000e+00 0.0000000000000000e+00 0.0000000000000000e+00  0.0000000000000000e+00 0.0000000000000000e+00 0.0000000000000000e+00  0.0000000000000000e+00 0.0000000000000000e+00 0.0000000000000000e+00  0.0000000000000000e+00 0.0000000000000000e+00 0.0000000000000000e+00  0.0000000000000000e+00 0.0000000000000000e+00 0.0000000000000000e+00  0.0000000000000000e+00 0.0000000000000000e+00 0.0000000000000000e+00  0.0000000000000000e+00 0.0000000000000000e+00 0.0000000000000000e+00  0.0000000000000000e+00 0.0000000000000000e+00 0.0000000000000000e+00  0.0000000000000000e+00 0.0000000000000000e+00 0.0000000000000000e+00  0.0000000000000000e+00 0.0000000000000000e+00 0.0000000000000000e+00  0.0000000000000000e+00 0.0000000000000000e+00 0.0000000000000000e+00  0.0000000000000000e+00 0.0000000000000000e+00 0.0000000000000000e+00  0.0000000000000000e+00 0.0000000000000000e+00 0.0000000000000000e+00  0.0000000000000000e+00 0.0000000000000000e+00 0.0000000000000000e+00  0.0000000000000000e+00 0.0000000000000000e+00 0.0000000000000000e+00  0.0000000000000000e+00 0.0000000000000000e+00 0.0000000000000000e+00  0.0000000000000000e+00 0.0000000000000000e+00 0.0000000000000000e+00  0.0000000000000000e+00 0.0000000000000000e+00 0.0000000000000000e+00  0.0000000000000000e+00 0.0000000000000000e+00 0.0000000000000000e+00  0.0000000000000000e+00 0.0000000000000000e+00 0.0000000000000000e+00  0.0000000000000000e+00 0.0000000000000000e+00 0.0000000000000000e+00  0.0000000000000000e+00 0.0000000000000000e+00 0.0000000000000000e+00  0.0000000000000000e+00 0.0000000000000000e+00 0.0000000000000000e+00  0.0000000000000000e+00 0.0000000000000000e+00 0.0000000000000000e+00  0.0000000000000000e+00 0.0000000000000000e+00 0.0000000000000000e+00  0.0000000000000000e+00 0.0000000000000000e+00 0.0000000000000000e+00  0.0000000000000000e+00 0.0000000000000000e+00 0.0000000000000000e+00  0.0000000000000000e+00 0.0000000000000000e+00 0.0000000000000000e+00  0.0000000000000000e+00 0.0000000000000000e+00 0.0000000000000000e+00  0.0000000000000000e+00 0.0000000000000000e+00 0.0000000000000000e+00  0.0000000000000000e+00 0.0000000000000000e+00 0.0000000000000000e+00  0.0000000000000000e+00 0.0000000000000000e+00 0.0000000000000000e+00  0.0000000000000000e+00 0.0000000000000000e+00 0.0000000000000000e+00  0.0000000000000000e+00 0.0000000000000000e+00 0.0000000000000000e+00  0.0000000000000000e+00 0.0000000000000000e+00 0.0000000000000000e+00  0.0000000000000000e+00 0.0000000000000000e+00 0.0000000000000000e+00  0.0000000000000000e+00 0.0000000000000000e+00 0.0000000000000000e+00  0.0000000000000000e+00 0.0000000000000000e+00 0.0000000000000000e+00  0.0000000000000000e+00 0.0000000000000000e+00 0.0000000000000000e+00  0.0000000000000000e+00 0.0000000000000000e+00 0.0000000000000000e+00  0.0000000000000000e+00 0.0000000000000000e+00 0.0000000000000000e+00  0.0000000000000000e+00 0.0000000000000000e+00 0.0000000000000000e+00  0.0000000000000000e+00 0.0000000000000000e+00 0.0000000000000000e+00  0.0000000000000000e+00 0.0000000000000000e+00 0.0000000000000000e+00  0.0000000000000000e+00 0.0000000000000000e+00 0.0000000000000000e+00  0.0000000000000000e+00 0.0000000000000000e+00 0.0000000000000000e+00  0.0000000000000000e+00 0.0000000000000000e+00 0.0000000000000000e+00  0.0000000000000000e+00 0.0000000000000000e+00 0.0000000000000000e+00  0.0000000000000000e+00 0.0000000000000000e+00 0.0000000000000000e+00  0.0000000000000000e+00 0.0000000000000000e+00 0.0000000000000000e+00  0.0000000000000000e+00 0.0000000000000000e+00 0.0000000000000000e+00  0.0000000000000000e+00 0.0000000000000000e+00 0.0000000000000000e+00  0.0000000000000000e+00 0.0000000000000000e+00 0.0000000000000000e+00  0.0000000000000000e+00 0.0000000000000000e+00 0.0000000000000000e+00  0.0000000000000000e+00 0.0000000000000000e+00 0.0000000000000000e+00  0.0000000000000000e+00 0.0000000000000000e+00 0.0000000000000000e+00  0.0000000000000000e+00 0.0000000000000000e+00 0.0000000000000000e+00  0.0000000000000000e+00 0.0000000000000000e+00 0.0000000000000000e+00  0.0000000000000000e+00 0.0000000000000000e+00 0.0000000000000000e+00  0.0000000000000000e+00 0.0000000000000000e+00 0.0000000000000000e+00  0.0000000000000000e+00 0.0000000000000000e+00 0.0000000000000000e+00  0.0000000000000000e+00 0.0000000000000000e+00 0.0000000000000000e+00  0.0000000000000000e+00 0.0000000000000000e+00 0.0000000000000000e+00  0.0000000000000000e+00 0.0000000000000000e+00 0.0000000000000000e+00  0.0000000000000000e+00 0.0000000000000000e+00 0.0000000000000000e+00  0.0000000000000000e+00 0.0000000000000000e+00 0.0000000000000000e+00  0.0000000000000000e+00 0.0000000000000000e+00 0.0000000000000000e+00  0.0000000000000000e+00 0.0000000000000000e+00 0.0000000000000000e+00  0.0000000000000000e+00 0.0000000000000000e+00 0.0000000000000000e+00  0.0000000000000000e+00 0.0000000000000000e+00 0.0000000000000000e+00  0.0000000000000000e+00 0.0000000000000000e+00 0.0000000000000000e+00  0.0000000000000000e+00 0.0000000000000000e+00 0.0000000000000000e+00  0.0000000000000000e+00 0.0000000000000000e+00 0.0000000000000000e+00  0.0000000000000000e+00 0.0000000000000000e+00 0.0000000000000000e+00  0.0000000000000000e+00 0.0000000000000000e+00 0.0000000000000000e+00  0.0000000000000000e+00 0.0000000000000000e+00 0.0000000000000000e+00  -2.4396946718581485e-06 1.9132929917148730e-06 0.0000000000000000e+00  -5.1094559961335381e-06 5.5816020671134457e-06 0.0000000000000000e+00  -7.2077679320835318e-06 1.1433785812557093e-05 0.0000000000000000e+00  -9.3961657703443537e-06 1.9548914935567755e-05 0.0000000000000000e+00  -1.0986029224678734e-05 2.9396521926635203e-05 0.0000000000000000e+00  -1.2779449728123998e-05 4.1117727009766725e-05 0.0000000000000000e+00  -1.3989290947838431e-05 5.4153088836796177e-05 0.0000000000000000e+00  -1.5055558684492551e-05 6.8862250445876920e-05 0.0000000000000000e+00  -1.6314937915131198e-05 8.4781959613178918e-05 0.0000000000000000e+00  -1.7016532886058062e-05 1.0190152955600948e-04 0.0000000000000000e+00  -1.7968964683217268e-05 1.2016296214067931e-04 0.0000000000000000e+00  -1.8435139869273955e-05 1.3940461564664600e-04 0.0000000000000000e+00  -1.9059729009297815e-05 1.5956226504593854e-04 0.0000000000000000e+00  -1.9356982397718119e-05 1.8042006039437880e-04 0.0000000000000000e+00  -1.9576676048765052e-05 2.0210608855382673e-04 0.0000000000000000e+00  -1.9879545730645208e-05 2.2437911717703636e-04 0.0000000000000000e+00  -1.9904542678612593e-05 2.4722787911946742e-04 0.0000000000000000e+00  -2.0035547611595044e-05 2.7060419628048370e-04 0.0000000000000000e+00  -1.9936227799111782e-05 2.9442376607950635e-04 0.0000000000000000e+00  -1.9910754143681318e-05 3.1863179758837007e-04 0.0000000000000000e+00  -1.9739052044082038e-05 3.4319452305009408e-04 0.0000000000000000e+00  -1.9594930763875162e-05 3.6806890014759756e-04 0.0000000000000000e+00  -1.9347240326082002e-05 3.9315560010493857e-04 0.0000000000000000e+00  -1.9074697233235761e-05 4.1850051825409630e-04 0.0000000000000000e+00  -1.8821184440684535e-05 4.4400042403225669e-04 0.0000000000000000e+00  -1.8512372231647908e-05 4.6967737809660312e-04 0.0000000000000000e+00  -1.8202216849843945e-05 4.9547819930450393e-04 0.0000000000000000e+00  -1.7869769322457191e-05 5.2138626308881515e-04 0.0000000000000000e+00  -1.7538551829038980e-05 5.4737777538880095e-04 0.0000000000000000e+00  -1.7198165148785642e-05 5.7344177813379779e-04 0.0000000000000000e+00  -1.6863301668773265e-05 5.9955355771201336e-04 0.0000000000000000e+00  -1.6529386341941007e-05 6.2571324777768516e-04 0.0000000000000000e+00  -1.6205552044159197e-05 6.5189414795546459e-04 0.0000000000000000e+00  -1.5890394915263846e-05 6.7810690793171466e-04 0.0000000000000000e+00  -1.5590405436641930e-05 7.0432214697682606e-04 0.0000000000000000e+00  -1.5305596177082897e-05 7.3055972639628642e-04 0.0000000000000000e+00  -1.5039118050005749e-05 7.5678885823266006e-04 0.0000000000000000e+00  -1.4792695801264963e-05 7.8303513144783337e-04 0.0000000000000000e+00  -1.4568220045562460e-05 8.0926680432378694e-04 0.0000000000000000e+00  -1.4368707975096339e-05 8.3551521487771555e-04 0.0000000000000000e+00  -1.4198567590973134e-05 8.6175326120249110e-04 0.0000000000000000e+00  -1.4048438357416535e-05 8.8799718264117493e-04 0.0000000000000000e+00  -1.3926999578735860e-05 9.1424099444870543e-04 0.0000000000000000e+00  -1.3822815102387361e-05 9.4048707137461460e-04 0.0000000000000000e+00  -1.3750548310757963e-05 9.6674795947231009e-04 0.0000000000000000e+00  -1.3680707976073890e-05 9.9298384618418892e-04 0.0000000000000000e+00  3.7875536320617969e-06 1.0192584920481434e-03 0.0000000000000000e+00  3.8900910340072249e-05 1.0195829550740537e-03 0.0000000000000000e+00  5.6535203420147331e-05 9.9341875555426611e-04 0.0000000000000000e+00  5.6467849321669248e-05 9.6722060519045621e-04 0.0000000000000000e+00  5.6393435770917378e-05 9.4104284016105499e-04 0.0000000000000000e+00  5.6287325586795424e-05 9.1485322189446708e-04 0.0000000000000000e+00  5.6164759330462650e-05 8.8866420747421061e-04 0.0000000000000000e+00  5.6012762032350983e-05 8.6247558875494456e-04 0.0000000000000000e+00  5.5839579775800162e-05 8.3628078560490547e-04 0.0000000000000000e+00  5.5637571848593885e-05 8.1009735359893070e-04 0.0000000000000000e+00  5.5408710187505574e-05 7.8389520878612451e-04 0.0000000000000000e+00  5.5155004803960191e-05 7.5771212225532512e-04 0.0000000000000000e+00  5.4872223831980768e-05 7.3151177374366301e-04 0.0000000000000000e+00  5.4565043076971843e-05 7.0533470720147106e-04 0.0000000000000000e+00  5.4224056774831745e-05 6.7914671570318058e-04 0.0000000000000000e+00  5.3859564343419971e-05 6.5299122373088257e-04 0.0000000000000000e+00  5.3453458607162714e-05 6.2683631608948746e-04 0.0000000000000000e+00  5.3025623292749202e-05 6.0073011469983801e-04 0.0000000000000000e+00  5.2544804233822276e-05 5.7464289285273521e-04 0.0000000000000000e+00  5.2046287166383096e-05 5.4862826145437823e-04 0.0000000000000000e+00  5.1479824889699691e-05 5.2265939171804794e-04 0.0000000000000000e+00  5.0901835249683483e-05 4.9679599669320395e-04 0.0000000000000000e+00  5.0234086234561782e-05 4.7101575499618837e-04 0.0000000000000000e+00  4.9563180211882126e-05 4.4538590975863455e-04 0.0000000000000000e+00  4.8777328201909962e-05 4.1989913876384986e-04 0.0000000000000000e+00  4.7989161470643650e-05 3.9458573138643680e-04 0.0000000000000000e+00  4.7143092544928832e-05 3.6952594377930102e-04 0.0000000000000000e+00  4.6178646696575364e-05 3.4466328054532410e-04 0.0000000000000000e+00  4.5184709582036310e-05 3.2014342584889413e-04 0.0000000000000000e+00  4.4071368604590947e-05 2.9592367409712840e-04 0.0000000000000000e+00  4.2918512303981218e-05 2.7213838706042641e-04 0.0000000000000000e+00  4.1631662586594825e-05 2.4876031350942317e-04 0.0000000000000000e+00  4.0303914312020934e-05 2.2590597412030174e-04 0.0000000000000000e+00  3.8746679520715932e-05 2.0367430557487908e-04 0.0000000000000000e+00  3.7252496296541354e-05 1.8198449676777196e-04 0.0000000000000000e+00  3.5662303500203436e-05 1.6114133128163066e-04 0.0000000000000000e+00  3.3780106297740079e-05 1.4092157071200818e-04 0.0000000000000000e+00  3.1892865529837416e-05 1.2171516987642355e-04 0.0000000000000000e+00  2.9766945834846001e-05 1.0343030536967791e-04 0.0000000000000000e+00  2.7614295561797323e-05 8.6253979420276559e-05 0.0000000000000000e+00  2.5049554540011906e-05 7.0392107143138044e-05 0.0000000000000000e+00  2.2656742794311713e-05 5.5644561113662822e-05 0.0000000000000000e+00  2.0129096753476955e-05 4.2593051741474641e-05 0.0000000000000000e+00  1.7061663632205166e-05 3.0797417401373851e-05 0.0000000000000000e+00  1.4091116818322440e-05 2.0904913689810851e-05 0.0000000000000000e+00  1.0600084771957654e-05 1.2888039208828188e-05 0.0000000000000000e+00  7.3185295588498148e-06 6.9587537343872570e-06 0.0000000000000000e+00  3.5063217648047643e-06 3.1474389211657281e-06 0.0000000000000000e+00  7.0717240389901603e-07 2.8000741624562532e-06 0.0000000000000000e+00  2.0847047177174533e-05 9.8003066438312903e-04 0.0000000000000000e+00  2.0485824799095106e-05 9.2991925731606806e-04 0.0000000000000000e+00  2.0386320222374605e-05 8.4806435546556707e-04 0.0000000000000000e+00  2.0490261832921124e-06 1.4640099669459369e-05 0.0000000000000000e+00  2.0381380154057651e-05 7.9657228845436451e-04 0.0000000000000000e+00  3.4869145382112738e-06 3.3680658312423552e-05 0.0000000000000000e+00  1.9882506077185591e-05 7.4413835790542403e-04 0.0000000000000000e+00  5.6458451162950520e-06 7.7234520984541355e-05 0.0000000000000000e+00  6.6564822063522325e-06 1.1098915865989042e-04 0.0000000000000000e+00  1.9290464196498673e-05 6.9171616272400874e-04 0.0000000000000000e+00  1.0316175852539003e-05 2.1447643811186830e-04 0.0000000000000000e+00  1.7843995543302687e-05 5.8705226019457088e-04 0.0000000000000000e+00  8.2621827867146005e-06 1.4794038622231110e-04 0.0000000000000000e+00  1.1129119025380699e-05 2.5930511993628783e-04 0.0000000000000000e+00  1.6998045368209151e-05 5.3494906898837063e-04 0.0000000000000000e+00  1.8609603977025478e-05 6.3933608922823581e-04 0.0000000000000000e+00  1.2326486389582612e-05 3.0698506927955352e-04 0.0000000000000000e+00  1.6077058671499190e-05 4.8314612932472736e-04 0.0000000000000000e+00  1.3864102266187514e-05 3.5413156943998495e-04 0.0000000000000000e+00  1.4673558231159408e-05 4.3285206126650463e-04 0.0000000000000000e+00  1.4257624792477035e-05 3.9169286986933289e-04 0.0000000000000000e+00  8.8249196776221678e-06 1.7898476168450072e-04 0.0000000000000000e+00  2.1085099049520548e-05 8.9062572347121558e-04 0.0000000000000000e+00  4.2986557937109496e-06 5.3051882562730781e-05 0.0000000000000000e+00  3.3014532441290851e-05 9.5487845426698030e-04 0.0000000000000000e+00  4.0987862432188206e-06 8.0608389389887462e-06 0.0000000000000000e+00  3.0353080941406774e-05 7.7048505259294064e-04 0.0000000000000000e+00  3.0806022503680237e-05 8.2290570083923948e-04 0.0000000000000000e+00  -1.8211735130651618e-06 2.3580062684969436e-05 0.0000000000000000e+00  -6.0636607777746497e-07 9.3084247893644717e-05 0.0000000000000000e+00  2.8406998975473282e-05 6.1334872180944305e-04 0.0000000000000000e+00  2.9802218047071755e-05 7.1806827148715717e-04 0.0000000000000000e+00  1.6638320051298474e-06 2.3597175597985673e-04 0.0000000000000000e+00  2.7560512436973822e-05 5.6115611858697969e-04 0.0000000000000000e+00  -7.6112168334094439e-08 1.2967092824109182e-04 0.0000000000000000e+00  2.5121045274925260e-06 2.8275667484053659e-04 0.0000000000000000e+00  2.6611950208861843e-05 5.0919901761682250e-04 0.0000000000000000e+00  2.9153663849856688e-05 6.6567577913051760e-04 0.0000000000000000e+00  1.2969492479812746e-06 3.3089606139950832e-04 0.0000000000000000e+00  2.5560705829324834e-05 4.5761695200526281e-04 0.0000000000000000e+00  -2.3870045246173819e-07 5.1108892273553865e-07 0.0000000000000000e+00  7.2092696791919406e-07 7.5911213562214934e-07 0.0000000000000000e+00  1.2767669861661797e-05 1.0005990645347608e-03 0.0000000000000000e+00  -1.6370377533486665e-06 7.5129601097620890e-06 0.0000000000000000e+00  2.6849852241217789e-05 4.1233436686245278e-04 0.0000000000000000e+00  1.9824148088706318e-05 1.9