<?xml version="1.0"?>
<VTKFile type="UnstructuredGrid"  version="0.1"  >
<UnstructuredGrid>
<Piece  NumberOfPoints="726" NumberOfCells="1348">
<Points>
<DataArray  type="Float64"  NumberOfComponents="3"  format="ascii">0.3535460261755617 0.19 0  0.3528922713220932 0.2000185703532356 0  0.3590076176283495 0.196411355804271 0  0.3012679105156187 0.19 0  0.3006558810093873 0.1999966199048318 0  0.3066757059912147 0.1964092924317024 0  0.3473758401723931 0.1961819304478349 0  0.2950977245127906 0.1961819304477774 0  0.3535460261749672 0.21 0  0.3473758401724931 0.2038180695522752 0  0.301267910515333 0.21 0  0.2950977245128307 0.2038180695522663 0  0.3590471196690275 0.2036304442587945 0  0.3067669986803285 0.203627750582736 0  0.2607803159922026 0.2000727136295815 0  0.2677053789419034 0.1964246479135325 0  0.267698176732111 0.2039977513680092 0  0.2751288526855082 0.20000000000002 0  0.2603913042767976 0.1945999920783741 0  0.2639263993299336 0.19 0  0.25 0.2 0  0.2497468076502589 0.2050254481002335 0  0.2550657455369551 0.2034088125358657 0  0.3796850840047755 0.200000000000134 0  0.3871533862418661 0.2029084173136212 0  0.3871533862424271 0.1959250838464788 0  0.3650630746574081 0.199866017807523 0  0.3722167817676917 0.2029084173136195 0  0.372246743208829 0.1959123236376545 0  0.3274069683451451 0.2000000000000796 0  0.3348752705822316 0.202908417313609 0  0.3347912413592433 0.1959225448935183 0  0.3127789816668748 0.1998657885438805 0  0.3199386661080599 0.202908417313604 0  0.3199680582793816 0.1959123018030061 0  0.2825131256993216 0.2035478995978015 0  0.2825051229162361 0.1959834479681729 0  0.2894621222999649 0.1998691686390484 0  0.3417402379596385 0.1998691686391011 0  0.2713947015670686 0.19 0  0.2788630038040554 0.21 0  0.2863313060411479 0.21 0  0.3162045149895234 0.21 0  0.3236728172265972 0.21 0  0.3684826306491596 0.21 0  0.3759509328862226 0.21 0  0.3311411194636928 0.21 0  0.3386094217007701 0.21 0  0.383419235123329 0.21 0  0.3908875373604028 0.21 0  0.3460777239384295 0.19 0  0.2937996082784807 0.19 0  0.2937996082782405 0.21 0  0.3460777239378666 0.21 0  0.2601812407614425 0.2056861609747042 0  0.3087362127527544 0.19 0  0.361014328412667 0.19 0  0.2497468076502614 0.1949745518997913 0  0.2548908499171161 0.1966940311614271 0  0.2751288526855081 0.205697194228819 0  0.3796850840055151 0.1943028057712579 0  0.3647484795312433 0.1943028057712484 0  0.3274069683455914 0.1943028057712305 0  0.3124703638713219 0.1943028057712193 0  0.2751288526856362 0.1943028057711959 0  0.3610143284120516 0.21 0  0.3087362127524279 0.21 0  0.2895549462647731 0.1944069323160756 0  0.341834128962283 0.1943988119061815 0  0.3650260178642469 0.2054197153269502 0  0.3796850840047754 0.2056971942288865 0  0.3274069683451451 0.2056971942288527 0  0.312746837849954 0.2054193256016435 0  0.2564580970927985 0.19 0  0.2525889069107169 0.1926036384190297 0  0.341845332858566 0.2054104280253135 0  0.2897864851748124 0.2055930218738881 0  0.25645809709277 0.21 0  0.25261805618068 0.2074135021971937 0  0.2639263993298655 0.21 0  0.271394701566961 0.21 0  0.3759509328869369 0.19 0  0.3684826306498175 0.19 0  0.3386094217012945 0.19 0  0.3311411194641595 0.19 0  0.3236728172270245 0.19 0  0.3162045149898895 0.19 0  0.2863313060413428 0.19 0  0.2788630038042048 0.19 0  0.3834192351240934 0.19 0  0.2489897948556636 0.19 0  0.2489897948556636 0.21 0  0.3411792619035872 0.1007807988883264 0  0.3223547013037051 0.0811661342953541 0  0.3444094697767079 0.06991525711561337 0  0.3605639237643 0.2793006923612668 0  0.3754967205959606 0.2925860795314694 0  0.3727949441736886 0.2687069143756727 0  0.1123698019379044 0.2058991360802581 0  0.1106531987626008 0.1894643335925837 0  0.09638298985168356 0.2000713960717276 0  0.0534241021414831 0.2075428856341382 0  0.07538638723190919 0.1915913195394167 0  0.06726459509928774 0.2147740778951952 0  0.3265012756581966 0.2702065959162994 0  0.3425185051143286 0.277559411241074 0  0.3236350239119228 0.2946877384927431 0  0.3871536388992142 0.2768042805511501 0  0.05117116986370451 0.1453484941029572 0  0.028576868323113 0.1257840022252348 0  0.02526469030969892 0.1581631046774197 0  0.2731077660562961 0.05508844879223635 0  0.2987388406956894 0.03154986994134981 0  0.2542757755299287 0.02753888901404131 0  0.3578728954606922 0.1299960675997348 0  0.3428550702839791 0.1207298864326248 0  0.3606088315611094 0.1037277084934985 0  0.3655464778159961 0.1466879707354811 0  0.3738358170836363 0.1565872175614931 0  0.383930166391577 0.149077512173999 0  0.1643783325218296 0.1320455275536215 0  0.1492552100538899 0.1320415135830948 0  0.1603037058708973 0.1432581839427922 0  0.07781603907681035 0.1514291067465787 0  0.06748599119092742 0.1295390004813558 0  0.2286913662688903 0.3133959500822503 0  0.2457579136251883 0.3036253283210157 0  0.2370120387482942 0.3305347050441392 0  0.1133943915886014 0.3302098901172357 0  0.1085927601152855 0.3576703429582752 0  0.1291050229147523 0.3369598757086243 0  0.1876570762350594 0.2701429686523801 0  0.1759534499456636 0.268744809012302 0  0.1862475166430347 0.2806184243256064 0  0.2767628315692916 0.1210799475693868 0  0.260361447596534 0.1229759280558447 0  0.2739511166480145 0.1012903426171407 0  0.228090483983057 0.1360461642521307 0  0.2156274396954392 0.1428329882811742 0  0.2231096629876289 0.1473860403476538 0  0.3642910294882131 0.08514217524358583 0  0.04799687037553593 0.1900185470502504 0  0.1704873609912336 0.2583583661241701 0  0.1801707401936674 0.2578452677740249 0  0 0.3514285714286952 0  0.03215830272795324 0.3311110896359255 0  0.02400550655420258 0.3538155845945724 0  0.09145562669711395 0.175668370620234 0  0.09635163646555502 0.1596076048115481 0  0.07646146193815946 0.1687797331838 0  0 0.05857142857161107 0  0 0.02928571428580012 0  0.02797905238142366 0.04239836249189064 0  0.3009672322348927 0.299853464475565 0  0.2860802002973516 0.3223921533999551 0  0.2799076752212695 0.2955946972235118 0  0.1521457199348437 0.2144902684393899 0  0.1547844879126531 0.221343792228163 0  0.1460074103989341 0.2155962236814484 0  0.06224717571675014 0.16049953533406 0  0.2004289920815778 0.2885787263743592 0  0.2083656065158181 0.2774025780460683 0  0.2175887234644184 0.2860477873464338 0  0 0.1464285714289574 0  0.3656958473839882 0.2539056765427533 0  0.3826544750917113 0.2574975795502557 0  0.3742999258550256 0.2455889756585279 0  0.1340109150974826 0.1326286508362426 0  0.1230381620938855 0.1450531231009962 0  0.1371388187715824 0.1487519394947238 0  0.09921229729781815 0.216694589313852 0  0.1987596795720009 0.2706417532988148 0  0 0.3221428571430699 0  0.1502170850938848 0.1478553695050668 0  0.1022962111550141 0.273832470550381 0  0.1121786756446853 0.257597694764058 0  0.1185619469878228 0.2730177051871591 0  0.09898678642452967 0.1862327908870533 0  0.1843109002236991 0.1108412192449581 0  0.1663792634974669 0.1129031590983526 0  0.1730791557496665 0.09449610930120438 0  0.05939492550527375 0.3149957962361826 0  0.03411173555592004 0.3013214948275056 0  0.1949745518995776 0.2497468076502398 0  0.202315810036185 0.2499463414463592 0  0.1988936168129591 0.2591743361304991 0  0.1497148406801674 0.1059683048239758 0  0.1319376419904144 0.1078314072630599 0  0.1422873301607691 0.09099989767432708 0  0.3684404229859068 0.05879875930223131 0  0.3866266297147894 0.03466711669742863 0  0.3886771468199661 0.07134613381357163 0  0.1503920612246686 0.252658552798053 0  0.1407371787724462 0.2442700623456801 0  0.1431093770171943 0.2599228455937608 0  0.09191660917863548 0.3399083220637153 0  0.1291780217515827 0.2400382025520897 0  0.1325512871714925 0.2548933203634119 0  0.05400790163887537 0.1101452894911868 0  0.03212895351398194 0.09444182905744057 0  0.3119706532029335 0.280741853274607 0  0.1613699074131162 0.2874965309748423 0  0.1497954449456231 0.3068853213507886 0  0.1704962809759384 0.2989815459796012 0  0.1292063859387973 0.160179270973018 0  0.29813678539982 0.236276478175315 0  0.3103932646053297 0.2435733951751842 0  0.2950877208402625 0.2480324151406079 0  0.2571393426600714 0.09909224058133874 0  0.2802365149396702 0.2293267412254819 0  0.2888197773682229 0.2217624015035644 0  0.2799011483571476 0.2201540359780956 0  0.1273239957535623 0.41 0  0.1550887940203835 0.3759695678273732 0  0.1305531867707806 0.3723894882772687 0  0.2328041563607919 0.2914013345123573 0  0.2145757352600842 0.3012314566270872 0  0.3718691980658081 0.1185113859721947 0  0.06140001986584975 0.41 0  0.08484979611354741 0.3801877867628078 0  0.05922009696123734 0.3774661510110062 0  0.1314207338941352 0.2277905748945162 0  0.1208839583881551 0.2181173442085023 0  0.1226326835593179 0.232510509637589 0  0.2199699516855607 0.2730509421907208 0  0.2088779690661671 0.2650057074514391 0  0.2335552553807713 0.3548019770067952 0  0.216380800632318 0.3798697230577418 0  0.2537725505472335 0.3777585525832137 0  0.09377624077128965 0.41 0  0.09380266644077194 0.2576101652245613 0  0.3141745521466497 0.41 0  0.3098481778850767 0.3708824362367037 0  0.2803555148413351 0.3762695151888899 0  0.3830052789765099 0.2465504596596307 0  0.1712191068054211 0.2792458170307043 0  0.2798983539554935 0.1725715317274126 0  0.2887875715604008 0.1784526411902859 0  0.2798265752054099 0.1801908109055989 0  0.3750556316230105 0.1339831864103567 0  0.1315669208937715 0.2153401624373302 0  0.08319468457824891 0.2132940804249223 0  0.05506284017382649 0.2425906156552861 0  0.03234799839792719 0.2322323714096635 0  0.03317213267821684 0.2576605437337542 0  0.235428184091502 0 0  0.2269089833956681 0.04173965335049001 0  0.2054867233040618 0.02496467843107029 0  0.0655461589766832 0.3354809920423228 0  0.132972307375135 0.2702075053542861 0  0.1310410255455362 0.2846992571580754 0  0.3236197880522565 0.342390365483443 0  0.3436434970543172 0.3743236175823911 0  0.2607466101664424 0.2266930975791233 0  0.271385042995999 0.2220255791858506 0  0.2640363109795177 0.2179944263838653 0  0.1877417105387872 0.15152
[...]
<PointData  Vectors="f_42-1"> 
<DataArray  type="Float64"  Name="f_42-1"  NumberOfComponents="3" format="ascii">3.1810133266898238e-05 1.4440849476531694e-04 0.0000000000000000e+00  9.3814830501636324e-06 1.4182124614527472e-04 0.0000000000000000e+00  1.8152406170184649e-05 1.5603867728123142e-04 0.0000000000000000e+00  1.9209216014685559e-05 4.4559224393571817e-05 0.0000000000000000e+00  4.5647049875154882e-06 4.2203598239505550e-05 0.0000000000000000e+00  1.0712304607267146e-05 5.1822358183268493e-05 0.0000000000000000e+00  1.7168696973752931e-05 1.2995269632828596e-04 0.0000000000000000e+00  9.0682093348365018e-06 3.4700332056378362e-05 0.0000000000000000e+00  -1.2809635463332551e-05 1.4284131054742084e-04 0.0000000000000000e+00  6.7126177869976227e-07 1.2935385576468461e-04 0.0000000000000000e+00  -9.9732397535289324e-06 4.3041474956134016e-05 0.0000000000000000e+00  -9.8599143718530786e-07 3.4128144004528248e-05 0.0000000000000000e+00  1.7152286095872357e-06 1.5556702182374668e-04 0.0000000000000000e+00  -5.2132200806585288e-07 5.1417870887826534e-05 0.0000000000000000e+00  8.3471039089879219e-07 2.4493981266317824e-06 0.0000000000000000e+00  3.6472316178525071e-06 6.6177342367428084e-06 0.0000000000000000e+00  -8.6429016136683316e-07 6.0953944931783567e-06 0.0000000000000000e+00  2.1977586558338972e-06 1.1869565487786491e-05 0.0000000000000000e+00  2.8214125792247570e-06 3.0103562830894208e-06 0.0000000000000000e+00  6.1095649437092176e-06 5.7642651051236642e-06 0.0000000000000000e+00  0.0000000000000000e+00 0.0000000000000000e+00 0.0000000000000000e+00  0.0000000000000000e+00 0.0000000000000000e+00 0.0000000000000000e+00  -2.1035961844127352e-07 4.5106808841103018e-07 0.0000000000000000e+00  1.1809719975515135e-05 2.0499836528323900e-04 0.0000000000000000e+00  5.2261436901564103e-06 2.2331474892988557e-04 0.0000000000000000e+00  2.2584690696945099e-05 2.2385816812802180e-04 0.0000000000000000e+00  1.0834116759769555e-05 1.6981774067652817e-04 0.0000000000000000e+00  4.2173475286556127e-06 1.8662901744275823e-04 0.0000000000000000e+00  2.0923172279426523e-05 1.8726139450238601e-04 0.0000000000000000e+00  7.0645467327695265e-06 8.8283740486029801e-05 0.0000000000000000e+00  1.9172021221962028e-06 1.0295994963359645e-04 0.0000000000000000e+00  1.5949513567276555e-05 1.0337225570499301e-04 0.0000000000000000e+00  5.9188289081567259e-06 6.1563018418395274e-05 0.0000000000000000e+00  1.1569904657471677e-06 7.4033045854261632e-05 0.0000000000000000e+00  1.3698044086161129e-05 7.4674990756386922e-05 0.0000000000000000e+00  -7.2253591992638620e-07 1.8854419351917279e-05 0.0000000000000000e+00  6.9490103343470881e-06 1.9428712645574006e-05 0.0000000000000000e+00  3.6728004546380199e-06 2.7002801785351020e-05 0.0000000000000000e+00  8.6722267966526871e-06 1.1746082999999705e-04 0.0000000000000000e+00  9.0515545729124779e-06 1.0528985134203938e-05 0.0000000000000000e+00  -6.7635069475285363e-06 1.5474862602593394e-05 0.0000000000000000e+00  -8.0016590619779610e-06 2.3337636347728604e-05 0.0000000000000000e+00  -1.1365012174559048e-05 6.7297954984189644e-05 0.0000000000000000e+00  -1.1865365040943056e-05 8.0876551232937689e-05 0.0000000000000000e+00  -1.2784986572741736e-05 1.7738643425159936e-04 0.0000000000000000e+00  -1.2676116653959757e-05 1.9533317794644841e-04 0.0000000000000000e+00  -1.2249524426290733e-05 9.5303547416426173e-05 0.0000000000000000e+00  -1.2530160950006891e-05 1.1048865423030515e-04 0.0000000000000000e+00  -1.2512815192590738e-05 2.1366304047438917e-04 0.0000000000000000e+00  -1.2303773225908971e-05 2.3232663813212615e-04 0.0000000000000000e+00  3.0341823615395943e-05 1.2793099906491893e-04 0.0000000000000000e+00  1.6906738768044918e-05 3.4064945736703358e-05 0.0000000000000000e+00  -9.0683248209064514e-06 3.2568166054661467e-05 0.0000000000000000e+00  -1.2713807080261672e-05 1.2636023053929558e-04 0.0000000000000000e+00  -1.1870027666190662e-06 2.1626469267499867e-06 0.0000000000000000e+00  2.1378248605605528e-05 5.6186532089042369e-05 0.0000000000000000e+00  3.3191337417334824e-05 1.6142949116172204e-04 0.0000000000000000e+00  0.0000000000000000e+00 0.0000000000000000e+00 0.0000000000000000e+00  8.5409639011815499e-07 7.8789286847514861e-07 0.0000000000000000e+00  -2.4580851691087918e-06 1.1764517549878667e-05 0.0000000000000000e+00  2.5720993552707664e-05 2.0550523517960740e-04 0.0000000000000000e+00  2.3770405739248197e-05 1.6960222032993342e-04 0.0000000000000000e+00  1.7940710818721210e-05 8.8887521828971924e-05 0.0000000000000000e+00  1.5162987537581505e-05 6.1660114087715758e-05 0.0000000000000000e+00  6.8533922504162760e-06 1.2586166180415761e-05 0.0000000000000000e+00  -1.2833324077562534e-05 1.5986913484367527e-04 0.0000000000000000e+00  -1.0739808847933420e-05 5.4651033925930610e-05 0.0000000000000000e+00  1.0190008274919918e-05 2.7770085087257163e-05 0.0000000000000000e+00  2.0166761667135368e-05 1.1821415430102575e-04 0.0000000000000000e+00  -2.1096936720648415e-06 1.6938131317367452e-04 0.0000000000000000e+00  -2.0841143994609421e-06 2.0463439057931139e-04 0.0000000000000000e+00  -3.8039874635063828e-06 8.7997106641273589e-05 0.0000000000000000e+00  -3.3636903993506916e-06 6.1254890513696956e-05 0.0000000000000000e+00  3.0987032358675049e-06 2.6617946261040329e-06 0.0000000000000000e+00  9.3408303499356039e-07 9.3432778602649974e-07 0.0000000000000000e+00  -2.9423202587239283e-06 1.1736561301712235e-04 0.0000000000000000e+00  -3.1477264035771806e-06 2.7227067481810269e-05 0.0000000000000000e+00  -1.8624973326781818e-06 1.3931794066499234e-06 0.0000000000000000e+00  -4.9411578766375338e-07 3.1803364135008033e-07 0.0000000000000000e+00  -3.7160021432455133e-06 4.3485244034365587e-06 0.0000000000000000e+00  -5.3447154469483594e-06 9.0988288716383649e-06 0.0000000000000000e+00  3.5695201027927211e-05 1.9687091999250902e-04 0.0000000000000000e+00  3.4483613508212177e-05 1.7893642312052861e-04 0.0000000000000000e+00  2.8773406244686247e-05 1.1206001658277172e-04 0.0000000000000000e+00  2.7099020227253072e-05 9.6870072133380960e-05 0.0000000000000000e+00  2.5313658161251549e-05 8.2437806431983430e-05 0.0000000000000000e+00  2.3409089518830878e-05 6.8847063696089879e-05 0.0000000000000000e+00  1.4450868428974234e-05 2.4811183102092719e-05 0.0000000000000000e+00  1.1834318815363766e-05 1.6923306654182462e-05 0.0000000000000000e+00  3.6830923830625631e-05 2.1518387275205921e-04 0.0000000000000000e+00  0.0000000000000000e+00 0.0000000000000000e+00 0.0000000000000000e+00  0.0000000000000000e+00 0.0000000000000000e+00 0.0000000000000000e+00  1.3505635909914794e-05 8.3337805829739639e-05 0.0000000000000000e+00  9.3148704252089987e-06 5.6139919336337925e-05 0.0000000000000000e+00  9.3984745549985186e-06 6.2306233784315877e-05 0.0000000000000000e+00  -6.2567595086020829e-06 1.2210075326534952e-04 0.0000000000000000e+00  -5.5073749921768824e-06 1.2870145993014193e-04 0.0000000000000000e+00  -7.1096081161730851e-06 1.4719958505775657e-04 0.0000000000000000e+00  1.7656794585508905e-08 5.7405476323341576e-07 0.0000000000000000e+00  5.0405785398434818e-08 5.7715511351582154e-07 0.0000000000000000e+00  3.0370330430689518e-08 6.0042378156903883e-07 0.0000000000000000e+00  1.4484614005724068e-08 4.3502916710893627e-07 0.0000000000000000e+00  3.9639926908569599e-08 5.4932672216326076e-07 0.0000000000000000e+00  8.5657295414853992e-09 5.3786981474816964e-07 0.0000000000000000e+00  -6.1047406361972975e-06 8.5403582971290621e-05 0.0000000000000000e+00  -6.0702827589563896e-06 1.0109847444896347e-04 0.0000000000000000e+00  -4.5783713949906866e-06 7.3253556643618187e-05 0.0000000000000000e+00  -6.5459763522359430e-06 1.5990982295637675e-04 0.0000000000000000e+00  7.1333871879568651e-08 4.6778598012844186e-07 0.0000000000000000e+00  4.5586067371772866e-08 2.7406600136694358e-07 0.0000000000000000e+00  2.8787200523067845e-08 2.2223028636792504e-07 0.0000000000000000e+00  3.8715096185464142e-06 2.1412067385988172e-05 0.0000000000000000e+00  2.9384746137016292e-06 1.7716949052147309e-05 0.0000000000000000e+00  1.5725448156178098e-06 8.6221673752519975e-06 0.0000000000000000e+00  2.0024819873153973e-05 1.2272622620008509e-04 0.0000000000000000e+00  1.6671075437916517e-05 9.7911294318617673e-05 0.0000000000000000e+00  1.5770513641237477e-05 1.0462621687050666e-04 0.0000000000000000e+00  2.4178511902535803e-05 1.4632869237175640e-04 0.0000000000000000e+00  2.7368105800328069e-05 1.6823511480377643e-04 0.0000000000000000e+00  2.6971315442306278e-05 1.7945018449731852e-04 0.0000000000000000e+00  4.5093595770356207e-07 2.1816300640808436e-06 0.0000000000000000e+00  3.6817995751372861e-07 1.8203613414891749e-06 0.0000000000000000e+00  2.7769487138980793e-07 1.3599139348217215e-06 0.0000000000000000e+00  1.0541356934661228e-07 6.8112659500343053e-07 0.0000000000000000e+00  1.1603778449102237e-07 6.7147426744865301e-07 0.0000000000000000e+00  -1.2198684747697250e-06 1.5581448421887396e-05 0.0000000000000000e+00  -1.7287745846986645e-06 2.1586068243105485e-05 0.0000000000000000e+00  -1.2246153617792661e-06 1.6630724745039053e-05 0.0000000000000000e+00  -1.4477593947545827e-07 1.9369500292155823e-06 0.0000000000000000e+00  -1.0580474724333100e-07 1.4157431811654021e-06 0.0000000000000000e+00  -1.8571674316654202e-07 2.4557709795574664e-06 0.0000000000000000e+00  -3.2281609109825935e-07 3.8482273537981256e-06 0.0000000000000000e+00  -2.4301279762153630e-07 2.9729747999821554e-06 0.0000000000000000e+00  -4.1919867504290768e-07 5.0710141057670443e-06 0.0000000000000000e+00  8.0383646146778887e-06 3.6968246295866246e-05 0.0000000000000000e+00  5.9898471073873225e-06 2.6635161326774739e-05 0.0000000000000000e+00  6.7254286157985159e-06 3.3459468715708959e-05 0.0000000000000000e+00  2.1784907289015046e-06 9.3546111982248376e-06 0.0000000000000000e+00  8.8676135825064693e-07 3.8699708861097914e-06 0.0000000000000000e+00  9.4673997405217842e-07 3.9682315847314873e-06 0.0000000000000000e+00  1.3006842468008775e-05 9.0602835208104430e-05 0.0000000000000000e+00  2.8024019894571701e-08 3.8701893930059145e-07 0.0000000000000000e+00  -1.3820871684801627e-07 1.7184388094456854e-06 0.0000000000000000e+00  -1.4165342633614705e-07 1.7135016889648446e-06 0.0000000000000000e+00  0.0000000000000000e+00 0.0000000000000000e+00 0.0000000000000000e+00  -2.4608530838542241e-08 3.5907980592892742e-07 0.0000000000000000e+00  -1.5111000034094911e-08 2.1463917974059914e-07 0.0000000000000000e+00  7.5025674116907932e-08 6.3820772243808125e-07 0.0000000000000000e+00  1.1496539165422543e-07 7.5420790666676306e-07 0.0000000000000000e+00  7.5218995446481114e-08 5.9880731146899202e-07 0.0000000000000000e+00  0.0000000000000000e+00 0.0000000000000000e+00 0.0000000000000000e+00  0.0000000000000000e+00 0.0000000000000000e+00 0.0000000000000000e+00  3.1954027548422766e-08 1.6554472413411070e-07 0.0000000000000000e+00  -3.6606858964602096e-06 5.2930582464539955e-05 0.0000000000000000e+00  -2.4625612381042525e-06 3.7122638921697939e-05 0.0000000000000000e+00  -3.0610528758335648e-06 3.9468579880303079e-05 0.0000000000000000e+00  0.0000000000000000e+00 0.0000000000000000e+00 0.0000000000000000e+00  0.0000000000000000e+00 0.0000000000000000e+00 0.0000000000000000e+00  -4.0429340558174064e-09 1.8437972819621598e-07 0.0000000000000000e+00  7.1050256936286006e-08 5.2658058200054489e-07 0.0000000000000000e+00  -6.5577408170002120e-07 7.8705791498793813e-06 0.0000000000000000e+00  -6.7855373049050103e-07 7.8099495345207176e-06 0.0000000000000000e+00  -9.6467159892197836e-07 1.1228663520794010e-05 0.0000000000000000e+00  0.0000000000000000e+00 0.0000000000000000e+00 0.0000000000000000e+00  -8.2380848257043827e-06 1.4762274777988175e-04 0.0000000000000000e+00  -7.9774075369504263e-06 1.7264204021415962e-04 0.0000000000000000e+00  -8.9947397468591875e-06 1.6832464682204294e-04 0.0000000000000000e+00  2.9930295878108240e-07 1.5206096196920163e-06 0.0000000000000000e+00  2.0348218216913993e-07 1.0966593744702367e-06 0.0000000000000000e+00  2.0507499692686298e-07 1.0743280143841449e-06 0.0000000000000000e+00  2.1575688398360100e-09 6.5838224516434397e-07 0.0000000000000000e+00  -4.3410694060661416e-07 5.0363820353152393e-06 0.0000000000000000e+00  0.0000000000000000e+00 0.0000000000000000e+00 0.0000000000000000e+00  2.2037800832451091e-07 1.1106318893648467e-06 0.0000000000000000e+00  -8.8151325415200761e-08 1.3371715006979410e-06 0.0000000000000000e+00  -7.5205292274388175e-08 1.2202677649086545e-06 0.0000000000000000e+00  -1.1331665091962789e-07 1.6217730798300662e-06 0.0000000000000000e+00  5.6735299864540917e-08 6.1049672461520299e-07 0.0000000000000000e+00  1.0555724794822316e-06 5.0471451082436440e-06 0.0000000000000000e+00  7.1240283141340507e-07 3.4474196901630181e-06 0.0000000000000000e+00  9.5179359911983219e-07 4.6320540689844851e-06 0.0000000000000000e+00  -5.2321159494570511e-08 7.6507013499534076e-07 0.0000000000000000e+00  -2.6037918929337436e-08 4.1363686845757393e-07 0.0000000000000000e+00  0.0000000000000000e+00 0.0000000000000000e+00 0.0000000000000000e+00  0.0000000000000000e+00 0.0000000000000000e+00 0.0000000000000000e+00  -2.2433606256585050e-07 2.5591450679027180e-06 0.0000000000000000e+00  5.6576791539218623e-07 2.7769542136811039e-06 0.0000000000000000e+00  4.0780241504385456e-07 2.0337123808682195e-06 0.0000000000000000e+00  5.3598062335796157e-07 2.6471473430917992e-06 0.0000000000000000e+00  9.0299657319737849e-06 6.6015661023956720e-05 0.0000000000000000e+00  5.7298077861911794e-06 4.5363478966266096e-05 0.0000000000000000e+00  1.2110747356076633e-05 9.4068490871050534e-05 0.0000000000000000e+00  -9.5690340686951550e-08 1.2975291948419400e-06 0.0000000000000000e+00  -6.4490299344143799e-08 9.8066685289365197e-07 0.0000000000000000e+00  -1.1827131167068072e-07 1.6126325826772535e-06 0.0000000000000000e+00  -9.3259425077784565e-08 1.2683773877459402e-06 0.0000000000000000e+00  -5.1092179131986731e-08 9.1399563402770263e-07 0.0000000000000000e+00  -9.0824022146587846e-08 1.3363544051341310e-06 0.0000000000000000e+00  9.9983828042247080e-08 5.5304875475279140e-07 0.0000000000000000e+00  5.7028806845770549e-08 3.1064062737811337e-07 0.0000000000000000e+00  -4.9345932007002540e-06 6.7253580598022067e-05 0.0000000000000000e+00  -2.8779475509213670e-07 3.6406855306973829e-06 0.0000000000000000e+00  -2.7551041117727470e-07 3.5603052262058956e-06 0.0000000000000000e+00  -3.8654735907138516e-07 4.8721141215650652e-06 0.0000000000000000e+00  1.3919883853329337e-07 7.9886932486474217e-07 0.0000000000000000e+00  -6.9261872965998623e-06 5.2115784604211874e-05 0.0000000000000000e+00  -7.2753343814509651e-06 6.8668044869854875e-05 0.0000000000000000e+00  -5.8562830880148085e-06 5.1579373685440619e-05 0.0000000000000000e+00  5.0824258084596046e-06 2.4793688621063998e-05 0.0000000000000000e+00  -5.5031788500761782e-06 3.0072821650804872e-05 0.0000000000000000e+00  -7.1527443108008461e-06 3.4763468728343315e-05 0.0000000000000000e+00  -6.0593555393219315e-06 2.4392837901653334e-05 0.0000000000000000e+00  0.0000000000000000e+00 0.0000000000000000e+00 0.0000000000000000e+00  -1.6608428068861262e-07 2.2211847494462441e-06 0.0000000000000000e+00  -1.1958953609700365e-07 1.5920070401545815e-06 0.0000000000000000e+00  -1.3988561549469276e-06 1.6425843177745285e-05 0.0000000000000000e+00  -9.5914791017463490e-07 1.1759887746149729e-05 0.0000000000000000e+00  1.9444829469354420e-05 1.3121483091610434e-04 0.0000000000000000e+00  0.0000000000000000e+00 0.0000000000000000e+00 0.0000000000000000e+00  -4.2705255098163544e-08 5.7732125604886013e-07 0.0000000000000000e+00  -2.7410611819359191e-08 3.7639497483880576e-07 0.0000000000000000e+00  -2.5527523302741661e-08 6.3586315260814539e-07 0.0000000000000000e+00  -6.3271940371439275e-09 5.9919866942018092e-07 0.0000000000000000e+00  -3.3127350017506730e-08 7.8454015655505714e-07 0.0000000000000000e+00  -8.7808834911730241e-07 9.6762477769484866e-06 0.0000000000000000e+00  -4.7321510928398134e-07 5.2581510780758955e-06 0.0000000000000000e+00  -8.5292998541190212e-07 1.2159398636498396e-05 0.0000000000000000e+00  -3.8244255328655524e-07 5.4493387915327408e-06 0.0000000000000000e+00  -6.4967474795887463e-07 1.0060198023932952e-05 0.0000000000000000e+00  0.0000000000000000e+00 0.0000000000000000e+00 0.0000000000000000e+00  -5.6110720290907982e-08 1.0199657987780713e-06 0.0000000000000000e+00  0.0000000000000000e+00 0.0000000000000000e+00 0.0000000000000000e+00  -1.2718436696368527e-06 2.4214916814960029e-05 0.0000000000000000e+00  -8.8127576108254155e-07 1.4877574790223866e-05 0.0000000000000000e+00  -8.8814880408842306e-06 1.8335165444356249e-04 0.0000000000000000e+00  -2.9962401016178940e-07 3.7163530195740915e-06 0.0000000000000000e+00  1.0973820177240734e-05 2.9342973844316143e-05 0.0000000000000000e+00  1.3990286151735570e-05 3.5493174544617990e-05 0.0000000000000000e+00  1.1418656176691490e-05 2.5040219421216227e-05 0.0000000000000000e+00  2.2771948283144215e-05 1.5037495907773392e-04 0.0000000000000000e+00  -4.1952190398502185e-09 4.5756718217466834e-07 0.0000000000000000e+00  9.8955075217872308e-09 6.1026911566684838e-07 0.0000000000000000e+00  -1.5164959232732570e-08 5.3629024208415391e-07 0.0000000000000000e+00  -3.0023840189049496e-09 3.0268992295399855e-07 0.0000000000000000e+00  -1.4085002491797852e-08 3.5337176823021000e-07 0.0000000000000000e+00  0.0000000000000000e+00 0.0000000000000000e+00 0.0000000000000000e+00  1.5952013103291840e-06 8.3140349599804506e-06 0.0000000000000000e+00  7.0479083426116875e-07 3.6293031431245661e-06 0.0000000000000000e+00  -5.7049514177436411e-08 8.0033059433705146e-07 0.0000000000000000e+00  -1.3396215779607061e-07 1.8386522813470212e-06 0.0000000000000000e+00  -1.6434243130667601e-07 2.2040250634055382e-06 0.0000000000000000e+00  -2.4423546760311619e-06 4.7075584299619741e-05 0.0000000000000000e+00  -1.3552634761103500e-06 3.1088859085403670e-05 0.0000000000000000e+00  -2.8099991584636505e-06 1.2860646796468769e-05 0.0000000000000000e+00  -4.6211388026609047e-06 1.8101234308764328e-05 0.0000000000000000e+00  -3.4727416247335026e-06 1.0195487366981919e-05 0.0000000000000000e+00  0.0000000000000000e+00 0.0000000000000000e+00 0.0000000000000000e+00  0.0000000000000000e+00 0.0000000000000000e+00 0.0000000000000000e+00  2.6412263189836555e-07 1.2492587184445801e-06 0.0000000000000000e+00  -3.6287122768976643e-08 5.0694563320692995e-07 0.0000000000000000e+00  -1.4883827024751084e-08 2.0738863877492132e-07 0.0000000000000000e+00  -9.2398486678674512e-06 1.1511613365184018e-04 0.0000000000000000e+00  -8.9105098400120234e-06 1.3310488096534545e-04 0.0000000000000000e+00  -8.1272563565898718e-06 1.1092053381449200e-04 0.0000000000000000e+00  -2.2143948170195460e-07 2.8754080985213915e-06 0.0000000000000000e+00  -2.2194609780404528e-06 1.6829430026677239e-05 0.0000000000000000e+00  -3.3711999495412648e-06 2.3377859451225669e-05 0.0000000000000000e+00  -2.5835402929999096e-06 1.5878506209945150e-05 0.0000000000000000e+00  -1.1702079215438216e-08 3.1417677590915061e-07 0.0000000000000000e+00  -1.6056707150056227e-06 9.3317066025131130e-06 0.0000000000000000e+00  -1.2266807355288401e-06 5.5711952468099312e-06 0.0000000000000000e+00  1.4916362932150529e-05 5.2287258126858981e-05 0.0000000000000000e+00  1.6709989102939590e-05 6.8415208924522120e-05 0.0000000000000000e+00  1.3106079307617054e-05 5.1206847427454161e-05 0.0000000000000000e+00  -9.1849585980914970e-07 6.5396665264710479e-06 0.0000000000000000e+00  -1.5457920724664262e-06 1.2660364818812591e-05 0.0000000000000000e+00  -1.7333850477747864e-06 1.2033135383920329e-05 0.0000000000000000e+00  -3.1880671954649261e-08 5.7390411304160500e-07 0.0000000000000000e+00  -2.8634815689754177e-08 4.2545174565206001e-07 0.0000000000000000e+00  -5.6245231887851335e-08 8.1743610272883351e-07 0.0000000000000000e+00  -1.5649934795868259e-06 2.2040645820625557e-05 0.0000000000000000e+00  -4.2940181606359351e-06 5.1777356857339742e-05 0.0000000000000000e+00  4.425843471