<?xml version="1.0"?>
<VTKFile type="UnstructuredGrid"  version="0.1"  >
<UnstructuredGrid>
<Piece  NumberOfPoints="719" NumberOfCells="1350">
<Points>
<DataArray  type="Float64"  NumberOfComponents="3"  format="ascii">0.4207607463097617 0.19 0  0.4201487168029707 0.1999966199048527 0  0.4261685417851465 0.196409292431739 0  0.5626584888143201 0.21 0  0.5633122436674589 0.1999814296467508 0  0.5571672426447437 0.2036011176410121 0  0.4145905603061963 0.1961819304479011 0  0.4207607463087888 0.21 0  0.4145905603063645 0.2038180695522843 0  0.5626584888145268 0.19 0  0.5688286748170428 0.1961819304477386 0  0.5688286748170693 0.203818069552238 0  0.5571594006495384 0.1963685282145804 0  0.4262598344738712 0.2036568242185335 0  0.6 0.21 0  0.5925316977628483 0.21 0  0.5955705746706843 0.2069223055301326 0  0.6 0.19 0  0.5925316977628897 0.19 0  0.5965740209510578 0.1927759733278094 0  0.5887803774232762 0.2001272386983733 0  0.5815926498168407 0.1966545283159175 0  0.5814408164431408 0.2041285596160068 0  0.5850633955257988 0.19 0  0.5775950932887378 0.19 0  0.5893814947531364 0.2056233639521408 0  0.6 0.2 0  0.6 0.1950000000000217 0  0.594380730180568 0.1966558399668133 0  0.5745072403740523 0.2002044435018727 0  0.446899804139621 0.1999999999998389 0  0.4394315019025246 0.1970915826863714 0  0.4394608940728603 0.2040870543693135 0  0.3946216884789568 0.2000000000001512 0  0.4020059614928624 0.203547899597858 0  0.4019979587101454 0.1959834479682427 0  0.4618364086138087 0.1999999999998546 0  0.4543681063767183 0.1970915826863795 0  0.4543681063761134 0.2040749161535186 0  0.476773013087985 0.1999999999998713 0  0.4693047108508938 0.1970915826863783 0  0.4693047108503577 0.2040749161535231 0  0.4917096175621762 0.1999999999998808 0  0.4842413153250809 0.1970915826863873 0  0.4842413153245942 0.2040749161535287 0  0.5066462220363641 0.199999999999908 0  0.4991779197992749 0.1970915826863902 0  0.4991779197988497 0.2040749161535382 0  0.5215828265105155 0.1999999999999228 0  0.5141145242734466 0.1970915826863843 0  0.5141145242731028 0.2040749161535395 0  0.5365194309847112 0.1999999999999436 0  0.5290511287476175 0.1970915826863981 0  0.5290511287473298 0.2040749161535501 0  0.5511891430099709 0.2001122610077113 0  0.5439877332217911 0.197091582686394 0  0.5439623148931173 0.2040856076781014 0  0.3871533862418661 0.2029084173136212 0  0.3871533862424271 0.1959250838464788 0  0.4089549580935208 0.1998691686391595 0  0.4322718174608562 0.200127451265745 0  0.5327852798661811 0.19 0  0.5253169776290537 0.19 0  0.547721884340339 0.19 0  0.5402535821032429 0.19 0  0.4730388619694271 0.19 0  0.4655705597323621 0.19 0  0.5178486753919799 0.19 0  0.5103803731549078 0.19 0  0.4879754664436223 0.19 0  0.4805071642065402 0.19 0  0.502912070917822 0.19 0  0.4954437686807294 0.19 0  0.4581022574952563 0.19 0  0.4506339552581777 0.19 0  0.3983558395975142 0.21 0  0.4058241418345938 0.21 0  0.4431656530210671 0.19 0  0.4356973507839815 0.19 0  0.5946539510196798 0.2024302972968126 0  0.4132924440726327 0.19 0  0.5701267910514778 0.21 0  0.5701267910515998 0.19 0  0.4132924440716992 0.21 0  0.574400031298126 0.1945411130107761 0  0.5887471324735476 0.1946190227059995 0  0.4282290485468779 0.19 0  0.5551901865771842 0.21 0  0.6 0.2050000000000054 0  0.4468998041387391 0.2056971942287257 0  0.3946216884797873 0.1943028057712679 0  0.4618364086130068 0.2056971942287359 0  0.4767730130872753 0.2056971942287455 0  0.4917096175615203 0.2056971942287492 0  0.5066462220358396 0.2056971942287649 0  0.5215828265100828 0.2056971942287677 0  0.5365194309843644 0.2056971942287865 0  0.5514560354586301 0.2056971942287897 0  0.4319631996644724 0.205697194228716 0  0.5551901865773963 0.19 0  0.4282290485459029 0.21 0  0.5743797868482748 0.2056178169806182 0  0.4090477820585017 0.1944069323162114 0  0.5365194309847112 0.1943028057711659 0  0.5215828265105155 0.1943028057711514 0  0.5511851248594936 0.1945772515115504 0  0.4767730130879849 0.1943028057711153 0  0.4618364086138088 0.1943028057711072 0  0.3908875373604028 0.21 0  0.3946216884789569 0.2056971942288966 0  0.446899804139621 0.194302805771098 0  0.4917096175621761 0.1943028057711214 0  0.5066462220363641 0.1943028057711422 0  0.4322275012857285 0.1945847121082109 0  0.409279320968396 0.2055930218740123 0  0.480507164205851 0.21 0  0.4879754664429498 0.21 0  0.4655705597315852 0.21 0  0.4730388619686996 0.21 0  0.3908875373612097 0.19 0  0.3834192351240934 0.19 0  0.5103803731544119 0.21 0  0.5178486753915261 0.21 0  0.5402535821029386 0.21 0  0.54772188434007 0.21 0  0.4506339552573136 0.21 0  0.4581022574944306 0.21 0  0.4954437686800938 0.21 0  0.502912070917267 0.21 0  0.4058241418354857 0.19 0  0.3983558395983636 0.19 0  0.4356973507830418 0.21 0  0.4431656530201649 0.21 0  0.5253169776286404 0.21 0  0.5327852798657868 0.21 0  0.5775950932886138 0.21 0  0.5850633955257281 0.21 0  1.835188936345112 0.2050000000000699 0  1.838465412967181 0.2953145553852501 0  1.915883512473161 0.2050000000000692 0  1.833166318986108 0.1007828475280248 0  2.383594446803656 0.41 0  2.271253957291315 0.41 0  2.346386298105263 0.3062476289039515 0  0.6300528284996487 0.2292604486710743 0  0.65429728832161 0.2353880751391984 0  0.6456429596876728 0.2209784072651823 0  0.6244559818022579 0.1024805481876779 0  0.6331542554485198 0.1311064488920115 0  0.604876951083344 0.1323679928240978 0  0.5950070799606315 0.1111116928105405 0  0.7179098792074922 0.09515556231434774 0  0.6930564374308674 0.1341308449452096 0  0.6808979566904864 0.09264351137968369 0  1.943162250261133 0.2848182236928814 0  1.943162250261127 0.1251817763071746 0  2.244824738199097 0.3091885999356265 0  0.5022733717445609 0.2484520140959261 0  0.5039200503329727 0.2634569969024956 0  0.4870587955368383 0.2511092200731516 0  0.4543681063767173 0.1676928600783137 0  0.4456512193123995 0.1563006663224736 0  0.4634554111966759 0.156587601803556 0  0.4619845553363554 0.2471559623297018 0  0.4744155700740079 0.2566595549135983 0  0.4718174066442032 0.2448602332187449 0  0.401463131821351 0.2240614152536154 0  0.4020899907160548 0.2165302463955136 0  0.3946216884789568 0.2158195727016258 0  0.5019588293971892 0.1448324961346233 0  0.5202014138752529 0.1378594850692911 0  0.5186581766834214 0.1505504706653799 0  0.5805147821309363 0.1750906865638377 0  0.5830971905392573 0.1610562557540074 0  0.5891905322413319 0.173297484523883 0  1.317087908068179 0.2834507950760127 0  1.416789257258389 0.3075294577736497 0  1.357724299039236 0.2303555143487852 0  2.383594446803425 0 0  2.301748441448983 0.1032848369023014 0  2.415100580332905 0.08367007402675902 0  0.883612004374276 0.2044999257790265 0  0.941405262964606 0.2275541950732263 0  0.8724873572796065 0.2505182730032114 0  0.6580228992389956 0.1177787934340178 0  0.6385847074107548 0.1562173919888177 0  0.6641520523959832 0.1503720468916702 0  1.674965418778818 0.41 0  1.58737143976041 0.41 0  1.617304647871871 0.3102553946317155 0  1.587371439758838 0 0  1.674965418777374 0 0  1.627799041349754 0.08170835291169204 0  0.4991779197992711 0.167693385507626 0  0.4900906149793102 0.1565876018036352 0  0.5082652246192162 0.1565876018036352 0  0.4319631996644723 0.2259854221051505 0  0.4420138570927455 0.2303582032589531 0  0.4274409436629797 0.2358490737568498 0  1.122434100544716 0.41 0  1.068894913355815 0.339699543595371 0  1.154144739340952 0.3428674566149401 0  0.9084404882614506 0.2892191224003848 0  1.215451113850732 0.2103314603357224 0  1.249863529963017 0.2672258935273379 0  1.176331347569866 0.2754551993599315 0  0.5740383564454857 0.232486177523615 0  0.5800331369475803 0.2220172718503647 0  0.5872716114964233 0.2289047791562547 0  0.7101078070491313 0.04593780015520291 0  0.7273492824638629 0.1308306999820452 0  2.01253088870001 0.2050000000000507 0  0.6699818017210338 0.05718888729500279 0  0.589683001657349 0.3059206033515077 0  0.629251049118315 0.3129131677620721 0  0.6129037791821019 0.2898142990521698 0  0.5669464924360815 0.2475839849813879 0  0.5841951273902199 0.2421589553533847 0  0.5209814004512184 0.2362962593649592 0  0.5347760817351684 0.2414500964404198 0  0.5183393333239584 0.2464065549333135 0  0.5461387848636305 0.1174764669537213 0  0.5361687701469152 0.1326608756097835 0  0.5197325460646487 0.1214075108099659 0  0.5857082964501902 0.1444062384003248 0  0.5690392421172527 0.1384821647678796 0  0.5733051421814971 0.1505504706653721 0  0.9882218810956305 0.41 0  0.9246101326886647 0.41 0  0.9513232956593279 0.344238796639219 0  0.5166834276845828 0.2571581640138182 0  0.596265848881445 0.1672046255295837 0  1.419591277297145 0.2050000000000071 0  0.4421897352483806 0.3061937447056332 0  0.418091171977014 0.3243162836372635 0  0.412607471649106 0.2990503898016255 0  0.8632198139519631 0.41 0  0.882513772872486 0.3520608410452225 0  0.8202234869765325 0.364591028094237 0  1.421253448505726 0.41 0  1.355827918100823 0.3414955155607449 0  1.421253448503939 0 0  1.418271536314166 0.09353562972960013 0  1.355827918100725 0.06850448443910542 0  0.7991030424147842 0.1996369747921017 0  0.755404159289092 0.1590232243285952 0  0.7509674852354215 0.2077605643765068 0  0.4953767731769588 0.1188694761679334 0  0.506255180108809 0.1312411055441881 0  0.4787056372270673 0.2371901345199761 0  0.4898985359610427 0.2395108277223441 0  0.8502354418587501 0.1560244879407868 0  0.9215858179635137 0.1737964996919513 0  0.4302139512950107 0.2879708289588951 0  0.9080221499231149 0.1220333110997775 0  0.3909674209965625 0.2226356941037057 0  1.122434100542598 0 0  1.070453094842314 0.06960241275844714 0  1.154904552424504 0.06969164993518225 0  0.5678918321244223 0.2848057098346606 0  0.5916500441695769 0.2809526698769227 0  0.5813292444071699 0.2563523755659055 0  0.5593867837568711 0.2625481287604455 0  0.6158241656144056 0.2465955912391796 0  0.6368758304361363 0.2529361994816268 0  0.5380469068795991 0.270190988877121 0  0.5487739828661812 0.2837987172973246 0  0.4143465137990051 0.053229610117
[...]
<PointData  Vectors="f_42-1"> 
<DataArray  type="Float64"  Name="f_42-1"  NumberOfComponents="3" format="ascii">1.1453843288098514e-06 -1.2937901918937535e-05 0.0000000000000000e+00  2.4324210356092297e-06 -1.3347463938693563e-05 0.0000000000000000e+00  1.9860492130094845e-06 -1.3960641980049629e-05 0.0000000000000000e+00  3.1957379990467677e-06 -3.4363396894863989e-05 0.0000000000000000e+00  1.6487572287086007e-06 -3.4131995275037389e-05 0.0000000000000000e+00  2.2950976491857036e-06 -3.3317449973809813e-05 0.0000000000000000e+00  1.9214569452427920e-06 -1.2436086328822513e-05 0.0000000000000000e+00  3.7461044277170855e-06 -1.3935747983979441e-05 0.0000000000000000e+00  2.8974671330945122e-06 -1.2821452960591794e-05 0.0000000000000000e+00  1.5041785769020162e-07 -3.3704421274174170e-05 0.0000000000000000e+00  9.8504710263025632e-07 -3.4850407755889078e-05 0.0000000000000000e+00  2.1491844770966274e-06 -3.5096964222007594e-05 0.0000000000000000e+00  1.1955744037161901e-06 -3.3073944302181486e-05 0.0000000000000000e+00  2.9429267303700573e-06 -1.4330497288153686e-05 0.0000000000000000e+00  2.5697407111254453e-06 -4.0066153868196341e-05 0.0000000000000000e+00  2.6899651545717486e-06 -3.8887476443472080e-05 0.0000000000000000e+00  2.1409953879099910e-06 -3.9267018793116432e-05 0.0000000000000000e+00  -4.9619672748682985e-07 -3.9416970740290055e-05 0.0000000000000000e+00  -3.7314969848277500e-07 -3.8308579337980935e-05 0.0000000000000000e+00  -4.1516614564379439e-08 -3.8998953679797461e-05 0.0000000000000000e+00  1.2198225846344498e-06 -3.8025710590955546e-05 0.0000000000000000e+00  8.3189450752163657e-07 -3.6823268376542333e-05 0.0000000000000000e+00  1.9783643867451325e-06 -3.7023522631675690e-05 0.0000000000000000e+00  -2.3517724511284578e-07 -3.7157667957171410e-05 0.0000000000000000e+00  -9.9191408487483266e-08 -3.6002892509899921e-05 0.0000000000000000e+00  2.0579990819317875e-06 -3.8276005253033899e-05 0.0000000000000000e+00  9.6916007537952697e-07 -3.9741851257214062e-05 0.0000000000000000e+00  2.1545168099336185e-07 -3.9580988683398304e-05 0.0000000000000000e+00  5.7518808801770172e-07 -3.8783260443610584e-05 0.0000000000000000e+00  1.5032804185489337e-06 -3.5846319473006150e-05 0.0000000000000000e+00  2.5035429020508608e-06 -1.6946228460151089e-05 0.0000000000000000e+00  2.0989648871378901e-06 -1.5782339820484122e-05 0.0000000000000000e+00  3.0510846943897275e-06 -1.6119601766764914e-05 0.0000000000000000e+00  2.2790391414421911e-06 -1.0140761996822033e-05 0.0000000000000000e+00  2.7687172262122612e-06 -1.1227872428412312e-05 0.0000000000000000e+00  1.8412205809222858e-06 -1.0832793767432509e-05 0.0000000000000000e+00  2.4994946765935284e-06 -1.9041434015642788e-05 0.0000000000000000e+00  2.0988534955486676e-06 -1.7854870605073407e-05 0.0000000000000000e+00  3.0758267790984723e-06 -1.8175869127682673e-05 0.0000000000000000e+00  2.4648077339705520e-06 -2.1183983255769672e-05 0.0000000000000000e+00  2.0701577636832035e-06 -1.9979853261551021e-05 0.0000000000000000e+00  3.0694851061771091e-06 -2.0288553602654759e-05 0.0000000000000000e+00  2.3994980117241807e-06 -2.3364645720767270e-05 0.0000000000000000e+00  2.0125778651096853e-06 -2.2147463700583793e-05 0.0000000000000000e+00  3.0301535586791528e-06 -2.2443884443343018e-05 0.0000000000000000e+00  2.3033398641474526e-06 -2.5575602441799743e-05 0.0000000000000000e+00  1.9257943054486495e-06 -2.4349144537120001e-05 0.0000000000000000e+00  2.9579990500131676e-06 -2.4633180665042869e-05 0.0000000000000000e+00  2.1761668390069483e-06 -2.7810050340641252e-05 0.0000000000000000e+00  1.8094573273662362e-06 -2.6577670987188696e-05 0.0000000000000000e+00  2.8529033868394093e-06 -2.6849265686891443e-05 0.0000000000000000e+00  2.0177235222012370e-06 -3.0062476762055803e-05 0.0000000000000000e+00  1.6630847283319771e-06 -2.8826838311859368e-05 0.0000000000000000e+00  2.7152349361462643e-06 -2.9085888330415890e-05 0.0000000000000000e+00  1.8494072959064222e-06 -3.2291134309521993e-05 0.0000000000000000e+00  1.4864097715226103e-06 -3.1091324785677835e-05 0.0000000000000000e+00  2.5470897698044354e-06 -3.1334792481752782e-05 0.0000000000000000e+00  2.5535851881673551e-06 -9.4153988578933386e-06 0.0000000000000000e+00  1.7450917796893313e-06 -9.0401032662632450e-06 0.0000000000000000e+00  2.3620262538179512e-06 -1.1900792747470229e-05 0.0000000000000000e+00  2.4960723322165915e-06 -1.4956038823627375e-05 0.0000000000000000e+00  5.6161977443332299e-07 -2.9135212931949784e-05 0.0000000000000000e+00  6.4541583453820489e-07 -2.7997811593602090e-05 0.0000000000000000e+00  3.7107964326689387e-07 -3.1414803003046131e-05 0.0000000000000000e+00  4.6942787687631092e-07 -3.0271119279955252e-05 0.0000000000000000e+00  1.0487371828812897e-06 -2.0214798174039080e-05 0.0000000000000000e+00  1.0786081313699741e-06 -1.9132937298470903e-05 0.0000000000000000e+00  7.2370609034157092e-07 -2.6869664221293076e-05 0.0000000000000000e+00  7.9337068355755833e-07 -2.5741383841033654e-05 0.0000000000000000e+00  9.6631292666793614e-07 -2.2403040518480842e-05 0.0000000000000000e+00  1.0091006195862322e-06 -2.1302002329635583e-05 0.0000000000000000e+00  8.5821754951931518e-07 -2.4623619002260549e-05 0.0000000000000000e+00  9.1424389167782302e-07 -2.3507324235164403e-05 0.0000000000000000e+00  1.1063759739289344e-06 -1.8067119368017185e-05 0.0000000000000000e+00  1.1238188120591828e-06 -1.7009123220207864e-05 0.0000000000000000e+00  3.5301585823720863e-06 -1.1134844276327480e-05 0.0000000000000000e+00  3.6102085407332521e-06 -1.2044858150482282e-05 0.0000000000000000e+00  1.1403275361230208e-06 -1.5969564075114253e-05 0.0000000000000000e+00  1.1457969875380782e-06 -1.4940788937544187e-05 0.0000000000000000e+00  1.4514589231300187e-06 -3.8993286591321723e-05 0.0000000000000000e+00  1.1336843123145212e-06 -1.1967078095540687e-05 0.0000000000000000e+00  3.0779981065283966e-06 -3.5492692075734318e-05 0.0000000000000000e+00  2.8146109348397517e-08 -3.4852980271591043e-05 0.0000000000000000e+00  3.6846926903469900e-06 -1.2981646054189092e-05 0.0000000000000000e+00  6.4070970376162757e-07 -3.5653851768638144e-05 0.0000000000000000e+00  3.8653100712273985e-07 -3.7862251567510819e-05 0.0000000000000000e+00  1.1500025040400210e-06 -1.3931756889368319e-05 0.0000000000000000e+00  3.3037226446426090e-06 -3.3236597645202965e-05 0.0000000000000000e+00  1.7454048972556408e-06 -3.9903511787828114e-05 0.0000000000000000e+00  3.2908489973471392e-06 -1.7216866302239426e-05 0.0000000000000000e+00  1.5997371599707314e-06 -9.8464300356705122e-06 0.0000000000000000e+00  3.3067418621628150e-06 -1.9301546875824204e-05 0.0000000000000000e+00  3.2886038514426012e-06 -2.1433486837335961e-05 0.0000000000000000e+00  3.2366020760070011e-06 -2.3603570083603548e-05 0.0000000000000000e+00  3.1509494441926547e-06 -2.5803896070214458e-05 0.0000000000000000e+00  3.0318807783599561e-06 -2.8027790516994754e-05 0.0000000000000000e+00  2.8797983024768697e-06 -3.0269739307718331e-05 0.0000000000000000e+00  2.6947423850950050e-06 -3.2524517447624207e-05 0.0000000000000000e+00  3.2414998183243499e-06 -1.5189144655096805e-05 0.0000000000000000e+00  2.6338204773438565e-07 -3.2557951807561308e-05 0.0000000000000000e+00  3.7974223142945152e-06 -1.4911575088032334e-05 0.0000000000000000e+00  2.3321211833350701e-06 -3.5996558635495487e-05 0.0000000000000000e+00  1.6773099876384817e-06 -1.1638321918020326e-05 0.0000000000000000e+00  1.1593950174671998e-06 -2.9856981134223338e-05 0.0000000000000000e+00  1.3238449113872934e-06 -2.7594603153073660e-05 0.0000000000000000e+00  1.0102140656890647e-06 -3.2100244203350556e-05 0.0000000000000000e+00  1.6443287330333183e-06 -2.0939282999413075e-05 0.0000000000000000e+00  1.6954810595764086e-06 -1.8787186787861242e-05 0.0000000000000000e+00  3.4334925775082425e-06 -1.0244801984054057e-05 0.0000000000000000e+00  2.9615322809463210e-06 -1.0448124188676397e-05 0.0000000000000000e+00  1.7197760538851578e-06 -1.6682537814808093e-05 0.0000000000000000e+00  1.5656890538199536e-06 -2.3129577219757115e-05 0.0000000000000000e+00  1.4590646013814939e-06 -2.5350266754187789e-05 0.0000000000000000e+00  1.7553766628170332e-06 -1.4685184911021053e-05 0.0000000000000000e+00  3.0842685460176262e-06 -1.2241147259587054e-05 0.0000000000000000e+00  3.9116400469433674e-06 -2.2162064593428925e-05 0.0000000000000000e+00  3.8901872566366062e-06 -2.3240347787319198e-05 0.0000000000000000e+00  3.9264997144325400e-06 -2.0028123424353242e-05 0.0000000000000000e+00  3.9231526442819651e-06 -2.1087338418883689e-05 0.0000000000000000e+00  1.0801642048336901e-06 -9.1801883833790783e-06 0.0000000000000000e+00  1.0492319227487121e-06 -8.2996987590064228e-06 0.0000000000000000e+00  3.7739213346295188e-06 -2.6530632176927531e-05 0.0000000000000000e+00  3.7171544976259474e-06 -2.7635858471930159e-05 0.0000000000000000e+00  3.4961605000549423e-06 -3.0988819425444567e-05 0.0000000000000000e+00  3.4046898129602932e-06 -3.2109684803865016e-05 0.0000000000000000e+00  3.9047641242597352e-06 -1.7939304674258596e-05 0.0000000000000000e+00  3.9197098927467220e-06 -1.8974678519520797e-05 0.0000000000000000e+00  3.8607596285174008e-06 -2.4332201270956011e-05 0.0000000000000000e+00  3.8215581320539502e-06 -2.5425355964943023e-05 0.0000000000000000e+00  1.1236141192933847e-06 -1.1013702005286829e-05 0.0000000000000000e+00  1.1029692802100902e-06 -1.0083161477620414e-05 0.0000000000000000e+00  3.8454262844971581e-06 -1.5904487702837780e-05 0.0000000000000000e+00  3.8791451435212935e-06 -1.6911645207095424e-05 0.0000000000000000e+00  3.6522879849713467e-06 -2.8751313825748194e-05 0.0000000000000000e+00  3.5784274923689317e-06 -2.9865617201413387e-05 0.0000000000000000e+00  2.9555513671050711e-06 -3.6622752921683377e-05 0.0000000000000000e+00  2.8231619861617997e-06 -3.7750568503888770e-05 0.0000000000000000e+00  6.8376913536243454e-11 -1.7236410222945106e-09 0.0000000000000000e+00  5.1367806341008651e-11 -1.2947938040158310e-09 0.0000000000000000e+00  3.7169169909108023e-11 -9.3695648328328817e-10 0.0000000000000000e+00  4.9859859155670996e-11 -1.2569572062990630e-09 0.0000000000000000e+00  0.0000000000000000e+00 0.0000000000000000e+00 0.0000000000000000e+00  0.0000000000000000e+00 0.0000000000000000e+00 0.0000000000000000e+00  8.3488701440160975e-13 -2.1045728604821756e-11 0.0000000000000000e+00  1.1726423060362551e-06 -2.2454434216430666e-05 0.0000000000000000e+00  8.5472185257257459e-07 -1.7344510121435123e-05 0.0000000000000000e+00  8.9830613825004716e-07 -2.0045155278399397e-05 0.0000000000000000e+00  2.1176514720156718e-07 -1.2196654032744602e-05 0.0000000000000000e+00  2.7156428166573396e-07 -1.5707700506554876e-05 0.0000000000000000e+00  2.4262155589745577e-07 -1.8085350251379197e-05 0.0000000000000000e+00  2.2466257289619520e-07 -1.4766152023006795e-05 0.0000000000000000e+00  1.7269856336944454e-07 -6.4738052238239739e-06 0.0000000000000000e+00  2.8137640060631297e-07 -1.0587762494124474e-05 0.0000000000000000e+00  1.8552680628506838e-07 -8.0941438469054301e-06 0.0000000000000000e+00  2.3547742788253978e-11 -5.9357464562075372e-10 0.0000000000000000e+00  2.3257119899689055e-11 -5.8627862965271211e-10 0.0000000000000000e+00  1.8988758979980344e-12 -4.7866542850923222e-11 0.0000000000000000e+00  2.7977274288666963e-06 -1.9430101140082548e-05 0.0000000000000000e+00  2.4460972258661041e-06 -1.7370737711435303e-05 0.0000000000000000e+00  2.7855382143543662e-06 -1.7653432494042575e-05 0.0000000000000000e+00  8.9211166882094854e-07 -1.5459558745301419e-05 0.0000000000000000e+00  8.1013567014334867e-07 -1.3469581178841361e-05 0.0000000000000000e+00  7.7775044415240305e-07 -1.5354241311813094e-05 0.0000000000000000e+00  2.9044698818307854e-06 -1.5679492963331238e-05 0.0000000000000000e+00  2.6753050459771859e-06 -1.5805283712303425e-05 0.0000000000000000e+00  2.9627628995397502e-06 -1.6920721252337681e-05 0.0000000000000000e+00  3.1833553311949397e-06 -1.0938232362156384e-05 0.0000000000000000e+00  3.3896046438497216e-06 -1.1326111337507838e-05 0.0000000000000000e+00  3.3245199380800025e-06 -1.0497174967132437e-05 0.0000000000000000e+00  5.6299888190487335e-07 -1.7621394969410049e-05 0.0000000000000000e+00  4.5313500492426968e-07 -1.7982238032897112e-05 0.0000000000000000e+00  5.1072584309767537e-07 -1.9955984041301086e-05 0.0000000000000000e+00  5.7476951194693891e-08 -3.0573912511430879e-05 0.0000000000000000e+00  1.6633035442820022e-07 -2.6013360029874728e-05 0.0000000000000000e+00  5.1839619915787115e-08 -2.9980958229926597e-05 0.0000000000000000e+00  3.1205438593098835e-09 -7.8432815947749998e-08 0.0000000000000000e+00  1.2523838436234141e-09 -3.1512614230132706e-08 0.0000000000000000e+00  2.7358461189780625e-09 -6.8909633126459245e-08 0.0000000000000000e+00  0.0000000000000000e+00 0.0000000000000000e+00 0.0000000000000000e+00  1.1566322342848743e-12 -2.9156368339042524e-11 0.0000000000000000e+00  3.0897136888918973e-13 -7.7885376537011410e-12 0.0000000000000000e+00  1.1188249672564014e-07 -2.8288294646362849e-06 0.0000000000000000e+00  7.1013818698771296e-08 -1.7683299854320303e-06 0.0000000000000000e+00  1.1862134424530192e-07 -2.8532214983514864e-06 0.0000000000000000e+00  2.5054976912500204e-07 -1.1963129213003989e-05 0.0000000000000000e+00  3.5778012632578756e-07 -1.8577206291310814e-05 0.0000000000000000e+00  3.5345656385039722e-07 -1.4638827512813020e-05 0.0000000000000000e+00  0.0000000000000000e+00 0.0000000000000000e+00 0.0000000000000000e+00  0.0000000000000000e+00 0.0000000000000000e+00 0.0000000000000000e+00  2.5412872028416494e-10 -6.4035231681377183e-09 0.0000000000000000e+00  0.0000000000000000e+00 0.0000000000000000e+00 0.0000000000000000e+00  0.0000000000000000e+00 0.0000000000000000e+00 0.0000000000000000e+00  1.9758103837098342e-10 -4.9825672935696436e-09 0.0000000000000000e+00  7.1244835437792399e-07 -2.0715069254614908e-05 0.0000000000000000e+00  6.8530113048971739e-07 -1.8139659413893434e-05 0.0000000000000000e+00  5.9476520711713714e-07 -1.9989950722946673e-05 0.0000000000000000e+00  3.3673332399348820e-06 -1.4286891462730429e-05 0.0000000000000000e+00  3.2952315154632735e-06 -1.5105683664494610e-05 0.0000000000000000e+00  3.0838018419683321e-06 -1.3074079189064559e-05 0.0000000000000000e+00  0.0000000000000000e+00 0.0000000000000000e+00 0.0000000000000000e+00  1.3809299374420810e-08 -3.3802474741239982e-07 0.0000000000000000e+00  6.8227465411914938e-09 -1.6933710349536626e-07 0.0000000000000000e+00  7.9112473188382625e-08 -1.8616558178284758e-06 0.0000000000000000e+00  8.4418868766387924e-09 -2.1272490166857658e-07 0.0000000000000000e+00  5.7244392110059506e-09 -1.4374617719575840e-07 0.0000000000000000e+00  9.9386324612032283e-09 -2.4865361436289197e-07 0.0000000000000000e+00  2.4471988250151444e-06 -2.8442339978091523e-05 0.0000000000000000e+00  2.5846168035956991e-06 -3.2235871636969394e-05 0.0000000000000000e+00  2.2704311765413929e-06 -2.9802516685075045e-05 0.0000000000000000e+00  8.3322079774084755e-08 -3.3844232704998884e-06 0.0000000000000000e+00  2.3750715976080087e-07 -7.9858330338440528e-06 0.0000000000000000e+00  1.7210622286706001e-11 -4.3384384546155250e-10 0.0000000000000000e+00  1.1468428036539553e-07 -5.3512082943414715e-06 0.0000000000000000e+00  1.1408936752616250e-06 -1.2878365102518316e-05 0.0000000000000000e+00  7.9701541481344646e-07 -1.0650121692611403e-05 0.0000000000000000e+00  1.1154403513050296e-06 -1.4502109949850998e-05 0.0000000000000000e+00  2.2445049275415298e-06 -2.4148892827037034e-05 0.0000000000000000e+00  2.0764818308963700e-06 -2.5684834341781814e-05 0.0000000000000000e+00  2.9831919030971276e-06 -2.3260002113238984e-05 0.0000000000000000e+00  2.7437807583024947e-06 -2.3580336398163751e-05 0.0000000000000000e+00  2.7579231146884320e-06 -2.1225342747535798e-05 0.0000000000000000e+00  3.0800620397897215e-07 -1.5843577351212649e-05 0.0000000000000000e+00  3.7310705174566463e-07 -1.8052455694607780e-05 0.0000000000000000e+00  3.9804338535225208e-07 -1.5351687085620633e-05 0.0000000000000000e+00  2.2671941222667525e-07 -2.1559094256568037e-05 0.0000000000000000e+00  2.6172980419749842e-07 -2.0361230902966713e-05 0.0000000000000000e+00  2.3303118635754182e-07 -2.3167197625479275e-05 0.0000000000000000e+00  0.0000000000000000e+00 0.0000000000000000e+00 0.0000000000000000e+00  0.0000000000000000e+00 0.0000000000000000e+00 0.0000000000000000e+00  3.3969359587213760e-08 -7.9649829338893706e-07 0.0000000000000000e+00  2.5209941446814914e-06 -1.9301965457143082e-05 0.0000000000000000e+00  1.3752892181885956e-07 -2.7346381403905639e-05 0.0000000000000000e+00  1.7422714437682447e-09 -4.3917282834247626e-08 0.0000000000000000e+00  1.6277275730630405e-06 -8.6261938056746846e-06 0.0000000000000000e+00  1.2580721443106962e-06 -6.0931208037229599e-06 0.0000000000000000e+00  1.6674517897360727e-06 -7.5766435454055402e-06 0.0000000000000000e+00  0.0000000000000000e+00 0.0000000000000000e+00 0.0000000000000000e+00  5.4366376555916094e-08 -1.2095405600064586e-06 0.0000000000000000e+00  7.3945249084399668e-08 -1.5224840087789385e-06 0.0000000000000000e+00  0.0000000000000000e+00 0.0000000000000000e+00 0.0000000000000000e+00  1.4502858737644588e-09 -3.6432925258018999e-08 0.0000000000000000e+00  0.0000000000000000e+00 0.0000000000000000e+00 0.0000000000000000e+00  1.1462505795560978e-09 -2.8947439350769782e-08 0.0000000000000000e+00  1.4229651463028670e-09 -3.5989574556783658e-08 0.0000000000000000e+00  2.1498084729242932e-07 -5.5152517312281812e-06 0.0000000000000000e+00  2.4943166585059079e-07 -7.3000163808880049e-06 0.0000000000000000e+00  3.1824295234728672e-07 -8.0843695060592772e-06 0.0000000000000000e+00  4.5881077751197607e-07 -1.3543879686044510e-05 0.0000000000000000e+00  4.8124893543930273e-07 -1.5964470422667696e-05 0.0000000000000000e+00  3.1502234301990320e-06 -1.8565024949045047e-05 0.0000000000000000e+00  3.0647306036436385e-06 -1.9472137344422154e-05 0.0000000000000000e+00  1.2584728068098877e-07 -3.4084790643615674e-06 0.0000000000000000e+00  7.8456587325370749e-08 -2.0280144159890010e-06 0.0000000000000000e+00  1.9389715733491534e-06 -9.4283759239432621e-06 0.0000000000000000e+00  6.9210532762132962e-08 -1.8794573238674878e-06 0.0000000000000000e+00  3.1045479856917633e-06 -9.8605225031706084e-06 0.0000000000000000e+00  0.0000000000000000e+00 0.0000000000000000e+00 0.0000000000000000e+00  1.2652529710989986e-08 -3.2867166667945192e-07 0.0000000000000000e+00  6.8308326666423409e-09 -1.7489266156132640e-07 0.0000000000000000e+00  1.5984203549279961e-06 -1.6512492989140461e-05 0.0000000000000000e+00  1.4249382776043431e-06 -1.6885779625836327e-05 0.0000000000000000e+00  1.8893437537539062e-06 -2.2141155643228761e-05 0.0000000000000000e+00  2.0565685363837764e-06 -2.0625403974028620e-05 0.0000000000000000e+00  1.4178971958065436e-06 -2.1838959481616435e-05 0.0000000000000000e+00  1.0694551047013702e-06 -1.7951030631431722e-05 0.0000000000000000e+00  2.1054586331252772e-06 -1.8398967665996939e-05 0.0000000000000000e+00  1.7756577338872891e-06 -1.6423657792161230e-05 0.0000000000000000e+00  2.1668368915734152e-07 -3.6569309714538495e-06 0.0000000000000000e+00  1.3051377430426718e-07 -1.9010423093119927e-06 0.0000000000000000e+00  2.8308875720219293e-07 -3.9748641380636528e-06 0.0000000000000000e+00  2.3734758873119238e-06 -1.5167515593061230e-05 0.0000000000000000e+00  1.4634536302062520e-08 -3.5222858673011247e-07 0.0000000000000000e+00  1.2262282531683479e-06 -1.0532663370137952e-05 0.0000000000000000e+00  9.5957353207214117e-07 -7.1238157235761110e-06 0.0000000000000000e+00  1.4186695277954926e-06 -1.0757381196073024e-05 0.0000000000000000e+00  0.0000000000000000e+00 0.0000000000000000e+00 0.0000000000000000e+00  1.1044780491328899e-07 -2.3815329032638673e-06 0.0000000000000000e+00  1.8845914744224330e-06 -1.1221896671141066e-05 0.0000000000000000e+00  2.1491539087455908e-06 -1.1470916895345229e-05 0.0000000000000000e+00  0.0000000000000000e+00 0.0000000000000000e+00 0.0000000000000000e+00  3.5713069055118539e