<?xml version="1.0"?>
<VTKFile type="UnstructuredGrid"  version="0.1"  >
<UnstructuredGrid>
<Piece  NumberOfPoints="719" NumberOfCells="1350">
<Points>
<DataArray  type="Float64"  NumberOfComponents="3"  format="ascii">0.4207607463097617 0.19 0  0.4201487168029707 0.1999966199048527 0  0.4261685417851465 0.196409292431739 0  0.5626584888143201 0.21 0  0.5633122436674589 0.1999814296467508 0  0.5571672426447437 0.2036011176410121 0  0.4145905603061963 0.1961819304479011 0  0.4207607463087888 0.21 0  0.4145905603063645 0.2038180695522843 0  0.5626584888145268 0.19 0  0.5688286748170428 0.1961819304477386 0  0.5688286748170693 0.203818069552238 0  0.5571594006495384 0.1963685282145804 0  0.4262598344738712 0.2036568242185335 0  0.6 0.21 0  0.5925316977628483 0.21 0  0.5955705746706843 0.2069223055301326 0  0.6 0.19 0  0.5925316977628897 0.19 0  0.5965740209510578 0.1927759733278094 0  0.5887803774232762 0.2001272386983733 0  0.5815926498168407 0.1966545283159175 0  0.5814408164431408 0.2041285596160068 0  0.5850633955257988 0.19 0  0.5775950932887378 0.19 0  0.5893814947531364 0.2056233639521408 0  0.6 0.2 0  0.6 0.1950000000000217 0  0.594380730180568 0.1966558399668133 0  0.5745072403740523 0.2002044435018727 0  0.446899804139621 0.1999999999998389 0  0.4394315019025246 0.1970915826863714 0  0.4394608940728603 0.2040870543693135 0  0.3946216884789568 0.2000000000001512 0  0.4020059614928624 0.203547899597858 0  0.4019979587101454 0.1959834479682427 0  0.4618364086138087 0.1999999999998546 0  0.4543681063767183 0.1970915826863795 0  0.4543681063761134 0.2040749161535186 0  0.476773013087985 0.1999999999998713 0  0.4693047108508938 0.1970915826863783 0  0.4693047108503577 0.2040749161535231 0  0.4917096175621762 0.1999999999998808 0  0.4842413153250809 0.1970915826863873 0  0.4842413153245942 0.2040749161535287 0  0.5066462220363641 0.199999999999908 0  0.4991779197992749 0.1970915826863902 0  0.4991779197988497 0.2040749161535382 0  0.5215828265105155 0.1999999999999228 0  0.5141145242734466 0.1970915826863843 0  0.5141145242731028 0.2040749161535395 0  0.5365194309847112 0.1999999999999436 0  0.5290511287476175 0.1970915826863981 0  0.5290511287473298 0.2040749161535501 0  0.5511891430099709 0.2001122610077113 0  0.5439877332217911 0.197091582686394 0  0.5439623148931173 0.2040856076781014 0  0.3871533862418661 0.2029084173136212 0  0.3871533862424271 0.1959250838464788 0  0.4089549580935208 0.1998691686391595 0  0.4322718174608562 0.200127451265745 0  0.5327852798661811 0.19 0  0.5253169776290537 0.19 0  0.547721884340339 0.19 0  0.5402535821032429 0.19 0  0.4730388619694271 0.19 0  0.4655705597323621 0.19 0  0.5178486753919799 0.19 0  0.5103803731549078 0.19 0  0.4879754664436223 0.19 0  0.4805071642065402 0.19 0  0.502912070917822 0.19 0  0.4954437686807294 0.19 0  0.4581022574952563 0.19 0  0.4506339552581777 0.19 0  0.3983558395975142 0.21 0  0.4058241418345938 0.21 0  0.4431656530210671 0.19 0  0.4356973507839815 0.19 0  0.5946539510196798 0.2024302972968126 0  0.4132924440726327 0.19 0  0.5701267910514778 0.21 0  0.5701267910515998 0.19 0  0.4132924440716992 0.21 0  0.574400031298126 0.1945411130107761 0  0.5887471324735476 0.1946190227059995 0  0.4282290485468779 0.19 0  0.5551901865771842 0.21 0  0.6 0.2050000000000054 0  0.4468998041387391 0.2056971942287257 0  0.3946216884797873 0.1943028057712679 0  0.4618364086130068 0.2056971942287359 0  0.4767730130872753 0.2056971942287455 0  0.4917096175615203 0.2056971942287492 0  0.5066462220358396 0.2056971942287649 0  0.5215828265100828 0.2056971942287677 0  0.5365194309843644 0.2056971942287865 0  0.5514560354586301 0.2056971942287897 0  0.4319631996644724 0.205697194228716 0  0.5551901865773963 0.19 0  0.4282290485459029 0.21 0  0.5743797868482748 0.2056178169806182 0  0.4090477820585017 0.1944069323162114 0  0.5365194309847112 0.1943028057711659 0  0.5215828265105155 0.1943028057711514 0  0.5511851248594936 0.1945772515115504 0  0.4767730130879849 0.1943028057711153 0  0.4618364086138088 0.1943028057711072 0  0.3908875373604028 0.21 0  0.3946216884789569 0.2056971942288966 0  0.446899804139621 0.194302805771098 0  0.4917096175621761 0.1943028057711214 0  0.5066462220363641 0.1943028057711422 0  0.4322275012857285 0.1945847121082109 0  0.409279320968396 0.2055930218740123 0  0.480507164205851 0.21 0  0.4879754664429498 0.21 0  0.4655705597315852 0.21 0  0.4730388619686996 0.21 0  0.3908875373612097 0.19 0  0.3834192351240934 0.19 0  0.5103803731544119 0.21 0  0.5178486753915261 0.21 0  0.5402535821029386 0.21 0  0.54772188434007 0.21 0  0.4506339552573136 0.21 0  0.4581022574944306 0.21 0  0.4954437686800938 0.21 0  0.502912070917267 0.21 0  0.4058241418354857 0.19 0  0.3983558395983636 0.19 0  0.4356973507830418 0.21 0  0.4431656530201649 0.21 0  0.5253169776286404 0.21 0  0.5327852798657868 0.21 0  0.5775950932886138 0.21 0  0.5850633955257281 0.21 0  1.835188936345112 0.2050000000000699 0  1.838465412967181 0.2953145553852501 0  1.915883512473161 0.2050000000000692 0  1.833166318986108 0.1007828475280248 0  2.383594446803656 0.41 0  2.271253957291315 0.41 0  2.346386298105263 0.3062476289039515 0  0.6300528284996487 0.2292604486710743 0  0.65429728832161 0.2353880751391984 0  0.6456429596876728 0.2209784072651823 0  0.6244559818022579 0.1024805481876779 0  0.6331542554485198 0.1311064488920115 0  0.604876951083344 0.1323679928240978 0  0.5950070799606315 0.1111116928105405 0  0.7179098792074922 0.09515556231434774 0  0.6930564374308674 0.1341308449452096 0  0.6808979566904864 0.09264351137968369 0  1.943162250261133 0.2848182236928814 0  1.943162250261127 0.1251817763071746 0  2.244824738199097 0.3091885999356265 0  0.5022733717445609 0.2484520140959261 0  0.5039200503329727 0.2634569969024956 0  0.4870587955368383 0.2511092200731516 0  0.4543681063767173 0.1676928600783137 0  0.4456512193123995 0.1563006663224736 0  0.4634554111966759 0.156587601803556 0  0.4619845553363554 0.2471559623297018 0  0.4744155700740079 0.2566595549135983 0  0.4718174066442032 0.2448602332187449 0  0.401463131821351 0.2240614152536154 0  0.4020899907160548 0.2165302463955136 0  0.3946216884789568 0.2158195727016258 0  0.5019588293971892 0.1448324961346233 0  0.5202014138752529 0.1378594850692911 0  0.5186581766834214 0.1505504706653799 0  0.5805147821309363 0.1750906865638377 0  0.5830971905392573 0.1610562557540074 0  0.5891905322413319 0.173297484523883 0  1.317087908068179 0.2834507950760127 0  1.416789257258389 0.3075294577736497 0  1.357724299039236 0.2303555143487852 0  2.383594446803425 0 0  2.301748441448983 0.1032848369023014 0  2.415100580332905 0.08367007402675902 0  0.883612004374276 0.2044999257790265 0  0.941405262964606 0.2275541950732263 0  0.8724873572796065 0.2505182730032114 0  0.6580228992389956 0.1177787934340178 0  0.6385847074107548 0.1562173919888177 0  0.6641520523959832 0.1503720468916702 0  1.674965418778818 0.41 0  1.58737143976041 0.41 0  1.617304647871871 0.3102553946317155 0  1.587371439758838 0 0  1.674965418777374 0 0  1.627799041349754 0.08170835291169204 0  0.4991779197992711 0.167693385507626 0  0.4900906149793102 0.1565876018036352 0  0.5082652246192162 0.1565876018036352 0  0.4319631996644723 0.2259854221051505 0  0.4420138570927455 0.2303582032589531 0  0.4274409436629797 0.2358490737568498 0  1.122434100544716 0.41 0  1.068894913355815 0.339699543595371 0  1.154144739340952 0.3428674566149401 0  0.9084404882614506 0.2892191224003848 0  1.215451113850732 0.2103314603357224 0  1.249863529963017 0.2672258935273379 0  1.176331347569866 0.2754551993599315 0  0.5740383564454857 0.232486177523615 0  0.5800331369475803 0.2220172718503647 0  0.5872716114964233 0.2289047791562547 0  0.7101078070491313 0.04593780015520291 0  0.7273492824638629 0.1308306999820452 0  2.01253088870001 0.2050000000000507 0  0.6699818017210338 0.05718888729500279 0  0.589683001657349 0.3059206033515077 0  0.629251049118315 0.3129131677620721 0  0.6129037791821019 0.2898142990521698 0  0.5669464924360815 0.2475839849813879 0  0.5841951273902199 0.2421589553533847 0  0.5209814004512184 0.2362962593649592 0  0.5347760817351684 0.2414500964404198 0  0.5183393333239584 0.2464065549333135 0  0.5461387848636305 0.1174764669537213 0  0.5361687701469152 0.1326608756097835 0  0.5197325460646487 0.1214075108099659 0  0.5857082964501902 0.1444062384003248 0  0.5690392421172527 0.1384821647678796 0  0.5733051421814971 0.1505504706653721 0  0.9882218810956305 0.41 0  0.9246101326886647 0.41 0  0.9513232956593279 0.344238796639219 0  0.5166834276845828 0.2571581640138182 0  0.596265848881445 0.1672046255295837 0  1.419591277297145 0.2050000000000071 0  0.4421897352483806 0.3061937447056332 0  0.418091171977014 0.3243162836372635 0  0.412607471649106 0.2990503898016255 0  0.8632198139519631 0.41 0  0.882513772872486 0.3520608410452225 0  0.8202234869765325 0.364591028094237 0  1.421253448505726 0.41 0  1.355827918100823 0.3414955155607449 0  1.421253448503939 0 0  1.418271536314166 0.09353562972960013 0  1.355827918100725 0.06850448443910542 0  0.7991030424147842 0.1996369747921017 0  0.755404159289092 0.1590232243285952 0  0.7509674852354215 0.2077605643765068 0  0.4953767731769588 0.1188694761679334 0  0.506255180108809 0.1312411055441881 0  0.4787056372270673 0.2371901345199761 0  0.4898985359610427 0.2395108277223441 0  0.8502354418587501 0.1560244879407868 0  0.9215858179635137 0.1737964996919513 0  0.4302139512950107 0.2879708289588951 0  0.9080221499231149 0.1220333110997775 0  0.3909674209965625 0.2226356941037057 0  1.122434100542598 0 0  1.070453094842314 0.06960241275844714 0  1.154904552424504 0.06969164993518225 0  0.5678918321244223 0.2848057098346606 0  0.5916500441695769 0.2809526698769227 0  0.5813292444071699 0.2563523755659055 0  0.5593867837568711 0.2625481287604455 0  0.6158241656144056 0.2465955912391796 0  0.6368758304361363 0.2529361994816268 0  0.5380469068795991 0.270190988877121 0  0.5487739828661812 0.2837987172973246 0  0.4143465137990051 0.053229610117
[...]
<PointData  Vectors="f_42-0"> 
<DataArray  type="Float64"  Name="f_42-0"  NumberOfComponents="3" format="ascii">3.6168224683148750e-07 4.3601756369881388e-06 0.0000000000000000e+00  -1.7840678716886124e-08 4.3346923636830860e-06 0.0000000000000000e+00  1.1833363797649590e-07 4.5651127397439764e-06 0.0000000000000000e+00  -4.4158601219685470e-07 9.9948478721271248e-06 0.0000000000000000e+00  -3.8206602556189175e-08 1.0021225840454722e-05 0.0000000000000000e+00  -1.8313027222731040e-07 9.7738077996418218e-06 0.0000000000000000e+00  1.2636595924066280e-07 4.1243719304408945e-06 0.0000000000000000e+00  -3.9782253001532560e-07 4.3596513295557399e-06 0.0000000000000000e+00  -1.6064237614899678e-07 4.1241872604346094e-06 0.0000000000000000e+00  3.6374026639380993e-07 9.9960332407169507e-06 0.0000000000000000e+00  1.1413275382237661e-07 1.0243818797514874e-05 0.0000000000000000e+00  -1.9342886277720300e-07 1.0243347236185604e-05 0.0000000000000000e+00  1.0801471985811292e-07 9.7739039969416222e-06 0.0000000000000000e+00  -1.5863960246831804e-07 4.5684244453848213e-06 0.0000000000000000e+00  -4.4845647944227494e-07 1.1513918327558926e-05 0.0000000000000000e+00  -4.4582755110675069e-07 1.1200748837142408e-05 0.0000000000000000e+00  -3.2203557120935946e-07 1.1322930808144425e-05 0.0000000000000000e+00  3.6253967108932475e-07 1.1517482599968351e-05 0.0000000000000000e+00  3.6081863851644642e-07 1.1201530697910642e-05 0.0000000000000000e+00  2.4883280397850568e-07 1.1365705369260473e-05 0.0000000000000000e+00  -4.7063357337653763e-08 1.1047487034686789e-05 0.0000000000000000e+00  9.3654877624218036e-08 1.0758039366514318e-05 0.0000000000000000e+00  -2.0753197470917952e-07 1.0751418671549561e-05 0.0000000000000000e+00  3.6147335771597834e-07 1.0899460745400315e-05 0.0000000000000000e+00  3.6220923413396338e-07 1.0598269047890157e-05 0.0000000000000000e+00  -2.6876349136212420e-07 1.1071688025011238e-05 0.0000000000000000e+00  -4.3022148095372919e-08 1.1501544094587317e-05 0.0000000000000000e+00  1.5878383249759125e-07 1.1503194482574642e-05 0.0000000000000000e+00  9.2349084157039408e-08 1.1273988276946543e-05 0.0000000000000000e+00  -4.8566199320788192e-08 1.0472223991488339e-05 0.0000000000000000e+00  -2.2028042552720051e-08 5.3688706033791444e-06 0.0000000000000000e+00  9.1901653215988541e-08 5.0775668555276626e-06 0.0000000000000000e+00  -1.7941013001680721e-07 5.0786022215636787e-06 0.0000000000000000e+00  -1.4222593745035053e-08 3.3829656596096660e-06 0.0000000000000000e+00  -1.4563515572829468e-07 3.6539638342147830e-06 0.0000000000000000e+00  1.3228761087772120e-07 3.6539091764877077e-06 0.0000000000000000e+00  -2.4319116970684000e-08 5.9566985880735238e-06 0.0000000000000000e+00  9.1009068561092398e-08 5.6622572760622658e-06 0.0000000000000000e+00  -1.8316977659748256e-07 5.6620994684142217e-06 0.0000000000000000e+00  -2.6604958761746377e-08 6.5493373555149878e-06 0.0000000000000000e+00  8.9718773791828483e-08 6.2526956769312656e-06 0.0000000000000000e+00  -1.8685872598155835e-07 6.2524971352324057e-06 0.0000000000000000e+00  -2.8869982153069826e-08 7.1452630239603188e-06 0.0000000000000000e+00  8.8136435895115493e-08 6.8471344207828058e-06 0.0000000000000000e+00  -1.9010778608452662e-07 6.8469011607890574e-06 0.0000000000000000e+00  -3.1099032410148457e-08 7.7433505582300565e-06 0.0000000000000000e+00  8.6355238462665262e-08 7.4442566758012454e-06 0.0000000000000000e+00  -1.9301069992859772e-07 7.4439925347896952e-06 0.0000000000000000e+00  -3.3276932218370281e-08 8.3428125019077689e-06 0.0000000000000000e+00  8.4456140341619707e-08 8.0431136658654390e-06 0.0000000000000000e+00  -1.9564462923140332e-07 8.0428204042434553e-06 0.0000000000000000e+00  -3.5387911232907512e-08 8.9431388967230778e-06 0.0000000000000000e+00  8.2508545598825075e-08 8.6430640376983975e-06 0.0000000000000000e+00  -1.9806982103616347e-07 8.6427413712601345e-06 0.0000000000000000e+00  -4.1896776175182702e-08 9.5332935257859881e-06 0.0000000000000000e+00  8.0571212762999459e-08 9.2437171305558673e-06 0.0000000000000000e+00  -2.0075546627813160e-07 9.2423383318725573e-06 0.0000000000000000e+00  -1.1635421448835664e-07 3.1139219182874856e-06 0.0000000000000000e+00  1.3144031382568736e-07 3.1142807261921771e-06 0.0000000000000000e+00  -1.1432751276817764e-08 3.9121212846523711e-06 0.0000000000000000e+00  -2.4702323638783851e-08 4.7997560902725658e-06 0.0000000000000000e+00  3.6705743588365952e-07 8.7940907212404133e-06 0.0000000000000000e+00  3.6784962042907200e-07 8.4938995741096777e-06 0.0000000000000000e+00  3.6540738991924546e-07 9.3949510950716844e-06 0.0000000000000000e+00  3.6623704867053004e-07 9.0944530927780265e-06 0.0000000000000000e+00  3.7087015866392303e-07 6.4020678577260333e-06 0.0000000000000000e+00  3.7060465624918894e-07 6.1058149559635620e-06 0.0000000000000000e+00  3.6860026730701373e-07 8.1939054896398380e-06 0.0000000000000000e+00  3.6928407602835506e-07 7.8941681457658174e-06 0.0000000000000000e+00  3.7071791740327100e-07 6.9971698658945599e-06 0.0000000000000000e+00  3.7089307597032150e-07 6.6992473634854432e-06 0.0000000000000000e+00  3.6988417201261393e-07 7.5947394127071909e-06 0.0000000000000000e+00  3.7036895965872501e-07 7.2957118406371340e-06 0.0000000000000000e+00  3.7006842843969135e-07 5.8106580692713990e-06 0.0000000000000000e+00  3.6921025243473285e-07 5.5168390874956272e-06 0.0000000000000000e+00  -3.7987911527804910e-07 3.5219488832382976e-06 0.0000000000000000e+00  -3.8650207684530176e-07 3.7975542184812799e-06 0.0000000000000000e+00  3.6799791451426405e-07 5.2245799934790408e-06 0.0000000000000000e+00  3.6637401293558999e-07 4.9341873810922207e-06 0.0000000000000000e+00  -1.4053006879710614e-07 1.1284584531217152e-05 0.0000000000000000e+00  3.5856838571223642e-07 4.0774760729504954e-06 0.0000000000000000e+00  -4.4267026764376573e-07 1.0296055673918074e-05 0.0000000000000000e+00  3.6297695948158912e-07 1.0297295428551214e-05 0.0000000000000000e+00  -3.9246802681016913e-07 4.0769918141835997e-06 0.0000000000000000e+00  1.7958756060772488e-07 1.0468442158173245e-05 0.0000000000000000e+00  1.7494360194246335e-07 1.1046892230833021e-05 0.0000000000000000e+00  3.6430070704027411e-07 4.6459621941243240e-06 0.0000000000000000e+00  -4.4047429308422634e-07 9.6945151474399956e-06 0.0000000000000000e+00  -2.4492622032365013e-07 1.1502268504804834e-05 0.0000000000000000e+00  -2.4449148707664487e-07 5.3690758855259715e-06 0.0000000000000000e+00  1.9181470085287784e-07 3.3840020844563666e-06 0.0000000000000000e+00  -2.4909568456525271e-07 5.9567949831751253e-06 0.0000000000000000e+00  -2.5301350387761583e-07 6.5493490213884323e-06 0.0000000000000000e+00  -2.5639379417080084e-07 7.1452099054084499e-06 0.0000000000000000e+00  -2.5936206088090407e-07 7.7432487325576255e-06 0.0000000000000000e+00  -2.6202047233786337e-07 8.3426744366526141e-06 0.0000000000000000e+00  -2.6444750951967015e-07 8.9429739885774332e-06 0.0000000000000000e+00  -2.6669722454706646e-07 9.5438668141813137e-06 0.0000000000000000e+00  -2.3902740675850313e-07 4.7881880119177449e-06 0.0000000000000000e+00  3.6458196871517389e-07 9.6956231516579665e-06 0.0000000000000000e+00  -4.0268098812304169e-07 4.6454044178477850e-06 0.0000000000000000e+00  -2.6666156951845273e-07 1.0466925606437541e-05 0.0000000000000000e+00  1.9199856693771220e-07 3.9164376786460041e-06 0.0000000000000000e+00  1.9364452623612673e-07 8.9435403744789575e-06 0.0000000000000000e+00  1.9544355340602501e-07 8.3431982534836350e-06 0.0000000000000000e+00  1.8082697238276165e-07 9.5335674587996203e-06 0.0000000000000000e+00  1.9978838317541677e-07 6.5497748570962341e-06 0.0000000000000000e+00  2.0044336742142679e-07 5.9571909922680061e-06 0.0000000000000000e+00  -3.7255275745088176e-07 3.2506512474470597e-06 0.0000000000000000e+00  -2.2026053268711573e-07 3.3838062079538314e-06 0.0000000000000000e+00  2.0042168350243451e-07 5.3694394884060336e-06 0.0000000000000000e+00  1.9863674281567766e-07 7.1456654904281980e-06 0.0000000000000000e+00  1.9714428992781117e-07 7.7437362619924696e-06 0.0000000000000000e+00  1.8868408690484686e-07 4.7986658518542931e-06 0.0000000000000000e+00  -2.2475341054132052e-07 3.9248487235717878e-06 0.0000000000000000e+00  -4.2526873101888973e-07 6.6985073244243536e-06 0.0000000000000000e+00  -4.2736136569003154e-07 6.9964092648151169e-06 0.0000000000000000e+00  -4.2041119034712656e-07 6.1051223970858485e-06 0.0000000000000000e+00  -4.2296411111743313e-07 6.4013555477138540e-06 0.0000000000000000e+00  3.4516221009712463e-07 3.2509936176782903e-06 0.0000000000000000e+00  3.3915160519656624e-07 2.9845396863907606e-06 0.0000000000000000e+00  -4.3262605473800065e-07 7.8933273794137398e-06 0.0000000000000000e+00  -4.3412511109690018e-07 8.1930373766755200e-06 0.0000000000000000e+00  -4.3811157029000256e-07 9.0934827294201247e-06 0.0000000000000000e+00  -4.3931643673419326e-07 9.3939413874941466e-06 0.0000000000000000e+00  -4.1443137631870541e-07 5.5161973290517484e-06 0.0000000000000000e+00  -4.1758104808480256e-07 5.8099955691490217e-06 0.0000000000000000e+00  -4.2926650797815445e-07 7.2949236711419994e-06 0.0000000000000000e+00  -4.3101466280570607e-07 7.5939281836584382e-06 0.0000000000000000e+00  3.5480676270254902e-07 3.7980022069847788e-06 0.0000000000000000e+00  3.5035394511753982e-07 3.5223362726144123e-06 0.0000000000000000e+00  -4.0702549293930635e-07 4.9336071621685528e-06 0.0000000000000000e+00  -4.1092893312046474e-07 5.2239738873478723e-06 0.0000000000000000e+00  -4.3552786078556790e-07 8.4929982511230184e-06 0.0000000000000000e+00  -4.3685277464089345e-07 8.7931567737294526e-06 0.0000000000000000e+00  -4.4371049116808842e-07 1.0597032902200557e-05 0.0000000000000000e+00  -4.4471715431241844e-07 1.0898137123380236e-05 0.0000000000000000e+00  2.8826507893757747e-01 -5.2427004864942939e-04 0.0000000000000000e+00  2.4432536927262480e-01 -6.7677121294713394e-04 0.0000000000000000e+00  2.8908425986512531e-01 -3.3560347773516937e-04 0.0000000000000000e+00  2.2638314703466639e-01 2.3749711897677519e-04 0.0000000000000000e+00  0.0000000000000000e+00 0.0000000000000000e+00 0.0000000000000000e+00  0.0000000000000000e+00 0.0000000000000000e+00 0.0000000000000000e+00  2.3010251366857254e-01 1.9255237239582986e-03 0.0000000000000000e+00  1.3547543740904128e-01 -2.8722473401371386e-02 0.0000000000000000e+00  1.6660972593920914e-01 -2.7564229147283670e-02 0.0000000000000000e+00  1.0864084426124493e-01 -2.1863879750463812e-02 0.0000000000000000e+00  3.0363225163615498e-01 2.2285151446780768e-02 0.0000000000000000e+00  2.7222887667722573e-01 2.8002865734078130e-02 0.0000000000000000e+00  2.7191830508295384e-01 2.3100485616886879e-02 0.0000000000000000e+00  3.0408317903265508e-01 2.0359147674277496e-02 0.0000000000000000e+00  2.7843531429735940e-01 1.9303182964512295e-02 0.0000000000000000e+00  2.5968849460129317e-01 2.8011984596453734e-02 0.0000000000000000e+00  2.8624116904455071e-01 2.0751916991780080e-02 0.0000000000000000e+00  2.5443695760778223e-01 -4.9582200087747283e-04 0.0000000000000000e+00  2.5352602983443046e-01 1.7459590070594135e-04 0.0000000000000000e+00  2.2617075750368656e-01 4.9124691778323318e-04 0.0000000000000000e+00  1.8788419025835520e-01 -8.0919550446578014e-03 0.0000000000000000e+00  2.4181874815379076e-01 -1.2362224791143062e-02 0.0000000000000000e+00  1.9317766610366136e-01 -9.4209206724207833e-03 0.0000000000000000e+00  1.0995004768824065e-01 4.1199833739965072e-03 0.0000000000000000e+00  1.5459667215786571e-01 8.6194719222058586e-03 0.0000000000000000e+00  1.5990844318622660e-01 7.5541060254581986e-03 0.0000000000000000e+00  1.6913895337306889e-01 -9.3030838910588397e-03 0.0000000000000000e+00  2.0967580652221857e-01 -1.1855481080412135e-02 0.0000000000000000e+00  1.6360734068781341e-01 -7.9936897731886346e-03 0.0000000000000000e+00  5.2944920631698721e-02 -2.7017796528983526e-03 0.0000000000000000e+00  2.4784003966828151e-02 -6.3379935015153233e-04 0.0000000000000000e+00  2.0793785267348236e-02 -5.3080693213548033e-04 0.0000000000000000e+00  2.1646980001637550e-01 9.7267127617925199e-03 0.0000000000000000e+00  2.4399381324829494e-01 1.1312278633955628e-02 0.0000000000000000e+00  2.0034259550329966e-01 7.9484255358291279e-03 0.0000000000000000e+00  1.0522385343918157e-01 4.6884685342518020e-03 0.0000000000000000e+00  1.7763005344183963e-01 1.1692913734797316e-02 0.0000000000000000e+00  1.2004118252005412e-01 9.0256157566588370e-03 0.0000000000000000e+00  2.6104827137984971e-01 -3.4391696655194396e-03 0.0000000000000000e+00  2.3684089298941632e-01 -2.1672394184982942e-03 0.0000000000000000e+00  2.7593246018662304e-01 -2.4501905063518685e-03 0.0000000000000000e+00  0.0000000000000000e+00 0.0000000000000000e+00 0.0000000000000000e+00  2.2913927288395314e-01 -6.4504522344115199e-04 0.0000000000000000e+00  2.0087177689684227e-01 -4.1026129990858274e-03 0.0000000000000000e+00  2.1356120284862601e-01 -8.1760859615372713e-04 0.0000000000000000e+00  2.3686138681546209e-01 -5.4996652617655614e-03 0.0000000000000000e+00  2.4901378816908559e-01 -1.1425211131767126e-02 0.0000000000000000e+00  2.8839564168959547e-01 2.7108451898209564e-02 0.0000000000000000e+00  1.9961277344838241e-01 3.1531594637453877e-02 0.0000000000000000e+00  2.1997833266713870e-01 3.0620339290940483e-02 0.0000000000000000e+00  0.0000000000000000e+00 0.0000000000000000e+00 0.0000000000000000e+00  0.0000000000000000e+00 0.0000000000000000e+00 0.0000000000000000e+00  2.2884262135403013e-01 -1.2794250356152773e-03 0.0000000000000000e+00  0.0000000000000000e+00 0.0000000000000000e+00 0.0000000000000000e+00  0.0000000000000000e+00 0.0000000000000000e+00 0.0000000000000000e+00  1.9822971366229444e-01 5.1279955917203667e-04 0.0000000000000000e+00  1.2235507888694279e-01 3.2481002944826608e-03 0.0000000000000000e+00  1.6842760255144443e-01 6.5547793733098745e-03 0.0000000000000000e+00  1.7369975677576638e-01 6.2319358858592697e-03 0.0000000000000000e+00  7.0861844629252047e-02 -2.7609202241994663e-03 0.0000000000000000e+00  9.2701421575647869e-02 -3.9606696205179625e-03 0.0000000000000000e+00  1.0975256531755576e-01 -6.5816084821370795e-03 0.0000000000000000e+00  0.0000000000000000e+00 0.0000000000000000e+00 0.0000000000000000e+00  2.0167643615212105e-01 -2.0846401247487344e-03 0.0000000000000000e+00  1.8967441348639602e-01 -1.8391575214954958e-03 0.0000000000000000e+00  2.7467899421439279e-01 -9.7805866976641738e-03 0.0000000000000000e+00  2.6591721163823168e-01 -1.5199026909184612e-03 0.0000000000000000e+00  2.6851109059769190e-01 -4.0857600405314713e-03 0.0000000000000000e+00  2.6644281017277277e-01 -4.7153834545259656e-03 0.0000000000000000e+00  1.4111403277792117e-01 -6.0155611049075002e-03 0.0000000000000000e+00  8.5080293543988827e-02 -2.7842376017096276e-03 0.0000000000000000e+00  1.2846601617743569e-01 -8.2176929819061714e-03 0.0000000000000000e+00  1.7791316270765092e-01 6.2793948932975512e-03 0.0000000000000000e+00  2.6302333362462249e-01 2.4464301565073690e-02 0.0000000000000000e+00  2.8965566426489470e-01 -1.8549490451746182e-04 0.0000000000000000e+00  2.2338200890224907e-01 1.0265430059413268e-02 0.0000000000000000e+00  3.2294571257260762e-01 -1.8561542918048988e-02 0.0000000000000000e+00  3.1380684123360447e-01 -1.9872767768863670e-02 0.0000000000000000e+00  3.1113011426887044e-01 -2.2758254435646642e-02 0.0000000000000000e+00  2.0454637670707854e-01 -1.0220024433226543e-02 0.0000000000000000e+00  1.8888322063436769e-01 -1.2270807294415546e-02 0.0000000000000000e+00  1.4280032101651546e-01 -4.3212323740953202e-03 0.0000000000000000e+00  1.6944115726584966e-01 -5.9548594744074030e-03 0.0000000000000000e+00  1.8481975774348031e-01 -7.2543265799277119e-03 0.0000000000000000e+00  2.9630982620269891e-01 1.5310897745464187e-02 0.0000000000000000e+00  2.6227563036334106e-01 1.2773936718537653e-02 0.0000000000000000e+00  2.8653369009409735e-01 1.4325954610117160e-02 0.0000000000000000e+00  2.3909176491787379e-01 1.7126324451101804e-02 0.0000000000000000e+00  2.5300894429325599e-01 1.4706304733659123e-02 0.0000000000000000e+00  2.1584868695406245e-01 1.2467848830494536e-02 0.0000000000000000e+00  0.0000000000000000e+00 0.0000000000000000e+00 0.0000000000000000e+00  0.0000000000000000e+00 0.0000000000000000e+00 0.0000000000000000e+00  2.0048878499418060e-01 -2.7139380276891252e-03 0.0000000000000000e+00  2.2421217942510865e-01 -1.0397227152920166e-02 0.0000000000000000e+00  1.5436338702486052e-01 1.6417145855546180e-02 0.0000000000000000e+00  2.7770727785056049e-01 -9.8780142193478806e-04 0.0000000000000000e+00  3.3446964402612123e-01 -2.0966878896767276e-02 0.0000000000000000e+00  3.4286517271029815e-01 -2.0038250954962054e-02 0.0000000000000000e+00  3.2650633292073716e-01 -2.4346820561270344e-02 0.0000000000000000e+00  0.0000000000000000e+00 0.0000000000000000e+00 0.0000000000000000e+00  1.8834683780358394e-01 -2.9037915638989104e-03 0.0000000000000000e+00  1.6013105488885804e-01 -2.7672525595004338e-03 0.0000000000000000e+00  0.0000000000000000e+00 0.0000000000000000e+00 0.0000000000000000e+00  1.8390295981655355e-01 -1.3472073955438136e-03 0.0000000000000000e+00  0.0000000000000000e+00 0.0000000000000000e+00 0.0000000000000000e+00  2.1808752690323790e-01 1.2666832864095482e-03 0.0000000000000000e+00  1.7893778342219085e-01 8.9991030160221539e-04 0.0000000000000000e+00  1.7922051567096259e-01 1.5457166663238558e-03 0.0000000000000000e+00  2.1372406349310791e-01 1.9583411434704111e-02 0.0000000000000000e+00  1.5923715617078890e-01 -3.1730725903781074e-03 0.0000000000000000e+00  2.8921943451081061e-01 1.5326997293311941e-02 0.0000000000000000e+00  2.6034572164697861e-01 1.2942292754972809e-02 0.0000000000000000e+00  1.3422486164298544e-01 -5.1599691211544705e-03 0.0000000000000000e+00  1.4767421807762970e-01 -5.6028823090509532e-03 0.0000000000000000e+00  2.3509798853531286e-01 1.2555669596223024e-02 0.0000000000000000e+00  2.3045484350629764e-01 6.1230839668913852e-03 0.0000000000000000e+00  3.0110448836430626e-01 -2.2611383861793309e-02 0.0000000000000000e+00  2.5922676477522971e-01 9.8260175253413445e-03 0.0000000000000000e+00  4.4045622201928217e-02 -2.3824026612530632e-03 0.0000000000000000e+00  0.0000000000000000e+00 0.0000000000000000e+00 0.0000000000000000e+00  1.9208250915893876e-01 1.9047402579850099e-03 0.0000000000000000e+00  1.8786720056136422e-01 1.5605165279988331e-03 0.0000000000000000e+00  3.0569127788173434e-01 -1.7575765434409110e-02 0.0000000000000000e+00  3.0021181020407672e-01 -2.0361539932876958e-02 0.0000000000000000e+00  2.3931443425541374e-01 -1.5470423196212515e-02 0.0000000000000000e+00  2.5292779298578250e-01 -1.3449990349360166e-02 0.0000000000000000e+00  2.0981677944670010e-01 -2.5664150867176667e-02 0.0000000000000000e+00  2.2999562199486853e-01 -2.9054076252731504e-02 0.0000000000000000e+00  2.6988530888757212e-01 -1.3764278314168370e-02 0.0000000000000000e+00  3.0253668463909378e-01 -1.6147037163717386e-02 0.0000000000000000e+00  2.7791439598095130e-01 1.2315866342784315e-02 0.0000000000000000e+00  2.1173714510482836e-01 7.4659842481943775e-03 0.0000000000000000e+00  3.2873606233813130e-01 1.9923449489914685e-02 0.0000000000000000e+00  2.5589621918693378e-01 -1.4719181149038196e-02 0.0000000000000000e+00  1.5066430337745648e-01 -1.1351303902372757e-03 0.0000000000000000e+00  3.2400865522697470e-01 -1.4227948974259443e-02 0.0000000000000000e+00  2.9131179074522418e-01 -1.0264399170658607e-02 0.0000000000000000e+00  3.3079378719946489e-01 -1.5389188262892959e-02 0.0000000000000000e+00  0.0000000000000000e+00 0.0000000000000000e+00 0.0000000000000000e+00  2.5163646035510978e-01 -8.1694403701857293e-03 0.0000000000000000e+00  3.1574295010807468e-01 -1.9129866938138281e-02 0.0000000000000000e+00  2.8099704966780359e-01 -1.9651434676175059e-02 0.0000000000000000e+00  0.0000000000000000e+00 0.0000000000000000e+00 0.0000000000000000e+00  5.3307251091512756e-02 -6.5696622557402185e-04 0.0000000000000000e+00  5.0378725408187643e-02 1.2465354634715884e-03 0.0000000000000000e