<?xml version="1.0"?>
<VTKFile type="UnstructuredGrid"  version="0.1"  >
<UnstructuredGrid>
<Piece  NumberOfPoints="719" NumberOfCells="1350">
<Points>
<DataArray  type="Float64"  NumberOfComponents="3"  format="ascii">0.4207607463097617 0.19 0  0.4201487168029707 0.1999966199048527 0  0.4261685417851465 0.196409292431739 0  0.5626584888143201 0.21 0  0.5633122436674589 0.1999814296467508 0  0.5571672426447437 0.2036011176410121 0  0.4145905603061963 0.1961819304479011 0  0.4207607463087888 0.21 0  0.4145905603063645 0.2038180695522843 0  0.5626584888145268 0.19 0  0.5688286748170428 0.1961819304477386 0  0.5688286748170693 0.203818069552238 0  0.5571594006495384 0.1963685282145804 0  0.4262598344738712 0.2036568242185335 0  0.6 0.21 0  0.5925316977628483 0.21 0  0.5955705746706843 0.2069223055301326 0  0.6 0.19 0  0.5925316977628897 0.19 0  0.5965740209510578 0.1927759733278094 0  0.5887803774232762 0.2001272386983733 0  0.5815926498168407 0.1966545283159175 0  0.5814408164431408 0.2041285596160068 0  0.5850633955257988 0.19 0  0.5775950932887378 0.19 0  0.5893814947531364 0.2056233639521408 0  0.6 0.2 0  0.6 0.1950000000000217 0  0.594380730180568 0.1966558399668133 0  0.5745072403740523 0.2002044435018727 0  0.446899804139621 0.1999999999998389 0  0.4394315019025246 0.1970915826863714 0  0.4394608940728603 0.2040870543693135 0  0.3946216884789568 0.2000000000001512 0  0.4020059614928624 0.203547899597858 0  0.4019979587101454 0.1959834479682427 0  0.4618364086138087 0.1999999999998546 0  0.4543681063767183 0.1970915826863795 0  0.4543681063761134 0.2040749161535186 0  0.476773013087985 0.1999999999998713 0  0.4693047108508938 0.1970915826863783 0  0.4693047108503577 0.2040749161535231 0  0.4917096175621762 0.1999999999998808 0  0.4842413153250809 0.1970915826863873 0  0.4842413153245942 0.2040749161535287 0  0.5066462220363641 0.199999999999908 0  0.4991779197992749 0.1970915826863902 0  0.4991779197988497 0.2040749161535382 0  0.5215828265105155 0.1999999999999228 0  0.5141145242734466 0.1970915826863843 0  0.5141145242731028 0.2040749161535395 0  0.5365194309847112 0.1999999999999436 0  0.5290511287476175 0.1970915826863981 0  0.5290511287473298 0.2040749161535501 0  0.5511891430099709 0.2001122610077113 0  0.5439877332217911 0.197091582686394 0  0.5439623148931173 0.2040856076781014 0  0.3871533862418661 0.2029084173136212 0  0.3871533862424271 0.1959250838464788 0  0.4089549580935208 0.1998691686391595 0  0.4322718174608562 0.200127451265745 0  0.5327852798661811 0.19 0  0.5253169776290537 0.19 0  0.547721884340339 0.19 0  0.5402535821032429 0.19 0  0.4730388619694271 0.19 0  0.4655705597323621 0.19 0  0.5178486753919799 0.19 0  0.5103803731549078 0.19 0  0.4879754664436223 0.19 0  0.4805071642065402 0.19 0  0.502912070917822 0.19 0  0.4954437686807294 0.19 0  0.4581022574952563 0.19 0  0.4506339552581777 0.19 0  0.3983558395975142 0.21 0  0.4058241418345938 0.21 0  0.4431656530210671 0.19 0  0.4356973507839815 0.19 0  0.5946539510196798 0.2024302972968126 0  0.4132924440726327 0.19 0  0.5701267910514778 0.21 0  0.5701267910515998 0.19 0  0.4132924440716992 0.21 0  0.574400031298126 0.1945411130107761 0  0.5887471324735476 0.1946190227059995 0  0.4282290485468779 0.19 0  0.5551901865771842 0.21 0  0.6 0.2050000000000054 0  0.4468998041387391 0.2056971942287257 0  0.3946216884797873 0.1943028057712679 0  0.4618364086130068 0.2056971942287359 0  0.4767730130872753 0.2056971942287455 0  0.4917096175615203 0.2056971942287492 0  0.5066462220358396 0.2056971942287649 0  0.5215828265100828 0.2056971942287677 0  0.5365194309843644 0.2056971942287865 0  0.5514560354586301 0.2056971942287897 0  0.4319631996644724 0.205697194228716 0  0.5551901865773963 0.19 0  0.4282290485459029 0.21 0  0.5743797868482748 0.2056178169806182 0  0.4090477820585017 0.1944069323162114 0  0.5365194309847112 0.1943028057711659 0  0.5215828265105155 0.1943028057711514 0  0.5511851248594936 0.1945772515115504 0  0.4767730130879849 0.1943028057711153 0  0.4618364086138088 0.1943028057711072 0  0.3908875373604028 0.21 0  0.3946216884789569 0.2056971942288966 0  0.446899804139621 0.194302805771098 0  0.4917096175621761 0.1943028057711214 0  0.5066462220363641 0.1943028057711422 0  0.4322275012857285 0.1945847121082109 0  0.409279320968396 0.2055930218740123 0  0.480507164205851 0.21 0  0.4879754664429498 0.21 0  0.4655705597315852 0.21 0  0.4730388619686996 0.21 0  0.3908875373612097 0.19 0  0.3834192351240934 0.19 0  0.5103803731544119 0.21 0  0.5178486753915261 0.21 0  0.5402535821029386 0.21 0  0.54772188434007 0.21 0  0.4506339552573136 0.21 0  0.4581022574944306 0.21 0  0.4954437686800938 0.21 0  0.502912070917267 0.21 0  0.4058241418354857 0.19 0  0.3983558395983636 0.19 0  0.4356973507830418 0.21 0  0.4431656530201649 0.21 0  0.5253169776286404 0.21 0  0.5327852798657868 0.21 0  0.5775950932886138 0.21 0  0.5850633955257281 0.21 0  1.835188936345112 0.2050000000000699 0  1.838465412967181 0.2953145553852501 0  1.915883512473161 0.2050000000000692 0  1.833166318986108 0.1007828475280248 0  2.383594446803656 0.41 0  2.271253957291315 0.41 0  2.346386298105263 0.3062476289039515 0  0.6300528284996487 0.2292604486710743 0  0.65429728832161 0.2353880751391984 0  0.6456429596876728 0.2209784072651823 0  0.6244559818022579 0.1024805481876779 0  0.6331542554485198 0.1311064488920115 0  0.604876951083344 0.1323679928240978 0  0.5950070799606315 0.1111116928105405 0  0.7179098792074922 0.09515556231434774 0  0.6930564374308674 0.1341308449452096 0  0.6808979566904864 0.09264351137968369 0  1.943162250261133 0.2848182236928814 0  1.943162250261127 0.1251817763071746 0  2.244824738199097 0.3091885999356265 0  0.5022733717445609 0.2484520140959261 0  0.5039200503329727 0.2634569969024956 0  0.4870587955368383 0.2511092200731516 0  0.4543681063767173 0.1676928600783137 0  0.4456512193123995 0.1563006663224736 0  0.4634554111966759 0.156587601803556 0  0.4619845553363554 0.2471559623297018 0  0.4744155700740079 0.2566595549135983 0  0.4718174066442032 0.2448602332187449 0  0.401463131821351 0.2240614152536154 0  0.4020899907160548 0.2165302463955136 0  0.3946216884789568 0.2158195727016258 0  0.5019588293971892 0.1448324961346233 0  0.5202014138752529 0.1378594850692911 0  0.5186581766834214 0.1505504706653799 0  0.5805147821309363 0.1750906865638377 0  0.5830971905392573 0.1610562557540074 0  0.5891905322413319 0.173297484523883 0  1.317087908068179 0.2834507950760127 0  1.416789257258389 0.3075294577736497 0  1.357724299039236 0.2303555143487852 0  2.383594446803425 0 0  2.301748441448983 0.1032848369023014 0  2.415100580332905 0.08367007402675902 0  0.883612004374276 0.2044999257790265 0  0.941405262964606 0.2275541950732263 0  0.8724873572796065 0.2505182730032114 0  0.6580228992389956 0.1177787934340178 0  0.6385847074107548 0.1562173919888177 0  0.6641520523959832 0.1503720468916702 0  1.674965418778818 0.41 0  1.58737143976041 0.41 0  1.617304647871871 0.3102553946317155 0  1.587371439758838 0 0  1.674965418777374 0 0  1.627799041349754 0.08170835291169204 0  0.4991779197992711 0.167693385507626 0  0.4900906149793102 0.1565876018036352 0  0.5082652246192162 0.1565876018036352 0  0.4319631996644723 0.2259854221051505 0  0.4420138570927455 0.2303582032589531 0  0.4274409436629797 0.2358490737568498 0  1.122434100544716 0.41 0  1.068894913355815 0.339699543595371 0  1.154144739340952 0.3428674566149401 0  0.9084404882614506 0.2892191224003848 0  1.215451113850732 0.2103314603357224 0  1.249863529963017 0.2672258935273379 0  1.176331347569866 0.2754551993599315 0  0.5740383564454857 0.232486177523615 0  0.5800331369475803 0.2220172718503647 0  0.5872716114964233 0.2289047791562547 0  0.7101078070491313 0.04593780015520291 0  0.7273492824638629 0.1308306999820452 0  2.01253088870001 0.2050000000000507 0  0.6699818017210338 0.05718888729500279 0  0.589683001657349 0.3059206033515077 0  0.629251049118315 0.3129131677620721 0  0.6129037791821019 0.2898142990521698 0  0.5669464924360815 0.2475839849813879 0  0.5841951273902199 0.2421589553533847 0  0.5209814004512184 0.2362962593649592 0  0.5347760817351684 0.2414500964404198 0  0.5183393333239584 0.2464065549333135 0  0.5461387848636305 0.1174764669537213 0  0.5361687701469152 0.1326608756097835 0  0.5197325460646487 0.1214075108099659 0  0.5857082964501902 0.1444062384003248 0  0.5690392421172527 0.1384821647678796 0  0.5733051421814971 0.1505504706653721 0  0.9882218810956305 0.41 0  0.9246101326886647 0.41 0  0.9513232956593279 0.344238796639219 0  0.5166834276845828 0.2571581640138182 0  0.596265848881445 0.1672046255295837 0  1.419591277297145 0.2050000000000071 0  0.4421897352483806 0.3061937447056332 0  0.418091171977014 0.3243162836372635 0  0.412607471649106 0.2990503898016255 0  0.8632198139519631 0.41 0  0.882513772872486 0.3520608410452225 0  0.8202234869765325 0.364591028094237 0  1.421253448505726 0.41 0  1.355827918100823 0.3414955155607449 0  1.421253448503939 0 0  1.418271536314166 0.09353562972960013 0  1.355827918100725 0.06850448443910542 0  0.7991030424147842 0.1996369747921017 0  0.755404159289092 0.1590232243285952 0  0.7509674852354215 0.2077605643765068 0  0.4953767731769588 0.1188694761679334 0  0.506255180108809 0.1312411055441881 0  0.4787056372270673 0.2371901345199761 0  0.4898985359610427 0.2395108277223441 0  0.8502354418587501 0.1560244879407868 0  0.9215858179635137 0.1737964996919513 0  0.4302139512950107 0.2879708289588951 0  0.9080221499231149 0.1220333110997775 0  0.3909674209965625 0.2226356941037057 0  1.122434100542598 0 0  1.070453094842314 0.06960241275844714 0  1.154904552424504 0.06969164993518225 0  0.5678918321244223 0.2848057098346606 0  0.5916500441695769 0.2809526698769227 0  0.5813292444071699 0.2563523755659055 0  0.5593867837568711 0.2625481287604455 0  0.6158241656144056 0.2465955912391796 0  0.6368758304361363 0.2529361994816268 0  0.5380469068795991 0.270190988877121 0  0.5487739828661812 0.2837987172973246 0  0.4143465137990051 0.053229610117
[...]
<PointData  Vectors="f_42-0"> 
<DataArray  type="Float64"  Name="f_42-0"  NumberOfComponents="3" format="ascii">1.1548359072846001e-05 -1.9530663887024091e-05 0.0000000000000000e+00  1.4585098133457547e-05 -1.9934013207821822e-05 0.0000000000000000e+00  1.3860583416444359e-05 -2.1620862924563822e-05 0.0000000000000000e+00  2.5459287505398498e-05 -7.7070562602218521e-05 0.0000000000000000e+00  2.1028734793007675e-05 -7.7103156887933306e-05 0.0000000000000000e+00  2.2514043869901633e-05 -7.4499214050042833e-05 0.0000000000000000e+00  1.3052752035687953e-05 -1.7976440816393328e-05 0.0000000000000000e+00  1.7779026311939779e-05 -2.0825354866940684e-05 0.0000000000000000e+00  1.5337799790721995e-05 -1.8478248392162055e-05 0.0000000000000000e+00  1.6679480352911958e-05 -7.6570246284857763e-05 0.0000000000000000e+00  1.9457219952213422e-05 -7.9441255365808673e-05 0.0000000000000000e+00  2.2815348567268444e-05 -7.9620013691048417e-05 0.0000000000000000e+00  1.9346179674091297e-05 -7.4305377910410404e-05 0.0000000000000000e+00  1.6204090371589497e-05 -2.2112324535804356e-05 0.0000000000000000e+00  2.5948865246471686e-05 -9.3528215121059885e-05 0.0000000000000000e+00  2.5843327316814840e-05 -9.0140862526983593e-05 0.0000000000000000e+00  2.4445051066344649e-05 -9.1445041078755350e-05 0.0000000000000000e+00  1.7093214766994686e-05 -9.3074982208318324e-05 0.0000000000000000e+00  1.6997636759522019e-05 -8.9849870910213074e-05 0.0000000000000000e+00  1.8203432654329008e-05 -9.1659946118324728e-05 0.0000000000000000e+00  2.1365886301701396e-05 -8.8334189995401531e-05 0.0000000000000000e+00  1.9801162946433753e-05 -8.5102048283210369e-05 0.0000000000000000e+00  2.3102237194874202e-05 -8.5162724908817092e-05 0.0000000000000000e+00  1.6941452853621585e-05 -8.6529794072568900e-05 0.0000000000000000e+00  1.6876106622282349e-05 -8.3197546593245515e-05 0.0000000000000000e+00  2.3823646480643238e-05 -8.8678114491890625e-05 0.0000000000000000e+00  2.1329712664263810e-05 -9.3299133016175564e-05 0.0000000000000000e+00  1.9152760021968678e-05 -9.3189583097296621e-05 0.0000000000000000e+00  1.9850547102915148e-05 -9.0762814115714441e-05 0.0000000000000000e+00  2.1301403399425001e-05 -8.2035143989674713e-05 0.0000000000000000e+00  1.6373500114012486e-05 -2.8942795910296398e-05 0.0000000000000000e+00  1.4897771188197667e-05 -2.6133362258457134e-05 0.0000000000000000e+00  1.7318299445359130e-05 -2.6562910863330468e-05 0.0000000000000000e+00  1.2673288244782003e-05 -1.2614551581919675e-05 0.0000000000000000e+00  1.4213943477651612e-05 -1.4838242018607179e-05 0.0000000000000000e+00  1.2160084797900493e-05 -1.4314479408698861e-05 0.0000000000000000e+00  1.7259811803050426e-05 -3.4477816918674812e-05 0.0000000000000000e+00  1.5758205970224662e-05 -3.1514853247371951e-05 0.0000000000000000e+00  1.8328787633076983e-05 -3.1907995836053943e-05 0.0000000000000000e+00  1.8064565900882356e-05 -4.0296420590197573e-05 0.0000000000000000e+00  1.6548425010757397e-05 -3.7209327112837504e-05 0.0000000000000000e+00  1.9252134703580966e-05 -3.7574406461108142e-05 0.0000000000000000e+00  1.8786590806511813e-05 -4.6342984836369375e-05 0.0000000000000000e+00  1.7266886410235347e-05 -4.3159263065270012e-05 0.0000000000000000e+00  2.0079012694929443e-05 -4.3495848333931331e-05 0.0000000000000000e+00  1.9424167281199132e-05 -5.2567635867488560e-05 0.0000000000000000e+00  1.7911364256204411e-05 -4.9311707924851406e-05 0.0000000000000000e+00  2.0808953037393813e-05 -4.9619094896597613e-05 0.0000000000000000e+00  1.9975707520305843e-05 -5.8926064286974247e-05 0.0000000000000000e+00  1.8479219420962791e-05 -5.5619951733301229e-05 0.0000000000000000e+00  2.1441461138655693e-05 -5.5897557076879279e-05 0.0000000000000000e+00  2.0439553417686628e-05 -6.5380337921324753e-05 0.0000000000000000e+00  1.8967442873706739e-05 -6.2042464183427169e-05 0.0000000000000000e+00  2.1977058415624907e-05 -6.2289628565047884e-05 0.0000000000000000e+00  2.0860207504226950e-05 -7.1785422185682279e-05 0.0000000000000000e+00  1.9373795280564621e-05 -6.8544249268235054e-05 0.0000000000000000e+00  2.2420695636959215e-05 -6.8751216550055956e-05 0.0000000000000000e+00  1.2764710773074590e-05 -1.0981215577737280e-05 0.0000000000000000e+00  1.1110271061909662e-05 -1.0479473155306716e-05 0.0000000000000000e+00  1.3740783663745826e-05 -1.6531416338983713e-05 0.0000000000000000e+00  1.5474759366305735e-05 -2.3859569212327934e-05 0.0000000000000000e+00  1.6050468637461039e-05 -6.3433278144595112e-05 0.0000000000000000e+00  1.5842585916223391e-05 -6.0178756753090055e-05 0.0000000000000000e+00  1.6404927173013320e-05 -6.9978203726735202e-05 0.0000000000000000e+00  1.6234251634894231e-05 -6.6690769470444556e-05 0.0000000000000000e+00  1.3998032714818504e-05 -3.8349619160841218e-05 0.0000000000000000e+00  1.3670310156644853e-05 -3.5417021657785398e-05 0.0000000000000000e+00  1.5626102588486018e-05 -5.6961457680887952e-05 0.0000000000000000e+00  1.5384408111672322e-05 -5.3755770800817348e-05 0.0000000000000000e+00  1.4594228814435460e-05 -4.4376974138081889e-05 0.0000000000000000e+00  1.4292887147202776e-05 -4.1329597616966706e-05 0.0000000000000000e+00  1.5138606262833199e-05 -5.0595945862295299e-05 0.0000000000000000e+00  1.4865859563490510e-05 -4.7458525812022353e-05 0.0000000000000000e+00  1.3354721048067407e-05 -3.2565023046478392e-05 0.0000000000000000e+00  1.3002575293418755e-05 -2.9775061000267068e-05 0.0000000000000000e+00  1.5644523887130364e-05 -1.4375523207418947e-05 0.0000000000000000e+00  1.6372274979591548e-05 -1.6403600070580813e-05 0.0000000000000000e+00  1.2668697960167592e-05 -2.7079858134872819e-05 0.0000000000000000e+00  1.2294187400170510e-05 -2.4462545049580706e-05 0.0000000000000000e+00  2.2397433491212130e-05 -9.0967631038852410e-05 0.0000000000000000e+00  1.1145710102829884e-05 -1.7238981956042344e-05 0.0000000000000000e+00  2.5584308122812859e-05 -8.0332126049040688e-05 0.0000000000000000e+00  1.6785672403245374e-05 -7.9881494125442877e-05 0.0000000000000000e+00  1.7101820456530739e-05 -1.8566490505036678e-05 0.0000000000000000e+00  1.8808501913539397e-05 -8.1874082590618205e-05 0.0000000000000000e+00  1.8957400906195599e-05 -8.8241719070198240e-05 0.0000000000000000e+00  1.1937839280971474e-05 -2.1951185547651869e-05 0.0000000000000000e+00  2.5306215066611311e-05 -7.3818843069552582e-05 0.0000000000000000e+00  2.3572764944915391e-05 -9.3411517260607696e-05 0.0000000000000000e+00  1.8413811132578078e-05 -2.9297129418945728e-05 0.0000000000000000e+00  1.1226074013979725e-05 -1.2248878115398358e-05 0.0000000000000000e+00  1.9418376406025661e-05 -3.4806493525198219e-05 0.0000000000000000e+00  2.0321655704798300e-05 -4.0598463034665203e-05 0.0000000000000000e+00  2.1122543230529829e-05 -4.6618189397397559e-05 0.0000000000000000e+00  2.1821130840066917e-05 -5.2815740896751680e-05 0.0000000000000000e+00  2.2418135403838964e-05 -5.9147079859904071e-05 0.0000000000000000e+00  2.2914984832674739e-05 -6.5574559873119524e-05 0.0000000000000000e+00  2.3312669571230837e-05 -7.2065858669143163e-05 0.0000000000000000e+00  1.7313509809081376e-05 -2.4124974851014689e-05 0.0000000000000000e+00  1.6548874356810575e-05 -7.3267672509701317e-05 0.0000000000000000e+00  1.8431191038379066e-05 -2.3209287197865110e-05 0.0000000000000000e+00  2.3688638780325419e-05 -8.2092407816124064e-05 0.0000000000000000e+00  1.2183516735589497e-05 -1.6221481536941739e-05 0.0000000000000000e+00  1.7982077035618852e-05 -6.5194950692928406e-05 0.0000000000000000e+00  1.7550071086512083e-05 -5.8717518389682492e-05 0.0000000000000000e+00  1.8447741103885865e-05 -7.1626161139297891e-05 0.0000000000000000e+00  1.5823267624395807e-05 -4.0022837759870723e-05 0.0000000000000000e+00  1.5116593239055171e-05 -3.4184019016884994e-05 0.0000000000000000e+00  1.4858160226047290e-05 -1.2467797646999691e-05 0.0000000000000000e+00  1.4134632644500682e-05 -1.3045949439883848e-05 0.0000000000000000e+00  1.4349562299537710e-05 -2.8629273652556917e-05 0.0000000000000000e+00  1.6466733833497479e-05 -4.6090234912128467e-05 0.0000000000000000e+00  1.7043635410241000e-05 -5.2336518425733191e-05 0.0000000000000000e+00  1.3632544344501490e-05 -2.3524226741859955e-05 0.0000000000000000e+00  1.5417229169950660e-05 -1.7043174471084155e-05 0.0000000000000000e+00  2.2281629998525023e-05 -4.2320697759689486e-05 0.0000000000000000e+00  2.2709271785604031e-05 -4.5311364122017708e-05 0.0000000000000000e+00  2.1333502346868066e-05 -3.6488994805787863e-05 0.0000000000000000e+00  2.1819332476837645e-05 -3.9365898582397510e-05 0.0000000000000000e+00  9.9410862047521330e-06 -1.1045179142568342e-05 0.0000000000000000e+00  9.5078864484604751e-06 -9.2420340145657889e-06 0.0000000000000000e+00  2.3828358701589396e-05 -5.4579766784549979e-05 0.0000000000000000e+00  2.4142429405091902e-05 -5.7726302033008151e-05 0.0000000000000000e+00  2.4925356006794536e-05 -6.7341230349008969e-05 0.0000000000000000e+00  2.5130222503669252e-05 -7.0568340119379552e-05 0.0000000000000000e+00  2.0267687860463702e-05 -3.0925785381909064e-05 0.0000000000000000e+00  2.0811735535829714e-05 -3.3661607934948417e-05 0.0000000000000000e+00  2.3112812829585027e-05 -4.8367111225984585e-05 0.0000000000000000e+00  2.3483235198829334e-05 -5.1446314564917620e-05 0.0000000000000000e+00  1.0764733627469032e-05 -1.5042427548359097e-05 0.0000000000000000e+00  1.0350066817342057e-05 -1.2977046571048697e-05 0.0000000000000000e+00  1.9084344400153479e-05 -2.5683969184178301e-05 0.0000000000000000e+00  1.9686302740771489e-05 -2.8253480063982340e-05 0.0000000000000000e+00  2.4431565704271174e-05 -6.0916377898620366e-05 0.0000000000000000e+00  2.4691167694133652e-05 -6.4111232382654999e-05 0.0000000000000000e+00  2.5693897017499446e-05 -8.3597176762741671e-05 0.0000000000000000e+00  2.5772113511157749e-05 -8.6856192467264291e-05 0.0000000000000000e+00  1.9132812969166724e-01 5.7903594526966190e-04 0.0000000000000000e+00  2.3611841231861713e-01 -8.1371707948883487e-03 0.0000000000000000e+00  2.0596916231430848e-01 -1.6883754566843743e-03 0.0000000000000000e+00  2.2980750183511087e-01 6.8584793885878821e-03 0.0000000000000000e+00  0.0000000000000000e+00 0.0000000000000000e+00 0.0000000000000000e+00  0.0000000000000000e+00 0.0000000000000000e+00 0.0000000000000000e+00  2.3113237125185312e-01 6.6157277557461749e-03 0.0000000000000000e+00  1.4142931770628739e-01 -3.5641162308921233e-02 0.0000000000000000e+00  1.5987434629655065e-01 -3.0239191513853503e-02 0.0000000000000000e+00  1.2363277965321263e-01 -2.7101616097435388e-02 0.0000000000000000e+00  2.3099222283806659e-01 1.5987103956353544e-02 0.0000000000000000e+00  2.1743427742509455e-01 2.4110091165061655e-02 0.0000000000000000e+00  2.2405875997083691e-01 1.8387571180267293e-02 0.0000000000000000e+00  2.3426640406270161e-01 1.3296442735640403e-02 0.0000000000000000e+00  2.1050116458476636e-01 1.5110691095943801e-02 0.0000000000000000e+00  2.0236319621712237e-01 2.2384541813438283e-02 0.0000000000000000e+00  2.1890658827499573e-01 1.3056158865706893e-02 0.0000000000000000e+00  2.1325801001955544e-01 1.1234244455238612e-02 0.0000000000000000e+00  2.0498629497703735e-01 -2.8080751668093347e-03 0.0000000000000000e+00  2.2990391109642444e-01 -5.8902835359378909e-03 0.0000000000000000e+00  1.8707593559548716e-01 -2.9529619524959207e-03 0.0000000000000000e+00  2.1448465681482728e-01 -4.4974546082785548e-03 0.0000000000000000e+00  1.9192176710508169e-01 -3.2469268829878580e-03 0.0000000000000000e+00  1.3270132094698256e-01 1.3135921398411852e-03 0.0000000000000000e+00  1.6947593663654251e-01 2.9343759382952648e-03 0.0000000000000000e+00  1.7073884821610566e-01 2.3034410287588363e-03 0.0000000000000000e+00  1.7951616347298280e-01 -3.1614745704538244e-03 0.0000000000000000e+00  2.0069323709836728e-01 -4.2488867684347450e-03 0.0000000000000000e+00  1.7429599512400143e-01 -2.8080019407185513e-03 0.0000000000000000e+00  8.6935359636513831e-02 -1.5661663464391780e-03 0.0000000000000000e+00  4.4948869077537382e-02 -3.8288242711725890e-04 0.0000000000000000e+00  4.0067313803235444e-02 -4.4460102622794975e-04 0.0000000000000000e+00  2.0187434764865855e-01 3.0538201169645991e-03 0.0000000000000000e+00  2.1440247235013868e-01 3.9394510964373347e-03 0.0000000000000000e+00  1.9140668071726138e-01 2.9200801412219168e-03 0.0000000000000000e+00  1.1477637881698896e-01 5.3076432505757961e-03 0.0000000000000000e+00  1.7483605795150278e-01 1.0535708812705340e-02 0.0000000000000000e+00  1.2735763213746823e-01 9.7925147768961798e-03 0.0000000000000000e+00  1.9835274820519289e-01 -5.4403278625948619e-03 0.0000000000000000e+00  2.2466580975721365e-01 -7.3552198867717919e-03 0.0000000000000000e+00  2.0254855284502188e-01 2.7748120907957123e-03 0.0000000000000000e+00  0.0000000000000000e+00 0.0000000000000000e+00 0.0000000000000000e+00  2.3458813203793880e-01 8.1693743126208303e-03 0.0000000000000000e+00  2.0701219221318864e-01 -9.7883017140824955e-03 0.0000000000000000e+00  1.9535740881137165e-01 -1.1369831013363207e-03 0.0000000000000000e+00  2.0052710395616516e-01 -7.4191508975948164e-04 0.0000000000000000e+00  1.9990116914170269e-01 -4.0612227127413258e-03 0.0000000000000000e+00  2.1880142767947214e-01 2.2129414632112699e-02 0.0000000000000000e+00  1.8031614386471767e-01 3.2235683764305093e-02 0.0000000000000000e+00  1.8629358171642343e-01 2.8614530461831031e-02 0.0000000000000000e+00  0.0000000000000000e+00 0.0000000000000000e+00 0.0000000000000000e+00  0.0000000000000000e+00 0.0000000000000000e+00 0.0000000000000000e+00  2.3141912772729961e-01 -6.9348323231082174e-03 0.0000000000000000e+00  0.0000000000000000e+00 0.0000000000000000e+00 0.0000000000000000e+00  0.0000000000000000e+00 0.0000000000000000e+00 0.0000000000000000e+00  2.1792670766607442e-01 4.2878076378939861e-03 0.0000000000000000e+00  1.3646116808725478e-01 1.0904216583833394e-03 0.0000000000000000e+00  1.7363408245718059e-01 1.9448224819979308e-03 0.0000000000000000e+00  1.7501163038388415e-01 2.0311782763859248e-03 0.0000000000000000e+00  1.0067014731937977e-01 -8.9087998435771645e-04 0.0000000000000000e+00  1.2230010441039922e-01 -1.5854734054098188e-03 0.0000000000000000e+00  1.4076695963010105e-01 -2.7066976788174333e-03 0.0000000000000000e+00  0.0000000000000000e+00 0.0000000000000000e+00 0.0000000000000000e+00  2.0087709049306235e-01 -6.9272377838548007e-03 0.0000000000000000e+00  1.9617997575805282e-01 5.2662405185883105e-03 0.0000000000000000e+00  2.0195566972528695e-01 -4.6749861275996842e-03 0.0000000000000000e+00  2.0125827967217702e-01 -5.6696074581471113e-04 0.0000000000000000e+00  2.0438377575647748e-01 2.8407579675235025e-03 0.0000000000000000e+00  2.0437531135168296e-01 -2.1145448838563010e-03 0.0000000000000000e+00  1.4909261415952968e-01 -6.0894687394846157e-03 0.0000000000000000e+00  9.6352301475395197e-02 -3.8509586207649922e-03 0.0000000000000000e+00  1.3820936999542696e-01 -9.7647176710169356e-03 0.0000000000000000e+00  1.7550309229398356e-01 9.8755378898315073e-03 0.0000000000000000e+00  2.0048222930755535e-01 1.6192038902330872e-02 0.0000000000000000e+00  2.0574185343710172e-01 -4.4370824761946672e-03 0.0000000000000000e+00  1.9183599147814520e-01 5.3599794002772748e-03 0.0000000000000000e+00  2.3739813076000391e-01 -1.1680685633983459e-02 0.0000000000000000e+00  2.3173746694320049e-01 -1.4734936065836621e-02 0.0000000000000000e+00  2.3301667669440662e-01 -1.7121121484940868e-02 0.0000000000000000e+00  1.9373738189435327e-01 -8.0757775928527713e-03 0.0000000000000000e+00  1.8376718892960003e-01 -1.2103961727911287e-02 0.0000000000000000e+00  1.5278333891456711e-01 -1.9451105192557056e-03 0.0000000000000000e+00  1.7282650839358873e-01 -3.2704011727473213e-03 0.0000000000000000e+00  1.8349159233308102e-01 -3.1681621962873427e-03 0.0000000000000000e+00  2.3412616009582690e-01 7.0714663228085969e-03 0.0000000000000000e+00  2.2201082289371413e-01 5.4484533407799379e-03 0.0000000000000000e+00  2.3085626725743244e-01 4.9622526669430385e-03 0.0000000000000000e+00  2.1088239030808287e-01 1.3641117226512950e-02 0.0000000000000000e+00  2.1757950107365992e-01 9.4612334731695551e-03 0.0000000000000000e+00  1.9804685798765434e-01 9.3861303425313795e-03 0.0000000000000000e+00  0.0000000000000000e+00 0.0000000000000000e+00 0.0000000000000000e+00  0.0000000000000000e+00 0.0000000000000000e+00 0.0000000000000000e+00  1.9857369447993642e-01 -3.5117499047736013e-05 0.0000000000000000e+00  2.0580397299259937e-01 -4.2576906781537143e-03 0.0000000000000000e+00  1.5660169523108361e-01 1.7311934088889876e-02 0.0000000000000000e+00  1.9439938418803493e-01 1.2832210475490299e-04 0.0000000000000000e+00  2.4345609991568049e-01 -9.8305146681619791e-03 0.0000000000000000e+00  2.4706009361932585e-01 -1.0970835893509251e-02 0.0000000000000000e+00  2.4079670630347438e-01 -1.3913831682459613e-02 0.0000000000000000e+00  0.0000000000000000e+00 0.0000000000000000e+00 0.0000000000000000e+00  1.8508930758817799e-01 -7.5135801847706083e-03 0.0000000000000000e+00  1.6150812814146542e-01 -1.5814656667304262e-04 0.0000000000000000e+00  0.0000000000000000e+00 0.0000000000000000e+00 0.0000000000000000e+00  1.9592318920888585e-01 -3.4935978321138247e-03 0.0000000000000000e+00  0.0000000000000000e+00 0.0000000000000000e+00 0.0000000000000000e+00  2.2413087819376870e-01 3.8846602857682991e-03 0.0000000000000000e+00  1.9734465416168989e-01 6.8627991759538567e-04 0.0000000000000000e+00  1.8373369828186464e-01 -9.3274282849681409e-05 0.0000000000000000e+00  1.8495409178185532e-01 1.2186996822055847e-02 0.0000000000000000e+00  1.7077068135218421e-01 -3.8102120797713634e-03 0.0000000000000000e+00  2.3117670464508638e-01 4.8065887403550842e-03 0.0000000000000000e+00  2.2133607485310419e-01 4.2194954776969629e-03 0.0000000000000000e+00  1.5234143244672704e-01 -1.8698775420818807e-03 0.0000000000000000e+00  1.6083379955774935e-01 -1.8293529169867016e-03 0.0000000000000000e+00  1.9690451796434835e-01 4.2562810707432903e-03 0.0000000000000000e+00  1.9844323723024732e-01 -5.2211114399307508e-04 0.0000000000000000e+00  2.3276687585439340e-01 -1.1345648926235106e-02 0.0000000000000000e+00  2.0156268145275907e-01 2.0691963217493825e-03 0.0000000000000000e+00  7.7621384358008721e-02 -1.5349100455051461e-03 0.0000000000000000e+00  0.0000000000000000e+00 0.0000000000000000e+00 0.0000000000000000e+00  1.9935354394878410e-01 7.3000408801665835e-03 0.0000000000000000e+00  1.9986588833123509e-01 -4.5806942426650241e-03 0.0000000000000000e+00  2.3646220319499053e-01 -1.0845856050170839e-02 0.0000000000000000e+00  2.3342602712609620e-01 -1.4503168726852330e-02 0.0000000000000000e+00  2.1201397062309479e-01 -1.2686357732483965e-02 0.0000000000000000e+00  2.1921554547699024e-01 -8.3681628210553680e-03 0.0000000000000000e+00  1.9329285713295757e-01 -2.7846685681845503e-02 0.0000000000000000e+00  1.9903803956642724e-01 -3.0524938333644398e-02 0.0000000000000000e+00  2.2519364924504884e-01 -6.5163668477630421e-03 0.0000000000000000e+00  2.3530107828357183e-01 -8.1952483195699422e-03 0.0000000000000000e+00  2.1790340070197617e-01 5.0679474787318568e-03 0.0000000000000000e+00  1.8753913318205326e-01 2.6473323002092508e-03 0.0000000000000000e+00  2.4597453347620341e-01 1.1893348224502458e-02 0.0000000000000000e+00  2.2034365191284072e-01 -5.2749931938923115e-03 0.0000000000000000e+00  1.5476066196967003e-01 1.0168545324009226e-03 0.0000000000000000e+00  2.3866365658447711e-01 -6.2995948148191500e-03 0.0000000000000000e+00  2.2732881109340466e-01 -3.7004817111813706e-03 0.0000000000000000e+00  2.4010589845665878e-01 -6.0344088225641711e-03 0.0000000000000000e+00  0.0000000000000000e+00 0.0000000000000000e+00 0.0000000000000000e+00  1.9730240585197467e-01 -3.2826153759967793e-03 0.0000000000000000e+00  2.3806133143668629e-01 -7.6669977464237917e-03 0.0000000000000000e+00  2.2780352857198405e-01 -8.1857822804687706e-03 0.0000000000000000e+00  0.0000000000000000e+00 0.0000000000000000e+00 0.0000000000000000e+00  6.8913477529517972e-02 -3.4045496423933146e-04 0.0000000000000000e+00  5.84343