<?xml version="1.0"?>
<VTKFile type="UnstructuredGrid"  version="0.1"  >
<UnstructuredGrid>
<Piece  NumberOfPoints="1419" NumberOfCells="2698">
<Points>
<DataArray  type="Float64"  NumberOfComponents="3"  format="ascii">0 0 0  0 0.41 0  2.5 0 0  2.5 0.41 0  0.6 0.19 0  0.6 0.21 0  0.25 0.2 0  0.15 0.2 0  0.2489897948556636 0.21 0  0.2489897948556636 0.19 0  0.6 0.2 0  0 0.3807142857143437 0  0 0.3514285714286952 0  0 0.3221428571430699 0  0 0.29285714285744 0  0 0.2635714285718054 0  0 0.2342857142861561 0  0 0.2050000000005308 0  0 0.175714285714732 0  0 0.1464285714289574 0  0 0.1171428571431897 0  0 0.08785714285737878 0  0 0.05857142857161107 0  0 0.02928571428580012 0  0.03015443760436003 0 0  0.06140001986583606 0 0  0.09377624077125973 0 0  0.1273239957535082 0 0  0.1620856860351972 0 0  0.1981052433264291 0 0  0.235428184091502 0 0  0.2741016576309132 0 0  0.3141745521465447 0 0  0.3556974926295285 0 0  0.3987229542472677 0 0  0.4433053055141081 0 0  0.4895008759286886 0 0  0.5373680609405097 0 0  0.5869673343216626 0 0  0.6383613676634521 0 0  0.6916151138468254 0 0  0.7467958595648856 0 0  0.8039733463919316 0 0  0.8632198139502143 0 0  0.9246101326867038 0 0  0.9882218810934433 0 0  1.054135445558498 0 0  1.122434100542598 0 0  1.193204177141305 0 0  1.266535089879536 0 0  1.342519516046404 0 0  1.421253448503939 0 0  1.502836389106271 0 0  1.587371439758838 0 0  1.674965418777374 0 0  1.765729001825544 0 0  1.859776908880082 0 0  1.957227977487062 0 0  2.058205329869943 0 0  2.162836591189951 0 0  2.271253957290865 0 0  2.383594446803425 0 0  2.5 0.1024999999997612 0  2.5 0.2049999999994743 0  2.5 0.3074999999997183 0  2.383594446803656 0.41 0  2.271253957291315 0.41 0  2.162836591190598 0.41 0  2.058205329870775 0.41 0  1.957227977488067 0.41 0  1.859776908881246 0.41 0  1.765729001826854 0.41 0  1.674965418778818 0.41 0  1.58737143976041 0.41 0  1.502836389107956 0.41 0  1.421253448505726 0.41 0  1.342519516048286 0.41 0  1.266535089881505 0.41 0  1.193204177143353 0.41 0  1.122434100544716 0.41 0  1.05413544556068 0.41 0  0.9882218810956305 0.41 0  0.9246101326886647 0.41 0  0.8632198139519631 0.41 0  0.8039733463934788 0.41 0  0.7467958595662458 0.41 0  0.6916151138480078 0.41 0  0.6383613676644679 0.41 0  0.5869673343225223 0.41 0  0.5373680609412221 0.41 0  0.4895008759292634 0.41 0  0.4433053055145528 0.41 0  0.3987229542475914 0.41 0  0.3556974926297398 0.41 0  0.3141745521466497 0.41 0  0.2741016576310038 0.41 0  0.2354281840915826 0.41 0  0.1981052433265003 0.41 0  0.1620856860352591 0.41 0  0.1273239957535623 0.41 0  0.09377624077128965 0.41 0  0.06140001986584975 0.41 0  0.03015443760436654 0.41 0  0.2497468076502589 0.2050254481002335 0  0.2497468076502614 0.1949745518997913 0  0.2469965252529372 0.1829317073451959 0  0.2439893735792749 0.1762316384219906 0  0.2400332147834255 0.1700443375285386 0  0.2352133972704371 0.1645032867342007 0  0.2296339016332438 0.1597280261969788 0  0.2234150974217223 0.1558215752574715 0  0.2166911463437691 0.1528682099456123 0  0.2096071079204251 0.1509316448471593 0  0.2023158100364996 0.1500536585536553 0  0.194974551899914 0.1502531923497262 0  0.1877417105387872 0.1515259415822739 0  0.1807733240461124 0.153844448527136 0  0.1742197252835808 0.15715869474974 0  0.1682222986673531 0.1613971801805478 0  0.162910430003803 0.1664684656256651 0  0.1583987151779087 0.1722631454351573 0  0.1547844879126891 0.178656207771761 0  0.1521457199348551 0.1855097315605723 0  0.1505393388476355 0.1926758619366523 0  0.1505393388476328 0.2073241380633295 0  0.1521457199348437 0.2144902684393899 0  0.1547844879126531 0.221343792228163 0  0.1583987151778488 0.2277368545647528 0  0.1629104300036858 0.2335315343742052 0  0.1682222986671726 0.2386028198193036 0  0.1742197252833576 0.2428413052501257 0  0.1807733240458683 0.2461555514727623 0  0.1877417105384929 0.2484740584176516 0  0.1949745518995776 0.2497468076502398 0  0.202315810036185 0.2499463414463592 0  0.2096071079201568 0.2490683551528932 0  0.2166911463435495 0.2471317900544655 0  0.2234150974215506 0.2441784247426195 0  0.2296339016331197 0.2402719738031125 0  0.2352133972703547 0.2354967132658811 0  0.2400332147833751 0.2299556624715287 0  0.2439893735792577 0.2237683615780412 0  0.246996525252926 0.2170682926548348 0  0.25645809709277 0.21 0  0.2639263993298655 0.21 0  0.271394701566961 0.21 0  0.2788630038040554 0.21 0  0.2863313060411479 0.21 0  0.2937996082782405 0.21 0  0.301267910515333 0.21 0  0.3087362127524279 0.21 0  0.3162045149895234 0.21 0  0.3236728172265972 0.21 0  0.3311411194636928 0.21 0  0.3386094217007701 0.21 0  0.3460777239378666 0.21 0  0.3535460261749672 0.21 0  0.3610143284120516 0.21 0  0.3684826306491596 0.21 0  0.3759509328862226 0.21 0  0.383419235123329 0.21 0  0.3908875373604028 0.21 0  0.3983558395975142 0.21 0  0.4058241418345938 0.21 0  0.4132924440716992 0.21 0  0.4207607463087888 0.21 0  0.4282290485459029 0.21 0  0.4356973507830418 0.21 0  0.4431656530201649 0.21 0  0.4506339552573136 0.21 0  0.4581022574944306 0.21 0  0.4655705597315852 0.21 0  0.4730388619686996 0.21 0  0.480507164205851 0.21 0  0.4879754664429498 0.21 0  0.4954437686800938 0.21 0  0.502912070917267 0.21 0  0.5103803731544119 0.21 0  0.5178486753915261 0.21 0  0.5253169776286404 0.21 0  0.5327852798657868 0.21 0  0.5402535821029386 0.21 0  0.54772188434007 0.21 0  0.5551901865771842 0.21 0  0.5626584888143201 0.21 0  0.5701267910514778 0.21 0  0.5775950932886138 0.21 0  0.5850633955257281 0.21 0  0.5925316977628483 0.21 0  0.6 0.2050000000000054 0  0.6 0.1950000000000217 0  0.5925316977628897 0.19 0  0.5850633955257988 0.19 0  0.5775950932887378 0.19 0  0.5701267910515998 0.19 0  0.5626584888145268 0.19 0  0.5551901865773963 0.19 0  0.547721884340339 0.19 0  0.5402535821032429 0.19 0  0.5327852798661811 0.19 0  0.5253169776290537 0.19 0  0.5178486753919799 0.19 0  0.5103803731549078 0.19 0  0.502912070917822 0.19 0  0.4954437686807294 0.19 0  0.4879754664436223 0.19 0  0.4805071642065402 0.19 0  0.4730388619694271 0.19 0  0.4655705597323621 0.19 0  0.4581022574952563 0.19 0  0.4506339552581777 0.19 0  0.4431656530210671 0.19 0  0.4356973507839815 0.19 0  0.4282290485468779 0.19 0  0.4207607463097617 0.19 0  0.4132924440726327 0.19 0  0.4058241418354857 0.19 0  0.3983558395983636 0.19 0  0.3908875373612097 0.19 0  0.3834192351240934 0.19 0  0.3759509328869369 0.19 0  0.3684826306498175 0.19 0  0.361014328412667 0.19 0  0.3535460261755617 0.19 0  0.3460777239384295 0.19 0  0.3386094217012945 0.19 0  0.3311411194641595 0.19 0  0.3236728172270245 0.19 0  0.3162045149898895 0.19 0  0.3087362127527544 0.19 0  0.3012679105156187 0.19 0  0.2937996082784807 0.19 0  0.2863313060413428 0.19 0  0.2788630038042048 0.19 0  0.2713947015670686 0.19 0  0.2639263993299336 0.19 0  0.2564580970927985 0.19 0  0.2607803159922026 0.2000727136295815 0  0.5887803774232762 0.2001272386983733 0  0.5745072403740523 0.2002044435018727 0  0.5511891430099709 0.2001122610077113 0  0.2751288526855082 0.20000000000002 0  0.5365194309847112 0.1999999999999436 0  0.2894621222999649 0.1998691686390484 0  0.5215828265105155 0.1999999999999228 0  0.3127789816668748 0.1998657885438805 0  0.3274069683451451 0.2000000000000796 0  0.5066462220363641 0.199999999999908 0  0.3650630746574081 0.199866017807523 0  0.476773013087985 0.1999999999998713 0  0.3417402379596385 0.1998691686391011 0  0.3796850840047755 0.200000000000134 0  0.4618364086138087 0.1999999999998546 0  0.4917096175621762 0.1999999999998808 0  0.3946216884789568 0.2000000000001512 0  0.446899804139621 0.1999999999998389 0  0.4089549580935208 0.1998691686391595 0  0.4322718174608562 0.200127451265745 0  0.4201487168029707 0.1999966199048527 0  0.3528922713220932 0.2000185703532356 0  0.5633122436674589 0.1999814296467508 0  0.3006558810093873 0.1999966199048318 0  0.5815926498168407 0.1966545283159175 0  0.2677053789419034 0.1964246479135325 0  0.5290511287476175 0.1970915826863981 0  0.5439877332217911 0.197091582686394 0  0.2825131256993216 0.2035478995978015 0  0.3199386661080599 0.202908417313604 0  0.4842413153250809 0.1970915826863873 0  0.5141145242734466 0.1970915826863843 0  0.3722167817676917 0.2029084173136195 0  0.4693047108508938 0.1970915826863783 0  0.3348752705822316 0.202908417313609 0  0.3871533862418661 0.2029084173136212 0  0.4543681063767183 0.1970915826863795 0  0.4991779197992749 0.1970915826863902 0  0.4020059614928624 0.203547899597858 0  0.4394315019025246 0.1970915826863714 0  0.2550657455369551 0.2034088125358657 0  0.2548908499171161 0.1966940311614271 0  0.5946539510196798 0.2024302972968126 0  0.267698176732111 0.2039977513680092 0  0.4261685417851465 0.196409292431739 0  0.3590076176283495 0.196411355804271 0  0.5571672426447437 0.2036011176410121 0  0.3066757059912147 0.1964092924317024 0  0.594380730180568 0.1966558399668133 0  0.4842413153245942 0.2040749161535287 0  0.4693047108503577 0.2040749161535231 0  0.3871533862424271 0.1959250838464788 0  0.372246743208829 0.1959123236376545 0  0.5141145242731028 0.2040749161535395 0  0.4543681063761134 0.2040749161535186 0  0.4019979587101454 0.1959834479682427 0  0.4394608940728603 0.2040870543693135 0  0.5439623148931173 0.2040856076781014 0  0.5290511287473298 0.2040749161535501 0  0.4991779197988497 0.2040749161535382 0  0.3347912413592433 0.1959225448935183 0  0.3199680582793816 0.1959123018030061 0  0.2825051229162361 0.1959834479681729 0  0.3590471196690275 0.2036304442587945 0  0.5571594006495384 0.1963685282145804 0  0.3067669986803285 0.203627750582736 0  0.4262598344738712 0.2036568242185335 0  0.5814408164431408 0.2041285596160068 0  0.5688286748170428 0.1961819304477386 0  0.4145905603063645 0.2038180695522843 0  0.3473758401724931 0.2038180695522752 0  0.2950977245128307 0.2038180695522663 0  0.5688286748170693 0.203818069552238 0  0.2950977245127906 0.1961819304477774 0  0.3473758401723931 0.1961819304478349 0  0.4145905603061963 0.1961819304479011 0  0.2601812407614425 0.2056861609747042
[...]
<PointData  Vectors="f_40-0"> 
<DataArray  type="Float64"  Name="f_40-0"  NumberOfComponents="3" format="ascii">0.0000000000000000e+00 0.0000000000000000e+00 0.0000000000000000e+00  0.0000000000000000e+00 0.0000000000000000e+00 0.0000000000000000e+00  0.0000000000000000e+00 0.0000000000000000e+00 0.0000000000000000e+00  0.0000000000000000e+00 0.0000000000000000e+00 0.0000000000000000e+00  1.4203694127486196e-09 9.9098667677544182e-09 0.0000000000000000e+00  -8.9624286865075289e-10 8.3063987574026633e-09 0.0000000000000000e+00  0.0000000000000000e+00 0.0000000000000000e+00 0.0000000000000000e+00  0.0000000000000000e+00 0.0000000000000000e+00 0.0000000000000000e+00  0.0000000000000000e+00 0.0000000000000000e+00 0.0000000000000000e+00  0.0000000000000000e+00 0.0000000000000000e+00 0.0000000000000000e+00  1.6244327064834061e-11 1.8141941583759935e-09 0.0000000000000000e+00  7.9591836734548407e-02 0.0000000000000000e+00 0.0000000000000000e+00  1.4693877550994527e-01 0.0000000000000000e+00 0.0000000000000000e+00  2.0204081632617479e-01 0.0000000000000000e+00 0.0000000000000000e+00  2.4489795918330076e-01 0.0000000000000000e+00 0.0000000000000000e+00  2.7551020408131754e-01 0.0000000000000000e+00 0.0000000000000000e+00  2.9387755102022350e-01 0.0000000000000000e+00 0.0000000000000000e+00  3.0000000000000004e-01 0.0000000000000000e+00 0.0000000000000000e+00  2.9387755102059482e-01 0.0000000000000000e+00 0.0000000000000000e+00  2.7551020408195548e-01 0.0000000000000000e+00 0.0000000000000000e+00  2.4489795918409071e-01 0.0000000000000000e+00 0.0000000000000000e+00  2.0204081632692525e-01 0.0000000000000000e+00 0.0000000000000000e+00  1.4693877551058568e-01 0.0000000000000000e+00 0.0000000000000000e+00  7.9591836734909230e-02 0.0000000000000000e+00 0.0000000000000000e+00  0.0000000000000000e+00 0.0000000000000000e+00 0.0000000000000000e+00  0.0000000000000000e+00 0.0000000000000000e+00 0.0000000000000000e+00  0.0000000000000000e+00 0.0000000000000000e+00 0.0000000000000000e+00  0.0000000000000000e+00 0.0000000000000000e+00 0.0000000000000000e+00  0.0000000000000000e+00 0.0000000000000000e+00 0.0000000000000000e+00  0.0000000000000000e+00 0.0000000000000000e+00 0.0000000000000000e+00  0.0000000000000000e+00 0.0000000000000000e+00 0.0000000000000000e+00  0.0000000000000000e+00 0.0000000000000000e+00 0.0000000000000000e+00  0.0000000000000000e+00 0.0000000000000000e+00 0.0000000000000000e+00  0.0000000000000000e+00 0.0000000000000000e+00 0.0000000000000000e+00  0.0000000000000000e+00 0.0000000000000000e+00 0.0000000000000000e+00  0.0000000000000000e+00 0.0000000000000000e+00 0.0000000000000000e+00  0.0000000000000000e+00 0.0000000000000000e+00 0.0000000000000000e+00  0.0000000000000000e+00 0.0000000000000000e+00 0.0000000000000000e+00  0.0000000000000000e+00 0.0000000000000000e+00 0.0000000000000000e+00  0.0000000000000000e+00 0.0000000000000000e+00 0.0000000000000000e+00  0.0000000000000000e+00 0.0000000000000000e+00 0.0000000000000000e+00  0.0000000000000000e+00 0.0000000000000000e+00 0.0000000000000000e+00  0.0000000000000000e+00 0.0000000000000000e+00 0.0000000000000000e+00  0.0000000000000000e+00 0.0000000000000000e+00 0.0000000000000000e+00  0.0000000000000000e+00 0.0000000000000000e+00 0.0000000000000000e+00  0.0000000000000000e+00 0.0000000000000000e+00 0.0000000000000000e+00  0.0000000000000000e+00 0.0000000000000000e+00 0.0000000000000000e+00  0.0000000000000000e+00 0.0000000000000000e+00 0.0000000000000000e+00  0.0000000000000000e+00 0.0000000000000000e+00 0.0000000000000000e+00  0.0000000000000000e+00 0.0000000000000000e+00 0.0000000000000000e+00  0.0000000000000000e+00 0.0000000000000000e+00 0.0000000000000000e+00  0.0000000000000000e+00 0.0000000000000000e+00 0.0000000000000000e+00  0.0000000000000000e+00 0.0000000000000000e+00 0.0000000000000000e+00  0.0000000000000000e+00 0.0000000000000000e+00 0.0000000000000000e+00  0.0000000000000000e+00 0.0000000000000000e+00 0.0000000000000000e+00  0.0000000000000000e+00 0.0000000000000000e+00 0.0000000000000000e+00  0.0000000000000000e+00 0.0000000000000000e+00 0.0000000000000000e+00  0.0000000000000000e+00 0.0000000000000000e+00 0.0000000000000000e+00  0.0000000000000000e+00 0.0000000000000000e+00 0.0000000000000000e+00  0.0000000000000000e+00 0.0000000000000000e+00 0.0000000000000000e+00  0.0000000000000000e+00 0.0000000000000000e+00 0.0000000000000000e+00  0.0000000000000000e+00 0.0000000000000000e+00 0.0000000000000000e+00  2.3604579656373362e-01 -7.9651784307637526e-03 0.0000000000000000e+00  3.1685350128905609e-01 -1.8763878721037491e-04 0.0000000000000000e+00  2.3641966324614502e-01 1.1862581092194463e-02 0.0000000000000000e+00  0.0000000000000000e+00 0.0000000000000000e+00 0.0000000000000000e+00  0.0000000000000000e+00 0.0000000000000000e+00 0.0000000000000000e+00  0.0000000000000000e+00 0.0000000000000000e+00 0.0000000000000000e+00  0.0000000000000000e+00 0.0000000000000000e+00 0.0000000000000000e+00  0.0000000000000000e+00 0.0000000000000000e+00 0.0000000000000000e+00  0.0000000000000000e+00 0.0000000000000000e+00 0.0000000000000000e+00  0.0000000000000000e+00 0.0000000000000000e+00 0.0000000000000000e+00  0.0000000000000000e+00 0.0000000000000000e+00 0.0000000000000000e+00  0.0000000000000000e+00 0.0000000000000000e+00 0.0000000000000000e+00  0.0000000000000000e+00 0.0000000000000000e+00 0.0000000000000000e+00  0.0000000000000000e+00 0.0000000000000000e+00 0.0000000000000000e+00  0.0000000000000000e+00 0.0000000000000000e+00 0.0000000000000000e+00  0.0000000000000000e+00 0.0000000000000000e+00 0.0000000000000000e+00  0.0000000000000000e+00 0.0000000000000000e+00 0.0000000000000000e+00  0.0000000000000000e+00 0.0000000000000000e+00 0.0000000000000000e+00  0.0000000000000000e+00 0.0000000000000000e+00 0.0000000000000000e+00  0.0000000000000000e+00 0.0000000000000000e+00 0.0000000000000000e+00  0.0000000000000000e+00 0.0000000000000000e+00 0.0000000000000000e+00  0.0000000000000000e+00 0.0000000000000000e+00 0.0000000000000000e+00  0.0000000000000000e+00 0.0000000000000000e+00 0.0000000000000000e+00  0.0000000000000000e+00 0.0000000000000000e+00 0.0000000000000000e+00  0.0000000000000000e+00 0.0000000000000000e+00 0.0000000000000000e+00  0.0000000000000000e+00 0.0000000000000000e+00 0.0000000000000000e+00  0.0000000000000000e+00 0.0000000000000000e+00 0.0000000000000000e+00  0.0000000000000000e+00 0.0000000000000000e+00 0.0000000000000000e+00  0.0000000000000000e+00 0.0000000000000000e+00 0.0000000000000000e+00  0.0000000000000000e+00 0.0000000000000000e+00 0.0000000000000000e+00  0.0000000000000000e+00 0.0000000000000000e+00 0.0000000000000000e+00  0.0000000000000000e+00 0.0000000000000000e+00 0.0000000000000000e+00  0.0000000000000000e+00 0.0000000000000000e+00 0.0000000000000000e+00  0.0000000000000000e+00 0.0000000000000000e+00 0.0000000000000000e+00  0.0000000000000000e+00 0.0000000000000000e+00 0.0000000000000000e+00  0.0000000000000000e+00 0.0000000000000000e+00 0.0000000000000000e+00  0.0000000000000000e+00 0.0000000000000000e+00 0.0000000000000000e+00  0.0000000000000000e+00 0.0000000000000000e+00 0.0000000000000000e+00  0.0000000000000000e+00 0.0000000000000000e+00 0.0000000000000000e+00  0.0000000000000000e+00 0.0000000000000000e+00 0.0000000000000000e+00  0.0000000000000000e+00 0.0000000000000000e+00 0.0000000000000000e+00  0.0000000000000000e+00 0.0000000000000000e+00 0.0000000000000000e+00  0.0000000000000000e+00 0.0000000000000000e+00 0.0000000000000000e+00  0.0000000000000000e+00 0.0000000000000000e+00 0.0000000000000000e+00  0.0000000000000000e+00 0.0000000000000000e+00 0.0000000000000000e+00  0.0000000000000000e+00 0.0000000000000000e+00 0.0000000000000000e+00  0.0000000000000000e+00 0.0000000000000000e+00 0.0000000000000000e+00  0.0000000000000000e+00 0.0000000000000000e+00 0.0000000000000000e+00  0.0000000000000000e+00 0.0000000000000000e+00 0.0000000000000000e+00  0.0000000000000000e+00 0.0000000000000000e+00 0.0000000000000000e+00  0.0000000000000000e+00 0.0000000000000000e+00 0.0000000000000000e+00  0.0000000000000000e+00 0.0000000000000000e+00 0.0000000000000000e+00  0.0000000000000000e+00 0.0000000000000000e+00 0.0000000000000000e+00  0.0000000000000000e+00 0.0000000000000000e+00 0.0000000000000000e+00  0.0000000000000000e+00 0.0000000000000000e+00 0.0000000000000000e+00  0.0000000000000000e+00 0.0000000000000000e+00 0.0000000000000000e+00  0.0000000000000000e+00 0.0000000000000000e+00 0.0000000000000000e+00  0.0000000000000000e+00 0.0000000000000000e+00 0.0000000000000000e+00  0.0000000000000000e+00 0.0000000000000000e+00 0.0000000000000000e+00  0.0000000000000000e+00 0.0000000000000000e+00 0.0000000000000000e+00  0.0000000000000000e+00 0.0000000000000000e+00 0.0000000000000000e+00  0.0000000000000000e+00 0.0000000000000000e+00 0.0000000000000000e+00  0.0000000000000000e+00 0.0000000000000000e+00 0.0000000000000000e+00  0.0000000000000000e+00 0.0000000000000000e+00 0.0000000000000000e+00  0.0000000000000000e+00 0.0000000000000000e+00 0.0000000000000000e+00  0.0000000000000000e+00 0.0000000000000000e+00 0.0000000000000000e+00  0.0000000000000000e+00 0.0000000000000000e+00 0.0000000000000000e+00  0.0000000000000000e+00 0.0000000000000000e+00 0.0000000000000000e+00  0.0000000000000000e+00 0.0000000000000000e+00 0.0000000000000000e+00  0.0000000000000000e+00 0.0000000000000000e+00 0.0000000000000000e+00  0.0000000000000000e+00 0.0000000000000000e+00 0.0000000000000000e+00  0.0000000000000000e+00 0.0000000000000000e+00 0.0000000000000000e+00  0.0000000000000000e+00 0.0000000000000000e+00 0.0000000000000000e+00  0.0000000000000000e+00 0.0000000000000000e+00 0.0000000000000000e+00  0.0000000000000000e+00 0.0000000000000000e+00 0.0000000000000000e+00  0.0000000000000000e+00 0.0000000000000000e+00 0.0000000000000000e+00  0.0000000000000000e+00 0.0000000000000000e+00 0.0000000000000000e+00  0.0000000000000000e+00 0.0000000000000000e+00 0.0000000000000000e+00  0.0000000000000000e+00 0.0000000000000000e+00 0.0000000000000000e+00  0.0000000000000000e+00 0.0000000000000000e+00 0.0000000000000000e+00  0.0000000000000000e+00 0.0000000000000000e+00 0.0000000000000000e+00  2.7699852638959663e-12 -6.4040736745073674e-11 0.0000000000000000e+00  -1.0101301954127581e-11 -6.4937657466561733e-11 0.0000000000000000e+00  -9.9782558870406878e-12 -7.0685554637181074e-11 0.0000000000000000e+00  -1.9113939825877507e-11 -5.9705219939311581e-11 0.0000000000000000e+00  -1.5979616162517549e-11 -4.9947182723200999e-11 0.0000000000000000e+00  -2.7901351840955871e-11 -4.8487300526254759e-11 0.0000000000000000e+00  -1.9429022768967065e-11 7.2577882098707193e-12 0.0000000000000000e+00  -2.4752623235213215e-11 -8.4334987997174795e-12 0.0000000000000000e+00  -3.0546388948494452e-11 2.3468658554540498e-11 0.0000000000000000e+00  -2.5731790115600860e-11 4.3405224193665733e-11 0.0000000000000000e+00  -3.3569240959492237e-11 6.7443628652326369e-11 0.0000000000000000e+00  -2.8658743915560114e-11 9.1984156028162343e-11 0.0000000000000000e+00  -3.7683624780520360e-11 1.2126081062260328e-10 0.0000000000000000e+00  -2.8671687828801199e-11 1.4104690685565732e-10 0.0000000000000000e+00  -3.4807787194548197e-11 1.8034851450742021e-10 0.0000000000000000e+00  -3.5839013274786796e-11 1.9997327710087887e-10 0.0000000000000000e+00  -3.3525947055821139e-11 2.3531113152835955e-10 0.0000000000000000e+00  -3.6837399121289729e-11 2.6180665568894797e-10 0.0000000000000000e+00  -3.4616916255242271e-11 2.9508805902664598e-10 0.0000000000000000e+00  -3.7577346536756311e-11 3.2832959540066757e-10 0.0000000000000000e+00  -3.5854286389690425e-11 3.6115297561467296e-10 0.0000000000000000e+00  -3.9597334759956313e-11 4.1835606513479946e-10 0.0000000000000000e+00  -3.3092605111894250e-11 3.7092851663361903e-10 0.0000000000000000e+00  -3.8235436278794237e-11 4.8608925248075363e-10 0.0000000000000000e+00  -3.7682814366896906e-11 4.9815682568373486e-10 0.0000000000000000e+00  -3.7136938038744853e-11 5.4258143327282401e-10 0.0000000000000000e+00  -3.7509437923916264e-11 5.7005584182625512e-10 0.0000000000000000e+00  -3.7149287746971026e-11 6.1104909643485497e-10 0.0000000000000000e+00  -3.7269551476940435e-11 6.4626300130065779e-10 0.0000000000000000e+00  -3.7137064943624177e-11 6.8146355690343550e-10 0.0000000000000000e+00  -3.7157836356715709e-11 7.2140932090984218e-10 0.0000000000000000e+00  -3.7100557103594948e-11 7.5910410016495766e-10 0.0000000000000000e+00  -3.7184463819735663e-11 7.9343937273568480e-10 0.0000000000000000e+00  -3.7173685564657010e-11 8.4173953913736968e-10 0.0000000000000000e+00  -3.7348252581576056e-11 8.7785854950488542e-10 0.0000000000000000e+00  -3.7524014851203844e-11 9.2329178640041028e-10 0.0000000000000000e+00  -3.7807599114865583e-11 9.6526263700330994e-10 0.0000000000000000e+00  -3.8148900179589697e-11 1.0118454839222972e-09 0.0000000000000000e+00  -3.8834611119482377e-11 1.0677706657419772e-09 0.0000000000000000e+00  -3.9344905935846145e-11 1.1190793171762030e-09 0.0000000000000000e+00  -4.2060123138081384e-11 1.2307632681330230e-09 0.0000000000000000e+00  -3.7389463904399545e-11 9.9554202779897807e-10 0.0000000000000000e+00  -4.6166198437356094e-11 1.4000900421114063e-09 0.0000000000000000e+00  -4.9118582567835421e-11 1.4684712871235110e-09 0.0000000000000000e+00  -5.3720693839156936e-11 1.4624165173036619e-09 0.0000000000000000e+00  -1.0913702693169723e-11 1.8737058332719145e-09 0.0000000000000000e+00  -4.9808180580997451e-12 1.6315435542520742e-09 0.0000000000000000e+00  4.9741203741540520e-11 1.9150432203690201e-09 0.0000000000000000e+00  5.5575740550132965e-11 1.7704662846492037e-09 0.0000000000000000e+00  8.7952194435163762e-11 1.5287433950962912e-09 0.0000000000000000e+00  6.9841876840037802e-11 1.3788018629811672e-09 0.0000000000000000e+00  7.4495334816600516e-11 1.4132090591827196e-09 0.0000000000000000e+00  4.9142732428471781e-11 1.0017247563443214e-09 0.0000000000000000e+00  6.6543006213334404e-11 1.2342450963586767e-09 0.0000000000000000e+00  5.7374567169694911e-11 1.0742194777561708e-09 0.0000000000000000e+00  5.7210752016282304e-11 1.0379615896805785e-09 0.0000000000000000e+00  5.5936670477320953e-11 9.8801800977249399e-10 0.0000000000000000e+00  5.5116078077516624e-11 9.4314064397405449e-10 0.0000000000000000e+00  5.4278322288625972e-11 8.9850015942188341e-10 0.0000000000000000e+00  5.3782436994524425e-11 8.5837151674962910e-10 0.0000000000000000e+00  5.3148594981591679e-11 8.1847979711033716e-10 0.0000000000000000e+00  5.2850035723137239e-11 7.8062638716635112e-10 0.0000000000000000e+00  5.2215497863209266e-11 7.4263570040517778e-10 0.0000000000000000e+00  5.2110941758884816e-11 7.0633812893724994e-10 0.0000000000000000e+00  5.1356487263827666e-11 6.6876419663763103e-10 0.0000000000000000e+00  5.1429231997839469e-11 6.3353169648435274e-10 0.0000000000000000e+00  5.0545203731416872e-11 5.9834320977404605e-10 0.0000000000000000e+00  5.0818923542943244e-11 5.6420842407061106e-10 0.0000000000000000e+00  4.9700832463341662e-11 5.3030178327023652e-10 0.0000000000000000e+00  4.9510045991948165e-11 4.9252520495471031e-10 0.0000000000000000e+00  5.2658914453919538e-11 4.8490296527668170e-10 0.0000000000000000e+00  4.0213904546260817e-11 3.7763149002465653e-10 0.0000000000000000e+00  5.3762212429076563e-11 4.2148230017408351e-10 0.0000000000000000e+00  4.9115510719428253e-11 3.7561694658171981e-10 0.0000000000000000e+00  4.9159469993481616e-11 3.3775381465471939e-10 0.0000000000000000e+00  4.7772148930436896e-11 3.1043742157691448e-10 0.0000000000000000e+00  4.7618310696313447e-11 2.7208934916054608e-10 0.0000000000000000e+00  4.5787275237242057e-11 2.4580270411511250e-10 0.0000000000000000e+00  4.5932009349487660e-11 2.0920931226084185e-10 0.0000000000000000e+00  4.4722424060428250e-11 1.8766627649979553e-10 0.0000000000000000e+00  3.3023006874023860e-11 1.4376917108903829e-10 0.0000000000000000e+00  4.5620483430828409e-11 1.2822363940689636e-10 0.0000000000000000e+00  3.8120429788878210e-11 9.3752859197735744e-11 0.0000000000000000e+00  3.8578271603675553e-11 7.0894336834778456e-11 0.0000000000000000e+00  3.4102813918710085e-11 4.4538557167007258e-11 0.0000000000000000e+00  3.5164032994055124e-11 2.1536804045792225e-11 0.0000000000000000e+00  2.8618059494833838e-11 -4.1363160037975402e-12 0.0000000000000000e+00  2.0985348838528706e-11 9.3001695423832681e-12 0.0000000000000000e+00  2.9024447846322805e-11 -4.2295128738468630e-11 0.0000000000000000e+00  1.7986251736294118e-11 -5.0841777625333389e-11 0.0000000000000000e+00  1.8420381941409482e-11 -6.0837054978637782e-11 0.0000000000000000e+00  7.5730690405412386e-12 -6.1943218818971754e-11 0.0000000000000000e+00  7.3998163295750436e-12 -5.6760816548494216e-11 0.0000000000000000e+00  -6.7516621004423566e-12 -4.9497397025157484e-11 0.0000000000000000e+00  -2.9419464594128635e-13 -1.2488145908037169e-11 0.0000000000000000e+00  6.1473679416676630e-12 9.4974950120662780e-10 0.0000000000000000e+00  2.2630435127751592e-12 9.4092318587379091e-10 0.0000000000000000e+00  2.3424979053745779e-12 8.2086897324076113e-10 0.0000000000000000e+00  -1.5648801340038165e-14 -8.0819759434053037e-12 0.0000000000000000e+00  2.3960311763603301e-12 7.5386510475557125e-10 0.0000000000000000e+00  4.7046379938763529e-13 5.5068098020236529e-12 0.0000000000000000e+00  2.3177265212755087e-12 6.9589725820402302e-10 0.0000000000000000e+00  1.0331772596669180e-12 4.4500899528057708e-11 0.0000000000000000e+00  1.0525724590770523e-12 7.5669095776900720e-11 0.0000000000000000e+00  2.2467020188033344e-12 6.4020067351104474e-10 0.0000000000000000e+00  1.8732390312150321e-12 1.7230607475332914e-10 0.0000000000000000e+00  2.1189852953381920e-12 5.3278613585968315e-10 0.0000000000000000e+00  1.5509098791608142e-12 1.0977314261609643e-10 0.0000000000000000e+00  1.6761073591393258e-12 2.1396967529074084e-10 0.0000000000000000e+00  2.0513222071027752e-12 4.8062426724299899e-10 0.0000000000000000e+00  2.1834940349459097e-12 5.8583992712743367e-10 0.0000000000000000e+00  1.7683446528955316e-12 2.5910566181607690e-10 0.0000000000000000e+00  1.9701976093725416e-12 4.2944054752009571e-10 0.0000000000000000e+00  2.2620161146375460e-12 3.0621709260353068e-10 0.0000000000000000e+00  1.6280269476767947e-12 3.8223179651710049e-10 0.0000000000000000e+00  2.2811629583228337e-14 3.0411217481401694e-10 0.0000000000000000e+00  2.3546740228513493e-13 1.3598107150661282e-10 0.0000000000000000e+00  -6.9691179121332901e-13 7.1902062307776849e-10 0.0000000000000000e+00  2.7527961416738815e-13 4.1727923009861173e-11 0.0000000000000000e+00  -2.2713191723104969e-12 6.6197367007428139e-10 0.0000000000000000e+00  1.5076458010468606e-12 2.0055445129318978e-11 0.0000000000000000e+00  2.3891915217938729e-12 5.5246967103482707e-10 0.0000000000000000e+00  2.0106847574851267e-12 5.8907476732576661e-10 0.0000000000000000e+00  -1.0878491237136012e-12 3.3419396866377974e-11 0.0000000000000000e+00  -1.7460224698868520e-12 7.7991747834822715e-11 0.0000000000000000e+00  3.2022505948017922e-12 4.4158410642183985e-10 0.0000000000000000e+00  2.7805244845203485e-12 5.1689490157675956e-10 0.0000000000000000e+00  -3.8913309966146833e-12 1.7256609632430844e-10 0.0000000000000000e+00  3.3044552659336674e-12 4.0355455901934607e-10 0.0000000000000000e+00  -2.1896557477189280e-12 1.0202170919315918e-10 0.0000000000000000e+00  -4.3388622603850317e-12 2.0497547793889600e-10 0.0000000000000000e+00  3.3371938378787405e-12 3.6533228994095542e-10 0.0000000000000000e+00  3.0352230651698379e-12 4.7952691603303403e-10 0.0000000000000000e+00  -6.6505542012713889e-12 2.3975111105370051e-10 0.0000000000000000e+00  3.4604335975502344e-12 3.2821041704709126e-10 0.0000000000000000e+00  -9.9862070633595211e-13 5.4875697086382807e-12 0.0000000000000000e+00  1.4000799300307475e-12 4.3191781541500313e-12 0.0000000000000000e+00  -4.1329658825538825e-11 8.1453936289470780e-10 0.0000000000000000e+00  -9.1112387256053802e-13 2.1345152355031453e-11 0.0000000000000000e+00  4.5252402534889856e-12 2.9563828591777187e-10 0.0000000000000000e+00 