<?xml version="1.0"?>
<VTKFile type="UnstructuredGrid"  version="0.1"  >
<UnstructuredGrid>
<Piece  NumberOfPoints="1419" NumberOfCells="2698">
<Points>
<DataArray  type="Float64"  NumberOfComponents="3"  format="ascii">0 0 0  0 0.41 0  2.5 0 0  2.5 0.41 0  0.6 0.19 0  0.6 0.21 0  0.25 0.2 0  0.15 0.2 0  0.2489897948556636 0.21 0  0.2489897948556636 0.19 0  0.6 0.2 0  0 0.3807142857143437 0  0 0.3514285714286952 0  0 0.3221428571430699 0  0 0.29285714285744 0  0 0.2635714285718054 0  0 0.2342857142861561 0  0 0.2050000000005308 0  0 0.175714285714732 0  0 0.1464285714289574 0  0 0.1171428571431897 0  0 0.08785714285737878 0  0 0.05857142857161107 0  0 0.02928571428580012 0  0.03015443760436003 0 0  0.06140001986583606 0 0  0.09377624077125973 0 0  0.1273239957535082 0 0  0.1620856860351972 0 0  0.1981052433264291 0 0  0.235428184091502 0 0  0.2741016576309132 0 0  0.3141745521465447 0 0  0.3556974926295285 0 0  0.3987229542472677 0 0  0.4433053055141081 0 0  0.4895008759286886 0 0  0.5373680609405097 0 0  0.5869673343216626 0 0  0.6383613676634521 0 0  0.6916151138468254 0 0  0.7467958595648856 0 0  0.8039733463919316 0 0  0.8632198139502143 0 0  0.9246101326867038 0 0  0.9882218810934433 0 0  1.054135445558498 0 0  1.122434100542598 0 0  1.193204177141305 0 0  1.266535089879536 0 0  1.342519516046404 0 0  1.421253448503939 0 0  1.502836389106271 0 0  1.587371439758838 0 0  1.674965418777374 0 0  1.765729001825544 0 0  1.859776908880082 0 0  1.957227977487062 0 0  2.058205329869943 0 0  2.162836591189951 0 0  2.271253957290865 0 0  2.383594446803425 0 0  2.5 0.1024999999997612 0  2.5 0.2049999999994743 0  2.5 0.3074999999997183 0  2.383594446803656 0.41 0  2.271253957291315 0.41 0  2.162836591190598 0.41 0  2.058205329870775 0.41 0  1.957227977488067 0.41 0  1.859776908881246 0.41 0  1.765729001826854 0.41 0  1.674965418778818 0.41 0  1.58737143976041 0.41 0  1.502836389107956 0.41 0  1.421253448505726 0.41 0  1.342519516048286 0.41 0  1.266535089881505 0.41 0  1.193204177143353 0.41 0  1.122434100544716 0.41 0  1.05413544556068 0.41 0  0.9882218810956305 0.41 0  0.9246101326886647 0.41 0  0.8632198139519631 0.41 0  0.8039733463934788 0.41 0  0.7467958595662458 0.41 0  0.6916151138480078 0.41 0  0.6383613676644679 0.41 0  0.5869673343225223 0.41 0  0.5373680609412221 0.41 0  0.4895008759292634 0.41 0  0.4433053055145528 0.41 0  0.3987229542475914 0.41 0  0.3556974926297398 0.41 0  0.3141745521466497 0.41 0  0.2741016576310038 0.41 0  0.2354281840915826 0.41 0  0.1981052433265003 0.41 0  0.1620856860352591 0.41 0  0.1273239957535623 0.41 0  0.09377624077128965 0.41 0  0.06140001986584975 0.41 0  0.03015443760436654 0.41 0  0.2497468076502589 0.2050254481002335 0  0.2497468076502614 0.1949745518997913 0  0.2469965252529372 0.1829317073451959 0  0.2439893735792749 0.1762316384219906 0  0.2400332147834255 0.1700443375285386 0  0.2352133972704371 0.1645032867342007 0  0.2296339016332438 0.1597280261969788 0  0.2234150974217223 0.1558215752574715 0  0.2166911463437691 0.1528682099456123 0  0.2096071079204251 0.1509316448471593 0  0.2023158100364996 0.1500536585536553 0  0.194974551899914 0.1502531923497262 0  0.1877417105387872 0.1515259415822739 0  0.1807733240461124 0.153844448527136 0  0.1742197252835808 0.15715869474974 0  0.1682222986673531 0.1613971801805478 0  0.162910430003803 0.1664684656256651 0  0.1583987151779087 0.1722631454351573 0  0.1547844879126891 0.178656207771761 0  0.1521457199348551 0.1855097315605723 0  0.1505393388476355 0.1926758619366523 0  0.1505393388476328 0.2073241380633295 0  0.1521457199348437 0.2144902684393899 0  0.1547844879126531 0.221343792228163 0  0.1583987151778488 0.2277368545647528 0  0.1629104300036858 0.2335315343742052 0  0.1682222986671726 0.2386028198193036 0  0.1742197252833576 0.2428413052501257 0  0.1807733240458683 0.2461555514727623 0  0.1877417105384929 0.2484740584176516 0  0.1949745518995776 0.2497468076502398 0  0.202315810036185 0.2499463414463592 0  0.2096071079201568 0.2490683551528932 0  0.2166911463435495 0.2471317900544655 0  0.2234150974215506 0.2441784247426195 0  0.2296339016331197 0.2402719738031125 0  0.2352133972703547 0.2354967132658811 0  0.2400332147833751 0.2299556624715287 0  0.2439893735792577 0.2237683615780412 0  0.246996525252926 0.2170682926548348 0  0.25645809709277 0.21 0  0.2639263993298655 0.21 0  0.271394701566961 0.21 0  0.2788630038040554 0.21 0  0.2863313060411479 0.21 0  0.2937996082782405 0.21 0  0.301267910515333 0.21 0  0.3087362127524279 0.21 0  0.3162045149895234 0.21 0  0.3236728172265972 0.21 0  0.3311411194636928 0.21 0  0.3386094217007701 0.21 0  0.3460777239378666 0.21 0  0.3535460261749672 0.21 0  0.3610143284120516 0.21 0  0.3684826306491596 0.21 0  0.3759509328862226 0.21 0  0.383419235123329 0.21 0  0.3908875373604028 0.21 0  0.3983558395975142 0.21 0  0.4058241418345938 0.21 0  0.4132924440716992 0.21 0  0.4207607463087888 0.21 0  0.4282290485459029 0.21 0  0.4356973507830418 0.21 0  0.4431656530201649 0.21 0  0.4506339552573136 0.21 0  0.4581022574944306 0.21 0  0.4655705597315852 0.21 0  0.4730388619686996 0.21 0  0.480507164205851 0.21 0  0.4879754664429498 0.21 0  0.4954437686800938 0.21 0  0.502912070917267 0.21 0  0.5103803731544119 0.21 0  0.5178486753915261 0.21 0  0.5253169776286404 0.21 0  0.5327852798657868 0.21 0  0.5402535821029386 0.21 0  0.54772188434007 0.21 0  0.5551901865771842 0.21 0  0.5626584888143201 0.21 0  0.5701267910514778 0.21 0  0.5775950932886138 0.21 0  0.5850633955257281 0.21 0  0.5925316977628483 0.21 0  0.6 0.2050000000000054 0  0.6 0.1950000000000217 0  0.5925316977628897 0.19 0  0.5850633955257988 0.19 0  0.5775950932887378 0.19 0  0.5701267910515998 0.19 0  0.5626584888145268 0.19 0  0.5551901865773963 0.19 0  0.547721884340339 0.19 0  0.5402535821032429 0.19 0  0.5327852798661811 0.19 0  0.5253169776290537 0.19 0  0.5178486753919799 0.19 0  0.5103803731549078 0.19 0  0.502912070917822 0.19 0  0.4954437686807294 0.19 0  0.4879754664436223 0.19 0  0.4805071642065402 0.19 0  0.4730388619694271 0.19 0  0.4655705597323621 0.19 0  0.4581022574952563 0.19 0  0.4506339552581777 0.19 0  0.4431656530210671 0.19 0  0.4356973507839815 0.19 0  0.4282290485468779 0.19 0  0.4207607463097617 0.19 0  0.4132924440726327 0.19 0  0.4058241418354857 0.19 0  0.3983558395983636 0.19 0  0.3908875373612097 0.19 0  0.3834192351240934 0.19 0  0.3759509328869369 0.19 0  0.3684826306498175 0.19 0  0.361014328412667 0.19 0  0.3535460261755617 0.19 0  0.3460777239384295 0.19 0  0.3386094217012945 0.19 0  0.3311411194641595 0.19 0  0.3236728172270245 0.19 0  0.3162045149898895 0.19 0  0.3087362127527544 0.19 0  0.3012679105156187 0.19 0  0.2937996082784807 0.19 0  0.2863313060413428 0.19 0  0.2788630038042048 0.19 0  0.2713947015670686 0.19 0  0.2639263993299336 0.19 0  0.2564580970927985 0.19 0  0.2607803159922026 0.2000727136295815 0  0.5887803774232762 0.2001272386983733 0  0.5745072403740523 0.2002044435018727 0  0.5511891430099709 0.2001122610077113 0  0.2751288526855082 0.20000000000002 0  0.5365194309847112 0.1999999999999436 0  0.2894621222999649 0.1998691686390484 0  0.5215828265105155 0.1999999999999228 0  0.3127789816668748 0.1998657885438805 0  0.3274069683451451 0.2000000000000796 0  0.5066462220363641 0.199999999999908 0  0.3650630746574081 0.199866017807523 0  0.476773013087985 0.1999999999998713 0  0.3417402379596385 0.1998691686391011 0  0.3796850840047755 0.200000000000134 0  0.4618364086138087 0.1999999999998546 0  0.4917096175621762 0.1999999999998808 0  0.3946216884789568 0.2000000000001512 0  0.446899804139621 0.1999999999998389 0  0.4089549580935208 0.1998691686391595 0  0.4322718174608562 0.200127451265745 0  0.4201487168029707 0.1999966199048527 0  0.3528922713220932 0.2000185703532356 0  0.5633122436674589 0.1999814296467508 0  0.3006558810093873 0.1999966199048318 0  0.5815926498168407 0.1966545283159175 0  0.2677053789419034 0.1964246479135325 0  0.5290511287476175 0.1970915826863981 0  0.5439877332217911 0.197091582686394 0  0.2825131256993216 0.2035478995978015 0  0.3199386661080599 0.202908417313604 0  0.4842413153250809 0.1970915826863873 0  0.5141145242734466 0.1970915826863843 0  0.3722167817676917 0.2029084173136195 0  0.4693047108508938 0.1970915826863783 0  0.3348752705822316 0.202908417313609 0  0.3871533862418661 0.2029084173136212 0  0.4543681063767183 0.1970915826863795 0  0.4991779197992749 0.1970915826863902 0  0.4020059614928624 0.203547899597858 0  0.4394315019025246 0.1970915826863714 0  0.2550657455369551 0.2034088125358657 0  0.2548908499171161 0.1966940311614271 0  0.5946539510196798 0.2024302972968126 0  0.267698176732111 0.2039977513680092 0  0.4261685417851465 0.196409292431739 0  0.3590076176283495 0.196411355804271 0  0.5571672426447437 0.2036011176410121 0  0.3066757059912147 0.1964092924317024 0  0.594380730180568 0.1966558399668133 0  0.4842413153245942 0.2040749161535287 0  0.4693047108503577 0.2040749161535231 0  0.3871533862424271 0.1959250838464788 0  0.372246743208829 0.1959123236376545 0  0.5141145242731028 0.2040749161535395 0  0.4543681063761134 0.2040749161535186 0  0.4019979587101454 0.1959834479682427 0  0.4394608940728603 0.2040870543693135 0  0.5439623148931173 0.2040856076781014 0  0.5290511287473298 0.2040749161535501 0  0.4991779197988497 0.2040749161535382 0  0.3347912413592433 0.1959225448935183 0  0.3199680582793816 0.1959123018030061 0  0.2825051229162361 0.1959834479681729 0  0.3590471196690275 0.2036304442587945 0  0.5571594006495384 0.1963685282145804 0  0.3067669986803285 0.203627750582736 0  0.4262598344738712 0.2036568242185335 0  0.5814408164431408 0.2041285596160068 0  0.5688286748170428 0.1961819304477386 0  0.4145905603063645 0.2038180695522843 0  0.3473758401724931 0.2038180695522752 0  0.2950977245128307 0.2038180695522663 0  0.5688286748170693 0.203818069552238 0  0.2950977245127906 0.1961819304477774 0  0.3473758401723931 0.1961819304478349 0  0.4145905603061963 0.1961819304479011 0  0.2601812407614425 0.2056861609747042
[...]
<PointData  Vectors="f_40-0"> 
<DataArray  type="Float64"  Name="f_40-0"  NumberOfComponents="3" format="ascii">0.0000000000000000e+00 0.0000000000000000e+00 0.0000000000000000e+00  0.0000000000000000e+00 0.0000000000000000e+00 0.0000000000000000e+00  0.0000000000000000e+00 0.0000000000000000e+00 0.0000000000000000e+00  0.0000000000000000e+00 0.0000000000000000e+00 0.0000000000000000e+00  2.2381658513638507e-09 3.5071017785120979e-08 0.0000000000000000e+00  -1.8237511495350037e-09 3.3463092376413351e-08 0.0000000000000000e+00  0.0000000000000000e+00 0.0000000000000000e+00 0.0000000000000000e+00  0.0000000000000000e+00 0.0000000000000000e+00 0.0000000000000000e+00  0.0000000000000000e+00 0.0000000000000000e+00 0.0000000000000000e+00  0.0000000000000000e+00 0.0000000000000000e+00 0.0000000000000000e+00  -3.8575281464130512e-11 2.6973227096627642e-08 0.0000000000000000e+00  7.9591836734548407e-02 0.0000000000000000e+00 0.0000000000000000e+00  1.4693877550994527e-01 0.0000000000000000e+00 0.0000000000000000e+00  2.0204081632617479e-01 0.0000000000000000e+00 0.0000000000000000e+00  2.4489795918330076e-01 0.0000000000000000e+00 0.0000000000000000e+00  2.7551020408131754e-01 0.0000000000000000e+00 0.0000000000000000e+00  2.9387755102022350e-01 0.0000000000000000e+00 0.0000000000000000e+00  3.0000000000000004e-01 0.0000000000000000e+00 0.0000000000000000e+00  2.9387755102059482e-01 0.0000000000000000e+00 0.0000000000000000e+00  2.7551020408195548e-01 0.0000000000000000e+00 0.0000000000000000e+00  2.4489795918409071e-01 0.0000000000000000e+00 0.0000000000000000e+00  2.0204081632692525e-01 0.0000000000000000e+00 0.0000000000000000e+00  1.4693877551058568e-01 0.0000000000000000e+00 0.0000000000000000e+00  7.9591836734909230e-02 0.0000000000000000e+00 0.0000000000000000e+00  0.0000000000000000e+00 0.0000000000000000e+00 0.0000000000000000e+00  0.0000000000000000e+00 0.0000000000000000e+00 0.0000000000000000e+00  0.0000000000000000e+00 0.0000000000000000e+00 0.0000000000000000e+00  0.0000000000000000e+00 0.0000000000000000e+00 0.0000000000000000e+00  0.0000000000000000e+00 0.0000000000000000e+00 0.0000000000000000e+00  0.0000000000000000e+00 0.0000000000000000e+00 0.0000000000000000e+00  0.0000000000000000e+00 0.0000000000000000e+00 0.0000000000000000e+00  0.0000000000000000e+00 0.0000000000000000e+00 0.0000000000000000e+00  0.0000000000000000e+00 0.0000000000000000e+00 0.0000000000000000e+00  0.0000000000000000e+00 0.0000000000000000e+00 0.0000000000000000e+00  0.0000000000000000e+00 0.0000000000000000e+00 0.0000000000000000e+00  0.0000000000000000e+00 0.0000000000000000e+00 0.0000000000000000e+00  0.0000000000000000e+00 0.0000000000000000e+00 0.0000000000000000e+00  0.0000000000000000e+00 0.0000000000000000e+00 0.0000000000000000e+00  0.0000000000000000e+00 0.0000000000000000e+00 0.0000000000000000e+00  0.0000000000000000e+00 0.0000000000000000e+00 0.0000000000000000e+00  0.0000000000000000e+00 0.0000000000000000e+00 0.0000000000000000e+00  0.0000000000000000e+00 0.0000000000000000e+00 0.0000000000000000e+00  0.0000000000000000e+00 0.0000000000000000e+00 0.0000000000000000e+00  0.0000000000000000e+00 0.0000000000000000e+00 0.0000000000000000e+00  0.0000000000000000e+00 0.0000000000000000e+00 0.0000000000000000e+00  0.0000000000000000e+00 0.0000000000000000e+00 0.0000000000000000e+00  0.0000000000000000e+00 0.0000000000000000e+00 0.0000000000000000e+00  0.0000000000000000e+00 0.0000000000000000e+00 0.0000000000000000e+00  0.0000000000000000e+00 0.0000000000000000e+00 0.0000000000000000e+00  0.0000000000000000e+00 0.0000000000000000e+00 0.0000000000000000e+00  0.0000000000000000e+00 0.0000000000000000e+00 0.0000000000000000e+00  0.0000000000000000e+00 0.0000000000000000e+00 0.0000000000000000e+00  0.0000000000000000e+00 0.0000000000000000e+00 0.0000000000000000e+00  0.0000000000000000e+00 0.0000000000000000e+00 0.0000000000000000e+00  0.0000000000000000e+00 0.0000000000000000e+00 0.0000000000000000e+00  0.0000000000000000e+00 0.0000000000000000e+00 0.0000000000000000e+00  0.0000000000000000e+00 0.0000000000000000e+00 0.0000000000000000e+00  0.0000000000000000e+00 0.0000000000000000e+00 0.0000000000000000e+00  0.0000000000000000e+00 0.0000000000000000e+00 0.0000000000000000e+00  0.0000000000000000e+00 0.0000000000000000e+00 0.0000000000000000e+00  0.0000000000000000e+00 0.0000000000000000e+00 0.0000000000000000e+00  0.0000000000000000e+00 0.0000000000000000e+00 0.0000000000000000e+00  2.3631901759941881e-01 -8.0040682170341437e-03 0.0000000000000000e+00  3.1687395270400714e-01 -2.3496576853375138e-04 0.0000000000000000e+00  2.3612692698098731e-01 1.1818518369286220e-02 0.0000000000000000e+00  0.0000000000000000e+00 0.0000000000000000e+00 0.0000000000000000e+00  0.0000000000000000e+00 0.0000000000000000e+00 0.0000000000000000e+00  0.0000000000000000e+00 0.0000000000000000e+00 0.0000000000000000e+00  0.0000000000000000e+00 0.0000000000000000e+00 0.0000000000000000e+00  0.0000000000000000e+00 0.0000000000000000e+00 0.0000000000000000e+00  0.0000000000000000e+00 0.0000000000000000e+00 0.0000000000000000e+00  0.0000000000000000e+00 0.0000000000000000e+00 0.0000000000000000e+00  0.0000000000000000e+00 0.0000000000000000e+00 0.0000000000000000e+00  0.0000000000000000e+00 0.0000000000000000e+00 0.0000000000000000e+00  0.0000000000000000e+00 0.0000000000000000e+00 0.0000000000000000e+00  0.0000000000000000e+00 0.0000000000000000e+00 0.0000000000000000e+00  0.0000000000000000e+00 0.0000000000000000e+00 0.0000000000000000e+00  0.0000000000000000e+00 0.0000000000000000e+00 0.0000000000000000e+00  0.0000000000000000e+00 0.0000000000000000e+00 0.0000000000000000e+00  0.0000000000000000e+00 0.0000000000000000e+00 0.0000000000000000e+00  0.0000000000000000e+00 0.0000000000000000e+00 0.0000000000000000e+00  0.0000000000000000e+00 0.0000000000000000e+00 0.0000000000000000e+00  0.0000000000000000e+00 0.0000000000000000e+00 0.0000000000000000e+00  0.0000000000000000e+00 0.0000000000000000e+00 0.0000000000000000e+00  0.0000000000000000e+00 0.0000000000000000e+00 0.0000000000000000e+00  0.0000000000000000e+00 0.0000000000000000e+00 0.0000000000000000e+00  0.0000000000000000e+00 0.0000000000000000e+00 0.0000000000000000e+00  0.0000000000000000e+00 0.0000000000000000e+00 0.0000000000000000e+00  0.0000000000000000e+00 0.0000000000000000e+00 0.0000000000000000e+00  0.0000000000000000e+00 0.0000000000000000e+00 0.0000000000000000e+00  0.0000000000000000e+00 0.0000000000000000e+00 0.0000000000000000e+00  0.0000000000000000e+00 0.0000000000000000e+00 0.0000000000000000e+00  0.0000000000000000e+00 0.0000000000000000e+00 0.0000000000000000e+00  0.0000000000000000e+00 0.0000000000000000e+00 0.0000000000000000e+00  0.0000000000000000e+00 0.0000000000000000e+00 0.0000000000000000e+00  0.0000000000000000e+00 0.0000000000000000e+00 0.0000000000000000e+00  0.0000000000000000e+00 0.0000000000000000e+00 0.0000000000000000e+00  0.0000000000000000e+00 0.0000000000000000e+00 0.0000000000000000e+00  0.0000000000000000e+00 0.0000000000000000e+00 0.0000000000000000e+00  0.0000000000000000e+00 0.0000000000000000e+00 0.0000000000000000e+00  0.0000000000000000e+00 0.0000000000000000e+00 0.0000000000000000e+00  0.0000000000000000e+00 0.0000000000000000e+00 0.0000000000000000e+00  0.0000000000000000e+00 0.0000000000000000e+00 0.0000000000000000e+00  0.0000000000000000e+00 0.0000000000000000e+00 0.0000000000000000e+00  0.0000000000000000e+00 0.0000000000000000e+00 0.0000000000000000e+00  0.0000000000000000e+00 0.0000000000000000e+00 0.0000000000000000e+00  0.0000000000000000e+00 0.0000000000000000e+00 0.0000000000000000e+00  0.0000000000000000e+00 0.0000000000000000e+00 0.0000000000000000e+00  0.0000000000000000e+00 0.0000000000000000e+00 0.0000000000000000e+00  0.0000000000000000e+00 0.0000000000000000e+00 0.0000000000000000e+00  0.0000000000000000e+00 0.0000000000000000e+00 0.0000000000000000e+00  0.0000000000000000e+00 0.0000000000000000e+00 0.0000000000000000e+00  0.0000000000000000e+00 0.0000000000000000e+00 0.0000000000000000e+00  0.0000000000000000e+00 0.0000000000000000e+00 0.0000000000000000e+00  0.0000000000000000e+00 0.0000000000000000e+00 0.0000000000000000e+00  0.0000000000000000e+00 0.0000000000000000e+00 0.0000000000000000e+00  0.0000000000000000e+00 0.0000000000000000e+00 0.0000000000000000e+00  0.0000000000000000e+00 0.0000000000000000e+00 0.0000000000000000e+00  0.0000000000000000e+00 0.0000000000000000e+00 0.0000000000000000e+00  0.0000000000000000e+00 0.0000000000000000e+00 0.0000000000000000e+00  0.0000000000000000e+00 0.0000000000000000e+00 0.0000000000000000e+00  0.0000000000000000e+00 0.0000000000000000e+00 0.0000000000000000e+00  0.0000000000000000e+00 0.0000000000000000e+00 0.0000000000000000e+00  0.0000000000000000e+00 0.0000000000000000e+00 0.0000000000000000e+00  0.0000000000000000e+00 0.0000000000000000e+00 0.0000000000000000e+00  0.0000000000000000e+00 0.0000000000000000e+00 0.0000000000000000e+00  0.0000000000000000e+00 0.0000000000000000e+00 0.0000000000000000e+00  0.0000000000000000e+00 0.0000000000000000e+00 0.0000000000000000e+00  0.0000000000000000e+00 0.0000000000000000e+00 0.0000000000000000e+00  0.0000000000000000e+00 0.0000000000000000e+00 0.0000000000000000e+00  0.0000000000000000e+00 0.0000000000000000e+00 0.0000000000000000e+00  0.0000000000000000e+00 0.0000000000000000e+00 0.0000000000000000e+00  0.0000000000000000e+00 0.0000000000000000e+00 0.0000000000000000e+00  0.0000000000000000e+00 0.0000000000000000e+00 0.0000000000000000e+00  0.0000000000000000e+00 0.0000000000000000e+00 0.0000000000000000e+00  0.0000000000000000e+00 0.0000000000000000e+00 0.0000000000000000e+00  0.0000000000000000e+00 0.0000000000000000e+00 0.0000000000000000e+00  0.0000000000000000e+00 0.0000000000000000e+00 0.0000000000000000e+00  0.0000000000000000e+00 0.0000000000000000e+00 0.0000000000000000e+00  0.0000000000000000e+00 0.0000000000000000e+00 0.0000000000000000e+00  0.0000000000000000e+00 0.0000000000000000e+00 0.0000000000000000e+00  0.0000000000000000e+00 0.0000000000000000e+00 0.0000000000000000e+00  0.0000000000000000e+00 0.0000000000000000e+00 0.0000000000000000e+00  -6.7738431992907356e-11 -2.9726663374853486e-12 0.0000000000000000e+00  -1.5806525658696747e-10 8.4958914335218669e-11 0.0000000000000000e+00  -2.2327265687342353e-10 2.2002754544592326e-10 0.0000000000000000e+00  -3.0087821780961734e-10 4.2608598434450742e-10 0.0000000000000000e+00  -3.5233080349951467e-10 6.7338504330661647e-10 0.0000000000000000e+00  -4.2434509263951316e-10 9.5824426926350257e-10 0.0000000000000000e+00  -4.6197522586552924e-10 1.3297369892198353e-09 0.0000000000000000e+00  -5.1028518596454818e-10 1.6711084994490073e-09 0.0000000000000000e+00  -5.6417582328789632e-10 2.0900687492818588e-09 0.0000000000000000e+00  -5.9384129808011875e-10 2.5269550601277978e-09 0.0000000000000000e+00  -6.4269128727419983e-10 2.9964824646325648e-09 0.0000000000000000e+00  -6.6672641517354579e-10 3.4911310864557306e-09 0.0000000000000000e+00  -7.0883296645268725e-10 4.0136201921682168e-09 0.0000000000000000e+00  -7.2465058059426524e-10 4.5443470415805676e-09 0.0000000000000000e+00  -7.5368374434884007e-10 5.1156293312467752e-09 0.0000000000000000e+00  -7.7972554163369281e-10 5.6822241949427546e-09 0.0000000000000000e+00  -7.9519511988920338e-10 6.2791753403323282e-09 0.0000000000000000e+00  -8.1891521359631067e-10 6.8809940691004237e-09 0.0000000000000000e+00  -8.3097090968753852e-10 7.5008409733032414e-09 0.0000000000000000e+00  -8.4994305361565444e-10 8.1309177250920329e-09 0.0000000000000000e+00  -8.6016555755446886e-10 8.7695753335908621e-09 0.0000000000000000e+00  -8.7625782705859670e-10 9.4408693995801410e-09 0.0000000000000000e+00  -8.7913150262423712e-10 1.0013065091203726e-08 0.0000000000000000e+00  -8.9266556466300866e-10 1.0754595727397722e-08 0.0000000000000000e+00  -9.0073063055149451e-10 1.1397197301947368e-08 0.0000000000000000e+00  -9.0686744178139514e-10 1.2076634933795960e-08 0.0000000000000000e+00  -9.1345252577803322e-10 1.2742730012052624e-08 0.0000000000000000e+00  -9.1825767823467404e-10 1.3424879564083905e-08 0.0000000000000000e+00  -9.2312099677792681e-10 1.4103827805934842e-08 0.0000000000000000e+00  -9.2697542403175162e-10 1.4784371109866840e-08 0.0000000000000000e+00  -9.3064282453124117e-10 1.5471323055622338e-08 0.0000000000000000e+00  -9.3370270392521853e-10 1.6156970137431345e-08 0.0000000000000000e+00  -9.3665015154295562e-10 1.6840247114189660e-08 0.0000000000000000e+00  -9.3915701772781536e-10 1.7537986706862140e-08 0.0000000000000000e+00  -9.4167561142353388e-10 1.8224078296349260e-08 0.0000000000000000e+00  -9.4399117873976785e-10 1.8919710513705839e-08 0.0000000000000000e+00  -9.4631539816090854e-10 1.9612132019861933e-08 0.0000000000000000e+00  -9.4859592183106565e-10 2.0309259298015192e-08 0.0000000000000000e+00  -9.5118316396151626e-10 2.1015840382778645e-08 0.0000000000000000e+00  -9.5355945764260023e-10 2.1717860954432491e-08 0.0000000000000000e+00  -9.5815859667189722e-10 2.2480344397434262e-08 0.0000000000000000e+00  -9.5535685993270945e-10 2.2895996767205724e-08 0.0000000000000000e+00  -9.6601266428823594e-10 2.3951527124013988e-08 0.0000000000000000e+00  -9.7089262590441359e-10 2.4671004414868275e-08 0.0000000000000000e+00  -9.7740659454310148e-10 2.5316209702149189e-08 0.0000000000000000e+00  -9.3652543536389588e-10 2.6378917215718656e-08 0.0000000000000000e+00  -4.9607121694160141e-10 2.6789482657505392e-08 0.0000000000000000e+00  4.3117678151958272e-10 2.7075223956848199e-08 0.0000000000000000e+00  8.7493499166758918e-10 2.6280201807159079e-08 0.0000000000000000e+00  9.0882539398631623e-10 2.5387058101362186e-08 0.0000000000000000e+00  8.9225239556077512e-10 2.4585851855838634e-08 0.0000000000000000e+00  8.9841973050932790e-10 2.3969144865305245e-08 0.0000000000000000e+00  8.7463452702391875e-10 2.2906671991454724e-08 0.0000000000000000e+00  8.9361854813365111e-10 2.2488310255965411e-08 0.0000000000000000e+00  8.8601924925073295e-10 2.1677489487086511e-08 0.0000000000000000e+00  8.8746262453165599e-10 2.0990505796197428e-08 0.0000000000000000e+00  8.8773376122835131e-10 2.0289905074223722e-08 0.0000000000000000e+00  8.8846300912459199e-10 1.9594471334936198e-08 0.0000000000000000e+00  8.8902327961318246e-10 1.8899381759070781e-08 0.0000000000000000e+00  8.8989994490014561e-10 1.8209034184201246e-08 0.0000000000000000e+00  8.9033230356417327e-10 1.7519174108953046e-08 0.0000000000000000e+00  8.9106404507166646e-10 1.6831848986009451e-08 0.0000000000000000e+00  8.9092100988808868e-10 1.6144921017352910e-08 0.0000000000000000e+00  8.9129354720856490e-10 1.5460624118645987e-08 0.0000000000000000e+00  8.9015327668170004e-10 1.4776046765867404e-08 0.0000000000000000e+00  8.8989265138120513e-10 1.4095401433336635e-08 0.0000000000000000e+00  8.8738177845316756e-10 1.3416473649320434e-08 0.0000000000000000e+00  8.8620648049446987e-10 1.2741081886664359e-08 0.0000000000000000e+00  8.8175607800908460e-10 1.2068546807872802e-08 0.0000000000000000e+00  8.7859749757122802e-10 1.1395829135345712e-08 0.0000000000000000e+00  8.7627820439951161e-10 1.0757319203870771e-08 0.0000000000000000e+00  8.5862842677367001e-10 1.0023679365947179e-08 0.0000000000000000e+00  8.6586634940001323e-10 9.4478860386274384e-09 0.0000000000000000e+00  8.5209333253016615e-10 8.7875925881593246e-09 0.0000000000000000e+00  8.4267031569434833e-10 8.1441606100541420e-09 0.0000000000000000e+00  8.2905565547817896e-10 7.5193312382291453e-09 0.0000000000000000e+00  8.1595580650493329e-10 6.8945484391211057e-09 0.0000000000000000e+00  7.9801721640446893e-10 6.2925846989396227e-09 0.0000000000000000e+00  7.8124648596903570e-10 5.6936498701768050e-09 0.0000000000000000e+00  7.5753304318210629e-10 5.1258477605207251e-09 0.0000000000000000e+00  7.2509674824778993e-10 4.5495514317673184e-09 0.0000000000000000e+00  7.1465681770952933e-10 4.0231725243353850e-09 0.0000000000000000e+00  6.7688689125549331e-10 3.4937328032112998e-09 0.0000000000000000e+00  6.4707782180115416e-10 3.0014783918603945e-09 0.0000000000000000e+00  6.0649010780231875e-10 2.5290213901543124e-09 0.0000000000000000e+00  5.7082685047034763e-10 2.0876566832634594e-09 0.0000000000000000e+00  5.1743628359763296e-10 1.6764365393693581e-09 0.0000000000000000e+00  4.6725289344872149e-10 1.3320407466921534e-09 0.0000000000000000e+00  4.2939524428041475e-10 9.6454086669312362e-10 0.0000000000000000e+00  3.5927050359922316e-10 6.7104869262732470e-10 0.0000000000000000e+00  3.0304464797989358e-10 4.2261910830476261e-10 0.0000000000000000e+00  2.2271832354126238e-10 2.2879257151265887e-10 0.0000000000000000e+00  1.5784555445305572e-10 9.2289603388927279e-11 0.0000000000000000e+00  6.5244846492076154e-11 9.8981912959493973e-12 0.0000000000000000e+00  8.5196002526074544e-14 5.3885595428936236e-11 0.0000000000000000e+00  -5.7200283798081764e-11 2.5129902713089380e-08 0.0000000000000000e+00  -6.4532705541825079e-11 2.3876358568027984e-08 0.0000000000000000e+00  -5.1022273720162417e-11 2.1723931366031333e-08 0.0000000000000000e+00  1.9249679667834648e-12 3.4187541560754649e-10 0.0000000000000000e+00  -3.7786566984174932e-11 2.0378747068876480e-08 0.0000000000000000e+00  7.2099306494695080e-12 8.1405685827607273e-10 0.0000000000000000e+00  -3.4397101599475922e-11 1.9019594784708700e-08 0.0000000000000000e+00  9.7380968049117840e-12 1.9087193657836626e-09 0.0000000000000000e+00  1.9429876755360052e-12 2.7622126434381831e-09 0.0000000000000000e+00  -3.0997010759055945e-11 1.7663305495647724e-08 0.0000000000000000e+00  8.1866047988769321e-12 5.3929267075793274e-09 0.0000000000000000e+00  -2.4199740423795007e-11 1.4960287926454090e-08 0.0000000000000000e+00  9.5840830890046830e-12 3.6988957511725806e-09 0.0000000000000000e+00  -4.1777839174464628e-12 6.5373223474005190e-09 0.0000000000000000e+00  -2.0840219228581995e-11 1.3616748214732730e-08 0.0000000000000000e+00  -2.7591433965188278e-11 1.6309737750294576e-08 0.0000000000000000e+00  -6.7841383311129763e-12 7.7573474512214069e-09 0.0000000000000000e+00  -1.7523529578724869e-11 1.2282351624931028e-08 0.0000000000000000e+00  1.6168678587134854e-12 8.9678753686387983e-09 0.0000000000000000e+00  -2.5375266349288269e-11 1.0990409279288720e-08 0.0000000000000000e+00  -1.3381632887520160e-11 9.8941981395123212e-09 0.0000000000000000e+00  -2.8529279119382891e-12 4.4858797626784001e-09 0.0000000000000000e+00  -4.5461206667537406e-11 2.2678649928281170e-08 0.0000000000000000e+00  2.6972905022531305e-12 1.3192800761473118e-09 0.0000000000000000e+00  2.3892713852845406e-10 2.4216045238539755e-08 0.0000000000000000e+00  6.8272034738464715e-11 2.0571969663432647e-10 0.0000000000000000e+00  2.1726566104880302e-10 1.9527390272988183e-08 0.0000000000000000e+00  2.1352527904657645e-10 2.0865329247139959e-08 0.0000000000000000e+00  -1.0792791390720801e-10 6.0477721517642145e-10 0.0000000000000000e+00  -1.6121189607915525e-10 2.3334446483765939e-09 0.0000000000000000e+00  2.2728062702082714e-10 1.5517568455120039e-08 0.0000000000000000e+00  2.2094153808328164e-10 1.8190874869102421e-08 0.0000000000000000e+00  -2.2616449988075267e-10 5.9269233898968229e-09 0.0000000000000000e+00  2.2971920542262380e-10 1.4185377136196668e-08 0.0000000000000000e+00  -1.8254369254968376e-10 3.2500138858840156e-09 0.0000000000000000e+00  -2.3871856705753500e-10 7.1109557847985627e-09 0.0000000000000000e+00  2.3142236372318081e-10 1.2859469689694804e-08 0.0000000000000000e+00  2.2430717650338358e-10 1.6853496756223903e-08 0.0000000000000000e+00  -3.0300569691917387e-10 8.3338723120539201e-09 0.0000000000000000e+00  2.3238252803914282e-10 1.1544815302701526e-08 0.0000000000000000e+00  -1.2806771064030761e-11 2.1263774822928239e-11 0.0000000000000000e+00  1.2894917671504050e-11 1.8548549686424686e-11 0.0000000000000000e+00  -3.0695742640741493e-10 2.5506592909310751e-08 0.0000000000000000e+00  -7.2163136648699904e-11 2.0752504862112262e-10 0.0000000000000000e+00  2.9041358390758519e-10 1.0390538543855166e-08 0.0000000000000000e+00  2