<?xml version="1.0"?>
<VTKFile type="UnstructuredGrid"  version="0.1"  >
<UnstructuredGrid>
<Piece  NumberOfPoints="1419" NumberOfCells="2698">
<Points>
<DataArray  type="Float64"  NumberOfComponents="3"  format="ascii">0 0 0  0 0.41 0  2.5 0 0  2.5 0.41 0  0.6 0.19 0  0.6 0.21 0  0.25 0.2 0  0.15 0.2 0  0.2489897948556636 0.21 0  0.2489897948556636 0.19 0  0.6 0.2 0  0 0.3807142857143437 0  0 0.3514285714286952 0  0 0.3221428571430699 0  0 0.29285714285744 0  0 0.2635714285718054 0  0 0.2342857142861561 0  0 0.2050000000005308 0  0 0.175714285714732 0  0 0.1464285714289574 0  0 0.1171428571431897 0  0 0.08785714285737878 0  0 0.05857142857161107 0  0 0.02928571428580012 0  0.03015443760436003 0 0  0.06140001986583606 0 0  0.09377624077125973 0 0  0.1273239957535082 0 0  0.1620856860351972 0 0  0.1981052433264291 0 0  0.235428184091502 0 0  0.2741016576309132 0 0  0.3141745521465447 0 0  0.3556974926295285 0 0  0.3987229542472677 0 0  0.4433053055141081 0 0  0.4895008759286886 0 0  0.5373680609405097 0 0  0.5869673343216626 0 0  0.6383613676634521 0 0  0.6916151138468254 0 0  0.7467958595648856 0 0  0.8039733463919316 0 0  0.8632198139502143 0 0  0.9246101326867038 0 0  0.9882218810934433 0 0  1.054135445558498 0 0  1.122434100542598 0 0  1.193204177141305 0 0  1.266535089879536 0 0  1.342519516046404 0 0  1.421253448503939 0 0  1.502836389106271 0 0  1.587371439758838 0 0  1.674965418777374 0 0  1.765729001825544 0 0  1.859776908880082 0 0  1.957227977487062 0 0  2.058205329869943 0 0  2.162836591189951 0 0  2.271253957290865 0 0  2.383594446803425 0 0  2.5 0.1024999999997612 0  2.5 0.2049999999994743 0  2.5 0.3074999999997183 0  2.383594446803656 0.41 0  2.271253957291315 0.41 0  2.162836591190598 0.41 0  2.058205329870775 0.41 0  1.957227977488067 0.41 0  1.859776908881246 0.41 0  1.765729001826854 0.41 0  1.674965418778818 0.41 0  1.58737143976041 0.41 0  1.502836389107956 0.41 0  1.421253448505726 0.41 0  1.342519516048286 0.41 0  1.266535089881505 0.41 0  1.193204177143353 0.41 0  1.122434100544716 0.41 0  1.05413544556068 0.41 0  0.9882218810956305 0.41 0  0.9246101326886647 0.41 0  0.8632198139519631 0.41 0  0.8039733463934788 0.41 0  0.7467958595662458 0.41 0  0.6916151138480078 0.41 0  0.6383613676644679 0.41 0  0.5869673343225223 0.41 0  0.5373680609412221 0.41 0  0.4895008759292634 0.41 0  0.4433053055145528 0.41 0  0.3987229542475914 0.41 0  0.3556974926297398 0.41 0  0.3141745521466497 0.41 0  0.2741016576310038 0.41 0  0.2354281840915826 0.41 0  0.1981052433265003 0.41 0  0.1620856860352591 0.41 0  0.1273239957535623 0.41 0  0.09377624077128965 0.41 0  0.06140001986584975 0.41 0  0.03015443760436654 0.41 0  0.2497468076502589 0.2050254481002335 0  0.2497468076502614 0.1949745518997913 0  0.2469965252529372 0.1829317073451959 0  0.2439893735792749 0.1762316384219906 0  0.2400332147834255 0.1700443375285386 0  0.2352133972704371 0.1645032867342007 0  0.2296339016332438 0.1597280261969788 0  0.2234150974217223 0.1558215752574715 0  0.2166911463437691 0.1528682099456123 0  0.2096071079204251 0.1509316448471593 0  0.2023158100364996 0.1500536585536553 0  0.194974551899914 0.1502531923497262 0  0.1877417105387872 0.1515259415822739 0  0.1807733240461124 0.153844448527136 0  0.1742197252835808 0.15715869474974 0  0.1682222986673531 0.1613971801805478 0  0.162910430003803 0.1664684656256651 0  0.1583987151779087 0.1722631454351573 0  0.1547844879126891 0.178656207771761 0  0.1521457199348551 0.1855097315605723 0  0.1505393388476355 0.1926758619366523 0  0.1505393388476328 0.2073241380633295 0  0.1521457199348437 0.2144902684393899 0  0.1547844879126531 0.221343792228163 0  0.1583987151778488 0.2277368545647528 0  0.1629104300036858 0.2335315343742052 0  0.1682222986671726 0.2386028198193036 0  0.1742197252833576 0.2428413052501257 0  0.1807733240458683 0.2461555514727623 0  0.1877417105384929 0.2484740584176516 0  0.1949745518995776 0.2497468076502398 0  0.202315810036185 0.2499463414463592 0  0.2096071079201568 0.2490683551528932 0  0.2166911463435495 0.2471317900544655 0  0.2234150974215506 0.2441784247426195 0  0.2296339016331197 0.2402719738031125 0  0.2352133972703547 0.2354967132658811 0  0.2400332147833751 0.2299556624715287 0  0.2439893735792577 0.2237683615780412 0  0.246996525252926 0.2170682926548348 0  0.25645809709277 0.21 0  0.2639263993298655 0.21 0  0.271394701566961 0.21 0  0.2788630038040554 0.21 0  0.2863313060411479 0.21 0  0.2937996082782405 0.21 0  0.301267910515333 0.21 0  0.3087362127524279 0.21 0  0.3162045149895234 0.21 0  0.3236728172265972 0.21 0  0.3311411194636928 0.21 0  0.3386094217007701 0.21 0  0.3460777239378666 0.21 0  0.3535460261749672 0.21 0  0.3610143284120516 0.21 0  0.3684826306491596 0.21 0  0.3759509328862226 0.21 0  0.383419235123329 0.21 0  0.3908875373604028 0.21 0  0.3983558395975142 0.21 0  0.4058241418345938 0.21 0  0.4132924440716992 0.21 0  0.4207607463087888 0.21 0  0.4282290485459029 0.21 0  0.4356973507830418 0.21 0  0.4431656530201649 0.21 0  0.4506339552573136 0.21 0  0.4581022574944306 0.21 0  0.4655705597315852 0.21 0  0.4730388619686996 0.21 0  0.480507164205851 0.21 0  0.4879754664429498 0.21 0  0.4954437686800938 0.21 0  0.502912070917267 0.21 0  0.5103803731544119 0.21 0  0.5178486753915261 0.21 0  0.5253169776286404 0.21 0  0.5327852798657868 0.21 0  0.5402535821029386 0.21 0  0.54772188434007 0.21 0  0.5551901865771842 0.21 0  0.5626584888143201 0.21 0  0.5701267910514778 0.21 0  0.5775950932886138 0.21 0  0.5850633955257281 0.21 0  0.5925316977628483 0.21 0  0.6 0.2050000000000054 0  0.6 0.1950000000000217 0  0.5925316977628897 0.19 0  0.5850633955257988 0.19 0  0.5775950932887378 0.19 0  0.5701267910515998 0.19 0  0.5626584888145268 0.19 0  0.5551901865773963 0.19 0  0.547721884340339 0.19 0  0.5402535821032429 0.19 0  0.5327852798661811 0.19 0  0.5253169776290537 0.19 0  0.5178486753919799 0.19 0  0.5103803731549078 0.19 0  0.502912070917822 0.19 0  0.4954437686807294 0.19 0  0.4879754664436223 0.19 0  0.4805071642065402 0.19 0  0.4730388619694271 0.19 0  0.4655705597323621 0.19 0  0.4581022574952563 0.19 0  0.4506339552581777 0.19 0  0.4431656530210671 0.19 0  0.4356973507839815 0.19 0  0.4282290485468779 0.19 0  0.4207607463097617 0.19 0  0.4132924440726327 0.19 0  0.4058241418354857 0.19 0  0.3983558395983636 0.19 0  0.3908875373612097 0.19 0  0.3834192351240934 0.19 0  0.3759509328869369 0.19 0  0.3684826306498175 0.19 0  0.361014328412667 0.19 0  0.3535460261755617 0.19 0  0.3460777239384295 0.19 0  0.3386094217012945 0.19 0  0.3311411194641595 0.19 0  0.3236728172270245 0.19 0  0.3162045149898895 0.19 0  0.3087362127527544 0.19 0  0.3012679105156187 0.19 0  0.2937996082784807 0.19 0  0.2863313060413428 0.19 0  0.2788630038042048 0.19 0  0.2713947015670686 0.19 0  0.2639263993299336 0.19 0  0.2564580970927985 0.19 0  0.2607803159922026 0.2000727136295815 0  0.5887803774232762 0.2001272386983733 0  0.5745072403740523 0.2002044435018727 0  0.5511891430099709 0.2001122610077113 0  0.2751288526855082 0.20000000000002 0  0.5365194309847112 0.1999999999999436 0  0.2894621222999649 0.1998691686390484 0  0.5215828265105155 0.1999999999999228 0  0.3127789816668748 0.1998657885438805 0  0.3274069683451451 0.2000000000000796 0  0.5066462220363641 0.199999999999908 0  0.3650630746574081 0.199866017807523 0  0.476773013087985 0.1999999999998713 0  0.3417402379596385 0.1998691686391011 0  0.3796850840047755 0.200000000000134 0  0.4618364086138087 0.1999999999998546 0  0.4917096175621762 0.1999999999998808 0  0.3946216884789568 0.2000000000001512 0  0.446899804139621 0.1999999999998389 0  0.4089549580935208 0.1998691686391595 0  0.4322718174608562 0.200127451265745 0  0.4201487168029707 0.1999966199048527 0  0.3528922713220932 0.2000185703532356 0  0.5633122436674589 0.1999814296467508 0  0.3006558810093873 0.1999966199048318 0  0.5815926498168407 0.1966545283159175 0  0.2677053789419034 0.1964246479135325 0  0.5290511287476175 0.1970915826863981 0  0.5439877332217911 0.197091582686394 0  0.2825131256993216 0.2035478995978015 0  0.3199386661080599 0.202908417313604 0  0.4842413153250809 0.1970915826863873 0  0.5141145242734466 0.1970915826863843 0  0.3722167817676917 0.2029084173136195 0  0.4693047108508938 0.1970915826863783 0  0.3348752705822316 0.202908417313609 0  0.3871533862418661 0.2029084173136212 0  0.4543681063767183 0.1970915826863795 0  0.4991779197992749 0.1970915826863902 0  0.4020059614928624 0.203547899597858 0  0.4394315019025246 0.1970915826863714 0  0.2550657455369551 0.2034088125358657 0  0.2548908499171161 0.1966940311614271 0  0.5946539510196798 0.2024302972968126 0  0.267698176732111 0.2039977513680092 0  0.4261685417851465 0.196409292431739 0  0.3590076176283495 0.196411355804271 0  0.5571672426447437 0.2036011176410121 0  0.3066757059912147 0.1964092924317024 0  0.594380730180568 0.1966558399668133 0  0.4842413153245942 0.2040749161535287 0  0.4693047108503577 0.2040749161535231 0  0.3871533862424271 0.1959250838464788 0  0.372246743208829 0.1959123236376545 0  0.5141145242731028 0.2040749161535395 0  0.4543681063761134 0.2040749161535186 0  0.4019979587101454 0.1959834479682427 0  0.4394608940728603 0.2040870543693135 0  0.5439623148931173 0.2040856076781014 0  0.5290511287473298 0.2040749161535501 0  0.4991779197988497 0.2040749161535382 0  0.3347912413592433 0.1959225448935183 0  0.3199680582793816 0.1959123018030061 0  0.2825051229162361 0.1959834479681729 0  0.3590471196690275 0.2036304442587945 0  0.5571594006495384 0.1963685282145804 0  0.3067669986803285 0.203627750582736 0  0.4262598344738712 0.2036568242185335 0  0.5814408164431408 0.2041285596160068 0  0.5688286748170428 0.1961819304477386 0  0.4145905603063645 0.2038180695522843 0  0.3473758401724931 0.2038180695522752 0  0.2950977245128307 0.2038180695522663 0  0.5688286748170693 0.203818069552238 0  0.2950977245127906 0.1961819304477774 0  0.3473758401723931 0.1961819304478349 0  0.4145905603061963 0.1961819304479011 0  0.2601812407614425 0.2056861609747042
[...]
<PointData  Vectors="f_40-0"> 
<DataArray  type="Float64"  Name="f_40-0"  NumberOfComponents="3" format="ascii">0.0000000000000000e+00 0.0000000000000000e+00 0.0000000000000000e+00  0.0000000000000000e+00 0.0000000000000000e+00 0.0000000000000000e+00  0.0000000000000000e+00 0.0000000000000000e+00 0.0000000000000000e+00  0.0000000000000000e+00 0.0000000000000000e+00 0.0000000000000000e+00  1.4060793644695071e-09 9.5071022127063378e-09 0.0000000000000000e+00  -8.8120160027017902e-10 7.9036830569915074e-09 0.0000000000000000e+00  0.0000000000000000e+00 0.0000000000000000e+00 0.0000000000000000e+00  0.0000000000000000e+00 0.0000000000000000e+00 0.0000000000000000e+00  0.0000000000000000e+00 0.0000000000000000e+00 0.0000000000000000e+00  0.0000000000000000e+00 0.0000000000000000e+00 0.0000000000000000e+00  1.6619714315523598e-11 1.4114532748300007e-09 0.0000000000000000e+00  7.9591836734548407e-02 0.0000000000000000e+00 0.0000000000000000e+00  1.4693877550994527e-01 0.0000000000000000e+00 0.0000000000000000e+00  2.0204081632617479e-01 0.0000000000000000e+00 0.0000000000000000e+00  2.4489795918330076e-01 0.0000000000000000e+00 0.0000000000000000e+00  2.7551020408131754e-01 0.0000000000000000e+00 0.0000000000000000e+00  2.9387755102022350e-01 0.0000000000000000e+00 0.0000000000000000e+00  3.0000000000000004e-01 0.0000000000000000e+00 0.0000000000000000e+00  2.9387755102059482e-01 0.0000000000000000e+00 0.0000000000000000e+00  2.7551020408195548e-01 0.0000000000000000e+00 0.0000000000000000e+00  2.4489795918409071e-01 0.0000000000000000e+00 0.0000000000000000e+00  2.0204081632692525e-01 0.0000000000000000e+00 0.0000000000000000e+00  1.4693877551058568e-01 0.0000000000000000e+00 0.0000000000000000e+00  7.9591836734909230e-02 0.0000000000000000e+00 0.0000000000000000e+00  0.0000000000000000e+00 0.0000000000000000e+00 0.0000000000000000e+00  0.0000000000000000e+00 0.0000000000000000e+00 0.0000000000000000e+00  0.0000000000000000e+00 0.0000000000000000e+00 0.0000000000000000e+00  0.0000000000000000e+00 0.0000000000000000e+00 0.0000000000000000e+00  0.0000000000000000e+00 0.0000000000000000e+00 0.0000000000000000e+00  0.0000000000000000e+00 0.0000000000000000e+00 0.0000000000000000e+00  0.0000000000000000e+00 0.0000000000000000e+00 0.0000000000000000e+00  0.0000000000000000e+00 0.0000000000000000e+00 0.0000000000000000e+00  0.0000000000000000e+00 0.0000000000000000e+00 0.0000000000000000e+00  0.0000000000000000e+00 0.0000000000000000e+00 0.0000000000000000e+00  0.0000000000000000e+00 0.0000000000000000e+00 0.0000000000000000e+00  0.0000000000000000e+00 0.0000000000000000e+00 0.0000000000000000e+00  0.0000000000000000e+00 0.0000000000000000e+00 0.0000000000000000e+00  0.0000000000000000e+00 0.0000000000000000e+00 0.0000000000000000e+00  0.0000000000000000e+00 0.0000000000000000e+00 0.0000000000000000e+00  0.0000000000000000e+00 0.0000000000000000e+00 0.0000000000000000e+00  0.0000000000000000e+00 0.0000000000000000e+00 0.0000000000000000e+00  0.0000000000000000e+00 0.0000000000000000e+00 0.0000000000000000e+00  0.0000000000000000e+00 0.0000000000000000e+00 0.0000000000000000e+00  0.0000000000000000e+00 0.0000000000000000e+00 0.0000000000000000e+00  0.0000000000000000e+00 0.0000000000000000e+00 0.0000000000000000e+00  0.0000000000000000e+00 0.0000000000000000e+00 0.0000000000000000e+00  0.0000000000000000e+00 0.0000000000000000e+00 0.0000000000000000e+00  0.0000000000000000e+00 0.0000000000000000e+00 0.0000000000000000e+00  0.0000000000000000e+00 0.0000000000000000e+00 0.0000000000000000e+00  0.0000000000000000e+00 0.0000000000000000e+00 0.0000000000000000e+00  0.0000000000000000e+00 0.0000000000000000e+00 0.0000000000000000e+00  0.0000000000000000e+00 0.0000000000000000e+00 0.0000000000000000e+00  0.0000000000000000e+00 0.0000000000000000e+00 0.0000000000000000e+00  0.0000000000000000e+00 0.0000000000000000e+00 0.0000000000000000e+00  0.0000000000000000e+00 0.0000000000000000e+00 0.0000000000000000e+00  0.0000000000000000e+00 0.0000000000000000e+00 0.0000000000000000e+00  0.0000000000000000e+00 0.0000000000000000e+00 0.0000000000000000e+00  0.0000000000000000e+00 0.0000000000000000e+00 0.0000000000000000e+00  0.0000000000000000e+00 0.0000000000000000e+00 0.0000000000000000e+00  0.0000000000000000e+00 0.0000000000000000e+00 0.0000000000000000e+00  0.0000000000000000e+00 0.0000000000000000e+00 0.0000000000000000e+00  0.0000000000000000e+00 0.0000000000000000e+00 0.0000000000000000e+00  2.3603717920018172e-01 -7.9634688099251647e-03 0.0000000000000000e+00  3.1685313055015574e-01 -1.8523945618186333e-04 0.0000000000000000e+00  2.3642872040684790e-01 1.1864511847262081e-02 0.0000000000000000e+00  0.0000000000000000e+00 0.0000000000000000e+00 0.0000000000000000e+00  0.0000000000000000e+00 0.0000000000000000e+00 0.0000000000000000e+00  0.0000000000000000e+00 0.0000000000000000e+00 0.0000000000000000e+00  0.0000000000000000e+00 0.0000000000000000e+00 0.0000000000000000e+00  0.0000000000000000e+00 0.0000000000000000e+00 0.0000000000000000e+00  0.0000000000000000e+00 0.0000000000000000e+00 0.0000000000000000e+00  0.0000000000000000e+00 0.0000000000000000e+00 0.0000000000000000e+00  0.0000000000000000e+00 0.0000000000000000e+00 0.0000000000000000e+00  0.0000000000000000e+00 0.0000000000000000e+00 0.0000000000000000e+00  0.0000000000000000e+00 0.0000000000000000e+00 0.0000000000000000e+00  0.0000000000000000e+00 0.0000000000000000e+00 0.0000000000000000e+00  0.0000000000000000e+00 0.0000000000000000e+00 0.0000000000000000e+00  0.0000000000000000e+00 0.0000000000000000e+00 0.0000000000000000e+00  0.0000000000000000e+00 0.0000000000000000e+00 0.0000000000000000e+00  0.0000000000000000e+00 0.0000000000000000e+00 0.0000000000000000e+00  0.0000000000000000e+00 0.0000000000000000e+00 0.0000000000000000e+00  0.0000000000000000e+00 0.0000000000000000e+00 0.0000000000000000e+00  0.0000000000000000e+00 0.0000000000000000e+00 0.0000000000000000e+00  0.0000000000000000e+00 0.0000000000000000e+00 0.0000000000000000e+00  0.0000000000000000e+00 0.0000000000000000e+00 0.0000000000000000e+00  0.0000000000000000e+00 0.0000000000000000e+00 0.0000000000000000e+00  0.0000000000000000e+00 0.0000000000000000e+00 0.0000000000000000e+00  0.0000000000000000e+00 0.0000000000000000e+00 0.0000000000000000e+00  0.0000000000000000e+00 0.0000000000000000e+00 0.0000000000000000e+00  0.0000000000000000e+00 0.0000000000000000e+00 0.0000000000000000e+00  0.0000000000000000e+00 0.0000000000000000e+00 0.0000000000000000e+00  0.0000000000000000e+00 0.0000000000000000e+00 0.0000000000000000e+00  0.0000000000000000e+00 0.0000000000000000e+00 0.0000000000000000e+00  0.0000000000000000e+00 0.0000000000000000e+00 0.0000000000000000e+00  0.0000000000000000e+00 0.0000000000000000e+00 0.0000000000000000e+00  0.0000000000000000e+00 0.0000000000000000e+00 0.0000000000000000e+00  0.0000000000000000e+00 0.0000000000000000e+00 0.0000000000000000e+00  0.0000000000000000e+00 0.0000000000000000e+00 0.0000000000000000e+00  0.0000000000000000e+00 0.0000000000000000e+00 0.0000000000000000e+00  0.0000000000000000e+00 0.0000000000000000e+00 0.0000000000000000e+00  0.0000000000000000e+00 0.0000000000000000e+00 0.0000000000000000e+00  0.0000000000000000e+00 0.0000000000000000e+00 0.0000000000000000e+00  0.0000000000000000e+00 0.0000000000000000e+00 0.0000000000000000e+00  0.0000000000000000e+00 0.0000000000000000e+00 0.0000000000000000e+00  0.0000000000000000e+00 0.0000000000000000e+00 0.0000000000000000e+00  0.0000000000000000e+00 0.0000000000000000e+00 0.0000000000000000e+00  0.0000000000000000e+00 0.0000000000000000e+00 0.0000000000000000e+00  0.0000000000000000e+00 0.0000000000000000e+00 0.0000000000000000e+00  0.0000000000000000e+00 0.0000000000000000e+00 0.0000000000000000e+00  0.0000000000000000e+00 0.0000000000000000e+00 0.0000000000000000e+00  0.0000000000000000e+00 0.0000000000000000e+00 0.0000000000000000e+00  0.0000000000000000e+00 0.0000000000000000e+00 0.0000000000000000e+00  0.0000000000000000e+00 0.0000000000000000e+00 0.0000000000000000e+00  0.0000000000000000e+00 0.0000000000000000e+00 0.0000000000000000e+00  0.0000000000000000e+00 0.0000000000000000e+00 0.0000000000000000e+00  0.0000000000000000e+00 0.0000000000000000e+00 0.0000000000000000e+00  0.0000000000000000e+00 0.0000000000000000e+00 0.0000000000000000e+00  0.0000000000000000e+00 0.0000000000000000e+00 0.0000000000000000e+00  0.0000000000000000e+00 0.0000000000000000e+00 0.0000000000000000e+00  0.0000000000000000e+00 0.0000000000000000e+00 0.0000000000000000e+00  0.0000000000000000e+00 0.0000000000000000e+00 0.0000000000000000e+00  0.0000000000000000e+00 0.0000000000000000e+00 0.0000000000000000e+00  0.0000000000000000e+00 0.0000000000000000e+00 0.0000000000000000e+00  0.0000000000000000e+00 0.0000000000000000e+00 0.0000000000000000e+00  0.0000000000000000e+00 0.0000000000000000e+00 0.0000000000000000e+00  0.0000000000000000e+00 0.0000000000000000e+00 0.0000000000000000e+00  0.0000000000000000e+00 0.0000000000000000e+00 0.0000000000000000e+00  0.0000000000000000e+00 0.0000000000000000e+00 0.0000000000000000e+00  0.0000000000000000e+00 0.0000000000000000e+00 0.0000000000000000e+00  0.0000000000000000e+00 0.0000000000000000e+00 0.0000000000000000e+00  0.0000000000000000e+00 0.0000000000000000e+00 0.0000000000000000e+00  0.0000000000000000e+00 0.0000000000000000e+00 0.0000000000000000e+00  0.0000000000000000e+00 0.0000000000000000e+00 0.0000000000000000e+00  0.0000000000000000e+00 0.0000000000000000e+00 0.0000000000000000e+00  0.0000000000000000e+00 0.0000000000000000e+00 0.0000000000000000e+00  0.0000000000000000e+00 0.0000000000000000e+00 0.0000000000000000e+00  0.0000000000000000e+00 0.0000000000000000e+00 0.0000000000000000e+00  0.0000000000000000e+00 0.0000000000000000e+00 0.0000000000000000e+00  0.0000000000000000e+00 0.0000000000000000e+00 0.0000000000000000e+00  0.0000000000000000e+00 0.0000000000000000e+00 0.0000000000000000e+00  0.0000000000000000e+00 0.0000000000000000e+00 0.0000000000000000e+00  0.0000000000000000e+00 0.0000000000000000e+00 0.0000000000000000e+00  0.0000000000000000e+00 0.0000000000000000e+00 0.0000000000000000e+00  3.7276249874450126e-12 -6.4875129786948356e-11 0.0000000000000000e+00  -8.0742109661454301e-12 -6.6979450822326371e-11 0.0000000000000000e+00  -7.0361719885296305e-12 -7.4672085272099894e-11 0.0000000000000000e+00  -1.5195843129986617e-11 -6.6408848403391907e-11 0.0000000000000000e+00  -1.1272881099098138e-11 -5.9992490109255237e-11 0.0000000000000000e+00  -2.2308163248712774e-11 -6.2552115861336328e-11 0.0000000000000000e+00  -1.3147511038768688e-11 -1.1316796983850255e-11 0.0000000000000000e+00  -1.7817531781970199e-11 -3.2152897647579228e-11 0.0000000000000000e+00  -2.2864850495939003e-11 -5.8659600678164362e-12 0.0000000000000000e+00  -1.7506394182822233e-11 7.9748036873292862e-12 0.0000000000000000e+00  -2.4680471334266083e-11 2.5453134120853336e-11 0.0000000000000000e+00  -1.9294571552502163e-11 4.3017825594674678e-11 0.0000000000000000e+00  -2.7760330937096659e-11 6.4923371541995150e-11 0.0000000000000000e+00  -1.8322389637667405e-11 7.7025556546294399e-11 0.0000000000000000e+00  -2.4056302576916091e-11 1.0826359723912114e-10 0.0000000000000000e+00  -2.4635507594258630e-11 1.1954639071590327e-10 0.0000000000000000e+00  -2.1995363691061913e-11 1.4626071658862500e-10 0.0000000000000000e+00  -2.4917739408168745e-11 1.6386466817771487e-10 0.0000000000000000e+00  -2.2421218276028109e-11 1.8802173172230519e-10 0.0000000000000000e+00  -2.5059575096974628e-11 2.1192474800976689e-10 0.0000000000000000e+00  -2.3092211938284576e-11 2.3520911558884614e-10 0.0000000000000000e+00  -2.6571216129522877e-11 2.8268559265782083e-10 0.0000000000000000e+00  -1.9864336199178150e-11 2.2539772456580645e-10 0.0000000000000000e+00  -2.4820832357606451e-11 3.3052968865273946e-10 0.0000000000000000e+00  -2.4068307933754504e-11 3.3245899774802865e-10 0.0000000000000000e+00  -2.3364762745436078e-11 3.6661966237172974e-10 0.0000000000000000e+00  -2.3585087520662190e-11 3.8372556938096123e-10 0.0000000000000000e+00  -2.3096822876844143e-11 4.1426608006916059e-10 0.0000000000000000e+00  -2.3095065784147679e-11 4.3894245773359076e-10 0.0000000000000000e+00  -2.2859950190812828e-11 4.6354180921594231e-10 0.0000000000000000e+00  -2.2783879595915270e-11 4.9282161327135694e-10 0.0000000000000000e+00  -2.2645214751954960e-11 5.1980344674871446e-10 0.0000000000000000e+00  -2.2652899682212325e-11 5.4337789000984857e-10 0.0000000000000000e+00  -2.2577989084178184e-11 5.8088364948883401e-10 0.0000000000000000e+00  -2.2692868351030032e-11 6.0617393024221991e-10 0.0000000000000000e+00  -2.2818082790412253e-11 6.4075530826130602e-10 0.0000000000000000e+00  -2.3054676061273028e-11 6.7185051889581558e-10 0.0000000000000000e+00  -2.3355661893491815e-11 7.0754243332650331e-10 0.0000000000000000e+00  -2.4003805668666732e-11 7.5256088538048990e-10 0.0000000000000000e+00  -2.4481190056956779e-11 7.9295314398268891e-10 0.0000000000000000e+00  -2.7164988430861237e-11 8.9370985568448181e-10 0.0000000000000000e+00  -2.2466736394551614e-11 6.4755600902224842e-10 0.0000000000000000e+00  -3.1217834606026890e-11 1.0411648196910492e-09 0.0000000000000000e+00  -3.4144623646879012e-11 1.0986031417844168e-09 0.0000000000000000e+00  -3.8723437757627922e-11 1.0816015460381127e-09 0.0000000000000000e+00  4.1061143652533771e-12 1.4819410305187634e-09 0.0000000000000000e+00  2.7264609604738989e-12 1.2288144636267457e-09 0.0000000000000000e+00  4.2784837474284303e-11 1.5122895319171573e-09 0.0000000000000000e+00  4.1269628055372952e-11 1.3786519353376959e-09 0.0000000000000000e+00  7.3631229150981336e-11 1.1478788191161708e-09 0.0000000000000000e+00  5.5506514411645128e-11 1.0088841303525983e-09 0.0000000000000000e+00  6.0148113306615222e-11 1.0542345595170637e-09 0.0000000000000000e+00  3.4783703003894315e-11 6.5368956838701496e-10 0.0000000000000000e+00  5.2174113427048252e-11 8.9714282691850402e-10 0.0000000000000000e+00  4.3000132147425420e-11 7.4804384632923850e-10 0.0000000000000000e+00  4.2830520175362482e-11 7.2270306552145321e-10 0.0000000000000000e+00  4.1558503502657042e-11 6.8366613669869596e-10 0.0000000000000000e+00  4.0738772049944127e-11 6.4968019985848681e-10 0.0000000000000000e+00  3.9913461519037794e-11 6.1591519623493938e-10 0.0000000000000000e+00  3.9427873350725394e-11 5.8663913356946023e-10 0.0000000000000000e+00  3.8820716878409512e-11 5.5757606795366427e-10 0.0000000000000000e+00  3.8545099265580185e-11 5.3051802335896035e-10 0.0000000000000000e+00  3.7955778511011551e-11 5.0328811020895273e-10 0.0000000000000000e+00  3.7890326655541759e-11 4.7770473469695661e-10 0.0000000000000000e+00  3.7204543294576158e-11 4.5079679499089391e-10 0.0000000000000000e+00  3.7336495248040346e-11 4.2616719760011399e-10 0.0000000000000000e+00  3.6549868404651192e-11 4.0151652054166375e-10 0.0000000000000000e+00  3.6907238376143860e-11 3.7783670333795387e-10 0.0000000000000000e+00  3.5922168464529124e-11 3.5429891137270293e-10 0.0000000000000000e+00  3.5845481798005855e-11 3.2678382900811153e-10 0.0000000000000000e+00  3.9166920852011080e-11 3.2930882678967196e-10 0.0000000000000000e+00  2.6879090410689526e-11 2.3206559855786080e-10 0.0000000000000000e+00  4.0603003410431467e-11 2.8577680935952126e-10 0.0000000000000000e+00  3.6190191654237296e-11 2.4964528528301845e-10 0.0000000000000000e+00  3.6464355429887240e-11 2.2131514238714288e-10 0.0000000000000000e+00  3.5357228892166071e-11 2.0335083696063935e-10 0.0000000000000000e+00  3.5487898614741632e-11 1.7412448323199443e-10 0.0000000000000000e+00  3.3994402215441852e-11 1.5673531219924395e-10 0.0000000000000000e+00  3.4481613947080126e-11 1.2877911552331189e-10 0.0000000000000000e+00  3.3706769775611868e-11 1.1556410084455890e-10 0.0000000000000000e+00  2.2399331663580168e-11 7.9738163911552331e-11 0.0000000000000000e+00  3.5418700189530651e-11 7.1874751890513905e-11 0.0000000000000000e+00  2.8456912220709600e-11 4.4804649834063762e-11 0.0000000000000000e+00  2.9438257376892735e-11 2.8910056281417104e-11 0.0000000000000000e+00  2.5570908818282391e-11 9.1233511802708253e-12 0.0000000000000000e+00  2.7237070244120308e-11 -7.7599362858291243e-12 0.0000000000000000e+00  2.1441107933603656e-11 -2.7842221697129539e-11 0.0000000000000000e+00  1.4479299930146825e-11 -9.2487219957594434e-12 0.0000000000000000e+00  2.3227315495207918e-11 -5.6331860636145158e-11 0.0000000000000000e+00  1.3084525591973256e-11 -6.0836060235364776e-11 0.0000000000000000e+00  1.4361375495480791e-11 -6.7477018507244490e-11 0.0000000000000000e+00  4.5278806516755366e-12 -6.5899799263409753e-11 0.0000000000000000e+00  5.2855541399285601e-12 -5.8760741783538234e-11 0.0000000000000000e+00  -7.7560847227011763e-12 -5.0280568835325509e-11 0.0000000000000000e+00  -3.2256587697549986e-13 -1.3362168684258009e-11 0.0000000000000000e+00  6.6811881868212736e-12 5.6346211420961729e-10 0.0000000000000000e+00  2.8741262143716183e-12 5.7555884372485885e-10 0.0000000000000000e+00  2.7596830155967848e-12 4.8965248361184935e-10 0.0000000000000000e+00  -8.7604039900594670e-14 -1.2859998135169411e-11 0.0000000000000000e+00  2.6123830533721447e-12 4.4409496462233875e-10 0.0000000000000000e+00  3.0741043718614095e-13 -5.7082000390083371e-12 0.0000000000000000e+00  2.4967207449595757e-12 4.0791480093044452e-10 0.0000000000000000e+00  8.0284672605119821e-13 1.8149683937531735e-11 0.0000000000000000e+00  9.1318946118843664e-13 3.7299471584923007e-11 0.0000000000000000e+00  2.3886119093422870e-12 3.7392982559822676e-10 0.0000000000000000e+00  1.5918625783875248e-12 9.5927155114802540e-11 0.0000000000000000e+00  2.1881846847226009e-12 3.0955315164108369e-10 0.0000000000000000e+00  1.2823788903475392e-12 5.8022751718232520e-11 0.0000000000000000e+00  1.5588583963075219e-12 1.2065671078077439e-10 0.0000000000000000e+00  2.0855120261763648e-12 2.7860962606234865e-10 0.0000000000000000e+00  2.2887254498837212e-12 3.4116814231765457e-10 0.0000000000000000e+00  1.6707527882117171e-12 1.4751970830587354e-10 0.0000000000000000e+00  1.9702168473632789e-12 2.4834982625234847e-10 0.0000000000000000e+00  2.0175444873392839e-12 1.7631948122198480e-10 0.0000000000000000e+00  1.7698601597486309e-12 2.2126241931000057e-10 0.0000000000000000e+00  -3.5902805817867482e-14 1.5945028462341750e-10 0.0000000000000000e+00  1.1615084012704815e-13 7.2804260965995452e-11 0.0000000000000000e+00  -4.4071287658691464e-13 3.7005565624530391e-10 0.0000000000000000e+00  1.5542264448139285e-13 2.3828512967273246e-11 0.0000000000000000e+00  -6.8455097759065272e-12 2.8621502330783930e-10 0.0000000000000000e+00  5.4219952112709794e-13 1.7553904353955177e-11 0.0000000000000000e+00  -1.6518774070564350e-12 2.5359222583670791e-10 0.0000000000000000e+00  -2.0037347152748697e-12 2.6838258672861831e-10 0.0000000000000000e+00  3.6697144588280087e-13 2.5539257750587340e-11 0.0000000000000000e+00  4.7637902762856226e-13 4.5936540827526908e-11 0.0000000000000000e+00  -8.7667949302490760e-13 2.0764378680286307e-10 0.0000000000000000e+00  -1.2815615565297263e-12 2.3977031521175146e-10 0.0000000000000000e+00  -6.7191928564039067e-13 8.8009223311184505e-11 0.0000000000000000e+00  -7.6520576489184960e-13 1.9094983890730098e-10 0.0000000000000000e+00  3.5128714035157276e-13 5.6825897556200718e-11 0.0000000000000000e+00  -9.1252394592353913e-13 1.0262051142174335e-10 0.0000000000000000e+00  -7.0764397137469525e-13 1.7380746284498988e-10 0.0000000000000000e+00  -1.0402462040306683e-12 2.2406203674297478e-10 0.0000000000000000e+00  -2.2299067507084558e-12 1.1880135710663086e-10 0.0000000000000000e+00  -5.4251682883514474e-13 1.5742848120045056e-10 0.0000000000000000e+00  -8.4754893938272462e-13 5.2865922653183906e-12 0.0000000000000000e+00  1.2282589344274837e-12 4.1450227571707213e-12 0.0000000000000000e+00  -3.7404263216998219e-11 4.1964431785247501e-10 0.0000000000000000e+00  5.0555919482943534e-14 1.8824250361695861e-11 0.0000000000000000e+00  -3.3747159815483388e-13 1.4290976696105114e-10 0.000000000000