<?xml version="1.0"?>
<VTKFile type="UnstructuredGrid"  version="0.1"  >
<UnstructuredGrid>
<Piece  NumberOfPoints="1419" NumberOfCells="2698">
<Points>
<DataArray  type="Float64"  NumberOfComponents="3"  format="ascii">0 0 0  0 0.41 0  2.5 0 0  2.5 0.41 0  0.6 0.19 0  0.6 0.21 0  0.25 0.2 0  0.15 0.2 0  0.2489897948556636 0.21 0  0.2489897948556636 0.19 0  0.6 0.2 0  0 0.3807142857143437 0  0 0.3514285714286952 0  0 0.3221428571430699 0  0 0.29285714285744 0  0 0.2635714285718054 0  0 0.2342857142861561 0  0 0.2050000000005308 0  0 0.175714285714732 0  0 0.1464285714289574 0  0 0.1171428571431897 0  0 0.08785714285737878 0  0 0.05857142857161107 0  0 0.02928571428580012 0  0.03015443760436003 0 0  0.06140001986583606 0 0  0.09377624077125973 0 0  0.1273239957535082 0 0  0.1620856860351972 0 0  0.1981052433264291 0 0  0.235428184091502 0 0  0.2741016576309132 0 0  0.3141745521465447 0 0  0.3556974926295285 0 0  0.3987229542472677 0 0  0.4433053055141081 0 0  0.4895008759286886 0 0  0.5373680609405097 0 0  0.5869673343216626 0 0  0.6383613676634521 0 0  0.6916151138468254 0 0  0.7467958595648856 0 0  0.8039733463919316 0 0  0.8632198139502143 0 0  0.9246101326867038 0 0  0.9882218810934433 0 0  1.054135445558498 0 0  1.122434100542598 0 0  1.193204177141305 0 0  1.266535089879536 0 0  1.342519516046404 0 0  1.421253448503939 0 0  1.502836389106271 0 0  1.587371439758838 0 0  1.674965418777374 0 0  1.765729001825544 0 0  1.859776908880082 0 0  1.957227977487062 0 0  2.058205329869943 0 0  2.162836591189951 0 0  2.271253957290865 0 0  2.383594446803425 0 0  2.5 0.1024999999997612 0  2.5 0.2049999999994743 0  2.5 0.3074999999997183 0  2.383594446803656 0.41 0  2.271253957291315 0.41 0  2.162836591190598 0.41 0  2.058205329870775 0.41 0  1.957227977488067 0.41 0  1.859776908881246 0.41 0  1.765729001826854 0.41 0  1.674965418778818 0.41 0  1.58737143976041 0.41 0  1.502836389107956 0.41 0  1.421253448505726 0.41 0  1.342519516048286 0.41 0  1.266535089881505 0.41 0  1.193204177143353 0.41 0  1.122434100544716 0.41 0  1.05413544556068 0.41 0  0.9882218810956305 0.41 0  0.9246101326886647 0.41 0  0.8632198139519631 0.41 0  0.8039733463934788 0.41 0  0.7467958595662458 0.41 0  0.6916151138480078 0.41 0  0.6383613676644679 0.41 0  0.5869673343225223 0.41 0  0.5373680609412221 0.41 0  0.4895008759292634 0.41 0  0.4433053055145528 0.41 0  0.3987229542475914 0.41 0  0.3556974926297398 0.41 0  0.3141745521466497 0.41 0  0.2741016576310038 0.41 0  0.2354281840915826 0.41 0  0.1981052433265003 0.41 0  0.1620856860352591 0.41 0  0.1273239957535623 0.41 0  0.09377624077128965 0.41 0  0.06140001986584975 0.41 0  0.03015443760436654 0.41 0  0.2497468076502589 0.2050254481002335 0  0.2497468076502614 0.1949745518997913 0  0.2469965252529372 0.1829317073451959 0  0.2439893735792749 0.1762316384219906 0  0.2400332147834255 0.1700443375285386 0  0.2352133972704371 0.1645032867342007 0  0.2296339016332438 0.1597280261969788 0  0.2234150974217223 0.1558215752574715 0  0.2166911463437691 0.1528682099456123 0  0.2096071079204251 0.1509316448471593 0  0.2023158100364996 0.1500536585536553 0  0.194974551899914 0.1502531923497262 0  0.1877417105387872 0.1515259415822739 0  0.1807733240461124 0.153844448527136 0  0.1742197252835808 0.15715869474974 0  0.1682222986673531 0.1613971801805478 0  0.162910430003803 0.1664684656256651 0  0.1583987151779087 0.1722631454351573 0  0.1547844879126891 0.178656207771761 0  0.1521457199348551 0.1855097315605723 0  0.1505393388476355 0.1926758619366523 0  0.1505393388476328 0.2073241380633295 0  0.1521457199348437 0.2144902684393899 0  0.1547844879126531 0.221343792228163 0  0.1583987151778488 0.2277368545647528 0  0.1629104300036858 0.2335315343742052 0  0.1682222986671726 0.2386028198193036 0  0.1742197252833576 0.2428413052501257 0  0.1807733240458683 0.2461555514727623 0  0.1877417105384929 0.2484740584176516 0  0.1949745518995776 0.2497468076502398 0  0.202315810036185 0.2499463414463592 0  0.2096071079201568 0.2490683551528932 0  0.2166911463435495 0.2471317900544655 0  0.2234150974215506 0.2441784247426195 0  0.2296339016331197 0.2402719738031125 0  0.2352133972703547 0.2354967132658811 0  0.2400332147833751 0.2299556624715287 0  0.2439893735792577 0.2237683615780412 0  0.246996525252926 0.2170682926548348 0  0.25645809709277 0.21 0  0.2639263993298655 0.21 0  0.271394701566961 0.21 0  0.2788630038040554 0.21 0  0.2863313060411479 0.21 0  0.2937996082782405 0.21 0  0.301267910515333 0.21 0  0.3087362127524279 0.21 0  0.3162045149895234 0.21 0  0.3236728172265972 0.21 0  0.3311411194636928 0.21 0  0.3386094217007701 0.21 0  0.3460777239378666 0.21 0  0.3535460261749672 0.21 0  0.3610143284120516 0.21 0  0.3684826306491596 0.21 0  0.3759509328862226 0.21 0  0.383419235123329 0.21 0  0.3908875373604028 0.21 0  0.3983558395975142 0.21 0  0.4058241418345938 0.21 0  0.4132924440716992 0.21 0  0.4207607463087888 0.21 0  0.4282290485459029 0.21 0  0.4356973507830418 0.21 0  0.4431656530201649 0.21 0  0.4506339552573136 0.21 0  0.4581022574944306 0.21 0  0.4655705597315852 0.21 0  0.4730388619686996 0.21 0  0.480507164205851 0.21 0  0.4879754664429498 0.21 0  0.4954437686800938 0.21 0  0.502912070917267 0.21 0  0.5103803731544119 0.21 0  0.5178486753915261 0.21 0  0.5253169776286404 0.21 0  0.5327852798657868 0.21 0  0.5402535821029386 0.21 0  0.54772188434007 0.21 0  0.5551901865771842 0.21 0  0.5626584888143201 0.21 0  0.5701267910514778 0.21 0  0.5775950932886138 0.21 0  0.5850633955257281 0.21 0  0.5925316977628483 0.21 0  0.6 0.2050000000000054 0  0.6 0.1950000000000217 0  0.5925316977628897 0.19 0  0.5850633955257988 0.19 0  0.5775950932887378 0.19 0  0.5701267910515998 0.19 0  0.5626584888145268 0.19 0  0.5551901865773963 0.19 0  0.547721884340339 0.19 0  0.5402535821032429 0.19 0  0.5327852798661811 0.19 0  0.5253169776290537 0.19 0  0.5178486753919799 0.19 0  0.5103803731549078 0.19 0  0.502912070917822 0.19 0  0.4954437686807294 0.19 0  0.4879754664436223 0.19 0  0.4805071642065402 0.19 0  0.4730388619694271 0.19 0  0.4655705597323621 0.19 0  0.4581022574952563 0.19 0  0.4506339552581777 0.19 0  0.4431656530210671 0.19 0  0.4356973507839815 0.19 0  0.4282290485468779 0.19 0  0.4207607463097617 0.19 0  0.4132924440726327 0.19 0  0.4058241418354857 0.19 0  0.3983558395983636 0.19 0  0.3908875373612097 0.19 0  0.3834192351240934 0.19 0  0.3759509328869369 0.19 0  0.3684826306498175 0.19 0  0.361014328412667 0.19 0  0.3535460261755617 0.19 0  0.3460777239384295 0.19 0  0.3386094217012945 0.19 0  0.3311411194641595 0.19 0  0.3236728172270245 0.19 0  0.3162045149898895 0.19 0  0.3087362127527544 0.19 0  0.3012679105156187 0.19 0  0.2937996082784807 0.19 0  0.2863313060413428 0.19 0  0.2788630038042048 0.19 0  0.2713947015670686 0.19 0  0.2639263993299336 0.19 0  0.2564580970927985 0.19 0  0.2607803159922026 0.2000727136295815 0  0.5887803774232762 0.2001272386983733 0  0.5745072403740523 0.2002044435018727 0  0.5511891430099709 0.2001122610077113 0  0.2751288526855082 0.20000000000002 0  0.5365194309847112 0.1999999999999436 0  0.2894621222999649 0.1998691686390484 0  0.5215828265105155 0.1999999999999228 0  0.3127789816668748 0.1998657885438805 0  0.3274069683451451 0.2000000000000796 0  0.5066462220363641 0.199999999999908 0  0.3650630746574081 0.199866017807523 0  0.476773013087985 0.1999999999998713 0  0.3417402379596385 0.1998691686391011 0  0.3796850840047755 0.200000000000134 0  0.4618364086138087 0.1999999999998546 0  0.4917096175621762 0.1999999999998808 0  0.3946216884789568 0.2000000000001512 0  0.446899804139621 0.1999999999998389 0  0.4089549580935208 0.1998691686391595 0  0.4322718174608562 0.200127451265745 0  0.4201487168029707 0.1999966199048527 0  0.3528922713220932 0.2000185703532356 0  0.5633122436674589 0.1999814296467508 0  0.3006558810093873 0.1999966199048318 0  0.5815926498168407 0.1966545283159175 0  0.2677053789419034 0.1964246479135325 0  0.5290511287476175 0.1970915826863981 0  0.5439877332217911 0.197091582686394 0  0.2825131256993216 0.2035478995978015 0  0.3199386661080599 0.202908417313604 0  0.4842413153250809 0.1970915826863873 0  0.5141145242734466 0.1970915826863843 0  0.3722167817676917 0.2029084173136195 0  0.4693047108508938 0.1970915826863783 0  0.3348752705822316 0.202908417313609 0  0.3871533862418661 0.2029084173136212 0  0.4543681063767183 0.1970915826863795 0  0.4991779197992749 0.1970915826863902 0  0.4020059614928624 0.203547899597858 0  0.4394315019025246 0.1970915826863714 0  0.2550657455369551 0.2034088125358657 0  0.2548908499171161 0.1966940311614271 0  0.5946539510196798 0.2024302972968126 0  0.267698176732111 0.2039977513680092 0  0.4261685417851465 0.196409292431739 0  0.3590076176283495 0.196411355804271 0  0.5571672426447437 0.2036011176410121 0  0.3066757059912147 0.1964092924317024 0  0.594380730180568 0.1966558399668133 0  0.4842413153245942 0.2040749161535287 0  0.4693047108503577 0.2040749161535231 0  0.3871533862424271 0.1959250838464788 0  0.372246743208829 0.1959123236376545 0  0.5141145242731028 0.2040749161535395 0  0.4543681063761134 0.2040749161535186 0  0.4019979587101454 0.1959834479682427 0  0.4394608940728603 0.2040870543693135 0  0.5439623148931173 0.2040856076781014 0  0.5290511287473298 0.2040749161535501 0  0.4991779197988497 0.2040749161535382 0  0.3347912413592433 0.1959225448935183 0  0.3199680582793816 0.1959123018030061 0  0.2825051229162361 0.1959834479681729 0  0.3590471196690275 0.2036304442587945 0  0.5571594006495384 0.1963685282145804 0  0.3067669986803285 0.203627750582736 0  0.4262598344738712 0.2036568242185335 0  0.5814408164431408 0.2041285596160068 0  0.5688286748170428 0.1961819304477386 0  0.4145905603063645 0.2038180695522843 0  0.3473758401724931 0.2038180695522752 0  0.2950977245128307 0.2038180695522663 0  0.5688286748170693 0.203818069552238 0  0.2950977245127906 0.1961819304477774 0  0.3473758401723931 0.1961819304478349 0  0.4145905603061963 0.1961819304479011 0  0.2601812407614425 0.2056861609747042
[...]
<PointData  Vectors="f_40-0"> 
<DataArray  type="Float64"  Name="f_40-0"  NumberOfComponents="3" format="ascii">0.0000000000000000e+00 0.0000000000000000e+00 0.0000000000000000e+00  0.0000000000000000e+00 0.0000000000000000e+00 0.0000000000000000e+00  0.0000000000000000e+00 0.0000000000000000e+00 0.0000000000000000e+00  0.0000000000000000e+00 0.0000000000000000e+00 0.0000000000000000e+00  1.0105212171835507e-06 3.0304675634217637e-05 0.0000000000000000e+00  -1.2192955443571163e-06 3.0295812132364143e-05 0.0000000000000000e+00  0.0000000000000000e+00 0.0000000000000000e+00 0.0000000000000000e+00  0.0000000000000000e+00 0.0000000000000000e+00 0.0000000000000000e+00  0.0000000000000000e+00 0.0000000000000000e+00 0.0000000000000000e+00  0.0000000000000000e+00 0.0000000000000000e+00 0.0000000000000000e+00  -1.0446776022005642e-07 3.0292924263681392e-05 0.0000000000000000e+00  7.9591836734548407e-02 0.0000000000000000e+00 0.0000000000000000e+00  1.4693877550994527e-01 0.0000000000000000e+00 0.0000000000000000e+00  2.0204081632617479e-01 0.0000000000000000e+00 0.0000000000000000e+00  2.4489795918330076e-01 0.0000000000000000e+00 0.0000000000000000e+00  2.7551020408131754e-01 0.0000000000000000e+00 0.0000000000000000e+00  2.9387755102022350e-01 0.0000000000000000e+00 0.0000000000000000e+00  3.0000000000000004e-01 0.0000000000000000e+00 0.0000000000000000e+00  2.9387755102059482e-01 0.0000000000000000e+00 0.0000000000000000e+00  2.7551020408195548e-01 0.0000000000000000e+00 0.0000000000000000e+00  2.4489795918409071e-01 0.0000000000000000e+00 0.0000000000000000e+00  2.0204081632692525e-01 0.0000000000000000e+00 0.0000000000000000e+00  1.4693877551058568e-01 0.0000000000000000e+00 0.0000000000000000e+00  7.9591836734909230e-02 0.0000000000000000e+00 0.0000000000000000e+00  0.0000000000000000e+00 0.0000000000000000e+00 0.0000000000000000e+00  0.0000000000000000e+00 0.0000000000000000e+00 0.0000000000000000e+00  0.0000000000000000e+00 0.0000000000000000e+00 0.0000000000000000e+00  0.0000000000000000e+00 0.0000000000000000e+00 0.0000000000000000e+00  0.0000000000000000e+00 0.0000000000000000e+00 0.0000000000000000e+00  0.0000000000000000e+00 0.0000000000000000e+00 0.0000000000000000e+00  0.0000000000000000e+00 0.0000000000000000e+00 0.0000000000000000e+00  0.0000000000000000e+00 0.0000000000000000e+00 0.0000000000000000e+00  0.0000000000000000e+00 0.0000000000000000e+00 0.0000000000000000e+00  0.0000000000000000e+00 0.0000000000000000e+00 0.0000000000000000e+00  0.0000000000000000e+00 0.0000000000000000e+00 0.0000000000000000e+00  0.0000000000000000e+00 0.0000000000000000e+00 0.0000000000000000e+00  0.0000000000000000e+00 0.0000000000000000e+00 0.0000000000000000e+00  0.0000000000000000e+00 0.0000000000000000e+00 0.0000000000000000e+00  0.0000000000000000e+00 0.0000000000000000e+00 0.0000000000000000e+00  0.0000000000000000e+00 0.0000000000000000e+00 0.0000000000000000e+00  0.0000000000000000e+00 0.0000000000000000e+00 0.0000000000000000e+00  0.0000000000000000e+00 0.0000000000000000e+00 0.0000000000000000e+00  0.0000000000000000e+00 0.0000000000000000e+00 0.0000000000000000e+00  0.0000000000000000e+00 0.0000000000000000e+00 0.0000000000000000e+00  0.0000000000000000e+00 0.0000000000000000e+00 0.0000000000000000e+00  0.0000000000000000e+00 0.0000000000000000e+00 0.0000000000000000e+00  0.0000000000000000e+00 0.0000000000000000e+00 0.0000000000000000e+00  0.0000000000000000e+00 0.0000000000000000e+00 0.0000000000000000e+00  0.0000000000000000e+00 0.0000000000000000e+00 0.0000000000000000e+00  0.0000000000000000e+00 0.0000000000000000e+00 0.0000000000000000e+00  0.0000000000000000e+00 0.0000000000000000e+00 0.0000000000000000e+00  0.0000000000000000e+00 0.0000000000000000e+00 0.0000000000000000e+00  0.0000000000000000e+00 0.0000000000000000e+00 0.0000000000000000e+00  0.0000000000000000e+00 0.0000000000000000e+00 0.0000000000000000e+00  0.0000000000000000e+00 0.0000000000000000e+00 0.0000000000000000e+00  0.0000000000000000e+00 0.0000000000000000e+00 0.0000000000000000e+00  0.0000000000000000e+00 0.0000000000000000e+00 0.0000000000000000e+00  0.0000000000000000e+00 0.0000000000000000e+00 0.0000000000000000e+00  0.0000000000000000e+00 0.0000000000000000e+00 0.0000000000000000e+00  0.0000000000000000e+00 0.0000000000000000e+00 0.0000000000000000e+00  0.0000000000000000e+00 0.0000000000000000e+00 0.0000000000000000e+00  0.0000000000000000e+00 0.0000000000000000e+00 0.0000000000000000e+00  2.3732222576632267e-01 -7.6669349628382078e-03 0.0000000000000000e+00  3.1402332015986195e-01 3.7348971445094585e-04 0.0000000000000000e+00  2.3763293910963856e-01 1.1881615154472438e-02 0.0000000000000000e+00  0.0000000000000000e+00 0.0000000000000000e+00 0.0000000000000000e+00  0.0000000000000000e+00 0.0000000000000000e+00 0.0000000000000000e+00  0.0000000000000000e+00 0.0000000000000000e+00 0.0000000000000000e+00  0.0000000000000000e+00 0.0000000000000000e+00 0.0000000000000000e+00  0.0000000000000000e+00 0.0000000000000000e+00 0.0000000000000000e+00  0.0000000000000000e+00 0.0000000000000000e+00 0.0000000000000000e+00  0.0000000000000000e+00 0.0000000000000000e+00 0.0000000000000000e+00  0.0000000000000000e+00 0.0000000000000000e+00 0.0000000000000000e+00  0.0000000000000000e+00 0.0000000000000000e+00 0.0000000000000000e+00  0.0000000000000000e+00 0.0000000000000000e+00 0.0000000000000000e+00  0.0000000000000000e+00 0.0000000000000000e+00 0.0000000000000000e+00  0.0000000000000000e+00 0.0000000000000000e+00 0.0000000000000000e+00  0.0000000000000000e+00 0.0000000000000000e+00 0.0000000000000000e+00  0.0000000000000000e+00 0.0000000000000000e+00 0.0000000000000000e+00  0.0000000000000000e+00 0.0000000000000000e+00 0.0000000000000000e+00  0.0000000000000000e+00 0.0000000000000000e+00 0.0000000000000000e+00  0.0000000000000000e+00 0.0000000000000000e+00 0.0000000000000000e+00  0.0000000000000000e+00 0.0000000000000000e+00 0.0000000000000000e+00  0.0000000000000000e+00 0.0000000000000000e+00 0.0000000000000000e+00  0.0000000000000000e+00 0.0000000000000000e+00 0.0000000000000000e+00  0.0000000000000000e+00 0.0000000000000000e+00 0.0000000000000000e+00  0.0000000000000000e+00 0.0000000000000000e+00 0.0000000000000000e+00  0.0000000000000000e+00 0.0000000000000000e+00 0.0000000000000000e+00  0.0000000000000000e+00 0.0000000000000000e+00 0.0000000000000000e+00  0.0000000000000000e+00 0.0000000000000000e+00 0.0000000000000000e+00  0.0000000000000000e+00 0.0000000000000000e+00 0.0000000000000000e+00  0.0000000000000000e+00 0.0000000000000000e+00 0.0000000000000000e+00  0.0000000000000000e+00 0.0000000000000000e+00 0.0000000000000000e+00  0.0000000000000000e+00 0.0000000000000000e+00 0.0000000000000000e+00  0.0000000000000000e+00 0.0000000000000000e+00 0.0000000000000000e+00  0.0000000000000000e+00 0.0000000000000000e+00 0.0000000000000000e+00  0.0000000000000000e+00 0.0000000000000000e+00 0.0000000000000000e+00  0.0000000000000000e+00 0.0000000000000000e+00 0.0000000000000000e+00  0.0000000000000000e+00 0.0000000000000000e+00 0.0000000000000000e+00  0.0000000000000000e+00 0.0000000000000000e+00 0.0000000000000000e+00  0.0000000000000000e+00 0.0000000000000000e+00 0.0000000000000000e+00  0.0000000000000000e+00 0.0000000000000000e+00 0.0000000000000000e+00  0.0000000000000000e+00 0.0000000000000000e+00 0.0000000000000000e+00  0.0000000000000000e+00 0.0000000000000000e+00 0.0000000000000000e+00  0.0000000000000000e+00 0.0000000000000000e+00 0.0000000000000000e+00  0.0000000000000000e+00 0.0000000000000000e+00 0.0000000000000000e+00  0.0000000000000000e+00 0.0000000000000000e+00 0.0000000000000000e+00  0.0000000000000000e+00 0.0000000000000000e+00 0.0000000000000000e+00  0.0000000000000000e+00 0.0000000000000000e+00 0.0000000000000000e+00  0.0000000000000000e+00 0.0000000000000000e+00 0.0000000000000000e+00  0.0000000000000000e+00 0.0000000000000000e+00 0.0000000000000000e+00  0.0000000000000000e+00 0.0000000000000000e+00 0.0000000000000000e+00  0.0000000000000000e+00 0.0000000000000000e+00 0.0000000000000000e+00  0.0000000000000000e+00 0.0000000000000000e+00 0.0000000000000000e+00  0.0000000000000000e+00 0.0000000000000000e+00 0.0000000000000000e+00  0.0000000000000000e+00 0.0000000000000000e+00 0.0000000000000000e+00  0.0000000000000000e+00 0.0000000000000000e+00 0.0000000000000000e+00  0.0000000000000000e+00 0.0000000000000000e+00 0.0000000000000000e+00  0.0000000000000000e+00 0.0000000000000000e+00 0.0000000000000000e+00  0.0000000000000000e+00 0.0000000000000000e+00 0.0000000000000000e+00  0.0000000000000000e+00 0.0000000000000000e+00 0.0000000000000000e+00  0.0000000000000000e+00 0.0000000000000000e+00 0.0000000000000000e+00  0.0000000000000000e+00 0.0000000000000000e+00 0.0000000000000000e+00  0.0000000000000000e+00 0.0000000000000000e+00 0.0000000000000000e+00  0.0000000000000000e+00 0.0000000000000000e+00 0.0000000000000000e+00  0.0000000000000000e+00 0.0000000000000000e+00 0.0000000000000000e+00  0.0000000000000000e+00 0.0000000000000000e+00 0.0000000000000000e+00  0.0000000000000000e+00 0.0000000000000000e+00 0.0000000000000000e+00  0.0000000000000000e+00 0.0000000000000000e+00 0.0000000000000000e+00  0.0000000000000000e+00 0.0000000000000000e+00 0.0000000000000000e+00  0.0000000000000000e+00 0.0000000000000000e+00 0.0000000000000000e+00  0.0000000000000000e+00 0.0000000000000000e+00 0.0000000000000000e+00  0.0000000000000000e+00 0.0000000000000000e+00 0.0000000000000000e+00  0.0000000000000000e+00 0.0000000000000000e+00 0.0000000000000000e+00  0.0000000000000000e+00 0.0000000000000000e+00 0.0000000000000000e+00  0.0000000000000000e+00 0.0000000000000000e+00 0.0000000000000000e+00  0.0000000000000000e+00 0.0000000000000000e+00 0.0000000000000000e+00  0.0000000000000000e+00 0.0000000000000000e+00 0.0000000000000000e+00  0.0000000000000000e+00 0.0000000000000000e+00 0.0000000000000000e+00  0.0000000000000000e+00 0.0000000000000000e+00 0.0000000000000000e+00  0.0000000000000000e+00 0.0000000000000000e+00 0.0000000000000000e+00  0.0000000000000000e+00 0.0000000000000000e+00 0.0000000000000000e+00  0.0000000000000000e+00 0.0000000000000000e+00 0.0000000000000000e+00  -7.1081825549838429e-08 5.8416934198988638e-08 0.0000000000000000e+00  -1.5065827320114641e-07 1.4541011025489940e-07 0.0000000000000000e+00  -2.1922866327250064e-07 2.8635566797527202e-07 0.0000000000000000e+00  -2.9255004782685347e-07 4.8388165317131070e-07 0.0000000000000000e+00  -3.5233764857752377e-07 7.2748621933348228e-07 0.0000000000000000e+00  -4.1968917918485298e-07 1.0211591026121327e-06 0.0000000000000000e+00  -4.7254603376881823e-07 1.3513406331926682e-06 0.0000000000000000e+00  -5.2306385391978426e-07 1.7288411958331684e-06 0.0000000000000000e+00  -5.8076978232762724e-07 2.1416701513108687e-06 0.0000000000000000e+00  -6.2346652334446453e-07 2.5907340931119552e-06 0.0000000000000000e+00  -6.7543227053207336e-07 3.0749181223597636e-06 0.0000000000000000e+00  -7.1330824614713202e-07 3.5908039552821391e-06 0.0000000000000000e+00  -7.5779534853010110e-07 4.1369116408144154e-06 0.0000000000000000e+00  -7.9221056732745618e-07 4.7070749406430254e-06 0.0000000000000000e+00  -8.2495625543456429e-07 5.3065849841449577e-06 0.0000000000000000e+00  -8.6170810117102971e-07 5.9276965580370048e-06 0.0000000000000000e+00  -8.8887875231462496e-07 6.5708160579848011e-06 0.0000000000000000e+00  -9.2103784986236893e-07 7.2349286385873817e-06 0.0000000000000000e+00  -9.4442083337652254e-07 7.9174365179555616e-06 0.0000000000000000e+00  -9.7155821055295387e-07 8.6168903912353617e-06 0.0000000000000000e+00  -9.9261491563224491e-07 9.3323399199460385e-06 0.0000000000000000e+00  -1.0153545053794359e-06 1.0062828489933767e-05 0.0000000000000000e+00  -1.0331846085274012e-06 1.0803985345788000e-05 0.0000000000000000e+00  -1.0498185975730507e-06 1.1558927012973359e-05 0.0000000000000000e+00  -1.0676083923781351e-06 1.2322667522891200e-05 0.0000000000000000e+00  -1.0820278107381562e-06 1.3096716567227224e-05 0.0000000000000000e+00  -1.0960475968909317e-06 1.3879323617267201e-05 0.0000000000000000e+00  -1.1081311748581628e-06 1.4668920101600873e-05 0.0000000000000000e+00  -1.1197503612907160e-06 1.5465532092300080e-05 0.0000000000000000e+00  -1.1297940838169292e-06 1.6267471704419935e-05 0.0000000000000000e+00  -1.1393827039618149e-06 1.7074834006351369e-05 0.0000000000000000e+00  -1.1476938952956846e-06 1.7886164286556745e-05 0.0000000000000000e+00  -1.1555886462259082e-06 1.8701541089326176e-05 0.0000000000000000e+00  -1.1624741307697999e-06 1.9519795487105204e-05 0.0000000000000000e+00  -1.1689927331296989e-06 2.0340972028360368e-05 0.0000000000000000e+00  -1.1747361804948630e-06 2.1164146484276717e-05 0.0000000000000000e+00  -1.1801736485240928e-06 2.1989366187792798e-05 0.0000000000000000e+00  -1.1850353498954145e-06 2.2815913418613449e-05 0.0000000000000000e+00  -1.1896561591958987e-06 2.3643845443025003e-05 0.0000000000000000e+00  -1.1938642492367550e-06 2.4472605019002527e-05 0.0000000000000000e+00  -1.1979303996996046e-06 2.5302365752074592e-05 0.0000000000000000e+00  -1.2016463935229259e-06 2.6132233564031024e-05 0.0000000000000000e+00  -1.2051928594406369e-06 2.6963309982912673e-05 0.0000000000000000e+00  -1.2087151333781671e-06 2.7794354330228836e-05 0.0000000000000000e+00  -1.2120244861550268e-06 2.8625637267322901e-05 0.0000000000000000e+00  -1.2152211499584519e-06 2.9457598644360340e-05 0.0000000000000000e+00  -6.6130840375451028e-07 3.0290960035085124e-05 0.0000000000000000e+00  4.5232281881276535e-07 3.0294887094430656e-05 0.0000000000000000e+00  1.0118929863056632e-06 2.9464932865810005e-05 0.0000000000000000e+00  1.0145417851360369e-06 2.8633125518832156e-05 0.0000000000000000e+00  1.0170970206394150e-06 2.7801639576094377e-05 0.0000000000000000e+00  1.0194720969995452e-06 2.6970645240924395e-05 0.0000000000000000e+00  1.0218106140046153e-06 2.6139529399836114e-05 0.0000000000000000e+00  1.0240374584200589e-06 2.5309610163336578e-05 0.0000000000000000e+00  1.0258694001453275e-06 2.4479836239397556e-05 0.0000000000000000e+00  1.0277347175501036e-06 2.3651011241604748e-05 0.0000000000000000e+00  1.0289294782703331e-06 2.2823083004240012e-05 0.0000000000000000e+00  1.0302368742938860e-06 2.1996477448481556e-05 0.0000000000000000e+00  1.0305595960486007e-06 2.1171258375811483e-05 0.0000000000000000e+00  1.0310788549718430e-06 2.0348015773023992e-05 0.0000000000000000e+00  1.0302171810938340e-06 1.9526838927528065e-05 0.0000000000000000e+00  1.0296953857165873e-06 1.8708503593648930e-05 0.0000000000000000e+00  1.0273063684236559e-06 1.7893123542011063e-05 0.0000000000000000e+00  1.0254647047593729e-06 1.7081682343532928e-05 0.0000000000000000e+00  1.0211739473352966e-06 1.6274316162515266e-05 0.0000000000000000e+00  1.0177106696019889e-06 1.5472232555670518e-05 0.0000000000000000e+00  1.0111128513527306e-06 1.4675595276921466e-05 0.0000000000000000e+00  1.0057034518494757e-06 1.3885823222512751e-05 0.0000000000000000e+00  9.9628444110489072e-07 1.3103182595142785e-05 0.0000000000000000e+00  9.8847410387118092e-07 1.2329341917101249e-05 0.0000000000000000e+00  9.7597786978386942e-07 1.1564880292723523e-05 0.0000000000000000e+00  9.6478625382962606e-07 1.0809994464735145e-05 0.0000000000000000e+00  9.5221447648260799e-07 1.0068832536045175e-05 0.0000000000000000e+00  9.3501557548567144e-07 9.3377877655052282e-06 0.0000000000000000e+00  9.1823632124741969e-07 8.6228130398941884e-06 0.0000000000000000e+00  8.9758805224444900e-07 7.9223063744371181e-06 0.0000000000000000e+00  8.7672327350622833e-07 7.2400021941127243e-06 0.0000000000000000e+00  8.5181342910800438e-07 6.5754504815432821e-06 0.0000000000000000e+00  8.2665558954991486e-07 5.9312683179000526e-06 0.0000000000000000e+00  7.9449701861765712e-07 5.3112555352599142e-06 0.0000000000000000e+00  7.6578569176883891e-07 4.7111582066104483e-06 0.0000000000000000e+00  7.3495914565043923e-07 4.1411437301066822e-06 0.0000000000000000e+00  6.9533089196159243e-07 3.5927846135822599e-06 0.0000000000000000e+00  6.5707329047598722e-07 3.0778154703753601e-06 0.0000000000000000e+00  6.1259179608408598e-07 2.5929737687111588e-06 0.0000000000000000e+00  5.6857806281625408e-07 2.1422056945353347e-06 0.0000000000000000e+00  5.1392373173729535e-07 1.7312328660359320e-06 0.0000000000000000e+00  4.6541793963935644e-07 1.3528200162453505e-06 0.0000000000000000e+00  4.1433720444405989e-07 1.0224706159906781e-06 0.0000000000000000e+00  3.4962528971653053e-07 7.2710622205042526e-07 0.0000000000000000e+00  2.8914329261521627e-07 4.8260664991485914e-07 0.0000000000000000e+00  2.1638913520321012e-07 2.8759692059549958e-07 0.0000000000000000e+00  1.5005933028143722e-07 1.4567706046298794e-07 0.0000000000000000e+00  7.1035854644187232e-08 5.7762059034507322e-08 0.0000000000000000e+00  -9.4455347898195594e-10 6.2441619870618400e-08 0.0000000000000000e+00  -1.1430581838886841e-07 2.9042501006012851e-05 0.0000000000000000e+00  -1.1732647053845434e-07 2.7453549384175779e-05 0.0000000000000000e+00  -9.7807343575996338e-08 2.4860455200842642e-05 0.0000000000000000e+00  -7.7046644291907798e-10 3.4526729158885073e-07 0.0000000000000000e+00  -7.9494834037381898e-08 2.3232266776513566e-05 0.0000000000000000e+00  2.7442116880023008e-09 8.1422098157176223e-07 0.0000000000000000e+00  -7.3508470333273964e-08 2.1578692793344535e-05 0.0000000000000000e+00  2.5919160386974474e-09 1.9234325276876167e-06 0.0000000000000000e+00  -7.3118277162960529e-09 2.8086914958701570e-06 0.0000000000000000e+00  -6.7519136431972484e-08 1.9931704490506502e-05 0.0000000000000000e+00  -4.9963058852931667e-09 5.6272066335939970e-06 0.0000000000000000e+00  -5.5599681099553816e-08 1.6670677049007453e-05 0.0000000000000000e+00  -8.9077260986433965e-10 3.7980181560762326e-06 0.0000000000000000e+00  -2.0427458738728064e-08 6.8900895513770375e-06 0.0000000000000000e+00  -4.9722644026219449e-08 1.5065527924700855e-05 0.0000000000000000e+00  -6.1541768628108138e-08 1.8294377886121738e-05 0.0000000000000000e+00  -2.5166206958510224e-08 8.2568625002852616e-06 0.0000000000000000e+00  -4.3899474153777237e-08 1.3484898198901123e-05 0.0000000000000000e+00  -1.7264989138450238e-08 9.6301997799159542e-06 0.0000000000000000e+00  -5.1403239400157833e-08 1.1967428811840703e-05 0.0000000000000000e+00  -3.3658193828416422e-08 1.0739857406196438e-05 0.0000000000000000e+00  -1.4392611730017460e-08 4.6455789923976253e-06 0.0000000000000000e+00  -8.8089034967455244e-08 2.6208041812590364e-05 0.0000000000000000e+00  -2.8655731467796633e-09 1.3032539261077278e-06 0.0000000000000000e+00  2.7500546346464345e-07 2.8243271643070820e-05 0.0000000000000000e+00  6.5812246407427784e-08 1.8082556363559477e-07 0.0000000000000000e+00  2.4514555186111508e-07 2.2405831482242399e-05 0.0000000000000000e+00  2.4009681527640472e-07 2.4061737391291222e-05 0.0000000000000000e+00  -1.1384799851141658e-07 5.7046682706600475e-07 0.0000000000000000e+00  -1.7975984120864279e-07 2.3427422492119703e-06 0.0000000000000000e+00  2.5689588783618864e-07 1.7481820999504208e-05 0.0000000000000000e+00  2.4974022489802907e-07 2.0755293474312326e-05 0.0000000000000000e+00  -2.6765639359283179e-07 6.2361753052904088e-06 0.0000000000000000e+00  2.5905411359756377e-07 1.5866837224147310e-05 0.0000000000000000e+00  -2.0720357878479266e-07 3.3125422745724192e-06 0.0000000000000000e+00  -2.8710630826578563e-07 7.5654880593264573e-06 0.0000000000000000e+00  2.5997500113003544e-07 1.4273256859207442e-05 0.0000000000000000e+00  2.5372047995638550e-07 1.9112785247367136e-05 0.0000000000000000e+00  -3.6560581012151010e-07 8.9581494148608918e-06 0.0000000000000000e+00  2.5955682316937757e-07 1.2707595217619760e-05 0.0000000000000000e+00  -1.2587574392621278e-08 1.3803065683700155e-08 0.0000000000000000e+00  1.0905383308060171e-08 1.2527938574652987e-08 0.0000000000000000e+00  -3.7306808105656626e-07 2.9695633789145995e-05 0.0000000000000000e+00  -7.4356121330959406e-08 1.8090233393132832e-07 0.0000000000000000e+00  3.2664841630397366e-07 1.1347429133919575e-05 0.0000000000000000e+