<?xml version="1.0"?>
<VTKFile type="UnstructuredGrid"  version="0.1"  >
<UnstructuredGrid>
<Piece  NumberOfPoints="1419" NumberOfCells="2698">
<Points>
<DataArray  type="Float64"  NumberOfComponents="3"  format="ascii">0 0 0  0 0.41 0  2.5 0 0  2.5 0.41 0  0.6 0.19 0  0.6 0.21 0  0.25 0.2 0  0.15 0.2 0  0.2489897948556636 0.21 0  0.2489897948556636 0.19 0  0.6 0.2 0  0 0.3807142857143437 0  0 0.3514285714286952 0  0 0.3221428571430699 0  0 0.29285714285744 0  0 0.2635714285718054 0  0 0.2342857142861561 0  0 0.2050000000005308 0  0 0.175714285714732 0  0 0.1464285714289574 0  0 0.1171428571431897 0  0 0.08785714285737878 0  0 0.05857142857161107 0  0 0.02928571428580012 0  0.03015443760436003 0 0  0.06140001986583606 0 0  0.09377624077125973 0 0  0.1273239957535082 0 0  0.1620856860351972 0 0  0.1981052433264291 0 0  0.235428184091502 0 0  0.2741016576309132 0 0  0.3141745521465447 0 0  0.3556974926295285 0 0  0.3987229542472677 0 0  0.4433053055141081 0 0  0.4895008759286886 0 0  0.5373680609405097 0 0  0.5869673343216626 0 0  0.6383613676634521 0 0  0.6916151138468254 0 0  0.7467958595648856 0 0  0.8039733463919316 0 0  0.8632198139502143 0 0  0.9246101326867038 0 0  0.9882218810934433 0 0  1.054135445558498 0 0  1.122434100542598 0 0  1.193204177141305 0 0  1.266535089879536 0 0  1.342519516046404 0 0  1.421253448503939 0 0  1.502836389106271 0 0  1.587371439758838 0 0  1.674965418777374 0 0  1.765729001825544 0 0  1.859776908880082 0 0  1.957227977487062 0 0  2.058205329869943 0 0  2.162836591189951 0 0  2.271253957290865 0 0  2.383594446803425 0 0  2.5 0.1024999999997612 0  2.5 0.2049999999994743 0  2.5 0.3074999999997183 0  2.383594446803656 0.41 0  2.271253957291315 0.41 0  2.162836591190598 0.41 0  2.058205329870775 0.41 0  1.957227977488067 0.41 0  1.859776908881246 0.41 0  1.765729001826854 0.41 0  1.674965418778818 0.41 0  1.58737143976041 0.41 0  1.502836389107956 0.41 0  1.421253448505726 0.41 0  1.342519516048286 0.41 0  1.266535089881505 0.41 0  1.193204177143353 0.41 0  1.122434100544716 0.41 0  1.05413544556068 0.41 0  0.9882218810956305 0.41 0  0.9246101326886647 0.41 0  0.8632198139519631 0.41 0  0.8039733463934788 0.41 0  0.7467958595662458 0.41 0  0.6916151138480078 0.41 0  0.6383613676644679 0.41 0  0.5869673343225223 0.41 0  0.5373680609412221 0.41 0  0.4895008759292634 0.41 0  0.4433053055145528 0.41 0  0.3987229542475914 0.41 0  0.3556974926297398 0.41 0  0.3141745521466497 0.41 0  0.2741016576310038 0.41 0  0.2354281840915826 0.41 0  0.1981052433265003 0.41 0  0.1620856860352591 0.41 0  0.1273239957535623 0.41 0  0.09377624077128965 0.41 0  0.06140001986584975 0.41 0  0.03015443760436654 0.41 0  0.2497468076502589 0.2050254481002335 0  0.2497468076502614 0.1949745518997913 0  0.2469965252529372 0.1829317073451959 0  0.2439893735792749 0.1762316384219906 0  0.2400332147834255 0.1700443375285386 0  0.2352133972704371 0.1645032867342007 0  0.2296339016332438 0.1597280261969788 0  0.2234150974217223 0.1558215752574715 0  0.2166911463437691 0.1528682099456123 0  0.2096071079204251 0.1509316448471593 0  0.2023158100364996 0.1500536585536553 0  0.194974551899914 0.1502531923497262 0  0.1877417105387872 0.1515259415822739 0  0.1807733240461124 0.153844448527136 0  0.1742197252835808 0.15715869474974 0  0.1682222986673531 0.1613971801805478 0  0.162910430003803 0.1664684656256651 0  0.1583987151779087 0.1722631454351573 0  0.1547844879126891 0.178656207771761 0  0.1521457199348551 0.1855097315605723 0  0.1505393388476355 0.1926758619366523 0  0.1505393388476328 0.2073241380633295 0  0.1521457199348437 0.2144902684393899 0  0.1547844879126531 0.221343792228163 0  0.1583987151778488 0.2277368545647528 0  0.1629104300036858 0.2335315343742052 0  0.1682222986671726 0.2386028198193036 0  0.1742197252833576 0.2428413052501257 0  0.1807733240458683 0.2461555514727623 0  0.1877417105384929 0.2484740584176516 0  0.1949745518995776 0.2497468076502398 0  0.202315810036185 0.2499463414463592 0  0.2096071079201568 0.2490683551528932 0  0.2166911463435495 0.2471317900544655 0  0.2234150974215506 0.2441784247426195 0  0.2296339016331197 0.2402719738031125 0  0.2352133972703547 0.2354967132658811 0  0.2400332147833751 0.2299556624715287 0  0.2439893735792577 0.2237683615780412 0  0.246996525252926 0.2170682926548348 0  0.25645809709277 0.21 0  0.2639263993298655 0.21 0  0.271394701566961 0.21 0  0.2788630038040554 0.21 0  0.2863313060411479 0.21 0  0.2937996082782405 0.21 0  0.301267910515333 0.21 0  0.3087362127524279 0.21 0  0.3162045149895234 0.21 0  0.3236728172265972 0.21 0  0.3311411194636928 0.21 0  0.3386094217007701 0.21 0  0.3460777239378666 0.21 0  0.3535460261749672 0.21 0  0.3610143284120516 0.21 0  0.3684826306491596 0.21 0  0.3759509328862226 0.21 0  0.383419235123329 0.21 0  0.3908875373604028 0.21 0  0.3983558395975142 0.21 0  0.4058241418345938 0.21 0  0.4132924440716992 0.21 0  0.4207607463087888 0.21 0  0.4282290485459029 0.21 0  0.4356973507830418 0.21 0  0.4431656530201649 0.21 0  0.4506339552573136 0.21 0  0.4581022574944306 0.21 0  0.4655705597315852 0.21 0  0.4730388619686996 0.21 0  0.480507164205851 0.21 0  0.4879754664429498 0.21 0  0.4954437686800938 0.21 0  0.502912070917267 0.21 0  0.5103803731544119 0.21 0  0.5178486753915261 0.21 0  0.5253169776286404 0.21 0  0.5327852798657868 0.21 0  0.5402535821029386 0.21 0  0.54772188434007 0.21 0  0.5551901865771842 0.21 0  0.5626584888143201 0.21 0  0.5701267910514778 0.21 0  0.5775950932886138 0.21 0  0.5850633955257281 0.21 0  0.5925316977628483 0.21 0  0.6 0.2050000000000054 0  0.6 0.1950000000000217 0  0.5925316977628897 0.19 0  0.5850633955257988 0.19 0  0.5775950932887378 0.19 0  0.5701267910515998 0.19 0  0.5626584888145268 0.19 0  0.5551901865773963 0.19 0  0.547721884340339 0.19 0  0.5402535821032429 0.19 0  0.5327852798661811 0.19 0  0.5253169776290537 0.19 0  0.5178486753919799 0.19 0  0.5103803731549078 0.19 0  0.502912070917822 0.19 0  0.4954437686807294 0.19 0  0.4879754664436223 0.19 0  0.4805071642065402 0.19 0  0.4730388619694271 0.19 0  0.4655705597323621 0.19 0  0.4581022574952563 0.19 0  0.4506339552581777 0.19 0  0.4431656530210671 0.19 0  0.4356973507839815 0.19 0  0.4282290485468779 0.19 0  0.4207607463097617 0.19 0  0.4132924440726327 0.19 0  0.4058241418354857 0.19 0  0.3983558395983636 0.19 0  0.3908875373612097 0.19 0  0.3834192351240934 0.19 0  0.3759509328869369 0.19 0  0.3684826306498175 0.19 0  0.361014328412667 0.19 0  0.3535460261755617 0.19 0  0.3460777239384295 0.19 0  0.3386094217012945 0.19 0  0.3311411194641595 0.19 0  0.3236728172270245 0.19 0  0.3162045149898895 0.19 0  0.3087362127527544 0.19 0  0.3012679105156187 0.19 0  0.2937996082784807 0.19 0  0.2863313060413428 0.19 0  0.2788630038042048 0.19 0  0.2713947015670686 0.19 0  0.2639263993299336 0.19 0  0.2564580970927985 0.19 0  0.2607803159922026 0.2000727136295815 0  0.5887803774232762 0.2001272386983733 0  0.5745072403740523 0.2002044435018727 0  0.5511891430099709 0.2001122610077113 0  0.2751288526855082 0.20000000000002 0  0.5365194309847112 0.1999999999999436 0  0.2894621222999649 0.1998691686390484 0  0.5215828265105155 0.1999999999999228 0  0.3127789816668748 0.1998657885438805 0  0.3274069683451451 0.2000000000000796 0  0.5066462220363641 0.199999999999908 0  0.3650630746574081 0.199866017807523 0  0.476773013087985 0.1999999999998713 0  0.3417402379596385 0.1998691686391011 0  0.3796850840047755 0.200000000000134 0  0.4618364086138087 0.1999999999998546 0  0.4917096175621762 0.1999999999998808 0  0.3946216884789568 0.2000000000001512 0  0.446899804139621 0.1999999999998389 0  0.4089549580935208 0.1998691686391595 0  0.4322718174608562 0.200127451265745 0  0.4201487168029707 0.1999966199048527 0  0.3528922713220932 0.2000185703532356 0  0.5633122436674589 0.1999814296467508 0  0.3006558810093873 0.1999966199048318 0  0.5815926498168407 0.1966545283159175 0  0.2677053789419034 0.1964246479135325 0  0.5290511287476175 0.1970915826863981 0  0.5439877332217911 0.197091582686394 0  0.2825131256993216 0.2035478995978015 0  0.3199386661080599 0.202908417313604 0  0.4842413153250809 0.1970915826863873 0  0.5141145242734466 0.1970915826863843 0  0.3722167817676917 0.2029084173136195 0  0.4693047108508938 0.1970915826863783 0  0.3348752705822316 0.202908417313609 0  0.3871533862418661 0.2029084173136212 0  0.4543681063767183 0.1970915826863795 0  0.4991779197992749 0.1970915826863902 0  0.4020059614928624 0.203547899597858 0  0.4394315019025246 0.1970915826863714 0  0.2550657455369551 0.2034088125358657 0  0.2548908499171161 0.1966940311614271 0  0.5946539510196798 0.2024302972968126 0  0.267698176732111 0.2039977513680092 0  0.4261685417851465 0.196409292431739 0  0.3590076176283495 0.196411355804271 0  0.5571672426447437 0.2036011176410121 0  0.3066757059912147 0.1964092924317024 0  0.594380730180568 0.1966558399668133 0  0.4842413153245942 0.2040749161535287 0  0.4693047108503577 0.2040749161535231 0  0.3871533862424271 0.1959250838464788 0  0.372246743208829 0.1959123236376545 0  0.5141145242731028 0.2040749161535395 0  0.4543681063761134 0.2040749161535186 0  0.4019979587101454 0.1959834479682427 0  0.4394608940728603 0.2040870543693135 0  0.5439623148931173 0.2040856076781014 0  0.5290511287473298 0.2040749161535501 0  0.4991779197988497 0.2040749161535382 0  0.3347912413592433 0.1959225448935183 0  0.3199680582793816 0.1959123018030061 0  0.2825051229162361 0.1959834479681729 0  0.3590471196690275 0.2036304442587945 0  0.5571594006495384 0.1963685282145804 0  0.3067669986803285 0.203627750582736 0  0.4262598344738712 0.2036568242185335 0  0.5814408164431408 0.2041285596160068 0  0.5688286748170428 0.1961819304477386 0  0.4145905603063645 0.2038180695522843 0  0.3473758401724931 0.2038180695522752 0  0.2950977245128307 0.2038180695522663 0  0.5688286748170693 0.203818069552238 0  0.2950977245127906 0.1961819304477774 0  0.3473758401723931 0.1961819304478349 0  0.4145905603061963 0.1961819304479011 0  0.2601812407614425 0.2056861609747042
[...]
<PointData  Vectors="f_40-0"> 
<DataArray  type="Float64"  Name="f_40-0"  NumberOfComponents="3" format="ascii">0.0000000000000000e+00 0.0000000000000000e+00 0.0000000000000000e+00  0.0000000000000000e+00 0.0000000000000000e+00 0.0000000000000000e+00  0.0000000000000000e+00 0.0000000000000000e+00 0.0000000000000000e+00  0.0000000000000000e+00 0.0000000000000000e+00 0.0000000000000000e+00  4.9369883001682411e-07 2.4894624771130127e-07 0.0000000000000000e+00  2.9767118824544740e-07 2.4010581181492097e-07 0.0000000000000000e+00  0.0000000000000000e+00 0.0000000000000000e+00 0.0000000000000000e+00  0.0000000000000000e+00 0.0000000000000000e+00 0.0000000000000000e+00  0.0000000000000000e+00 0.0000000000000000e+00 0.0000000000000000e+00  0.0000000000000000e+00 0.0000000000000000e+00 0.0000000000000000e+00  3.9228617055870262e-07 2.3682373436074269e-07 0.0000000000000000e+00  7.9591836734548407e-02 0.0000000000000000e+00 0.0000000000000000e+00  1.4693877550994527e-01 0.0000000000000000e+00 0.0000000000000000e+00  2.0204081632617479e-01 0.0000000000000000e+00 0.0000000000000000e+00  2.4489795918330076e-01 0.0000000000000000e+00 0.0000000000000000e+00  2.7551020408131754e-01 0.0000000000000000e+00 0.0000000000000000e+00  2.9387755102022350e-01 0.0000000000000000e+00 0.0000000000000000e+00  3.0000000000000004e-01 0.0000000000000000e+00 0.0000000000000000e+00  2.9387755102059482e-01 0.0000000000000000e+00 0.0000000000000000e+00  2.7551020408195548e-01 0.0000000000000000e+00 0.0000000000000000e+00  2.4489795918409071e-01 0.0000000000000000e+00 0.0000000000000000e+00  2.0204081632692525e-01 0.0000000000000000e+00 0.0000000000000000e+00  1.4693877551058568e-01 0.0000000000000000e+00 0.0000000000000000e+00  7.9591836734909230e-02 0.0000000000000000e+00 0.0000000000000000e+00  0.0000000000000000e+00 0.0000000000000000e+00 0.0000000000000000e+00  0.0000000000000000e+00 0.0000000000000000e+00 0.0000000000000000e+00  0.0000000000000000e+00 0.0000000000000000e+00 0.0000000000000000e+00  0.0000000000000000e+00 0.0000000000000000e+00 0.0000000000000000e+00  0.0000000000000000e+00 0.0000000000000000e+00 0.0000000000000000e+00  0.0000000000000000e+00 0.0000000000000000e+00 0.0000000000000000e+00  0.0000000000000000e+00 0.0000000000000000e+00 0.0000000000000000e+00  0.0000000000000000e+00 0.0000000000000000e+00 0.0000000000000000e+00  0.0000000000000000e+00 0.0000000000000000e+00 0.0000000000000000e+00  0.0000000000000000e+00 0.0000000000000000e+00 0.0000000000000000e+00  0.0000000000000000e+00 0.0000000000000000e+00 0.0000000000000000e+00  0.0000000000000000e+00 0.0000000000000000e+00 0.0000000000000000e+00  0.0000000000000000e+00 0.0000000000000000e+00 0.0000000000000000e+00  0.0000000000000000e+00 0.0000000000000000e+00 0.0000000000000000e+00  0.0000000000000000e+00 0.0000000000000000e+00 0.0000000000000000e+00  0.0000000000000000e+00 0.0000000000000000e+00 0.0000000000000000e+00  0.0000000000000000e+00 0.0000000000000000e+00 0.0000000000000000e+00  0.0000000000000000e+00 0.0000000000000000e+00 0.0000000000000000e+00  0.0000000000000000e+00 0.0000000000000000e+00 0.0000000000000000e+00  0.0000000000000000e+00 0.0000000000000000e+00 0.0000000000000000e+00  0.0000000000000000e+00 0.0000000000000000e+00 0.0000000000000000e+00  0.0000000000000000e+00 0.0000000000000000e+00 0.0000000000000000e+00  0.0000000000000000e+00 0.0000000000000000e+00 0.0000000000000000e+00  0.0000000000000000e+00 0.0000000000000000e+00 0.0000000000000000e+00  0.0000000000000000e+00 0.0000000000000000e+00 0.0000000000000000e+00  0.0000000000000000e+00 0.0000000000000000e+00 0.0000000000000000e+00  0.0000000000000000e+00 0.0000000000000000e+00 0.0000000000000000e+00  0.0000000000000000e+00 0.0000000000000000e+00 0.0000000000000000e+00  0.0000000000000000e+00 0.0000000000000000e+00 0.0000000000000000e+00  0.0000000000000000e+00 0.0000000000000000e+00 0.0000000000000000e+00  0.0000000000000000e+00 0.0000000000000000e+00 0.0000000000000000e+00  0.0000000000000000e+00 0.0000000000000000e+00 0.0000000000000000e+00  0.0000000000000000e+00 0.0000000000000000e+00 0.0000000000000000e+00  0.0000000000000000e+00 0.0000000000000000e+00 0.0000000000000000e+00  0.0000000000000000e+00 0.0000000000000000e+00 0.0000000000000000e+00  0.0000000000000000e+00 0.0000000000000000e+00 0.0000000000000000e+00  0.0000000000000000e+00 0.0000000000000000e+00 0.0000000000000000e+00  0.0000000000000000e+00 0.0000000000000000e+00 0.0000000000000000e+00  2.3613630423399873e-01 -7.9761992372207290e-03 0.0000000000000000e+00  3.1685875040570205e-01 -2.0002127859810565e-04 0.0000000000000000e+00  2.3632453660697991e-01 1.1850060330813634e-02 0.0000000000000000e+00  0.0000000000000000e+00 0.0000000000000000e+00 0.0000000000000000e+00  0.0000000000000000e+00 0.0000000000000000e+00 0.0000000000000000e+00  0.0000000000000000e+00 0.0000000000000000e+00 0.0000000000000000e+00  0.0000000000000000e+00 0.0000000000000000e+00 0.0000000000000000e+00  0.0000000000000000e+00 0.0000000000000000e+00 0.0000000000000000e+00  0.0000000000000000e+00 0.0000000000000000e+00 0.0000000000000000e+00  0.0000000000000000e+00 0.0000000000000000e+00 0.0000000000000000e+00  0.0000000000000000e+00 0.0000000000000000e+00 0.0000000000000000e+00  0.0000000000000000e+00 0.0000000000000000e+00 0.0000000000000000e+00  0.0000000000000000e+00 0.0000000000000000e+00 0.0000000000000000e+00  0.0000000000000000e+00 0.0000000000000000e+00 0.0000000000000000e+00  0.0000000000000000e+00 0.0000000000000000e+00 0.0000000000000000e+00  0.0000000000000000e+00 0.0000000000000000e+00 0.0000000000000000e+00  0.0000000000000000e+00 0.0000000000000000e+00 0.0000000000000000e+00  0.0000000000000000e+00 0.0000000000000000e+00 0.0000000000000000e+00  0.0000000000000000e+00 0.0000000000000000e+00 0.0000000000000000e+00  0.0000000000000000e+00 0.0000000000000000e+00 0.0000000000000000e+00  0.0000000000000000e+00 0.0000000000000000e+00 0.0000000000000000e+00  0.0000000000000000e+00 0.0000000000000000e+00 0.0000000000000000e+00  0.0000000000000000e+00 0.0000000000000000e+00 0.0000000000000000e+00  0.0000000000000000e+00 0.0000000000000000e+00 0.0000000000000000e+00  0.0000000000000000e+00 0.0000000000000000e+00 0.0000000000000000e+00  0.0000000000000000e+00 0.0000000000000000e+00 0.0000000000000000e+00  0.0000000000000000e+00 0.0000000000000000e+00 0.0000000000000000e+00  0.0000000000000000e+00 0.0000000000000000e+00 0.0000000000000000e+00  0.0000000000000000e+00 0.0000000000000000e+00 0.0000000000000000e+00  0.0000000000000000e+00 0.0000000000000000e+00 0.0000000000000000e+00  0.0000000000000000e+00 0.0000000000000000e+00 0.0000000000000000e+00  0.0000000000000000e+00 0.0000000000000000e+00 0.0000000000000000e+00  0.0000000000000000e+00 0.0000000000000000e+00 0.0000000000000000e+00  0.0000000000000000e+00 0.0000000000000000e+00 0.0000000000000000e+00  0.0000000000000000e+00 0.0000000000000000e+00 0.0000000000000000e+00  0.0000000000000000e+00 0.0000000000000000e+00 0.0000000000000000e+00  0.0000000000000000e+00 0.0000000000000000e+00 0.0000000000000000e+00  0.0000000000000000e+00 0.0000000000000000e+00 0.0000000000000000e+00  0.0000000000000000e+00 0.0000000000000000e+00 0.0000000000000000e+00  0.0000000000000000e+00 0.0000000000000000e+00 0.0000000000000000e+00  0.0000000000000000e+00 0.0000000000000000e+00 0.0000000000000000e+00  0.0000000000000000e+00 0.0000000000000000e+00 0.0000000000000000e+00  0.0000000000000000e+00 0.0000000000000000e+00 0.0000000000000000e+00  0.0000000000000000e+00 0.0000000000000000e+00 0.0000000000000000e+00  0.0000000000000000e+00 0.0000000000000000e+00 0.0000000000000000e+00  0.0000000000000000e+00 0.0000000000000000e+00 0.0000000000000000e+00  0.0000000000000000e+00 0.0000000000000000e+00 0.0000000000000000e+00  0.0000000000000000e+00 0.0000000000000000e+00 0.0000000000000000e+00  0.0000000000000000e+00 0.0000000000000000e+00 0.0000000000000000e+00  0.0000000000000000e+00 0.0000000000000000e+00 0.0000000000000000e+00  0.0000000000000000e+00 0.0000000000000000e+00 0.0000000000000000e+00  0.0000000000000000e+00 0.0000000000000000e+00 0.0000000000000000e+00  0.0000000000000000e+00 0.0000000000000000e+00 0.0000000000000000e+00  0.0000000000000000e+00 0.0000000000000000e+00 0.0000000000000000e+00  0.0000000000000000e+00 0.0000000000000000e+00 0.0000000000000000e+00  0.0000000000000000e+00 0.0000000000000000e+00 0.0000000000000000e+00  0.0000000000000000e+00 0.0000000000000000e+00 0.0000000000000000e+00  0.0000000000000000e+00 0.0000000000000000e+00 0.0000000000000000e+00  0.0000000000000000e+00 0.0000000000000000e+00 0.0000000000000000e+00  0.0000000000000000e+00 0.0000000000000000e+00 0.0000000000000000e+00  0.0000000000000000e+00 0.0000000000000000e+00 0.0000000000000000e+00  0.0000000000000000e+00 0.0000000000000000e+00 0.0000000000000000e+00  0.0000000000000000e+00 0.0000000000000000e+00 0.0000000000000000e+00  0.0000000000000000e+00 0.0000000000000000e+00 0.0000000000000000e+00  0.0000000000000000e+00 0.0000000000000000e+00 0.0000000000000000e+00  0.0000000000000000e+00 0.0000000000000000e+00 0.0000000000000000e+00  0.0000000000000000e+00 0.0000000000000000e+00 0.0000000000000000e+00  0.0000000000000000e+00 0.0000000000000000e+00 0.0000000000000000e+00  0.0000000000000000e+00 0.0000000000000000e+00 0.0000000000000000e+00  0.0000000000000000e+00 0.0000000000000000e+00 0.0000000000000000e+00  0.0000000000000000e+00 0.0000000000000000e+00 0.0000000000000000e+00  0.0000000000000000e+00 0.0000000000000000e+00 0.0000000000000000e+00  0.0000000000000000e+00 0.0000000000000000e+00 0.0000000000000000e+00  0.0000000000000000e+00 0.0000000000000000e+00 0.0000000000000000e+00  0.0000000000000000e+00 0.0000000000000000e+00 0.0000000000000000e+00  0.0000000000000000e+00 0.0000000000000000e+00 0.0000000000000000e+00  0.0000000000000000e+00 0.0000000000000000e+00 0.0000000000000000e+00  0.0000000000000000e+00 0.0000000000000000e+00 0.0000000000000000e+00  0.0000000000000000e+00 0.0000000000000000e+00 0.0000000000000000e+00  0.0000000000000000e+00 0.0000000000000000e+00 0.0000000000000000e+00  0.0000000000000000e+00 0.0000000000000000e+00 0.0000000000000000e+00  -2.7416644198142331e-09 2.6081982544692097e-09 0.0000000000000000e+00  -6.1786986528997488e-09 3.3002531384096468e-09 0.0000000000000000e+00  -8.1657003664858202e-09 4.3897231329651965e-09 0.0000000000000000e+00  -9.0745229321259318e-09 7.8364090972205436e-09 0.0000000000000000e+00  -7.0352500570384377e-09 1.1712338289993541e-08 0.0000000000000000e+00  -2.5559587519518277e-09 1.8491822194074803e-08 0.0000000000000000e+00  4.5670573354717361e-09 2.6927744123239882e-08 0.0000000000000000e+00  1.4639059793488488e-08 3.7399352567673689e-08 0.0000000000000000e+00  2.6468245270679282e-08 4.9791977684150301e-08 0.0000000000000000e+00  4.0737891326114228e-08 6.2853296334336585e-08 0.0000000000000000e+00  5.6919361993625327e-08 7.7500373378973170e-08 0.0000000000000000e+00  7.4300073235561117e-08 9.1538062758593028e-08 0.0000000000000000e+00  9.3340531436525041e-08 1.0544656998465037e-07 0.0000000000000000e+00  1.1260254964169278e-07 1.1822691524571423e-07 0.0000000000000000e+00  1.3226003124718073e-07 1.2894632024606568e-07 0.0000000000000000e+00  1.5287002816275837e-07 1.3738940390348099e-07 0.0000000000000000e+00  1.7253323470664735e-07 1.4309324802634301e-07 0.0000000000000000e+00  1.9308273792718975e-07 1.4516069027004824e-07 0.0000000000000000e+00  2.1191913191140523e-07 1.4396004097976175e-07 0.0000000000000000e+00  2.3130413899596070e-07 1.3857445884896302e-07 0.0000000000000000e+00  2.4888579314827533e-07 1.2957132595622204e-07 0.0000000000000000e+00  2.6625321252812213e-07 1.1622033049295695e-07 0.0000000000000000e+00  2.8184255866962920e-07 9.9483710723459429e-08 0.0000000000000000e+00  2.9612449602011638e-07 7.8924234968550082e-08 0.0000000000000000e+00  3.1001603175481422e-07 5.5237977189253932e-08 0.0000000000000000e+00  3.2174016260162678e-07 2.9089426306248382e-08 0.0000000000000000e+00  3.3212141622886845e-07 1.2847424565532558e-11 0.0000000000000000e+00  3.4076742505634863e-07 -2.9695375117286984e-08 0.0000000000000000e+00  3.4776153824924840e-07 -6.0923282457668842e-08 0.0000000000000000e+00  3.5311947409761168e-07 -9.1124048649055372e-08 0.0000000000000000e+00  3.5655286151751961e-07 -1.2098081425121505e-07 0.0000000000000000e+00  3.5850230323331171e-07 -1.4779561052918174e-07 0.0000000000000000e+00  3.5840917390961096e-07 -1.7210539547564240e-07 0.0000000000000000e+00  3.5706697481319778e-07 -1.9128203739091405e-07 0.0000000000000000e+00  3.5370607195919477e-07 -2.0579342027739163e-07 0.0000000000000000e+00  3.4955977198208163e-07 -2.1333302042191411e-07 0.0000000000000000e+00  3.4354528570229336e-07 -2.1416009586984662e-07 0.0000000000000000e+00  3.3733172850191502e-07 -2.0656596154561242e-07 0.0000000000000000e+00  3.2966776253779900e-07 -1.9060694311950951e-07 0.0000000000000000e+00  3.2258194331289178e-07 -1.6571455020089767e-07 0.0000000000000000e+00  3.1415159119060909e-07 -1.3075905858511751e-07 0.0000000000000000e+00  3.0815722816600896e-07 -8.8562280093811988e-08 0.0000000000000000e+00  3.0326655435870028e-07 -3.5969513461052048e-08 0.0000000000000000e+00  2.9794009963697986e-07 2.3005042763121436e-08 0.0000000000000000e+00  2.9561764553159791e-07 8.8979341065419609e-08 0.0000000000000000e+00  2.9543260631606470e-07 1.6067254265429436e-07 0.0000000000000000e+00  3.4510764848724558e-07 2.3493315295389576e-07 0.0000000000000000e+00  4.4040341548992280e-07 2.3908187782003158e-07 0.0000000000000000e+00  4.8646491205571762e-07 1.6605493609539549e-07 0.0000000000000000e+00  4.7811206922383341e-07 9.5570367333860163e-08 0.0000000000000000e+00  4.6819137317752658e-07 3.0316513390031891e-08 0.0000000000000000e+00  4.5457863929849872e-07 -2.8775383170444547e-08 0.0000000000000000e+00  4.4149976989408371e-07 -8.1581537052171046e-08 0.0000000000000000e+00  4.2747087359231462e-07 -1.2421573063546853e-07 0.0000000000000000e+00  4.1080481630277923e-07 -1.5898143123781823e-07 0.0000000000000000e+00  3.9669580511685225e-07 -1.8430654919023282e-07 0.0000000000000000e+00  3.7995897452600302e-07 -2.0042378148259119e-07 0.0000000000000000e+00  3.6654406067901868e-07 -2.0784081535066183e-07 0.0000000000000000e+00  3.5123496429970891e-07 -2.0697652370511274e-07 0.0000000000000000e+00  3.3910878151647950e-07 -1.9890493885292674e-07 0.0000000000000000e+00  3.2583321352603637e-07 -1.8421208892156230e-07 0.0000000000000000e+00  3.1532735209600132e-07 -1.6419407437314874e-07 0.0000000000000000e+00  3.0441270923204689e-07 -1.3951729738481838e-07 0.0000000000000000e+00  2.9558105071726057e-07 -1.1154022735220228e-07 0.0000000000000000e+00  2.8693728854087533e-07 -8.1066287728707634e-08 0.0000000000000000e+00  2.7949513618772184e-07 -4.9288735561077129e-08 0.0000000000000000e+00  2.7261227933414551e-07 -1.7191264419200076e-08 0.0000000000000000e+00  2.6603939411187912e-07 1.4452877185796478e-08 0.0000000000000000e+00  2.6027775770562346e-07 4.4622299312042868e-08 0.0000000000000000e+00  2.5396272537731328e-07 7.2963529664747661e-08 0.0000000000000000e+00  2.4833141815781262e-07 9.8558398049045037e-08 0.0000000000000000e+00  2.4178226031154362e-07 1.2126312443404495e-07 0.0000000000000000e+00  2.3458296683177416e-07 1.4007823076117280e-07 0.0000000000000000e+00  2.2783464105226886e-07 1.5562699509847372e-07 0.0000000000000000e+00  2.1955040453427957e-07 1.6720624446229868e-07 0.0000000000000000e+00  2.1078816187459140e-07 1.7441371276832940e-07 0.0000000000000000e+00  2.0060866407409229e-07 1.7825996465211008e-07 0.0000000000000000e+00  1.8960223118418490e-07 1.7772458262939083e-07 0.0000000000000000e+00  1.7725588929930992e-07 1.7424059094398884e-07 0.0000000000000000e+00  1.6410027336260417e-07 1.6695018520382628e-07 0.0000000000000000e+00  1.4960847585996023e-07 1.5732735345620287e-07 0.0000000000000000e+00  1.3418658382096475e-07 1.4509041798295584e-07 0.0000000000000000e+00  1.1827086072011354e-07 1.3116811861283668e-07 0.0000000000000000e+00  1.0200126081679328e-07 1.1572175848992256e-07 0.0000000000000000e+00  8.5488136594040056e-08 9.9775090575633467e-08 0.0000000000000000e+00  6.9728061490995020e-08 8.3117237422545061e-08 0.0000000000000000e+00  5.4574013770357570e-08 6.7219603073945597e-08 0.0000000000000000e+00  4.0847059684935389e-08 5.1645653041762546e-08 0.0000000000000000e+00  2.9340713563965990e-08 3.7490354223473252e-08 0.0000000000000000e+00  1.8835104550129562e-08 2.4733240365733607e-08 0.0000000000000000e+00  1.1403546960414956e-08 1.3598181791418286e-08 0.0000000000000000e+00  6.0590810444106397e-09 6.1140860582818782e-09 0.0000000000000000e+00  2.8016526303301130e-09 4.8368308845312918e-10 0.0000000000000000e+00  9.3493157733029464e-10 -1.4706659375136752e-09 0.0000000000000000e+00  -2.3469689396946499e-10 -1.4969467301782427e-10 0.0000000000000000e+00  3.8677121639702470e-07 1.2474289606386998e-07 0.0000000000000000e+00  3.7949380308125809e-07 -3.2059610327161727e-09 0.0000000000000000e+00  3.6806012253769672e-07 -1.5318422620005510e-07 0.0000000000000000e+00  1.3190598333160577e-09 6.3702911516246062e-09 0.0000000000000000e+00  3.6071200585838009e-07 -2.0217800811005203e-07 0.0000000000000000e+00  1.0324062975828996e-08 2.0778133709495670e-08 0.0000000000000000e+00  3.5249360229038306e-07 -2.1648727898788505e-07 0.0000000000000000e+00  4.3336634167125697e-08 5.9386674712473693e-08 0.0000000000000000e+00  7.2436734878946942e-08 8.8891008677040609e-08 0.0000000000000000e+00  3.4360917755132863e-07 -1.9969580366143899e-07 0.0000000000000000e+00  1.5753385535601913e-07 1.5445878794068542e-07 0.0000000000000000e+00  3.2253628814405369e-07 -1.0274112277682720e-07 0.0000000000000000e+00  1.0456184984774737e-07 1.1822881127295489e-07 0.0000000000000000e+00  1.8867872672974703e-07 1.6353451653591577e-07 0.0000000000000000e+00  3.0956253094967703e-07 -3.9405336941306962e-08 0.0000000000000000e+00  3.3374095091016107e-07 -1.5902820873693354e-07 0.0000000000000000e+00  2.1794089551986313e-07 1.5882555673355496e-07 0.0000000000000000e+00  2.9435954253887254e-07 2.3113320937484286e-08 0.0000000000000000e+00  2.4282838384626524e-07 1.3953507798900639e-07 0.0000000000000000e+00  2.7732404747395905e-07 7.7288353218055748e-08 0.0000000000000000e+00  2.6000172117839255e-07 1.1344655610558934e-07 0.0000000000000000e+00  1.2981595112215706e-07 1.3752223397710039e-07 0.0000000000000000e+00  3.7524370871780316e-07 -8.4599128982355424e-08 0.0000000000000000e+00  2.4158477520548379e-08 3.7543325511959864e-08 0.0000000000000000e+00  4.1413031947641178e-07 5.8908974364553749e-08 0.0000000000000000e+00  1.9526959280356176e-09 2.1634444576967774e-09 0.0000000000000000e+00  3.6151119846791626e-07 -2.1219964744956827e-07 0.0000000000000000e+00  3.7591206708935643e-07 -1.8025976727726126e-07 0.0000000000000000e+00  8.5029563501384023e-10 1.1417357634885487e-08 0.0000000000000000e+00  5.0552349801698193e-08 6.8410716434585757e-08 0.0000000000000000e+00  3.2009670493202923e-07 -1.3087095341676096e-07 0.0000000000000000e+00  3.4732278834614967e-07 -2.1017281144516824e-07 0.0000000000000000e+00  1.7002220691588015e-07 1.5491636823440069e-07 0.0000000000000000e+00  3.0664527333933004e-07 -6.9860050580730514e-08 0.0000000000000000e+00  8.2353289909923343e-08 9.8672023644946320e-08 0.0000000000000000e+00  2.0321796903458481e-07 1.5816675380078147e-07 0.0000000000000000e+00  2.9260272820307632e-07 -5.7909613271805085e-09 0.0000000000000000e+00  3.3354050726915287e-07 -1.8046963881457376e-07 0.0000000000000000e+00  2.3402450786987286e-07 1.4535260751632314e-07 0.0000000000000000e+00  2.7729302951860957e-07 5.4180686485538165e-08 0.0000000000000000e+00  -2.6357668705807448e-10 -3.4776709045627123e-11 0.0000000000000000e+00  4.3143619939835441e-10 -8.7282735794392875e-10 0.0000000000000000e+00  3.6730890372619016e-07 1.8191602024547713e-07 0.0000000000000000e+00  -2.6343449965222913e-09 2.4146845626113362e-09 0.0000000000000000e+00  2.6051316304903287e-07 1.0018126365815379e-07 0.0000000000000000e+00  1.4957092423581