<?xml version="1.0"?>
<VTKFile type="UnstructuredGrid"  version="0.1"  >
<UnstructuredGrid>
<Piece  NumberOfPoints="719" NumberOfCells="1350">
<Points>
<DataArray  type="Float64"  NumberOfComponents="3"  format="ascii">0.4207607463097617 0.19 0  0.4201487168029707 0.1999966199048527 0  0.4261685417851465 0.196409292431739 0  0.5626584888143201 0.21 0  0.5633122436674589 0.1999814296467508 0  0.5571672426447437 0.2036011176410121 0  0.4145905603061963 0.1961819304479011 0  0.4207607463087888 0.21 0  0.4145905603063645 0.2038180695522843 0  0.5626584888145268 0.19 0  0.5688286748170428 0.1961819304477386 0  0.5688286748170693 0.203818069552238 0  0.5571594006495384 0.1963685282145804 0  0.4262598344738712 0.2036568242185335 0  0.6 0.21 0  0.5925316977628483 0.21 0  0.5955705746706843 0.2069223055301326 0  0.6 0.19 0  0.5925316977628897 0.19 0  0.5965740209510578 0.1927759733278094 0  0.5887803774232762 0.2001272386983733 0  0.5815926498168407 0.1966545283159175 0  0.5814408164431408 0.2041285596160068 0  0.5850633955257988 0.19 0  0.5775950932887378 0.19 0  0.5893814947531364 0.2056233639521408 0  0.6 0.2 0  0.6 0.1950000000000217 0  0.594380730180568 0.1966558399668133 0  0.5745072403740523 0.2002044435018727 0  0.446899804139621 0.1999999999998389 0  0.4394315019025246 0.1970915826863714 0  0.4394608940728603 0.2040870543693135 0  0.3946216884789568 0.2000000000001512 0  0.4020059614928624 0.203547899597858 0  0.4019979587101454 0.1959834479682427 0  0.4618364086138087 0.1999999999998546 0  0.4543681063767183 0.1970915826863795 0  0.4543681063761134 0.2040749161535186 0  0.476773013087985 0.1999999999998713 0  0.4693047108508938 0.1970915826863783 0  0.4693047108503577 0.2040749161535231 0  0.4917096175621762 0.1999999999998808 0  0.4842413153250809 0.1970915826863873 0  0.4842413153245942 0.2040749161535287 0  0.5066462220363641 0.199999999999908 0  0.4991779197992749 0.1970915826863902 0  0.4991779197988497 0.2040749161535382 0  0.5215828265105155 0.1999999999999228 0  0.5141145242734466 0.1970915826863843 0  0.5141145242731028 0.2040749161535395 0  0.5365194309847112 0.1999999999999436 0  0.5290511287476175 0.1970915826863981 0  0.5290511287473298 0.2040749161535501 0  0.5511891430099709 0.2001122610077113 0  0.5439877332217911 0.197091582686394 0  0.5439623148931173 0.2040856076781014 0  0.3871533862418661 0.2029084173136212 0  0.3871533862424271 0.1959250838464788 0  0.4089549580935208 0.1998691686391595 0  0.4322718174608562 0.200127451265745 0  0.5327852798661811 0.19 0  0.5253169776290537 0.19 0  0.547721884340339 0.19 0  0.5402535821032429 0.19 0  0.4730388619694271 0.19 0  0.4655705597323621 0.19 0  0.5178486753919799 0.19 0  0.5103803731549078 0.19 0  0.4879754664436223 0.19 0  0.4805071642065402 0.19 0  0.502912070917822 0.19 0  0.4954437686807294 0.19 0  0.4581022574952563 0.19 0  0.4506339552581777 0.19 0  0.3983558395975142 0.21 0  0.4058241418345938 0.21 0  0.4431656530210671 0.19 0  0.4356973507839815 0.19 0  0.5946539510196798 0.2024302972968126 0  0.4132924440726327 0.19 0  0.5701267910514778 0.21 0  0.5701267910515998 0.19 0  0.4132924440716992 0.21 0  0.574400031298126 0.1945411130107761 0  0.5887471324735476 0.1946190227059995 0  0.4282290485468779 0.19 0  0.5551901865771842 0.21 0  0.6 0.2050000000000054 0  0.4468998041387391 0.2056971942287257 0  0.3946216884797873 0.1943028057712679 0  0.4618364086130068 0.2056971942287359 0  0.4767730130872753 0.2056971942287455 0  0.4917096175615203 0.2056971942287492 0  0.5066462220358396 0.2056971942287649 0  0.5215828265100828 0.2056971942287677 0  0.5365194309843644 0.2056971942287865 0  0.5514560354586301 0.2056971942287897 0  0.4319631996644724 0.205697194228716 0  0.5551901865773963 0.19 0  0.4282290485459029 0.21 0  0.5743797868482748 0.2056178169806182 0  0.4090477820585017 0.1944069323162114 0  0.5365194309847112 0.1943028057711659 0  0.5215828265105155 0.1943028057711514 0  0.5511851248594936 0.1945772515115504 0  0.4767730130879849 0.1943028057711153 0  0.4618364086138088 0.1943028057711072 0  0.3908875373604028 0.21 0  0.3946216884789569 0.2056971942288966 0  0.446899804139621 0.194302805771098 0  0.4917096175621761 0.1943028057711214 0  0.5066462220363641 0.1943028057711422 0  0.4322275012857285 0.1945847121082109 0  0.409279320968396 0.2055930218740123 0  0.480507164205851 0.21 0  0.4879754664429498 0.21 0  0.4655705597315852 0.21 0  0.4730388619686996 0.21 0  0.3908875373612097 0.19 0  0.3834192351240934 0.19 0  0.5103803731544119 0.21 0  0.5178486753915261 0.21 0  0.5402535821029386 0.21 0  0.54772188434007 0.21 0  0.4506339552573136 0.21 0  0.4581022574944306 0.21 0  0.4954437686800938 0.21 0  0.502912070917267 0.21 0  0.4058241418354857 0.19 0  0.3983558395983636 0.19 0  0.4356973507830418 0.21 0  0.4431656530201649 0.21 0  0.5253169776286404 0.21 0  0.5327852798657868 0.21 0  0.5775950932886138 0.21 0  0.5850633955257281 0.21 0  1.835188936345112 0.2050000000000699 0  1.838465412967181 0.2953145553852501 0  1.915883512473161 0.2050000000000692 0  1.833166318986108 0.1007828475280248 0  2.383594446803656 0.41 0  2.271253957291315 0.41 0  2.346386298105263 0.3062476289039515 0  0.6300528284996487 0.2292604486710743 0  0.65429728832161 0.2353880751391984 0  0.6456429596876728 0.2209784072651823 0  0.6244559818022579 0.1024805481876779 0  0.6331542554485198 0.1311064488920115 0  0.604876951083344 0.1323679928240978 0  0.5950070799606315 0.1111116928105405 0  0.7179098792074922 0.09515556231434774 0  0.6930564374308674 0.1341308449452096 0  0.6808979566904864 0.09264351137968369 0  1.943162250261133 0.2848182236928814 0  1.943162250261127 0.1251817763071746 0  2.244824738199097 0.3091885999356265 0  0.5022733717445609 0.2484520140959261 0  0.5039200503329727 0.2634569969024956 0  0.4870587955368383 0.2511092200731516 0  0.4543681063767173 0.1676928600783137 0  0.4456512193123995 0.1563006663224736 0  0.4634554111966759 0.156587601803556 0  0.4619845553363554 0.2471559623297018 0  0.4744155700740079 0.2566595549135983 0  0.4718174066442032 0.2448602332187449 0  0.401463131821351 0.2240614152536154 0  0.4020899907160548 0.2165302463955136 0  0.3946216884789568 0.2158195727016258 0  0.5019588293971892 0.1448324961346233 0  0.5202014138752529 0.1378594850692911 0  0.5186581766834214 0.1505504706653799 0  0.5805147821309363 0.1750906865638377 0  0.5830971905392573 0.1610562557540074 0  0.5891905322413319 0.173297484523883 0  1.317087908068179 0.2834507950760127 0  1.416789257258389 0.3075294577736497 0  1.357724299039236 0.2303555143487852 0  2.383594446803425 0 0  2.301748441448983 0.1032848369023014 0  2.415100580332905 0.08367007402675902 0  0.883612004374276 0.2044999257790265 0  0.941405262964606 0.2275541950732263 0  0.8724873572796065 0.2505182730032114 0  0.6580228992389956 0.1177787934340178 0  0.6385847074107548 0.1562173919888177 0  0.6641520523959832 0.1503720468916702 0  1.674965418778818 0.41 0  1.58737143976041 0.41 0  1.617304647871871 0.3102553946317155 0  1.587371439758838 0 0  1.674965418777374 0 0  1.627799041349754 0.08170835291169204 0  0.4991779197992711 0.167693385507626 0  0.4900906149793102 0.1565876018036352 0  0.5082652246192162 0.1565876018036352 0  0.4319631996644723 0.2259854221051505 0  0.4420138570927455 0.2303582032589531 0  0.4274409436629797 0.2358490737568498 0  1.122434100544716 0.41 0  1.068894913355815 0.339699543595371 0  1.154144739340952 0.3428674566149401 0  0.9084404882614506 0.2892191224003848 0  1.215451113850732 0.2103314603357224 0  1.249863529963017 0.2672258935273379 0  1.176331347569866 0.2754551993599315 0  0.5740383564454857 0.232486177523615 0  0.5800331369475803 0.2220172718503647 0  0.5872716114964233 0.2289047791562547 0  0.7101078070491313 0.04593780015520291 0  0.7273492824638629 0.1308306999820452 0  2.01253088870001 0.2050000000000507 0  0.6699818017210338 0.05718888729500279 0  0.589683001657349 0.3059206033515077 0  0.629251049118315 0.3129131677620721 0  0.6129037791821019 0.2898142990521698 0  0.5669464924360815 0.2475839849813879 0  0.5841951273902199 0.2421589553533847 0  0.5209814004512184 0.2362962593649592 0  0.5347760817351684 0.2414500964404198 0  0.5183393333239584 0.2464065549333135 0  0.5461387848636305 0.1174764669537213 0  0.5361687701469152 0.1326608756097835 0  0.5197325460646487 0.1214075108099659 0  0.5857082964501902 0.1444062384003248 0  0.5690392421172527 0.1384821647678796 0  0.5733051421814971 0.1505504706653721 0  0.9882218810956305 0.41 0  0.9246101326886647 0.41 0  0.9513232956593279 0.344238796639219 0  0.5166834276845828 0.2571581640138182 0  0.596265848881445 0.1672046255295837 0  1.419591277297145 0.2050000000000071 0  0.4421897352483806 0.3061937447056332 0  0.418091171977014 0.3243162836372635 0  0.412607471649106 0.2990503898016255 0  0.8632198139519631 0.41 0  0.882513772872486 0.3520608410452225 0  0.8202234869765325 0.364591028094237 0  1.421253448505726 0.41 0  1.355827918100823 0.3414955155607449 0  1.421253448503939 0 0  1.418271536314166 0.09353562972960013 0  1.355827918100725 0.06850448443910542 0  0.7991030424147842 0.1996369747921017 0  0.755404159289092 0.1590232243285952 0  0.7509674852354215 0.2077605643765068 0  0.4953767731769588 0.1188694761679334 0  0.506255180108809 0.1312411055441881 0  0.4787056372270673 0.2371901345199761 0  0.4898985359610427 0.2395108277223441 0  0.8502354418587501 0.1560244879407868 0  0.9215858179635137 0.1737964996919513 0  0.4302139512950107 0.2879708289588951 0  0.9080221499231149 0.1220333110997775 0  0.3909674209965625 0.2226356941037057 0  1.122434100542598 0 0  1.070453094842314 0.06960241275844714 0  1.154904552424504 0.06969164993518225 0  0.5678918321244223 0.2848057098346606 0  0.5916500441695769 0.2809526698769227 0  0.5813292444071699 0.2563523755659055 0  0.5593867837568711 0.2625481287604455 0  0.6158241656144056 0.2465955912391796 0  0.6368758304361363 0.2529361994816268 0  0.5380469068795991 0.270190988877121 0  0.5487739828661812 0.2837987172973246 0  0.4143465137990051 0.053229610117
[...]
<PointData  Vectors="f_42-0"> 
<DataArray  type="Float64"  Name="f_42-0"  NumberOfComponents="3" format="ascii">4.4976682976193181e-06 5.2472841267615244e-05 0.0000000000000000e+00  -3.7916742722752984e-07 5.2141546643917870e-05 0.0000000000000000e+00  1.3740942791227128e-06 5.5108400748644211e-05 0.0000000000000000e+00  -6.1433386545129063e-06 1.2755473146036430e-04 0.0000000000000000e+00  -6.7810622636856505e-07 1.2791551933617491e-04 0.0000000000000000e+00  -2.6417169319327685e-06 1.2456141041496994e-04 0.0000000000000000e+00  1.4687264761495245e-06 4.9442787113770258e-05 0.0000000000000000e+00  -5.2641835584195661e-06 5.2480879676666741e-05 0.0000000000000000e+00  -2.2018503993716622e-06 4.9446206174224171e-05 0.0000000000000000e+00  4.7667248780867136e-06 1.2756745113080007e-04 0.0000000000000000e+00  1.3869680568754606e-06 1.3092953846979510e-04 0.0000000000000000e+00  -2.7804850945749141e-06 1.3092432358172832e-04 0.0000000000000000e+00  1.3008701587248640e-06 1.2456143578725608e-04 0.0000000000000000e+00  -2.2001249730175139e-06 5.5156418997087268e-05 0.0000000000000000e+00  -6.2112876318692149e-06 1.4796711424004563e-04 0.0000000000000000e+00  -6.1966212881012986e-06 1.4387039037045202e-04 0.0000000000000000e+00  -4.5172640392484259e-06 1.4553312612037696e-04 0.0000000000000000e+00  4.7272921559954247e-06 1.4798143549149973e-04 0.0000000000000000e+00  4.7347946248040477e-06 1.4388728184174456e-04 0.0000000000000000e+00  3.2139464227324881e-06 1.4609537766511324e-04 0.0000000000000000e+00  -7.9347921058998669e-07 1.4182554041185748e-04 0.0000000000000000e+00  1.1125566702427231e-06 1.3790071101856888e-04 0.0000000000000000e+00  -2.9699434194230089e-06 1.3781184576707484e-04 0.0000000000000000e+00  4.7432331169258324e-06 1.3980445103768828e-04 0.0000000000000000e+00  4.7512195087969762e-06 1.3572353700544557e-04 0.0000000000000000e+00  -3.7983528841934154e-06 1.4214969484777046e-04 0.0000000000000000e+00  -7.3722162779183436e-07 1.4796005363967792e-04 0.0000000000000000e+00  1.9949198423680874e-06 1.4796481271208502e-04 0.0000000000000000e+00  1.0968177322735353e-06 1.4489033016620978e-04 0.0000000000000000e+00  -8.1652066137654609e-07 1.3402723059083413e-04 0.0000000000000000e+00  -4.4869292224233828e-07 6.5564720409796038e-05 0.0000000000000000e+00  1.0388777891462994e-06 6.1757355434340907e-05 0.0000000000000000e+00  -2.4948985749978045e-06 6.1776408068784560e-05 0.0000000000000000e+00  -3.1458953310550294e-07 4.0037960962876469e-05 0.0000000000000000e+00  -1.9833954316646557e-06 4.3461260754580230e-05 0.0000000000000000e+00  1.5336696648331167e-06 4.3455048811163021e-05 0.0000000000000000e+00  -4.8521024857550726e-07 7.3297788978675429e-05 0.0000000000000000e+00  1.0336727672047297e-06 6.9414942742989464e-05 0.0000000000000000e+00  -2.5703694233524226e-06 6.9417845635617997e-05 0.0000000000000000e+00  -5.2035707359767095e-07 8.1155923899829544e-05 0.0000000000000000e+00  1.0228796143404384e-06 7.7214495561466208e-05 0.0000000000000000e+00  -2.6413304455713714e-06 7.7216246040274120e-05 0.0000000000000000e+00  -5.5390755818091988e-07 8.9109339922724588e-05 0.0000000000000000e+00  1.0077526610993799e-06 8.5123648611305119e-05 0.0000000000000000e+00  -2.7026406401638888e-06 8.5124304773861564e-05 0.0000000000000000e+00  -5.8568502004404194e-07 9.7133257283895923e-05 0.0000000000000000e+00  9.8945945260703621e-07 9.3115144240199204e-05 0.0000000000000000e+00  -2.7554539283785969e-06 9.3114762189809886e-05 0.0000000000000000e+00  -6.1555768747977229e-07 1.0520764299809415e-04 0.0000000000000000e+00  9.6906756428225196e-07 1.0116660862457663e-04 0.0000000000000000e+00  -2.8008987694694721e-06 1.0116524161506866e-04 0.0000000000000000e+00  -6.4343201753945003e-07 1.1331687696570125e-04 0.0000000000000000e+00  9.4753548212841443e-07 1.0926025728343941e-04 0.0000000000000000e+00  -2.8400506872770476e-06 1.0925795428500802e-04 0.0000000000000000e+00  -7.2995102051956185e-07 1.2130380525354752e-04 0.0000000000000000e+00  9.2570360939900953e-07 1.1738252146976820e-04 0.0000000000000000e+00  -2.8796651580979307e-06 1.1736548126281528e-04 0.0000000000000000e+00  -1.5835668797468582e-06 3.6670715984279514e-05 0.0000000000000000e+00  1.5100567765989654e-06 3.6670573460446114e-05 0.0000000000000000e+00  -2.8982217322809250e-07 4.6734518999943238e-05 0.0000000000000000e+00  -4.7547595860883227e-07 5.8146334902744014e-05 0.0000000000000000e+00  4.7921274327199346e-06 1.1129584854446780e-04 0.0000000000000000e+00  4.7958393183396598e-06 1.0724140068344785e-04 0.0000000000000000e+00  4.7809982836842869e-06 1.1942315786810627e-04 0.0000000000000000e+00  4.7870578870168616e-06 1.1535688244168250e-04 0.0000000000000000e+00  4.7558294363129701e-06 7.9197221065663111e-05 0.0000000000000000e+00  4.7358863281295463e-06 7.5269444464585986e-05 0.0000000000000000e+00  4.7979587372346114e-06 1.0319486163184498e-04 0.0000000000000000e+00  4.7980585832933818e-06 9.9158084500112462e-05 0.0000000000000000e+00  4.7829093071401284e-06 8.7126554870944377e-05 0.0000000000000000e+00  4.7713183015499461e-06 8.3150827737635475e-05 0.0000000000000000e+00  4.7958718186313006e-06 9.5132848262845243e-05 0.0000000000000000e+00  4.7909202873665228e-06 9.1121577461461702e-05 0.0000000000000000e+00  4.7111525696029605e-06 7.1370893924892133e-05 0.0000000000000000e+00  4.6810424195655092e-06 6.7505973799413582e-05 0.0000000000000000e+00  -4.9306075534506254e-06 4.1808697537504662e-05 0.0000000000000000e+00  -5.0506463473204597e-06 4.5297047361452878e-05 0.0000000000000000e+00  4.6452033346900774e-06 6.3678673210505336e-05 0.0000000000000000e+00  4.6030382451454241e-06 5.9894089427177455e-05 0.0000000000000000e+00  -2.0592047366122836e-06 1.4503441260591883e-04 0.0000000000000000e+00  4.4339338981996854e-06 4.8847643045458592e-05 0.0000000000000000e+00  -6.1582795906975975e-06 1.3163068470748587e-04 0.0000000000000000e+00  4.7590847567179850e-06 1.3164454348951374e-04 0.0000000000000000e+00  -5.1617430893149548e-06 4.8856753510381431e-05 0.0000000000000000e+00  2.2754870213767051e-06 1.3397334923243910e-04 0.0000000000000000e+00  2.2158526174334642e-06 1.4181277547755205e-04 0.0000000000000000e+00  4.5541295384253134e-06 5.6156895133381252e-05 0.0000000000000000e+00  -6.1270458241346936e-06 1.2348219698535954e-04 0.0000000000000000e+00  -3.4712753000681077e-06 1.4795819200422611e-04 0.0000000000000000e+00  -3.3603608154962265e-06 6.5573941663083085e-05 0.0000000000000000e+00  2.2754845048590114e-06 4.0050622114074114e-05 0.0000000000000000e+00  -3.4523370258519846e-06 7.3304697062395017e-05 0.0000000000000000e+00  -3.5305551676432180e-06 8.1160767783498673e-05 0.0000000000000000e+00  -3.5967268296956966e-06 8.9112358070191034e-05 0.0000000000000000e+00  -3.6525222613389474e-06 9.7134676099139180e-05 0.0000000000000000e+00  -3.6995408107332823e-06 1.0520767307042918e-04 0.0000000000000000e+00  -3.7392724941974428e-06 1.1331570840305157e-04 0.0000000000000000e+00  -3.7730491586253457e-06 1.2144713273523181e-04 0.0000000000000000e+00  -3.2528793707396361e-06 5.8003530598005894e-05 0.0000000000000000e+00  4.7741428646910478e-06 1.2349377608755803e-04 0.0000000000000000e+00  -5.3590855431877294e-06 5.6163865099910284e-05 0.0000000000000000e+00  -3.7724049586311840e-06 1.3395426108452329e-04 0.0000000000000000e+00  2.2998664759475464e-06 4.6789017702751912e-05 0.0000000000000000e+00  2.4516726736274291e-06 1.1332072780503178e-04 0.0000000000000000e+00  2.4676792423095960e-06 1.0521144058884243e-04 0.0000000000000000e+00  2.2846949928113258e-06 1.2130552606606516e-04 0.0000000000000000e+00  2.4890923647672465e-06 8.1160795430167129e-05 0.0000000000000000e+00  2.4811803419120125e-06 7.3303486568987805e-05 0.0000000000000000e+00  -4.8013136647392079e-06 3.8398149662506300e-05 0.0000000000000000e+00  -2.9050482624997745e-06 4.0057387752357152e-05 0.0000000000000000e+00  2.4622589479876082e-06 6.5571498748242412e-05 0.0000000000000000e+00  2.4881575679170174e-06 8.9113629109006275e-05 0.0000000000000000e+00  2.4803992905574859e-06 9.7137194173483528e-05 0.0000000000000000e+00  2.2899907427859426e-06 5.8131329985644857e-05 0.0000000000000000e+00  -3.0066466851983463e-06 4.6904819023964660e-05 0.0000000000000000e+00  -5.8313064059565727e-06 8.3150216296575691e-05 0.0000000000000000e+00  -5.8764597747718422e-06 8.7124918646469063e-05 0.0000000000000000e+00  -5.7262860243135511e-06 7.5270998229676832e-05 0.0000000000000000e+00  -5.7813987684189789e-06 7.9197767567991975e-05 0.0000000000000000e+00  4.1901764906035044e-06 3.8385879857712580e-05 0.0000000000000000e+00  4.0898377491076857e-06 3.5059489234657226e-05 0.0000000000000000e+00  -5.9869571782171766e-06 9.9153117959099117e-05 0.0000000000000000e+00  -6.0167205338569807e-06 1.0318884200215104e-04 0.0000000000000000e+00  -6.0894179158047782e-06 1.1534754535565913e-04 0.0000000000000000e+00  -6.1091518656040269e-06 1.1941273965281907e-04 0.0000000000000000e+00  -5.5989659779727053e-06 6.7509681389009852e-05 0.0000000000000000e+00  -5.6656291797208230e-06 7.1373614360595284e-05 0.0000000000000000e+00  -5.9171835679728716e-06 9.1118790673501191e-05 0.0000000000000000e+00  -5.9539130154124840e-06 9.5129022763145634e-05 0.0000000000000000e+00  4.3617192113221321e-06 4.5286892624579517e-05 0.0000000000000000e+00  4.2805907459959582e-06 4.1797403195953539e-05 0.0000000000000000e+00  -5.4461196656809288e-06 5.9899967006330638e-05 0.0000000000000000e+00  -5.5259518260467271e-06 6.3683558464817624e-05 0.0000000000000000e+00  -6.0434911499984043e-06 1.0723425014166646e-04 0.0000000000000000e+00  -6.0676378439136541e-06 1.1128763328624015e-04 0.0000000000000000e+00  -6.1719195530208000e-06 1.3570852509485156e-04 0.0000000000000000e+00  -6.1844777387168027e-06 1.3978804351022787e-04 0.0000000000000000e+00  2.7741713597367490e-01 -1.9081542141284393e-04 0.0000000000000000e+00  2.4425633014197881e-01 -6.2816229927319158e-05 0.0000000000000000e+00  2.7774816089428023e-01 -5.1747524837226194e-05 0.0000000000000000e+00  2.3038479805690498e-01 -3.7397067242905325e-06 0.0000000000000000e+00  0.0000000000000000e+00 0.0000000000000000e+00 0.0000000000000000e+00  0.0000000000000000e+00 0.0000000000000000e+00 0.0000000000000000e+00  2.3351678940381837e-01 1.7645384382358404e-03 0.0000000000000000e+00  1.3709126285327525e-01 -2.9039844025019954e-02 0.0000000000000000e+00  1.6834909355024297e-01 -2.7913338621200361e-02 0.0000000000000000e+00  1.1003343037576357e-01 -2.2162823087984909e-02 0.0000000000000000e+00  3.0309726806474491e-01 2.2166178844354758e-02 0.0000000000000000e+00  2.7258990314246440e-01 2.7999439540637817e-02 0.0000000000000000e+00  2.7251458477661289e-01 2.3180119922057509e-02 0.0000000000000000e+00  3.0393677041806921e-01 2.0377476347007085e-02 0.0000000000000000e+00  2.7757723428651582e-01 1.8814079497524418e-02 0.0000000000000000e+00  2.5966154008353132e-01 2.7789485226716409e-02 0.0000000000000000e+00  2.8539343208280293e-01 2.0379168833530414e-02 0.0000000000000000e+00  2.5256544468420816e-01 -1.2228577197381487e-04 0.0000000000000000e+00  2.5222132416510373e-01 1.0764704933685584e-04 0.0000000000000000e+00  2.3038759919063717e-01 3.6664539476714695e-04 0.0000000000000000e+00  1.8893329768955761e-01 -8.2090092289725958e-03 0.0000000000000000e+00  2.4253665667266958e-01 -1.2578846052537077e-02 0.0000000000000000e+00  1.9408884559477269e-01 -9.5657519972455959e-03 0.0000000000000000e+00  1.1052425423280297e-01 4.2492234390505189e-03 0.0000000000000000e+00  1.5521237836870519e-01 8.8105965491197293e-03 0.0000000000000000e+00  1.6063390009883863e-01 7.7464289609415985e-03 0.0000000000000000e+00  1.6991883182237005e-01 -9.4282442465140909e-03 0.0000000000000000e+00  2.1040455409433939e-01 -1.2045007397947808e-02 0.0000000000000000e+00  1.6446924258686016e-01 -8.0986578944095416e-03 0.0000000000000000e+00  5.3201472272078464e-02 -2.6914664041369153e-03 0.0000000000000000e+00  2.4907895875009706e-02 -6.0081234965687609e-04 0.0000000000000000e+00  2.0891349391248162e-02 -4.9923703260993432e-04 0.0000000000000000e+00  2.1732861472816709e-01 9.9588925915513171e-03 0.0000000000000000e+00  2.4478378341048618e-01 1.1542275428899421e-02 0.0000000000000000e+00  2.0133955754659053e-01 8.1432159217398482e-03 0.0000000000000000e+00  1.0602650185234884e-01 4.8242294445450633e-03 0.0000000000000000e+00  1.7878076401175669e-01 1.1843203019884356e-02 0.0000000000000000e+00  1.2093467419791255e-01 9.1755012068588711e-03 0.0000000000000000e+00  2.5722488330201759e-01 -2.6048988488763954e-03 0.0000000000000000e+00  2.3564133045769353e-01 -1.2655631922669675e-03 0.0000000000000000e+00  2.7134079204486622e-01 -1.9290125515204787e-03 0.0000000000000000e+00  0.0000000000000000e+00 0.0000000000000000e+00 0.0000000000000000e+00  2.3240112477196892e-01 -7.0142708989194178e-04 0.0000000000000000e+00  2.0783369354554906e-01 -4.1275482338094362e-03 0.0000000000000000e+00  2.1509242034466741e-01 -1.2896691474156509e-03 0.0000000000000000e+00  2.3772692236301216e-01 -5.8806820169086628e-03 0.0000000000000000e+00  2.4897016109065317e-01 -1.1590686979648593e-02 0.0000000000000000e+00  2.8811318069527225e-01 2.6920965782273699e-02 0.0000000000000000e+00  2.0052381578248604e-01 3.1692085880168579e-02 0.0000000000000000e+00  2.2062627238631313e-01 3.0651730406220698e-02 0.0000000000000000e+00  0.0000000000000000e+00 0.0000000000000000e+00 0.0000000000000000e+00  0.0000000000000000e+00 0.0000000000000000e+00 0.0000000000000000e+00  2.3013432369460890e-01 -4.4551632841934198e-04 0.0000000000000000e+00  0.0000000000000000e+00 0.0000000000000000e+00 0.0000000000000000e+00  0.0000000000000000e+00 0.0000000000000000e+00 0.0000000000000000e+00  2.0421865938328121e-01 2.0611930732232424e-04 0.0000000000000000e+00  1.2315503895061324e-01 3.3839405269568768e-03 0.0000000000000000e+00  1.6930668595712581e-01 6.7424324474681637e-03 0.0000000000000000e+00  1.7466989494587357e-01 6.4114249193326003e-03 0.0000000000000000e+00  7.1283435824858798e-02 -2.7517741708723486e-03 0.0000000000000000e+00  9.3258677149836697e-02 -3.9727175529649826e-03 0.0000000000000000e+00  1.1029010377794322e-01 -6.6306794992474442e-03 0.0000000000000000e+00  0.0000000000000000e+00 0.0000000000000000e+00 0.0000000000000000e+00  2.0157743448957369e-01 -1.8928843634103754e-03 0.0000000000000000e+00  1.9021923369412233e-01 -1.5777802819543776e-03 0.0000000000000000e+00  2.7227270823549460e-01 -9.6330736149694701e-03 0.0000000000000000e+00  2.6447603264681657e-01 -1.7368927517916275e-03 0.0000000000000000e+00  2.6446129804955953e-01 -3.4759130121763838e-03 0.0000000000000000e+00  2.6281180286142841e-01 -4.3085127965473312e-03 0.0000000000000000e+00  1.4253706111862738e-01 -6.0354239122295816e-03 0.0000000000000000e+00  8.6072399753143708e-02 -2.7265990921266688e-03 0.0000000000000000e+00  1.2987207197485540e-01 -8.2538001064478665e-03 0.0000000000000000e+00  1.7805515458942259e-01 6.0483699794448530e-03 0.0000000000000000e+00  2.6260277954557965e-01 2.4072379555506004e-02 0.0000000000000000e+00  2.7779091335554018e-01 1.9281278864312305e-05 0.0000000000000000e+00  2.2300943108202811e-01 1.0029524646918777e-02 0.0000000000000000e+00  3.2194860262639502e-01 -1.8678050857277508e-02 0.0000000000000000e+00  3.1246263811474378e-01 -1.9861242739880700e-02 0.0000000000000000e+00  3.1070040753224548e-01 -2.2896588794626204e-02 0.0000000000000000e+00  2.0601517120059826e-01 -1.0335310277645667e-02 0.0000000000000000e+00  1.9049487738170567e-01 -1.2394079231004190e-02 0.0000000000000000e+00  1.4395895260025632e-01 -4.3402425237722090e-03 0.0000000000000000e+00  1.7074007126225713e-01 -6.0074971756831404e-03 0.0000000000000000e+00  1.8599716430117580e-01 -7.3478740126570741e-03 0.0000000000000000e+00  2.9650153644903232e-01 1.5493293999719472e-02 0.0000000000000000e+00  2.6296064055686519e-01 1.2983475427221161e-02 0.0000000000000000e+00  2.8685457822064175e-01 1.4577716289454359e-02 0.0000000000000000e+00  2.4010963044209130e-01 1.7264210759934541e-02 0.0000000000000000e+00  2.5388991315978710e-01 1.4854478448062636e-02 0.0000000000000000e+00  2.1697769105446654e-01 1.2616195584193272e-02 0.0000000000000000e+00  0.0000000000000000e+00 0.0000000000000000e+00 0.0000000000000000e+00  0.0000000000000000e+00 0.0000000000000000e+00 0.0000000000000000e+00  2.0030763152210851e-01 -2.5396946127514155e-03 0.0000000000000000e+00  2.2518762383093430e-01 -1.0566880719056966e-02 0.0000000000000000e+00  1.5543217734353718e-01 1.6593588422273212e-02 0.0000000000000000e+00  2.7289423609998081e-01 -7.8569367779717045e-04 0.0000000000000000e+00  3.3393776757317661e-01 -2.1256681686460555e-02 0.0000000000000000e+00  3.4231640439230565e-01 -2.0250237852460856e-02 0.0000000000000000e+00  3.2612963419883906e-01 -2.4614414969577357e-02 0.0000000000000000e+00  0.0000000000000000e+00 0.0000000000000000e+00 0.0000000000000000e+00  1.8839980186381625e-01 -2.7186982430548786e-03 0.0000000000000000e+00  1.6034873832681579e-01 -2.6289149211678785e-03 0.0000000000000000e+00  0.0000000000000000e+00 0.0000000000000000e+00 0.0000000000000000e+00  1.8601286126128949e-01 -8.7168038361325531e-04 0.0000000000000000e+00  0.0000000000000000e+00 0.0000000000000000e+00 0.0000000000000000e+00  2.2151448187403106e-01 6.6749431819456426e-04 0.0000000000000000e+00  1.8410686296097425e-01 4.7095217668137164e-04 0.0000000000000000e+00  1.8090733064096493e-01 1.1654750249403896e-03 0.0000000000000000e+00  2.1398024746096769e-01 1.9301277538956874e-02 0.0000000000000000e+00  1.6094400394854544e-01 -3.4730311935228558e-03 0.0000000000000000e+00  2.8945133863100470e-01 1.5626994827885082e-02 0.0000000000000000e+00  2.6092802215593786e-01 1.3209416531145129e-02 0.0000000000000000e+00  1.3511249758068941e-01 -5.2048005640914644e-03 0.0000000000000000e+00  1.4865821039640870e-01 -5.6594549443768688e-03 0.0000000000000000e+00  2.3476325263696624e-01 1.2020521938188415e-02 0.0000000000000000e+00  2.3089670749084751e-01 5.5308701693505703e-03 0.0000000000000000e+00  3.0090482108833749e-01 -2.2906179598479418e-02 0.0000000000000000e+00  2.5796620375777241e-01 9.1653296621169895e-03 0.0000000000000000e+00  4.4244692996419255e-02 -2.3691755934670722e-03 0.0000000000000000e+00  0.0000000000000000e+00 0.0000000000000000e+00 0.0000000000000000e+00  1.9452296720124662e-01 1.5520093947442607e-03 0.0000000000000000e+00  1.9101399144676925e-01 1.1848518872000135e-03 0.0000000000000000e+00  3.0563350268362405e-01 -1.7791359753406719e-02 0.0000000000000000e+00  3.0031951557006886e-01 -2.0557602649462152e-02 0.0000000000000000e+00  2.4062583679686941e-01 -1.5652398507156766e-02 0.0000000000000000e+00  2.5393108318451313e-01 -1.3635800877117878e-02 0.0000000000000000e+00  2.1148436858479130e-01 -2.5923428757288262e-02 0.0000000000000000e+00  2.3145130766903324e-01 -2.9343280749668830e-02 0.0000000000000000e+00  2.7049139192662236e-01 -1.3986366363061191e-02 0.0000000000000000e+00  3.0253546057657882e-01 -1.6387795312493805e-02 0.0000000000000000e+00  2.7788108257713934e-01 1.2442396266727046e-02 0.0000000000000000e+00  2.1182751163870869e-01 7.5185022797393105e-03 0.0000000000000000e+00  3.2873849786065129e-01 2.0097686165515036e-02 0.0000000000000000e+00  2.5633482693886367e-01 -1.4978362248946185e-02 0.0000000000000000e+00  1.5164785098771025e-01 -1.0323231490145066e-03 0.0000000000000000e+00  3.2293546133095313e-01 -1.4394289185567802e-02 0.0000000000000000e+00  2.9044017921015147e-01 -1.0375596251826286e-02 0.0000000000000000e+00  3.2989845979256138e-01 -1.5624315477722837e-02 0.0000000000000000e+00  0.0000000000000000e+00 0.0000000000000000e+00 0.0000000000000000e+00  2.5016744497056659e-01 -7.9099078577116472e-03 0.0000000000000000e+00  3.1539612513631116e-01 -1.9446411142738210e-02 0.0000000000000000e+00  2.8101050777931919e-01 -1.9950755133374982e-02 0.0000000000000000e+00  0.0000000000000000e+00 0.0000000000000000e+00 0.0000000000000000e+00  5.3788804367699346e-02 -5.8918801994684369e-04 0.0000000000000000e+00  5.0778502298094060e-02 1.3752282978471088e-03 0.0000000000000000e