<?xml version="1.0"?>
<VTKFile type="UnstructuredGrid"  version="0.1"  >
<UnstructuredGrid>
<Piece  NumberOfPoints="1419" NumberOfCells="2698">
<Points>
<DataArray  type="Float64"  NumberOfComponents="3"  format="ascii">0 0 0  0 0.41 0  2.5 0 0  2.5 0.41 0  0.6 0.19 0  0.6 0.21 0  0.25 0.2 0  0.15 0.2 0  0.2489897948556636 0.21 0  0.2489897948556636 0.19 0  0.6 0.2 0  0 0.3807142857143437 0  0 0.3514285714286952 0  0 0.3221428571430699 0  0 0.29285714285744 0  0 0.2635714285718054 0  0 0.2342857142861561 0  0 0.2050000000005308 0  0 0.175714285714732 0  0 0.1464285714289574 0  0 0.1171428571431897 0  0 0.08785714285737878 0  0 0.05857142857161107 0  0 0.02928571428580012 0  0.03015443760436003 0 0  0.06140001986583606 0 0  0.09377624077125973 0 0  0.1273239957535082 0 0  0.1620856860351972 0 0  0.1981052433264291 0 0  0.235428184091502 0 0  0.2741016576309132 0 0  0.3141745521465447 0 0  0.3556974926295285 0 0  0.3987229542472677 0 0  0.4433053055141081 0 0  0.4895008759286886 0 0  0.5373680609405097 0 0  0.5869673343216626 0 0  0.6383613676634521 0 0  0.6916151138468254 0 0  0.7467958595648856 0 0  0.8039733463919316 0 0  0.8632198139502143 0 0  0.9246101326867038 0 0  0.9882218810934433 0 0  1.054135445558498 0 0  1.122434100542598 0 0  1.193204177141305 0 0  1.266535089879536 0 0  1.342519516046404 0 0  1.421253448503939 0 0  1.502836389106271 0 0  1.587371439758838 0 0  1.674965418777374 0 0  1.765729001825544 0 0  1.859776908880082 0 0  1.957227977487062 0 0  2.058205329869943 0 0  2.162836591189951 0 0  2.271253957290865 0 0  2.383594446803425 0 0  2.5 0.1024999999997612 0  2.5 0.2049999999994743 0  2.5 0.3074999999997183 0  2.383594446803656 0.41 0  2.271253957291315 0.41 0  2.162836591190598 0.41 0  2.058205329870775 0.41 0  1.957227977488067 0.41 0  1.859776908881246 0.41 0  1.765729001826854 0.41 0  1.674965418778818 0.41 0  1.58737143976041 0.41 0  1.502836389107956 0.41 0  1.421253448505726 0.41 0  1.342519516048286 0.41 0  1.266535089881505 0.41 0  1.193204177143353 0.41 0  1.122434100544716 0.41 0  1.05413544556068 0.41 0  0.9882218810956305 0.41 0  0.9246101326886647 0.41 0  0.8632198139519631 0.41 0  0.8039733463934788 0.41 0  0.7467958595662458 0.41 0  0.6916151138480078 0.41 0  0.6383613676644679 0.41 0  0.5869673343225223 0.41 0  0.5373680609412221 0.41 0  0.4895008759292634 0.41 0  0.4433053055145528 0.41 0  0.3987229542475914 0.41 0  0.3556974926297398 0.41 0  0.3141745521466497 0.41 0  0.2741016576310038 0.41 0  0.2354281840915826 0.41 0  0.1981052433265003 0.41 0  0.1620856860352591 0.41 0  0.1273239957535623 0.41 0  0.09377624077128965 0.41 0  0.06140001986584975 0.41 0  0.03015443760436654 0.41 0  0.2497468076502589 0.2050254481002335 0  0.2497468076502614 0.1949745518997913 0  0.2469965252529372 0.1829317073451959 0  0.2439893735792749 0.1762316384219906 0  0.2400332147834255 0.1700443375285386 0  0.2352133972704371 0.1645032867342007 0  0.2296339016332438 0.1597280261969788 0  0.2234150974217223 0.1558215752574715 0  0.2166911463437691 0.1528682099456123 0  0.2096071079204251 0.1509316448471593 0  0.2023158100364996 0.1500536585536553 0  0.194974551899914 0.1502531923497262 0  0.1877417105387872 0.1515259415822739 0  0.1807733240461124 0.153844448527136 0  0.1742197252835808 0.15715869474974 0  0.1682222986673531 0.1613971801805478 0  0.162910430003803 0.1664684656256651 0  0.1583987151779087 0.1722631454351573 0  0.1547844879126891 0.178656207771761 0  0.1521457199348551 0.1855097315605723 0  0.1505393388476355 0.1926758619366523 0  0.1505393388476328 0.2073241380633295 0  0.1521457199348437 0.2144902684393899 0  0.1547844879126531 0.221343792228163 0  0.1583987151778488 0.2277368545647528 0  0.1629104300036858 0.2335315343742052 0  0.1682222986671726 0.2386028198193036 0  0.1742197252833576 0.2428413052501257 0  0.1807733240458683 0.2461555514727623 0  0.1877417105384929 0.2484740584176516 0  0.1949745518995776 0.2497468076502398 0  0.202315810036185 0.2499463414463592 0  0.2096071079201568 0.2490683551528932 0  0.2166911463435495 0.2471317900544655 0  0.2234150974215506 0.2441784247426195 0  0.2296339016331197 0.2402719738031125 0  0.2352133972703547 0.2354967132658811 0  0.2400332147833751 0.2299556624715287 0  0.2439893735792577 0.2237683615780412 0  0.246996525252926 0.2170682926548348 0  0.25645809709277 0.21 0  0.2639263993298655 0.21 0  0.271394701566961 0.21 0  0.2788630038040554 0.21 0  0.2863313060411479 0.21 0  0.2937996082782405 0.21 0  0.301267910515333 0.21 0  0.3087362127524279 0.21 0  0.3162045149895234 0.21 0  0.3236728172265972 0.21 0  0.3311411194636928 0.21 0  0.3386094217007701 0.21 0  0.3460777239378666 0.21 0  0.3535460261749672 0.21 0  0.3610143284120516 0.21 0  0.3684826306491596 0.21 0  0.3759509328862226 0.21 0  0.383419235123329 0.21 0  0.3908875373604028 0.21 0  0.3983558395975142 0.21 0  0.4058241418345938 0.21 0  0.4132924440716992 0.21 0  0.4207607463087888 0.21 0  0.4282290485459029 0.21 0  0.4356973507830418 0.21 0  0.4431656530201649 0.21 0  0.4506339552573136 0.21 0  0.4581022574944306 0.21 0  0.4655705597315852 0.21 0  0.4730388619686996 0.21 0  0.480507164205851 0.21 0  0.4879754664429498 0.21 0  0.4954437686800938 0.21 0  0.502912070917267 0.21 0  0.5103803731544119 0.21 0  0.5178486753915261 0.21 0  0.5253169776286404 0.21 0  0.5327852798657868 0.21 0  0.5402535821029386 0.21 0  0.54772188434007 0.21 0  0.5551901865771842 0.21 0  0.5626584888143201 0.21 0  0.5701267910514778 0.21 0  0.5775950932886138 0.21 0  0.5850633955257281 0.21 0  0.5925316977628483 0.21 0  0.6 0.2050000000000054 0  0.6 0.1950000000000217 0  0.5925316977628897 0.19 0  0.5850633955257988 0.19 0  0.5775950932887378 0.19 0  0.5701267910515998 0.19 0  0.5626584888145268 0.19 0  0.5551901865773963 0.19 0  0.547721884340339 0.19 0  0.5402535821032429 0.19 0  0.5327852798661811 0.19 0  0.5253169776290537 0.19 0  0.5178486753919799 0.19 0  0.5103803731549078 0.19 0  0.502912070917822 0.19 0  0.4954437686807294 0.19 0  0.4879754664436223 0.19 0  0.4805071642065402 0.19 0  0.4730388619694271 0.19 0  0.4655705597323621 0.19 0  0.4581022574952563 0.19 0  0.4506339552581777 0.19 0  0.4431656530210671 0.19 0  0.4356973507839815 0.19 0  0.4282290485468779 0.19 0  0.4207607463097617 0.19 0  0.4132924440726327 0.19 0  0.4058241418354857 0.19 0  0.3983558395983636 0.19 0  0.3908875373612097 0.19 0  0.3834192351240934 0.19 0  0.3759509328869369 0.19 0  0.3684826306498175 0.19 0  0.361014328412667 0.19 0  0.3535460261755617 0.19 0  0.3460777239384295 0.19 0  0.3386094217012945 0.19 0  0.3311411194641595 0.19 0  0.3236728172270245 0.19 0  0.3162045149898895 0.19 0  0.3087362127527544 0.19 0  0.3012679105156187 0.19 0  0.2937996082784807 0.19 0  0.2863313060413428 0.19 0  0.2788630038042048 0.19 0  0.2713947015670686 0.19 0  0.2639263993299336 0.19 0  0.2564580970927985 0.19 0  0.2607803159922026 0.2000727136295815 0  0.5887803774232762 0.2001272386983733 0  0.5745072403740523 0.2002044435018727 0  0.5511891430099709 0.2001122610077113 0  0.2751288526855082 0.20000000000002 0  0.5365194309847112 0.1999999999999436 0  0.2894621222999649 0.1998691686390484 0  0.5215828265105155 0.1999999999999228 0  0.3127789816668748 0.1998657885438805 0  0.3274069683451451 0.2000000000000796 0  0.5066462220363641 0.199999999999908 0  0.3650630746574081 0.199866017807523 0  0.476773013087985 0.1999999999998713 0  0.3417402379596385 0.1998691686391011 0  0.3796850840047755 0.200000000000134 0  0.4618364086138087 0.1999999999998546 0  0.4917096175621762 0.1999999999998808 0  0.3946216884789568 0.2000000000001512 0  0.446899804139621 0.1999999999998389 0  0.4089549580935208 0.1998691686391595 0  0.4322718174608562 0.200127451265745 0  0.4201487168029707 0.1999966199048527 0  0.3528922713220932 0.2000185703532356 0  0.5633122436674589 0.1999814296467508 0  0.3006558810093873 0.1999966199048318 0  0.5815926498168407 0.1966545283159175 0  0.2677053789419034 0.1964246479135325 0  0.5290511287476175 0.1970915826863981 0  0.5439877332217911 0.197091582686394 0  0.2825131256993216 0.2035478995978015 0  0.3199386661080599 0.202908417313604 0  0.4842413153250809 0.1970915826863873 0  0.5141145242734466 0.1970915826863843 0  0.3722167817676917 0.2029084173136195 0  0.4693047108508938 0.1970915826863783 0  0.3348752705822316 0.202908417313609 0  0.3871533862418661 0.2029084173136212 0  0.4543681063767183 0.1970915826863795 0  0.4991779197992749 0.1970915826863902 0  0.4020059614928624 0.203547899597858 0  0.4394315019025246 0.1970915826863714 0  0.2550657455369551 0.2034088125358657 0  0.2548908499171161 0.1966940311614271 0  0.5946539510196798 0.2024302972968126 0  0.267698176732111 0.2039977513680092 0  0.4261685417851465 0.196409292431739 0  0.3590076176283495 0.196411355804271 0  0.5571672426447437 0.2036011176410121 0  0.3066757059912147 0.1964092924317024 0  0.594380730180568 0.1966558399668133 0  0.4842413153245942 0.2040749161535287 0  0.4693047108503577 0.2040749161535231 0  0.3871533862424271 0.1959250838464788 0  0.372246743208829 0.1959123236376545 0  0.5141145242731028 0.2040749161535395 0  0.4543681063761134 0.2040749161535186 0  0.4019979587101454 0.1959834479682427 0  0.4394608940728603 0.2040870543693135 0  0.5439623148931173 0.2040856076781014 0  0.5290511287473298 0.2040749161535501 0  0.4991779197988497 0.2040749161535382 0  0.3347912413592433 0.1959225448935183 0  0.3199680582793816 0.1959123018030061 0  0.2825051229162361 0.1959834479681729 0  0.3590471196690275 0.2036304442587945 0  0.5571594006495384 0.1963685282145804 0  0.3067669986803285 0.203627750582736 0  0.4262598344738712 0.2036568242185335 0  0.5814408164431408 0.2041285596160068 0  0.5688286748170428 0.1961819304477386 0  0.4145905603063645 0.2038180695522843 0  0.3473758401724931 0.2038180695522752 0  0.2950977245128307 0.2038180695522663 0  0.5688286748170693 0.203818069552238 0  0.2950977245127906 0.1961819304477774 0  0.3473758401723931 0.1961819304478349 0  0.4145905603061963 0.1961819304479011 0  0.2601812407614425 0.2056861609747042
[...]
<PointData  Vectors="f_40-0"> 
<DataArray  type="Float64"  Name="f_40-0"  NumberOfComponents="3" format="ascii">0.0000000000000000e+00 0.0000000000000000e+00 0.0000000000000000e+00  0.0000000000000000e+00 0.0000000000000000e+00 0.0000000000000000e+00  0.0000000000000000e+00 0.0000000000000000e+00 0.0000000000000000e+00  0.0000000000000000e+00 0.0000000000000000e+00 0.0000000000000000e+00  -2.2777174855706336e-07 1.1067966223856036e-05 0.0000000000000000e+00  -7.0058110516442358e-07 1.1072207574545987e-05 0.0000000000000000e+00  0.0000000000000000e+00 0.0000000000000000e+00 0.0000000000000000e+00  0.0000000000000000e+00 0.0000000000000000e+00 0.0000000000000000e+00  0.0000000000000000e+00 0.0000000000000000e+00 0.0000000000000000e+00  0.0000000000000000e+00 0.0000000000000000e+00 0.0000000000000000e+00  -4.6082985410455894e-07 1.1063578419341181e-05 0.0000000000000000e+00  7.9591836734548407e-02 0.0000000000000000e+00 0.0000000000000000e+00  1.4693877550994527e-01 0.0000000000000000e+00 0.0000000000000000e+00  2.0204081632617479e-01 0.0000000000000000e+00 0.0000000000000000e+00  2.4489795918330076e-01 0.0000000000000000e+00 0.0000000000000000e+00  2.7551020408131754e-01 0.0000000000000000e+00 0.0000000000000000e+00  2.9387755102022350e-01 0.0000000000000000e+00 0.0000000000000000e+00  3.0000000000000004e-01 0.0000000000000000e+00 0.0000000000000000e+00  2.9387755102059482e-01 0.0000000000000000e+00 0.0000000000000000e+00  2.7551020408195548e-01 0.0000000000000000e+00 0.0000000000000000e+00  2.4489795918409071e-01 0.0000000000000000e+00 0.0000000000000000e+00  2.0204081632692525e-01 0.0000000000000000e+00 0.0000000000000000e+00  1.4693877551058568e-01 0.0000000000000000e+00 0.0000000000000000e+00  7.9591836734909230e-02 0.0000000000000000e+00 0.0000000000000000e+00  0.0000000000000000e+00 0.0000000000000000e+00 0.0000000000000000e+00  0.0000000000000000e+00 0.0000000000000000e+00 0.0000000000000000e+00  0.0000000000000000e+00 0.0000000000000000e+00 0.0000000000000000e+00  0.0000000000000000e+00 0.0000000000000000e+00 0.0000000000000000e+00  0.0000000000000000e+00 0.0000000000000000e+00 0.0000000000000000e+00  0.0000000000000000e+00 0.0000000000000000e+00 0.0000000000000000e+00  0.0000000000000000e+00 0.0000000000000000e+00 0.0000000000000000e+00  0.0000000000000000e+00 0.0000000000000000e+00 0.0000000000000000e+00  0.0000000000000000e+00 0.0000000000000000e+00 0.0000000000000000e+00  0.0000000000000000e+00 0.0000000000000000e+00 0.0000000000000000e+00  0.0000000000000000e+00 0.0000000000000000e+00 0.0000000000000000e+00  0.0000000000000000e+00 0.0000000000000000e+00 0.0000000000000000e+00  0.0000000000000000e+00 0.0000000000000000e+00 0.0000000000000000e+00  0.0000000000000000e+00 0.0000000000000000e+00 0.0000000000000000e+00  0.0000000000000000e+00 0.0000000000000000e+00 0.0000000000000000e+00  0.0000000000000000e+00 0.0000000000000000e+00 0.0000000000000000e+00  0.0000000000000000e+00 0.0000000000000000e+00 0.0000000000000000e+00  0.0000000000000000e+00 0.0000000000000000e+00 0.0000000000000000e+00  0.0000000000000000e+00 0.0000000000000000e+00 0.0000000000000000e+00  0.0000000000000000e+00 0.0000000000000000e+00 0.0000000000000000e+00  0.0000000000000000e+00 0.0000000000000000e+00 0.0000000000000000e+00  0.0000000000000000e+00 0.0000000000000000e+00 0.0000000000000000e+00  0.0000000000000000e+00 0.0000000000000000e+00 0.0000000000000000e+00  0.0000000000000000e+00 0.0000000000000000e+00 0.0000000000000000e+00  0.0000000000000000e+00 0.0000000000000000e+00 0.0000000000000000e+00  0.0000000000000000e+00 0.0000000000000000e+00 0.0000000000000000e+00  0.0000000000000000e+00 0.0000000000000000e+00 0.0000000000000000e+00  0.0000000000000000e+00 0.0000000000000000e+00 0.0000000000000000e+00  0.0000000000000000e+00 0.0000000000000000e+00 0.0000000000000000e+00  0.0000000000000000e+00 0.0000000000000000e+00 0.0000000000000000e+00  0.0000000000000000e+00 0.0000000000000000e+00 0.0000000000000000e+00  0.0000000000000000e+00 0.0000000000000000e+00 0.0000000000000000e+00  0.0000000000000000e+00 0.0000000000000000e+00 0.0000000000000000e+00  0.0000000000000000e+00 0.0000000000000000e+00 0.0000000000000000e+00  0.0000000000000000e+00 0.0000000000000000e+00 0.0000000000000000e+00  0.0000000000000000e+00 0.0000000000000000e+00 0.0000000000000000e+00  0.0000000000000000e+00 0.0000000000000000e+00 0.0000000000000000e+00  0.0000000000000000e+00 0.0000000000000000e+00 0.0000000000000000e+00  2.3733717077868965e-01 -7.7267114566499529e-03 0.0000000000000000e+00  3.1442168252097913e-01 2.8556286785661985e-04 0.0000000000000000e+00  2.3726559038889311e-01 1.1865991872301097e-02 0.0000000000000000e+00  0.0000000000000000e+00 0.0000000000000000e+00 0.0000000000000000e+00  0.0000000000000000e+00 0.0000000000000000e+00 0.0000000000000000e+00  0.0000000000000000e+00 0.0000000000000000e+00 0.0000000000000000e+00  0.0000000000000000e+00 0.0000000000000000e+00 0.0000000000000000e+00  0.0000000000000000e+00 0.0000000000000000e+00 0.0000000000000000e+00  0.0000000000000000e+00 0.0000000000000000e+00 0.0000000000000000e+00  0.0000000000000000e+00 0.0000000000000000e+00 0.0000000000000000e+00  0.0000000000000000e+00 0.0000000000000000e+00 0.0000000000000000e+00  0.0000000000000000e+00 0.0000000000000000e+00 0.0000000000000000e+00  0.0000000000000000e+00 0.0000000000000000e+00 0.0000000000000000e+00  0.0000000000000000e+00 0.0000000000000000e+00 0.0000000000000000e+00  0.0000000000000000e+00 0.0000000000000000e+00 0.0000000000000000e+00  0.0000000000000000e+00 0.0000000000000000e+00 0.0000000000000000e+00  0.0000000000000000e+00 0.0000000000000000e+00 0.0000000000000000e+00  0.0000000000000000e+00 0.0000000000000000e+00 0.0000000000000000e+00  0.0000000000000000e+00 0.0000000000000000e+00 0.0000000000000000e+00  0.0000000000000000e+00 0.0000000000000000e+00 0.0000000000000000e+00  0.0000000000000000e+00 0.0000000000000000e+00 0.0000000000000000e+00  0.0000000000000000e+00 0.0000000000000000e+00 0.0000000000000000e+00  0.0000000000000000e+00 0.0000000000000000e+00 0.0000000000000000e+00  0.0000000000000000e+00 0.0000000000000000e+00 0.0000000000000000e+00  0.0000000000000000e+00 0.0000000000000000e+00 0.0000000000000000e+00  0.0000000000000000e+00 0.0000000000000000e+00 0.0000000000000000e+00  0.0000000000000000e+00 0.0000000000000000e+00 0.0000000000000000e+00  0.0000000000000000e+00 0.0000000000000000e+00 0.0000000000000000e+00  0.0000000000000000e+00 0.0000000000000000e+00 0.0000000000000000e+00  0.0000000000000000e+00 0.0000000000000000e+00 0.0000000000000000e+00  0.0000000000000000e+00 0.0000000000000000e+00 0.0000000000000000e+00  0.0000000000000000e+00 0.0000000000000000e+00 0.0000000000000000e+00  0.0000000000000000e+00 0.0000000000000000e+00 0.0000000000000000e+00  0.0000000000000000e+00 0.0000000000000000e+00 0.0000000000000000e+00  0.0000000000000000e+00 0.0000000000000000e+00 0.0000000000000000e+00  0.0000000000000000e+00 0.0000000000000000e+00 0.0000000000000000e+00  0.0000000000000000e+00 0.0000000000000000e+00 0.0000000000000000e+00  0.0000000000000000e+00 0.0000000000000000e+00 0.0000000000000000e+00  0.0000000000000000e+00 0.0000000000000000e+00 0.0000000000000000e+00  0.0000000000000000e+00 0.0000000000000000e+00 0.0000000000000000e+00  0.0000000000000000e+00 0.0000000000000000e+00 0.0000000000000000e+00  0.0000000000000000e+00 0.0000000000000000e+00 0.0000000000000000e+00  0.0000000000000000e+00 0.0000000000000000e+00 0.0000000000000000e+00  0.0000000000000000e+00 0.0000000000000000e+00 0.0000000000000000e+00  0.0000000000000000e+00 0.0000000000000000e+00 0.0000000000000000e+00  0.0000000000000000e+00 0.0000000000000000e+00 0.0000000000000000e+00  0.0000000000000000e+00 0.0000000000000000e+00 0.0000000000000000e+00  0.0000000000000000e+00 0.0000000000000000e+00 0.0000000000000000e+00  0.0000000000000000e+00 0.0000000000000000e+00 0.0000000000000000e+00  0.0000000000000000e+00 0.0000000000000000e+00 0.0000000000000000e+00  0.0000000000000000e+00 0.0000000000000000e+00 0.0000000000000000e+00  0.0000000000000000e+00 0.0000000000000000e+00 0.0000000000000000e+00  0.0000000000000000e+00 0.0000000000000000e+00 0.0000000000000000e+00  0.0000000000000000e+00 0.0000000000000000e+00 0.0000000000000000e+00  0.0000000000000000e+00 0.0000000000000000e+00 0.0000000000000000e+00  0.0000000000000000e+00 0.0000000000000000e+00 0.0000000000000000e+00  0.0000000000000000e+00 0.0000000000000000e+00 0.0000000000000000e+00  0.0000000000000000e+00 0.0000000000000000e+00 0.0000000000000000e+00  0.0000000000000000e+00 0.0000000000000000e+00 0.0000000000000000e+00  0.0000000000000000e+00 0.0000000000000000e+00 0.0000000000000000e+00  0.0000000000000000e+00 0.0000000000000000e+00 0.0000000000000000e+00  0.0000000000000000e+00 0.0000000000000000e+00 0.0000000000000000e+00  0.0000000000000000e+00 0.0000000000000000e+00 0.0000000000000000e+00  0.0000000000000000e+00 0.0000000000000000e+00 0.0000000000000000e+00  0.0000000000000000e+00 0.0000000000000000e+00 0.0000000000000000e+00  0.0000000000000000e+00 0.0000000000000000e+00 0.0000000000000000e+00  0.0000000000000000e+00 0.0000000000000000e+00 0.0000000000000000e+00  0.0000000000000000e+00 0.0000000000000000e+00 0.0000000000000000e+00  0.0000000000000000e+00 0.0000000000000000e+00 0.0000000000000000e+00  0.0000000000000000e+00 0.0000000000000000e+00 0.0000000000000000e+00  0.0000000000000000e+00 0.0000000000000000e+00 0.0000000000000000e+00  0.0000000000000000e+00 0.0000000000000000e+00 0.0000000000000000e+00  0.0000000000000000e+00 0.0000000000000000e+00 0.0000000000000000e+00  0.0000000000000000e+00 0.0000000000000000e+00 0.0000000000000000e+00  0.0000000000000000e+00 0.0000000000000000e+00 0.0000000000000000e+00  0.0000000000000000e+00 0.0000000000000000e+00 0.0000000000000000e+00  0.0000000000000000e+00 0.0000000000000000e+00 0.0000000000000000e+00  0.0000000000000000e+00 0.0000000000000000e+00 0.0000000000000000e+00  0.0000000000000000e+00 0.0000000000000000e+00 0.0000000000000000e+00  0.0000000000000000e+00 0.0000000000000000e+00 0.0000000000000000e+00  0.0000000000000000e+00 0.0000000000000000e+00 0.0000000000000000e+00  -2.9907120609678827e-08 2.4481506534028616e-08 0.0000000000000000e+00  -6.2917709268643710e-08 6.3099331087537901e-08 0.0000000000000000e+00  -9.2381764687078786e-08 1.2540406394868613e-07 0.0000000000000000e+00  -1.2496681288893068e-07 2.1065471898211301e-07 0.0000000000000000e+00  -1.5436281098919619e-07 3.1593917701732229e-07 0.0000000000000000e+00  -1.8942898722800417e-07 4.4051203525185549e-07 0.0000000000000000e+00  -2.2060019069006864e-07 5.7961220649670292e-07 0.0000000000000000e+00  -2.5357575966566519e-07 7.3732640994063188e-07 0.0000000000000000e+00  -2.9127562182411562e-07 9.0860882893913118e-07 0.0000000000000000e+00  -3.2471187069211539e-07 1.0948442208264820e-06 0.0000000000000000e+00  -3.6380301604385248e-07 1.2945911523296592e-06 0.0000000000000000e+00  -3.9786430245342090e-07 1.5082803816161378e-06 0.0000000000000000e+00  -4.3600383405156405e-07 1.7346906601376245e-06 0.0000000000000000e+00  -4.6991048868650419e-07 1.9720091816479532e-06 0.0000000000000000e+00  -5.0318728846478450e-07 2.2230404511492731e-06 0.0000000000000000e+00  -5.3847318247205996e-07 2.4846174781895016e-06 0.0000000000000000e+00  -5.6872656533758484e-07 2.7569209219571978e-06 0.0000000000000000e+00  -6.0096970748931088e-07 3.0402458414897539e-06 0.0000000000000000e+00  -6.2798286446113390e-07 3.3325151887289120e-06 0.0000000000000000e+00  -6.5589780766515764e-07 3.6340990182759668e-06 0.0000000000000000e+00  -6.7959236368835441e-07 3.9430979448460569e-06 0.0000000000000000e+00  -7.0241926578777520e-07 4.2596844606372043e-06 0.0000000000000000e+00  -7.2182541406902767e-07 4.5810333285294503e-06 0.0000000000000000e+00  -7.3887555390701640e-07 4.9078118346357103e-06 0.0000000000000000e+00  -7.5463040577024286e-07 5.2378055847152727e-06 0.0000000000000000e+00  -7.6704679763935990e-07 5.5695137447131133e-06 0.0000000000000000e+00  -7.7706439863868875e-07 5.9030973324691939e-06 0.0000000000000000e+00  -7.8464729925754304e-07 6.2349444023967893e-06 0.0000000000000000e+00  -7.8958313507838702e-07 6.5659760087204385e-06 0.0000000000000000e+00  -7.9250715622324829e-07 6.8925462944849010e-06 0.0000000000000000e+00  -7.9265425393408932e-07 7.2154132896383357e-06 0.0000000000000000e+00  -7.9125703744058266e-07 7.5311416132766035e-06 0.0000000000000000e+00  -7.8716395577974768e-07 7.8403206244021412e-06 0.0000000000000000e+00  -7.8205436218678213e-07 8.1400438357242757e-06 0.0000000000000000e+00  -7.7450687270825888e-07 8.4307756278922074e-06 0.0000000000000000e+00  -7.6665377210119632e-07 8.7103427467876637e-06 0.0000000000000000e+00  -7.5676823914594980e-07 8.9790169849687242e-06 0.0000000000000000e+00  -7.4734698282665841e-07 9.2355672814675913e-06 0.0000000000000000e+00  -7.3654453061717788e-07 9.4800829530902340e-06 0.0000000000000000e+00  -7.2707847317863527e-07 9.7127392966495434e-06 0.0000000000000000e+00  -7.1640038146074330e-07 9.9323480698377812e-06 0.0000000000000000e+00  -7.0914117283106084e-07 1.0142244867123154e-05 0.0000000000000000e+00  -7.0353980706088653e-07 1.0340930206447300e-05 0.0000000000000000e+00  -6.9760971074416616e-07 1.0531487193619614e-05 0.0000000000000000e+00  -6.9542816338413276e-07 1.0713952724956243e-05 0.0000000000000000e+00  -6.9566736760419078e-07 1.0890995113311583e-05 0.0000000000000000e+00  -5.7991558760624154e-07 1.1064696768998926e-05 0.0000000000000000e+00  -3.4278786124659081e-07 1.1061823433268068e-05 0.0000000000000000e+00  -2.2174835899790130e-07 1.0887191302638723e-05 0.0000000000000000e+00  -2.1162093383459136e-07 1.0709182249690593e-05 0.0000000000000000e+00  -1.9970307127813739e-07 1.0525540982172641e-05 0.0000000000000000e+00  -1.8314312336297682e-07 1.0335261184010587e-05 0.0000000000000000e+00  -1.6698825097633715e-07 1.0136702371682219e-05 0.0000000000000000e+00  -1.4917161265507371e-07 9.9272190900779618e-06 0.0000000000000000e+00  -1.2758569825574212e-07 9.7071103248270688e-06 0.0000000000000000e+00  -1.0875557239529812e-07 9.4749671915237052e-06 0.0000000000000000e+00  -8.5687723604855991e-08 9.2305873096149948e-06 0.0000000000000000e+00  -6.6670190083149110e-08 8.9738356382080426e-06 0.0000000000000000e+00  -4.4073017144579070e-08 8.7050970805766273e-06 0.0000000000000000e+00  -2.5735749149629901e-08 8.4249801956292930e-06 0.0000000000000000e+00  -4.6571984321215262e-09 8.1340612867878822e-06 0.0000000000000000e+00  1.2271225675192372e-08 7.8334815477368015e-06 0.0000000000000000e+00  3.0950715648894698e-08 7.5239478179871214e-06 0.0000000000000000e+00  4.5967499152001261e-08 7.2070122958375733e-06 0.0000000000000000e+00  6.1744505679827471e-08 6.8835654889572698e-06 0.0000000000000000e+00  7.4673314086928209e-08 6.5553534731344742e-06 0.0000000000000000e+00  8.7473538128315696e-08 6.2234930760688939e-06 0.0000000000000000e+00  9.8397330448611264e-08 5.8896386226397784e-06 0.0000000000000000e+00  1.0832593546576415e-07 5.5549857817352307e-06 0.0000000000000000e+00  1.1747497179552947e-07 5.2210140531625631e-06 0.0000000000000000e+00  1.2499139905474223e-07 4.8891031750896903e-06 0.0000000000000000e+00  1.3243149388300579e-07 4.5601460518392733e-06 0.0000000000000000e+00  1.3949780510973122e-07 4.2366762330506493e-06 0.0000000000000000e+00  1.4453697962785742e-07 3.9177672556963055e-06 0.0000000000000000e+00  1.5016141434433793e-07 3.6062833387408129e-06 0.0000000000000000e+00  1.5447937067520166e-07 3.3025522095939227e-06 0.0000000000000000e+00  1.5937791949125630e-07 3.0076939894125217e-06 0.0000000000000000e+00  1.6311891918746630e-07 2.7226329489319913e-06 0.0000000000000000e+00  1.6751120317688398e-07 2.4477232633601725e-06 0.0000000000000000e+00  1.6951222045650546e-07 2.1853705819724364e-06 0.0000000000000000e+00  1.7373289074436626e-07 1.9330125705371540e-06 0.0000000000000000e+00  1.7769312479642088e-07 1.6952206276600981e-06 0.0000000000000000e+00  1.7824096767337155e-07 1.4678757150693655e-06 0.0000000000000000e+00  1.7934946110545465e-07 1.2559786089738865e-06 0.0000000000000000e+00  1.7780843015571369e-07 1.0572285653816273e-06 0.0000000000000000e+00  1.7549337036060552e-07 8.7385271344138622e-07 0.0000000000000000e+00  1.6773837248485594e-07 7.0687873972738289e-07 0.0000000000000000e+00  1.6108428796774125e-07 5.5386715899879794e-07 0.0000000000000000e+00  1.5096517669322056e-07 4.2041788495741580e-07 0.0000000000000000e+00  1.3369405507994368e-07 3.0106032574133910e-07 0.0000000000000000e+00  1.1509908036663217e-07 2.0261928923288129e-07 0.0000000000000000e+00  8.8813639821903787e-08 1.2252651654637885e-07 0.0000000000000000e+00  6.3200481034626556e-08 6.4355249368810983e-08 0.0000000000000000e+00  3.0336039884371169e-08 2.6716886046351208e-08 0.0000000000000000e+00  -1.1322758117941540e-09 2.8479759762403345e-08 0.0000000000000000e+00  -4.5810637289011568e-07 1.0801763836318893e-05 0.0000000000000000e+00  -4.5141826118262924e-07 1.0455216930394499e-05 0.0000000000000000e+00  -4.3318916755492270e-07 9.8203051178103484e-06 0.0000000000000000e+00  -4.2647369087376570e-09 1.4924613898707347e-07 0.0000000000000000e+00  -4.1935305099164138e-07 9.3639789184669409e-06 0.0000000000000000e+00  -1.3269260814333310e-08 3.4508946184298130e-07 0.0000000000000000e+00  -4.0830711814698701e-07 8.8504867983940465e-06 0.0000000000000000e+00  -4.8913377265168204e-08 8.0146249401373789e-07 0.0000000000000000e+00  -8.4000394208570651e-08 1.1649728866548721e-06 0.0000000000000000e+00  -3.9641179258182352e-07 8.2898899208458140e-06 0.0000000000000000e+00  -1.7219981740799099e-07 2.3371836823440886e-06 0.0000000000000000e+00  -3.6883853358760696e-07 7.0536453195579621e-06 0.0000000000000000e+00  -1.1486240173095965e-07 1.5726236621715509e-06 0.0000000000000000e+00  -2.1156380593884169e-07 2.8742900683203959e-06 0.0000000000000000e+00  -3.5240729401374464e-07 6.3969066995507827e-06 0.0000000000000000e+00  -3.8336903212945713e-07 7.6881137579511333e-06 0.0000000000000000e+00  -2.4439843306508376e-07 3.4624417870092972e-06 0.0000000000000000e+00  -3.3364168942605509e-07 5.7291942705541720e-06 0.0000000000000000e+00  -2.6751711936236295e-07 4.0583780976583246e-06 0.0000000000000000e+00  -3.1822340503914024e-07 5.0755910068409105e-06 0.0000000000000000e+00  -2.9258193494937032e-07 4.5416930952496876e-06 0.0000000000000000e+00  -1.4725321656109497e-07 1.9254701064298432e-06 0.0000000000000000e+00  -4.3792985485187586e-07 1.0161289228174390e-05 0.0000000000000000e+00  -3.0836568897521578e-08 5.4690265532711555e-07 0.0000000000000000e+00  -3.6866424612269634e-07 1.0628576020452066e-05 0.0000000000000000e+00  2.5808000307934399e-08 7.9219491763595448e-08 0.0000000000000000e+00  -3.1568989998249892e-07 9.1114908795921772e-06 0.0000000000000000e+00  -3.3532661704009408e-07 9.6002732036971747e-06 0.0000000000000000e+00  -5.5195401962756836e-08 2.4559468642845952e-07 0.0000000000000000e+00  -1.3770688057624529e-07 9.7904646336576191e-07 0.0000000000000000e+00  -2.5573857443680097e-07 7.3725205853694679e-06 0.0000000000000000e+00  -2.9561250201630947e-07 8.5739068669969030e-06 0.0000000000000000e+00  -2.9870545944538332e-07 2.6009273203140234e-06 0.0000000000000000e+00  -2.3613337460343029e-07 6.7254685833504780e-06 0.0000000000000000e+00  -1.8282846222155418e-07 1.3782448298207879e-06 0.0000000000000000e+00  -3.4034824561431968e-07 3.1690388182534078e-06 0.0000000000000000e+00  -2.1647015277707435e-07 6.0616902997395118e-06 0.0000000000000000e+00  -2.7555412038527396e-07 7.9918404471533157e-06 0.0000000000000000e+00  -4.0372138447651004e-07 3.7716066466559836e-06 0.0000000000000000e+00  -1.9636441544516636e-07 5.3924990396818616e-06 0.0000000000000000e+00  -5.7509496511623974e-09 6.5697684384229481e-09 0.0000000000000000e+00  4.1272599552877426e-09 6.4499017743176401e-09 0.0000000000000000e+00  -5.1608292044248303e-07 1.0938911734727996e-05 0.0000000000000000e+00  -3.2492083819976135e-08 7.9682606675869942e-08 0.0000000000000000e+00  -1.4828896441780682e-07 4.80199393438491