<?xml version="1.0"?>
<VTKFile type="UnstructuredGrid"  version="0.1"  >
<UnstructuredGrid>
<Piece  NumberOfPoints="1419" NumberOfCells="2698">
<Points>
<DataArray  type="Float64"  NumberOfComponents="3"  format="ascii">0 0 0  0 0.41 0  2.5 0 0  2.5 0.41 0  0.6 0.19 0  0.6 0.21 0  0.25 0.2 0  0.15 0.2 0  0.2489897948556636 0.21 0  0.2489897948556636 0.19 0  0.6 0.2 0  0 0.3807142857143437 0  0 0.3514285714286952 0  0 0.3221428571430699 0  0 0.29285714285744 0  0 0.2635714285718054 0  0 0.2342857142861561 0  0 0.2050000000005308 0  0 0.175714285714732 0  0 0.1464285714289574 0  0 0.1171428571431897 0  0 0.08785714285737878 0  0 0.05857142857161107 0  0 0.02928571428580012 0  0.03015443760436003 0 0  0.06140001986583606 0 0  0.09377624077125973 0 0  0.1273239957535082 0 0  0.1620856860351972 0 0  0.1981052433264291 0 0  0.235428184091502 0 0  0.2741016576309132 0 0  0.3141745521465447 0 0  0.3556974926295285 0 0  0.3987229542472677 0 0  0.4433053055141081 0 0  0.4895008759286886 0 0  0.5373680609405097 0 0  0.5869673343216626 0 0  0.6383613676634521 0 0  0.6916151138468254 0 0  0.7467958595648856 0 0  0.8039733463919316 0 0  0.8632198139502143 0 0  0.9246101326867038 0 0  0.9882218810934433 0 0  1.054135445558498 0 0  1.122434100542598 0 0  1.193204177141305 0 0  1.266535089879536 0 0  1.342519516046404 0 0  1.421253448503939 0 0  1.502836389106271 0 0  1.587371439758838 0 0  1.674965418777374 0 0  1.765729001825544 0 0  1.859776908880082 0 0  1.957227977487062 0 0  2.058205329869943 0 0  2.162836591189951 0 0  2.271253957290865 0 0  2.383594446803425 0 0  2.5 0.1024999999997612 0  2.5 0.2049999999994743 0  2.5 0.3074999999997183 0  2.383594446803656 0.41 0  2.271253957291315 0.41 0  2.162836591190598 0.41 0  2.058205329870775 0.41 0  1.957227977488067 0.41 0  1.859776908881246 0.41 0  1.765729001826854 0.41 0  1.674965418778818 0.41 0  1.58737143976041 0.41 0  1.502836389107956 0.41 0  1.421253448505726 0.41 0  1.342519516048286 0.41 0  1.266535089881505 0.41 0  1.193204177143353 0.41 0  1.122434100544716 0.41 0  1.05413544556068 0.41 0  0.9882218810956305 0.41 0  0.9246101326886647 0.41 0  0.8632198139519631 0.41 0  0.8039733463934788 0.41 0  0.7467958595662458 0.41 0  0.6916151138480078 0.41 0  0.6383613676644679 0.41 0  0.5869673343225223 0.41 0  0.5373680609412221 0.41 0  0.4895008759292634 0.41 0  0.4433053055145528 0.41 0  0.3987229542475914 0.41 0  0.3556974926297398 0.41 0  0.3141745521466497 0.41 0  0.2741016576310038 0.41 0  0.2354281840915826 0.41 0  0.1981052433265003 0.41 0  0.1620856860352591 0.41 0  0.1273239957535623 0.41 0  0.09377624077128965 0.41 0  0.06140001986584975 0.41 0  0.03015443760436654 0.41 0  0.2497468076502589 0.2050254481002335 0  0.2497468076502614 0.1949745518997913 0  0.2469965252529372 0.1829317073451959 0  0.2439893735792749 0.1762316384219906 0  0.2400332147834255 0.1700443375285386 0  0.2352133972704371 0.1645032867342007 0  0.2296339016332438 0.1597280261969788 0  0.2234150974217223 0.1558215752574715 0  0.2166911463437691 0.1528682099456123 0  0.2096071079204251 0.1509316448471593 0  0.2023158100364996 0.1500536585536553 0  0.194974551899914 0.1502531923497262 0  0.1877417105387872 0.1515259415822739 0  0.1807733240461124 0.153844448527136 0  0.1742197252835808 0.15715869474974 0  0.1682222986673531 0.1613971801805478 0  0.162910430003803 0.1664684656256651 0  0.1583987151779087 0.1722631454351573 0  0.1547844879126891 0.178656207771761 0  0.1521457199348551 0.1855097315605723 0  0.1505393388476355 0.1926758619366523 0  0.1505393388476328 0.2073241380633295 0  0.1521457199348437 0.2144902684393899 0  0.1547844879126531 0.221343792228163 0  0.1583987151778488 0.2277368545647528 0  0.1629104300036858 0.2335315343742052 0  0.1682222986671726 0.2386028198193036 0  0.1742197252833576 0.2428413052501257 0  0.1807733240458683 0.2461555514727623 0  0.1877417105384929 0.2484740584176516 0  0.1949745518995776 0.2497468076502398 0  0.202315810036185 0.2499463414463592 0  0.2096071079201568 0.2490683551528932 0  0.2166911463435495 0.2471317900544655 0  0.2234150974215506 0.2441784247426195 0  0.2296339016331197 0.2402719738031125 0  0.2352133972703547 0.2354967132658811 0  0.2400332147833751 0.2299556624715287 0  0.2439893735792577 0.2237683615780412 0  0.246996525252926 0.2170682926548348 0  0.25645809709277 0.21 0  0.2639263993298655 0.21 0  0.271394701566961 0.21 0  0.2788630038040554 0.21 0  0.2863313060411479 0.21 0  0.2937996082782405 0.21 0  0.301267910515333 0.21 0  0.3087362127524279 0.21 0  0.3162045149895234 0.21 0  0.3236728172265972 0.21 0  0.3311411194636928 0.21 0  0.3386094217007701 0.21 0  0.3460777239378666 0.21 0  0.3535460261749672 0.21 0  0.3610143284120516 0.21 0  0.3684826306491596 0.21 0  0.3759509328862226 0.21 0  0.383419235123329 0.21 0  0.3908875373604028 0.21 0  0.3983558395975142 0.21 0  0.4058241418345938 0.21 0  0.4132924440716992 0.21 0  0.4207607463087888 0.21 0  0.4282290485459029 0.21 0  0.4356973507830418 0.21 0  0.4431656530201649 0.21 0  0.4506339552573136 0.21 0  0.4581022574944306 0.21 0  0.4655705597315852 0.21 0  0.4730388619686996 0.21 0  0.480507164205851 0.21 0  0.4879754664429498 0.21 0  0.4954437686800938 0.21 0  0.502912070917267 0.21 0  0.5103803731544119 0.21 0  0.5178486753915261 0.21 0  0.5253169776286404 0.21 0  0.5327852798657868 0.21 0  0.5402535821029386 0.21 0  0.54772188434007 0.21 0  0.5551901865771842 0.21 0  0.5626584888143201 0.21 0  0.5701267910514778 0.21 0  0.5775950932886138 0.21 0  0.5850633955257281 0.21 0  0.5925316977628483 0.21 0  0.6 0.2050000000000054 0  0.6 0.1950000000000217 0  0.5925316977628897 0.19 0  0.5850633955257988 0.19 0  0.5775950932887378 0.19 0  0.5701267910515998 0.19 0  0.5626584888145268 0.19 0  0.5551901865773963 0.19 0  0.547721884340339 0.19 0  0.5402535821032429 0.19 0  0.5327852798661811 0.19 0  0.5253169776290537 0.19 0  0.5178486753919799 0.19 0  0.5103803731549078 0.19 0  0.502912070917822 0.19 0  0.4954437686807294 0.19 0  0.4879754664436223 0.19 0  0.4805071642065402 0.19 0  0.4730388619694271 0.19 0  0.4655705597323621 0.19 0  0.4581022574952563 0.19 0  0.4506339552581777 0.19 0  0.4431656530210671 0.19 0  0.4356973507839815 0.19 0  0.4282290485468779 0.19 0  0.4207607463097617 0.19 0  0.4132924440726327 0.19 0  0.4058241418354857 0.19 0  0.3983558395983636 0.19 0  0.3908875373612097 0.19 0  0.3834192351240934 0.19 0  0.3759509328869369 0.19 0  0.3684826306498175 0.19 0  0.361014328412667 0.19 0  0.3535460261755617 0.19 0  0.3460777239384295 0.19 0  0.3386094217012945 0.19 0  0.3311411194641595 0.19 0  0.3236728172270245 0.19 0  0.3162045149898895 0.19 0  0.3087362127527544 0.19 0  0.3012679105156187 0.19 0  0.2937996082784807 0.19 0  0.2863313060413428 0.19 0  0.2788630038042048 0.19 0  0.2713947015670686 0.19 0  0.2639263993299336 0.19 0  0.2564580970927985 0.19 0  0.2607803159922026 0.2000727136295815 0  0.5887803774232762 0.2001272386983733 0  0.5745072403740523 0.2002044435018727 0  0.5511891430099709 0.2001122610077113 0  0.2751288526855082 0.20000000000002 0  0.5365194309847112 0.1999999999999436 0  0.2894621222999649 0.1998691686390484 0  0.5215828265105155 0.1999999999999228 0  0.3127789816668748 0.1998657885438805 0  0.3274069683451451 0.2000000000000796 0  0.5066462220363641 0.199999999999908 0  0.3650630746574081 0.199866017807523 0  0.476773013087985 0.1999999999998713 0  0.3417402379596385 0.1998691686391011 0  0.3796850840047755 0.200000000000134 0  0.4618364086138087 0.1999999999998546 0  0.4917096175621762 0.1999999999998808 0  0.3946216884789568 0.2000000000001512 0  0.446899804139621 0.1999999999998389 0  0.4089549580935208 0.1998691686391595 0  0.4322718174608562 0.200127451265745 0  0.4201487168029707 0.1999966199048527 0  0.3528922713220932 0.2000185703532356 0  0.5633122436674589 0.1999814296467508 0  0.3006558810093873 0.1999966199048318 0  0.5815926498168407 0.1966545283159175 0  0.2677053789419034 0.1964246479135325 0  0.5290511287476175 0.1970915826863981 0  0.5439877332217911 0.197091582686394 0  0.2825131256993216 0.2035478995978015 0  0.3199386661080599 0.202908417313604 0  0.4842413153250809 0.1970915826863873 0  0.5141145242734466 0.1970915826863843 0  0.3722167817676917 0.2029084173136195 0  0.4693047108508938 0.1970915826863783 0  0.3348752705822316 0.202908417313609 0  0.3871533862418661 0.2029084173136212 0  0.4543681063767183 0.1970915826863795 0  0.4991779197992749 0.1970915826863902 0  0.4020059614928624 0.203547899597858 0  0.4394315019025246 0.1970915826863714 0  0.2550657455369551 0.2034088125358657 0  0.2548908499171161 0.1966940311614271 0  0.5946539510196798 0.2024302972968126 0  0.267698176732111 0.2039977513680092 0  0.4261685417851465 0.196409292431739 0  0.3590076176283495 0.196411355804271 0  0.5571672426447437 0.2036011176410121 0  0.3066757059912147 0.1964092924317024 0  0.594380730180568 0.1966558399668133 0  0.4842413153245942 0.2040749161535287 0  0.4693047108503577 0.2040749161535231 0  0.3871533862424271 0.1959250838464788 0  0.372246743208829 0.1959123236376545 0  0.5141145242731028 0.2040749161535395 0  0.4543681063761134 0.2040749161535186 0  0.4019979587101454 0.1959834479682427 0  0.4394608940728603 0.2040870543693135 0  0.5439623148931173 0.2040856076781014 0  0.5290511287473298 0.2040749161535501 0  0.4991779197988497 0.2040749161535382 0  0.3347912413592433 0.1959225448935183 0  0.3199680582793816 0.1959123018030061 0  0.2825051229162361 0.1959834479681729 0  0.3590471196690275 0.2036304442587945 0  0.5571594006495384 0.1963685282145804 0  0.3067669986803285 0.203627750582736 0  0.4262598344738712 0.2036568242185335 0  0.5814408164431408 0.2041285596160068 0  0.5688286748170428 0.1961819304477386 0  0.4145905603063645 0.2038180695522843 0  0.3473758401724931 0.2038180695522752 0  0.2950977245128307 0.2038180695522663 0  0.5688286748170693 0.203818069552238 0  0.2950977245127906 0.1961819304477774 0  0.3473758401723931 0.1961819304478349 0  0.4145905603061963 0.1961819304479011 0  0.2601812407614425 0.2056861609747042
[...]
<PointData  Vectors="f_40-1"> 
<DataArray  type="Float64"  Name="f_40-1"  NumberOfComponents="3" format="ascii">0.0000000000000000e+00 0.0000000000000000e+00 0.0000000000000000e+00  0.0000000000000000e+00 0.0000000000000000e+00 0.0000000000000000e+00  0.0000000000000000e+00 0.0000000000000000e+00 0.0000000000000000e+00  0.0000000000000000e+00 0.0000000000000000e+00 0.0000000000000000e+00  3.0145417130297780e-06 2.9525543788661885e-07 0.0000000000000000e+00  3.0331581861367486e-06 -4.2753399809301403e-07 0.0000000000000000e+00  0.0000000000000000e+00 0.0000000000000000e+00 0.0000000000000000e+00  0.0000000000000000e+00 0.0000000000000000e+00 0.0000000000000000e+00  0.0000000000000000e+00 0.0000000000000000e+00 0.0000000000000000e+00  0.0000000000000000e+00 0.0000000000000000e+00 0.0000000000000000e+00  2.9474297874028934e-06 -6.5051719769737252e-08 0.0000000000000000e+00  0.0000000000000000e+00 0.0000000000000000e+00 0.0000000000000000e+00  0.0000000000000000e+00 0.0000000000000000e+00 0.0000000000000000e+00  0.0000000000000000e+00 0.0000000000000000e+00 0.0000000000000000e+00  0.0000000000000000e+00 0.0000000000000000e+00 0.0000000000000000e+00  0.0000000000000000e+00 0.0000000000000000e+00 0.0000000000000000e+00  0.0000000000000000e+00 0.0000000000000000e+00 0.0000000000000000e+00  0.0000000000000000e+00 0.0000000000000000e+00 0.0000000000000000e+00  0.0000000000000000e+00 0.0000000000000000e+00 0.0000000000000000e+00  0.0000000000000000e+00 0.0000000000000000e+00 0.0000000000000000e+00  0.0000000000000000e+00 0.0000000000000000e+00 0.0000000000000000e+00  0.0000000000000000e+00 0.0000000000000000e+00 0.0000000000000000e+00  0.0000000000000000e+00 0.0000000000000000e+00 0.0000000000000000e+00  0.0000000000000000e+00 0.0000000000000000e+00 0.0000000000000000e+00  0.0000000000000000e+00 0.0000000000000000e+00 0.0000000000000000e+00  0.0000000000000000e+00 0.0000000000000000e+00 0.0000000000000000e+00  0.0000000000000000e+00 0.0000000000000000e+00 0.0000000000000000e+00  0.0000000000000000e+00 0.0000000000000000e+00 0.0000000000000000e+00  0.0000000000000000e+00 0.0000000000000000e+00 0.0000000000000000e+00  0.0000000000000000e+00 0.0000000000000000e+00 0.0000000000000000e+00  0.0000000000000000e+00 0.0000000000000000e+00 0.0000000000000000e+00  0.0000000000000000e+00 0.0000000000000000e+00 0.0000000000000000e+00  0.0000000000000000e+00 0.0000000000000000e+00 0.0000000000000000e+00  0.0000000000000000e+00 0.0000000000000000e+00 0.0000000000000000e+00  0.0000000000000000e+00 0.0000000000000000e+00 0.0000000000000000e+00  0.0000000000000000e+00 0.0000000000000000e+00 0.0000000000000000e+00  0.0000000000000000e+00 0.0000000000000000e+00 0.0000000000000000e+00  0.0000000000000000e+00 0.0000000000000000e+00 0.0000000000000000e+00  0.0000000000000000e+00 0.0000000000000000e+00 0.0000000000000000e+00  0.0000000000000000e+00 0.0000000000000000e+00 0.0000000000000000e+00  0.0000000000000000e+00 0.0000000000000000e+00 0.0000000000000000e+00  0.0000000000000000e+00 0.0000000000000000e+00 0.0000000000000000e+00  0.0000000000000000e+00 0.0000000000000000e+00 0.0000000000000000e+00  0.0000000000000000e+00 0.0000000000000000e+00 0.0000000000000000e+00  0.0000000000000000e+00 0.0000000000000000e+00 0.0000000000000000e+00  0.0000000000000000e+00 0.0000000000000000e+00 0.0000000000000000e+00  0.0000000000000000e+00 0.0000000000000000e+00 0.0000000000000000e+00  0.0000000000000000e+00 0.0000000000000000e+00 0.0000000000000000e+00  0.0000000000000000e+00 0.0000000000000000e+00 0.0000000000000000e+00  0.0000000000000000e+00 0.0000000000000000e+00 0.0000000000000000e+00  0.0000000000000000e+00 0.0000000000000000e+00 0.0000000000000000e+00  0.0000000000000000e+00 0.0000000000000000e+00 0.0000000000000000e+00  0.0000000000000000e+00 0.0000000000000000e+00 0.0000000000000000e+00  0.0000000000000000e+00 0.0000000000000000e+00 0.0000000000000000e+00  0.0000000000000000e+00 0.0000000000000000e+00 0.0000000000000000e+00  0.0000000000000000e+00 0.0000000000000000e+00 0.0000000000000000e+00  0.0000000000000000e+00 0.0000000000000000e+00 0.0000000000000000e+00  0.0000000000000000e+00 0.0000000000000000e+00 0.0000000000000000e+00  0.0000000000000000e+00 0.0000000000000000e+00 0.0000000000000000e+00  0.0000000000000000e+00 0.0000000000000000e+00 0.0000000000000000e+00  0.0000000000000000e+00 0.0000000000000000e+00 0.0000000000000000e+00  0.0000000000000000e+00 0.0000000000000000e+00 0.0000000000000000e+00  0.0000000000000000e+00 0.0000000000000000e+00 0.0000000000000000e+00  0.0000000000000000e+00 0.0000000000000000e+00 0.0000000000000000e+00  0.0000000000000000e+00 0.0000000000000000e+00 0.0000000000000000e+00  0.0000000000000000e+00 0.0000000000000000e+00 0.0000000000000000e+00  0.0000000000000000e+00 0.0000000000000000e+00 0.0000000000000000e+00  0.0000000000000000e+00 0.0000000000000000e+00 0.0000000000000000e+00  0.0000000000000000e+00 0.0000000000000000e+00 0.0000000000000000e+00  0.0000000000000000e+00 0.0000000000000000e+00 0.0000000000000000e+00  0.0000000000000000e+00 0.0000000000000000e+00 0.0000000000000000e+00  0.0000000000000000e+00 0.0000000000000000e+00 0.0000000000000000e+00  0.0000000000000000e+00 0.0000000000000000e+00 0.0000000000000000e+00  0.0000000000000000e+00 0.0000000000000000e+00 0.0000000000000000e+00  0.0000000000000000e+00 0.0000000000000000e+00 0.0000000000000000e+00  0.0000000000000000e+00 0.0000000000000000e+00 0.0000000000000000e+00  0.0000000000000000e+00 0.0000000000000000e+00 0.0000000000000000e+00  0.0000000000000000e+00 0.0000000000000000e+00 0.0000000000000000e+00  0.0000000000000000e+00 0.0000000000000000e+00 0.0000000000000000e+00  0.0000000000000000e+00 0.0000000000000000e+00 0.0000000000000000e+00  0.0000000000000000e+00 0.0000000000000000e+00 0.0000000000000000e+00  0.0000000000000000e+00 0.0000000000000000e+00 0.0000000000000000e+00  0.0000000000000000e+00 0.0000000000000000e+00 0.0000000000000000e+00  0.0000000000000000e+00 0.0000000000000000e+00 0.0000000000000000e+00  0.0000000000000000e+00 0.0000000000000000e+00 0.0000000000000000e+00  0.0000000000000000e+00 0.0000000000000000e+00 0.0000000000000000e+00  0.0000000000000000e+00 0.0000000000000000e+00 0.0000000000000000e+00  0.0000000000000000e+00 0.0000000000000000e+00 0.0000000000000000e+00  0.0000000000000000e+00 0.0000000000000000e+00 0.0000000000000000e+00  0.0000000000000000e+00 0.0000000000000000e+00 0.0000000000000000e+00  0.0000000000000000e+00 0.0000000000000000e+00 0.0000000000000000e+00  0.0000000000000000e+00 0.0000000000000000e+00 0.0000000000000000e+00  0.0000000000000000e+00 0.0000000000000000e+00 0.0000000000000000e+00  0.0000000000000000e+00 0.0000000000000000e+00 0.0000000000000000e+00  0.0000000000000000e+00 0.0000000000000000e+00 0.0000000000000000e+00  0.0000000000000000e+00 0.0000000000000000e+00 0.0000000000000000e+00  0.0000000000000000e+00 0.0000000000000000e+00 0.0000000000000000e+00  0.0000000000000000e+00 0.0000000000000000e+00 0.0000000000000000e+00  0.0000000000000000e+00 0.0000000000000000e+00 0.0000000000000000e+00  0.0000000000000000e+00 0.0000000000000000e+00 0.0000000000000000e+00  0.0000000000000000e+00 0.0000000000000000e+00 0.0000000000000000e+00  0.0000000000000000e+00 0.0000000000000000e+00 0.0000000000000000e+00  0.0000000000000000e+00 0.0000000000000000e+00 0.0000000000000000e+00  0.0000000000000000e+00 0.0000000000000000e+00 0.0000000000000000e+00  0.0000000000000000e+00 0.0000000000000000e+00 0.0000000000000000e+00  0.0000000000000000e+00 0.0000000000000000e+00 0.0000000000000000e+00  0.0000000000000000e+00 0.0000000000000000e+00 0.0000000000000000e+00  0.0000000000000000e+00 0.0000000000000000e+00 0.0000000000000000e+00  0.0000000000000000e+00 0.0000000000000000e+00 0.0000000000000000e+00  0.0000000000000000e+00 0.0000000000000000e+00 0.0000000000000000e+00  0.0000000000000000e+00 0.0000000000000000e+00 0.0000000000000000e+00  0.0000000000000000e+00 0.0000000000000000e+00 0.0000000000000000e+00  0.0000000000000000e+00 0.0000000000000000e+00 0.0000000000000000e+00  0.0000000000000000e+00 0.0000000000000000e+00 0.0000000000000000e+00  0.0000000000000000e+00 0.0000000000000000e+00 0.0000000000000000e+00  0.0000000000000000e+00 0.0000000000000000e+00 0.0000000000000000e+00  0.0000000000000000e+00 0.0000000000000000e+00 0.0000000000000000e+00  0.0000000000000000e+00 0.0000000000000000e+00 0.0000000000000000e+00  0.0000000000000000e+00 0.0000000000000000e+00 0.0000000000000000e+00  0.0000000000000000e+00 0.0000000000000000e+00 0.0000000000000000e+00  0.0000000000000000e+00 0.0000000000000000e+00 0.0000000000000000e+00  0.0000000000000000e+00 0.0000000000000000e+00 0.0000000000000000e+00  0.0000000000000000e+00 0.0000000000000000e+00 0.0000000000000000e+00  0.0000000000000000e+00 0.0000000000000000e+00 0.0000000000000000e+00  0.0000000000000000e+00 0.0000000000000000e+00 0.0000000000000000e+00  0.0000000000000000e+00 0.0000000000000000e+00 0.0000000000000000e+00  0.0000000000000000e+00 0.0000000000000000e+00 0.0000000000000000e+00  0.0000000000000000e+00 0.0000000000000000e+00 0.0000000000000000e+00  0.0000000000000000e+00 0.0000000000000000e+00 0.0000000000000000e+00  0.0000000000000000e+00 0.0000000000000000e+00 0.0000000000000000e+00  0.0000000000000000e+00 0.0000000000000000e+00 0.0000000000000000e+00  0.0000000000000000e+00 0.0000000000000000e+00 0.0000000000000000e+00  0.0000000000000000e+00 0.0000000000000000e+00 0.0000000000000000e+00  0.0000000000000000e+00 0.0000000000000000e+00 0.0000000000000000e+00  0.0000000000000000e+00 0.0000000000000000e+00 0.0000000000000000e+00  0.0000000000000000e+00 0.0000000000000000e+00 0.0000000000000000e+00  0.0000000000000000e+00 0.0000000000000000e+00 0.0000000000000000e+00  0.0000000000000000e+00 0.0000000000000000e+00 0.0000000000000000e+00  0.0000000000000000e+00 0.0000000000000000e+00 0.0000000000000000e+00  0.0000000000000000e+00 0.0000000000000000e+00 0.0000000000000000e+00  0.0000000000000000e+00 0.0000000000000000e+00 0.0000000000000000e+00  0.0000000000000000e+00 0.0000000000000000e+00 0.0000000000000000e+00  0.0000000000000000e+00 0.0000000000000000e+00 0.0000000000000000e+00  9.2118811778624047e-08 -9.5247586626992336e-07 0.0000000000000000e+00  1.9592990175659219e-07 -1.2732106952948067e-06 0.0000000000000000e+00  4.2290161641986422e-07 -1.3653390038441374e-06 0.0000000000000000e+00  7.2173016216882621e-07 -1.4026732048393206e-06 0.0000000000000000e+00  1.0435803578494634e-06 -1.4247498131865123e-06 0.0000000000000000e+00  1.3863495076334050e-06 -1.4340913542431079e-06 0.0000000000000000e+00  1.7314396287177275e-06 -1.4600045110712613e-06 0.0000000000000000e+00  2.0705701536676379e-06 -1.4477339108235372e-06 0.0000000000000000e+00  2.4124942412426016e-06 -1.4504833499463374e-06 0.0000000000000000e+00  2.7394949214772000e-06 -1.4457397313926987e-06 0.0000000000000000e+00  3.0617027491436758e-06 -1.4392394485935741e-06 0.0000000000000000e+00  3.3674748382710174e-06 -1.4278703216257830e-06 0.0000000000000000e+00  3.6585216331176904e-06 -1.4119021180051477e-06 0.0000000000000000e+00  3.9616521583874659e-06 -1.4041845114541963e-06 0.0000000000000000e+00  4.2048469742877281e-06 -1.3778374973229204e-06 0.0000000000000000e+00  4.4620807380403614e-06 -1.3621245232942186e-06 0.0000000000000000e+00  4.6922029066790798e-06 -1.3434323036533892e-06 0.0000000000000000e+00  4.9104647130293074e-06 -1.3272450498205589e-06 0.0000000000000000e+00  5.1067350894170556e-06 -1.3082019716784428e-06 0.0000000000000000e+00  5.2849546502142348e-06 -1.2909855111919568e-06 0.0000000000000000e+00  5.4473740322694754e-06 -1.2717515160743794e-06 0.0000000000000000e+00  5.5905299438911261e-06 -1.2527399047171373e-06 0.0000000000000000e+00  5.7547074686049024e-06 -1.2371742912329843e-06 0.0000000000000000e+00  5.8251586960972477e-06 -1.2124897341902005e-06 0.0000000000000000e+00  5.9162499488008338e-06 -1.1934801313792295e-06 0.0000000000000000e+00  5.9885093509365378e-06 -1.1743115097320906e-06 0.0000000000000000e+00  6.0457632992317810e-06 -1.1564898117809411e-06 0.0000000000000000e+00  6.0822825057898020e-06 -1.1371439680952157e-06 0.0000000000000000e+00  6.1033646652357732e-06 -1.1200960964424509e-06 0.0000000000000000e+00  6.1040246475346790e-06 -1.0997069985965399e-06 0.0000000000000000e+00  6.0887811788237016e-06 -1.0824747440817273e-06 0.0000000000000000e+00  6.0533102222769706e-06 -1.0618493290216684e-06 0.0000000000000000e+00  6.0014431142388507e-06 -1.0436435380003418e-06 0.0000000000000000e+00  5.9289557105038092e-06 -1.0227897317259978e-06 0.0000000000000000e+00  5.8398482729211578e-06 -1.0035499781422903e-06 0.0000000000000000e+00  5.7296080151389017e-06 -9.8087453952841438e-07 0.0000000000000000e+00  5.6021488682235023e-06 -9.5976680358577206e-07 0.0000000000000000e+00  5.4530351692707144e-06 -9.3491827246822789e-07 0.0000000000000000e+00  5.2854318243162191e-06 -9.1160990394295267e-07 0.0000000000000000e+00  5.0963784048256623e-06 -8.8373362206343387e-07 0.0000000000000000e+00  4.8885649279163876e-06 -8.5515269077098823e-07 0.0000000000000000e+00  4.6832833150539935e-06 -8.3074494880596777e-07 0.0000000000000000e+00  4.3935200798765843e-06 -7.9160854652454998e-07 0.0000000000000000e+00  4.1066130285465167e-06 -7.5917714124898920e-07 0.0000000000000000e+00  3.7901770883713300e-06 -7.2096459496328786e-07 0.0000000000000000e+00  3.4217385320991789e-06 -6.4490743874709369e-07 0.0000000000000000e+00  2.9574852869767038e-06 -2.6780364078843952e-07 0.0000000000000000e+00  2.9466042244798157e-06 1.3183391210011163e-07 0.0000000000000000e+00  3.4116485056205983e-06 5.2754302338859545e-07 0.0000000000000000e+00  3.7838588101097816e-06 5.9958849611651789e-07 0.0000000000000000e+00  4.1049883885776107e-06 6.3598315202328632e-07 0.0000000000000000e+00  4.3879303730595014e-06 6.6292566160062530e-07 0.0000000000000000e+00  4.6763313255003682e-06 6.9598102987806229e-07 0.0000000000000000e+00  4.8851176963988304e-06 7.1804673800760644e-07 0.0000000000000000e+00  5.1024431036908653e-06 7.4185802661661726e-07 0.0000000000000000e+00  5.2913979835886827e-06 7.6599750336736909e-07 0.0000000000000000e+00  5.4577356666608355e-06 7.8599302311308215e-07 0.0000000000000000e+00  5.6058119697976444e-06 8.1040493952968647e-07 0.0000000000000000e+00  5.7320727810851734e-06 8.3028613474193819e-07 0.0000000000000000e+00  5.8414927805128416e-06 8.5531960672390322e-07 0.0000000000000000e+00  5.9296889112268001e-06 8.7578637693225078e-07 0.0000000000000000e+00  6.0020432161738759e-06 9.0073649955867525e-07 0.0000000000000000e+00  6.0531460288188905e-06 9.2134435197503521e-07 0.0000000000000000e+00  6.0892190177298323e-06 9.4660380791521657e-07 0.0000000000000000e+00  6.1045043528257973e-06 9.6691973283614350e-07 0.0000000000000000e+00  6.1050359100401562e-06 9.9232540804232058e-07 0.0000000000000000e+00  6.0847545705569148e-06 1.0127334922685620e-06 0.0000000000000000e+00  6.0500384401325753e-06 1.0373541442844681e-06 0.0000000000000000e+00  5.9939671067293492e-06 1.0572065113162682e-06 0.0000000000000000e+00  5.9246099228976154e-06 1.0815987550733568e-06 0.0000000000000000e+00  5.8251688378695904e-06 1.1024450894405069e-06 0.0000000000000000e+00  5.7497337294231464e-06 1.1328106435178111e-06 0.0000000000000000e+00  5.5846098618492174e-06 1.1515215512677918e-06 0.0000000000000000e+00  5.4361344479899770e-06 1.1756320235235255e-06 0.0000000000000000e+00  5.2738672193846692e-06 1.1979484846242534e-06 0.0000000000000000e+00  5.0906609723433547e-06 1.2181068047269939e-06 0.0000000000000000e+00  4.8936597409161546e-06 1.2397465950010981e-06 0.0000000000000000e+00  4.6768747298050466e-06 1.2593330435353359e-06 0.0000000000000000e+00  4.4467277837402753e-06 1.2798821428737495e-06 0.0000000000000000e+00  4.1988158764649134e-06 1.2996058424568324e-06 0.0000000000000000e+00  3.9606780500732885e-06 1.3275764764236289e-06 0.0000000000000000e+00  3.6546691981353366e-06 1.3367943290477836e-06 0.0000000000000000e+00  3.3561088794365422e-06 1.3540090591518868e-06 0.0000000000000000e+00  3.0488416922256898e-06 1.3705464433158860e-06 0.0000000000000000e+00  2.7268167785281534e-06 1.3838857479705986e-06 0.0000000000000000e+00  2.3989525403447183e-06 1.3957453539894028e-06 0.0000000000000000e+00  2.0603401786253367e-06 1.4046911391673568e-06 0.0000000000000000e+00  1.7231261470284539e-06 1.4267247340120873e-06 0.0000000000000000e+00  1.3782451540515478e-06 1.4087035930557987e-06 0.0000000000000000e+00  1.0369348267013194e-06 1.4040303902143893e-06 0.0000000000000000e+00  7.1496948903755353e-07 1.3903529789971210e-06 0.0000000000000000e+00  4.1362471406040697e-07 1.3678844682060893e-06 0.0000000000000000e+00  1.8758938662746363e-07 1.2858318715735255e-06 0.0000000000000000e+00  8.8960481307200118e-08 9.6472018692822297e-07 0.0000000000000000e+00  -5.8260884040523192e-08 -1.9159150347429413e-09 0.0000000000000000e+00  3.5809511110357985e-06 -6.6849265027689044e-08 0.0000000000000000e+00  4.1883345933896265e-06 -7.7525797833304482e-08 0.0000000000000000e+00  4.9686798707118520e-06 -7.7148411521512116e-08 0.0000000000000000e+00  5.3893443933143471e-07 -2.5241747979038642e-09 0.0000000000000000e+00  5.3404812051968126e-06 -7.3670583362618651e-08 0.0000000000000000e+00  1.1767438209691415e-06 7.3975506152411156e-09 0.0000000000000000e+00  5.6371722594680351e-06 -7.5214460610122254e-08 0.0000000000000000e+00  2.2354564155591163e-06 -4.9639192217327037e-09 0.0000000000000000e+00  2.8756021677688298e-06 -3.2677911193956726e-08 0.0000000000000000e+00  5.8557821995310171e-06 -7.3970178769479064e-08 0.0000000000000000e+00  4.3169251519576736e-06 -2.0626902638147838e-08 0.0000000000000000e+00  6.0689172750490853e-06 -6.7030468775345256e-08 0.0000000000000000e+00  3.4663227862125706e-06 -2.0288908045692283e-08 0.0000000000000000e+00  4.7679631202378189e-06 -4.2636484749422095e-08 0.0000000000000000e+00  6.0664916451719430e-06 -6.2715652228510655e-08 0.0000000000000000e+00  5.9990770353159794e-06 -7.0924214662393505e-08 0.0000000000000000e+00  5.1641715647998145e-06 -4.6502359290674868e-08 0.0000000000000000e+00  5.9931277633029348e-06 -5.8598680508616456e-08 0.0000000000000000e+00  5.4815600911569649e-06 -3.3988468364988922e-08 0.0000000000000000e+00  5.8535461512172946e-06 -7.1540759268415335e-08 0.0000000000000000e+00  5.6790438370691118e-06 -5.2774170149119728e-08 0.0000000000000000e+00  3.8892255806051712e-06 -4.0566865289672955e-08 0.0000000000000000e+00  4.5910976080181186e-06 -6.4860773996101016e-08 0.0000000000000000e+00  1.6848053767438171e-06 -1.5674569176280558e-08 0.0000000000000000e+00  3.9008867406903733e-06 1.6781506884176814e-07 0.0000000000000000e+00  2.2864033173650449e-07 4.9196864761698567e-07 0.0000000000000000e+00  5.4977002579824171e-06 1.7899060886157891e-07 0.0000000000000000e+00  5.1610567764250686e-06 1.6857337284593197e-07 0.0000000000000000e+00  8.6905804765722984e-07 -5.0843046023495861e-07 0.0000000000000000e+00  2.5542765778618297e-06 -4.4197993685105876e-07 0.0000000000000000e+00  6.0407833360383998e-06 2.2269809452936907e-07 0.0000000000000000e+00  5.7543683835766783e-06 1.9197479197820980e-07 0.0000000000000000e+00  4.5459859499387589e-06 -4.2248711528609844e-07 0.0000000000000000e+00  6.0744253833959660e-06 2.3902945868849997e-07 0.0000000000000000e+00  3.1898547161068276e-06 -4.4294046017852606e-07 0.0000000000000000e+00  4.9746879922151867e-06 -4.1500709131367530e-07 0.0000000000000000e+00  6.0366145927001264e-06 2.5532544466278622e-07 0.0000000000000000e+00  5.9345870467405259e-06 2.0683742741325711e-07 0.0000000000000000e+00  5.3366411277303132e-06 -4.8584108589812696e-07 0.0000000000000000e+00  5.9287203353417831e-06 2.7058645561941269e-07 0.0000000000000000e+00  -1.4176090815597932e-07 -2.5038742070002606e-07 0.0000000000000000e+00  -1.4307073912138660e-07 2.4545402936235209e-07 0.0000000000000000e+00  3.2830090782715362e-06 -1.8748627620452326e-07 0.0000000000000000e+00  2.3402761789224288e-07 -5.4129249779352217e-07 0.0000000000000000e+00  5.7758423474341495e-06 3.6646180983061651e-07 0.000000000000000