<?xml version="1.0"?>
<VTKFile type="UnstructuredGrid"  version="0.1"  >
<UnstructuredGrid>
<Piece  NumberOfPoints="1419" NumberOfCells="2698">
<Points>
<DataArray  type="Float64"  NumberOfComponents="3"  format="ascii">0 0 0  0 0.41 0  2.5 0 0  2.5 0.41 0  0.6 0.19 0  0.6 0.21 0  0.25 0.2 0  0.15 0.2 0  0.2489897948556636 0.21 0  0.2489897948556636 0.19 0  0.6 0.2 0  0 0.3807142857143437 0  0 0.3514285714286952 0  0 0.3221428571430699 0  0 0.29285714285744 0  0 0.2635714285718054 0  0 0.2342857142861561 0  0 0.2050000000005308 0  0 0.175714285714732 0  0 0.1464285714289574 0  0 0.1171428571431897 0  0 0.08785714285737878 0  0 0.05857142857161107 0  0 0.02928571428580012 0  0.03015443760436003 0 0  0.06140001986583606 0 0  0.09377624077125973 0 0  0.1273239957535082 0 0  0.1620856860351972 0 0  0.1981052433264291 0 0  0.235428184091502 0 0  0.2741016576309132 0 0  0.3141745521465447 0 0  0.3556974926295285 0 0  0.3987229542472677 0 0  0.4433053055141081 0 0  0.4895008759286886 0 0  0.5373680609405097 0 0  0.5869673343216626 0 0  0.6383613676634521 0 0  0.6916151138468254 0 0  0.7467958595648856 0 0  0.8039733463919316 0 0  0.8632198139502143 0 0  0.9246101326867038 0 0  0.9882218810934433 0 0  1.054135445558498 0 0  1.122434100542598 0 0  1.193204177141305 0 0  1.266535089879536 0 0  1.342519516046404 0 0  1.421253448503939 0 0  1.502836389106271 0 0  1.587371439758838 0 0  1.674965418777374 0 0  1.765729001825544 0 0  1.859776908880082 0 0  1.957227977487062 0 0  2.058205329869943 0 0  2.162836591189951 0 0  2.271253957290865 0 0  2.383594446803425 0 0  2.5 0.1024999999997612 0  2.5 0.2049999999994743 0  2.5 0.3074999999997183 0  2.383594446803656 0.41 0  2.271253957291315 0.41 0  2.162836591190598 0.41 0  2.058205329870775 0.41 0  1.957227977488067 0.41 0  1.859776908881246 0.41 0  1.765729001826854 0.41 0  1.674965418778818 0.41 0  1.58737143976041 0.41 0  1.502836389107956 0.41 0  1.421253448505726 0.41 0  1.342519516048286 0.41 0  1.266535089881505 0.41 0  1.193204177143353 0.41 0  1.122434100544716 0.41 0  1.05413544556068 0.41 0  0.9882218810956305 0.41 0  0.9246101326886647 0.41 0  0.8632198139519631 0.41 0  0.8039733463934788 0.41 0  0.7467958595662458 0.41 0  0.6916151138480078 0.41 0  0.6383613676644679 0.41 0  0.5869673343225223 0.41 0  0.5373680609412221 0.41 0  0.4895008759292634 0.41 0  0.4433053055145528 0.41 0  0.3987229542475914 0.41 0  0.3556974926297398 0.41 0  0.3141745521466497 0.41 0  0.2741016576310038 0.41 0  0.2354281840915826 0.41 0  0.1981052433265003 0.41 0  0.1620856860352591 0.41 0  0.1273239957535623 0.41 0  0.09377624077128965 0.41 0  0.06140001986584975 0.41 0  0.03015443760436654 0.41 0  0.2497468076502589 0.2050254481002335 0  0.2497468076502614 0.1949745518997913 0  0.2469965252529372 0.1829317073451959 0  0.2439893735792749 0.1762316384219906 0  0.2400332147834255 0.1700443375285386 0  0.2352133972704371 0.1645032867342007 0  0.2296339016332438 0.1597280261969788 0  0.2234150974217223 0.1558215752574715 0  0.2166911463437691 0.1528682099456123 0  0.2096071079204251 0.1509316448471593 0  0.2023158100364996 0.1500536585536553 0  0.194974551899914 0.1502531923497262 0  0.1877417105387872 0.1515259415822739 0  0.1807733240461124 0.153844448527136 0  0.1742197252835808 0.15715869474974 0  0.1682222986673531 0.1613971801805478 0  0.162910430003803 0.1664684656256651 0  0.1583987151779087 0.1722631454351573 0  0.1547844879126891 0.178656207771761 0  0.1521457199348551 0.1855097315605723 0  0.1505393388476355 0.1926758619366523 0  0.1505393388476328 0.2073241380633295 0  0.1521457199348437 0.2144902684393899 0  0.1547844879126531 0.221343792228163 0  0.1583987151778488 0.2277368545647528 0  0.1629104300036858 0.2335315343742052 0  0.1682222986671726 0.2386028198193036 0  0.1742197252833576 0.2428413052501257 0  0.1807733240458683 0.2461555514727623 0  0.1877417105384929 0.2484740584176516 0  0.1949745518995776 0.2497468076502398 0  0.202315810036185 0.2499463414463592 0  0.2096071079201568 0.2490683551528932 0  0.2166911463435495 0.2471317900544655 0  0.2234150974215506 0.2441784247426195 0  0.2296339016331197 0.2402719738031125 0  0.2352133972703547 0.2354967132658811 0  0.2400332147833751 0.2299556624715287 0  0.2439893735792577 0.2237683615780412 0  0.246996525252926 0.2170682926548348 0  0.25645809709277 0.21 0  0.2639263993298655 0.21 0  0.271394701566961 0.21 0  0.2788630038040554 0.21 0  0.2863313060411479 0.21 0  0.2937996082782405 0.21 0  0.301267910515333 0.21 0  0.3087362127524279 0.21 0  0.3162045149895234 0.21 0  0.3236728172265972 0.21 0  0.3311411194636928 0.21 0  0.3386094217007701 0.21 0  0.3460777239378666 0.21 0  0.3535460261749672 0.21 0  0.3610143284120516 0.21 0  0.3684826306491596 0.21 0  0.3759509328862226 0.21 0  0.383419235123329 0.21 0  0.3908875373604028 0.21 0  0.3983558395975142 0.21 0  0.4058241418345938 0.21 0  0.4132924440716992 0.21 0  0.4207607463087888 0.21 0  0.4282290485459029 0.21 0  0.4356973507830418 0.21 0  0.4431656530201649 0.21 0  0.4506339552573136 0.21 0  0.4581022574944306 0.21 0  0.4655705597315852 0.21 0  0.4730388619686996 0.21 0  0.480507164205851 0.21 0  0.4879754664429498 0.21 0  0.4954437686800938 0.21 0  0.502912070917267 0.21 0  0.5103803731544119 0.21 0  0.5178486753915261 0.21 0  0.5253169776286404 0.21 0  0.5327852798657868 0.21 0  0.5402535821029386 0.21 0  0.54772188434007 0.21 0  0.5551901865771842 0.21 0  0.5626584888143201 0.21 0  0.5701267910514778 0.21 0  0.5775950932886138 0.21 0  0.5850633955257281 0.21 0  0.5925316977628483 0.21 0  0.6 0.2050000000000054 0  0.6 0.1950000000000217 0  0.5925316977628897 0.19 0  0.5850633955257988 0.19 0  0.5775950932887378 0.19 0  0.5701267910515998 0.19 0  0.5626584888145268 0.19 0  0.5551901865773963 0.19 0  0.547721884340339 0.19 0  0.5402535821032429 0.19 0  0.5327852798661811 0.19 0  0.5253169776290537 0.19 0  0.5178486753919799 0.19 0  0.5103803731549078 0.19 0  0.502912070917822 0.19 0  0.4954437686807294 0.19 0  0.4879754664436223 0.19 0  0.4805071642065402 0.19 0  0.4730388619694271 0.19 0  0.4655705597323621 0.19 0  0.4581022574952563 0.19 0  0.4506339552581777 0.19 0  0.4431656530210671 0.19 0  0.4356973507839815 0.19 0  0.4282290485468779 0.19 0  0.4207607463097617 0.19 0  0.4132924440726327 0.19 0  0.4058241418354857 0.19 0  0.3983558395983636 0.19 0  0.3908875373612097 0.19 0  0.3834192351240934 0.19 0  0.3759509328869369 0.19 0  0.3684826306498175 0.19 0  0.361014328412667 0.19 0  0.3535460261755617 0.19 0  0.3460777239384295 0.19 0  0.3386094217012945 0.19 0  0.3311411194641595 0.19 0  0.3236728172270245 0.19 0  0.3162045149898895 0.19 0  0.3087362127527544 0.19 0  0.3012679105156187 0.19 0  0.2937996082784807 0.19 0  0.2863313060413428 0.19 0  0.2788630038042048 0.19 0  0.2713947015670686 0.19 0  0.2639263993299336 0.19 0  0.2564580970927985 0.19 0  0.2607803159922026 0.2000727136295815 0  0.5887803774232762 0.2001272386983733 0  0.5745072403740523 0.2002044435018727 0  0.5511891430099709 0.2001122610077113 0  0.2751288526855082 0.20000000000002 0  0.5365194309847112 0.1999999999999436 0  0.2894621222999649 0.1998691686390484 0  0.5215828265105155 0.1999999999999228 0  0.3127789816668748 0.1998657885438805 0  0.3274069683451451 0.2000000000000796 0  0.5066462220363641 0.199999999999908 0  0.3650630746574081 0.199866017807523 0  0.476773013087985 0.1999999999998713 0  0.3417402379596385 0.1998691686391011 0  0.3796850840047755 0.200000000000134 0  0.4618364086138087 0.1999999999998546 0  0.4917096175621762 0.1999999999998808 0  0.3946216884789568 0.2000000000001512 0  0.446899804139621 0.1999999999998389 0  0.4089549580935208 0.1998691686391595 0  0.4322718174608562 0.200127451265745 0  0.4201487168029707 0.1999966199048527 0  0.3528922713220932 0.2000185703532356 0  0.5633122436674589 0.1999814296467508 0  0.3006558810093873 0.1999966199048318 0  0.5815926498168407 0.1966545283159175 0  0.2677053789419034 0.1964246479135325 0  0.5290511287476175 0.1970915826863981 0  0.5439877332217911 0.197091582686394 0  0.2825131256993216 0.2035478995978015 0  0.3199386661080599 0.202908417313604 0  0.4842413153250809 0.1970915826863873 0  0.5141145242734466 0.1970915826863843 0  0.3722167817676917 0.2029084173136195 0  0.4693047108508938 0.1970915826863783 0  0.3348752705822316 0.202908417313609 0  0.3871533862418661 0.2029084173136212 0  0.4543681063767183 0.1970915826863795 0  0.4991779197992749 0.1970915826863902 0  0.4020059614928624 0.203547899597858 0  0.4394315019025246 0.1970915826863714 0  0.2550657455369551 0.2034088125358657 0  0.2548908499171161 0.1966940311614271 0  0.5946539510196798 0.2024302972968126 0  0.267698176732111 0.2039977513680092 0  0.4261685417851465 0.196409292431739 0  0.3590076176283495 0.196411355804271 0  0.5571672426447437 0.2036011176410121 0  0.3066757059912147 0.1964092924317024 0  0.594380730180568 0.1966558399668133 0  0.4842413153245942 0.2040749161535287 0  0.4693047108503577 0.2040749161535231 0  0.3871533862424271 0.1959250838464788 0  0.372246743208829 0.1959123236376545 0  0.5141145242731028 0.2040749161535395 0  0.4543681063761134 0.2040749161535186 0  0.4019979587101454 0.1959834479682427 0  0.4394608940728603 0.2040870543693135 0  0.5439623148931173 0.2040856076781014 0  0.5290511287473298 0.2040749161535501 0  0.4991779197988497 0.2040749161535382 0  0.3347912413592433 0.1959225448935183 0  0.3199680582793816 0.1959123018030061 0  0.2825051229162361 0.1959834479681729 0  0.3590471196690275 0.2036304442587945 0  0.5571594006495384 0.1963685282145804 0  0.3067669986803285 0.203627750582736 0  0.4262598344738712 0.2036568242185335 0  0.5814408164431408 0.2041285596160068 0  0.5688286748170428 0.1961819304477386 0  0.4145905603063645 0.2038180695522843 0  0.3473758401724931 0.2038180695522752 0  0.2950977245128307 0.2038180695522663 0  0.5688286748170693 0.203818069552238 0  0.2950977245127906 0.1961819304477774 0  0.3473758401723931 0.1961819304478349 0  0.4145905603061963 0.1961819304479011 0  0.2601812407614425 0.2056861609747042
[...]
<PointData  Vectors="f_40-0"> 
<DataArray  type="Float64"  Name="f_40-0"  NumberOfComponents="3" format="ascii">0.0000000000000000e+00 0.0000000000000000e+00 0.0000000000000000e+00  0.0000000000000000e+00 0.0000000000000000e+00 0.0000000000000000e+00  0.0000000000000000e+00 0.0000000000000000e+00 0.0000000000000000e+00  0.0000000000000000e+00 0.0000000000000000e+00 0.0000000000000000e+00  2.5201853573267258e-01 -2.2122414779427984e-02 0.0000000000000000e+00  2.4017741651225535e-01 2.2088027393453037e-02 0.0000000000000000e+00  0.0000000000000000e+00 0.0000000000000000e+00 0.0000000000000000e+00  0.0000000000000000e+00 0.0000000000000000e+00 0.0000000000000000e+00  0.0000000000000000e+00 0.0000000000000000e+00 0.0000000000000000e+00  0.0000000000000000e+00 0.0000000000000000e+00 0.0000000000000000e+00  1.9145558640857385e-01 2.9597250719608491e-04 0.0000000000000000e+00  7.9591836734548407e-02 0.0000000000000000e+00 0.0000000000000000e+00  1.4693877550994527e-01 0.0000000000000000e+00 0.0000000000000000e+00  2.0204081632617479e-01 0.0000000000000000e+00 0.0000000000000000e+00  2.4489795918330076e-01 0.0000000000000000e+00 0.0000000000000000e+00  2.7551020408131754e-01 0.0000000000000000e+00 0.0000000000000000e+00  2.9387755102022350e-01 0.0000000000000000e+00 0.0000000000000000e+00  3.0000000000000004e-01 0.0000000000000000e+00 0.0000000000000000e+00  2.9387755102059482e-01 0.0000000000000000e+00 0.0000000000000000e+00  2.7551020408195548e-01 0.0000000000000000e+00 0.0000000000000000e+00  2.4489795918409071e-01 0.0000000000000000e+00 0.0000000000000000e+00  2.0204081632692525e-01 0.0000000000000000e+00 0.0000000000000000e+00  1.4693877551058568e-01 0.0000000000000000e+00 0.0000000000000000e+00  7.9591836734909230e-02 0.0000000000000000e+00 0.0000000000000000e+00  0.0000000000000000e+00 0.0000000000000000e+00 0.0000000000000000e+00  0.0000000000000000e+00 0.0000000000000000e+00 0.0000000000000000e+00  0.0000000000000000e+00 0.0000000000000000e+00 0.0000000000000000e+00  0.0000000000000000e+00 0.0000000000000000e+00 0.0000000000000000e+00  0.0000000000000000e+00 0.0000000000000000e+00 0.0000000000000000e+00  0.0000000000000000e+00 0.0000000000000000e+00 0.0000000000000000e+00  0.0000000000000000e+00 0.0000000000000000e+00 0.0000000000000000e+00  0.0000000000000000e+00 0.0000000000000000e+00 0.0000000000000000e+00  0.0000000000000000e+00 0.0000000000000000e+00 0.0000000000000000e+00  0.0000000000000000e+00 0.0000000000000000e+00 0.0000000000000000e+00  0.0000000000000000e+00 0.0000000000000000e+00 0.0000000000000000e+00  0.0000000000000000e+00 0.0000000000000000e+00 0.0000000000000000e+00  0.0000000000000000e+00 0.0000000000000000e+00 0.0000000000000000e+00  0.0000000000000000e+00 0.0000000000000000e+00 0.0000000000000000e+00  0.0000000000000000e+00 0.0000000000000000e+00 0.0000000000000000e+00  0.0000000000000000e+00 0.0000000000000000e+00 0.0000000000000000e+00  0.0000000000000000e+00 0.0000000000000000e+00 0.0000000000000000e+00  0.0000000000000000e+00 0.0000000000000000e+00 0.0000000000000000e+00  0.0000000000000000e+00 0.0000000000000000e+00 0.0000000000000000e+00  0.0000000000000000e+00 0.0000000000000000e+00 0.0000000000000000e+00  0.0000000000000000e+00 0.0000000000000000e+00 0.0000000000000000e+00  0.0000000000000000e+00 0.0000000000000000e+00 0.0000000000000000e+00  0.0000000000000000e+00 0.0000000000000000e+00 0.0000000000000000e+00  0.0000000000000000e+00 0.0000000000000000e+00 0.0000000000000000e+00  0.0000000000000000e+00 0.0000000000000000e+00 0.0000000000000000e+00  0.0000000000000000e+00 0.0000000000000000e+00 0.0000000000000000e+00  0.0000000000000000e+00 0.0000000000000000e+00 0.0000000000000000e+00  0.0000000000000000e+00 0.0000000000000000e+00 0.0000000000000000e+00  0.0000000000000000e+00 0.0000000000000000e+00 0.0000000000000000e+00  0.0000000000000000e+00 0.0000000000000000e+00 0.0000000000000000e+00  0.0000000000000000e+00 0.0000000000000000e+00 0.0000000000000000e+00  0.0000000000000000e+00 0.0000000000000000e+00 0.0000000000000000e+00  0.0000000000000000e+00 0.0000000000000000e+00 0.0000000000000000e+00  0.0000000000000000e+00 0.0000000000000000e+00 0.0000000000000000e+00  0.0000000000000000e+00 0.0000000000000000e+00 0.0000000000000000e+00  0.0000000000000000e+00 0.0000000000000000e+00 0.0000000000000000e+00  0.0000000000000000e+00 0.0000000000000000e+00 0.0000000000000000e+00  0.0000000000000000e+00 0.0000000000000000e+00 0.0000000000000000e+00  2.3773166484937863e-01 -2.9304268536907993e-03 0.0000000000000000e+00  2.7919446847037477e-01 2.1742986134045246e-04 0.0000000000000000e+00  2.3793576951621870e-01 2.1332867294051737e-03 0.0000000000000000e+00  0.0000000000000000e+00 0.0000000000000000e+00 0.0000000000000000e+00  0.0000000000000000e+00 0.0000000000000000e+00 0.0000000000000000e+00  0.0000000000000000e+00 0.0000000000000000e+00 0.0000000000000000e+00  0.0000000000000000e+00 0.0000000000000000e+00 0.0000000000000000e+00  0.0000000000000000e+00 0.0000000000000000e+00 0.0000000000000000e+00  0.0000000000000000e+00 0.0000000000000000e+00 0.0000000000000000e+00  0.0000000000000000e+00 0.0000000000000000e+00 0.0000000000000000e+00  0.0000000000000000e+00 0.0000000000000000e+00 0.0000000000000000e+00  0.0000000000000000e+00 0.0000000000000000e+00 0.0000000000000000e+00  0.0000000000000000e+00 0.0000000000000000e+00 0.0000000000000000e+00  0.0000000000000000e+00 0.0000000000000000e+00 0.0000000000000000e+00  0.0000000000000000e+00 0.0000000000000000e+00 0.0000000000000000e+00  0.0000000000000000e+00 0.0000000000000000e+00 0.0000000000000000e+00  0.0000000000000000e+00 0.0000000000000000e+00 0.0000000000000000e+00  0.0000000000000000e+00 0.0000000000000000e+00 0.0000000000000000e+00  0.0000000000000000e+00 0.0000000000000000e+00 0.0000000000000000e+00  0.0000000000000000e+00 0.0000000000000000e+00 0.0000000000000000e+00  0.0000000000000000e+00 0.0000000000000000e+00 0.0000000000000000e+00  0.0000000000000000e+00 0.0000000000000000e+00 0.0000000000000000e+00  0.0000000000000000e+00 0.0000000000000000e+00 0.0000000000000000e+00  0.0000000000000000e+00 0.0000000000000000e+00 0.0000000000000000e+00  0.0000000000000000e+00 0.0000000000000000e+00 0.0000000000000000e+00  0.0000000000000000e+00 0.0000000000000000e+00 0.0000000000000000e+00  0.0000000000000000e+00 0.0000000000000000e+00 0.0000000000000000e+00  0.0000000000000000e+00 0.0000000000000000e+00 0.0000000000000000e+00  0.0000000000000000e+00 0.0000000000000000e+00 0.0000000000000000e+00  0.0000000000000000e+00 0.0000000000000000e+00 0.0000000000000000e+00  0.0000000000000000e+00 0.0000000000000000e+00 0.0000000000000000e+00  0.0000000000000000e+00 0.0000000000000000e+00 0.0000000000000000e+00  0.0000000000000000e+00 0.0000000000000000e+00 0.0000000000000000e+00  0.0000000000000000e+00 0.0000000000000000e+00 0.0000000000000000e+00  0.0000000000000000e+00 0.0000000000000000e+00 0.0000000000000000e+00  0.0000000000000000e+00 0.0000000000000000e+00 0.0000000000000000e+00  0.0000000000000000e+00 0.0000000000000000e+00 0.0000000000000000e+00  0.0000000000000000e+00 0.0000000000000000e+00 0.0000000000000000e+00  0.0000000000000000e+00 0.0000000000000000e+00 0.0000000000000000e+00  0.0000000000000000e+00 0.0000000000000000e+00 0.0000000000000000e+00  0.0000000000000000e+00 0.0000000000000000e+00 0.0000000000000000e+00  0.0000000000000000e+00 0.0000000000000000e+00 0.0000000000000000e+00  0.0000000000000000e+00 0.0000000000000000e+00 0.0000000000000000e+00  0.0000000000000000e+00 0.0000000000000000e+00 0.0000000000000000e+00  0.0000000000000000e+00 0.0000000000000000e+00 0.0000000000000000e+00  0.0000000000000000e+00 0.0000000000000000e+00 0.0000000000000000e+00  0.0000000000000000e+00 0.0000000000000000e+00 0.0000000000000000e+00  0.0000000000000000e+00 0.0000000000000000e+00 0.0000000000000000e+00  0.0000000000000000e+00 0.0000000000000000e+00 0.0000000000000000e+00  0.0000000000000000e+00 0.0000000000000000e+00 0.0000000000000000e+00  0.0000000000000000e+00 0.0000000000000000e+00 0.0000000000000000e+00  0.0000000000000000e+00 0.0000000000000000e+00 0.0000000000000000e+00  0.0000000000000000e+00 0.0000000000000000e+00 0.0000000000000000e+00  0.0000000000000000e+00 0.0000000000000000e+00 0.0000000000000000e+00  0.0000000000000000e+00 0.0000000000000000e+00 0.0000000000000000e+00  0.0000000000000000e+00 0.0000000000000000e+00 0.0000000000000000e+00  0.0000000000000000e+00 0.0000000000000000e+00 0.0000000000000000e+00  0.0000000000000000e+00 0.0000000000000000e+00 0.0000000000000000e+00  0.0000000000000000e+00 0.0000000000000000e+00 0.0000000000000000e+00  0.0000000000000000e+00 0.0000000000000000e+00 0.0000000000000000e+00  0.0000000000000000e+00 0.0000000000000000e+00 0.0000000000000000e+00  0.0000000000000000e+00 0.0000000000000000e+00 0.0000000000000000e+00  0.0000000000000000e+00 0.0000000000000000e+00 0.0000000000000000e+00  0.0000000000000000e+00 0.0000000000000000e+00 0.0000000000000000e+00  0.0000000000000000e+00 0.0000000000000000e+00 0.0000000000000000e+00  0.0000000000000000e+00 0.0000000000000000e+00 0.0000000000000000e+00  0.0000000000000000e+00 0.0000000000000000e+00 0.0000000000000000e+00  0.0000000000000000e+00 0.0000000000000000e+00 0.0000000000000000e+00  0.0000000000000000e+00 0.0000000000000000e+00 0.0000000000000000e+00  0.0000000000000000e+00 0.0000000000000000e+00 0.0000000000000000e+00  0.0000000000000000e+00 0.0000000000000000e+00 0.0000000000000000e+00  0.0000000000000000e+00 0.0000000000000000e+00 0.0000000000000000e+00  0.0000000000000000e+00 0.0000000000000000e+00 0.0000000000000000e+00  0.0000000000000000e+00 0.0000000000000000e+00 0.0000000000000000e+00  0.0000000000000000e+00 0.0000000000000000e+00 0.0000000000000000e+00  0.0000000000000000e+00 0.0000000000000000e+00 0.0000000000000000e+00  0.0000000000000000e+00 0.0000000000000000e+00 0.0000000000000000e+00  0.0000000000000000e+00 0.0000000000000000e+00 0.0000000000000000e+00  0.0000000000000000e+00 0.0000000000000000e+00 0.0000000000000000e+00  0.0000000000000000e+00 0.0000000000000000e+00 0.0000000000000000e+00  0.0000000000000000e+00 0.0000000000000000e+00 0.0000000000000000e+00  -1.2630371821022449e-02 -2.4630221460074899e-02 0.0000000000000000e+00  -1.5996356093064913e-02 -1.6125606603585970e-02 0.0000000000000000e+00  -1.4740325834244965e-02 -9.8410323576922417e-03 0.0000000000000000e+00  -1.1292301354038289e-02 -6.7808812230740270e-03 0.0000000000000000e+00  -8.5456214655782771e-03 -5.5932206447755614e-03 0.0000000000000000e+00  -5.4461013393185282e-03 -4.9953167748786071e-03 0.0000000000000000e+00  -1.5360601147100320e-03 -3.4339177487591865e-03 0.0000000000000000e+00  1.1482942630372910e-03 -4.2680360473582825e-03 0.0000000000000000e+00  4.4150356063804982e-03 -4.1724087364202406e-03 0.0000000000000000e+00  7.5824312675268806e-03 -3.9720875759085865e-03 0.0000000000000000e+00  1.1105762260292461e-02 -3.9894135024388221e-03 0.0000000000000000e+00  1.4398952620159954e-02 -3.6899392710389566e-03 0.0000000000000000e+00  1.8414223782107844e-02 -3.6643103633122432e-03 0.0000000000000000e+00  1.5284151389089028e-02 -2.2974236899888454e-03 0.0000000000000000e+00  2.4742755751157017e-02 -2.7713921478148959e-03 0.0000000000000000e+00  2.7362701595740252e-02 -2.5904500152591553e-03 0.0000000000000000e+00  3.0741517340954917e-02 -2.0903276559216381e-03 0.0000000000000000e+00  3.4484909967944836e-02 -2.2869633270761070e-03 0.0000000000000000e+00  3.7573698624700044e-02 -1.7532513276732702e-03 0.0000000000000000e+00  4.2345372714460504e-02 -2.0370155343644785e-03 0.0000000000000000e+00  4.6006042342093191e-02 -1.5170478774296356e-03 0.0000000000000000e+00  5.0088170321511409e-02 -1.8783647241710172e-03 0.0000000000000000e+00  3.6424090781972535e-02 -4.9178789489520041e-04 0.0000000000000000e+00  5.5545575585779695e-02 -1.1758655186249211e-03 0.0000000000000000e+00  5.9142215765987445e-02 -1.0889540586002007e-03 0.0000000000000000e+00  6.1654389558060227e-02 -8.0673630518432850e-04 0.0000000000000000e+00  6.4513396591664690e-02 -8.6094203546967696e-04 0.0000000000000000e+00  6.7834915127521989e-02 -4.6808499230190440e-04 0.0000000000000000e+00  7.0536769474570507e-02 -1.1214433570377483e-03 0.0000000000000000e+00  7.2828234871075107e-02 -1.0074001803561230e-04 0.0000000000000000e+00  7.5246877641963902e-02 -9.8170988799382028e-04 0.0000000000000000e+00  7.6096580648730483e-02 -2.8249320075159275e-05 0.0000000000000000e+00  7.7998157031756124e-02 -6.4329711583082359e-04 0.0000000000000000e+00  7.9256898258319164e-02 -1.7991037759219184e-04 0.0000000000000000e+00  8.1498858921538922e-02 -9.3382764324240728e-04 0.0000000000000000e+00  8.1744763955624772e-02 9.6227109039421815e-06 0.0000000000000000e+00  8.3503549617339246e-02 -5.7601678188473019e-04 0.0000000000000000e+00  8.5389907982355143e-02 3.7723237319516848e-04 0.0000000000000000e+00  8.6902160962008132e-02 -6.5533102411926289e-04 0.0000000000000000e+00  8.6456653152917187e-02 4.5110670871494258e-04 0.0000000000000000e+00  8.6687659899405994e-02 6.3041234015960221e-04 0.0000000000000000e+00  6.0006237054726200e-02 1.7212699596964854e-03 0.0000000000000000e+00  8.9060619974172389e-02 3.8862637273873687e-03 0.0000000000000000e+00  9.7304921509626816e-02 5.7986955740499911e-03 0.0000000000000000e+00  1.0900253044144666e-01 5.5345217247799441e-03 0.0000000000000000e+00  1.5607103013141496e-01 1.1065790405081924e-04 0.0000000000000000e+00  2.0614613666854445e-01 1.8046055777824220e-02 0.0000000000000000e+00  2.2430273283946853e-01 -1.9026741928361384e-02 0.0000000000000000e+00  1.3821412464139887e-01 3.7905763835139779e-03 0.0000000000000000e+00  1.0432249642455657e-01 -2.0365508263539812e-03 0.0000000000000000e+00  9.2957654188618080e-02 -2.7957449145572001e-03 0.0000000000000000e+00  8.9073290055972643e-02 -1.0032192197148200e-03 0.0000000000000000e+00  6.0075059055888516e-02 1.7234077159602781e-04 0.0000000000000000e+00  8.4689154553241969e-02 2.4990551207665014e-03 0.0000000000000000e+00  8.1351954708731314e-02 1.5213578339395828e-03 0.0000000000000000e+00  8.1692856048107193e-02 2.7841346169275145e-03 0.0000000000000000e+00  7.9196264301172659e-02 1.7567454596340666e-03 0.0000000000000000e+00  7.9519169577864868e-02 3.6116978459808367e-03 0.0000000000000000e+00  7.7620463287463998e-02 2.3354371973027641e-03 0.0000000000000000e+00  7.6072546415856326e-02 4.1589327976958171e-03 0.0000000000000000e+00  7.4307494639256594e-02 3.3258716890019746e-03 0.0000000000000000e+00  7.3539362286126661e-02 4.8078967906392241e-03 0.0000000000000000e+00  7.0839170946322916e-02 3.9758083848842581e-03 0.0000000000000000e+00  7.0664205134023383e-02 5.6200984869714254e-03 0.0000000000000000e+00  6.8066437055470594e-02 4.4470297440532035e-03 0.0000000000000000e+00  6.6001064771922219e-02 5.9459137287656613e-03 0.0000000000000000e+00  6.3642458978918154e-02 5.1458644574358730e-03 0.0000000000000000e+00  6.2184721545813615e-02 6.3129830025831302e-03 0.0000000000000000e+00  5.8831247800532137e-02 5.4734449793907283e-03 0.0000000000000000e+00  5.7013755138101446e-02 6.5189336893838436e-03 0.0000000000000000e+00  5.5325976720487523e-02 5.9325751581353909e-03 0.0000000000000000e+00  3.7451019217493831e-02 4.9130156589834934e-03 0.0000000000000000e+00  5.1256131812112284e-02 7.0639979130516835e-03 0.0000000000000000e+00  4.8358046674513613e-02 7.6011694567955429e-03 0.0000000000000000e+00  4.5998062901715653e-02 7.7781268299737093e-03 0.0000000000000000e+00  4.2275986240406654e-02 7.3763683000023410e-03 0.0000000000000000e+00  3.9300002257143522e-02 7.6206977143288748e-03 0.0000000000000000e+00  3.5546189806473796e-02 7.2085373661173024e-03 0.0000000000000000e+00  3.1835875950026071e-02 7.1658520999306578e-03 0.0000000000000000e+00  2.7603942799399053e-02 6.8231823648782436e-03 0.0000000000000000e+00  1.6876727007334582e-02 4.8347146590333743e-03 0.0000000000000000e+00  2.0898287166851642e-02 6.5531242336062633e-03 0.0000000000000000e+00  1.7424216989676927e-02 6.5197139020654483e-03 0.0000000000000000e+00  1.3701757434850642e-02 6.4824537606707365e-03 0.0000000000000000e+00  9.8082429667306053e-03 6.1944747930809934e-03 0.0000000000000000e+00  6.3505338837928724e-03 6.0974865623927834e-03 0.0000000000000000e+00  2.7124697510847967e-03 5.6880370055963081e-03 0.0000000000000000e+00  -4.7455146237940503e-04 4.1478371885702182e-03 0.0000000000000000e+00  -3.9160811915534745e-03 5.5174746698428380e-03 0.0000000000000000e+00  -7.2261208899911163e-03 5.8812808947951382e-03 0.0000000000000000e+00  -1.0030690404905108e-02 6.5669099003983628e-03 0.0000000000000000e+00  -1.2940940066385543e-02 8.8309931213186067e-03 0.0000000000000000e+00  -1.4111155937161520e-02 1.4427255241029327e-02 0.0000000000000000e+00  -1.1010862894609008e-02 2.2675428712693284e-02 0.0000000000000000e+00  -1.7130984202929549e-03 -7.7171775203267813e-05 0.0000000000000000e+00  1.8805951659639664e-02 1.7534086097603616e-04 0.0000000000000000e+00  1.3555753721565341e-02 1.9843836026816456e-04 0.0000000000000000e+00  1.2212705599787148e-02 1.9226237155838612e-04 0.0000000000000000e+00  -1.6613954659465888e-03 -4.0533118567644357e-05 0.0000000000000000e+00  1.1609717066897524e-02 1.5831548851428603e-04 0.0000000000000000e+00  -9.2730088371329692e-04 1.3169546092609272e-05 0.0000000000000000e+00  1.1250428280900747e-02 1.8772975491366720e-04 0.0000000000000000e+00  5.5172057608094923e-04 1.1063923611939661e-04 0.0000000000000000e+00  1.4813301317140987e-03 1.4509267254811506e-04 0.0000000000000000e+00  1.0868015122357534e-02 2.3751670155672670e-04 0.0000000000000000e+00  4.0991670386861098e-03 3.0686633534444811e-04 0.0000000000000000e+00  9.9351838245473334e-03 3.2118331843979803e-04 0.0000000000000000e+00  2.5350315667408189e-03 1.9292538694074910e-04 0.0000000000000000e+00  4.9428221411566406e-03 3.4835813566678244e-04 0.0000000000000000e+00  9.3490013082518138e-03 3.4667612314773764e-04 0.0000000000000000e+00  1.0432175054626331e-02 2.8608845662679837e-04 0.0000000000000000e+00  5.8613423737509324e-03 3.8012210963490797e-04 0.0000000000000000e+00  8.7057991285008143e-03 3.6223611759496203e-04 0.0000000000000000e+00  6.9466857910061002e-03 4.0094909697860630e-04 0.0000000000000000e+00  8.1932704742074744e-03 3.7469910526165718e-04 0.0000000000000000e+00  2.9369400329465334e-03 1.6704093479453862e-04 0.0000000000000000e+00  1.2756579115016941e-03 1.0904153599531001e-04 0.0000000000000000e+00  4.7221953536514720e-03 6.9028281863822854e-05 0.0000000000000000e+00  -7.4583942140539657e-05 2.9926212599583745e-05 0.0000000000000000e+00  2.1399813881323285e-02 -4.3782636640178770e-04 0.0000000000000000e+00  -2.7697331616941480e-03 1.9737532359017668e-03 0.0000000000000000e+00  1.6733263210438193e-02 4.5574919640908347e-04 0.0000000000000000e+00  1.7418754698689809e-02 3.8844761894898364e-04 0.0000000000000000e+00  -1.9926741783524889e-03 -1.0677521287666431e-03 0.0000000000000000e+00  1.3072807804068100e-03 -7.3157101319357241e-04 0.0000000000000000e+00  1.4901831686853979e-02 8.7397354157306710e-04 0.0000000000000000e+00  1.6178074489664102e-02 6.1275045138599305e-04 0.0000000000000000e+00  6.3317329091418508e-03 -3.6956221532795337e-04 0.0000000000000000e+00  1.4134635374390065e-02 9.9380503026996509e-04 0.0000000000000000e+00  2.8020858060632367e-03 -6.9384855606819773e-04 0.0000000000000000e+00  7.6423388221398625e-03 -2.8069251022888933e-04 0.0000000000000000e+00  1.3187683751321596e-02 1.0755105490891865e-03 0.0000000000000000e+00  1.5507350197001878e-02 7.4821477025866368e-04 0.0000000000000000e+00  9.0349531854084092e-03 -2.3124610430210799e-04 0.0000000000000000e+00  1.2458104478292950e-02 1.1414955404502368e-03 0.0000000000000000e+00  -3.0320480086634254e-04 -3.9200560606653009e-04 0.0000000000000000e+00  -2.8502392867529381e-04 3.7423979193160651e-04 0.0000000000000000e+00  4.8560491849368663e-02 1.1709748497738235e-03 0.0000000000000000e+00  -2.9957205894854786e-03 -2.1472121092241895e-03 0.0000000000000000e+00  1.3910970885087958e-02 1.4994289392352980e-03 0.0000000000000000e+00  6