<?xml version="1.0"?>
<VTKFile type="UnstructuredGrid"  version="0.1"  >
<UnstructuredGrid>
<Piece  NumberOfPoints="1419" NumberOfCells="2698">
<Points>
<DataArray  type="Float64"  NumberOfComponents="3"  format="ascii">0 0 0  0 0.41 0  2.5 0 0  2.5 0.41 0  0.6 0.19 0  0.6 0.21 0  0.25 0.2 0  0.15 0.2 0  0.2489897948556636 0.21 0  0.2489897948556636 0.19 0  0.6 0.2 0  0 0.3807142857143437 0  0 0.3514285714286952 0  0 0.3221428571430699 0  0 0.29285714285744 0  0 0.2635714285718054 0  0 0.2342857142861561 0  0 0.2050000000005308 0  0 0.175714285714732 0  0 0.1464285714289574 0  0 0.1171428571431897 0  0 0.08785714285737878 0  0 0.05857142857161107 0  0 0.02928571428580012 0  0.03015443760436003 0 0  0.06140001986583606 0 0  0.09377624077125973 0 0  0.1273239957535082 0 0  0.1620856860351972 0 0  0.1981052433264291 0 0  0.235428184091502 0 0  0.2741016576309132 0 0  0.3141745521465447 0 0  0.3556974926295285 0 0  0.3987229542472677 0 0  0.4433053055141081 0 0  0.4895008759286886 0 0  0.5373680609405097 0 0  0.5869673343216626 0 0  0.6383613676634521 0 0  0.6916151138468254 0 0  0.7467958595648856 0 0  0.8039733463919316 0 0  0.8632198139502143 0 0  0.9246101326867038 0 0  0.9882218810934433 0 0  1.054135445558498 0 0  1.122434100542598 0 0  1.193204177141305 0 0  1.266535089879536 0 0  1.342519516046404 0 0  1.421253448503939 0 0  1.502836389106271 0 0  1.587371439758838 0 0  1.674965418777374 0 0  1.765729001825544 0 0  1.859776908880082 0 0  1.957227977487062 0 0  2.058205329869943 0 0  2.162836591189951 0 0  2.271253957290865 0 0  2.383594446803425 0 0  2.5 0.1024999999997612 0  2.5 0.2049999999994743 0  2.5 0.3074999999997183 0  2.383594446803656 0.41 0  2.271253957291315 0.41 0  2.162836591190598 0.41 0  2.058205329870775 0.41 0  1.957227977488067 0.41 0  1.859776908881246 0.41 0  1.765729001826854 0.41 0  1.674965418778818 0.41 0  1.58737143976041 0.41 0  1.502836389107956 0.41 0  1.421253448505726 0.41 0  1.342519516048286 0.41 0  1.266535089881505 0.41 0  1.193204177143353 0.41 0  1.122434100544716 0.41 0  1.05413544556068 0.41 0  0.9882218810956305 0.41 0  0.9246101326886647 0.41 0  0.8632198139519631 0.41 0  0.8039733463934788 0.41 0  0.7467958595662458 0.41 0  0.6916151138480078 0.41 0  0.6383613676644679 0.41 0  0.5869673343225223 0.41 0  0.5373680609412221 0.41 0  0.4895008759292634 0.41 0  0.4433053055145528 0.41 0  0.3987229542475914 0.41 0  0.3556974926297398 0.41 0  0.3141745521466497 0.41 0  0.2741016576310038 0.41 0  0.2354281840915826 0.41 0  0.1981052433265003 0.41 0  0.1620856860352591 0.41 0  0.1273239957535623 0.41 0  0.09377624077128965 0.41 0  0.06140001986584975 0.41 0  0.03015443760436654 0.41 0  0.2497468076502589 0.2050254481002335 0  0.2497468076502614 0.1949745518997913 0  0.2469965252529372 0.1829317073451959 0  0.2439893735792749 0.1762316384219906 0  0.2400332147834255 0.1700443375285386 0  0.2352133972704371 0.1645032867342007 0  0.2296339016332438 0.1597280261969788 0  0.2234150974217223 0.1558215752574715 0  0.2166911463437691 0.1528682099456123 0  0.2096071079204251 0.1509316448471593 0  0.2023158100364996 0.1500536585536553 0  0.194974551899914 0.1502531923497262 0  0.1877417105387872 0.1515259415822739 0  0.1807733240461124 0.153844448527136 0  0.1742197252835808 0.15715869474974 0  0.1682222986673531 0.1613971801805478 0  0.162910430003803 0.1664684656256651 0  0.1583987151779087 0.1722631454351573 0  0.1547844879126891 0.178656207771761 0  0.1521457199348551 0.1855097315605723 0  0.1505393388476355 0.1926758619366523 0  0.1505393388476328 0.2073241380633295 0  0.1521457199348437 0.2144902684393899 0  0.1547844879126531 0.221343792228163 0  0.1583987151778488 0.2277368545647528 0  0.1629104300036858 0.2335315343742052 0  0.1682222986671726 0.2386028198193036 0  0.1742197252833576 0.2428413052501257 0  0.1807733240458683 0.2461555514727623 0  0.1877417105384929 0.2484740584176516 0  0.1949745518995776 0.2497468076502398 0  0.202315810036185 0.2499463414463592 0  0.2096071079201568 0.2490683551528932 0  0.2166911463435495 0.2471317900544655 0  0.2234150974215506 0.2441784247426195 0  0.2296339016331197 0.2402719738031125 0  0.2352133972703547 0.2354967132658811 0  0.2400332147833751 0.2299556624715287 0  0.2439893735792577 0.2237683615780412 0  0.246996525252926 0.2170682926548348 0  0.25645809709277 0.21 0  0.2639263993298655 0.21 0  0.271394701566961 0.21 0  0.2788630038040554 0.21 0  0.2863313060411479 0.21 0  0.2937996082782405 0.21 0  0.301267910515333 0.21 0  0.3087362127524279 0.21 0  0.3162045149895234 0.21 0  0.3236728172265972 0.21 0  0.3311411194636928 0.21 0  0.3386094217007701 0.21 0  0.3460777239378666 0.21 0  0.3535460261749672 0.21 0  0.3610143284120516 0.21 0  0.3684826306491596 0.21 0  0.3759509328862226 0.21 0  0.383419235123329 0.21 0  0.3908875373604028 0.21 0  0.3983558395975142 0.21 0  0.4058241418345938 0.21 0  0.4132924440716992 0.21 0  0.4207607463087888 0.21 0  0.4282290485459029 0.21 0  0.4356973507830418 0.21 0  0.4431656530201649 0.21 0  0.4506339552573136 0.21 0  0.4581022574944306 0.21 0  0.4655705597315852 0.21 0  0.4730388619686996 0.21 0  0.480507164205851 0.21 0  0.4879754664429498 0.21 0  0.4954437686800938 0.21 0  0.502912070917267 0.21 0  0.5103803731544119 0.21 0  0.5178486753915261 0.21 0  0.5253169776286404 0.21 0  0.5327852798657868 0.21 0  0.5402535821029386 0.21 0  0.54772188434007 0.21 0  0.5551901865771842 0.21 0  0.5626584888143201 0.21 0  0.5701267910514778 0.21 0  0.5775950932886138 0.21 0  0.5850633955257281 0.21 0  0.5925316977628483 0.21 0  0.6 0.2050000000000054 0  0.6 0.1950000000000217 0  0.5925316977628897 0.19 0  0.5850633955257988 0.19 0  0.5775950932887378 0.19 0  0.5701267910515998 0.19 0  0.5626584888145268 0.19 0  0.5551901865773963 0.19 0  0.547721884340339 0.19 0  0.5402535821032429 0.19 0  0.5327852798661811 0.19 0  0.5253169776290537 0.19 0  0.5178486753919799 0.19 0  0.5103803731549078 0.19 0  0.502912070917822 0.19 0  0.4954437686807294 0.19 0  0.4879754664436223 0.19 0  0.4805071642065402 0.19 0  0.4730388619694271 0.19 0  0.4655705597323621 0.19 0  0.4581022574952563 0.19 0  0.4506339552581777 0.19 0  0.4431656530210671 0.19 0  0.4356973507839815 0.19 0  0.4282290485468779 0.19 0  0.4207607463097617 0.19 0  0.4132924440726327 0.19 0  0.4058241418354857 0.19 0  0.3983558395983636 0.19 0  0.3908875373612097 0.19 0  0.3834192351240934 0.19 0  0.3759509328869369 0.19 0  0.3684826306498175 0.19 0  0.361014328412667 0.19 0  0.3535460261755617 0.19 0  0.3460777239384295 0.19 0  0.3386094217012945 0.19 0  0.3311411194641595 0.19 0  0.3236728172270245 0.19 0  0.3162045149898895 0.19 0  0.3087362127527544 0.19 0  0.3012679105156187 0.19 0  0.2937996082784807 0.19 0  0.2863313060413428 0.19 0  0.2788630038042048 0.19 0  0.2713947015670686 0.19 0  0.2639263993299336 0.19 0  0.2564580970927985 0.19 0  0.2607803159922026 0.2000727136295815 0  0.5887803774232762 0.2001272386983733 0  0.5745072403740523 0.2002044435018727 0  0.5511891430099709 0.2001122610077113 0  0.2751288526855082 0.20000000000002 0  0.5365194309847112 0.1999999999999436 0  0.2894621222999649 0.1998691686390484 0  0.5215828265105155 0.1999999999999228 0  0.3127789816668748 0.1998657885438805 0  0.3274069683451451 0.2000000000000796 0  0.5066462220363641 0.199999999999908 0  0.3650630746574081 0.199866017807523 0  0.476773013087985 0.1999999999998713 0  0.3417402379596385 0.1998691686391011 0  0.3796850840047755 0.200000000000134 0  0.4618364086138087 0.1999999999998546 0  0.4917096175621762 0.1999999999998808 0  0.3946216884789568 0.2000000000001512 0  0.446899804139621 0.1999999999998389 0  0.4089549580935208 0.1998691686391595 0  0.4322718174608562 0.200127451265745 0  0.4201487168029707 0.1999966199048527 0  0.3528922713220932 0.2000185703532356 0  0.5633122436674589 0.1999814296467508 0  0.3006558810093873 0.1999966199048318 0  0.5815926498168407 0.1966545283159175 0  0.2677053789419034 0.1964246479135325 0  0.5290511287476175 0.1970915826863981 0  0.5439877332217911 0.197091582686394 0  0.2825131256993216 0.2035478995978015 0  0.3199386661080599 0.202908417313604 0  0.4842413153250809 0.1970915826863873 0  0.5141145242734466 0.1970915826863843 0  0.3722167817676917 0.2029084173136195 0  0.4693047108508938 0.1970915826863783 0  0.3348752705822316 0.202908417313609 0  0.3871533862418661 0.2029084173136212 0  0.4543681063767183 0.1970915826863795 0  0.4991779197992749 0.1970915826863902 0  0.4020059614928624 0.203547899597858 0  0.4394315019025246 0.1970915826863714 0  0.2550657455369551 0.2034088125358657 0  0.2548908499171161 0.1966940311614271 0  0.5946539510196798 0.2024302972968126 0  0.267698176732111 0.2039977513680092 0  0.4261685417851465 0.196409292431739 0  0.3590076176283495 0.196411355804271 0  0.5571672426447437 0.2036011176410121 0  0.3066757059912147 0.1964092924317024 0  0.594380730180568 0.1966558399668133 0  0.4842413153245942 0.2040749161535287 0  0.4693047108503577 0.2040749161535231 0  0.3871533862424271 0.1959250838464788 0  0.372246743208829 0.1959123236376545 0  0.5141145242731028 0.2040749161535395 0  0.4543681063761134 0.2040749161535186 0  0.4019979587101454 0.1959834479682427 0  0.4394608940728603 0.2040870543693135 0  0.5439623148931173 0.2040856076781014 0  0.5290511287473298 0.2040749161535501 0  0.4991779197988497 0.2040749161535382 0  0.3347912413592433 0.1959225448935183 0  0.3199680582793816 0.1959123018030061 0  0.2825051229162361 0.1959834479681729 0  0.3590471196690275 0.2036304442587945 0  0.5571594006495384 0.1963685282145804 0  0.3067669986803285 0.203627750582736 0  0.4262598344738712 0.2036568242185335 0  0.5814408164431408 0.2041285596160068 0  0.5688286748170428 0.1961819304477386 0  0.4145905603063645 0.2038180695522843 0  0.3473758401724931 0.2038180695522752 0  0.2950977245128307 0.2038180695522663 0  0.5688286748170693 0.203818069552238 0  0.2950977245127906 0.1961819304477774 0  0.3473758401723931 0.1961819304478349 0  0.4145905603061963 0.1961819304479011 0  0.2601812407614425 0.2056861609747042
[...]
<PointData  Vectors="f_40-0"> 
<DataArray  type="Float64"  Name="f_40-0"  NumberOfComponents="3" format="ascii">0.0000000000000000e+00 0.0000000000000000e+00 0.0000000000000000e+00  0.0000000000000000e+00 0.0000000000000000e+00 0.0000000000000000e+00  0.0000000000000000e+00 0.0000000000000000e+00 0.0000000000000000e+00  0.0000000000000000e+00 0.0000000000000000e+00 0.0000000000000000e+00  2.4614274254028645e-01 -2.2177204359201622e-02 0.0000000000000000e+00  2.3431787111412050e-01 2.2403131218276591e-02 0.0000000000000000e+00  0.0000000000000000e+00 0.0000000000000000e+00 0.0000000000000000e+00  0.0000000000000000e+00 0.0000000000000000e+00 0.0000000000000000e+00  0.0000000000000000e+00 0.0000000000000000e+00 0.0000000000000000e+00  0.0000000000000000e+00 0.0000000000000000e+00 0.0000000000000000e+00  1.8650181672526084e-01 3.4462231661762388e-04 0.0000000000000000e+00  7.9591836734548407e-02 0.0000000000000000e+00 0.0000000000000000e+00  1.4693877550994527e-01 0.0000000000000000e+00 0.0000000000000000e+00  2.0204081632617479e-01 0.0000000000000000e+00 0.0000000000000000e+00  2.4489795918330076e-01 0.0000000000000000e+00 0.0000000000000000e+00  2.7551020408131754e-01 0.0000000000000000e+00 0.0000000000000000e+00  2.9387755102022350e-01 0.0000000000000000e+00 0.0000000000000000e+00  3.0000000000000004e-01 0.0000000000000000e+00 0.0000000000000000e+00  2.9387755102059482e-01 0.0000000000000000e+00 0.0000000000000000e+00  2.7551020408195548e-01 0.0000000000000000e+00 0.0000000000000000e+00  2.4489795918409071e-01 0.0000000000000000e+00 0.0000000000000000e+00  2.0204081632692525e-01 0.0000000000000000e+00 0.0000000000000000e+00  1.4693877551058568e-01 0.0000000000000000e+00 0.0000000000000000e+00  7.9591836734909230e-02 0.0000000000000000e+00 0.0000000000000000e+00  0.0000000000000000e+00 0.0000000000000000e+00 0.0000000000000000e+00  0.0000000000000000e+00 0.0000000000000000e+00 0.0000000000000000e+00  0.0000000000000000e+00 0.0000000000000000e+00 0.0000000000000000e+00  0.0000000000000000e+00 0.0000000000000000e+00 0.0000000000000000e+00  0.0000000000000000e+00 0.0000000000000000e+00 0.0000000000000000e+00  0.0000000000000000e+00 0.0000000000000000e+00 0.0000000000000000e+00  0.0000000000000000e+00 0.0000000000000000e+00 0.0000000000000000e+00  0.0000000000000000e+00 0.0000000000000000e+00 0.0000000000000000e+00  0.0000000000000000e+00 0.0000000000000000e+00 0.0000000000000000e+00  0.0000000000000000e+00 0.0000000000000000e+00 0.0000000000000000e+00  0.0000000000000000e+00 0.0000000000000000e+00 0.0000000000000000e+00  0.0000000000000000e+00 0.0000000000000000e+00 0.0000000000000000e+00  0.0000000000000000e+00 0.0000000000000000e+00 0.0000000000000000e+00  0.0000000000000000e+00 0.0000000000000000e+00 0.0000000000000000e+00  0.0000000000000000e+00 0.0000000000000000e+00 0.0000000000000000e+00  0.0000000000000000e+00 0.0000000000000000e+00 0.0000000000000000e+00  0.0000000000000000e+00 0.0000000000000000e+00 0.0000000000000000e+00  0.0000000000000000e+00 0.0000000000000000e+00 0.0000000000000000e+00  0.0000000000000000e+00 0.0000000000000000e+00 0.0000000000000000e+00  0.0000000000000000e+00 0.0000000000000000e+00 0.0000000000000000e+00  0.0000000000000000e+00 0.0000000000000000e+00 0.0000000000000000e+00  0.0000000000000000e+00 0.0000000000000000e+00 0.0000000000000000e+00  0.0000000000000000e+00 0.0000000000000000e+00 0.0000000000000000e+00  0.0000000000000000e+00 0.0000000000000000e+00 0.0000000000000000e+00  0.0000000000000000e+00 0.0000000000000000e+00 0.0000000000000000e+00  0.0000000000000000e+00 0.0000000000000000e+00 0.0000000000000000e+00  0.0000000000000000e+00 0.0000000000000000e+00 0.0000000000000000e+00  0.0000000000000000e+00 0.0000000000000000e+00 0.0000000000000000e+00  0.0000000000000000e+00 0.0000000000000000e+00 0.0000000000000000e+00  0.0000000000000000e+00 0.0000000000000000e+00 0.0000000000000000e+00  0.0000000000000000e+00 0.0000000000000000e+00 0.0000000000000000e+00  0.0000000000000000e+00 0.0000000000000000e+00 0.0000000000000000e+00  0.0000000000000000e+00 0.0000000000000000e+00 0.0000000000000000e+00  0.0000000000000000e+00 0.0000000000000000e+00 0.0000000000000000e+00  0.0000000000000000e+00 0.0000000000000000e+00 0.0000000000000000e+00  0.0000000000000000e+00 0.0000000000000000e+00 0.0000000000000000e+00  0.0000000000000000e+00 0.0000000000000000e+00 0.0000000000000000e+00  0.0000000000000000e+00 0.0000000000000000e+00 0.0000000000000000e+00  2.3056384828493681e-01 -5.1036263879671575e-03 0.0000000000000000e+00  3.0482977857853233e-01 -1.6313955208148602e-04 0.0000000000000000e+00  2.3182059332159335e-01 4.1111328084302264e-03 0.0000000000000000e+00  0.0000000000000000e+00 0.0000000000000000e+00 0.0000000000000000e+00  0.0000000000000000e+00 0.0000000000000000e+00 0.0000000000000000e+00  0.0000000000000000e+00 0.0000000000000000e+00 0.0000000000000000e+00  0.0000000000000000e+00 0.0000000000000000e+00 0.0000000000000000e+00  0.0000000000000000e+00 0.0000000000000000e+00 0.0000000000000000e+00  0.0000000000000000e+00 0.0000000000000000e+00 0.0000000000000000e+00  0.0000000000000000e+00 0.0000000000000000e+00 0.0000000000000000e+00  0.0000000000000000e+00 0.0000000000000000e+00 0.0000000000000000e+00  0.0000000000000000e+00 0.0000000000000000e+00 0.0000000000000000e+00  0.0000000000000000e+00 0.0000000000000000e+00 0.0000000000000000e+00  0.0000000000000000e+00 0.0000000000000000e+00 0.0000000000000000e+00  0.0000000000000000e+00 0.0000000000000000e+00 0.0000000000000000e+00  0.0000000000000000e+00 0.0000000000000000e+00 0.0000000000000000e+00  0.0000000000000000e+00 0.0000000000000000e+00 0.0000000000000000e+00  0.0000000000000000e+00 0.0000000000000000e+00 0.0000000000000000e+00  0.0000000000000000e+00 0.0000000000000000e+00 0.0000000000000000e+00  0.0000000000000000e+00 0.0000000000000000e+00 0.0000000000000000e+00  0.0000000000000000e+00 0.0000000000000000e+00 0.0000000000000000e+00  0.0000000000000000e+00 0.0000000000000000e+00 0.0000000000000000e+00  0.0000000000000000e+00 0.0000000000000000e+00 0.0000000000000000e+00  0.0000000000000000e+00 0.0000000000000000e+00 0.0000000000000000e+00  0.0000000000000000e+00 0.0000000000000000e+00 0.0000000000000000e+00  0.0000000000000000e+00 0.0000000000000000e+00 0.0000000000000000e+00  0.0000000000000000e+00 0.0000000000000000e+00 0.0000000000000000e+00  0.0000000000000000e+00 0.0000000000000000e+00 0.0000000000000000e+00  0.0000000000000000e+00 0.0000000000000000e+00 0.0000000000000000e+00  0.0000000000000000e+00 0.0000000000000000e+00 0.0000000000000000e+00  0.0000000000000000e+00 0.0000000000000000e+00 0.0000000000000000e+00  0.0000000000000000e+00 0.0000000000000000e+00 0.0000000000000000e+00  0.0000000000000000e+00 0.0000000000000000e+00 0.0000000000000000e+00  0.0000000000000000e+00 0.0000000000000000e+00 0.0000000000000000e+00  0.0000000000000000e+00 0.0000000000000000e+00 0.0000000000000000e+00  0.0000000000000000e+00 0.0000000000000000e+00 0.0000000000000000e+00  0.0000000000000000e+00 0.0000000000000000e+00 0.0000000000000000e+00  0.0000000000000000e+00 0.0000000000000000e+00 0.0000000000000000e+00  0.0000000000000000e+00 0.0000000000000000e+00 0.0000000000000000e+00  0.0000000000000000e+00 0.0000000000000000e+00 0.0000000000000000e+00  0.0000000000000000e+00 0.0000000000000000e+00 0.0000000000000000e+00  0.0000000000000000e+00 0.0000000000000000e+00 0.0000000000000000e+00  0.0000000000000000e+00 0.0000000000000000e+00 0.0000000000000000e+00  0.0000000000000000e+00 0.0000000000000000e+00 0.0000000000000000e+00  0.0000000000000000e+00 0.0000000000000000e+00 0.0000000000000000e+00  0.0000000000000000e+00 0.0000000000000000e+00 0.0000000000000000e+00  0.0000000000000000e+00 0.0000000000000000e+00 0.0000000000000000e+00  0.0000000000000000e+00 0.0000000000000000e+00 0.0000000000000000e+00  0.0000000000000000e+00 0.0000000000000000e+00 0.0000000000000000e+00  0.0000000000000000e+00 0.0000000000000000e+00 0.0000000000000000e+00  0.0000000000000000e+00 0.0000000000000000e+00 0.0000000000000000e+00  0.0000000000000000e+00 0.0000000000000000e+00 0.0000000000000000e+00  0.0000000000000000e+00 0.0000000000000000e+00 0.0000000000000000e+00  0.0000000000000000e+00 0.0000000000000000e+00 0.0000000000000000e+00  0.0000000000000000e+00 0.0000000000000000e+00 0.0000000000000000e+00  0.0000000000000000e+00 0.0000000000000000e+00 0.0000000000000000e+00  0.0000000000000000e+00 0.0000000000000000e+00 0.0000000000000000e+00  0.0000000000000000e+00 0.0000000000000000e+00 0.0000000000000000e+00  0.0000000000000000e+00 0.0000000000000000e+00 0.0000000000000000e+00  0.0000000000000000e+00 0.0000000000000000e+00 0.0000000000000000e+00  0.0000000000000000e+00 0.0000000000000000e+00 0.0000000000000000e+00  0.0000000000000000e+00 0.0000000000000000e+00 0.0000000000000000e+00  0.0000000000000000e+00 0.0000000000000000e+00 0.0000000000000000e+00  0.0000000000000000e+00 0.0000000000000000e+00 0.0000000000000000e+00  0.0000000000000000e+00 0.0000000000000000e+00 0.0000000000000000e+00  0.0000000000000000e+00 0.0000000000000000e+00 0.0000000000000000e+00  0.0000000000000000e+00 0.0000000000000000e+00 0.0000000000000000e+00  0.0000000000000000e+00 0.0000000000000000e+00 0.0000000000000000e+00  0.0000000000000000e+00 0.0000000000000000e+00 0.0000000000000000e+00  0.0000000000000000e+00 0.0000000000000000e+00 0.0000000000000000e+00  0.0000000000000000e+00 0.0000000000000000e+00 0.0000000000000000e+00  0.0000000000000000e+00 0.0000000000000000e+00 0.0000000000000000e+00  0.0000000000000000e+00 0.0000000000000000e+00 0.0000000000000000e+00  0.0000000000000000e+00 0.0000000000000000e+00 0.0000000000000000e+00  0.0000000000000000e+00 0.0000000000000000e+00 0.0000000000000000e+00  0.0000000000000000e+00 0.0000000000000000e+00 0.0000000000000000e+00  0.0000000000000000e+00 0.0000000000000000e+00 0.0000000000000000e+00  0.0000000000000000e+00 0.0000000000000000e+00 0.0000000000000000e+00  0.0000000000000000e+00 0.0000000000000000e+00 0.0000000000000000e+00  0.0000000000000000e+00 0.0000000000000000e+00 0.0000000000000000e+00  0.0000000000000000e+00 0.0000000000000000e+00 0.0000000000000000e+00  -1.2191773180836763e-02 -2.2974945765640645e-02 0.0000000000000000e+00  -1.5350812771400695e-02 -1.5012214742965702e-02 0.0000000000000000e+00  -1.4132009052335073e-02 -9.1391340760929602e-03 0.0000000000000000e+00  -1.0833063476850039e-02 -6.2981597563654141e-03 0.0000000000000000e+00  -8.1762488010439522e-03 -5.2065732196539894e-03 0.0000000000000000e+00  -5.1815869594458710e-03 -4.6594203562448956e-03 0.0000000000000000e+00  -1.4178394783798788e-03 -3.2116552730049393e-03 0.0000000000000000e+00  1.2184762472587072e-03 -3.9989417630536678e-03 0.0000000000000000e+00  4.3838294272260259e-03 -3.9214862344421229e-03 0.0000000000000000e+00  7.4628104714093198e-03 -3.7366755709570890e-03 0.0000000000000000e+00  1.0873634649039329e-02 -3.7644928756859920e-03 0.0000000000000000e+00  1.4068791475944795e-02 -3.4810964406576882e-03 0.0000000000000000e+00  1.7956987278222987e-02 -3.4634470114332547e-03 0.0000000000000000e+00  1.4883799081650039e-02 -2.1682018176770331e-03 0.0000000000000000e+00  2.4069700703555061e-02 -2.6174071572398682e-03 0.0000000000000000e+00  2.6589619576761123e-02 -2.4518804903548332e-03 0.0000000000000000e+00  2.9854809490895674e-02 -1.9760885724319542e-03 0.0000000000000000e+00  3.3459415051081506e-02 -2.1773426557023176e-03 0.0000000000000000e+00  3.6438740023338557e-02 -1.6703503197834097e-03 0.0000000000000000e+00  4.1034229416932320e-02 -1.9540148861383762e-03 0.0000000000000000e+00  4.4561676453457238e-02 -1.4606813740604956e-03 0.0000000000000000e+00  4.8483850839099202e-02 -1.8190305318328036e-03 0.0000000000000000e+00  3.5241634557271535e-02 -4.9222024955169824e-04 0.0000000000000000e+00  5.3727204045596264e-02 -1.1579934619754268e-03 0.0000000000000000e+00  5.7177974743576984e-02 -1.0743345060055484e-03 0.0000000000000000e+00  5.9595575503886999e-02 -8.0537731593964849e-04 0.0000000000000000e+00  6.2334199096804370e-02 -8.5893945194943043e-04 0.0000000000000000e+00  6.5538381984653754e-02 -4.8361070723491081e-04 0.0000000000000000e+00  6.8127863415780199e-02 -1.1147906937133318e-03 0.0000000000000000e+00  7.0342051758905580e-02 -1.3219382003568759e-04 0.0000000000000000e+00  7.2661808485409499e-02 -9.8013446441799659e-04 0.0000000000000000e+00  7.3490819932506002e-02 -6.1054357759449820e-05 0.0000000000000000e+00  7.5315811336419930e-02 -6.4787854801529434e-04 0.0000000000000000e+00  7.6548006065406335e-02 -1.9890732259365658e-04 0.0000000000000000e+00  7.8708257975848128e-02 -9.1668234327700246e-04 0.0000000000000000e+00  7.8972857850505632e-02 4.2400530771975631e-07 0.0000000000000000e+00  8.0674629480045681e-02 -5.4751976103302024e-04 0.0000000000000000e+00  8.2536919721289820e-02 3.8393654251178000e-04 0.0000000000000000e+00  8.4013411550778169e-02 -5.9118929018921933e-04 0.0000000000000000e+00  8.3634283220762079e-02 4.9331101466805200e-04 0.0000000000000000e+00  8.3876083688852354e-02 6.9141685477468076e-04 0.0000000000000000e+00  5.8107383201397737e-02 1.7074630917258598e-03 0.0000000000000000e+00  8.6340601751946480e-02 3.8499333380564819e-03 0.0000000000000000e+00  9.4426795915614620e-02 5.7352469272963797e-03 0.0000000000000000e+00  1.0600071726030447e-01 5.4767509284957758e-03 0.0000000000000000e+00  1.5217380011000636e-01 3.9122122426729194e-04 0.0000000000000000e+00  2.0082855907073133e-01 1.7838365923934254e-02 0.0000000000000000e+00  2.1862222072968232e-01 -1.8683053897557315e-02 0.0000000000000000e+00  1.3485146236590723e-01 3.5705708985707177e-03 0.0000000000000000e+00  1.0152460462601286e-01 -2.0025428814536548e-03 0.0000000000000000e+00  9.0266124412965554e-02 -2.7843529191901970e-03 0.0000000000000000e+00  8.6402916713877870e-02 -1.0441731112360852e-03 0.0000000000000000e+00  5.8207496317157686e-02 1.2447343851664923e-04 0.0000000000000000e+00  8.1992197627075741e-02 2.3345332881565487e-03 0.0000000000000000e+00  7.8738810677840262e-02 1.4018508978156138e-03 0.0000000000000000e+00  7.9011697299543729e-02 2.6022057962962189e-03 0.0000000000000000e+00  7.6591860727234409e-02 1.6042140362478616e-03 0.0000000000000000e+00  7.6856190368533805e-02 3.3743347492091484e-03 0.0000000000000000e+00  7.5023046598757415e-02 2.1364081896902329e-03 0.0000000000000000e+00  7.3487438027841648e-02 3.8788518262085378e-03 0.0000000000000000e+00  7.1793456808163583e-02 3.0733766307730805e-03 0.0000000000000000e+00  7.1019182756752647e-02 4.4889954729483324e-03 0.0000000000000000e+00  6.8429666923278273e-02 3.6873839433166598e-03 0.0000000000000000e+00  6.8236756091600542e-02 5.2622762842695833e-03 0.0000000000000000e+00  6.5750978480509967e-02 4.1329901008450975e-03 0.0000000000000000e+00  6.3739877482068413e-02 5.5722185697084543e-03 0.0000000000000000e+00  6.1490430740226310e-02 4.8045926275569169e-03 0.0000000000000000e+00  6.0072083006657645e-02 5.9257429805694992e-03 0.0000000000000000e+00  5.6863484498284912e-02 5.1209268600619622e-03 0.0000000000000000e+00  5.5103091101340859e-02 6.1277497833754991e-03 0.0000000000000000e+00  5.3499606944153053e-02 5.5623045197894863e-03 0.0000000000000000e+00  3.6218930473112504e-02 4.6230883507030422e-03 0.0000000000000000e+00  4.9586499060026303e-02 6.6534162582513956e-03 0.0000000000000000e+00  4.6814221855880828e-02 7.1842569876301538e-03 0.0000000000000000e+00  4.4540575427274652e-02 7.3677370760499954e-03 0.0000000000000000e+00  4.0966915464140510e-02 6.9936913759670646e-03 0.0000000000000000e+00  3.8096894805368188e-02 7.2432653663000559e-03 0.0000000000000000e+00  3.4486872338697343e-02 6.8585914687856742e-03 0.0000000000000000e+00  3.0902485573670663e-02 6.8310733436121925e-03 0.0000000000000000e+00  2.6821185757470081e-02 6.5157061593850343e-03 0.0000000000000000e+00  1.6410643843188442e-02 4.6217847654687642e-03 0.0000000000000000e+00  2.0344190829047377e-02 6.2707352305329100e-03 0.0000000000000000e+00  1.6988404819316082e-02 6.2423927278788356e-03 0.0000000000000000e+00  1.3381760987948374e-02 6.2138301510199440e-03 0.0000000000000000e+00  9.6121828759534109e-03 5.9373852339800895e-03 0.0000000000000000e+00  6.2579840422202077e-03 5.8449536635736560e-03 0.0000000000000000e+00  2.7296348322129733e-03 5.4462359210879375e-03 0.0000000000000000e+00  -3.9105358988429043e-04 3.9633072577720035e-03 0.0000000000000000e+00  -3.6968071860160492e-03 5.2477944628078720e-03 0.0000000000000000e+00  -6.8913313864689798e-03 5.5609937692946681e-03 0.0000000000000000e+00  -9.5966310289979373e-03 6.1602877486713675e-03 0.0000000000000000e+00  -1.2379248945182258e-02 8.2326747321905154e-03 0.0000000000000000e+00  -1.3514629490720964e-02 1.3434263438030988e-02 0.0000000000000000e+00  -1.0616037167784457e-02 2.1134425627608623e-02 0.0000000000000000e+00  -1.6438034464218757e-03 -7.1840692504575551e-05 0.0000000000000000e+00  1.8310808851978118e-02 1.7595571468770717e-04 0.0000000000000000e+00  1.3155898334438377e-02 1.9425134032459906e-04 0.0000000000000000e+00  1.1818500742751113e-02 1.8507132785666063e-04 0.0000000000000000e+00  -1.5914781941463263e-03 -3.4546812152748283e-05 0.0000000000000000e+00  1.1225843110649345e-02 1.4856839235768548e-04 0.0000000000000000e+00  -8.8378650269326908e-04 1.8724553836310776e-05 0.0000000000000000e+00  1.0871746887308395e-02 1.7307520706807332e-04 0.0000000000000000e+00  5.4974517144492383e-04 1.1201764746691729e-04 0.0000000000000000e+00  1.4509219083723476e-03 1.4378308842264890e-04 0.0000000000000000e+00  1.0498148533086355e-02 2.1818820832555748e-04 0.0000000000000000e+00  3.9828827562442583e-03 2.9448382024069986e-04 0.0000000000000000e+00  9.5955002921735682e-03 2.9631234785563033e-04 0.0000000000000000e+00  2.4719035890313269e-03 1.8821221981705057e-04 0.0000000000000000e+00  4.7956808317314841e-03 3.3160816736887831e-04 0.0000000000000000e+00  9.0311891833928619e-03 3.2068673627690781e-04 0.0000000000000000e+00  1.0075352310145672e-02 2.6331411704514165e-04 0.0000000000000000e+00  5.6798564137401173e-03 3.5905947977635195e-04 0.0000000000000000e+00  8.4130738871992326e-03 3.3593539868301893e-04 0.0000000000000000e+00  6.7247188335715731e-03 3.7595457802451157e-04 0.0000000000000000e+00  7.9220234121438922e-03 3.4808198480861777e-04 0.0000000000000000e+00  2.8411860807786306e-03 1.5561344830308601e-04 0.0000000000000000e+00  1.2414204059423956e-03 1.0537164058955238e-04 0.0000000000000000e+00  4.5746875015824830e-03 6.6889266667340312e-05 0.0000000000000000e+00  -6.6648637469274771e-05 3.1467981219289680e-05 0.0000000000000000e+00  2.0803687359369473e-02 -4.3217749755178710e-04 0.0000000000000000e+00  -2.6520425913162623e-03 1.8378825798224066e-03 0.0000000000000000e+00  1.6177314787174716e-02 4.2135994690651994e-04 0.0000000000000000e+00  1.6852502599696992e-02 3.6163658774229893e-04 0.0000000000000000e+00  -1.9091228068475489e-03 -9.9177022156184233e-04 0.0000000000000000e+00  1.2903072783578876e-03 -6.8640424294104645e-04 0.0000000000000000e+00  1.4392213283628077e-02 8.1371179030792723e-04 0.0000000000000000e+00  1.5632120644161990e-02 5.6775510280469431e-04 0.0000000000000000e+00  6.1505363393782337e-03 -3.4896179037168450e-04 0.0000000000000000e+00  1.3652069941783385e-02 9.2793693159683079e-04 0.0000000000000000e+00  2.7400296914549499e-03 -6.5351907638355083e-04 0.0000000000000000e+00  7.4129126474901689e-03 -2.6748991599557088e-04 0.0000000000000000e+00  1.2740713265252234e-02 1.0064372345618832e-03 0.0000000000000000e+00  1.4978996359544033e-02 6.9490876948100468e-04 0.0000000000000000e+00  8.7529097456402593e-03 -2.2394576018170597e-04 0.0000000000000000e+00  1.2041030223441126e-02 1.0695555421291779e-03 0.0000000000000000e+00  -2.9298130301518601e-04 -3.6516241132981525e-04 0.0000000000000000e+00  -2.7527907318562988e-04 3.4834094881675817e-04 0.0000000000000000e+00  4.7315118990131001e-02 1.1909516463147903e-03 0.0000000000000000e+00  -2.8736658937882848e-03 -1.9957766624597926e-03 0.0000000000000000e+00  1.3453437628484491e-02 1.4100519487966550e-03 0.0000000000000000e+00  