<?xml version="1.0"?>
<VTKFile type="UnstructuredGrid"  version="0.1"  >
<UnstructuredGrid>
<Piece  NumberOfPoints="1419" NumberOfCells="2698">
<Points>
<DataArray  type="Float64"  NumberOfComponents="3"  format="ascii">0 0 0  0 0.41 0  2.5 0 0  2.5 0.41 0  0.6 0.19 0  0.6 0.21 0  0.25 0.2 0  0.15 0.2 0  0.2489897948556636 0.21 0  0.2489897948556636 0.19 0  0.6 0.2 0  0 0.3807142857143437 0  0 0.3514285714286952 0  0 0.3221428571430699 0  0 0.29285714285744 0  0 0.2635714285718054 0  0 0.2342857142861561 0  0 0.2050000000005308 0  0 0.175714285714732 0  0 0.1464285714289574 0  0 0.1171428571431897 0  0 0.08785714285737878 0  0 0.05857142857161107 0  0 0.02928571428580012 0  0.03015443760436003 0 0  0.06140001986583606 0 0  0.09377624077125973 0 0  0.1273239957535082 0 0  0.1620856860351972 0 0  0.1981052433264291 0 0  0.235428184091502 0 0  0.2741016576309132 0 0  0.3141745521465447 0 0  0.3556974926295285 0 0  0.3987229542472677 0 0  0.4433053055141081 0 0  0.4895008759286886 0 0  0.5373680609405097 0 0  0.5869673343216626 0 0  0.6383613676634521 0 0  0.6916151138468254 0 0  0.7467958595648856 0 0  0.8039733463919316 0 0  0.8632198139502143 0 0  0.9246101326867038 0 0  0.9882218810934433 0 0  1.054135445558498 0 0  1.122434100542598 0 0  1.193204177141305 0 0  1.266535089879536 0 0  1.342519516046404 0 0  1.421253448503939 0 0  1.502836389106271 0 0  1.587371439758838 0 0  1.674965418777374 0 0  1.765729001825544 0 0  1.859776908880082 0 0  1.957227977487062 0 0  2.058205329869943 0 0  2.162836591189951 0 0  2.271253957290865 0 0  2.383594446803425 0 0  2.5 0.1024999999997612 0  2.5 0.2049999999994743 0  2.5 0.3074999999997183 0  2.383594446803656 0.41 0  2.271253957291315 0.41 0  2.162836591190598 0.41 0  2.058205329870775 0.41 0  1.957227977488067 0.41 0  1.859776908881246 0.41 0  1.765729001826854 0.41 0  1.674965418778818 0.41 0  1.58737143976041 0.41 0  1.502836389107956 0.41 0  1.421253448505726 0.41 0  1.342519516048286 0.41 0  1.266535089881505 0.41 0  1.193204177143353 0.41 0  1.122434100544716 0.41 0  1.05413544556068 0.41 0  0.9882218810956305 0.41 0  0.9246101326886647 0.41 0  0.8632198139519631 0.41 0  0.8039733463934788 0.41 0  0.7467958595662458 0.41 0  0.6916151138480078 0.41 0  0.6383613676644679 0.41 0  0.5869673343225223 0.41 0  0.5373680609412221 0.41 0  0.4895008759292634 0.41 0  0.4433053055145528 0.41 0  0.3987229542475914 0.41 0  0.3556974926297398 0.41 0  0.3141745521466497 0.41 0  0.2741016576310038 0.41 0  0.2354281840915826 0.41 0  0.1981052433265003 0.41 0  0.1620856860352591 0.41 0  0.1273239957535623 0.41 0  0.09377624077128965 0.41 0  0.06140001986584975 0.41 0  0.03015443760436654 0.41 0  0.2497468076502589 0.2050254481002335 0  0.2497468076502614 0.1949745518997913 0  0.2469965252529372 0.1829317073451959 0  0.2439893735792749 0.1762316384219906 0  0.2400332147834255 0.1700443375285386 0  0.2352133972704371 0.1645032867342007 0  0.2296339016332438 0.1597280261969788 0  0.2234150974217223 0.1558215752574715 0  0.2166911463437691 0.1528682099456123 0  0.2096071079204251 0.1509316448471593 0  0.2023158100364996 0.1500536585536553 0  0.194974551899914 0.1502531923497262 0  0.1877417105387872 0.1515259415822739 0  0.1807733240461124 0.153844448527136 0  0.1742197252835808 0.15715869474974 0  0.1682222986673531 0.1613971801805478 0  0.162910430003803 0.1664684656256651 0  0.1583987151779087 0.1722631454351573 0  0.1547844879126891 0.178656207771761 0  0.1521457199348551 0.1855097315605723 0  0.1505393388476355 0.1926758619366523 0  0.1505393388476328 0.2073241380633295 0  0.1521457199348437 0.2144902684393899 0  0.1547844879126531 0.221343792228163 0  0.1583987151778488 0.2277368545647528 0  0.1629104300036858 0.2335315343742052 0  0.1682222986671726 0.2386028198193036 0  0.1742197252833576 0.2428413052501257 0  0.1807733240458683 0.2461555514727623 0  0.1877417105384929 0.2484740584176516 0  0.1949745518995776 0.2497468076502398 0  0.202315810036185 0.2499463414463592 0  0.2096071079201568 0.2490683551528932 0  0.2166911463435495 0.2471317900544655 0  0.2234150974215506 0.2441784247426195 0  0.2296339016331197 0.2402719738031125 0  0.2352133972703547 0.2354967132658811 0  0.2400332147833751 0.2299556624715287 0  0.2439893735792577 0.2237683615780412 0  0.246996525252926 0.2170682926548348 0  0.25645809709277 0.21 0  0.2639263993298655 0.21 0  0.271394701566961 0.21 0  0.2788630038040554 0.21 0  0.2863313060411479 0.21 0  0.2937996082782405 0.21 0  0.301267910515333 0.21 0  0.3087362127524279 0.21 0  0.3162045149895234 0.21 0  0.3236728172265972 0.21 0  0.3311411194636928 0.21 0  0.3386094217007701 0.21 0  0.3460777239378666 0.21 0  0.3535460261749672 0.21 0  0.3610143284120516 0.21 0  0.3684826306491596 0.21 0  0.3759509328862226 0.21 0  0.383419235123329 0.21 0  0.3908875373604028 0.21 0  0.3983558395975142 0.21 0  0.4058241418345938 0.21 0  0.4132924440716992 0.21 0  0.4207607463087888 0.21 0  0.4282290485459029 0.21 0  0.4356973507830418 0.21 0  0.4431656530201649 0.21 0  0.4506339552573136 0.21 0  0.4581022574944306 0.21 0  0.4655705597315852 0.21 0  0.4730388619686996 0.21 0  0.480507164205851 0.21 0  0.4879754664429498 0.21 0  0.4954437686800938 0.21 0  0.502912070917267 0.21 0  0.5103803731544119 0.21 0  0.5178486753915261 0.21 0  0.5253169776286404 0.21 0  0.5327852798657868 0.21 0  0.5402535821029386 0.21 0  0.54772188434007 0.21 0  0.5551901865771842 0.21 0  0.5626584888143201 0.21 0  0.5701267910514778 0.21 0  0.5775950932886138 0.21 0  0.5850633955257281 0.21 0  0.5925316977628483 0.21 0  0.6 0.2050000000000054 0  0.6 0.1950000000000217 0  0.5925316977628897 0.19 0  0.5850633955257988 0.19 0  0.5775950932887378 0.19 0  0.5701267910515998 0.19 0  0.5626584888145268 0.19 0  0.5551901865773963 0.19 0  0.547721884340339 0.19 0  0.5402535821032429 0.19 0  0.5327852798661811 0.19 0  0.5253169776290537 0.19 0  0.5178486753919799 0.19 0  0.5103803731549078 0.19 0  0.502912070917822 0.19 0  0.4954437686807294 0.19 0  0.4879754664436223 0.19 0  0.4805071642065402 0.19 0  0.4730388619694271 0.19 0  0.4655705597323621 0.19 0  0.4581022574952563 0.19 0  0.4506339552581777 0.19 0  0.4431656530210671 0.19 0  0.4356973507839815 0.19 0  0.4282290485468779 0.19 0  0.4207607463097617 0.19 0  0.4132924440726327 0.19 0  0.4058241418354857 0.19 0  0.3983558395983636 0.19 0  0.3908875373612097 0.19 0  0.3834192351240934 0.19 0  0.3759509328869369 0.19 0  0.3684826306498175 0.19 0  0.361014328412667 0.19 0  0.3535460261755617 0.19 0  0.3460777239384295 0.19 0  0.3386094217012945 0.19 0  0.3311411194641595 0.19 0  0.3236728172270245 0.19 0  0.3162045149898895 0.19 0  0.3087362127527544 0.19 0  0.3012679105156187 0.19 0  0.2937996082784807 0.19 0  0.2863313060413428 0.19 0  0.2788630038042048 0.19 0  0.2713947015670686 0.19 0  0.2639263993299336 0.19 0  0.2564580970927985 0.19 0  0.2607803159922026 0.2000727136295815 0  0.5887803774232762 0.2001272386983733 0  0.5745072403740523 0.2002044435018727 0  0.5511891430099709 0.2001122610077113 0  0.2751288526855082 0.20000000000002 0  0.5365194309847112 0.1999999999999436 0  0.2894621222999649 0.1998691686390484 0  0.5215828265105155 0.1999999999999228 0  0.3127789816668748 0.1998657885438805 0  0.3274069683451451 0.2000000000000796 0  0.5066462220363641 0.199999999999908 0  0.3650630746574081 0.199866017807523 0  0.476773013087985 0.1999999999998713 0  0.3417402379596385 0.1998691686391011 0  0.3796850840047755 0.200000000000134 0  0.4618364086138087 0.1999999999998546 0  0.4917096175621762 0.1999999999998808 0  0.3946216884789568 0.2000000000001512 0  0.446899804139621 0.1999999999998389 0  0.4089549580935208 0.1998691686391595 0  0.4322718174608562 0.200127451265745 0  0.4201487168029707 0.1999966199048527 0  0.3528922713220932 0.2000185703532356 0  0.5633122436674589 0.1999814296467508 0  0.3006558810093873 0.1999966199048318 0  0.5815926498168407 0.1966545283159175 0  0.2677053789419034 0.1964246479135325 0  0.5290511287476175 0.1970915826863981 0  0.5439877332217911 0.197091582686394 0  0.2825131256993216 0.2035478995978015 0  0.3199386661080599 0.202908417313604 0  0.4842413153250809 0.1970915826863873 0  0.5141145242734466 0.1970915826863843 0  0.3722167817676917 0.2029084173136195 0  0.4693047108508938 0.1970915826863783 0  0.3348752705822316 0.202908417313609 0  0.3871533862418661 0.2029084173136212 0  0.4543681063767183 0.1970915826863795 0  0.4991779197992749 0.1970915826863902 0  0.4020059614928624 0.203547899597858 0  0.4394315019025246 0.1970915826863714 0  0.2550657455369551 0.2034088125358657 0  0.2548908499171161 0.1966940311614271 0  0.5946539510196798 0.2024302972968126 0  0.267698176732111 0.2039977513680092 0  0.4261685417851465 0.196409292431739 0  0.3590076176283495 0.196411355804271 0  0.5571672426447437 0.2036011176410121 0  0.3066757059912147 0.1964092924317024 0  0.594380730180568 0.1966558399668133 0  0.4842413153245942 0.2040749161535287 0  0.4693047108503577 0.2040749161535231 0  0.3871533862424271 0.1959250838464788 0  0.372246743208829 0.1959123236376545 0  0.5141145242731028 0.2040749161535395 0  0.4543681063761134 0.2040749161535186 0  0.4019979587101454 0.1959834479682427 0  0.4394608940728603 0.2040870543693135 0  0.5439623148931173 0.2040856076781014 0  0.5290511287473298 0.2040749161535501 0  0.4991779197988497 0.2040749161535382 0  0.3347912413592433 0.1959225448935183 0  0.3199680582793816 0.1959123018030061 0  0.2825051229162361 0.1959834479681729 0  0.3590471196690275 0.2036304442587945 0  0.5571594006495384 0.1963685282145804 0  0.3067669986803285 0.203627750582736 0  0.4262598344738712 0.2036568242185335 0  0.5814408164431408 0.2041285596160068 0  0.5688286748170428 0.1961819304477386 0  0.4145905603063645 0.2038180695522843 0  0.3473758401724931 0.2038180695522752 0  0.2950977245128307 0.2038180695522663 0  0.5688286748170693 0.203818069552238 0  0.2950977245127906 0.1961819304477774 0  0.3473758401723931 0.1961819304478349 0  0.4145905603061963 0.1961819304479011 0  0.2601812407614425 0.2056861609747042
[...]
<PointData  Vectors="f_40-1"> 
<DataArray  type="Float64"  Name="f_40-1"  NumberOfComponents="3" format="ascii">0.0000000000000000e+00 0.0000000000000000e+00 0.0000000000000000e+00  0.0000000000000000e+00 0.0000000000000000e+00 0.0000000000000000e+00  0.0000000000000000e+00 0.0000000000000000e+00 0.0000000000000000e+00  0.0000000000000000e+00 0.0000000000000000e+00 0.0000000000000000e+00  5.8340322610190515e-05 2.0813129614048399e-03 0.0000000000000000e+00  -8.7412640873056645e-05 2.0811870386641448e-03 0.0000000000000000e+00  0.0000000000000000e+00 0.0000000000000000e+00 0.0000000000000000e+00  0.0000000000000000e+00 0.0000000000000000e+00 0.0000000000000000e+00  0.0000000000000000e+00 0.0000000000000000e+00 0.0000000000000000e+00  0.0000000000000000e+00 0.0000000000000000e+00 0.0000000000000000e+00  -1.4607603843647520e-05 2.0812423238489577e-03 0.0000000000000000e+00  0.0000000000000000e+00 0.0000000000000000e+00 0.0000000000000000e+00  0.0000000000000000e+00 0.0000000000000000e+00 0.0000000000000000e+00  0.0000000000000000e+00 0.0000000000000000e+00 0.0000000000000000e+00  0.0000000000000000e+00 0.0000000000000000e+00 0.0000000000000000e+00  0.0000000000000000e+00 0.0000000000000000e+00 0.0000000000000000e+00  0.0000000000000000e+00 0.0000000000000000e+00 0.0000000000000000e+00  0.0000000000000000e+00 0.0000000000000000e+00 0.0000000000000000e+00  0.0000000000000000e+00 0.0000000000000000e+00 0.0000000000000000e+00  0.0000000000000000e+00 0.0000000000000000e+00 0.0000000000000000e+00  0.0000000000000000e+00 0.0000000000000000e+00 0.0000000000000000e+00  0.0000000000000000e+00 0.0000000000000000e+00 0.0000000000000000e+00  0.0000000000000000e+00 0.0000000000000000e+00 0.0000000000000000e+00  0.0000000000000000e+00 0.0000000000000000e+00 0.0000000000000000e+00  0.0000000000000000e+00 0.0000000000000000e+00 0.0000000000000000e+00  0.0000000000000000e+00 0.0000000000000000e+00 0.0000000000000000e+00  0.0000000000000000e+00 0.0000000000000000e+00 0.0000000000000000e+00  0.0000000000000000e+00 0.0000000000000000e+00 0.0000000000000000e+00  0.0000000000000000e+00 0.0000000000000000e+00 0.0000000000000000e+00  0.0000000000000000e+00 0.0000000000000000e+00 0.0000000000000000e+00  0.0000000000000000e+00 0.0000000000000000e+00 0.0000000000000000e+00  0.0000000000000000e+00 0.0000000000000000e+00 0.0000000000000000e+00  0.0000000000000000e+00 0.0000000000000000e+00 0.0000000000000000e+00  0.0000000000000000e+00 0.0000000000000000e+00 0.0000000000000000e+00  0.0000000000000000e+00 0.0000000000000000e+00 0.0000000000000000e+00  0.0000000000000000e+00 0.0000000000000000e+00 0.0000000000000000e+00  0.0000000000000000e+00 0.0000000000000000e+00 0.0000000000000000e+00  0.0000000000000000e+00 0.0000000000000000e+00 0.0000000000000000e+00  0.0000000000000000e+00 0.0000000000000000e+00 0.0000000000000000e+00  0.0000000000000000e+00 0.0000000000000000e+00 0.0000000000000000e+00  0.0000000000000000e+00 0.0000000000000000e+00 0.0000000000000000e+00  0.0000000000000000e+00 0.0000000000000000e+00 0.0000000000000000e+00  0.0000000000000000e+00 0.0000000000000000e+00 0.0000000000000000e+00  0.0000000000000000e+00 0.0000000000000000e+00 0.0000000000000000e+00  0.0000000000000000e+00 0.0000000000000000e+00 0.0000000000000000e+00  0.0000000000000000e+00 0.0000000000000000e+00 0.0000000000000000e+00  0.0000000000000000e+00 0.0000000000000000e+00 0.0000000000000000e+00  0.0000000000000000e+00 0.0000000000000000e+00 0.0000000000000000e+00  0.0000000000000000e+00 0.0000000000000000e+00 0.0000000000000000e+00  0.0000000000000000e+00 0.0000000000000000e+00 0.0000000000000000e+00  0.0000000000000000e+00 0.0000000000000000e+00 0.0000000000000000e+00  0.0000000000000000e+00 0.0000000000000000e+00 0.0000000000000000e+00  0.0000000000000000e+00 0.0000000000000000e+00 0.0000000000000000e+00  0.0000000000000000e+00 0.0000000000000000e+00 0.0000000000000000e+00  0.0000000000000000e+00 0.0000000000000000e+00 0.0000000000000000e+00  0.0000000000000000e+00 0.0000000000000000e+00 0.0000000000000000e+00  0.0000000000000000e+00 0.0000000000000000e+00 0.0000000000000000e+00  0.0000000000000000e+00 0.0000000000000000e+00 0.0000000000000000e+00  0.0000000000000000e+00 0.0000000000000000e+00 0.0000000000000000e+00  0.0000000000000000e+00 0.0000000000000000e+00 0.0000000000000000e+00  0.0000000000000000e+00 0.0000000000000000e+00 0.0000000000000000e+00  0.0000000000000000e+00 0.0000000000000000e+00 0.0000000000000000e+00  0.0000000000000000e+00 0.0000000000000000e+00 0.0000000000000000e+00  0.0000000000000000e+00 0.0000000000000000e+00 0.0000000000000000e+00  0.0000000000000000e+00 0.0000000000000000e+00 0.0000000000000000e+00  0.0000000000000000e+00 0.0000000000000000e+00 0.0000000000000000e+00  0.0000000000000000e+00 0.0000000000000000e+00 0.0000000000000000e+00  0.0000000000000000e+00 0.0000000000000000e+00 0.0000000000000000e+00  0.0000000000000000e+00 0.0000000000000000e+00 0.0000000000000000e+00  0.0000000000000000e+00 0.0000000000000000e+00 0.0000000000000000e+00  0.0000000000000000e+00 0.0000000000000000e+00 0.0000000000000000e+00  0.0000000000000000e+00 0.0000000000000000e+00 0.0000000000000000e+00  0.0000000000000000e+00 0.0000000000000000e+00 0.0000000000000000e+00  0.0000000000000000e+00 0.0000000000000000e+00 0.0000000000000000e+00  0.0000000000000000e+00 0.0000000000000000e+00 0.0000000000000000e+00  0.0000000000000000e+00 0.0000000000000000e+00 0.0000000000000000e+00  0.0000000000000000e+00 0.0000000000000000e+00 0.0000000000000000e+00  0.0000000000000000e+00 0.0000000000000000e+00 0.0000000000000000e+00  0.0000000000000000e+00 0.0000000000000000e+00 0.0000000000000000e+00  0.0000000000000000e+00 0.0000000000000000e+00 0.0000000000000000e+00  0.0000000000000000e+00 0.0000000000000000e+00 0.0000000000000000e+00  0.0000000000000000e+00 0.0000000000000000e+00 0.0000000000000000e+00  0.0000000000000000e+00 0.0000000000000000e+00 0.0000000000000000e+00  0.0000000000000000e+00 0.0000000000000000e+00 0.0000000000000000e+00  0.0000000000000000e+00 0.0000000000000000e+00 0.0000000000000000e+00  0.0000000000000000e+00 0.0000000000000000e+00 0.0000000000000000e+00  0.0000000000000000e+00 0.0000000000000000e+00 0.0000000000000000e+00  0.0000000000000000e+00 0.0000000000000000e+00 0.0000000000000000e+00  0.0000000000000000e+00 0.0000000000000000e+00 0.0000000000000000e+00  0.0000000000000000e+00 0.0000000000000000e+00 0.0000000000000000e+00  0.0000000000000000e+00 0.0000000000000000e+00 0.0000000000000000e+00  0.0000000000000000e+00 0.0000000000000000e+00 0.0000000000000000e+00  0.0000000000000000e+00 0.0000000000000000e+00 0.0000000000000000e+00  0.0000000000000000e+00 0.0000000000000000e+00 0.0000000000000000e+00  0.0000000000000000e+00 0.0000000000000000e+00 0.0000000000000000e+00  0.0000000000000000e+00 0.0000000000000000e+00 0.0000000000000000e+00  0.0000000000000000e+00 0.0000000000000000e+00 0.0000000000000000e+00  0.0000000000000000e+00 0.0000000000000000e+00 0.0000000000000000e+00  0.0000000000000000e+00 0.0000000000000000e+00 0.0000000000000000e+00  0.0000000000000000e+00 0.0000000000000000e+00 0.0000000000000000e+00  0.0000000000000000e+00 0.0000000000000000e+00 0.0000000000000000e+00  0.0000000000000000e+00 0.0000000000000000e+00 0.0000000000000000e+00  0.0000000000000000e+00 0.0000000000000000e+00 0.0000000000000000e+00  0.0000000000000000e+00 0.0000000000000000e+00 0.0000000000000000e+00  0.0000000000000000e+00 0.0000000000000000e+00 0.0000000000000000e+00  0.0000000000000000e+00 0.0000000000000000e+00 0.0000000000000000e+00  0.0000000000000000e+00 0.0000000000000000e+00 0.0000000000000000e+00  0.0000000000000000e+00 0.0000000000000000e+00 0.0000000000000000e+00  0.0000000000000000e+00 0.0000000000000000e+00 0.0000000000000000e+00  0.0000000000000000e+00 0.0000000000000000e+00 0.0000000000000000e+00  0.0000000000000000e+00 0.0000000000000000e+00 0.0000000000000000e+00  0.0000000000000000e+00 0.0000000000000000e+00 0.0000000000000000e+00  0.0000000000000000e+00 0.0000000000000000e+00 0.0000000000000000e+00  0.0000000000000000e+00 0.0000000000000000e+00 0.0000000000000000e+00  0.0000000000000000e+00 0.0000000000000000e+00 0.0000000000000000e+00  0.0000000000000000e+00 0.0000000000000000e+00 0.0000000000000000e+00  0.0000000000000000e+00 0.0000000000000000e+00 0.0000000000000000e+00  0.0000000000000000e+00 0.0000000000000000e+00 0.0000000000000000e+00  0.0000000000000000e+00 0.0000000000000000e+00 0.0000000000000000e+00  0.0000000000000000e+00 0.0000000000000000e+00 0.0000000000000000e+00  0.0000000000000000e+00 0.0000000000000000e+00 0.0000000000000000e+00  0.0000000000000000e+00 0.0000000000000000e+00 0.0000000000000000e+00  0.0000000000000000e+00 0.0000000000000000e+00 0.0000000000000000e+00  0.0000000000000000e+00 0.0000000000000000e+00 0.0000000000000000e+00  0.0000000000000000e+00 0.0000000000000000e+00 0.0000000000000000e+00  0.0000000000000000e+00 0.0000000000000000e+00 0.0000000000000000e+00  0.0000000000000000e+00 0.0000000000000000e+00 0.0000000000000000e+00  0.0000000000000000e+00 0.0000000000000000e+00 0.0000000000000000e+00  0.0000000000000000e+00 0.0000000000000000e+00 0.0000000000000000e+00  0.0000000000000000e+00 0.0000000000000000e+00 0.0000000000000000e+00  0.0000000000000000e+00 0.0000000000000000e+00 0.0000000000000000e+00  0.0000000000000000e+00 0.0000000000000000e+00 0.0000000000000000e+00  0.0000000000000000e+00 0.0000000000000000e+00 0.0000000000000000e+00  0.0000000000000000e+00 0.0000000000000000e+00 0.0000000000000000e+00  0.0000000000000000e+00 0.0000000000000000e+00 0.0000000000000000e+00  0.0000000000000000e+00 0.0000000000000000e+00 0.0000000000000000e+00  0.0000000000000000e+00 0.0000000000000000e+00 0.0000000000000000e+00  0.0000000000000000e+00 0.0000000000000000e+00 0.0000000000000000e+00  0.0000000000000000e+00 0.0000000000000000e+00 0.0000000000000000e+00  0.0000000000000000e+00 0.0000000000000000e+00 0.0000000000000000e+00  0.0000000000000000e+00 0.0000000000000000e+00 0.0000000000000000e+00  0.0000000000000000e+00 0.0000000000000000e+00 0.0000000000000000e+00  0.0000000000000000e+00 0.0000000000000000e+00 0.0000000000000000e+00  -5.8620151753304822e-06 5.8145278880237427e-06 0.0000000000000000e+00  -1.2408127744951257e-05 1.2494641120282030e-05 0.0000000000000000e+00  -1.8174189034038913e-05 2.3142505224613532e-05 0.0000000000000000e+00  -2.4290478932107680e-05 3.8007487666409300e-05 0.0000000000000000e+00  -2.9364160541930866e-05 5.6295259910172461e-05 0.0000000000000000e+00  -3.4932016701501656e-05 7.8322647272304372e-05 0.0000000000000000e+00  -3.9383441146592474e-05 1.0303593284331334e-04 0.0000000000000000e+00  -4.3592623151268222e-05 1.3121705313848009e-04 0.0000000000000000e+00  -4.8262403383821564e-05 1.6196320541944355e-04 0.0000000000000000e+00  -5.1778713242766766e-05 1.9529338183433257e-04 0.0000000000000000e+00  -5.5872407416933506e-05 2.3113260471018099e-04 0.0000000000000000e+00  -5.8906927879661013e-05 2.6915079944741052e-04 0.0000000000000000e+00  -6.2302373765030076e-05 3.0924416282136573e-04 0.0000000000000000e+00  -6.4952330687583230e-05 3.5094379418397313e-04 0.0000000000000000e+00  -6.7403858253834800e-05 3.9455022726680159e-04 0.0000000000000000e+00  -7.0033807738483669e-05 4.3953437799099614e-04 0.0000000000000000e+00  -7.1980267528107413e-05 4.8584521604220506e-04 0.0000000000000000e+00  -7.4139678736271657e-05 5.3342501652666656e-04 0.0000000000000000e+00  -7.5713950393149106e-05 5.8201193839584357e-04 0.0000000000000000e+00  -7.7419306782524038e-05 6.3154756321662784e-04 0.0000000000000000e+00  -7.8727243799982095e-05 6.8188102471291234e-04 0.0000000000000000e+00  -8.0041908025040197e-05 7.3296995623144362e-04 0.0000000000000000e+00  -8.1070812749175206e-05 7.8456089829047435e-04 0.0000000000000000e+00  -8.1980314922204699e-05 8.3676137651580713e-04 0.0000000000000000e+00  -8.2895561949823478e-05 8.8935211760809789e-04 0.0000000000000000e+00  -8.3609833053550884e-05 9.4234616656887679e-04 0.0000000000000000e+00  -8.4261294130778895e-05 9.9569245674634415e-04 0.0000000000000000e+00  -8.4797470181249100e-05 1.0492669022167968e-03 0.0000000000000000e+00  -8.5273988227815546e-05 1.1030989460477142e-03 0.0000000000000000e+00  -8.5662598987992365e-05 1.1570777653190198e-03 0.0000000000000000e+00  -8.5998925912013198e-05 1.2112236436219782e-03 0.0000000000000000e+00  -8.6267527629808449e-05 1.2654466871929999e-03 0.0000000000000000e+00  -8.6493580999853818e-05 1.3197658883020787e-03 0.0000000000000000e+00  -8.6668250982193732e-05 1.3741114962936597e-03 0.0000000000000000e+00  -8.6807375827337036e-05 1.4285050793259560e-03 0.0000000000000000e+00  -8.6915708158260917e-05 1.4828985173285139e-03 0.0000000000000000e+00  -8.7000577622417955e-05 1.5373059663999131e-03 0.0000000000000000e+00  -8.7067909190955933e-05 1.5917023496617548e-03 0.0000000000000000e+00  -8.7120389385723920e-05 1.6460971407926510e-03 0.0000000000000000e+00  -8.7166040798906041e-05 1.7004816553041571e-03 0.0000000000000000e+00  -8.7205924077002014e-05 1.7548594318944405e-03 0.0000000000000000e+00  -8.7246123088376281e-05 1.8092332935823684e-03 0.0000000000000000e+00  -8.7282428076014437e-05 1.8636097803916055e-03 0.0000000000000000e+00  -8.7321251345475980e-05 1.9179902208593775e-03 0.0000000000000000e+00  -8.7361482892931214e-05 1.9723839349262227e-03 0.0000000000000000e+00  -8.7396111172538692e-05 2.0267867370405783e-03 0.0000000000000000e+00  -5.1027020144234213e-05 2.0812142468953944e-03 0.0000000000000000e+00  2.1840290177979343e-05 2.0812726334483440e-03 0.0000000000000000e+00  5.8335362966619444e-05 2.0268547921083058e-03 0.0000000000000000e+00  5.8353098838252695e-05 1.9724344410357265e-03 0.0000000000000000e+00  5.8378510358346190e-05 1.9180291943420935e-03 0.0000000000000000e+00  5.8406026461003700e-05 1.8636291596073093e-03 0.0000000000000000e+00  5.8439154910970987e-05 1.8092309904736055e-03 0.0000000000000000e+00  5.8483916178113229e-05 1.7548306702145633e-03 0.0000000000000000e+00  5.8535355226592297e-05 1.7004240421088922e-03 0.0000000000000000e+00  5.8595077531882231e-05 1.6460102294434719e-03 0.0000000000000000e+00  5.8660629263246949e-05 1.5915846379598014e-03 0.0000000000000000e+00  5.8731266953329407e-05 1.5371482926307637e-03 0.0000000000000000e+00  5.8800993178611956e-05 1.4827054943099313e-03 0.0000000000000000e+00  5.8875542832991605e-05 1.4282633490271728e-03 0.0000000000000000e+00  5.8935391401840975e-05 1.3738317402453228e-03 0.0000000000000000e+00  5.8999260093621698e-05 1.3194291939458683e-03 0.0000000000000000e+00  5.9024878344407707e-05 1.2650693038889424e-03 0.0000000000000000e+00  5.9059406313221836e-05 1.2107852219079653e-03 0.0000000000000000e+00  5.9025801469104759e-05 1.1565955078007117e-03 0.0000000000000000e+00  5.9012290146319328e-05 1.1025471480501730e-03 0.0000000000000000e+00  5.8894344813075881e-05 1.0486656869831267e-03 0.0000000000000000e+00  5.8813750948687796e-05 9.9501086829722465e-04 0.0000000000000000e+00  5.8579125599907546e-05 9.4161306214638146e-04 0.0000000000000000e+00  5.8403951985160295e-05 8.8854765650879085e-04 0.0000000000000000e+00  5.8026939939830352e-05 8.3586207050404947e-04 0.0000000000000000e+00  5.7696148325027761e-05 7.8358677637993600e-04 0.0000000000000000e+00  5.7298945778019567e-05 7.3192269248978023e-04 0.0000000000000000e+00  5.6662962957162469e-05 6.8073365727371298e-04 0.0000000000000000e+00  5.6026544527709912e-05 6.3033690660130337e-04 0.0000000000000000e+00  5.5162806719351366e-05 5.8068415015376815e-04 0.0000000000000000e+00  5.4258618659727744e-05 5.3202023377448612e-04 0.0000000000000000e+00  5.3090966860287689e-05 4.8435342886244407e-04 0.0000000000000000e+00  5.1876488834653477e-05 4.3788714105278000e-04 0.0000000000000000e+00  5.0187947786064528e-05 3.9290175652235450e-04 0.0000000000000000e+00  4.8685241218962887e-05 3.4917515058409605e-04 0.0000000000000000e+00  4.7021571056489587e-05 3.0740927232925368e-04 0.0000000000000000e+00  4.4742026468826438e-05 2.6708333181267097e-04 0.0000000000000000e+00  4.2525203505128985e-05 2.2903622654275036e-04 0.0000000000000000e+00  3.9854275426304290e-05 1.9308367916822926e-04 0.0000000000000000e+00  3.7198131792785559e-05 1.5953934868686030e-04 0.0000000000000000e+00  3.3762018100490324e-05 1.2884923446249334e-04 0.0000000000000000e+00  3.0759010726276402e-05 1.0052130868722800e-04 0.0000000000000000e+00  2.7569387395517456e-05 7.5718255484256874e-05 0.0000000000000000e+00  2.3367246690945061e-05 5.3496330567648610e-05 0.0000000000000000e+00  1.9479431920025923e-05 3.5039616828134219e-05 0.0000000000000000e+00  1.4658587094492732e-05 2.0288198787345461e-05 0.0000000000000000e+00  1.0285530274221708e-05 9.5659802738297987e-06 0.0000000000000000e+00  4.8828946258303538e-06 3.0034915461278530e-06 0.0000000000000000e+00  -5.9918629403527083e-07 4.7612810047886721e-06 0.0000000000000000e+00  -1.5476232956474964e-05 1.9994858352424764e-03 0.0000000000000000e+00  -1.5967844899978327e-05 1.8955180153311043e-03 0.0000000000000000e+00  -1.5171442973903221e-05 1.7257082018081371e-03 0.0000000000000000e+00  -2.0045335145167827e-06 2.6134741270684768e-05 0.0000000000000000e+00  -1.4248285848115621e-05 1.6188511830207883e-03 0.0000000000000000e+00  -2.9287262131624276e-06 6.1443093086212228e-05 0.0000000000000000e+00  -1.4108668496671442e-05 1.5100094585374700e-03 0.0000000000000000e+00  -4.6474390498437772e-06 1.4451319138168424e-04 0.0000000000000000e+00  -6.3056411141992671e-06 2.1035269016771231e-04 0.0000000000000000e+00  -1.3925669020183687e-05 1.4011552784495525e-03 0.0000000000000000e+00  -8.0306920494887900e-06 4.1697046802280119e-04 0.0000000000000000e+00  -1.3397704231154132e-05 1.1838199204262339e-03 0.0000000000000000e+00  -6.6376581368824209e-06 2.8339018204739366e-04 0.0000000000000000e+00  -9.6890312202350051e-06 5.0802575781658786e-04 0.0000000000000000e+00  -1.3041956498556284e-05 1.0757340385475350e-03 0.0000000000000000e+00  -1.3690608164528175e-05 1.2923726979576892e-03 0.0000000000000000e+00  -1.0485632529188785e-05 6.0544725502776394e-04 0.0000000000000000e+00  -1.2613809890410845e-05 9.6842926917827042e-04 0.0000000000000000e+00  -1.0282936016799877e-05 7.0218633313590053e-04 0.0000000000000000e+00  -1.3020140094933524e-05 8.6447415257577683e-04 0.0000000000000000e+00  -1.1627226556827302e-05 7.7954886808726995e-04 0.0000000000000000e+00  -8.1705562310016012e-06 3.4551504655195377e-04 0.0000000000000000e+00  -1.4289940800501466e-05 1.8139927540827255e-03 0.0000000000000000e+00  -4.1933890723407670e-06 9.8153247546763260e-05 0.0000000000000000e+00  9.8623510355762291e-06 1.9471310563347975e-03 0.0000000000000000e+00  3.7008402154089954e-06 1.3149395156799789e-05 0.0000000000000000e+00  7.0099545550366912e-06 1.5644153406577795e-03 0.0000000000000000e+00  6.8855670563272924e-06 1.6732460770255647e-03 0.0000000000000000e+00  -1.1126888023361835e-05 4.3608938686486633e-05 0.0000000000000000e+00  -1.8645300744916426e-05 1.7609996482650754e-04 0.0000000000000000e+00  7.5573754090034871e-06 1.2380051900478595e-03 0.0000000000000000e+00  7.1647421156335711e-06 1.4555508825503066e-03 0.0000000000000000e+00  -2.7222510856893061e-05 4.6125844699846291e-04 0.0000000000000000e+00  7.7794533478674669e-06 1.1296411795028438e-03 0.0000000000000000e+00  -2.1469524104389737e-05 2.4794124716371945e-04 0.0000000000000000e+00  -2.8926117401039462e-05 5.5653994154947412e-04 0.0000000000000000e+00  8.0083433004386919e-06 1.0218921149617152e-03 0.0000000000000000e+00  7.3494983158531092e-06 1.3467074387770793e-03 0.0000000000000000e+00  -3.4658192873634611e-05 6.5524494843447823e-04 0.0000000000000000e+00  8.2398794654834424e-06 9.1510650313664959e-04 0.0000000000000000e+00  -1.0400309553504884e-06 1.3955376122711404e-06 0.0000000000000000e+00  7.4195334766685370e-07 6.5374576749829528e-07 0.0000000000000000e+00  -3.2286330321260622e-05 2.0422768225808333e-03 0.0000000000000000e+00  -6.8708280218669283e-06 1.4327839895322548e-05 0.0000000000000000e+00  1.3203516858845357e-05 8.2141766788580099e-04 0.0000000000000000e