<?xml version="1.0"?>
<VTKFile type="UnstructuredGrid"  version="0.1"  >
<UnstructuredGrid>
<Piece  NumberOfPoints="1419" NumberOfCells="2698">
<Points>
<DataArray  type="Float64"  NumberOfComponents="3"  format="ascii">0 0 0  0 0.41 0  2.5 0 0  2.5 0.41 0  0.6 0.19 0  0.6 0.21 0  0.25 0.2 0  0.15 0.2 0  0.2489897948556636 0.21 0  0.2489897948556636 0.19 0  0.6 0.2 0  0 0.3807142857143437 0  0 0.3514285714286952 0  0 0.3221428571430699 0  0 0.29285714285744 0  0 0.2635714285718054 0  0 0.2342857142861561 0  0 0.2050000000005308 0  0 0.175714285714732 0  0 0.1464285714289574 0  0 0.1171428571431897 0  0 0.08785714285737878 0  0 0.05857142857161107 0  0 0.02928571428580012 0  0.03015443760436003 0 0  0.06140001986583606 0 0  0.09377624077125973 0 0  0.1273239957535082 0 0  0.1620856860351972 0 0  0.1981052433264291 0 0  0.235428184091502 0 0  0.2741016576309132 0 0  0.3141745521465447 0 0  0.3556974926295285 0 0  0.3987229542472677 0 0  0.4433053055141081 0 0  0.4895008759286886 0 0  0.5373680609405097 0 0  0.5869673343216626 0 0  0.6383613676634521 0 0  0.6916151138468254 0 0  0.7467958595648856 0 0  0.8039733463919316 0 0  0.8632198139502143 0 0  0.9246101326867038 0 0  0.9882218810934433 0 0  1.054135445558498 0 0  1.122434100542598 0 0  1.193204177141305 0 0  1.266535089879536 0 0  1.342519516046404 0 0  1.421253448503939 0 0  1.502836389106271 0 0  1.587371439758838 0 0  1.674965418777374 0 0  1.765729001825544 0 0  1.859776908880082 0 0  1.957227977487062 0 0  2.058205329869943 0 0  2.162836591189951 0 0  2.271253957290865 0 0  2.383594446803425 0 0  2.5 0.1024999999997612 0  2.5 0.2049999999994743 0  2.5 0.3074999999997183 0  2.383594446803656 0.41 0  2.271253957291315 0.41 0  2.162836591190598 0.41 0  2.058205329870775 0.41 0  1.957227977488067 0.41 0  1.859776908881246 0.41 0  1.765729001826854 0.41 0  1.674965418778818 0.41 0  1.58737143976041 0.41 0  1.502836389107956 0.41 0  1.421253448505726 0.41 0  1.342519516048286 0.41 0  1.266535089881505 0.41 0  1.193204177143353 0.41 0  1.122434100544716 0.41 0  1.05413544556068 0.41 0  0.9882218810956305 0.41 0  0.9246101326886647 0.41 0  0.8632198139519631 0.41 0  0.8039733463934788 0.41 0  0.7467958595662458 0.41 0  0.6916151138480078 0.41 0  0.6383613676644679 0.41 0  0.5869673343225223 0.41 0  0.5373680609412221 0.41 0  0.4895008759292634 0.41 0  0.4433053055145528 0.41 0  0.3987229542475914 0.41 0  0.3556974926297398 0.41 0  0.3141745521466497 0.41 0  0.2741016576310038 0.41 0  0.2354281840915826 0.41 0  0.1981052433265003 0.41 0  0.1620856860352591 0.41 0  0.1273239957535623 0.41 0  0.09377624077128965 0.41 0  0.06140001986584975 0.41 0  0.03015443760436654 0.41 0  0.2497468076502589 0.2050254481002335 0  0.2497468076502614 0.1949745518997913 0  0.2469965252529372 0.1829317073451959 0  0.2439893735792749 0.1762316384219906 0  0.2400332147834255 0.1700443375285386 0  0.2352133972704371 0.1645032867342007 0  0.2296339016332438 0.1597280261969788 0  0.2234150974217223 0.1558215752574715 0  0.2166911463437691 0.1528682099456123 0  0.2096071079204251 0.1509316448471593 0  0.2023158100364996 0.1500536585536553 0  0.194974551899914 0.1502531923497262 0  0.1877417105387872 0.1515259415822739 0  0.1807733240461124 0.153844448527136 0  0.1742197252835808 0.15715869474974 0  0.1682222986673531 0.1613971801805478 0  0.162910430003803 0.1664684656256651 0  0.1583987151779087 0.1722631454351573 0  0.1547844879126891 0.178656207771761 0  0.1521457199348551 0.1855097315605723 0  0.1505393388476355 0.1926758619366523 0  0.1505393388476328 0.2073241380633295 0  0.1521457199348437 0.2144902684393899 0  0.1547844879126531 0.221343792228163 0  0.1583987151778488 0.2277368545647528 0  0.1629104300036858 0.2335315343742052 0  0.1682222986671726 0.2386028198193036 0  0.1742197252833576 0.2428413052501257 0  0.1807733240458683 0.2461555514727623 0  0.1877417105384929 0.2484740584176516 0  0.1949745518995776 0.2497468076502398 0  0.202315810036185 0.2499463414463592 0  0.2096071079201568 0.2490683551528932 0  0.2166911463435495 0.2471317900544655 0  0.2234150974215506 0.2441784247426195 0  0.2296339016331197 0.2402719738031125 0  0.2352133972703547 0.2354967132658811 0  0.2400332147833751 0.2299556624715287 0  0.2439893735792577 0.2237683615780412 0  0.246996525252926 0.2170682926548348 0  0.25645809709277 0.21 0  0.2639263993298655 0.21 0  0.271394701566961 0.21 0  0.2788630038040554 0.21 0  0.2863313060411479 0.21 0  0.2937996082782405 0.21 0  0.301267910515333 0.21 0  0.3087362127524279 0.21 0  0.3162045149895234 0.21 0  0.3236728172265972 0.21 0  0.3311411194636928 0.21 0  0.3386094217007701 0.21 0  0.3460777239378666 0.21 0  0.3535460261749672 0.21 0  0.3610143284120516 0.21 0  0.3684826306491596 0.21 0  0.3759509328862226 0.21 0  0.383419235123329 0.21 0  0.3908875373604028 0.21 0  0.3983558395975142 0.21 0  0.4058241418345938 0.21 0  0.4132924440716992 0.21 0  0.4207607463087888 0.21 0  0.4282290485459029 0.21 0  0.4356973507830418 0.21 0  0.4431656530201649 0.21 0  0.4506339552573136 0.21 0  0.4581022574944306 0.21 0  0.4655705597315852 0.21 0  0.4730388619686996 0.21 0  0.480507164205851 0.21 0  0.4879754664429498 0.21 0  0.4954437686800938 0.21 0  0.502912070917267 0.21 0  0.5103803731544119 0.21 0  0.5178486753915261 0.21 0  0.5253169776286404 0.21 0  0.5327852798657868 0.21 0  0.5402535821029386 0.21 0  0.54772188434007 0.21 0  0.5551901865771842 0.21 0  0.5626584888143201 0.21 0  0.5701267910514778 0.21 0  0.5775950932886138 0.21 0  0.5850633955257281 0.21 0  0.5925316977628483 0.21 0  0.6 0.2050000000000054 0  0.6 0.1950000000000217 0  0.5925316977628897 0.19 0  0.5850633955257988 0.19 0  0.5775950932887378 0.19 0  0.5701267910515998 0.19 0  0.5626584888145268 0.19 0  0.5551901865773963 0.19 0  0.547721884340339 0.19 0  0.5402535821032429 0.19 0  0.5327852798661811 0.19 0  0.5253169776290537 0.19 0  0.5178486753919799 0.19 0  0.5103803731549078 0.19 0  0.502912070917822 0.19 0  0.4954437686807294 0.19 0  0.4879754664436223 0.19 0  0.4805071642065402 0.19 0  0.4730388619694271 0.19 0  0.4655705597323621 0.19 0  0.4581022574952563 0.19 0  0.4506339552581777 0.19 0  0.4431656530210671 0.19 0  0.4356973507839815 0.19 0  0.4282290485468779 0.19 0  0.4207607463097617 0.19 0  0.4132924440726327 0.19 0  0.4058241418354857 0.19 0  0.3983558395983636 0.19 0  0.3908875373612097 0.19 0  0.3834192351240934 0.19 0  0.3759509328869369 0.19 0  0.3684826306498175 0.19 0  0.361014328412667 0.19 0  0.3535460261755617 0.19 0  0.3460777239384295 0.19 0  0.3386094217012945 0.19 0  0.3311411194641595 0.19 0  0.3236728172270245 0.19 0  0.3162045149898895 0.19 0  0.3087362127527544 0.19 0  0.3012679105156187 0.19 0  0.2937996082784807 0.19 0  0.2863313060413428 0.19 0  0.2788630038042048 0.19 0  0.2713947015670686 0.19 0  0.2639263993299336 0.19 0  0.2564580970927985 0.19 0  0.2607803159922026 0.2000727136295815 0  0.5887803774232762 0.2001272386983733 0  0.5745072403740523 0.2002044435018727 0  0.5511891430099709 0.2001122610077113 0  0.2751288526855082 0.20000000000002 0  0.5365194309847112 0.1999999999999436 0  0.2894621222999649 0.1998691686390484 0  0.5215828265105155 0.1999999999999228 0  0.3127789816668748 0.1998657885438805 0  0.3274069683451451 0.2000000000000796 0  0.5066462220363641 0.199999999999908 0  0.3650630746574081 0.199866017807523 0  0.476773013087985 0.1999999999998713 0  0.3417402379596385 0.1998691686391011 0  0.3796850840047755 0.200000000000134 0  0.4618364086138087 0.1999999999998546 0  0.4917096175621762 0.1999999999998808 0  0.3946216884789568 0.2000000000001512 0  0.446899804139621 0.1999999999998389 0  0.4089549580935208 0.1998691686391595 0  0.4322718174608562 0.200127451265745 0  0.4201487168029707 0.1999966199048527 0  0.3528922713220932 0.2000185703532356 0  0.5633122436674589 0.1999814296467508 0  0.3006558810093873 0.1999966199048318 0  0.5815926498168407 0.1966545283159175 0  0.2677053789419034 0.1964246479135325 0  0.5290511287476175 0.1970915826863981 0  0.5439877332217911 0.197091582686394 0  0.2825131256993216 0.2035478995978015 0  0.3199386661080599 0.202908417313604 0  0.4842413153250809 0.1970915826863873 0  0.5141145242734466 0.1970915826863843 0  0.3722167817676917 0.2029084173136195 0  0.4693047108508938 0.1970915826863783 0  0.3348752705822316 0.202908417313609 0  0.3871533862418661 0.2029084173136212 0  0.4543681063767183 0.1970915826863795 0  0.4991779197992749 0.1970915826863902 0  0.4020059614928624 0.203547899597858 0  0.4394315019025246 0.1970915826863714 0  0.2550657455369551 0.2034088125358657 0  0.2548908499171161 0.1966940311614271 0  0.5946539510196798 0.2024302972968126 0  0.267698176732111 0.2039977513680092 0  0.4261685417851465 0.196409292431739 0  0.3590076176283495 0.196411355804271 0  0.5571672426447437 0.2036011176410121 0  0.3066757059912147 0.1964092924317024 0  0.594380730180568 0.1966558399668133 0  0.4842413153245942 0.2040749161535287 0  0.4693047108503577 0.2040749161535231 0  0.3871533862424271 0.1959250838464788 0  0.372246743208829 0.1959123236376545 0  0.5141145242731028 0.2040749161535395 0  0.4543681063761134 0.2040749161535186 0  0.4019979587101454 0.1959834479682427 0  0.4394608940728603 0.2040870543693135 0  0.5439623148931173 0.2040856076781014 0  0.5290511287473298 0.2040749161535501 0  0.4991779197988497 0.2040749161535382 0  0.3347912413592433 0.1959225448935183 0  0.3199680582793816 0.1959123018030061 0  0.2825051229162361 0.1959834479681729 0  0.3590471196690275 0.2036304442587945 0  0.5571594006495384 0.1963685282145804 0  0.3067669986803285 0.203627750582736 0  0.4262598344738712 0.2036568242185335 0  0.5814408164431408 0.2041285596160068 0  0.5688286748170428 0.1961819304477386 0  0.4145905603063645 0.2038180695522843 0  0.3473758401724931 0.2038180695522752 0  0.2950977245128307 0.2038180695522663 0  0.5688286748170693 0.203818069552238 0  0.2950977245127906 0.1961819304477774 0  0.3473758401723931 0.1961819304478349 0  0.4145905603061963 0.1961819304479011 0  0.2601812407614425 0.2056861609747042
[...]
<PointData  Vectors="f_40-1"> 
<DataArray  type="Float64"  Name="f_40-1"  NumberOfComponents="3" format="ascii">0.0000000000000000e+00 0.0000000000000000e+00 0.0000000000000000e+00  0.0000000000000000e+00 0.0000000000000000e+00 0.0000000000000000e+00  0.0000000000000000e+00 0.0000000000000000e+00 0.0000000000000000e+00  0.0000000000000000e+00 0.0000000000000000e+00 0.0000000000000000e+00  6.0420934662732526e-05 2.1215434710086822e-03 0.0000000000000000e+00  -8.8449903952305051e-05 2.1214382269543930e-03 0.0000000000000000e+00  0.0000000000000000e+00 0.0000000000000000e+00 0.0000000000000000e+00  0.0000000000000000e+00 0.0000000000000000e+00 0.0000000000000000e+00  0.0000000000000000e+00 0.0000000000000000e+00 0.0000000000000000e+00  0.0000000000000000e+00 0.0000000000000000e+00 0.0000000000000000e+00  -1.4086577803986052e-05 2.1214827691476180e-03 0.0000000000000000e+00  0.0000000000000000e+00 0.0000000000000000e+00 0.0000000000000000e+00  0.0000000000000000e+00 0.0000000000000000e+00 0.0000000000000000e+00  0.0000000000000000e+00 0.0000000000000000e+00 0.0000000000000000e+00  0.0000000000000000e+00 0.0000000000000000e+00 0.0000000000000000e+00  0.0000000000000000e+00 0.0000000000000000e+00 0.0000000000000000e+00  0.0000000000000000e+00 0.0000000000000000e+00 0.0000000000000000e+00  0.0000000000000000e+00 0.0000000000000000e+00 0.0000000000000000e+00  0.0000000000000000e+00 0.0000000000000000e+00 0.0000000000000000e+00  0.0000000000000000e+00 0.0000000000000000e+00 0.0000000000000000e+00  0.0000000000000000e+00 0.0000000000000000e+00 0.0000000000000000e+00  0.0000000000000000e+00 0.0000000000000000e+00 0.0000000000000000e+00  0.0000000000000000e+00 0.0000000000000000e+00 0.0000000000000000e+00  0.0000000000000000e+00 0.0000000000000000e+00 0.0000000000000000e+00  0.0000000000000000e+00 0.0000000000000000e+00 0.0000000000000000e+00  0.0000000000000000e+00 0.0000000000000000e+00 0.0000000000000000e+00  0.0000000000000000e+00 0.0000000000000000e+00 0.0000000000000000e+00  0.0000000000000000e+00 0.0000000000000000e+00 0.0000000000000000e+00  0.0000000000000000e+00 0.0000000000000000e+00 0.0000000000000000e+00  0.0000000000000000e+00 0.0000000000000000e+00 0.0000000000000000e+00  0.0000000000000000e+00 0.0000000000000000e+00 0.0000000000000000e+00  0.0000000000000000e+00 0.0000000000000000e+00 0.0000000000000000e+00  0.0000000000000000e+00 0.0000000000000000e+00 0.0000000000000000e+00  0.0000000000000000e+00 0.0000000000000000e+00 0.0000000000000000e+00  0.0000000000000000e+00 0.0000000000000000e+00 0.0000000000000000e+00  0.0000000000000000e+00 0.0000000000000000e+00 0.0000000000000000e+00  0.0000000000000000e+00 0.0000000000000000e+00 0.0000000000000000e+00  0.0000000000000000e+00 0.0000000000000000e+00 0.0000000000000000e+00  0.0000000000000000e+00 0.0000000000000000e+00 0.0000000000000000e+00  0.0000000000000000e+00 0.0000000000000000e+00 0.0000000000000000e+00  0.0000000000000000e+00 0.0000000000000000e+00 0.0000000000000000e+00  0.0000000000000000e+00 0.0000000000000000e+00 0.0000000000000000e+00  0.0000000000000000e+00 0.0000000000000000e+00 0.0000000000000000e+00  0.0000000000000000e+00 0.0000000000000000e+00 0.0000000000000000e+00  0.0000000000000000e+00 0.0000000000000000e+00 0.0000000000000000e+00  0.0000000000000000e+00 0.0000000000000000e+00 0.0000000000000000e+00  0.0000000000000000e+00 0.0000000000000000e+00 0.0000000000000000e+00  0.0000000000000000e+00 0.0000000000000000e+00 0.0000000000000000e+00  0.0000000000000000e+00 0.0000000000000000e+00 0.0000000000000000e+00  0.0000000000000000e+00 0.0000000000000000e+00 0.0000000000000000e+00  0.0000000000000000e+00 0.0000000000000000e+00 0.0000000000000000e+00  0.0000000000000000e+00 0.0000000000000000e+00 0.0000000000000000e+00  0.0000000000000000e+00 0.0000000000000000e+00 0.0000000000000000e+00  0.0000000000000000e+00 0.0000000000000000e+00 0.0000000000000000e+00  0.0000000000000000e+00 0.0000000000000000e+00 0.0000000000000000e+00  0.0000000000000000e+00 0.0000000000000000e+00 0.0000000000000000e+00  0.0000000000000000e+00 0.0000000000000000e+00 0.0000000000000000e+00  0.0000000000000000e+00 0.0000000000000000e+00 0.0000000000000000e+00  0.0000000000000000e+00 0.0000000000000000e+00 0.0000000000000000e+00  0.0000000000000000e+00 0.0000000000000000e+00 0.0000000000000000e+00  0.0000000000000000e+00 0.0000000000000000e+00 0.0000000000000000e+00  0.0000000000000000e+00 0.0000000000000000e+00 0.0000000000000000e+00  0.0000000000000000e+00 0.0000000000000000e+00 0.0000000000000000e+00  0.0000000000000000e+00 0.0000000000000000e+00 0.0000000000000000e+00  0.0000000000000000e+00 0.0000000000000000e+00 0.0000000000000000e+00  0.0000000000000000e+00 0.0000000000000000e+00 0.0000000000000000e+00  0.0000000000000000e+00 0.0000000000000000e+00 0.0000000000000000e+00  0.0000000000000000e+00 0.0000000000000000e+00 0.0000000000000000e+00  0.0000000000000000e+00 0.0000000000000000e+00 0.0000000000000000e+00  0.0000000000000000e+00 0.0000000000000000e+00 0.0000000000000000e+00  0.0000000000000000e+00 0.0000000000000000e+00 0.0000000000000000e+00  0.0000000000000000e+00 0.0000000000000000e+00 0.0000000000000000e+00  0.0000000000000000e+00 0.0000000000000000e+00 0.0000000000000000e+00  0.0000000000000000e+00 0.0000000000000000e+00 0.0000000000000000e+00  0.0000000000000000e+00 0.0000000000000000e+00 0.0000000000000000e+00  0.0000000000000000e+00 0.0000000000000000e+00 0.0000000000000000e+00  0.0000000000000000e+00 0.0000000000000000e+00 0.0000000000000000e+00  0.0000000000000000e+00 0.0000000000000000e+00 0.0000000000000000e+00  0.0000000000000000e+00 0.0000000000000000e+00 0.0000000000000000e+00  0.0000000000000000e+00 0.0000000000000000e+00 0.0000000000000000e+00  0.0000000000000000e+00 0.0000000000000000e+00 0.0000000000000000e+00  0.0000000000000000e+00 0.0000000000000000e+00 0.0000000000000000e+00  0.0000000000000000e+00 0.0000000000000000e+00 0.0000000000000000e+00  0.0000000000000000e+00 0.0000000000000000e+00 0.0000000000000000e+00  0.0000000000000000e+00 0.0000000000000000e+00 0.0000000000000000e+00  0.0000000000000000e+00 0.0000000000000000e+00 0.0000000000000000e+00  0.0000000000000000e+00 0.0000000000000000e+00 0.0000000000000000e+00  0.0000000000000000e+00 0.0000000000000000e+00 0.0000000000000000e+00  0.0000000000000000e+00 0.0000000000000000e+00 0.0000000000000000e+00  0.0000000000000000e+00 0.0000000000000000e+00 0.0000000000000000e+00  0.0000000000000000e+00 0.0000000000000000e+00 0.0000000000000000e+00  0.0000000000000000e+00 0.0000000000000000e+00 0.0000000000000000e+00  0.0000000000000000e+00 0.0000000000000000e+00 0.0000000000000000e+00  0.0000000000000000e+00 0.0000000000000000e+00 0.0000000000000000e+00  0.0000000000000000e+00 0.0000000000000000e+00 0.0000000000000000e+00  0.0000000000000000e+00 0.0000000000000000e+00 0.0000000000000000e+00  0.0000000000000000e+00 0.0000000000000000e+00 0.0000000000000000e+00  0.0000000000000000e+00 0.0000000000000000e+00 0.0000000000000000e+00  0.0000000000000000e+00 0.0000000000000000e+00 0.0000000000000000e+00  0.0000000000000000e+00 0.0000000000000000e+00 0.0000000000000000e+00  0.0000000000000000e+00 0.0000000000000000e+00 0.0000000000000000e+00  0.0000000000000000e+00 0.0000000000000000e+00 0.0000000000000000e+00  0.0000000000000000e+00 0.0000000000000000e+00 0.0000000000000000e+00  0.0000000000000000e+00 0.0000000000000000e+00 0.0000000000000000e+00  0.0000000000000000e+00 0.0000000000000000e+00 0.0000000000000000e+00  0.0000000000000000e+00 0.0000000000000000e+00 0.0000000000000000e+00  0.0000000000000000e+00 0.0000000000000000e+00 0.0000000000000000e+00  0.0000000000000000e+00 0.0000000000000000e+00 0.0000000000000000e+00  0.0000000000000000e+00 0.0000000000000000e+00 0.0000000000000000e+00  0.0000000000000000e+00 0.0000000000000000e+00 0.0000000000000000e+00  0.0000000000000000e+00 0.0000000000000000e+00 0.0000000000000000e+00  0.0000000000000000e+00 0.0000000000000000e+00 0.0000000000000000e+00  0.0000000000000000e+00 0.0000000000000000e+00 0.0000000000000000e+00  0.0000000000000000e+00 0.0000000000000000e+00 0.0000000000000000e+00  0.0000000000000000e+00 0.0000000000000000e+00 0.0000000000000000e+00  0.0000000000000000e+00 0.0000000000000000e+00 0.0000000000000000e+00  0.0000000000000000e+00 0.0000000000000000e+00 0.0000000000000000e+00  0.0000000000000000e+00 0.0000000000000000e+00 0.0000000000000000e+00  0.0000000000000000e+00 0.0000000000000000e+00 0.0000000000000000e+00  0.0000000000000000e+00 0.0000000000000000e+00 0.0000000000000000e+00  0.0000000000000000e+00 0.0000000000000000e+00 0.0000000000000000e+00  0.0000000000000000e+00 0.0000000000000000e+00 0.0000000000000000e+00  0.0000000000000000e+00 0.0000000000000000e+00 0.0000000000000000e+00  0.0000000000000000e+00 0.0000000000000000e+00 0.0000000000000000e+00  0.0000000000000000e+00 0.0000000000000000e+00 0.0000000000000000e+00  0.0000000000000000e+00 0.0000000000000000e+00 0.0000000000000000e+00  0.0000000000000000e+00 0.0000000000000000e+00 0.0000000000000000e+00  0.0000000000000000e+00 0.0000000000000000e+00 0.0000000000000000e+00  0.0000000000000000e+00 0.0000000000000000e+00 0.0000000000000000e+00  0.0000000000000000e+00 0.0000000000000000e+00 0.0000000000000000e+00  0.0000000000000000e+00 0.0000000000000000e+00 0.0000000000000000e+00  0.0000000000000000e+00 0.0000000000000000e+00 0.0000000000000000e+00  0.0000000000000000e+00 0.0000000000000000e+00 0.0000000000000000e+00  0.0000000000000000e+00 0.0000000000000000e+00 0.0000000000000000e+00  0.0000000000000000e+00 0.0000000000000000e+00 0.0000000000000000e+00  0.0000000000000000e+00 0.0000000000000000e+00 0.0000000000000000e+00  0.0000000000000000e+00 0.0000000000000000e+00 0.0000000000000000e+00  0.0000000000000000e+00 0.0000000000000000e+00 0.0000000000000000e+00  0.0000000000000000e+00 0.0000000000000000e+00 0.0000000000000000e+00  0.0000000000000000e+00 0.0000000000000000e+00 0.0000000000000000e+00  0.0000000000000000e+00 0.0000000000000000e+00 0.0000000000000000e+00  0.0000000000000000e+00 0.0000000000000000e+00 0.0000000000000000e+00  0.0000000000000000e+00 0.0000000000000000e+00 0.0000000000000000e+00  -5.9117408530085173e-06 5.8858358691505339e-06 0.0000000000000000e+00  -1.2519399206993151e-05 1.2646636494963584e-05 0.0000000000000000e+00  -1.8340199304489864e-05 2.3431170406609931e-05 0.0000000000000000e+00  -2.4520526038124460e-05 3.8492277948072331e-05 0.0000000000000000e+00  -2.9646433247197331e-05 5.7029795310233176e-05 0.0000000000000000e+00  -3.5278912852694886e-05 7.9365869687419380e-05 0.0000000000000000e+00  -3.9779829441411096e-05 1.0443325782087954e-04 0.0000000000000000e+00  -4.4038187171630667e-05 1.3302914404194461e-04 0.0000000000000000e+00  -4.8769160415073674e-05 1.6423697904397266e-04 0.0000000000000000e+00  -5.2328859670333663e-05 1.9807922128741690e-04 0.0000000000000000e+00  -5.6481387383458146e-05 2.3448012993409928e-04 0.0000000000000000e+00  -5.9556382249077691e-05 2.7310740656011085e-04 0.0000000000000000e+00  -6.3004365042247795e-05 3.1385562637235268e-04 0.0000000000000000e+00  -6.5692922629090349e-05 3.5624807086878483e-04 0.0000000000000000e+00  -6.8181957803697130e-05 4.0059452699143822e-04 0.0000000000000000e+00  -7.0857434098337127e-05 4.4635446555647937e-04 0.0000000000000000e+00  -7.2834821001379241e-05 4.9347861518709538e-04 0.0000000000000000e+00  -7.5034949420796904e-05 5.4190790190433225e-04 0.0000000000000000e+00  -7.6635642514694309e-05 5.9137730202068214e-04 0.0000000000000000e+00  -7.8375075219859768e-05 6.4182582508387845e-04 0.0000000000000000e+00  -7.9706856020325789e-05 6.9310194769850680e-04 0.0000000000000000e+00  -8.1049259863517006e-05 7.4516161450180864e-04 0.0000000000000000e+00  -8.2097154114090816e-05 7.9774398719016377e-04 0.0000000000000000e+00  -8.3023817704659065e-05 8.5096218744980191e-04 0.0000000000000000e+00  -8.3958817303604377e-05 9.0458807018580726e-04 0.0000000000000000e+00  -8.4686602327704378e-05 9.5863755692653021e-04 0.0000000000000000e+00  -8.5350984581104202e-05 1.0130563014799586e-03 0.0000000000000000e+00  -8.5896359584994720e-05 1.0677171550256053e-03 0.0000000000000000e+00  -8.6381201326236917e-05 1.1226496118180425e-03 0.0000000000000000e+00  -8.6774993987399923e-05 1.1777394036710201e-03 0.0000000000000000e+00  -8.7115537759113290e-05 1.2330069406110973e-03 0.0000000000000000e+00  -8.7385745442577787e-05 1.2883592466679502e-03 0.0000000000000000e+00  -8.7612454513253356e-05 1.3438154306382052e-03 0.0000000000000000e+00  -8.7785708261959214e-05 1.3993031876552737e-03 0.0000000000000000e+00  -8.7922567045080747e-05 1.4548442016373178e-03 0.0000000000000000e+00  -8.8027098492015409e-05 1.5103883388278669e-03 0.0000000000000000e+00  -8.8107487116976653e-05 1.5659498353444948e-03 0.0000000000000000e+00  -8.8169275379302141e-05 1.6215021917752922e-03 0.0000000000000000e+00  -8.8215749642802404e-05 1.6770549510800343e-03 0.0000000000000000e+00  -8.8254753988281341e-05 1.7325985049003940e-03 0.0000000000000000e+00  -8.8287812996911482e-05 1.7881365320071192e-03 0.0000000000000000e+00  -8.8320767324089896e-05 1.8436711704924332e-03 0.0000000000000000e+00  -8.8349677983729139e-05 1.8992092245599841e-03 0.0000000000000000e+00  -8.8381202501229875e-05 1.9547516601748365e-03 0.0000000000000000e+00  -8.8413968763901817e-05 2.0103080527645039e-03 0.0000000000000000e+00  -8.8441082700532677e-05 2.0658741319773423e-03 0.0000000000000000e+00  -5.1285088366496366e-05 2.1214599883285917e-03 0.0000000000000000e+00  2.3140642066137035e-05 2.1215079591316998e-03 0.0000000000000000e+00  6.0406864385244172e-05 2.0659207404652297e-03 0.0000000000000000e+00  6.0415713143004444e-05 2.0103371134213206e-03 0.0000000000000000e+00  6.0432257795919804e-05 1.9547693118131693e-03 0.0000000000000000e+00  6.0450571017995663e-05 1.8992072906363589e-03 0.0000000000000000e+00  6.0474545307236389e-05 1.8436475727899946e-03 0.0000000000000000e+00  6.0509950822957044e-05 1.7880864429199793e-03 0.0000000000000000e+00  6.0551510296310541e-05 1.7325196196838035e-03 0.0000000000000000e+00  6.0601342423909443e-05 1.6769466910170454e-03 0.0000000000000000e+00  6.0655907173303668e-05 1.6213631012234611e-03 0.0000000000000000e+00  6.0715595929288532e-05 1.5657706691987378e-03 0.0000000000000000e+00  6.0772611404798806e-05 1.5101737717746972e-03 0.0000000000000000e+00  6.0834575559512316e-05 1.4545807574422908e-03 0.0000000000000000e+00  6.0879192061443773e-05 1.3990016568131843e-03 0.0000000000000000e+00  6.0928196978414045e-05 1.3434567138970999e-03 0.0000000000000000e+00  6.0935230551168819e-05 1.2879597364800755e-03 0.0000000000000000e+00  6.0951965886338603e-05 1.2325460771937715e-03 0.0000000000000000e+00  6.0895602747386405e-05 1.1772345529980097e-03 0.0000000000000000e+00  6.0860754958773065e-05 1.1220747960775086e-03 0.0000000000000000e+00  6.0715147289750970e-05 1.0670926666099059e-03 0.0000000000000000e+00  6.0609136496538371e-05 1.0123508902699222e-03 0.0000000000000000e+00  6.0341136993002388e-05 9.5788030474291974e-04 0.0000000000000000e+00  6.0135780574480201e-05 9.0375960139318760e-04 0.0000000000000000e+00  5.9719552253315711e-05 8.5003712510412226e-04 0.0000000000000000e+00  5.9352283866049959e-05 7.9674389191460981e-04 0.0000000000000000e+00  5.8916151247436413e-05 7.4408805040535075e-04 0.0000000000000000e+00  5.8232818805861642e-05 6.9192681249748080e-04 0.0000000000000000e+00  5.7550334482524492e-05 6.4058788544798498e-04 0.0000000000000000e+00  5.6633991486255251e-05 5.9001988699770370e-04 0.0000000000000000e+00  5.5677463462063265e-05 5.4047340490971033e-04 0.0000000000000000e+00  5.4451133164108163e-05 4.9195589916495763e-04 0.0000000000000000e+00  5.3178400351875232e-05 4.4467403057281830e-04 0.0000000000000000e+00  5.1421103876472414e-05 3.9891412137633351e-04 0.0000000000000000e+00  4.9856312634786344e-05 3.5444600485049930e-04 0.0000000000000000e+00  4.8128326473985335e-05 3.1198698186058127e-04 0.0000000000000000e+00  4.5772006416976313e-05 2.7100219653185823e-04 0.0000000000000000e+00  4.3482341918694775e-05 2.3234679789194078e-04 0.0000000000000000e+00  4.0731249211730537e-05 1.9583115998399216e-04 0.0000000000000000e+00  3.7997530373583507e-05 1.6177189754256052e-04 0.0000000000000000e+00  3.4471918285762720e-05 1.3062207933245120e-04 0.0000000000000000e+00  3.1389555761906955e-05 1.0187769583266421e-04 0.0000000000000000e+00  2.8119608981748905e-05 7.6719903834908442e-05 0.0000000000000000e+00  2.3822756487142327e-05 5.4186860914747395e-05 0.0000000000000000e+00  1.9848542490782687e-05 3.5478893692902405e-05 0.0000000000000000e+00  1.4930441659745173e-05 2.0533431093260693e-05 0.0000000000000000e+00  1.0469774062461209e-05 9.6744830958802778e-06 0.0000000000000000e+00  4.9692076989515166e-06 3.0335056756977762e-06 0.0000000000000000e+00  -5.6746221579659279e-07 4.8115352753000976e-06 0.0000000000000000e+00  -1.4987134034746951e-05 2.0379779936405078e-03 0.0000000000000000e+00  -1.5506283807006406e-05 1.9317880374471262e-03 0.0000000000000000e+00  -1.4721332297643451e-05 1.7583523059985660e-03 0.0000000000000000e+00  -1.9422742107668925e-06 2.6455323679355152e-05 0.0000000000000000e+00  -1.3797146169007508e-05 1.6492179529144140e-03 0.0000000000000000e+00  -2.8307805062411895e-06 6.2241513798370809e-05 0.0000000000000000e+00  -1.3674284107397144e-05 1.5380632912214169e-03 0.0000000000000000e+00  -4.4982989236453258e-06 1.4651491723969139e-04 0.0000000000000000e+00  -6.1366827167880757e-06 2.1336397251743065e-04 0.0000000000000000e+00  -1.3508120984657905e-05 1.4269062905360357e-03 0.0000000000000000e+00  -7.7821869922808067e-06 4.2338867774528797e-04 0.0000000000000000e+00  -1.3014300244317036e-05 1.2050238614857514e-03 0.0000000000000000e+00  -6.4312857188295991e-06 2.8756758994723209e-04 0.0000000000000000e+00  -9.4317220204191776e-06 5.1604235905652342e-04 0.0000000000000000e+00  -1.2676065974098790e-05 1.0947132516056031e-03 0.0000000000000000e+00  -1.3290024916320297e-05 1.3158375105113700e-03 0.0000000000000000e+00  -1.0206363510039705e-05 6.1523141049353092e-04 0.0000000000000000e+00  -1.2265799901125580e-05 9.8523258161517893e-04 0.0000000000000000e+00  -9.9667590043494163e-06 7.1377954311035541e-04 0.0000000000000000e+00  -1.2707968127368492e-05 8.7920757663520011e-04 0.0000000000000000e+00  -1.1312665831288824e-05 7.9262566087797684e-04 0.0000000000000000e+00  -7.9579200880874524e-06 3.5072038850850185e-04 0.0000000000000000e+00  -1.3806056141213423e-05 1.8485211991011473e-03 0.0000000000000000e+00  -4.0766985421816313e-06 9.9473598781980041e-05 0.0000000000000000e+00  1.0884476600106177e-05 1.9845001786631344e-03 0.0000000000000000e+00  3.8136330178871053e-06 1.3302181737373290e-05 0.0000000000000000e+00  7.9025828724279084e-06 1.5936218121958292e-03 0.0000000000000000e+00  7.7962903987227397e-06 1.7047687145004783e-03 0.0000000000000000e+00  -1.1166103812019971e-05 4.4164276266506944e-05 0.0000000000000000e+00  -1.8689985571968469e-05 1.7858221066806919e-04 0.0000000000000000e+00  8.3882329177929934e-06 1.2603332806738266e-03 0.0000000000000000e+00  8.0383126509920811e-06 1.4824489010848469e-03 0.0000000000000000e+00  -2.7292598788488833e-05 4.6844914669237983e-04 0.0000000000000000e+00  8.5856851264271420e-06 1.1497251746512937e-03 0.0000000000000000e+00  -2.1521585631220001e-05 2.5154861777035488e-04 0.0000000000000000e+00  -2.8999494673688416e-05 5.6543154872319061e-04 0.0000000000000000e+00  8.7871652165328485e-06 1.0397742735207100e-03 0.0000000000000000e+00  8.2026366555698233e-06 1.3713101262954231e-03 0.0000000000000000e+00  -3.4813514098614496e-05 6.6595635737124598e-04 0.0000000000000000e+00  8.9883629045962692e-06 9.3084254852500317e-04 0.0000000000000000e+00  -1.0343370040092375e-06 1.4087245640243246e-06 0.0000000000000000e+00  7.7018588424833819e-07 6.5697496011302472e-07 0.0000000000000000e+00  -3.2149744283088252e-05 2.0816866606392596e-03 0.0000000000000000e+00  -6.8986301423619412e-06 1.4498323610799179e-05 0.0000000000000000e+00  1.4015008660580402e-05 8.3530643449349930e-04 0.0000000000000000e