<?xml version="1.0"?>
<VTKFile type="UnstructuredGrid"  version="0.1"  >
<UnstructuredGrid>
<Piece  NumberOfPoints="1419" NumberOfCells="2698">
<Points>
<DataArray  type="Float64"  NumberOfComponents="3"  format="ascii">0 0 0  0 0.41 0  2.5 0 0  2.5 0.41 0  0.6 0.19 0  0.6 0.21 0  0.25 0.2 0  0.15 0.2 0  0.2489897948556636 0.21 0  0.2489897948556636 0.19 0  0.6 0.2 0  0 0.3807142857143437 0  0 0.3514285714286952 0  0 0.3221428571430699 0  0 0.29285714285744 0  0 0.2635714285718054 0  0 0.2342857142861561 0  0 0.2050000000005308 0  0 0.175714285714732 0  0 0.1464285714289574 0  0 0.1171428571431897 0  0 0.08785714285737878 0  0 0.05857142857161107 0  0 0.02928571428580012 0  0.03015443760436003 0 0  0.06140001986583606 0 0  0.09377624077125973 0 0  0.1273239957535082 0 0  0.1620856860351972 0 0  0.1981052433264291 0 0  0.235428184091502 0 0  0.2741016576309132 0 0  0.3141745521465447 0 0  0.3556974926295285 0 0  0.3987229542472677 0 0  0.4433053055141081 0 0  0.4895008759286886 0 0  0.5373680609405097 0 0  0.5869673343216626 0 0  0.6383613676634521 0 0  0.6916151138468254 0 0  0.7467958595648856 0 0  0.8039733463919316 0 0  0.8632198139502143 0 0  0.9246101326867038 0 0  0.9882218810934433 0 0  1.054135445558498 0 0  1.122434100542598 0 0  1.193204177141305 0 0  1.266535089879536 0 0  1.342519516046404 0 0  1.421253448503939 0 0  1.502836389106271 0 0  1.587371439758838 0 0  1.674965418777374 0 0  1.765729001825544 0 0  1.859776908880082 0 0  1.957227977487062 0 0  2.058205329869943 0 0  2.162836591189951 0 0  2.271253957290865 0 0  2.383594446803425 0 0  2.5 0.1024999999997612 0  2.5 0.2049999999994743 0  2.5 0.3074999999997183 0  2.383594446803656 0.41 0  2.271253957291315 0.41 0  2.162836591190598 0.41 0  2.058205329870775 0.41 0  1.957227977488067 0.41 0  1.859776908881246 0.41 0  1.765729001826854 0.41 0  1.674965418778818 0.41 0  1.58737143976041 0.41 0  1.502836389107956 0.41 0  1.421253448505726 0.41 0  1.342519516048286 0.41 0  1.266535089881505 0.41 0  1.193204177143353 0.41 0  1.122434100544716 0.41 0  1.05413544556068 0.41 0  0.9882218810956305 0.41 0  0.9246101326886647 0.41 0  0.8632198139519631 0.41 0  0.8039733463934788 0.41 0  0.7467958595662458 0.41 0  0.6916151138480078 0.41 0  0.6383613676644679 0.41 0  0.5869673343225223 0.41 0  0.5373680609412221 0.41 0  0.4895008759292634 0.41 0  0.4433053055145528 0.41 0  0.3987229542475914 0.41 0  0.3556974926297398 0.41 0  0.3141745521466497 0.41 0  0.2741016576310038 0.41 0  0.2354281840915826 0.41 0  0.1981052433265003 0.41 0  0.1620856860352591 0.41 0  0.1273239957535623 0.41 0  0.09377624077128965 0.41 0  0.06140001986584975 0.41 0  0.03015443760436654 0.41 0  0.2497468076502589 0.2050254481002335 0  0.2497468076502614 0.1949745518997913 0  0.2469965252529372 0.1829317073451959 0  0.2439893735792749 0.1762316384219906 0  0.2400332147834255 0.1700443375285386 0  0.2352133972704371 0.1645032867342007 0  0.2296339016332438 0.1597280261969788 0  0.2234150974217223 0.1558215752574715 0  0.2166911463437691 0.1528682099456123 0  0.2096071079204251 0.1509316448471593 0  0.2023158100364996 0.1500536585536553 0  0.194974551899914 0.1502531923497262 0  0.1877417105387872 0.1515259415822739 0  0.1807733240461124 0.153844448527136 0  0.1742197252835808 0.15715869474974 0  0.1682222986673531 0.1613971801805478 0  0.162910430003803 0.1664684656256651 0  0.1583987151779087 0.1722631454351573 0  0.1547844879126891 0.178656207771761 0  0.1521457199348551 0.1855097315605723 0  0.1505393388476355 0.1926758619366523 0  0.1505393388476328 0.2073241380633295 0  0.1521457199348437 0.2144902684393899 0  0.1547844879126531 0.221343792228163 0  0.1583987151778488 0.2277368545647528 0  0.1629104300036858 0.2335315343742052 0  0.1682222986671726 0.2386028198193036 0  0.1742197252833576 0.2428413052501257 0  0.1807733240458683 0.2461555514727623 0  0.1877417105384929 0.2484740584176516 0  0.1949745518995776 0.2497468076502398 0  0.202315810036185 0.2499463414463592 0  0.2096071079201568 0.2490683551528932 0  0.2166911463435495 0.2471317900544655 0  0.2234150974215506 0.2441784247426195 0  0.2296339016331197 0.2402719738031125 0  0.2352133972703547 0.2354967132658811 0  0.2400332147833751 0.2299556624715287 0  0.2439893735792577 0.2237683615780412 0  0.246996525252926 0.2170682926548348 0  0.25645809709277 0.21 0  0.2639263993298655 0.21 0  0.271394701566961 0.21 0  0.2788630038040554 0.21 0  0.2863313060411479 0.21 0  0.2937996082782405 0.21 0  0.301267910515333 0.21 0  0.3087362127524279 0.21 0  0.3162045149895234 0.21 0  0.3236728172265972 0.21 0  0.3311411194636928 0.21 0  0.3386094217007701 0.21 0  0.3460777239378666 0.21 0  0.3535460261749672 0.21 0  0.3610143284120516 0.21 0  0.3684826306491596 0.21 0  0.3759509328862226 0.21 0  0.383419235123329 0.21 0  0.3908875373604028 0.21 0  0.3983558395975142 0.21 0  0.4058241418345938 0.21 0  0.4132924440716992 0.21 0  0.4207607463087888 0.21 0  0.4282290485459029 0.21 0  0.4356973507830418 0.21 0  0.4431656530201649 0.21 0  0.4506339552573136 0.21 0  0.4581022574944306 0.21 0  0.4655705597315852 0.21 0  0.4730388619686996 0.21 0  0.480507164205851 0.21 0  0.4879754664429498 0.21 0  0.4954437686800938 0.21 0  0.502912070917267 0.21 0  0.5103803731544119 0.21 0  0.5178486753915261 0.21 0  0.5253169776286404 0.21 0  0.5327852798657868 0.21 0  0.5402535821029386 0.21 0  0.54772188434007 0.21 0  0.5551901865771842 0.21 0  0.5626584888143201 0.21 0  0.5701267910514778 0.21 0  0.5775950932886138 0.21 0  0.5850633955257281 0.21 0  0.5925316977628483 0.21 0  0.6 0.2050000000000054 0  0.6 0.1950000000000217 0  0.5925316977628897 0.19 0  0.5850633955257988 0.19 0  0.5775950932887378 0.19 0  0.5701267910515998 0.19 0  0.5626584888145268 0.19 0  0.5551901865773963 0.19 0  0.547721884340339 0.19 0  0.5402535821032429 0.19 0  0.5327852798661811 0.19 0  0.5253169776290537 0.19 0  0.5178486753919799 0.19 0  0.5103803731549078 0.19 0  0.502912070917822 0.19 0  0.4954437686807294 0.19 0  0.4879754664436223 0.19 0  0.4805071642065402 0.19 0  0.4730388619694271 0.19 0  0.4655705597323621 0.19 0  0.4581022574952563 0.19 0  0.4506339552581777 0.19 0  0.4431656530210671 0.19 0  0.4356973507839815 0.19 0  0.4282290485468779 0.19 0  0.4207607463097617 0.19 0  0.4132924440726327 0.19 0  0.4058241418354857 0.19 0  0.3983558395983636 0.19 0  0.3908875373612097 0.19 0  0.3834192351240934 0.19 0  0.3759509328869369 0.19 0  0.3684826306498175 0.19 0  0.361014328412667 0.19 0  0.3535460261755617 0.19 0  0.3460777239384295 0.19 0  0.3386094217012945 0.19 0  0.3311411194641595 0.19 0  0.3236728172270245 0.19 0  0.3162045149898895 0.19 0  0.3087362127527544 0.19 0  0.3012679105156187 0.19 0  0.2937996082784807 0.19 0  0.2863313060413428 0.19 0  0.2788630038042048 0.19 0  0.2713947015670686 0.19 0  0.2639263993299336 0.19 0  0.2564580970927985 0.19 0  0.2607803159922026 0.2000727136295815 0  0.5887803774232762 0.2001272386983733 0  0.5745072403740523 0.2002044435018727 0  0.5511891430099709 0.2001122610077113 0  0.2751288526855082 0.20000000000002 0  0.5365194309847112 0.1999999999999436 0  0.2894621222999649 0.1998691686390484 0  0.5215828265105155 0.1999999999999228 0  0.3127789816668748 0.1998657885438805 0  0.3274069683451451 0.2000000000000796 0  0.5066462220363641 0.199999999999908 0  0.3650630746574081 0.199866017807523 0  0.476773013087985 0.1999999999998713 0  0.3417402379596385 0.1998691686391011 0  0.3796850840047755 0.200000000000134 0  0.4618364086138087 0.1999999999998546 0  0.4917096175621762 0.1999999999998808 0  0.3946216884789568 0.2000000000001512 0  0.446899804139621 0.1999999999998389 0  0.4089549580935208 0.1998691686391595 0  0.4322718174608562 0.200127451265745 0  0.4201487168029707 0.1999966199048527 0  0.3528922713220932 0.2000185703532356 0  0.5633122436674589 0.1999814296467508 0  0.3006558810093873 0.1999966199048318 0  0.5815926498168407 0.1966545283159175 0  0.2677053789419034 0.1964246479135325 0  0.5290511287476175 0.1970915826863981 0  0.5439877332217911 0.197091582686394 0  0.2825131256993216 0.2035478995978015 0  0.3199386661080599 0.202908417313604 0  0.4842413153250809 0.1970915826863873 0  0.5141145242734466 0.1970915826863843 0  0.3722167817676917 0.2029084173136195 0  0.4693047108508938 0.1970915826863783 0  0.3348752705822316 0.202908417313609 0  0.3871533862418661 0.2029084173136212 0  0.4543681063767183 0.1970915826863795 0  0.4991779197992749 0.1970915826863902 0  0.4020059614928624 0.203547899597858 0  0.4394315019025246 0.1970915826863714 0  0.2550657455369551 0.2034088125358657 0  0.2548908499171161 0.1966940311614271 0  0.5946539510196798 0.2024302972968126 0  0.267698176732111 0.2039977513680092 0  0.4261685417851465 0.196409292431739 0  0.3590076176283495 0.196411355804271 0  0.5571672426447437 0.2036011176410121 0  0.3066757059912147 0.1964092924317024 0  0.594380730180568 0.1966558399668133 0  0.4842413153245942 0.2040749161535287 0  0.4693047108503577 0.2040749161535231 0  0.3871533862424271 0.1959250838464788 0  0.372246743208829 0.1959123236376545 0  0.5141145242731028 0.2040749161535395 0  0.4543681063761134 0.2040749161535186 0  0.4019979587101454 0.1959834479682427 0  0.4394608940728603 0.2040870543693135 0  0.5439623148931173 0.2040856076781014 0  0.5290511287473298 0.2040749161535501 0  0.4991779197988497 0.2040749161535382 0  0.3347912413592433 0.1959225448935183 0  0.3199680582793816 0.1959123018030061 0  0.2825051229162361 0.1959834479681729 0  0.3590471196690275 0.2036304442587945 0  0.5571594006495384 0.1963685282145804 0  0.3067669986803285 0.203627750582736 0  0.4262598344738712 0.2036568242185335 0  0.5814408164431408 0.2041285596160068 0  0.5688286748170428 0.1961819304477386 0  0.4145905603063645 0.2038180695522843 0  0.3473758401724931 0.2038180695522752 0  0.2950977245128307 0.2038180695522663 0  0.5688286748170693 0.203818069552238 0  0.2950977245127906 0.1961819304477774 0  0.3473758401723931 0.1961819304478349 0  0.4145905603061963 0.1961819304479011 0  0.2601812407614425 0.2056861609747042
[...]
<PointData  Vectors="f_40-1"> 
<DataArray  type="Float64"  Name="f_40-1"  NumberOfComponents="3" format="ascii">0.0000000000000000e+00 0.0000000000000000e+00 0.0000000000000000e+00  0.0000000000000000e+00 0.0000000000000000e+00 0.0000000000000000e+00  0.0000000000000000e+00 0.0000000000000000e+00 0.0000000000000000e+00  0.0000000000000000e+00 0.0000000000000000e+00 0.0000000000000000e+00  8.2607748210772721e-05 2.8865288647320145e-03 0.0000000000000000e+00  -1.2166644071360608e-04 2.8859774049712571e-03 0.0000000000000000e+00  0.0000000000000000e+00 0.0000000000000000e+00 0.0000000000000000e+00  0.0000000000000000e+00 0.0000000000000000e+00 0.0000000000000000e+00  0.0000000000000000e+00 0.0000000000000000e+00 0.0000000000000000e+00  0.0000000000000000e+00 0.0000000000000000e+00 0.0000000000000000e+00  -1.9605642353050701e-05 2.8862453040877987e-03 0.0000000000000000e+00  0.0000000000000000e+00 0.0000000000000000e+00 0.0000000000000000e+00  0.0000000000000000e+00 0.0000000000000000e+00 0.0000000000000000e+00  0.0000000000000000e+00 0.0000000000000000e+00 0.0000000000000000e+00  0.0000000000000000e+00 0.0000000000000000e+00 0.0000000000000000e+00  0.0000000000000000e+00 0.0000000000000000e+00 0.0000000000000000e+00  0.0000000000000000e+00 0.0000000000000000e+00 0.0000000000000000e+00  0.0000000000000000e+00 0.0000000000000000e+00 0.0000000000000000e+00  0.0000000000000000e+00 0.0000000000000000e+00 0.0000000000000000e+00  0.0000000000000000e+00 0.0000000000000000e+00 0.0000000000000000e+00  0.0000000000000000e+00 0.0000000000000000e+00 0.0000000000000000e+00  0.0000000000000000e+00 0.0000000000000000e+00 0.0000000000000000e+00  0.0000000000000000e+00 0.0000000000000000e+00 0.0000000000000000e+00  0.0000000000000000e+00 0.0000000000000000e+00 0.0000000000000000e+00  0.0000000000000000e+00 0.0000000000000000e+00 0.0000000000000000e+00  0.0000000000000000e+00 0.0000000000000000e+00 0.0000000000000000e+00  0.0000000000000000e+00 0.0000000000000000e+00 0.0000000000000000e+00  0.0000000000000000e+00 0.0000000000000000e+00 0.0000000000000000e+00  0.0000000000000000e+00 0.0000000000000000e+00 0.0000000000000000e+00  0.0000000000000000e+00 0.0000000000000000e+00 0.0000000000000000e+00  0.0000000000000000e+00 0.0000000000000000e+00 0.0000000000000000e+00  0.0000000000000000e+00 0.0000000000000000e+00 0.0000000000000000e+00  0.0000000000000000e+00 0.0000000000000000e+00 0.0000000000000000e+00  0.0000000000000000e+00 0.0000000000000000e+00 0.0000000000000000e+00  0.0000000000000000e+00 0.0000000000000000e+00 0.0000000000000000e+00  0.0000000000000000e+00 0.0000000000000000e+00 0.0000000000000000e+00  0.0000000000000000e+00 0.0000000000000000e+00 0.0000000000000000e+00  0.0000000000000000e+00 0.0000000000000000e+00 0.0000000000000000e+00  0.0000000000000000e+00 0.0000000000000000e+00 0.0000000000000000e+00  0.0000000000000000e+00 0.0000000000000000e+00 0.0000000000000000e+00  0.0000000000000000e+00 0.0000000000000000e+00 0.0000000000000000e+00  0.0000000000000000e+00 0.0000000000000000e+00 0.0000000000000000e+00  0.0000000000000000e+00 0.0000000000000000e+00 0.0000000000000000e+00  0.0000000000000000e+00 0.0000000000000000e+00 0.0000000000000000e+00  0.0000000000000000e+00 0.0000000000000000e+00 0.0000000000000000e+00  0.0000000000000000e+00 0.0000000000000000e+00 0.0000000000000000e+00  0.0000000000000000e+00 0.0000000000000000e+00 0.0000000000000000e+00  0.0000000000000000e+00 0.0000000000000000e+00 0.0000000000000000e+00  0.0000000000000000e+00 0.0000000000000000e+00 0.0000000000000000e+00  0.0000000000000000e+00 0.0000000000000000e+00 0.0000000000000000e+00  0.0000000000000000e+00 0.0000000000000000e+00 0.0000000000000000e+00  0.0000000000000000e+00 0.0000000000000000e+00 0.0000000000000000e+00  0.0000000000000000e+00 0.0000000000000000e+00 0.0000000000000000e+00  0.0000000000000000e+00 0.0000000000000000e+00 0.0000000000000000e+00  0.0000000000000000e+00 0.0000000000000000e+00 0.0000000000000000e+00  0.0000000000000000e+00 0.0000000000000000e+00 0.0000000000000000e+00  0.0000000000000000e+00 0.0000000000000000e+00 0.0000000000000000e+00  0.0000000000000000e+00 0.0000000000000000e+00 0.0000000000000000e+00  0.0000000000000000e+00 0.0000000000000000e+00 0.0000000000000000e+00  0.0000000000000000e+00 0.0000000000000000e+00 0.0000000000000000e+00  0.0000000000000000e+00 0.0000000000000000e+00 0.0000000000000000e+00  0.0000000000000000e+00 0.0000000000000000e+00 0.0000000000000000e+00  0.0000000000000000e+00 0.0000000000000000e+00 0.0000000000000000e+00  0.0000000000000000e+00 0.0000000000000000e+00 0.0000000000000000e+00  0.0000000000000000e+00 0.0000000000000000e+00 0.0000000000000000e+00  0.0000000000000000e+00 0.0000000000000000e+00 0.0000000000000000e+00  0.0000000000000000e+00 0.0000000000000000e+00 0.0000000000000000e+00  0.0000000000000000e+00 0.0000000000000000e+00 0.0000000000000000e+00  0.0000000000000000e+00 0.0000000000000000e+00 0.0000000000000000e+00  0.0000000000000000e+00 0.0000000000000000e+00 0.0000000000000000e+00  0.0000000000000000e+00 0.0000000000000000e+00 0.0000000000000000e+00  0.0000000000000000e+00 0.0000000000000000e+00 0.0000000000000000e+00  0.0000000000000000e+00 0.0000000000000000e+00 0.0000000000000000e+00  0.0000000000000000e+00 0.0000000000000000e+00 0.0000000000000000e+00  0.0000000000000000e+00 0.0000000000000000e+00 0.0000000000000000e+00  0.0000000000000000e+00 0.0000000000000000e+00 0.0000000000000000e+00  0.0000000000000000e+00 0.0000000000000000e+00 0.0000000000000000e+00  0.0000000000000000e+00 0.0000000000000000e+00 0.0000000000000000e+00  0.0000000000000000e+00 0.0000000000000000e+00 0.0000000000000000e+00  0.0000000000000000e+00 0.0000000000000000e+00 0.0000000000000000e+00  0.0000000000000000e+00 0.0000000000000000e+00 0.0000000000000000e+00  0.0000000000000000e+00 0.0000000000000000e+00 0.0000000000000000e+00  0.0000000000000000e+00 0.0000000000000000e+00 0.0000000000000000e+00  0.0000000000000000e+00 0.0000000000000000e+00 0.0000000000000000e+00  0.0000000000000000e+00 0.0000000000000000e+00 0.0000000000000000e+00  0.0000000000000000e+00 0.0000000000000000e+00 0.0000000000000000e+00  0.0000000000000000e+00 0.0000000000000000e+00 0.0000000000000000e+00  0.0000000000000000e+00 0.0000000000000000e+00 0.0000000000000000e+00  0.0000000000000000e+00 0.0000000000000000e+00 0.0000000000000000e+00  0.0000000000000000e+00 0.0000000000000000e+00 0.0000000000000000e+00  0.0000000000000000e+00 0.0000000000000000e+00 0.0000000000000000e+00  0.0000000000000000e+00 0.0000000000000000e+00 0.0000000000000000e+00  0.0000000000000000e+00 0.0000000000000000e+00 0.0000000000000000e+00  0.0000000000000000e+00 0.0000000000000000e+00 0.0000000000000000e+00  0.0000000000000000e+00 0.0000000000000000e+00 0.0000000000000000e+00  0.0000000000000000e+00 0.0000000000000000e+00 0.0000000000000000e+00  0.0000000000000000e+00 0.0000000000000000e+00 0.0000000000000000e+00  0.0000000000000000e+00 0.0000000000000000e+00 0.0000000000000000e+00  0.0000000000000000e+00 0.0000000000000000e+00 0.0000000000000000e+00  0.0000000000000000e+00 0.0000000000000000e+00 0.0000000000000000e+00  0.0000000000000000e+00 0.0000000000000000e+00 0.0000000000000000e+00  0.0000000000000000e+00 0.0000000000000000e+00 0.0000000000000000e+00  0.0000000000000000e+00 0.0000000000000000e+00 0.0000000000000000e+00  0.0000000000000000e+00 0.0000000000000000e+00 0.0000000000000000e+00  0.0000000000000000e+00 0.0000000000000000e+00 0.0000000000000000e+00  0.0000000000000000e+00 0.0000000000000000e+00 0.0000000000000000e+00  0.0000000000000000e+00 0.0000000000000000e+00 0.0000000000000000e+00  0.0000000000000000e+00 0.0000000000000000e+00 0.0000000000000000e+00  0.0000000000000000e+00 0.0000000000000000e+00 0.0000000000000000e+00  0.0000000000000000e+00 0.0000000000000000e+00 0.0000000000000000e+00  0.0000000000000000e+00 0.0000000000000000e+00 0.0000000000000000e+00  0.0000000000000000e+00 0.0000000000000000e+00 0.0000000000000000e+00  0.0000000000000000e+00 0.0000000000000000e+00 0.0000000000000000e+00  0.0000000000000000e+00 0.0000000000000000e+00 0.0000000000000000e+00  0.0000000000000000e+00 0.0000000000000000e+00 0.0000000000000000e+00  0.0000000000000000e+00 0.0000000000000000e+00 0.0000000000000000e+00  0.0000000000000000e+00 0.0000000000000000e+00 0.0000000000000000e+00  0.0000000000000000e+00 0.0000000000000000e+00 0.0000000000000000e+00  0.0000000000000000e+00 0.0000000000000000e+00 0.0000000000000000e+00  0.0000000000000000e+00 0.0000000000000000e+00 0.0000000000000000e+00  0.0000000000000000e+00 0.0000000000000000e+00 0.0000000000000000e+00  0.0000000000000000e+00 0.0000000000000000e+00 0.0000000000000000e+00  0.0000000000000000e+00 0.0000000000000000e+00 0.0000000000000000e+00  0.0000000000000000e+00 0.0000000000000000e+00 0.0000000000000000e+00  0.0000000000000000e+00 0.0000000000000000e+00 0.0000000000000000e+00  0.0000000000000000e+00 0.0000000000000000e+00 0.0000000000000000e+00  0.0000000000000000e+00 0.0000000000000000e+00 0.0000000000000000e+00  0.0000000000000000e+00 0.0000000000000000e+00 0.0000000000000000e+00  0.0000000000000000e+00 0.0000000000000000e+00 0.0000000000000000e+00  0.0000000000000000e+00 0.0000000000000000e+00 0.0000000000000000e+00  0.0000000000000000e+00 0.0000000000000000e+00 0.0000000000000000e+00  0.0000000000000000e+00 0.0000000000000000e+00 0.0000000000000000e+00  0.0000000000000000e+00 0.0000000000000000e+00 0.0000000000000000e+00  0.0000000000000000e+00 0.0000000000000000e+00 0.0000000000000000e+00  0.0000000000000000e+00 0.0000000000000000e+00 0.0000000000000000e+00  0.0000000000000000e+00 0.0000000000000000e+00 0.0000000000000000e+00  0.0000000000000000e+00 0.0000000000000000e+00 0.0000000000000000e+00  0.0000000000000000e+00 0.0000000000000000e+00 0.0000000000000000e+00  0.0000000000000000e+00 0.0000000000000000e+00 0.0000000000000000e+00  0.0000000000000000e+00 0.0000000000000000e+00 0.0000000000000000e+00  0.0000000000000000e+00 0.0000000000000000e+00 0.0000000000000000e+00  0.0000000000000000e+00 0.0000000000000000e+00 0.0000000000000000e+00  0.0000000000000000e+00 0.0000000000000000e+00 0.0000000000000000e+00  -7.7298878048656885e-06 7.4196410069403361e-06 0.0000000000000000e+00  -1.6375251169145386e-05 1.6423383912458425e-05 0.0000000000000000e+00  -2.3952872854545187e-05 3.0840588860806717e-05 0.0000000000000000e+00  -3.2015274021893512e-05 5.0990805250224558e-05 0.0000000000000000e+00  -3.8677002001224919e-05 7.5804415017531241e-05 0.0000000000000000e+00  -4.6042099909299662e-05 1.0570430370935628e-04 0.0000000000000000e+00  -5.1905124961352930e-05 1.3927335935596096e-04 0.0000000000000000e+00  -5.7468495025478941e-05 1.7758632459602018e-04 0.0000000000000000e+00  -6.3690589496950896e-05 2.1941317555275799e-04 0.0000000000000000e+00  -6.8359860542259197e-05 2.6480121553109129e-04 0.0000000000000000e+00  -7.3859928731272740e-05 3.1364087254110259e-04 0.0000000000000000e+00  -7.7926514792678984e-05 3.6551227047197426e-04 0.0000000000000000e+00  -8.2534269068053177e-05 4.2026714744500704e-04 0.0000000000000000e+00  -8.6130114411538325e-05 4.7727340263503150e-04 0.0000000000000000e+00  -8.9486132203673779e-05 5.3696828873857621e-04 0.0000000000000000e+00  -9.3129000399491308e-05 5.9861447594726622e-04 0.0000000000000000e+00  -9.5836044301212474e-05 6.6217089431260814e-04 0.0000000000000000e+00  -9.8888818424507479e-05 7.2754927786358714e-04 0.0000000000000000e+00  -1.0112684292777506e-04 7.9441768474055414e-04 0.0000000000000000e+00  -1.0359419524642988e-04 8.6267665728551437e-04 0.0000000000000000e+00  -1.0550632042130565e-04 9.3214800759488918e-04 0.0000000000000000e+00  -1.0746758575625201e-04 1.0027607804566270e-03 0.0000000000000000e+00  -1.0901717465811824e-04 1.0741508986026190e-03 0.0000000000000000e+00  -1.1041622639484452e-04 1.1464950916241867e-03 0.0000000000000000e+00  -1.1184882166325721e-04 1.2194521710678055e-03 0.0000000000000000e+00  -1.1299453767510294e-04 1.2930668337706097e-03 0.0000000000000000e+00  -1.1406592198405165e-04 1.3672442530952272e-03 0.0000000000000000e+00  -1.1497291398154845e-04 1.4418163934118392e-03 0.0000000000000000e+00  -1.1580702108606208e-04 1.5168139069991569e-03 0.0000000000000000e+00  -1.1651387861205232e-04 1.5920807386220993e-03 0.0000000000000000e+00  -1.1715556653225607e-04 1.6676393871134193e-03 0.0000000000000000e+00  -1.1769823448531788e-04 1.7433618931316757e-03 0.0000000000000000e+00  -1.1818669776965581e-04 1.8192691254329224e-03 0.0000000000000000e+00  -1.1859956160505931e-04 1.8952608822574981e-03 0.0000000000000000e+00  -1.1896672526288901e-04 1.9713605584270179e-03 0.0000000000000000e+00  -1.1928528992257352e-04 2.0474965756138936e-03 0.0000000000000000e+00  -1.1957210230751570e-04 2.1236844294958766e-03 0.0000000000000000e+00  -1.1982880739383201e-04 2.1998819588274232e-03 0.0000000000000000e+00  -1.2006422672872920e-04 2.2760998003095211e-03 0.0000000000000000e+00  -1.2028466275924316e-04 2.3523175929342911e-03 0.0000000000000000e+00  -1.2049508347901373e-04 2.4285399741865023e-03 0.0000000000000000e+00  -1.2070075626848017e-04 2.5047615907255487e-03 0.0000000000000000e+00  -1.2089938288509456e-04 2.5809897416779657e-03 0.0000000000000000e+00  -1.2109944105705099e-04 2.6572227143609396e-03 0.0000000000000000e+00  -1.2129935648093302e-04 2.7334695956165800e-03 0.0000000000000000e+00  -1.2149275333976102e-04 2.8097252249520989e-03 0.0000000000000000e+00  -7.0654302308127985e-05 2.8861109909072056e-03 0.0000000000000000e+00  3.1473483738513962e-05 2.8863817915350714e-03 0.0000000000000000e+00  8.2760480225217489e-05 2.8102158348563911e-03 0.0000000000000000e+00  8.2936723504636715e-05 2.7339419376023102e-03 0.0000000000000000e+00  8.3120038104299396e-05 2.6576834118015049e-03 0.0000000000000000e+00  8.3303289232192597e-05 2.5814299911756646e-03 0.0000000000000000e+00  8.3490926120000664e-05 2.5051790746800540e-03 0.0000000000000000e+00  8.3687570775909786e-05 2.4289296329816205e-03 0.0000000000000000e+00  8.3885047874840554e-05 2.3526778837377337e-03 0.0000000000000000e+00  8.4088932214512532e-05 2.2764287441962086e-03 0.0000000000000000e+00  8.4286632529544840e-05 2.2001788485268669e-03 0.0000000000000000e+00  8.4488704250889642e-05 2.1239389590657540e-03 0.0000000000000000e+00  8.4670093040499310e-05 2.0477144046253649e-03 0.0000000000000000e+00  8.4857070101980852e-05 1.9715265794201463e-03 0.0000000000000000e+00  8.4999395127829792e-05 1.8953871293488358e-03 0.0000000000000000e+00  8.5149311777321321e-05 1.8193343165574427e-03 0.0000000000000000e+00  8.5217987378184457e-05 1.7433839946838444e-03 0.0000000000000000e+00  8.5303626826712422e-05 1.6675951253883063e-03 0.0000000000000000e+00  8.5262311320117402e-05 1.5919891603625414e-03 0.0000000000000000e+00  8.5255695654474736e-05 1.5166455956595261e-03 0.0000000000000000e+00  8.5066908295943221e-05 1.4415935467138030e-03 0.0000000000000000e+00  8.4938855535390882e-05 1.3669317003881299e-03 0.0000000000000000e+00  8.4554816761803241e-05 1.2926963390475059e-03 0.0000000000000000e+00  8.4264167501264627e-05 1.2190094187972428e-03 0.0000000000000000e+00  8.3649435533796906e-05 1.1459317980577132e-03 0.0000000000000000e+00  8.3108307096311059e-05 1.0735068256614473e-03 0.0000000000000000e+00  8.2458754484141750e-05 1.0020358138197163e-03 0.0000000000000000e+00  8.1447311374971659e-05 9.3129847240381886e-04 0.0000000000000000e+00  8.0438159389052227e-05 8.6176687476604555e-04 0.0000000000000000e+00  7.9094600573240416e-05 7.9335152365908699e-04 0.0000000000000000e+00  7.7697130147281825e-05 7.2640091413990059e-04 0.0000000000000000e+00  7.5922631983578489e-05 6.6091025950436701e-04 0.0000000000000000e+00  7.4086887783109107e-05 5.9715806366587691e-04 0.0000000000000000e+00  7.1582731470807068e-05 5.3552408435966195e-04 0.0000000000000000e+00  6.9349320827927731e-05 4.7567995360057883e-04 0.0000000000000000e+00  6.6889092556778623e-05 4.1859747857175280e-04 0.0000000000000000e+00  6.3571830656032692e-05 3.6353279491277001e-04 0.0000000000000000e+00  6.0344724202127436e-05 3.1164226460798374e-04 0.0000000000000000e+00  5.6489264143770212e-05 2.6265423249354403e-04 0.0000000000000000e+00  5.2653736513724309e-05 2.1699174029973664e-04 0.0000000000000000e+00  4.7744895527704261e-05 1.7525346830394911e-04 0.0000000000000000e+00  4.3429420470021519e-05 1.3675552142753693e-04 0.0000000000000000e+00  3.8851459654010314e-05 1.0307936153710907e-04 0.0000000000000000e+00  3.2891128089231551e-05 7.2925748965644330e-05 0.0000000000000000e+00  2.7354997044144054e-05 4.7907972247986818e-05 0.0000000000000000e+00  2.0553884654437817e-05 2.7927865267168789e-05 0.0000000000000000e+00  1.4370848767734137e-05 1.3406171545720566e-05 0.0000000000000000e+00  6.8178993991441341e-06 4.4976421010531319e-06 0.0000000000000000e+00  -5.6133855059704663e-07 6.4222268654613166e-06 0.0000000000000000e+00  -2.0606731910348723e-05 2.7716558380683769e-03 0.0000000000000000e+00  -2.1020216189901405e-05 2.6259201316324999e-03 0.0000000000000000e+00  -1.9458435266558953e-05 2.3878852964776568e-03 0.0000000000000000e+00  -1.9134123323026830e-06 3.5360409929264355e-05 0.0000000000000000e+00  -1.7895244492502697e-05 2.2381359827427344e-03 0.0000000000000000e+00  -2.7026715038380384e-06 8.3239909496421677e-05 0.0000000000000000e+00  -1.7437620124982996e-05 2.0856788562597121e-03 0.0000000000000000e+00  -4.3962668943410673e-06 1.9609264899661457e-04 0.0000000000000000e+00  -6.3296941251568590e-06 2.8571779821254240e-04 0.0000000000000000e+00  -1.6936840800770799e-05 1.9333216599747576e-03 0.0000000000000000e+00  -8.1159538163079025e-06 5.6804049173400878e-04 0.0000000000000000e+00  -1.5778358553088082e-05 1.6296410470659323e-03 0.0000000000000000e+00  -6.5195302028078112e-06 3.8533796896019065e-04 0.0000000000000000e+00  -1.0271456705302073e-05 6.9297393053247447e-04 0.0000000000000000e+00  -1.5113335563014901e-05 1.4789413711200380e-03 0.0000000000000000e+00  -1.6385171829887013e-05 1.7812229620266051e-03 0.0000000000000000e+00  -1.1297060237334300e-05 8.2701895146203427e-04 0.0000000000000000e+00  -1.4381717566918374e-05 1.3295968010282970e-03 0.0000000000000000e+00  -1.0995080578683119e-05 9.6050781232432747e-04 0.0000000000000000e+00  -1.4848793085298615e-05 1.1852073892777086e-03 0.0000000000000000e+00  -1.2873210182455843e-05 1.0675209058837900e-03 0.0000000000000000e+00  -8.4539162829386057e-06 4.7022858400287942e-04 0.0000000000000000e+00  -1.8452124752154169e-05 2.5116417779637245e-03 0.0000000000000000e+00  -4.0983924712815952e-06 1.3307601241238583e-04 0.0000000000000000e+00  1.5046447848054722e-05 2.6983416996305006e-03 0.0000000000000000e+00  5.5506302074467809e-06 1.7955447130124996e-05 0.0000000000000000e+00  1.2007674517076003e-05 2.1619446810124056e-03 0.0000000000000000e+00  1.1579463910874061e-05 2.3144255981921561e-03 0.0000000000000000e+00  -1.4047209208973646e-05 5.8881943022342256e-05 0.0000000000000000e+00  -2.3296451188108297e-05 2.3894522314801901e-04 0.0000000000000000e+00  1.3381606731141983e-05 1.7053640525305056e-03 0.0000000000000000e+00  1.2455599920664878e-05 2.0095141232095836e-03 0.0000000000000000e+00  -3.4393031372890479e-05 6.2865365259151963e-04 0.0000000000000000e+00  1.3830630410728585e-05 1.5541625483040228e-03 0.0000000000000000e+00  -2.6878530068272908e-05 3.3684079415224140e-04 0.0000000000000000e+00  -3.6703937480058566e-05 7.5957326999704885e-04 0.0000000000000000e+00  1.4249980262867962e-05 1.4040666664643714e-03 0.0000000000000000e+00  1.2917918766688873e-05 1.8572515414582501e-03 0.0000000000000000e+00  -4.4636258170248740e-05 8.9556248990401897e-04 0.0000000000000000e+00  1.4630361116202044e-05 1.2555992766130383e-03 0.0000000000000000e+00  -1.3410797719253233e-06 1.7706258797619216e-06 0.0000000000000000e+00  1.0690419956548728e-06 9.7419924749098206e-07 0.0000000000000000e+00  -4.4281164641487630e-05 2.8315853070350716e-03 0.0000000000000000e+00  -8.7773090620015135e-06 1.9173370644918726e-05 0.0000000000000000e+00  2.1520387867534163e-05 1.1256424863563502e-03 0.0000000000000000e