<?xml version="1.0"?>
<VTKFile type="UnstructuredGrid"  version="0.1"  >
<UnstructuredGrid>
<Piece  NumberOfPoints="1419" NumberOfCells="2698">
<Points>
<DataArray  type="Float64"  NumberOfComponents="3"  format="ascii">0 0 0  0 0.41 0  2.5 0 0  2.5 0.41 0  0.6 0.19 0  0.6 0.21 0  0.25 0.2 0  0.15 0.2 0  0.2489897948556636 0.21 0  0.2489897948556636 0.19 0  0.6 0.2 0  0 0.3807142857143437 0  0 0.3514285714286952 0  0 0.3221428571430699 0  0 0.29285714285744 0  0 0.2635714285718054 0  0 0.2342857142861561 0  0 0.2050000000005308 0  0 0.175714285714732 0  0 0.1464285714289574 0  0 0.1171428571431897 0  0 0.08785714285737878 0  0 0.05857142857161107 0  0 0.02928571428580012 0  0.03015443760436003 0 0  0.06140001986583606 0 0  0.09377624077125973 0 0  0.1273239957535082 0 0  0.1620856860351972 0 0  0.1981052433264291 0 0  0.235428184091502 0 0  0.2741016576309132 0 0  0.3141745521465447 0 0  0.3556974926295285 0 0  0.3987229542472677 0 0  0.4433053055141081 0 0  0.4895008759286886 0 0  0.5373680609405097 0 0  0.5869673343216626 0 0  0.6383613676634521 0 0  0.6916151138468254 0 0  0.7467958595648856 0 0  0.8039733463919316 0 0  0.8632198139502143 0 0  0.9246101326867038 0 0  0.9882218810934433 0 0  1.054135445558498 0 0  1.122434100542598 0 0  1.193204177141305 0 0  1.266535089879536 0 0  1.342519516046404 0 0  1.421253448503939 0 0  1.502836389106271 0 0  1.587371439758838 0 0  1.674965418777374 0 0  1.765729001825544 0 0  1.859776908880082 0 0  1.957227977487062 0 0  2.058205329869943 0 0  2.162836591189951 0 0  2.271253957290865 0 0  2.383594446803425 0 0  2.5 0.1024999999997612 0  2.5 0.2049999999994743 0  2.5 0.3074999999997183 0  2.383594446803656 0.41 0  2.271253957291315 0.41 0  2.162836591190598 0.41 0  2.058205329870775 0.41 0  1.957227977488067 0.41 0  1.859776908881246 0.41 0  1.765729001826854 0.41 0  1.674965418778818 0.41 0  1.58737143976041 0.41 0  1.502836389107956 0.41 0  1.421253448505726 0.41 0  1.342519516048286 0.41 0  1.266535089881505 0.41 0  1.193204177143353 0.41 0  1.122434100544716 0.41 0  1.05413544556068 0.41 0  0.9882218810956305 0.41 0  0.9246101326886647 0.41 0  0.8632198139519631 0.41 0  0.8039733463934788 0.41 0  0.7467958595662458 0.41 0  0.6916151138480078 0.41 0  0.6383613676644679 0.41 0  0.5869673343225223 0.41 0  0.5373680609412221 0.41 0  0.4895008759292634 0.41 0  0.4433053055145528 0.41 0  0.3987229542475914 0.41 0  0.3556974926297398 0.41 0  0.3141745521466497 0.41 0  0.2741016576310038 0.41 0  0.2354281840915826 0.41 0  0.1981052433265003 0.41 0  0.1620856860352591 0.41 0  0.1273239957535623 0.41 0  0.09377624077128965 0.41 0  0.06140001986584975 0.41 0  0.03015443760436654 0.41 0  0.2497468076502589 0.2050254481002335 0  0.2497468076502614 0.1949745518997913 0  0.2469965252529372 0.1829317073451959 0  0.2439893735792749 0.1762316384219906 0  0.2400332147834255 0.1700443375285386 0  0.2352133972704371 0.1645032867342007 0  0.2296339016332438 0.1597280261969788 0  0.2234150974217223 0.1558215752574715 0  0.2166911463437691 0.1528682099456123 0  0.2096071079204251 0.1509316448471593 0  0.2023158100364996 0.1500536585536553 0  0.194974551899914 0.1502531923497262 0  0.1877417105387872 0.1515259415822739 0  0.1807733240461124 0.153844448527136 0  0.1742197252835808 0.15715869474974 0  0.1682222986673531 0.1613971801805478 0  0.162910430003803 0.1664684656256651 0  0.1583987151779087 0.1722631454351573 0  0.1547844879126891 0.178656207771761 0  0.1521457199348551 0.1855097315605723 0  0.1505393388476355 0.1926758619366523 0  0.1505393388476328 0.2073241380633295 0  0.1521457199348437 0.2144902684393899 0  0.1547844879126531 0.221343792228163 0  0.1583987151778488 0.2277368545647528 0  0.1629104300036858 0.2335315343742052 0  0.1682222986671726 0.2386028198193036 0  0.1742197252833576 0.2428413052501257 0  0.1807733240458683 0.2461555514727623 0  0.1877417105384929 0.2484740584176516 0  0.1949745518995776 0.2497468076502398 0  0.202315810036185 0.2499463414463592 0  0.2096071079201568 0.2490683551528932 0  0.2166911463435495 0.2471317900544655 0  0.2234150974215506 0.2441784247426195 0  0.2296339016331197 0.2402719738031125 0  0.2352133972703547 0.2354967132658811 0  0.2400332147833751 0.2299556624715287 0  0.2439893735792577 0.2237683615780412 0  0.246996525252926 0.2170682926548348 0  0.25645809709277 0.21 0  0.2639263993298655 0.21 0  0.271394701566961 0.21 0  0.2788630038040554 0.21 0  0.2863313060411479 0.21 0  0.2937996082782405 0.21 0  0.301267910515333 0.21 0  0.3087362127524279 0.21 0  0.3162045149895234 0.21 0  0.3236728172265972 0.21 0  0.3311411194636928 0.21 0  0.3386094217007701 0.21 0  0.3460777239378666 0.21 0  0.3535460261749672 0.21 0  0.3610143284120516 0.21 0  0.3684826306491596 0.21 0  0.3759509328862226 0.21 0  0.383419235123329 0.21 0  0.3908875373604028 0.21 0  0.3983558395975142 0.21 0  0.4058241418345938 0.21 0  0.4132924440716992 0.21 0  0.4207607463087888 0.21 0  0.4282290485459029 0.21 0  0.4356973507830418 0.21 0  0.4431656530201649 0.21 0  0.4506339552573136 0.21 0  0.4581022574944306 0.21 0  0.4655705597315852 0.21 0  0.4730388619686996 0.21 0  0.480507164205851 0.21 0  0.4879754664429498 0.21 0  0.4954437686800938 0.21 0  0.502912070917267 0.21 0  0.5103803731544119 0.21 0  0.5178486753915261 0.21 0  0.5253169776286404 0.21 0  0.5327852798657868 0.21 0  0.5402535821029386 0.21 0  0.54772188434007 0.21 0  0.5551901865771842 0.21 0  0.5626584888143201 0.21 0  0.5701267910514778 0.21 0  0.5775950932886138 0.21 0  0.5850633955257281 0.21 0  0.5925316977628483 0.21 0  0.6 0.2050000000000054 0  0.6 0.1950000000000217 0  0.5925316977628897 0.19 0  0.5850633955257988 0.19 0  0.5775950932887378 0.19 0  0.5701267910515998 0.19 0  0.5626584888145268 0.19 0  0.5551901865773963 0.19 0  0.547721884340339 0.19 0  0.5402535821032429 0.19 0  0.5327852798661811 0.19 0  0.5253169776290537 0.19 0  0.5178486753919799 0.19 0  0.5103803731549078 0.19 0  0.502912070917822 0.19 0  0.4954437686807294 0.19 0  0.4879754664436223 0.19 0  0.4805071642065402 0.19 0  0.4730388619694271 0.19 0  0.4655705597323621 0.19 0  0.4581022574952563 0.19 0  0.4506339552581777 0.19 0  0.4431656530210671 0.19 0  0.4356973507839815 0.19 0  0.4282290485468779 0.19 0  0.4207607463097617 0.19 0  0.4132924440726327 0.19 0  0.4058241418354857 0.19 0  0.3983558395983636 0.19 0  0.3908875373612097 0.19 0  0.3834192351240934 0.19 0  0.3759509328869369 0.19 0  0.3684826306498175 0.19 0  0.361014328412667 0.19 0  0.3535460261755617 0.19 0  0.3460777239384295 0.19 0  0.3386094217012945 0.19 0  0.3311411194641595 0.19 0  0.3236728172270245 0.19 0  0.3162045149898895 0.19 0  0.3087362127527544 0.19 0  0.3012679105156187 0.19 0  0.2937996082784807 0.19 0  0.2863313060413428 0.19 0  0.2788630038042048 0.19 0  0.2713947015670686 0.19 0  0.2639263993299336 0.19 0  0.2564580970927985 0.19 0  0.2607803159922026 0.2000727136295815 0  0.5887803774232762 0.2001272386983733 0  0.5745072403740523 0.2002044435018727 0  0.5511891430099709 0.2001122610077113 0  0.2751288526855082 0.20000000000002 0  0.5365194309847112 0.1999999999999436 0  0.2894621222999649 0.1998691686390484 0  0.5215828265105155 0.1999999999999228 0  0.3127789816668748 0.1998657885438805 0  0.3274069683451451 0.2000000000000796 0  0.5066462220363641 0.199999999999908 0  0.3650630746574081 0.199866017807523 0  0.476773013087985 0.1999999999998713 0  0.3417402379596385 0.1998691686391011 0  0.3796850840047755 0.200000000000134 0  0.4618364086138087 0.1999999999998546 0  0.4917096175621762 0.1999999999998808 0  0.3946216884789568 0.2000000000001512 0  0.446899804139621 0.1999999999998389 0  0.4089549580935208 0.1998691686391595 0  0.4322718174608562 0.200127451265745 0  0.4201487168029707 0.1999966199048527 0  0.3528922713220932 0.2000185703532356 0  0.5633122436674589 0.1999814296467508 0  0.3006558810093873 0.1999966199048318 0  0.5815926498168407 0.1966545283159175 0  0.2677053789419034 0.1964246479135325 0  0.5290511287476175 0.1970915826863981 0  0.5439877332217911 0.197091582686394 0  0.2825131256993216 0.2035478995978015 0  0.3199386661080599 0.202908417313604 0  0.4842413153250809 0.1970915826863873 0  0.5141145242734466 0.1970915826863843 0  0.3722167817676917 0.2029084173136195 0  0.4693047108508938 0.1970915826863783 0  0.3348752705822316 0.202908417313609 0  0.3871533862418661 0.2029084173136212 0  0.4543681063767183 0.1970915826863795 0  0.4991779197992749 0.1970915826863902 0  0.4020059614928624 0.203547899597858 0  0.4394315019025246 0.1970915826863714 0  0.2550657455369551 0.2034088125358657 0  0.2548908499171161 0.1966940311614271 0  0.5946539510196798 0.2024302972968126 0  0.267698176732111 0.2039977513680092 0  0.4261685417851465 0.196409292431739 0  0.3590076176283495 0.196411355804271 0  0.5571672426447437 0.2036011176410121 0  0.3066757059912147 0.1964092924317024 0  0.594380730180568 0.1966558399668133 0  0.4842413153245942 0.2040749161535287 0  0.4693047108503577 0.2040749161535231 0  0.3871533862424271 0.1959250838464788 0  0.372246743208829 0.1959123236376545 0  0.5141145242731028 0.2040749161535395 0  0.4543681063761134 0.2040749161535186 0  0.4019979587101454 0.1959834479682427 0  0.4394608940728603 0.2040870543693135 0  0.5439623148931173 0.2040856076781014 0  0.5290511287473298 0.2040749161535501 0  0.4991779197988497 0.2040749161535382 0  0.3347912413592433 0.1959225448935183 0  0.3199680582793816 0.1959123018030061 0  0.2825051229162361 0.1959834479681729 0  0.3590471196690275 0.2036304442587945 0  0.5571594006495384 0.1963685282145804 0  0.3067669986803285 0.203627750582736 0  0.4262598344738712 0.2036568242185335 0  0.5814408164431408 0.2041285596160068 0  0.5688286748170428 0.1961819304477386 0  0.4145905603063645 0.2038180695522843 0  0.3473758401724931 0.2038180695522752 0  0.2950977245128307 0.2038180695522663 0  0.5688286748170693 0.203818069552238 0  0.2950977245127906 0.1961819304477774 0  0.3473758401723931 0.1961819304478349 0  0.4145905603061963 0.1961819304479011 0  0.2601812407614425 0.2056861609747042
[...]
<PointData  Vectors="f_40-1"> 
<DataArray  type="Float64"  Name="f_40-1"  NumberOfComponents="3" format="ascii">0.0000000000000000e+00 0.0000000000000000e+00 0.0000000000000000e+00  0.0000000000000000e+00 0.0000000000000000e+00 0.0000000000000000e+00  0.0000000000000000e+00 0.0000000000000000e+00 0.0000000000000000e+00  0.0000000000000000e+00 0.0000000000000000e+00 0.0000000000000000e+00  5.6500888989913169e-05 2.0093763909319212e-03 0.0000000000000000e+00  -8.4011241365858431e-05 2.0093052724618411e-03 0.0000000000000000e+00  0.0000000000000000e+00 0.0000000000000000e+00 0.0000000000000000e+00  0.0000000000000000e+00 0.0000000000000000e+00 0.0000000000000000e+00  0.0000000000000000e+00 0.0000000000000000e+00 0.0000000000000000e+00  0.0000000000000000e+00 0.0000000000000000e+00 0.0000000000000000e+00  -1.3826765381755090e-05 2.0093331918678908e-03 0.0000000000000000e+00  0.0000000000000000e+00 0.0000000000000000e+00 0.0000000000000000e+00  0.0000000000000000e+00 0.0000000000000000e+00 0.0000000000000000e+00  0.0000000000000000e+00 0.0000000000000000e+00 0.0000000000000000e+00  0.0000000000000000e+00 0.0000000000000000e+00 0.0000000000000000e+00  0.0000000000000000e+00 0.0000000000000000e+00 0.0000000000000000e+00  0.0000000000000000e+00 0.0000000000000000e+00 0.0000000000000000e+00  0.0000000000000000e+00 0.0000000000000000e+00 0.0000000000000000e+00  0.0000000000000000e+00 0.0000000000000000e+00 0.0000000000000000e+00  0.0000000000000000e+00 0.0000000000000000e+00 0.0000000000000000e+00  0.0000000000000000e+00 0.0000000000000000e+00 0.0000000000000000e+00  0.0000000000000000e+00 0.0000000000000000e+00 0.0000000000000000e+00  0.0000000000000000e+00 0.0000000000000000e+00 0.0000000000000000e+00  0.0000000000000000e+00 0.0000000000000000e+00 0.0000000000000000e+00  0.0000000000000000e+00 0.0000000000000000e+00 0.0000000000000000e+00  0.0000000000000000e+00 0.0000000000000000e+00 0.0000000000000000e+00  0.0000000000000000e+00 0.0000000000000000e+00 0.0000000000000000e+00  0.0000000000000000e+00 0.0000000000000000e+00 0.0000000000000000e+00  0.0000000000000000e+00 0.0000000000000000e+00 0.0000000000000000e+00  0.0000000000000000e+00 0.0000000000000000e+00 0.0000000000000000e+00  0.0000000000000000e+00 0.0000000000000000e+00 0.0000000000000000e+00  0.0000000000000000e+00 0.0000000000000000e+00 0.0000000000000000e+00  0.0000000000000000e+00 0.0000000000000000e+00 0.0000000000000000e+00  0.0000000000000000e+00 0.0000000000000000e+00 0.0000000000000000e+00  0.0000000000000000e+00 0.0000000000000000e+00 0.0000000000000000e+00  0.0000000000000000e+00 0.0000000000000000e+00 0.0000000000000000e+00  0.0000000000000000e+00 0.0000000000000000e+00 0.0000000000000000e+00  0.0000000000000000e+00 0.0000000000000000e+00 0.0000000000000000e+00  0.0000000000000000e+00 0.0000000000000000e+00 0.0000000000000000e+00  0.0000000000000000e+00 0.0000000000000000e+00 0.0000000000000000e+00  0.0000000000000000e+00 0.0000000000000000e+00 0.0000000000000000e+00  0.0000000000000000e+00 0.0000000000000000e+00 0.0000000000000000e+00  0.0000000000000000e+00 0.0000000000000000e+00 0.0000000000000000e+00  0.0000000000000000e+00 0.0000000000000000e+00 0.0000000000000000e+00  0.0000000000000000e+00 0.0000000000000000e+00 0.0000000000000000e+00  0.0000000000000000e+00 0.0000000000000000e+00 0.0000000000000000e+00  0.0000000000000000e+00 0.0000000000000000e+00 0.0000000000000000e+00  0.0000000000000000e+00 0.0000000000000000e+00 0.0000000000000000e+00  0.0000000000000000e+00 0.0000000000000000e+00 0.0000000000000000e+00  0.0000000000000000e+00 0.0000000000000000e+00 0.0000000000000000e+00  0.0000000000000000e+00 0.0000000000000000e+00 0.0000000000000000e+00  0.0000000000000000e+00 0.0000000000000000e+00 0.0000000000000000e+00  0.0000000000000000e+00 0.0000000000000000e+00 0.0000000000000000e+00  0.0000000000000000e+00 0.0000000000000000e+00 0.0000000000000000e+00  0.0000000000000000e+00 0.0000000000000000e+00 0.0000000000000000e+00  0.0000000000000000e+00 0.0000000000000000e+00 0.0000000000000000e+00  0.0000000000000000e+00 0.0000000000000000e+00 0.0000000000000000e+00  0.0000000000000000e+00 0.0000000000000000e+00 0.0000000000000000e+00  0.0000000000000000e+00 0.0000000000000000e+00 0.0000000000000000e+00  0.0000000000000000e+00 0.0000000000000000e+00 0.0000000000000000e+00  0.0000000000000000e+00 0.0000000000000000e+00 0.0000000000000000e+00  0.0000000000000000e+00 0.0000000000000000e+00 0.0000000000000000e+00  0.0000000000000000e+00 0.0000000000000000e+00 0.0000000000000000e+00  0.0000000000000000e+00 0.0000000000000000e+00 0.0000000000000000e+00  0.0000000000000000e+00 0.0000000000000000e+00 0.0000000000000000e+00  0.0000000000000000e+00 0.0000000000000000e+00 0.0000000000000000e+00  0.0000000000000000e+00 0.0000000000000000e+00 0.0000000000000000e+00  0.0000000000000000e+00 0.0000000000000000e+00 0.0000000000000000e+00  0.0000000000000000e+00 0.0000000000000000e+00 0.0000000000000000e+00  0.0000000000000000e+00 0.0000000000000000e+00 0.0000000000000000e+00  0.0000000000000000e+00 0.0000000000000000e+00 0.0000000000000000e+00  0.0000000000000000e+00 0.0000000000000000e+00 0.0000000000000000e+00  0.0000000000000000e+00 0.0000000000000000e+00 0.0000000000000000e+00  0.0000000000000000e+00 0.0000000000000000e+00 0.0000000000000000e+00  0.0000000000000000e+00 0.0000000000000000e+00 0.0000000000000000e+00  0.0000000000000000e+00 0.0000000000000000e+00 0.0000000000000000e+00  0.0000000000000000e+00 0.0000000000000000e+00 0.0000000000000000e+00  0.0000000000000000e+00 0.0000000000000000e+00 0.0000000000000000e+00  0.0000000000000000e+00 0.0000000000000000e+00 0.0000000000000000e+00  0.0000000000000000e+00 0.0000000000000000e+00 0.0000000000000000e+00  0.0000000000000000e+00 0.0000000000000000e+00 0.0000000000000000e+00  0.0000000000000000e+00 0.0000000000000000e+00 0.0000000000000000e+00  0.0000000000000000e+00 0.0000000000000000e+00 0.0000000000000000e+00  0.0000000000000000e+00 0.0000000000000000e+00 0.0000000000000000e+00  0.0000000000000000e+00 0.0000000000000000e+00 0.0000000000000000e+00  0.0000000000000000e+00 0.0000000000000000e+00 0.0000000000000000e+00  0.0000000000000000e+00 0.0000000000000000e+00 0.0000000000000000e+00  0.0000000000000000e+00 0.0000000000000000e+00 0.0000000000000000e+00  0.0000000000000000e+00 0.0000000000000000e+00 0.0000000000000000e+00  0.0000000000000000e+00 0.0000000000000000e+00 0.0000000000000000e+00  0.0000000000000000e+00 0.0000000000000000e+00 0.0000000000000000e+00  0.0000000000000000e+00 0.0000000000000000e+00 0.0000000000000000e+00  0.0000000000000000e+00 0.0000000000000000e+00 0.0000000000000000e+00  0.0000000000000000e+00 0.0000000000000000e+00 0.0000000000000000e+00  0.0000000000000000e+00 0.0000000000000000e+00 0.0000000000000000e+00  0.0000000000000000e+00 0.0000000000000000e+00 0.0000000000000000e+00  0.0000000000000000e+00 0.0000000000000000e+00 0.0000000000000000e+00  0.0000000000000000e+00 0.0000000000000000e+00 0.0000000000000000e+00  0.0000000000000000e+00 0.0000000000000000e+00 0.0000000000000000e+00  0.0000000000000000e+00 0.0000000000000000e+00 0.0000000000000000e+00  0.0000000000000000e+00 0.0000000000000000e+00 0.0000000000000000e+00  0.0000000000000000e+00 0.0000000000000000e+00 0.0000000000000000e+00  0.0000000000000000e+00 0.0000000000000000e+00 0.0000000000000000e+00  0.0000000000000000e+00 0.0000000000000000e+00 0.0000000000000000e+00  0.0000000000000000e+00 0.0000000000000000e+00 0.0000000000000000e+00  0.0000000000000000e+00 0.0000000000000000e+00 0.0000000000000000e+00  0.0000000000000000e+00 0.0000000000000000e+00 0.0000000000000000e+00  0.0000000000000000e+00 0.0000000000000000e+00 0.0000000000000000e+00  0.0000000000000000e+00 0.0000000000000000e+00 0.0000000000000000e+00  0.0000000000000000e+00 0.0000000000000000e+00 0.0000000000000000e+00  0.0000000000000000e+00 0.0000000000000000e+00 0.0000000000000000e+00  0.0000000000000000e+00 0.0000000000000000e+00 0.0000000000000000e+00  0.0000000000000000e+00 0.0000000000000000e+00 0.0000000000000000e+00  0.0000000000000000e+00 0.0000000000000000e+00 0.0000000000000000e+00  0.0000000000000000e+00 0.0000000000000000e+00 0.0000000000000000e+00  0.0000000000000000e+00 0.0000000000000000e+00 0.0000000000000000e+00  0.0000000000000000e+00 0.0000000000000000e+00 0.0000000000000000e+00  0.0000000000000000e+00 0.0000000000000000e+00 0.0000000000000000e+00  0.0000000000000000e+00 0.0000000000000000e+00 0.0000000000000000e+00  0.0000000000000000e+00 0.0000000000000000e+00 0.0000000000000000e+00  0.0000000000000000e+00 0.0000000000000000e+00 0.0000000000000000e+00  0.0000000000000000e+00 0.0000000000000000e+00 0.0000000000000000e+00  0.0000000000000000e+00 0.0000000000000000e+00 0.0000000000000000e+00  0.0000000000000000e+00 0.0000000000000000e+00 0.0000000000000000e+00  0.0000000000000000e+00 0.0000000000000000e+00 0.0000000000000000e+00  0.0000000000000000e+00 0.0000000000000000e+00 0.0000000000000000e+00  0.0000000000000000e+00 0.0000000000000000e+00 0.0000000000000000e+00  0.0000000000000000e+00 0.0000000000000000e+00 0.0000000000000000e+00  0.0000000000000000e+00 0.0000000000000000e+00 0.0000000000000000e+00  0.0000000000000000e+00 0.0000000000000000e+00 0.0000000000000000e+00  0.0000000000000000e+00 0.0000000000000000e+00 0.0000000000000000e+00  0.0000000000000000e+00 0.0000000000000000e+00 0.0000000000000000e+00  0.0000000000000000e+00 0.0000000000000000e+00 0.0000000000000000e+00  0.0000000000000000e+00 0.0000000000000000e+00 0.0000000000000000e+00  0.0000000000000000e+00 0.0000000000000000e+00 0.0000000000000000e+00  0.0000000000000000e+00 0.0000000000000000e+00 0.0000000000000000e+00  0.0000000000000000e+00 0.0000000000000000e+00 0.0000000000000000e+00  0.0000000000000000e+00 0.0000000000000000e+00 0.0000000000000000e+00  0.0000000000000000e+00 0.0000000000000000e+00 0.0000000000000000e+00  0.0000000000000000e+00 0.0000000000000000e+00 0.0000000000000000e+00  0.0000000000000000e+00 0.0000000000000000e+00 0.0000000000000000e+00  0.0000000000000000e+00 0.0000000000000000e+00 0.0000000000000000e+00  0.0000000000000000e+00 0.0000000000000000e+00 0.0000000000000000e+00  -5.6845553745785140e-06 5.6831060123993092e-06 0.0000000000000000e+00  -1.2032622063841890e-05 1.2155416490856859e-05 0.0000000000000000e+00  -1.7627205295444062e-05 2.2465420498190913e-05 0.0000000000000000e+00  -2.3560623286873128e-05 3.6856338477325724e-05 0.0000000000000000e+00  -2.8483842617151009e-05 5.4559316369906120e-05 0.0000000000000000e+00  -3.3882842515099040e-05 7.5881743934358575e-05 0.0000000000000000e+00  -3.8200020620766982e-05 9.9802463025706187e-05 0.0000000000000000e+00  -4.2280334848328551e-05 1.2707735632725838e-04 0.0000000000000000e+00  -4.6803841986849111e-05 1.5683282107718631e-04 0.0000000000000000e+00  -5.0209627605866955e-05 1.8908549773774967e-04 0.0000000000000000e+00  -5.4170499606122509e-05 2.2376343108720633e-04 0.0000000000000000e+00  -5.7105633198148465e-05 2.6054470800748129e-04 0.0000000000000000e+00  -6.0385878082758751e-05 2.9932939909338462e-04 0.0000000000000000e+00  -6.2944407356822779e-05 3.3966320659349435e-04 0.0000000000000000e+00  -6.5308330496676242e-05 3.8183449964782442e-04 0.0000000000000000e+00  -6.7841166199991069e-05 4.2533264888198059e-04 0.0000000000000000e+00  -6.9712985591174794e-05 4.7010579169584729e-04 0.0000000000000000e+00  -7.1786050112328316e-05 5.1609883533771056e-04 0.0000000000000000e+00  -7.3294411428959905e-05 5.6305617040797206e-04 0.0000000000000000e+00  -7.4925156125969281e-05 6.1092295053464434e-04 0.0000000000000000e+00  -7.6172532204086426e-05 6.5955068988582573e-04 0.0000000000000000e+00  -7.7422830898693238e-05 7.0889948968627593e-04 0.0000000000000000e+00  -7.8398592056642824e-05 7.5872572559012880e-04 0.0000000000000000e+00  -7.9257699020724690e-05 8.0913062288587398e-04 0.0000000000000000e+00  -8.0119988457661801e-05 8.5990577636123246e-04 0.0000000000000000e+00  -8.0788944299520048e-05 9.1106125540025846e-04 0.0000000000000000e+00  -8.1396033275505782e-05 9.6254991466118071e-04 0.0000000000000000e+00  -8.1892192101929736e-05 1.0142514361904862e-03 0.0000000000000000e+00  -8.2329772942089569e-05 1.0661951813918556e-03 0.0000000000000000e+00  -8.2682951351578928e-05 1.1182742463778676e-03 0.0000000000000000e+00  -8.2984903132347259e-05 1.1705087199061104e-03 0.0000000000000000e+00  -8.3221939997022421e-05 1.2228120155668718e-03 0.0000000000000000e+00  -8.3417395034797331e-05 1.2752029610316037e-03 0.0000000000000000e+00  -8.3563662807320326e-05 1.3276144914384379e-03 0.0000000000000000e+00  -8.3675238655528216e-05 1.3800680395979360e-03 0.0000000000000000e+00  -8.3757689762617484e-05 1.4325175913634486e-03 0.0000000000000000e+00  -8.3817392669281504e-05 1.4849771823187258e-03 0.0000000000000000e+00  -8.3860766289075718e-05 1.5374233465183847e-03 0.0000000000000000e+00  -8.3889857985620291e-05 1.5898654649659234e-03 0.0000000000000000e+00  -8.3912955276932473e-05 1.6422960116066908e-03 0.0000000000000000e+00  -8.3930673104750029e-05 1.6947183719515364e-03 0.0000000000000000e+00  -8.3949299631142331e-05 1.7471362784413215e-03 0.0000000000000000e+00  -8.3964374815143696e-05 1.7995561597665783e-03 0.0000000000000000e+00  -8.3982089830754729e-05 1.8519797501313205e-03 0.0000000000000000e+00  -8.4001492652961853e-05 1.9044164422218736e-03 0.0000000000000000e+00  -8.4015394158117604e-05 1.9568621413188986e-03 0.0000000000000000e+00  -4.8935960141696473e-05 2.0093188105725708e-03 0.0000000000000000e+00  2.1310962579091824e-05 2.0093497851772181e-03 0.0000000000000000e+00  5.6475293445884512e-05 1.9568752244632152e-03 0.0000000000000000e+00  5.6472531616684055e-05 1.9044119680504878e-03 0.0000000000000000e+00  5.6477556599147843e-05 1.8519637668875069e-03 0.0000000000000000e+00  5.6484970629497414e-05 1.7995206105581854e-03 0.0000000000000000e+00  5.6498124431081297e-05 1.7470790711345849e-03 0.0000000000000000e+00  5.6523242891742148e-05 1.6946347529849990e-03 0.0000000000000000e+00  5.6555706212623668e-05 1.6421834642465604e-03 0.0000000000000000e+00  5.6596595748112942e-05 1.5897237305884965e-03 0.0000000000000000e+00  5.6644610651992759e-05 1.5372508033489178e-03 0.0000000000000000e+00  5.6697688758457152e-05 1.4847647813041116e-03 0.0000000000000000e+00  5.6751862988971116e-05 1.4322698382204326e-03 0.0000000000000000e+00  5.6810660689307828e-05 1.3797717431681610e-03 0.0000000000000000e+00  5.6857669756153574e-05 1.3272802051590136e-03 0.0000000000000000e+00  5.6908197214004802e-05 1.2748119744723971e-03 0.0000000000000000e+00  5.6924512382104497e-05 1.2223804224862239e-03 0.0000000000000000e+00  5.6948795166935604e-05 1.1700164244101028e-03 0.0000000000000000e+00  5.6910345657514319e-05 1.1177382723552179e-03 0.0000000000000000e+00  5.6890446772084293e-05 1.0655901340876146e-03 0.0000000000000000e+00  5.6773147782721302e-05 1.0135972391665119e-03 0.0000000000000000e+00  5.6690872809702782e-05 9.6181596693437283e-04 0.0000000000000000e+00  5.6463694880785533e-05 9.1027614996345941e-04 0.0000000000000000e+00  5.6292712303776695e-05 8.5904915294005100e-04 0.0000000000000000e+00  5.5930747049266064e-05 8.0818119629197805e-04 0.0000000000000000e+00  5.5612374661445174e-05 7.5770175583631167e-04 0.0000000000000000e+00  5.5231190855111582e-05 7.0780280798704717e-04 0.0000000000000000e+00  5.4622085863759990e-05 6.5835577145252828e-04 0.0000000000000000e+00  5.4012111848136930e-05 6.0966417210432428e-04 0.0000000000000000e+00  5.3184197770410431e-05 5.6168341076272710e-04 0.0000000000000000e+00  5.2316865735437249e-05 5.1464922159312801e-04 0.0000000000000000e+00  5.1196010883705676e-05 4.6857103726625544e-04 0.0000000000000000e+00  5.0029467650874153e-05 4.2364566914914582e-04 0.0000000000000000e+00  4.8405959665703100e-05 3.8014466536282100e-04 0.0000000000000000e+00  4.6960650303681921e-05 3.3785539900156353e-04 0.0000000000000000e+00  4.5360089785368857e-05 2.9745585002841421e-04 0.0000000000000000e+00  4.3164972335780809e-05 2.5844498223603110e-04 0.0000000000000000e+00  4.1030043483216856e-05 2.2163352750422143e-04 0.0000000000000000e+00  3.8456418484045932e-05 1.8684493467721218e-04 0.0000000000000000e+00  3.5897060065569338e-05 1.5438307625767722e-04 0.0000000000000000e+00  3.2583793630523153e-05 1.2468030491147907e-04 0.0000000000000000e+00  2.9689347416192911e-05 9.7261640638140426e-05 0.0000000000000000e+00  2.6615019654878611e-05 7.3252357090670492e-05 0.0000000000000000e+00  2.2561188020171209e-05 5.1740302965484178e-05 0.0000000000000000e+00  1.8811954143045552e-05 3.3871067385337708e-05 0.0000000000000000e+00  1.4159285265302890e-05 1.9588148631952814e-05 0.0000000000000000e+00  9.9389531202308997e-06 9.2070609873857095e-06 0.0000000000000000e+00  4.7191862910191421e-06 2.8563115083629815e-06 0.0000000000000000e+00  -5.8460441911297717e-07 4.6117965335233178e-06 0.0000000000000000e+00  -1.4692982136698906e-05 1.9305172320956410e-03 0.0000000000000000e+00  -1.5203720612544749e-05 1.8302899897319287e-03 0.0000000000000000e+00  -1.4495839200514372e-05 1.6665885051139534e-03 0.0000000000000000e+00  -1.9790471605905747e-06 2.5306382447119016e-05 0.0000000000000000e+00  -1.3642520874662379e-05 1.5635700251210383e-03 0.0000000000000000e+00  -2.8987214070524238e-06 5.9488286048549800e-05 0.0000000000000000e+00  -1.3544093700177091e-05 1.4586298509122891e-03 0.0000000000000000e+00  -4.5935356104687179e-06 1.3989421730615004e-04 0.0000000000000000e+00  -6.2114301778659506e-06 2.0360874761073751e-04 0.0000000000000000e+00  -1.3402205857720691e-05 1.3536649631907221e-03 0.0000000000000000e+00  -7.8929434328471069e-06 4.0347127232054272e-04 0.0000000000000000e+00  -1.2955927435684567e-05 1.1440417607569190e-03 0.0000000000000000e+00  -6.5412533209553596e-06 2.7427288249369270e-04 0.0000000000000000e+00  -9.4930099078063551e-06 4.9150639500281264e-04 0.0000000000000000e+00  -1.2640503119196271e-05 1.0397585207616074e-03 0.0000000000000000e+00  -1.3208114189540522e-05 1.2487525221287188e-03 0.0000000000000000e+00  -1.0255370277648110e-05 5.8566370462290196e-04 0.0000000000000000e+00  -1.2252213632839873e-05 9.3620325269475220e-04 0.0000000000000000e+00  -1.0048589831131163e-05 6.7912757246996463e-04 0.0000000000000000e+00  -1.2665764375113384e-05 8.3585313446317042e-04 0.0000000000000000e+00  -1.1335394009491297e-05 7.5384774497323521e-04 0.0000000000000000e+00  -8.0271059296864766e-06 3.3436671362079180e-04 0.0000000000000000e+00  -1.3615134209081327e-05 1.7516973043070329e-03 0.0000000000000000e+00  -4.1389679669403672e-06 9.5023955719146619e-05 0.0000000000000000e+00  9.7158906740298192e-06 1.8800364942358238e-03 0.0000000000000000e+00  3.5602659585879425e-06 1.2712215070237569e-05 0.0000000000000000e+00  6.8361080691599317e-06 1.5110779045880529e-03 0.0000000000000000e+00  6.7513267489456794e-06 1.6160030594502954e-03 0.0000000000000000e+00  -1.0823171988499010e-05 4.2243499590530873e-05 0.0000000000000000e+00  -1.8145690682975697e-05 1.7047812318972191e-04 0.0000000000000000e+00  7.2728789938940032e-06 1.1963015037540106e-03 0.0000000000000000e+00  6.9523694532276534e-06 1.4061094877066401e-03 0.0000000000000000e+00  -2.6446184067068181e-05 4.4630713858802035e-04 0.0000000000000000e+00  7.4624157026265972e-06 1.0917611697634313e-03 0.0000000000000000e+00  -2.0886778322422188e-05 2.3999240917228271e-04 0.0000000000000000e+00  -2.8081772329374877e-05 5.3841178806002992e-04 0.0000000000000000e+00  7.6619239864312734e-06 9.8778986252150516e-04 0.0000000000000000e+00  7.1000798574440105e-06 1.3011465942937592e-03 0.0000000000000000e+00  -3.3604247563802200e-05 6.3379455082607130e-04 0.0000000000000000e+00  7.8676229223846129e-06 8.8472096353746452e-04 0.0000000000000000e+00  -1.0028974983841675e-06 1.3646089816620557e-06 0.0000000000000000e+00  7.2247327467706488e-07 6.2206025990376498e-07 0.0000000000000000e+00  -3.0883399539547838e-05 1.9717753161522240e-03 0.0000000000000000e+00  -6.6747815267280555e-06 1.3898231208758668e-05 0.0000000000000000e+00  1.2648200403634295e-05 7.9426433936489571e-04 0.0000000000000000e