<?xml version="1.0"?>
<VTKFile type="UnstructuredGrid"  version="0.1"  >
<UnstructuredGrid>
<Piece  NumberOfPoints="1419" NumberOfCells="2698">
<Points>
<DataArray  type="Float64"  NumberOfComponents="3"  format="ascii">0 0 0  0 0.41 0  2.5 0 0  2.5 0.41 0  0.6 0.19 0  0.6 0.21 0  0.25 0.2 0  0.15 0.2 0  0.2489897948556636 0.21 0  0.2489897948556636 0.19 0  0.6 0.2 0  0 0.3807142857143437 0  0 0.3514285714286952 0  0 0.3221428571430699 0  0 0.29285714285744 0  0 0.2635714285718054 0  0 0.2342857142861561 0  0 0.2050000000005308 0  0 0.175714285714732 0  0 0.1464285714289574 0  0 0.1171428571431897 0  0 0.08785714285737878 0  0 0.05857142857161107 0  0 0.02928571428580012 0  0.03015443760436003 0 0  0.06140001986583606 0 0  0.09377624077125973 0 0  0.1273239957535082 0 0  0.1620856860351972 0 0  0.1981052433264291 0 0  0.235428184091502 0 0  0.2741016576309132 0 0  0.3141745521465447 0 0  0.3556974926295285 0 0  0.3987229542472677 0 0  0.4433053055141081 0 0  0.4895008759286886 0 0  0.5373680609405097 0 0  0.5869673343216626 0 0  0.6383613676634521 0 0  0.6916151138468254 0 0  0.7467958595648856 0 0  0.8039733463919316 0 0  0.8632198139502143 0 0  0.9246101326867038 0 0  0.9882218810934433 0 0  1.054135445558498 0 0  1.122434100542598 0 0  1.193204177141305 0 0  1.266535089879536 0 0  1.342519516046404 0 0  1.421253448503939 0 0  1.502836389106271 0 0  1.587371439758838 0 0  1.674965418777374 0 0  1.765729001825544 0 0  1.859776908880082 0 0  1.957227977487062 0 0  2.058205329869943 0 0  2.162836591189951 0 0  2.271253957290865 0 0  2.383594446803425 0 0  2.5 0.1024999999997612 0  2.5 0.2049999999994743 0  2.5 0.3074999999997183 0  2.383594446803656 0.41 0  2.271253957291315 0.41 0  2.162836591190598 0.41 0  2.058205329870775 0.41 0  1.957227977488067 0.41 0  1.859776908881246 0.41 0  1.765729001826854 0.41 0  1.674965418778818 0.41 0  1.58737143976041 0.41 0  1.502836389107956 0.41 0  1.421253448505726 0.41 0  1.342519516048286 0.41 0  1.266535089881505 0.41 0  1.193204177143353 0.41 0  1.122434100544716 0.41 0  1.05413544556068 0.41 0  0.9882218810956305 0.41 0  0.9246101326886647 0.41 0  0.8632198139519631 0.41 0  0.8039733463934788 0.41 0  0.7467958595662458 0.41 0  0.6916151138480078 0.41 0  0.6383613676644679 0.41 0  0.5869673343225223 0.41 0  0.5373680609412221 0.41 0  0.4895008759292634 0.41 0  0.4433053055145528 0.41 0  0.3987229542475914 0.41 0  0.3556974926297398 0.41 0  0.3141745521466497 0.41 0  0.2741016576310038 0.41 0  0.2354281840915826 0.41 0  0.1981052433265003 0.41 0  0.1620856860352591 0.41 0  0.1273239957535623 0.41 0  0.09377624077128965 0.41 0  0.06140001986584975 0.41 0  0.03015443760436654 0.41 0  0.2497468076502589 0.2050254481002335 0  0.2497468076502614 0.1949745518997913 0  0.2469965252529372 0.1829317073451959 0  0.2439893735792749 0.1762316384219906 0  0.2400332147834255 0.1700443375285386 0  0.2352133972704371 0.1645032867342007 0  0.2296339016332438 0.1597280261969788 0  0.2234150974217223 0.1558215752574715 0  0.2166911463437691 0.1528682099456123 0  0.2096071079204251 0.1509316448471593 0  0.2023158100364996 0.1500536585536553 0  0.194974551899914 0.1502531923497262 0  0.1877417105387872 0.1515259415822739 0  0.1807733240461124 0.153844448527136 0  0.1742197252835808 0.15715869474974 0  0.1682222986673531 0.1613971801805478 0  0.162910430003803 0.1664684656256651 0  0.1583987151779087 0.1722631454351573 0  0.1547844879126891 0.178656207771761 0  0.1521457199348551 0.1855097315605723 0  0.1505393388476355 0.1926758619366523 0  0.1505393388476328 0.2073241380633295 0  0.1521457199348437 0.2144902684393899 0  0.1547844879126531 0.221343792228163 0  0.1583987151778488 0.2277368545647528 0  0.1629104300036858 0.2335315343742052 0  0.1682222986671726 0.2386028198193036 0  0.1742197252833576 0.2428413052501257 0  0.1807733240458683 0.2461555514727623 0  0.1877417105384929 0.2484740584176516 0  0.1949745518995776 0.2497468076502398 0  0.202315810036185 0.2499463414463592 0  0.2096071079201568 0.2490683551528932 0  0.2166911463435495 0.2471317900544655 0  0.2234150974215506 0.2441784247426195 0  0.2296339016331197 0.2402719738031125 0  0.2352133972703547 0.2354967132658811 0  0.2400332147833751 0.2299556624715287 0  0.2439893735792577 0.2237683615780412 0  0.246996525252926 0.2170682926548348 0  0.25645809709277 0.21 0  0.2639263993298655 0.21 0  0.271394701566961 0.21 0  0.2788630038040554 0.21 0  0.2863313060411479 0.21 0  0.2937996082782405 0.21 0  0.301267910515333 0.21 0  0.3087362127524279 0.21 0  0.3162045149895234 0.21 0  0.3236728172265972 0.21 0  0.3311411194636928 0.21 0  0.3386094217007701 0.21 0  0.3460777239378666 0.21 0  0.3535460261749672 0.21 0  0.3610143284120516 0.21 0  0.3684826306491596 0.21 0  0.3759509328862226 0.21 0  0.383419235123329 0.21 0  0.3908875373604028 0.21 0  0.3983558395975142 0.21 0  0.4058241418345938 0.21 0  0.4132924440716992 0.21 0  0.4207607463087888 0.21 0  0.4282290485459029 0.21 0  0.4356973507830418 0.21 0  0.4431656530201649 0.21 0  0.4506339552573136 0.21 0  0.4581022574944306 0.21 0  0.4655705597315852 0.21 0  0.4730388619686996 0.21 0  0.480507164205851 0.21 0  0.4879754664429498 0.21 0  0.4954437686800938 0.21 0  0.502912070917267 0.21 0  0.5103803731544119 0.21 0  0.5178486753915261 0.21 0  0.5253169776286404 0.21 0  0.5327852798657868 0.21 0  0.5402535821029386 0.21 0  0.54772188434007 0.21 0  0.5551901865771842 0.21 0  0.5626584888143201 0.21 0  0.5701267910514778 0.21 0  0.5775950932886138 0.21 0  0.5850633955257281 0.21 0  0.5925316977628483 0.21 0  0.6 0.2050000000000054 0  0.6 0.1950000000000217 0  0.5925316977628897 0.19 0  0.5850633955257988 0.19 0  0.5775950932887378 0.19 0  0.5701267910515998 0.19 0  0.5626584888145268 0.19 0  0.5551901865773963 0.19 0  0.547721884340339 0.19 0  0.5402535821032429 0.19 0  0.5327852798661811 0.19 0  0.5253169776290537 0.19 0  0.5178486753919799 0.19 0  0.5103803731549078 0.19 0  0.502912070917822 0.19 0  0.4954437686807294 0.19 0  0.4879754664436223 0.19 0  0.4805071642065402 0.19 0  0.4730388619694271 0.19 0  0.4655705597323621 0.19 0  0.4581022574952563 0.19 0  0.4506339552581777 0.19 0  0.4431656530210671 0.19 0  0.4356973507839815 0.19 0  0.4282290485468779 0.19 0  0.4207607463097617 0.19 0  0.4132924440726327 0.19 0  0.4058241418354857 0.19 0  0.3983558395983636 0.19 0  0.3908875373612097 0.19 0  0.3834192351240934 0.19 0  0.3759509328869369 0.19 0  0.3684826306498175 0.19 0  0.361014328412667 0.19 0  0.3535460261755617 0.19 0  0.3460777239384295 0.19 0  0.3386094217012945 0.19 0  0.3311411194641595 0.19 0  0.3236728172270245 0.19 0  0.3162045149898895 0.19 0  0.3087362127527544 0.19 0  0.3012679105156187 0.19 0  0.2937996082784807 0.19 0  0.2863313060413428 0.19 0  0.2788630038042048 0.19 0  0.2713947015670686 0.19 0  0.2639263993299336 0.19 0  0.2564580970927985 0.19 0  0.2607803159922026 0.2000727136295815 0  0.5887803774232762 0.2001272386983733 0  0.5745072403740523 0.2002044435018727 0  0.5511891430099709 0.2001122610077113 0  0.2751288526855082 0.20000000000002 0  0.5365194309847112 0.1999999999999436 0  0.2894621222999649 0.1998691686390484 0  0.5215828265105155 0.1999999999999228 0  0.3127789816668748 0.1998657885438805 0  0.3274069683451451 0.2000000000000796 0  0.5066462220363641 0.199999999999908 0  0.3650630746574081 0.199866017807523 0  0.476773013087985 0.1999999999998713 0  0.3417402379596385 0.1998691686391011 0  0.3796850840047755 0.200000000000134 0  0.4618364086138087 0.1999999999998546 0  0.4917096175621762 0.1999999999998808 0  0.3946216884789568 0.2000000000001512 0  0.446899804139621 0.1999999999998389 0  0.4089549580935208 0.1998691686391595 0  0.4322718174608562 0.200127451265745 0  0.4201487168029707 0.1999966199048527 0  0.3528922713220932 0.2000185703532356 0  0.5633122436674589 0.1999814296467508 0  0.3006558810093873 0.1999966199048318 0  0.5815926498168407 0.1966545283159175 0  0.2677053789419034 0.1964246479135325 0  0.5290511287476175 0.1970915826863981 0  0.5439877332217911 0.197091582686394 0  0.2825131256993216 0.2035478995978015 0  0.3199386661080599 0.202908417313604 0  0.4842413153250809 0.1970915826863873 0  0.5141145242734466 0.1970915826863843 0  0.3722167817676917 0.2029084173136195 0  0.4693047108508938 0.1970915826863783 0  0.3348752705822316 0.202908417313609 0  0.3871533862418661 0.2029084173136212 0  0.4543681063767183 0.1970915826863795 0  0.4991779197992749 0.1970915826863902 0  0.4020059614928624 0.203547899597858 0  0.4394315019025246 0.1970915826863714 0  0.2550657455369551 0.2034088125358657 0  0.2548908499171161 0.1966940311614271 0  0.5946539510196798 0.2024302972968126 0  0.267698176732111 0.2039977513680092 0  0.4261685417851465 0.196409292431739 0  0.3590076176283495 0.196411355804271 0  0.5571672426447437 0.2036011176410121 0  0.3066757059912147 0.1964092924317024 0  0.594380730180568 0.1966558399668133 0  0.4842413153245942 0.2040749161535287 0  0.4693047108503577 0.2040749161535231 0  0.3871533862424271 0.1959250838464788 0  0.372246743208829 0.1959123236376545 0  0.5141145242731028 0.2040749161535395 0  0.4543681063761134 0.2040749161535186 0  0.4019979587101454 0.1959834479682427 0  0.4394608940728603 0.2040870543693135 0  0.5439623148931173 0.2040856076781014 0  0.5290511287473298 0.2040749161535501 0  0.4991779197988497 0.2040749161535382 0  0.3347912413592433 0.1959225448935183 0  0.3199680582793816 0.1959123018030061 0  0.2825051229162361 0.1959834479681729 0  0.3590471196690275 0.2036304442587945 0  0.5571594006495384 0.1963685282145804 0  0.3067669986803285 0.203627750582736 0  0.4262598344738712 0.2036568242185335 0  0.5814408164431408 0.2041285596160068 0  0.5688286748170428 0.1961819304477386 0  0.4145905603063645 0.2038180695522843 0  0.3473758401724931 0.2038180695522752 0  0.2950977245128307 0.2038180695522663 0  0.5688286748170693 0.203818069552238 0  0.2950977245127906 0.1961819304477774 0  0.3473758401723931 0.1961819304478349 0  0.4145905603061963 0.1961819304479011 0  0.2601812407614425 0.2056861609747042
[...]
<PointData  Vectors="f_40-1"> 
<DataArray  type="Float64"  Name="f_40-1"  NumberOfComponents="3" format="ascii">0.0000000000000000e+00 0.0000000000000000e+00 0.0000000000000000e+00  0.0000000000000000e+00 0.0000000000000000e+00 0.0000000000000000e+00  0.0000000000000000e+00 0.0000000000000000e+00 0.0000000000000000e+00  0.0000000000000000e+00 0.0000000000000000e+00 0.0000000000000000e+00  5.3513732594507086e-05 2.3583054400861479e-03 0.0000000000000000e+00  -1.0315861945092472e-04 2.3567725305660130e-03 0.0000000000000000e+00  0.0000000000000000e+00 0.0000000000000000e+00 0.0000000000000000e+00  0.0000000000000000e+00 0.0000000000000000e+00 0.0000000000000000e+00  0.0000000000000000e+00 0.0000000000000000e+00 0.0000000000000000e+00  0.0000000000000000e+00 0.0000000000000000e+00 0.0000000000000000e+00  -2.5011560489741989e-05 2.3575376822873250e-03 0.0000000000000000e+00  0.0000000000000000e+00 0.0000000000000000e+00 0.0000000000000000e+00  0.0000000000000000e+00 0.0000000000000000e+00 0.0000000000000000e+00  0.0000000000000000e+00 0.0000000000000000e+00 0.0000000000000000e+00  0.0000000000000000e+00 0.0000000000000000e+00 0.0000000000000000e+00  0.0000000000000000e+00 0.0000000000000000e+00 0.0000000000000000e+00  0.0000000000000000e+00 0.0000000000000000e+00 0.0000000000000000e+00  0.0000000000000000e+00 0.0000000000000000e+00 0.0000000000000000e+00  0.0000000000000000e+00 0.0000000000000000e+00 0.0000000000000000e+00  0.0000000000000000e+00 0.0000000000000000e+00 0.0000000000000000e+00  0.0000000000000000e+00 0.0000000000000000e+00 0.0000000000000000e+00  0.0000000000000000e+00 0.0000000000000000e+00 0.0000000000000000e+00  0.0000000000000000e+00 0.0000000000000000e+00 0.0000000000000000e+00  0.0000000000000000e+00 0.0000000000000000e+00 0.0000000000000000e+00  0.0000000000000000e+00 0.0000000000000000e+00 0.0000000000000000e+00  0.0000000000000000e+00 0.0000000000000000e+00 0.0000000000000000e+00  0.0000000000000000e+00 0.0000000000000000e+00 0.0000000000000000e+00  0.0000000000000000e+00 0.0000000000000000e+00 0.0000000000000000e+00  0.0000000000000000e+00 0.0000000000000000e+00 0.0000000000000000e+00  0.0000000000000000e+00 0.0000000000000000e+00 0.0000000000000000e+00  0.0000000000000000e+00 0.0000000000000000e+00 0.0000000000000000e+00  0.0000000000000000e+00 0.0000000000000000e+00 0.0000000000000000e+00  0.0000000000000000e+00 0.0000000000000000e+00 0.0000000000000000e+00  0.0000000000000000e+00 0.0000000000000000e+00 0.0000000000000000e+00  0.0000000000000000e+00 0.0000000000000000e+00 0.0000000000000000e+00  0.0000000000000000e+00 0.0000000000000000e+00 0.0000000000000000e+00  0.0000000000000000e+00 0.0000000000000000e+00 0.0000000000000000e+00  0.0000000000000000e+00 0.0000000000000000e+00 0.0000000000000000e+00  0.0000000000000000e+00 0.0000000000000000e+00 0.0000000000000000e+00  0.0000000000000000e+00 0.0000000000000000e+00 0.0000000000000000e+00  0.0000000000000000e+00 0.0000000000000000e+00 0.0000000000000000e+00  0.0000000000000000e+00 0.0000000000000000e+00 0.0000000000000000e+00  0.0000000000000000e+00 0.0000000000000000e+00 0.0000000000000000e+00  0.0000000000000000e+00 0.0000000000000000e+00 0.0000000000000000e+00  0.0000000000000000e+00 0.0000000000000000e+00 0.0000000000000000e+00  0.0000000000000000e+00 0.0000000000000000e+00 0.0000000000000000e+00  0.0000000000000000e+00 0.0000000000000000e+00 0.0000000000000000e+00  0.0000000000000000e+00 0.0000000000000000e+00 0.0000000000000000e+00  0.0000000000000000e+00 0.0000000000000000e+00 0.0000000000000000e+00  0.0000000000000000e+00 0.0000000000000000e+00 0.0000000000000000e+00  0.0000000000000000e+00 0.0000000000000000e+00 0.0000000000000000e+00  0.0000000000000000e+00 0.0000000000000000e+00 0.0000000000000000e+00  0.0000000000000000e+00 0.0000000000000000e+00 0.0000000000000000e+00  0.0000000000000000e+00 0.0000000000000000e+00 0.0000000000000000e+00  0.0000000000000000e+00 0.0000000000000000e+00 0.0000000000000000e+00  0.0000000000000000e+00 0.0000000000000000e+00 0.0000000000000000e+00  0.0000000000000000e+00 0.0000000000000000e+00 0.0000000000000000e+00  0.0000000000000000e+00 0.0000000000000000e+00 0.0000000000000000e+00  0.0000000000000000e+00 0.0000000000000000e+00 0.0000000000000000e+00  0.0000000000000000e+00 0.0000000000000000e+00 0.0000000000000000e+00  0.0000000000000000e+00 0.0000000000000000e+00 0.0000000000000000e+00  0.0000000000000000e+00 0.0000000000000000e+00 0.0000000000000000e+00  0.0000000000000000e+00 0.0000000000000000e+00 0.0000000000000000e+00  0.0000000000000000e+00 0.0000000000000000e+00 0.0000000000000000e+00  0.0000000000000000e+00 0.0000000000000000e+00 0.0000000000000000e+00  0.0000000000000000e+00 0.0000000000000000e+00 0.0000000000000000e+00  0.0000000000000000e+00 0.0000000000000000e+00 0.0000000000000000e+00  0.0000000000000000e+00 0.0000000000000000e+00 0.0000000000000000e+00  0.0000000000000000e+00 0.0000000000000000e+00 0.0000000000000000e+00  0.0000000000000000e+00 0.0000000000000000e+00 0.0000000000000000e+00  0.0000000000000000e+00 0.0000000000000000e+00 0.0000000000000000e+00  0.0000000000000000e+00 0.0000000000000000e+00 0.0000000000000000e+00  0.0000000000000000e+00 0.0000000000000000e+00 0.0000000000000000e+00  0.0000000000000000e+00 0.0000000000000000e+00 0.0000000000000000e+00  0.0000000000000000e+00 0.0000000000000000e+00 0.0000000000000000e+00  0.0000000000000000e+00 0.0000000000000000e+00 0.0000000000000000e+00  0.0000000000000000e+00 0.0000000000000000e+00 0.0000000000000000e+00  0.0000000000000000e+00 0.0000000000000000e+00 0.0000000000000000e+00  0.0000000000000000e+00 0.0000000000000000e+00 0.0000000000000000e+00  0.0000000000000000e+00 0.0000000000000000e+00 0.0000000000000000e+00  0.0000000000000000e+00 0.0000000000000000e+00 0.0000000000000000e+00  0.0000000000000000e+00 0.0000000000000000e+00 0.0000000000000000e+00  0.0000000000000000e+00 0.0000000000000000e+00 0.0000000000000000e+00  0.0000000000000000e+00 0.0000000000000000e+00 0.0000000000000000e+00  0.0000000000000000e+00 0.0000000000000000e+00 0.0000000000000000e+00  0.0000000000000000e+00 0.0000000000000000e+00 0.0000000000000000e+00  0.0000000000000000e+00 0.0000000000000000e+00 0.0000000000000000e+00  0.0000000000000000e+00 0.0000000000000000e+00 0.0000000000000000e+00  0.0000000000000000e+00 0.0000000000000000e+00 0.0000000000000000e+00  0.0000000000000000e+00 0.0000000000000000e+00 0.0000000000000000e+00  0.0000000000000000e+00 0.0000000000000000e+00 0.0000000000000000e+00  0.0000000000000000e+00 0.0000000000000000e+00 0.0000000000000000e+00  0.0000000000000000e+00 0.0000000000000000e+00 0.0000000000000000e+00  0.0000000000000000e+00 0.0000000000000000e+00 0.0000000000000000e+00  0.0000000000000000e+00 0.0000000000000000e+00 0.0000000000000000e+00  0.0000000000000000e+00 0.0000000000000000e+00 0.0000000000000000e+00  0.0000000000000000e+00 0.0000000000000000e+00 0.0000000000000000e+00  0.0000000000000000e+00 0.0000000000000000e+00 0.0000000000000000e+00  0.0000000000000000e+00 0.0000000000000000e+00 0.0000000000000000e+00  0.0000000000000000e+00 0.0000000000000000e+00 0.0000000000000000e+00  0.0000000000000000e+00 0.0000000000000000e+00 0.0000000000000000e+00  0.0000000000000000e+00 0.0000000000000000e+00 0.0000000000000000e+00  0.0000000000000000e+00 0.0000000000000000e+00 0.0000000000000000e+00  0.0000000000000000e+00 0.0000000000000000e+00 0.0000000000000000e+00  0.0000000000000000e+00 0.0000000000000000e+00 0.0000000000000000e+00  0.0000000000000000e+00 0.0000000000000000e+00 0.0000000000000000e+00  0.0000000000000000e+00 0.0000000000000000e+00 0.0000000000000000e+00  0.0000000000000000e+00 0.0000000000000000e+00 0.0000000000000000e+00  0.0000000000000000e+00 0.0000000000000000e+00 0.0000000000000000e+00  0.0000000000000000e+00 0.0000000000000000e+00 0.0000000000000000e+00  0.0000000000000000e+00 0.0000000000000000e+00 0.0000000000000000e+00  0.0000000000000000e+00 0.0000000000000000e+00 0.0000000000000000e+00  0.0000000000000000e+00 0.0000000000000000e+00 0.0000000000000000e+00  0.0000000000000000e+00 0.0000000000000000e+00 0.0000000000000000e+00  0.0000000000000000e+00 0.0000000000000000e+00 0.0000000000000000e+00  0.0000000000000000e+00 0.0000000000000000e+00 0.0000000000000000e+00  0.0000000000000000e+00 0.0000000000000000e+00 0.0000000000000000e+00  0.0000000000000000e+00 0.0000000000000000e+00 0.0000000000000000e+00  0.0000000000000000e+00 0.0000000000000000e+00 0.0000000000000000e+00  0.0000000000000000e+00 0.0000000000000000e+00 0.0000000000000000e+00  0.0000000000000000e+00 0.0000000000000000e+00 0.0000000000000000e+00  0.0000000000000000e+00 0.0000000000000000e+00 0.0000000000000000e+00  0.0000000000000000e+00 0.0000000000000000e+00 0.0000000000000000e+00  0.0000000000000000e+00 0.0000000000000000e+00 0.0000000000000000e+00  0.0000000000000000e+00 0.0000000000000000e+00 0.0000000000000000e+00  0.0000000000000000e+00 0.0000000000000000e+00 0.0000000000000000e+00  0.0000000000000000e+00 0.0000000000000000e+00 0.0000000000000000e+00  0.0000000000000000e+00 0.0000000000000000e+00 0.0000000000000000e+00  0.0000000000000000e+00 0.0000000000000000e+00 0.0000000000000000e+00  0.0000000000000000e+00 0.0000000000000000e+00 0.0000000000000000e+00  0.0000000000000000e+00 0.0000000000000000e+00 0.0000000000000000e+00  0.0000000000000000e+00 0.0000000000000000e+00 0.0000000000000000e+00  0.0000000000000000e+00 0.0000000000000000e+00 0.0000000000000000e+00  0.0000000000000000e+00 0.0000000000000000e+00 0.0000000000000000e+00  0.0000000000000000e+00 0.0000000000000000e+00 0.0000000000000000e+00  0.0000000000000000e+00 0.0000000000000000e+00 0.0000000000000000e+00  0.0000000000000000e+00 0.0000000000000000e+00 0.0000000000000000e+00  0.0000000000000000e+00 0.0000000000000000e+00 0.0000000000000000e+00  0.0000000000000000e+00 0.0000000000000000e+00 0.0000000000000000e+00  0.0000000000000000e+00 0.0000000000000000e+00 0.0000000000000000e+00  0.0000000000000000e+00 0.0000000000000000e+00 0.0000000000000000e+00  0.0000000000000000e+00 0.0000000000000000e+00 0.0000000000000000e+00  0.0000000000000000e+00 0.0000000000000000e+00 0.0000000000000000e+00  -7.6781040841138152e-06 6.4772396592621486e-06 0.0000000000000000e+00  -1.6108850767117358e-05 1.5198141312880655e-05 0.0000000000000000e+00  -2.3385023505576301e-05 2.9012471267672313e-05 0.0000000000000000e+00  -3.0979323125150744e-05 4.8190341144569880e-05 0.0000000000000000e+00  -3.7187957122360793e-05 7.1568682860685738e-05 0.0000000000000000e+00  -4.3912685469580513e-05 9.9504918891920333e-05 0.0000000000000000e+00  -4.9228627283555316e-05 1.3065035879415701e-04 0.0000000000000000e+00  -5.4192397318572308e-05 1.6588431175168259e-04 0.0000000000000000e+00  -5.9622363971447714e-05 2.0408547408534407e-04 0.0000000000000000e+00  -6.3662784010265049e-05 2.4521159703187273e-04 0.0000000000000000e+00  -6.8280673758912232e-05 2.8914015455843274e-04 0.0000000000000000e+00  -7.1673352293526941e-05 3.3542215149186678e-04 0.0000000000000000e+00  -7.5383298985544554e-05 3.8391246004067963e-04 0.0000000000000000e+00  -7.8258603045780204e-05 4.3406053470162993e-04 0.0000000000000000e+00  -8.0875935247020440e-05 4.8612892032865368e-04 0.0000000000000000e+00  -8.3609728870494699e-05 5.3953997802404707e-04 0.0000000000000000e+00  -8.5627454557303092e-05 5.9419196742256425e-04 0.0000000000000000e+00  -8.7778727291842215e-05 6.5000408905551820e-04 0.0000000000000000e+00  -8.9356329470077661e-05 7.0666452021372244e-04 0.0000000000000000e+00  -9.0982392850987747e-05 7.6411451779804195e-04 0.0000000000000000e+00  -9.2235092357923569e-05 8.2215182681422009e-04 0.0000000000000000e+00  -9.3422842104121096e-05 8.8072396676820675e-04 0.0000000000000000e+00  -9.4372171901588515e-05 9.3960273119467023e-04 0.0000000000000000e+00  -9.5190289278916483e-05 9.9881850947294328e-04 0.0000000000000000e+00  -9.5957810246537361e-05 1.0582198826303978e-03 0.0000000000000000e+00  -9.6569382547004074e-05 1.1177577345619267e-03 0.0000000000000000e+00  -9.7102460651815405e-05 1.1774054229806621e-03 0.0000000000000000e+00  -9.7554395605793317e-05 1.2370491443336915e-03 0.0000000000000000e+00  -9.7940846668895286e-05 1.2967112488161021e-03 0.0000000000000000e+00  -9.8279459859200848e-05 1.3563104819976667e-03 0.0000000000000000e+00  -9.8568440022336881e-05 1.4158584872124931e-03 0.0000000000000000e+00  -9.8833621066306111e-05 1.4753050434319944e-03 0.0000000000000000e+00  -9.9066627416576080e-05 1.5346577284163765e-03 0.0000000000000000e+00  -9.9292403173005897e-05 1.5938922564254607e-03 0.0000000000000000e+00  -9.9499164695710145e-05 1.6530169513138920e-03 0.0000000000000000e+00  -9.9717918399093734e-05 1.7120322353213467e-03 0.0000000000000000e+00  -9.9932681847914194e-05 1.7709372157690391e-03 0.0000000000000000e+00  -1.0016938478832277e-04 1.8297536025663316e-03 0.0000000000000000e+00  -1.0041240051987839e-04 1.8884753578979254e-03 0.0000000000000000e+00  -1.0068500695252439e-04 1.9471391890045647e-03 0.0000000000000000e+00  -1.0097399324921355e-04 2.0057304927608424e-03 0.0000000000000000e+00  -1.0129571948188585e-04 2.0642908581240409e-03 0.0000000000000000e+00  -1.0164051909294328e-04 2.1228162400711752e-03 0.0000000000000000e+00  -1.0199947394405169e-04 2.1813289078604528e-03 0.0000000000000000e+00  -1.0239287701012513e-04 2.2398441968846791e-03 0.0000000000000000e+00  -1.0279206867072369e-04 2.2983428896248092e-03 0.0000000000000000e+00  -6.4145156912876427e-05 2.3571562942525993e-03 0.0000000000000000e+00  1.4191058128853448e-05 2.3579165661161291e-03 0.0000000000000000e+00  5.3881256449020495e-05 2.2997308649435090e-03 0.0000000000000000e+00  5.4294104220782651e-05 2.2412441159108580e-03 0.0000000000000000e+00  5.4710506947808842e-05 2.1827678042322905e-03 0.0000000000000000e+00  5.5125176757810142e-05 2.1242701659786420e-03 0.0000000000000000e+00  5.5539090176560173e-05 2.0657543281584136e-03 0.0000000000000000e+00  5.5960491915208735e-05 2.0072000336249329e-03 0.0000000000000000e+00  5.6401810322720705e-05 1.9486007609990257e-03 0.0000000000000000e+00  5.6836597640444860e-05 1.8899434597329688e-03 0.0000000000000000e+00  5.7306070625756406e-05 1.8312059913560383e-03 0.0000000000000000e+00  5.7760785287318472e-05 1.7723819349210776e-03 0.0000000000000000e+00  5.8257421357713309e-05 1.7134560719846844e-03 0.0000000000000000e+00  5.8732734597230450e-05 1.6544224719779179e-03 0.0000000000000000e+00  5.9250253355684234e-05 1.5952730755668207e-03 0.0000000000000000e+00  5.9736699786052224e-05 1.5360096143676590e-03 0.0000000000000000e+00  6.0254045341113299e-05 1.4766286915786019e-03 0.0000000000000000e+00  6.0734134543029575e-05 1.4171460481572666e-03 0.0000000000000000e+00  6.1224962281303220e-05 1.3575651433927346e-03 0.0000000000000000e+00  6.1678013713983062e-05 1.2979178918722961e-03 0.0000000000000000e+00  6.2111175332523350e-05 1.2382170206481191e-03 0.0000000000000000e+00  6.2511213057153054e-05 1.1785126538349348e-03 0.0000000000000000e+00  6.2843381930829785e-05 1.1188232845701297e-03 0.0000000000000000e+00  6.3154017956785539e-05 1.0592228599075003e-03 0.0000000000000000e+00  6.3333644131260779e-05 9.9975179136048225e-04 0.0000000000000000e+00  6.3490376795709533e-05 9.4046900688057173e-04 0.0000000000000000e+00  6.3564350043364781e-05 8.8152457277551144e-04 0.0000000000000000e+00  6.3437059140849874e-05 8.2286660706256591e-04 0.0000000000000000e+00  6.3244218481648740e-05 7.6476910453106436e-04 0.0000000000000000e+00  6.2818043474930410e-05 7.0721266097631158e-04 0.0000000000000000e+00  6.2296574923579286e-05 6.5048084901453147e-04 0.0000000000000000e+00  6.1483013789803291e-05 5.9457943192065237e-04 0.0000000000000000e+00  6.0564335697264344e-05 5.3977864917175106e-04 0.0000000000000000e+00  5.9116170495472986e-05 4.8636039052272183e-04 0.0000000000000000e+00  5.7791997854508145e-05 4.3417231928395109e-04 0.0000000000000000e+00  5.6238272483070950e-05 3.8395818873534441e-04 0.0000000000000000e+00  5.3983923837721446e-05 3.3521990479588095e-04 0.0000000000000000e+00  5.1708377727922020e-05 2.8891260121494583e-04 0.0000000000000000e+00  4.8858360326784949e-05 2.4485343056214215e-04 0.0000000000000000e+00  4.5943496605859954e-05 2.0349335605059982e-04 0.0000000000000000e+00  4.2037444045831833e-05 1.6535787028286385e-04 0.0000000000000000e+00  3.8557844300408975e-05 1.2996171216997205e-04 0.0000000000000000e+00  3.4769152897715388e-05 9.8718088926087549e-05 0.0000000000000000e+00  2.9685441498820871e-05 7.0551999815162488e-05 0.0000000000000000e+00  2.4871177138936707e-05 4.6991218258669430e-05 0.0000000000000000e+00  1.8811268700758248e-05 2.7982380241570927e-05 0.0000000000000000e+00  1.3242003361534896e-05 1.4030652240002299e-05 0.0000000000000000e+00  6.3156642131358760e-06 5.2751560665026001e-06 0.0000000000000000e+00  -1.0632132791905479e-06 6.4557531631366405e-06 0.0000000000000000e+00  -2.5329179933264707e-05 2.2696514782247958e-03 0.0000000000000000e+00  -2.5126969376811792e-05 2.1578590265780608e-03 0.0000000000000000e+00  -2.3227062507829390e-05 1.9751073830489648e-03 0.0000000000000000e+00  -2.5814670491752007e-06 3.4313860473314287e-05 0.0000000000000000e+00  -2.1643372167448598e-05 1.8599044874029044e-03 0.0000000000000000e+00  -3.6451289146968516e-06 7.9526948669149432e-05 0.0000000000000000e+00  -2.0938134838323678e-05 1.7422764931913301e-03 0.0000000000000000e+00  -5.7517052062080897e-06 1.8382803466936658e-04 0.0000000000000000e+00  -7.8358607660132696e-06 2.6505781788546884e-04 0.0000000000000000e+00  -2.0227903924099994e-05 1.6242331122165278e-03 0.0000000000000000e+00  -1.0251637200811803e-05 5.1411171444553435e-04 0.0000000000000000e+00  -1.8739831218537690e-05 1.3867721903859506e-03 0.0000000000000000e+00  -8.3306126542881681e-06 3.5404132641723339e-04 0.0000000000000000e+00  -1.2409546474738915e-05 6.2152397887946470e-04 0.0000000000000000e+00  -1.7940082019690750e-05 1.2674842349870744e-03 0.0000000000000000e+00  -1.9498847871117437e-05 1.5057248933454750e-03 0.0000000000000000e+00  -1.3574521519692158e-05 7.3513040170393180e-04 0.0000000000000000e+00  -1.7086965845522442e-05 1.1480697246979438e-03 0.0000000000000000e+00  -1.3605443983512159e-05 8.4670566314050996e-04 0.0000000000000000e+00  -1.7204899696499701e-05 1.0313029328912874e-03 0.0000000000000000e+00  -1.5370689342802177e-05 9.3503201820534763e-04 0.0000000000000000e+00  -1.0281424089404946e-05 4.2881290896745988e-04 0.0000000000000000e+00  -2.2809396870784217e-05 2.0701638855686205e-03 0.0000000000000000e+00  -5.1982318841516804e-06 1.2585578635634158e-04 0.0000000000000000e+00  2.3002050862112577e-06 2.2135990131033714e-03 0.0000000000000000e+00  4.6432934311485667e-06 1.7955641567873978e-05 0.0000000000000000e+00  1.6291230012609875e-06 1.8013404088313317e-03 0.0000000000000000e+00  8.6102018021431366e-07 1.9187977580465976e-03 0.0000000000000000e+00  -1.4113834943231492e-05 5.6295737314323056e-05 0.0000000000000000e+00  -2.2999268458319893e-05 2.2255655394486345e-04 0.0000000000000000e+00  4.0266840989034763e-06 1.4464828464235259e-03 0.0000000000000000e+00  2.4098292999587582e-06 1.6835081468774156e-03 0.0000000000000000e+00  -3.2978382725023211e-05 5.6616429639118934e-04 0.0000000000000000e+00  4.8561580156353916e-06 1.3273354714129291e-03 0.0000000000000000e+00  -2.6316599893894834e-05 3.1062388062014223e-04 0.0000000000000000e+00  -3.4951389325861017e-05 6.7792706069898700e-04 0.0000000000000000e+00  5.6906271786088688e-06 1.2079449304656135e-03 0.0000000000000000e+00  3.2094714618600824e-06 1.5652281095185044e-03 0.0000000000000000e+00  -4.1578389249790949e-05 7.9231023257036797e-04 0.0000000000000000e+00  6.5187768341036216e-06 1.0885721400607775e-03 0.0000000000000000e+00  -1.6274299206716020e-06 1.6489680795246401e-06 0.0000000000000000e+00  6.8271281227635206e-07 1.2421567115105605e-06 0.0000000000000000e+00  -4.3722260122678232e-05 2.3154948829201549e-03 0.0000000000000000e+00  -8.9488271926773716e-06 1.8428559143553236e-05 0.0000000000000000e+00  1.2642335161034392e-05 9.8293675017772767e-04 0.0000000000000000e