<?xml version="1.0"?>
<VTKFile type="UnstructuredGrid"  version="0.1"  >
<UnstructuredGrid>
<Piece  NumberOfPoints="1419" NumberOfCells="2698">
<Points>
<DataArray  type="Float64"  NumberOfComponents="3"  format="ascii">0 0 0  0 0.41 0  2.5 0 0  2.5 0.41 0  0.6 0.19 0  0.6 0.21 0  0.25 0.2 0  0.15 0.2 0  0.2489897948556636 0.21 0  0.2489897948556636 0.19 0  0.6 0.2 0  0 0.3807142857143437 0  0 0.3514285714286952 0  0 0.3221428571430699 0  0 0.29285714285744 0  0 0.2635714285718054 0  0 0.2342857142861561 0  0 0.2050000000005308 0  0 0.175714285714732 0  0 0.1464285714289574 0  0 0.1171428571431897 0  0 0.08785714285737878 0  0 0.05857142857161107 0  0 0.02928571428580012 0  0.03015443760436003 0 0  0.06140001986583606 0 0  0.09377624077125973 0 0  0.1273239957535082 0 0  0.1620856860351972 0 0  0.1981052433264291 0 0  0.235428184091502 0 0  0.2741016576309132 0 0  0.3141745521465447 0 0  0.3556974926295285 0 0  0.3987229542472677 0 0  0.4433053055141081 0 0  0.4895008759286886 0 0  0.5373680609405097 0 0  0.5869673343216626 0 0  0.6383613676634521 0 0  0.6916151138468254 0 0  0.7467958595648856 0 0  0.8039733463919316 0 0  0.8632198139502143 0 0  0.9246101326867038 0 0  0.9882218810934433 0 0  1.054135445558498 0 0  1.122434100542598 0 0  1.193204177141305 0 0  1.266535089879536 0 0  1.342519516046404 0 0  1.421253448503939 0 0  1.502836389106271 0 0  1.587371439758838 0 0  1.674965418777374 0 0  1.765729001825544 0 0  1.859776908880082 0 0  1.957227977487062 0 0  2.058205329869943 0 0  2.162836591189951 0 0  2.271253957290865 0 0  2.383594446803425 0 0  2.5 0.1024999999997612 0  2.5 0.2049999999994743 0  2.5 0.3074999999997183 0  2.383594446803656 0.41 0  2.271253957291315 0.41 0  2.162836591190598 0.41 0  2.058205329870775 0.41 0  1.957227977488067 0.41 0  1.859776908881246 0.41 0  1.765729001826854 0.41 0  1.674965418778818 0.41 0  1.58737143976041 0.41 0  1.502836389107956 0.41 0  1.421253448505726 0.41 0  1.342519516048286 0.41 0  1.266535089881505 0.41 0  1.193204177143353 0.41 0  1.122434100544716 0.41 0  1.05413544556068 0.41 0  0.9882218810956305 0.41 0  0.9246101326886647 0.41 0  0.8632198139519631 0.41 0  0.8039733463934788 0.41 0  0.7467958595662458 0.41 0  0.6916151138480078 0.41 0  0.6383613676644679 0.41 0  0.5869673343225223 0.41 0  0.5373680609412221 0.41 0  0.4895008759292634 0.41 0  0.4433053055145528 0.41 0  0.3987229542475914 0.41 0  0.3556974926297398 0.41 0  0.3141745521466497 0.41 0  0.2741016576310038 0.41 0  0.2354281840915826 0.41 0  0.1981052433265003 0.41 0  0.1620856860352591 0.41 0  0.1273239957535623 0.41 0  0.09377624077128965 0.41 0  0.06140001986584975 0.41 0  0.03015443760436654 0.41 0  0.2497468076502589 0.2050254481002335 0  0.2497468076502614 0.1949745518997913 0  0.2469965252529372 0.1829317073451959 0  0.2439893735792749 0.1762316384219906 0  0.2400332147834255 0.1700443375285386 0  0.2352133972704371 0.1645032867342007 0  0.2296339016332438 0.1597280261969788 0  0.2234150974217223 0.1558215752574715 0  0.2166911463437691 0.1528682099456123 0  0.2096071079204251 0.1509316448471593 0  0.2023158100364996 0.1500536585536553 0  0.194974551899914 0.1502531923497262 0  0.1877417105387872 0.1515259415822739 0  0.1807733240461124 0.153844448527136 0  0.1742197252835808 0.15715869474974 0  0.1682222986673531 0.1613971801805478 0  0.162910430003803 0.1664684656256651 0  0.1583987151779087 0.1722631454351573 0  0.1547844879126891 0.178656207771761 0  0.1521457199348551 0.1855097315605723 0  0.1505393388476355 0.1926758619366523 0  0.1505393388476328 0.2073241380633295 0  0.1521457199348437 0.2144902684393899 0  0.1547844879126531 0.221343792228163 0  0.1583987151778488 0.2277368545647528 0  0.1629104300036858 0.2335315343742052 0  0.1682222986671726 0.2386028198193036 0  0.1742197252833576 0.2428413052501257 0  0.1807733240458683 0.2461555514727623 0  0.1877417105384929 0.2484740584176516 0  0.1949745518995776 0.2497468076502398 0  0.202315810036185 0.2499463414463592 0  0.2096071079201568 0.2490683551528932 0  0.2166911463435495 0.2471317900544655 0  0.2234150974215506 0.2441784247426195 0  0.2296339016331197 0.2402719738031125 0  0.2352133972703547 0.2354967132658811 0  0.2400332147833751 0.2299556624715287 0  0.2439893735792577 0.2237683615780412 0  0.246996525252926 0.2170682926548348 0  0.25645809709277 0.21 0  0.2639263993298655 0.21 0  0.271394701566961 0.21 0  0.2788630038040554 0.21 0  0.2863313060411479 0.21 0  0.2937996082782405 0.21 0  0.301267910515333 0.21 0  0.3087362127524279 0.21 0  0.3162045149895234 0.21 0  0.3236728172265972 0.21 0  0.3311411194636928 0.21 0  0.3386094217007701 0.21 0  0.3460777239378666 0.21 0  0.3535460261749672 0.21 0  0.3610143284120516 0.21 0  0.3684826306491596 0.21 0  0.3759509328862226 0.21 0  0.383419235123329 0.21 0  0.3908875373604028 0.21 0  0.3983558395975142 0.21 0  0.4058241418345938 0.21 0  0.4132924440716992 0.21 0  0.4207607463087888 0.21 0  0.4282290485459029 0.21 0  0.4356973507830418 0.21 0  0.4431656530201649 0.21 0  0.4506339552573136 0.21 0  0.4581022574944306 0.21 0  0.4655705597315852 0.21 0  0.4730388619686996 0.21 0  0.480507164205851 0.21 0  0.4879754664429498 0.21 0  0.4954437686800938 0.21 0  0.502912070917267 0.21 0  0.5103803731544119 0.21 0  0.5178486753915261 0.21 0  0.5253169776286404 0.21 0  0.5327852798657868 0.21 0  0.5402535821029386 0.21 0  0.54772188434007 0.21 0  0.5551901865771842 0.21 0  0.5626584888143201 0.21 0  0.5701267910514778 0.21 0  0.5775950932886138 0.21 0  0.5850633955257281 0.21 0  0.5925316977628483 0.21 0  0.6 0.2050000000000054 0  0.6 0.1950000000000217 0  0.5925316977628897 0.19 0  0.5850633955257988 0.19 0  0.5775950932887378 0.19 0  0.5701267910515998 0.19 0  0.5626584888145268 0.19 0  0.5551901865773963 0.19 0  0.547721884340339 0.19 0  0.5402535821032429 0.19 0  0.5327852798661811 0.19 0  0.5253169776290537 0.19 0  0.5178486753919799 0.19 0  0.5103803731549078 0.19 0  0.502912070917822 0.19 0  0.4954437686807294 0.19 0  0.4879754664436223 0.19 0  0.4805071642065402 0.19 0  0.4730388619694271 0.19 0  0.4655705597323621 0.19 0  0.4581022574952563 0.19 0  0.4506339552581777 0.19 0  0.4431656530210671 0.19 0  0.4356973507839815 0.19 0  0.4282290485468779 0.19 0  0.4207607463097617 0.19 0  0.4132924440726327 0.19 0  0.4058241418354857 0.19 0  0.3983558395983636 0.19 0  0.3908875373612097 0.19 0  0.3834192351240934 0.19 0  0.3759509328869369 0.19 0  0.3684826306498175 0.19 0  0.361014328412667 0.19 0  0.3535460261755617 0.19 0  0.3460777239384295 0.19 0  0.3386094217012945 0.19 0  0.3311411194641595 0.19 0  0.3236728172270245 0.19 0  0.3162045149898895 0.19 0  0.3087362127527544 0.19 0  0.3012679105156187 0.19 0  0.2937996082784807 0.19 0  0.2863313060413428 0.19 0  0.2788630038042048 0.19 0  0.2713947015670686 0.19 0  0.2639263993299336 0.19 0  0.2564580970927985 0.19 0  0.2607803159922026 0.2000727136295815 0  0.5887803774232762 0.2001272386983733 0  0.5745072403740523 0.2002044435018727 0  0.5511891430099709 0.2001122610077113 0  0.2751288526855082 0.20000000000002 0  0.5365194309847112 0.1999999999999436 0  0.2894621222999649 0.1998691686390484 0  0.5215828265105155 0.1999999999999228 0  0.3127789816668748 0.1998657885438805 0  0.3274069683451451 0.2000000000000796 0  0.5066462220363641 0.199999999999908 0  0.3650630746574081 0.199866017807523 0  0.476773013087985 0.1999999999998713 0  0.3417402379596385 0.1998691686391011 0  0.3796850840047755 0.200000000000134 0  0.4618364086138087 0.1999999999998546 0  0.4917096175621762 0.1999999999998808 0  0.3946216884789568 0.2000000000001512 0  0.446899804139621 0.1999999999998389 0  0.4089549580935208 0.1998691686391595 0  0.4322718174608562 0.200127451265745 0  0.4201487168029707 0.1999966199048527 0  0.3528922713220932 0.2000185703532356 0  0.5633122436674589 0.1999814296467508 0  0.3006558810093873 0.1999966199048318 0  0.5815926498168407 0.1966545283159175 0  0.2677053789419034 0.1964246479135325 0  0.5290511287476175 0.1970915826863981 0  0.5439877332217911 0.197091582686394 0  0.2825131256993216 0.2035478995978015 0  0.3199386661080599 0.202908417313604 0  0.4842413153250809 0.1970915826863873 0  0.5141145242734466 0.1970915826863843 0  0.3722167817676917 0.2029084173136195 0  0.4693047108508938 0.1970915826863783 0  0.3348752705822316 0.202908417313609 0  0.3871533862418661 0.2029084173136212 0  0.4543681063767183 0.1970915826863795 0  0.4991779197992749 0.1970915826863902 0  0.4020059614928624 0.203547899597858 0  0.4394315019025246 0.1970915826863714 0  0.2550657455369551 0.2034088125358657 0  0.2548908499171161 0.1966940311614271 0  0.5946539510196798 0.2024302972968126 0  0.267698176732111 0.2039977513680092 0  0.4261685417851465 0.196409292431739 0  0.3590076176283495 0.196411355804271 0  0.5571672426447437 0.2036011176410121 0  0.3066757059912147 0.1964092924317024 0  0.594380730180568 0.1966558399668133 0  0.4842413153245942 0.2040749161535287 0  0.4693047108503577 0.2040749161535231 0  0.3871533862424271 0.1959250838464788 0  0.372246743208829 0.1959123236376545 0  0.5141145242731028 0.2040749161535395 0  0.4543681063761134 0.2040749161535186 0  0.4019979587101454 0.1959834479682427 0  0.4394608940728603 0.2040870543693135 0  0.5439623148931173 0.2040856076781014 0  0.5290511287473298 0.2040749161535501 0  0.4991779197988497 0.2040749161535382 0  0.3347912413592433 0.1959225448935183 0  0.3199680582793816 0.1959123018030061 0  0.2825051229162361 0.1959834479681729 0  0.3590471196690275 0.2036304442587945 0  0.5571594006495384 0.1963685282145804 0  0.3067669986803285 0.203627750582736 0  0.4262598344738712 0.2036568242185335 0  0.5814408164431408 0.2041285596160068 0  0.5688286748170428 0.1961819304477386 0  0.4145905603063645 0.2038180695522843 0  0.3473758401724931 0.2038180695522752 0  0.2950977245128307 0.2038180695522663 0  0.5688286748170693 0.203818069552238 0  0.2950977245127906 0.1961819304477774 0  0.3473758401723931 0.1961819304478349 0  0.4145905603061963 0.1961819304479011 0  0.2601812407614425 0.2056861609747042
[...]
<PointData  Vectors="f_40-1"> 
<DataArray  type="Float64"  Name="f_40-1"  NumberOfComponents="3" format="ascii">0.0000000000000000e+00 0.0000000000000000e+00 0.0000000000000000e+00  0.0000000000000000e+00 0.0000000000000000e+00 0.0000000000000000e+00  0.0000000000000000e+00 0.0000000000000000e+00 0.0000000000000000e+00  0.0000000000000000e+00 0.0000000000000000e+00 0.0000000000000000e+00  7.1663303010146239e-05 2.4920334049774698e-03 0.0000000000000000e+00  -1.0427827222572957e-04 2.4917320343890333e-03 0.0000000000000000e+00  0.0000000000000000e+00 0.0000000000000000e+00 0.0000000000000000e+00  0.0000000000000000e+00 0.0000000000000000e+00 0.0000000000000000e+00  0.0000000000000000e+00 0.0000000000000000e+00 0.0000000000000000e+00  0.0000000000000000e+00 0.0000000000000000e+00 0.0000000000000000e+00  -1.6380844741630018e-05 2.4918741925903671e-03 0.0000000000000000e+00  0.0000000000000000e+00 0.0000000000000000e+00 0.0000000000000000e+00  0.0000000000000000e+00 0.0000000000000000e+00 0.0000000000000000e+00  0.0000000000000000e+00 0.0000000000000000e+00 0.0000000000000000e+00  0.0000000000000000e+00 0.0000000000000000e+00 0.0000000000000000e+00  0.0000000000000000e+00 0.0000000000000000e+00 0.0000000000000000e+00  0.0000000000000000e+00 0.0000000000000000e+00 0.0000000000000000e+00  0.0000000000000000e+00 0.0000000000000000e+00 0.0000000000000000e+00  0.0000000000000000e+00 0.0000000000000000e+00 0.0000000000000000e+00  0.0000000000000000e+00 0.0000000000000000e+00 0.0000000000000000e+00  0.0000000000000000e+00 0.0000000000000000e+00 0.0000000000000000e+00  0.0000000000000000e+00 0.0000000000000000e+00 0.0000000000000000e+00  0.0000000000000000e+00 0.0000000000000000e+00 0.0000000000000000e+00  0.0000000000000000e+00 0.0000000000000000e+00 0.0000000000000000e+00  0.0000000000000000e+00 0.0000000000000000e+00 0.0000000000000000e+00  0.0000000000000000e+00 0.0000000000000000e+00 0.0000000000000000e+00  0.0000000000000000e+00 0.0000000000000000e+00 0.0000000000000000e+00  0.0000000000000000e+00 0.0000000000000000e+00 0.0000000000000000e+00  0.0000000000000000e+00 0.0000000000000000e+00 0.0000000000000000e+00  0.0000000000000000e+00 0.0000000000000000e+00 0.0000000000000000e+00  0.0000000000000000e+00 0.0000000000000000e+00 0.0000000000000000e+00  0.0000000000000000e+00 0.0000000000000000e+00 0.0000000000000000e+00  0.0000000000000000e+00 0.0000000000000000e+00 0.0000000000000000e+00  0.0000000000000000e+00 0.0000000000000000e+00 0.0000000000000000e+00  0.0000000000000000e+00 0.0000000000000000e+00 0.0000000000000000e+00  0.0000000000000000e+00 0.0000000000000000e+00 0.0000000000000000e+00  0.0000000000000000e+00 0.0000000000000000e+00 0.0000000000000000e+00  0.0000000000000000e+00 0.0000000000000000e+00 0.0000000000000000e+00  0.0000000000000000e+00 0.0000000000000000e+00 0.0000000000000000e+00  0.0000000000000000e+00 0.0000000000000000e+00 0.0000000000000000e+00  0.0000000000000000e+00 0.0000000000000000e+00 0.0000000000000000e+00  0.0000000000000000e+00 0.0000000000000000e+00 0.0000000000000000e+00  0.0000000000000000e+00 0.0000000000000000e+00 0.0000000000000000e+00  0.0000000000000000e+00 0.0000000000000000e+00 0.0000000000000000e+00  0.0000000000000000e+00 0.0000000000000000e+00 0.0000000000000000e+00  0.0000000000000000e+00 0.0000000000000000e+00 0.0000000000000000e+00  0.0000000000000000e+00 0.0000000000000000e+00 0.0000000000000000e+00  0.0000000000000000e+00 0.0000000000000000e+00 0.0000000000000000e+00  0.0000000000000000e+00 0.0000000000000000e+00 0.0000000000000000e+00  0.0000000000000000e+00 0.0000000000000000e+00 0.0000000000000000e+00  0.0000000000000000e+00 0.0000000000000000e+00 0.0000000000000000e+00  0.0000000000000000e+00 0.0000000000000000e+00 0.0000000000000000e+00  0.0000000000000000e+00 0.0000000000000000e+00 0.0000000000000000e+00  0.0000000000000000e+00 0.0000000000000000e+00 0.0000000000000000e+00  0.0000000000000000e+00 0.0000000000000000e+00 0.0000000000000000e+00  0.0000000000000000e+00 0.0000000000000000e+00 0.0000000000000000e+00  0.0000000000000000e+00 0.0000000000000000e+00 0.0000000000000000e+00  0.0000000000000000e+00 0.0000000000000000e+00 0.0000000000000000e+00  0.0000000000000000e+00 0.0000000000000000e+00 0.0000000000000000e+00  0.0000000000000000e+00 0.0000000000000000e+00 0.0000000000000000e+00  0.0000000000000000e+00 0.0000000000000000e+00 0.0000000000000000e+00  0.0000000000000000e+00 0.0000000000000000e+00 0.0000000000000000e+00  0.0000000000000000e+00 0.0000000000000000e+00 0.0000000000000000e+00  0.0000000000000000e+00 0.0000000000000000e+00 0.0000000000000000e+00  0.0000000000000000e+00 0.0000000000000000e+00 0.0000000000000000e+00  0.0000000000000000e+00 0.0000000000000000e+00 0.0000000000000000e+00  0.0000000000000000e+00 0.0000000000000000e+00 0.0000000000000000e+00  0.0000000000000000e+00 0.0000000000000000e+00 0.0000000000000000e+00  0.0000000000000000e+00 0.0000000000000000e+00 0.0000000000000000e+00  0.0000000000000000e+00 0.0000000000000000e+00 0.0000000000000000e+00  0.0000000000000000e+00 0.0000000000000000e+00 0.0000000000000000e+00  0.0000000000000000e+00 0.0000000000000000e+00 0.0000000000000000e+00  0.0000000000000000e+00 0.0000000000000000e+00 0.0000000000000000e+00  0.0000000000000000e+00 0.0000000000000000e+00 0.0000000000000000e+00  0.0000000000000000e+00 0.0000000000000000e+00 0.0000000000000000e+00  0.0000000000000000e+00 0.0000000000000000e+00 0.0000000000000000e+00  0.0000000000000000e+00 0.0000000000000000e+00 0.0000000000000000e+00  0.0000000000000000e+00 0.0000000000000000e+00 0.0000000000000000e+00  0.0000000000000000e+00 0.0000000000000000e+00 0.0000000000000000e+00  0.0000000000000000e+00 0.0000000000000000e+00 0.0000000000000000e+00  0.0000000000000000e+00 0.0000000000000000e+00 0.0000000000000000e+00  0.0000000000000000e+00 0.0000000000000000e+00 0.0000000000000000e+00  0.0000000000000000e+00 0.0000000000000000e+00 0.0000000000000000e+00  0.0000000000000000e+00 0.0000000000000000e+00 0.0000000000000000e+00  0.0000000000000000e+00 0.0000000000000000e+00 0.0000000000000000e+00  0.0000000000000000e+00 0.0000000000000000e+00 0.0000000000000000e+00  0.0000000000000000e+00 0.0000000000000000e+00 0.0000000000000000e+00  0.0000000000000000e+00 0.0000000000000000e+00 0.0000000000000000e+00  0.0000000000000000e+00 0.0000000000000000e+00 0.0000000000000000e+00  0.0000000000000000e+00 0.0000000000000000e+00 0.0000000000000000e+00  0.0000000000000000e+00 0.0000000000000000e+00 0.0000000000000000e+00  0.0000000000000000e+00 0.0000000000000000e+00 0.0000000000000000e+00  0.0000000000000000e+00 0.0000000000000000e+00 0.0000000000000000e+00  0.0000000000000000e+00 0.0000000000000000e+00 0.0000000000000000e+00  0.0000000000000000e+00 0.0000000000000000e+00 0.0000000000000000e+00  0.0000000000000000e+00 0.0000000000000000e+00 0.0000000000000000e+00  0.0000000000000000e+00 0.0000000000000000e+00 0.0000000000000000e+00  0.0000000000000000e+00 0.0000000000000000e+00 0.0000000000000000e+00  0.0000000000000000e+00 0.0000000000000000e+00 0.0000000000000000e+00  0.0000000000000000e+00 0.0000000000000000e+00 0.0000000000000000e+00  0.0000000000000000e+00 0.0000000000000000e+00 0.0000000000000000e+00  0.0000000000000000e+00 0.0000000000000000e+00 0.0000000000000000e+00  0.0000000000000000e+00 0.0000000000000000e+00 0.0000000000000000e+00  0.0000000000000000e+00 0.0000000000000000e+00 0.0000000000000000e+00  0.0000000000000000e+00 0.0000000000000000e+00 0.0000000000000000e+00  0.0000000000000000e+00 0.0000000000000000e+00 0.0000000000000000e+00  0.0000000000000000e+00 0.0000000000000000e+00 0.0000000000000000e+00  0.0000000000000000e+00 0.0000000000000000e+00 0.0000000000000000e+00  0.0000000000000000e+00 0.0000000000000000e+00 0.0000000000000000e+00  0.0000000000000000e+00 0.0000000000000000e+00 0.0000000000000000e+00  0.0000000000000000e+00 0.0000000000000000e+00 0.0000000000000000e+00  0.0000000000000000e+00 0.0000000000000000e+00 0.0000000000000000e+00  0.0000000000000000e+00 0.0000000000000000e+00 0.0000000000000000e+00  0.0000000000000000e+00 0.0000000000000000e+00 0.0000000000000000e+00  0.0000000000000000e+00 0.0000000000000000e+00 0.0000000000000000e+00  0.0000000000000000e+00 0.0000000000000000e+00 0.0000000000000000e+00  0.0000000000000000e+00 0.0000000000000000e+00 0.0000000000000000e+00  0.0000000000000000e+00 0.0000000000000000e+00 0.0000000000000000e+00  0.0000000000000000e+00 0.0000000000000000e+00 0.0000000000000000e+00  0.0000000000000000e+00 0.0000000000000000e+00 0.0000000000000000e+00  0.0000000000000000e+00 0.0000000000000000e+00 0.0000000000000000e+00  0.0000000000000000e+00 0.0000000000000000e+00 0.0000000000000000e+00  0.0000000000000000e+00 0.0000000000000000e+00 0.0000000000000000e+00  0.0000000000000000e+00 0.0000000000000000e+00 0.0000000000000000e+00  0.0000000000000000e+00 0.0000000000000000e+00 0.0000000000000000e+00  0.0000000000000000e+00 0.0000000000000000e+00 0.0000000000000000e+00  0.0000000000000000e+00 0.0000000000000000e+00 0.0000000000000000e+00  0.0000000000000000e+00 0.0000000000000000e+00 0.0000000000000000e+00  0.0000000000000000e+00 0.0000000000000000e+00 0.0000000000000000e+00  0.0000000000000000e+00 0.0000000000000000e+00 0.0000000000000000e+00  0.0000000000000000e+00 0.0000000000000000e+00 0.0000000000000000e+00  0.0000000000000000e+00 0.0000000000000000e+00 0.0000000000000000e+00  0.0000000000000000e+00 0.0000000000000000e+00 0.0000000000000000e+00  0.0000000000000000e+00 0.0000000000000000e+00 0.0000000000000000e+00  0.0000000000000000e+00 0.0000000000000000e+00 0.0000000000000000e+00  0.0000000000000000e+00 0.0000000000000000e+00 0.0000000000000000e+00  0.0000000000000000e+00 0.0000000000000000e+00 0.0000000000000000e+00  0.0000000000000000e+00 0.0000000000000000e+00 0.0000000000000000e+00  0.0000000000000000e+00 0.0000000000000000e+00 0.0000000000000000e+00  0.0000000000000000e+00 0.0000000000000000e+00 0.0000000000000000e+00  0.0000000000000000e+00 0.0000000000000000e+00 0.0000000000000000e+00  0.0000000000000000e+00 0.0000000000000000e+00 0.0000000000000000e+00  0.0000000000000000e+00 0.0000000000000000e+00 0.0000000000000000e+00  -6.7646347674479771e-06 6.6023740554886475e-06 0.0000000000000000e+00  -1.4331193137331863e-05 1.4417140957178253e-05 0.0000000000000000e+00  -2.0980308204776481e-05 2.6914619793528126e-05 0.0000000000000000e+00  -2.8050756898852264e-05 4.4379634606781048e-05 0.0000000000000000e+00  -3.3904040400192028e-05 6.5887370842789231e-05 0.0000000000000000e+00  -4.0360236190151923e-05 9.1808657288681910e-05 0.0000000000000000e+00  -4.5509116147291235e-05 1.2091099752916324e-04 0.0000000000000000e+00  -5.0389664637126431e-05 1.5412617932943762e-04 0.0000000000000000e+00  -5.5834213674811888e-05 1.9038847125938077e-04 0.0000000000000000e+00  -5.9924801580516275e-05 2.2973390102666157e-04 0.0000000000000000e+00  -6.4725250835890945e-05 2.7207137802273625e-04 0.0000000000000000e+00  -6.8276374232920431e-05 3.1702810827233149e-04 0.0000000000000000e+00  -7.2284176387056939e-05 3.6447869989383836e-04 0.0000000000000000e+00  -7.5409963032172639e-05 4.1387158479215790e-04 0.0000000000000000e+00  -7.8317489414334149e-05 4.6558041969885396e-04 0.0000000000000000e+00  -8.1462228912285286e-05 5.1896882278392093e-04 0.0000000000000000e+00  -8.3792242581054284e-05 5.7399266982558535e-04 0.0000000000000000e+00  -8.6407347262704257e-05 6.3057911650140350e-04 0.0000000000000000e+00  -8.8316427937252027e-05 6.8843130658833153e-04 0.0000000000000000e+00  -9.0410768635662453e-05 7.4746929898075938e-04 0.0000000000000000e+00  -9.2024027608935400e-05 8.0752970168251729e-04 0.0000000000000000e+00  -9.3668576856339712e-05 8.6855540370625790e-04 0.0000000000000000e+00  -9.4959673644308586e-05 9.3023400729145070e-04 0.0000000000000000e+00  -9.6115368224775118e-05 9.9271195702613202e-04 0.0000000000000000e+00  -9.7293215170574709e-05 1.0557036756851114e-03 0.0000000000000000e+00  -9.8223579843230815e-05 1.1192409148968021e-03 0.0000000000000000e+00  -9.9085658750229188e-05 1.1832485701036403e-03 0.0000000000000000e+00  -9.9805682868665582e-05 1.2475794230934255e-03 0.0000000000000000e+00  -1.0045942306375275e-04 1.3122634215731810e-03 0.0000000000000000e+00  -1.0100350254626531e-04 1.3771653209356716e-03 0.0000000000000000e+00  -1.0148863209428925e-04 1.4423065107944085e-03 0.0000000000000000e+00  -1.0188846882666375e-04 1.5075761989012258e-03 0.0000000000000000e+00  -1.0223955202644376e-04 1.5729943267062069e-03 0.0000000000000000e+00  -1.0252548818441151e-04 1.6384741669691132e-03 0.0000000000000000e+00  -1.0277040021419671e-04 1.7040381443003648e-03 0.0000000000000000e+00  -1.0297422671136879e-04 1.7696248434677481e-03 0.0000000000000000e+00  -1.0315007039275796e-04 1.8352490703674989e-03 0.0000000000000000e+00  -1.0330103298740193e-04 1.9008759224916625e-03 0.0000000000000000e+00  -1.0343369497089901e-04 1.9665154205506905e-03 0.0000000000000000e+00  -1.0355470414271468e-04 2.0321520476961640e-03 0.0000000000000000e+00  -1.0366785223426528e-04 2.0977901552070074e-03 0.0000000000000000e+00  -1.0377803860419784e-04 2.1634273855170067e-03 0.0000000000000000e+00  -1.0388258564812850e-04 2.2290711529638482e-03 0.0000000000000000e+00  -1.0398928211500536e-04 2.2947204635358478e-03 0.0000000000000000e+00  -1.0409605301168823e-04 2.3603848149773457e-03 0.0000000000000000e+00  -1.0419664254935672e-04 2.4260593737521854e-03 0.0000000000000000e+00  -6.0346576923696067e-05 2.4918025329997862e-03 0.0000000000000000e+00  2.7614080196467306e-05 2.4919484401958740e-03 0.0000000000000000e+00  7.1721151240095629e-05 2.4263009682307982e-03 0.0000000000000000e+00  7.1801969175349715e-05 2.3606087721624491e-03 0.0000000000000000e+00  7.1890059503958582e-05 2.2949331573919414e-03 0.0000000000000000e+00  7.1978411530294889e-05 2.2292641670063583e-03 0.0000000000000000e+00  7.2071818291928936e-05 2.1635986048819471e-03 0.0000000000000000e+00  7.2175026994607293e-05 2.0979345824133429e-03 0.0000000000000000e+00  7.2281049564221632e-05 2.0322679182477378e-03 0.0000000000000000e+00  7.2394559458686245e-05 1.9666012892095679e-03 0.0000000000000000e+00  7.2506205582627866e-05 1.9009307831785417e-03 0.0000000000000000e+00  7.2622936727975322e-05 1.8352631273622511e-03 0.0000000000000000e+00  7.2726617141874152e-05 1.7696032351631357e-03 0.0000000000000000e+00  7.2836046738961746e-05 1.7039665824109512e-03 0.0000000000000000e+00  7.2912870531792793e-05 1.6383640453599463e-03 0.0000000000000000e+00  7.2996400139576777e-05 1.5728254593301088e-03 0.0000000000000000e+00  7.3016598022501860e-05 1.5073657385403600e-03 0.0000000000000000e+00  7.3051117249848003e-05 1.4420325684605842e-03 0.0000000000000000e+00  7.2983820816298572e-05 1.3768461286560629e-03 0.0000000000000000e+00  7.2945890525992439e-05 1.3118713314565109e-03 0.0000000000000000e+00  7.2759767957628058e-05 1.2471356840098305e-03 0.0000000000000000e+00  7.2625335353353922e-05 1.1827200375864430e-03 0.0000000000000000e+00  7.2280363790765842e-05 1.1186579892220768e-03 0.0000000000000000e+00  7.2015142737543608e-05 1.0550497272961937e-03 0.0000000000000000e+00  7.1481441777379234e-05 9.9194980987939900e-04 0.0000000000000000e+00  7.1010562780499868e-05 9.2939463837443659e-04 0.0000000000000000e+00  7.0451728981499480e-05 8.6763953824691808e-04 0.0000000000000000e+00  6.9588292344958041e-05 8.0650148981996209e-04 0.0000000000000000e+00  6.8728055346891116e-05 7.4638042586049514e-04 0.0000000000000000e+00  6.7584605485404418e-05 6.8720539204823110e-04 0.0000000000000000e+00  6.6395663626731154e-05 6.2927443664962811e-04 0.0000000000000000e+00  6.4884875856754430e-05 5.7258892166978570e-04 0.0000000000000000e+00  6.3321951737851912e-05 5.1738943201058989e-04 0.0000000000000000e+00  6.1185350854509119e-05 4.6400830145456180e-04 0.0000000000000000e+00  5.9281524214392642e-05 4.1216519068309256e-04 0.0000000000000000e+00  5.7185073849635712e-05 3.6270195614610521e-04 0.0000000000000000e+00  5.4349748957393070e-05 3.1498020940222773e-04 0.0000000000000000e+00  5.1595008749909851e-05 2.7000074924614256e-04 0.0000000000000000e+00  4.8299696892214542e-05 2.2753349056563494e-04 0.0000000000000000e+00  4.5025263333006419e-05 1.8794421094627041e-04 0.0000000000000000e+00  4.0825610471987722e-05 1.5175590124808332e-04 0.0000000000000000e+00  3.7143699532335927e-05 1.1837552092119151e-04 0.0000000000000000e+00  3.3240624391969477e-05 8.9175599851991306e-05 0.0000000000000000e+00  2.8142484631326127e-05 6.3031126855412012e-05 0.0000000000000000e+00  2.3418478004012154e-05 4.1337707524558602e-05 0.0000000000000000e+00  1.7600484087244883e-05 2.4014923507568345e-05 0.0000000000000000e+00  1.2318926250910315e-05 1.1429087057657355e-05 0.0000000000000000e+00  5.8441699457088874e-06 3.7224388178227615e-06 0.0000000000000000e+00  -5.5901026207393880e-07 5.5635029862842039e-06 0.0000000000000000e+00  -1.7343923878760733e-05 2.3931815254342021e-03 0.0000000000000000e+00  -1.7828323343974635e-05 2.2676721289216200e-03 0.0000000000000000e+00  -1.6691913245224557e-05 2.0626866609074978e-03 0.0000000000000000e+00  -1.9140316809022760e-06 3.0644517410810181e-05 0.0000000000000000e+00  -1.5473808101542197e-05 1.9337241151238780e-03 0.0000000000000000e+00  -2.7460045993912859e-06 7.2150894550057718e-05 0.0000000000000000e+00  -1.5206324916731378e-05 1.8024144272364108e-03 0.0000000000000000e+00  -4.4080752254543514e-06 1.6999670247262822e-04 0.0000000000000000e+00  -6.1745223773508852e-06 2.4770023875529288e-04 0.0000000000000000e+00  -1.4896037636510219e-05 1.6711640267333960e-03 0.0000000000000000e+00  -7.8495021265300481e-06 4.9233985536523801e-04 0.0000000000000000e+00  -1.4117258264683379e-05 1.4094378286487359e-03 0.0000000000000000e+00  -6.4055043858691075e-06 3.3404778584628065e-04 0.0000000000000000e+00  -9.7257809248179627e-06 6.0051131348771406e-04 0.0000000000000000e+00  -1.3639672283455098e-05 1.2794857952383102e-03 0.0000000000000000e+00  -1.4534700861920762e-05 1.5401001220412974e-03 0.0000000000000000e+00  -1.0603716792318693e-05 7.1649267021109007e-04 0.0000000000000000e+00  -1.3092883044712853e-05 1.1506450624455709e-03 0.0000000000000000e+00  -1.0316222018985662e-05 8.3190773687937859e-04 0.0000000000000000e+00  -1.3566050917134900e-05 1.0260162811426886e-03 0.0000000000000000e+00  -1.1905267392512216e-05 9.2437461392084217e-04 0.0000000000000000e+00  -8.1160717701499104e-06 4.0761066787656946e-04 0.0000000000000000e+00  -1.5717516262022450e-05 2.1692579044986730e-03 0.0000000000000000e+00  -4.0548187896829677e-06 1.1536191619641317e-04 0.0000000000000000e+00  1.3297685598221480e-05 2.3300088438348190e-03 0.0000000000000000e+00  4.6443538303882625e-06 1.5487293249780899e-05 0.0000000000000000e+00  1.0219283011586610e-05 1.8680741088590112e-03 0.0000000000000000e+00  9.9762228939837663e-06 1.9993959657538521e-03 0.0000000000000000e+00  -1.2511480252613088e-05 5.1100229491483314e-05 0.0000000000000000e+00  -2.0838717346061928e-05 2.0720099550867153e-04 0.0000000000000000e+00  1.1071399356375383e-05 1.4746814280604266e-03 0.0000000000000000e+00  1.0486043095566223e-05 1.7367736651850549e-03 0.0000000000000000e+00  -3.0605124156479906e-05 5.4487442332535783e-04 0.0000000000000000e+00  1.1367369900219878e-05 1.3443208732797950e-03 0.0000000000000000e+00  -2.4020650418554665e-05 2.9206399287727797e-04 0.0000000000000000e+00  -3.2592100142208208e-05 6.5818926960140706e-04 0.0000000000000000e+00  1.1650154801497403e-05 1.2148600290634217e-03 0.0000000000000000e+00  1.0773434537706992e-05 1.6055860773199042e-03 0.0000000000000000e+00  -3.9417066231457458e-05 7.7581784853460699e-04 0.0000000000000000e+00  1.1913352286941607e-05 1.0867419850263201e-03 0.0000000000000000e+00  -1.1767627148550266e-06 1.5751570491483556e-06 0.0000000000000000e+00  9.1346302997591468e-07 8.0377351144087375e-07 0.0000000000000000e+00  -3.7681074290986408e-05 2.4448181301352434e-03 0.0000000000000000e+00  -7.7763689234380243e-06 1.6691644788926550e-05 0.0000000000000000e+00  1.7819804914092762e-05 9.7452685174616099e-04 0.0000000000000000e