<?xml version="1.0"?>
<VTKFile type="UnstructuredGrid"  version="0.1"  >
<UnstructuredGrid>
<Piece  NumberOfPoints="1419" NumberOfCells="2698">
<Points>
<DataArray  type="Float64"  NumberOfComponents="3"  format="ascii">0 0 0  0 0.41 0  2.5 0 0  2.5 0.41 0  0.6 0.19 0  0.6 0.21 0  0.25 0.2 0  0.15 0.2 0  0.2489897948556636 0.21 0  0.2489897948556636 0.19 0  0.6 0.2 0  0 0.3807142857143437 0  0 0.3514285714286952 0  0 0.3221428571430699 0  0 0.29285714285744 0  0 0.2635714285718054 0  0 0.2342857142861561 0  0 0.2050000000005308 0  0 0.175714285714732 0  0 0.1464285714289574 0  0 0.1171428571431897 0  0 0.08785714285737878 0  0 0.05857142857161107 0  0 0.02928571428580012 0  0.03015443760436003 0 0  0.06140001986583606 0 0  0.09377624077125973 0 0  0.1273239957535082 0 0  0.1620856860351972 0 0  0.1981052433264291 0 0  0.235428184091502 0 0  0.2741016576309132 0 0  0.3141745521465447 0 0  0.3556974926295285 0 0  0.3987229542472677 0 0  0.4433053055141081 0 0  0.4895008759286886 0 0  0.5373680609405097 0 0  0.5869673343216626 0 0  0.6383613676634521 0 0  0.6916151138468254 0 0  0.7467958595648856 0 0  0.8039733463919316 0 0  0.8632198139502143 0 0  0.9246101326867038 0 0  0.9882218810934433 0 0  1.054135445558498 0 0  1.122434100542598 0 0  1.193204177141305 0 0  1.266535089879536 0 0  1.342519516046404 0 0  1.421253448503939 0 0  1.502836389106271 0 0  1.587371439758838 0 0  1.674965418777374 0 0  1.765729001825544 0 0  1.859776908880082 0 0  1.957227977487062 0 0  2.058205329869943 0 0  2.162836591189951 0 0  2.271253957290865 0 0  2.383594446803425 0 0  2.5 0.1024999999997612 0  2.5 0.2049999999994743 0  2.5 0.3074999999997183 0  2.383594446803656 0.41 0  2.271253957291315 0.41 0  2.162836591190598 0.41 0  2.058205329870775 0.41 0  1.957227977488067 0.41 0  1.859776908881246 0.41 0  1.765729001826854 0.41 0  1.674965418778818 0.41 0  1.58737143976041 0.41 0  1.502836389107956 0.41 0  1.421253448505726 0.41 0  1.342519516048286 0.41 0  1.266535089881505 0.41 0  1.193204177143353 0.41 0  1.122434100544716 0.41 0  1.05413544556068 0.41 0  0.9882218810956305 0.41 0  0.9246101326886647 0.41 0  0.8632198139519631 0.41 0  0.8039733463934788 0.41 0  0.7467958595662458 0.41 0  0.6916151138480078 0.41 0  0.6383613676644679 0.41 0  0.5869673343225223 0.41 0  0.5373680609412221 0.41 0  0.4895008759292634 0.41 0  0.4433053055145528 0.41 0  0.3987229542475914 0.41 0  0.3556974926297398 0.41 0  0.3141745521466497 0.41 0  0.2741016576310038 0.41 0  0.2354281840915826 0.41 0  0.1981052433265003 0.41 0  0.1620856860352591 0.41 0  0.1273239957535623 0.41 0  0.09377624077128965 0.41 0  0.06140001986584975 0.41 0  0.03015443760436654 0.41 0  0.2497468076502589 0.2050254481002335 0  0.2497468076502614 0.1949745518997913 0  0.2469965252529372 0.1829317073451959 0  0.2439893735792749 0.1762316384219906 0  0.2400332147834255 0.1700443375285386 0  0.2352133972704371 0.1645032867342007 0  0.2296339016332438 0.1597280261969788 0  0.2234150974217223 0.1558215752574715 0  0.2166911463437691 0.1528682099456123 0  0.2096071079204251 0.1509316448471593 0  0.2023158100364996 0.1500536585536553 0  0.194974551899914 0.1502531923497262 0  0.1877417105387872 0.1515259415822739 0  0.1807733240461124 0.153844448527136 0  0.1742197252835808 0.15715869474974 0  0.1682222986673531 0.1613971801805478 0  0.162910430003803 0.1664684656256651 0  0.1583987151779087 0.1722631454351573 0  0.1547844879126891 0.178656207771761 0  0.1521457199348551 0.1855097315605723 0  0.1505393388476355 0.1926758619366523 0  0.1505393388476328 0.2073241380633295 0  0.1521457199348437 0.2144902684393899 0  0.1547844879126531 0.221343792228163 0  0.1583987151778488 0.2277368545647528 0  0.1629104300036858 0.2335315343742052 0  0.1682222986671726 0.2386028198193036 0  0.1742197252833576 0.2428413052501257 0  0.1807733240458683 0.2461555514727623 0  0.1877417105384929 0.2484740584176516 0  0.1949745518995776 0.2497468076502398 0  0.202315810036185 0.2499463414463592 0  0.2096071079201568 0.2490683551528932 0  0.2166911463435495 0.2471317900544655 0  0.2234150974215506 0.2441784247426195 0  0.2296339016331197 0.2402719738031125 0  0.2352133972703547 0.2354967132658811 0  0.2400332147833751 0.2299556624715287 0  0.2439893735792577 0.2237683615780412 0  0.246996525252926 0.2170682926548348 0  0.25645809709277 0.21 0  0.2639263993298655 0.21 0  0.271394701566961 0.21 0  0.2788630038040554 0.21 0  0.2863313060411479 0.21 0  0.2937996082782405 0.21 0  0.301267910515333 0.21 0  0.3087362127524279 0.21 0  0.3162045149895234 0.21 0  0.3236728172265972 0.21 0  0.3311411194636928 0.21 0  0.3386094217007701 0.21 0  0.3460777239378666 0.21 0  0.3535460261749672 0.21 0  0.3610143284120516 0.21 0  0.3684826306491596 0.21 0  0.3759509328862226 0.21 0  0.383419235123329 0.21 0  0.3908875373604028 0.21 0  0.3983558395975142 0.21 0  0.4058241418345938 0.21 0  0.4132924440716992 0.21 0  0.4207607463087888 0.21 0  0.4282290485459029 0.21 0  0.4356973507830418 0.21 0  0.4431656530201649 0.21 0  0.4506339552573136 0.21 0  0.4581022574944306 0.21 0  0.4655705597315852 0.21 0  0.4730388619686996 0.21 0  0.480507164205851 0.21 0  0.4879754664429498 0.21 0  0.4954437686800938 0.21 0  0.502912070917267 0.21 0  0.5103803731544119 0.21 0  0.5178486753915261 0.21 0  0.5253169776286404 0.21 0  0.5327852798657868 0.21 0  0.5402535821029386 0.21 0  0.54772188434007 0.21 0  0.5551901865771842 0.21 0  0.5626584888143201 0.21 0  0.5701267910514778 0.21 0  0.5775950932886138 0.21 0  0.5850633955257281 0.21 0  0.5925316977628483 0.21 0  0.6 0.2050000000000054 0  0.6 0.1950000000000217 0  0.5925316977628897 0.19 0  0.5850633955257988 0.19 0  0.5775950932887378 0.19 0  0.5701267910515998 0.19 0  0.5626584888145268 0.19 0  0.5551901865773963 0.19 0  0.547721884340339 0.19 0  0.5402535821032429 0.19 0  0.5327852798661811 0.19 0  0.5253169776290537 0.19 0  0.5178486753919799 0.19 0  0.5103803731549078 0.19 0  0.502912070917822 0.19 0  0.4954437686807294 0.19 0  0.4879754664436223 0.19 0  0.4805071642065402 0.19 0  0.4730388619694271 0.19 0  0.4655705597323621 0.19 0  0.4581022574952563 0.19 0  0.4506339552581777 0.19 0  0.4431656530210671 0.19 0  0.4356973507839815 0.19 0  0.4282290485468779 0.19 0  0.4207607463097617 0.19 0  0.4132924440726327 0.19 0  0.4058241418354857 0.19 0  0.3983558395983636 0.19 0  0.3908875373612097 0.19 0  0.3834192351240934 0.19 0  0.3759509328869369 0.19 0  0.3684826306498175 0.19 0  0.361014328412667 0.19 0  0.3535460261755617 0.19 0  0.3460777239384295 0.19 0  0.3386094217012945 0.19 0  0.3311411194641595 0.19 0  0.3236728172270245 0.19 0  0.3162045149898895 0.19 0  0.3087362127527544 0.19 0  0.3012679105156187 0.19 0  0.2937996082784807 0.19 0  0.2863313060413428 0.19 0  0.2788630038042048 0.19 0  0.2713947015670686 0.19 0  0.2639263993299336 0.19 0  0.2564580970927985 0.19 0  0.2607803159922026 0.2000727136295815 0  0.5887803774232762 0.2001272386983733 0  0.5745072403740523 0.2002044435018727 0  0.5511891430099709 0.2001122610077113 0  0.2751288526855082 0.20000000000002 0  0.5365194309847112 0.1999999999999436 0  0.2894621222999649 0.1998691686390484 0  0.5215828265105155 0.1999999999999228 0  0.3127789816668748 0.1998657885438805 0  0.3274069683451451 0.2000000000000796 0  0.5066462220363641 0.199999999999908 0  0.3650630746574081 0.199866017807523 0  0.476773013087985 0.1999999999998713 0  0.3417402379596385 0.1998691686391011 0  0.3796850840047755 0.200000000000134 0  0.4618364086138087 0.1999999999998546 0  0.4917096175621762 0.1999999999998808 0  0.3946216884789568 0.2000000000001512 0  0.446899804139621 0.1999999999998389 0  0.4089549580935208 0.1998691686391595 0  0.4322718174608562 0.200127451265745 0  0.4201487168029707 0.1999966199048527 0  0.3528922713220932 0.2000185703532356 0  0.5633122436674589 0.1999814296467508 0  0.3006558810093873 0.1999966199048318 0  0.5815926498168407 0.1966545283159175 0  0.2677053789419034 0.1964246479135325 0  0.5290511287476175 0.1970915826863981 0  0.5439877332217911 0.197091582686394 0  0.2825131256993216 0.2035478995978015 0  0.3199386661080599 0.202908417313604 0  0.4842413153250809 0.1970915826863873 0  0.5141145242734466 0.1970915826863843 0  0.3722167817676917 0.2029084173136195 0  0.4693047108508938 0.1970915826863783 0  0.3348752705822316 0.202908417313609 0  0.3871533862418661 0.2029084173136212 0  0.4543681063767183 0.1970915826863795 0  0.4991779197992749 0.1970915826863902 0  0.4020059614928624 0.203547899597858 0  0.4394315019025246 0.1970915826863714 0  0.2550657455369551 0.2034088125358657 0  0.2548908499171161 0.1966940311614271 0  0.5946539510196798 0.2024302972968126 0  0.267698176732111 0.2039977513680092 0  0.4261685417851465 0.196409292431739 0  0.3590076176283495 0.196411355804271 0  0.5571672426447437 0.2036011176410121 0  0.3066757059912147 0.1964092924317024 0  0.594380730180568 0.1966558399668133 0  0.4842413153245942 0.2040749161535287 0  0.4693047108503577 0.2040749161535231 0  0.3871533862424271 0.1959250838464788 0  0.372246743208829 0.1959123236376545 0  0.5141145242731028 0.2040749161535395 0  0.4543681063761134 0.2040749161535186 0  0.4019979587101454 0.1959834479682427 0  0.4394608940728603 0.2040870543693135 0  0.5439623148931173 0.2040856076781014 0  0.5290511287473298 0.2040749161535501 0  0.4991779197988497 0.2040749161535382 0  0.3347912413592433 0.1959225448935183 0  0.3199680582793816 0.1959123018030061 0  0.2825051229162361 0.1959834479681729 0  0.3590471196690275 0.2036304442587945 0  0.5571594006495384 0.1963685282145804 0  0.3067669986803285 0.203627750582736 0  0.4262598344738712 0.2036568242185335 0  0.5814408164431408 0.2041285596160068 0  0.5688286748170428 0.1961819304477386 0  0.4145905603063645 0.2038180695522843 0  0.3473758401724931 0.2038180695522752 0  0.2950977245128307 0.2038180695522663 0  0.5688286748170693 0.203818069552238 0  0.2950977245127906 0.1961819304477774 0  0.3473758401723931 0.1961819304478349 0  0.4145905603061963 0.1961819304479011 0  0.2601812407614425 0.2056861609747042
[...]
<PointData  Vectors="f_40-1"> 
<DataArray  type="Float64"  Name="f_40-1"  NumberOfComponents="3" format="ascii">0.0000000000000000e+00 0.0000000000000000e+00 0.0000000000000000e+00  0.0000000000000000e+00 0.0000000000000000e+00 0.0000000000000000e+00  0.0000000000000000e+00 0.0000000000000000e+00 0.0000000000000000e+00  0.0000000000000000e+00 0.0000000000000000e+00 0.0000000000000000e+00  -1.2569341696673007e-05 -2.2467078558564230e-04 0.0000000000000000e+00  4.8121901632391160e-06 -2.2787412894789379e-04 0.0000000000000000e+00  0.0000000000000000e+00 0.0000000000000000e+00 0.0000000000000000e+00  0.0000000000000000e+00 0.0000000000000000e+00 0.0000000000000000e+00  0.0000000000000000e+00 0.0000000000000000e+00 0.0000000000000000e+00  0.0000000000000000e+00 0.0000000000000000e+00 0.0000000000000000e+00  -4.1169244998466276e-06 -2.2627029826000679e-04 0.0000000000000000e+00  0.0000000000000000e+00 0.0000000000000000e+00 0.0000000000000000e+00  0.0000000000000000e+00 0.0000000000000000e+00 0.0000000000000000e+00  0.0000000000000000e+00 0.0000000000000000e+00 0.0000000000000000e+00  0.0000000000000000e+00 0.0000000000000000e+00 0.0000000000000000e+00  0.0000000000000000e+00 0.0000000000000000e+00 0.0000000000000000e+00  0.0000000000000000e+00 0.0000000000000000e+00 0.0000000000000000e+00  0.0000000000000000e+00 0.0000000000000000e+00 0.0000000000000000e+00  0.0000000000000000e+00 0.0000000000000000e+00 0.0000000000000000e+00  0.0000000000000000e+00 0.0000000000000000e+00 0.0000000000000000e+00  0.0000000000000000e+00 0.0000000000000000e+00 0.0000000000000000e+00  0.0000000000000000e+00 0.0000000000000000e+00 0.0000000000000000e+00  0.0000000000000000e+00 0.0000000000000000e+00 0.0000000000000000e+00  0.0000000000000000e+00 0.0000000000000000e+00 0.0000000000000000e+00  0.0000000000000000e+00 0.0000000000000000e+00 0.0000000000000000e+00  0.0000000000000000e+00 0.0000000000000000e+00 0.0000000000000000e+00  0.0000000000000000e+00 0.0000000000000000e+00 0.0000000000000000e+00  0.0000000000000000e+00 0.0000000000000000e+00 0.0000000000000000e+00  0.0000000000000000e+00 0.0000000000000000e+00 0.0000000000000000e+00  0.0000000000000000e+00 0.0000000000000000e+00 0.0000000000000000e+00  0.0000000000000000e+00 0.0000000000000000e+00 0.0000000000000000e+00  0.0000000000000000e+00 0.0000000000000000e+00 0.0000000000000000e+00  0.0000000000000000e+00 0.0000000000000000e+00 0.0000000000000000e+00  0.0000000000000000e+00 0.0000000000000000e+00 0.0000000000000000e+00  0.0000000000000000e+00 0.0000000000000000e+00 0.0000000000000000e+00  0.0000000000000000e+00 0.0000000000000000e+00 0.0000000000000000e+00  0.0000000000000000e+00 0.0000000000000000e+00 0.0000000000000000e+00  0.0000000000000000e+00 0.0000000000000000e+00 0.0000000000000000e+00  0.0000000000000000e+00 0.0000000000000000e+00 0.0000000000000000e+00  0.0000000000000000e+00 0.0000000000000000e+00 0.0000000000000000e+00  0.0000000000000000e+00 0.0000000000000000e+00 0.0000000000000000e+00  0.0000000000000000e+00 0.0000000000000000e+00 0.0000000000000000e+00  0.0000000000000000e+00 0.0000000000000000e+00 0.0000000000000000e+00  0.0000000000000000e+00 0.0000000000000000e+00 0.0000000000000000e+00  0.0000000000000000e+00 0.0000000000000000e+00 0.0000000000000000e+00  0.0000000000000000e+00 0.0000000000000000e+00 0.0000000000000000e+00  0.0000000000000000e+00 0.0000000000000000e+00 0.0000000000000000e+00  0.0000000000000000e+00 0.0000000000000000e+00 0.0000000000000000e+00  0.0000000000000000e+00 0.0000000000000000e+00 0.0000000000000000e+00  0.0000000000000000e+00 0.0000000000000000e+00 0.0000000000000000e+00  0.0000000000000000e+00 0.0000000000000000e+00 0.0000000000000000e+00  0.0000000000000000e+00 0.0000000000000000e+00 0.0000000000000000e+00  0.0000000000000000e+00 0.0000000000000000e+00 0.0000000000000000e+00  0.0000000000000000e+00 0.0000000000000000e+00 0.0000000000000000e+00  0.0000000000000000e+00 0.0000000000000000e+00 0.0000000000000000e+00  0.0000000000000000e+00 0.0000000000000000e+00 0.0000000000000000e+00  0.0000000000000000e+00 0.0000000000000000e+00 0.0000000000000000e+00  0.0000000000000000e+00 0.0000000000000000e+00 0.0000000000000000e+00  0.0000000000000000e+00 0.0000000000000000e+00 0.0000000000000000e+00  0.0000000000000000e+00 0.0000000000000000e+00 0.0000000000000000e+00  0.0000000000000000e+00 0.0000000000000000e+00 0.0000000000000000e+00  0.0000000000000000e+00 0.0000000000000000e+00 0.0000000000000000e+00  0.0000000000000000e+00 0.0000000000000000e+00 0.0000000000000000e+00  0.0000000000000000e+00 0.0000000000000000e+00 0.0000000000000000e+00  0.0000000000000000e+00 0.0000000000000000e+00 0.0000000000000000e+00  0.0000000000000000e+00 0.0000000000000000e+00 0.0000000000000000e+00  0.0000000000000000e+00 0.0000000000000000e+00 0.0000000000000000e+00  0.0000000000000000e+00 0.0000000000000000e+00 0.0000000000000000e+00  0.0000000000000000e+00 0.0000000000000000e+00 0.0000000000000000e+00  0.0000000000000000e+00 0.0000000000000000e+00 0.0000000000000000e+00  0.0000000000000000e+00 0.0000000000000000e+00 0.0000000000000000e+00  0.0000000000000000e+00 0.0000000000000000e+00 0.0000000000000000e+00  0.0000000000000000e+00 0.0000000000000000e+00 0.0000000000000000e+00  0.0000000000000000e+00 0.0000000000000000e+00 0.0000000000000000e+00  0.0000000000000000e+00 0.0000000000000000e+00 0.0000000000000000e+00  0.0000000000000000e+00 0.0000000000000000e+00 0.0000000000000000e+00  0.0000000000000000e+00 0.0000000000000000e+00 0.0000000000000000e+00  0.0000000000000000e+00 0.0000000000000000e+00 0.0000000000000000e+00  0.0000000000000000e+00 0.0000000000000000e+00 0.0000000000000000e+00  0.0000000000000000e+00 0.0000000000000000e+00 0.0000000000000000e+00  0.0000000000000000e+00 0.0000000000000000e+00 0.0000000000000000e+00  0.0000000000000000e+00 0.0000000000000000e+00 0.0000000000000000e+00  0.0000000000000000e+00 0.0000000000000000e+00 0.0000000000000000e+00  0.0000000000000000e+00 0.0000000000000000e+00 0.0000000000000000e+00  0.0000000000000000e+00 0.0000000000000000e+00 0.0000000000000000e+00  0.0000000000000000e+00 0.0000000000000000e+00 0.0000000000000000e+00  0.0000000000000000e+00 0.0000000000000000e+00 0.0000000000000000e+00  0.0000000000000000e+00 0.0000000000000000e+00 0.0000000000000000e+00  0.0000000000000000e+00 0.0000000000000000e+00 0.0000000000000000e+00  0.0000000000000000e+00 0.0000000000000000e+00 0.0000000000000000e+00  0.0000000000000000e+00 0.0000000000000000e+00 0.0000000000000000e+00  0.0000000000000000e+00 0.0000000000000000e+00 0.0000000000000000e+00  0.0000000000000000e+00 0.0000000000000000e+00 0.0000000000000000e+00  0.0000000000000000e+00 0.0000000000000000e+00 0.0000000000000000e+00  0.0000000000000000e+00 0.0000000000000000e+00 0.0000000000000000e+00  0.0000000000000000e+00 0.0000000000000000e+00 0.0000000000000000e+00  0.0000000000000000e+00 0.0000000000000000e+00 0.0000000000000000e+00  0.0000000000000000e+00 0.0000000000000000e+00 0.0000000000000000e+00  0.0000000000000000e+00 0.0000000000000000e+00 0.0000000000000000e+00  0.0000000000000000e+00 0.0000000000000000e+00 0.0000000000000000e+00  0.0000000000000000e+00 0.0000000000000000e+00 0.0000000000000000e+00  0.0000000000000000e+00 0.0000000000000000e+00 0.0000000000000000e+00  0.0000000000000000e+00 0.0000000000000000e+00 0.0000000000000000e+00  0.0000000000000000e+00 0.0000000000000000e+00 0.0000000000000000e+00  0.0000000000000000e+00 0.0000000000000000e+00 0.0000000000000000e+00  0.0000000000000000e+00 0.0000000000000000e+00 0.0000000000000000e+00  0.0000000000000000e+00 0.0000000000000000e+00 0.0000000000000000e+00  0.0000000000000000e+00 0.0000000000000000e+00 0.0000000000000000e+00  0.0000000000000000e+00 0.0000000000000000e+00 0.0000000000000000e+00  0.0000000000000000e+00 0.0000000000000000e+00 0.0000000000000000e+00  0.0000000000000000e+00 0.0000000000000000e+00 0.0000000000000000e+00  0.0000000000000000e+00 0.0000000000000000e+00 0.0000000000000000e+00  0.0000000000000000e+00 0.0000000000000000e+00 0.0000000000000000e+00  0.0000000000000000e+00 0.0000000000000000e+00 0.0000000000000000e+00  0.0000000000000000e+00 0.0000000000000000e+00 0.0000000000000000e+00  0.0000000000000000e+00 0.0000000000000000e+00 0.0000000000000000e+00  0.0000000000000000e+00 0.0000000000000000e+00 0.0000000000000000e+00  0.0000000000000000e+00 0.0000000000000000e+00 0.0000000000000000e+00  0.0000000000000000e+00 0.0000000000000000e+00 0.0000000000000000e+00  0.0000000000000000e+00 0.0000000000000000e+00 0.0000000000000000e+00  0.0000000000000000e+00 0.0000000000000000e+00 0.0000000000000000e+00  0.0000000000000000e+00 0.0000000000000000e+00 0.0000000000000000e+00  0.0000000000000000e+00 0.0000000000000000e+00 0.0000000000000000e+00  0.0000000000000000e+00 0.0000000000000000e+00 0.0000000000000000e+00  0.0000000000000000e+00 0.0000000000000000e+00 0.0000000000000000e+00  0.0000000000000000e+00 0.0000000000000000e+00 0.0000000000000000e+00  0.0000000000000000e+00 0.0000000000000000e+00 0.0000000000000000e+00  0.0000000000000000e+00 0.0000000000000000e+00 0.0000000000000000e+00  0.0000000000000000e+00 0.0000000000000000e+00 0.0000000000000000e+00  0.0000000000000000e+00 0.0000000000000000e+00 0.0000000000000000e+00  0.0000000000000000e+00 0.0000000000000000e+00 0.0000000000000000e+00  0.0000000000000000e+00 0.0000000000000000e+00 0.0000000000000000e+00  0.0000000000000000e+00 0.0000000000000000e+00 0.0000000000000000e+00  0.0000000000000000e+00 0.0000000000000000e+00 0.0000000000000000e+00  0.0000000000000000e+00 0.0000000000000000e+00 0.0000000000000000e+00  0.0000000000000000e+00 0.0000000000000000e+00 0.0000000000000000e+00  0.0000000000000000e+00 0.0000000000000000e+00 0.0000000000000000e+00  0.0000000000000000e+00 0.0000000000000000e+00 0.0000000000000000e+00  0.0000000000000000e+00 0.0000000000000000e+00 0.0000000000000000e+00  0.0000000000000000e+00 0.0000000000000000e+00 0.0000000000000000e+00  0.0000000000000000e+00 0.0000000000000000e+00 0.0000000000000000e+00  0.0000000000000000e+00 0.0000000000000000e+00 0.0000000000000000e+00  0.0000000000000000e+00 0.0000000000000000e+00 0.0000000000000000e+00  6.2929390884537116e-07 -3.3284087517478982e-06 0.0000000000000000e+00  1.4228052180498996e-06 -4.1037066502396997e-06 0.0000000000000000e+00  2.3209251574883774e-06 -5.0733540168626061e-06 0.0000000000000000e+00  3.3379236364856570e-06 -6.3214995900519798e-06 0.0000000000000000e+00  4.2951768087906626e-06 -7.8886841187874117e-06 0.0000000000000000e+00  5.2949560011595752e-06 -9.8262048793575915e-06 0.0000000000000000e+00  6.1838143390032454e-06 -1.2018219741171652e-05 0.0000000000000000e+00  7.0356688312408432e-06 -1.4549864413117063e-05 0.0000000000000000e+00  7.9278466831640523e-06 -1.7343131501534999e-05 0.0000000000000000e+00  8.6807686839869390e-06 -2.0395525912050827e-05 0.0000000000000000e+00  9.4808467386732199e-06 -2.3730922959460518e-05 0.0000000000000000e+00  1.0143699637985334e-05 -2.7293045714790475e-05 0.0000000000000000e+00  1.0825809461359339e-05 -3.1102942239043091e-05 0.0000000000000000e+00  1.1404080830319756e-05 -3.5104694784353810e-05 0.0000000000000000e+00  1.1931056221929691e-05 -3.9339487702112721e-05 0.0000000000000000e+00  1.2466944390389980e-05 -4.3760214285501379e-05 0.0000000000000000e+00  1.2885611976707865e-05 -4.8346818736056993e-05 0.0000000000000000e+00  1.3313009027059754e-05 -5.3133777434035335e-05 0.0000000000000000e+00  1.3632092817358999e-05 -5.8053046753832334e-05 0.0000000000000000e+00  1.3950911803310906e-05 -6.3143869519947148e-05 0.0000000000000000e+00  1.4181907095691429e-05 -6.8352343898176523e-05 0.0000000000000000e+00  1.4388780406281534e-05 -7.3708928484610600e-05 0.0000000000000000e+00  1.4526945996787159e-05 -7.9163231978506392e-05 0.0000000000000000e+00  1.4614541362142675e-05 -8.4739970703563553e-05 0.0000000000000000e+00  1.4688531395149986e-05 -9.0410510787010978e-05 0.0000000000000000e+00  1.4689766987763444e-05 -9.6163792688244208e-05 0.0000000000000000e+00  1.4652645205272804e-05 -1.0202702197164650e-04 0.0000000000000000e+00  1.4562363231331744e-05 -1.0793811902930171e-04 0.0000000000000000e+00  1.4433069009516238e-05 -1.1394585172968100e-04 0.0000000000000000e+00  1.4253721746360511e-05 -1.1999032720737985e-04 0.0000000000000000e+00  1.4034896490251456e-05 -1.2611696536932266e-04 0.0000000000000000e+00  1.3767160748508063e-05 -1.3226777345007811e-04 0.0000000000000000e+00  1.3461141696575331e-05 -1.3848912062410469e-04 0.0000000000000000e+00  1.3106709689575781e-05 -1.4472175517047362e-04 0.0000000000000000e+00  1.2711570820525659e-05 -1.5101706381019444e-04 0.0000000000000000e+00  1.2271713606479221e-05 -1.5731559627623224e-04 0.0000000000000000e+00  1.1792539473633518e-05 -1.6366533736039129e-04 0.0000000000000000e+00  1.1269493188986995e-05 -1.7001120985993609e-04 0.0000000000000000e+00  1.0705562912360249e-05 -1.7640052476230705e-04 0.0000000000000000e+00  1.0096994012429689e-05 -1.8277963290548908e-04 0.0000000000000000e+00  9.4423248511004842e-06 -1.8918742545547164e-04 0.0000000000000000e+00  8.7534280488834062e-06 -1.9559394476253368e-04 0.0000000000000000e+00  8.0159487166724797e-06 -2.0201216865139927e-04 0.0000000000000000e+00  7.2537188075882405e-06 -2.0843372822054414e-04 0.0000000000000000e+00  6.4414759605572893e-06 -2.1484459307729515e-04 0.0000000000000000e+00  5.6101671797316126e-06 -2.2128915239672526e-04 0.0000000000000000e+00  2.6227535202015395e-07 -2.2707156560946066e-04 0.0000000000000000e+00  -8.4184466719533933e-06 -2.2547242448514595e-04 0.0000000000000000e+00  -1.1759803525220260e-05 -2.1827611486974969e-04 0.0000000000000000e+00  -1.0910822011644219e-05 -2.1175002884305088e-04 0.0000000000000000e+00  -1.0083393052074545e-05 -2.0520675381183737e-04 0.0000000000000000e+00  -9.2992022427443125e-06 -1.9868520741606632e-04 0.0000000000000000e+00  -8.5409188614678616e-06 -1.9216953761551619e-04 0.0000000000000000e+00  -7.8284516067583694e-06 -1.8566386849634567e-04 0.0000000000000000e+00  -7.1407388407066910e-06 -1.7917394163142054e-04 0.0000000000000000e+00  -6.4975378128738496e-06 -1.7268308283802398e-04 0.0000000000000000e+00  -5.8826456334445856e-06 -1.6622920211567651e-04 0.0000000000000000e+00  -5.3076010303085448e-06 -1.5977066103954509e-04 0.0000000000000000e+00  -4.7569391620851849e-06 -1.5335671577464612e-04 0.0000000000000000e+00  -4.2476626791118133e-06 -1.4694606631483761e-04 0.0000000000000000e+00  -3.7588094352510999e-06 -1.4058835702602198e-04 0.0000000000000000e+00  -3.3121936007462152e-06 -1.3424360541038638e-04 0.0000000000000000e+00  -2.8809563473398141e-06 -1.2796012707337582e-04 0.0000000000000000e+00  -2.4946993548854162e-06 -1.2169972312715053e-04 0.0000000000000000e+00  -2.1191227848327230e-06 -1.1551071917252805e-04 0.0000000000000000e+00  -1.7916500445784176e-06 -1.0935662980136746e-04 0.0000000000000000e+00  -1.4693652665013923e-06 -1.0328728261592868e-04 0.0000000000000000e+00  -1.1982417573486917e-06 -9.7266973001112014e-05 0.0000000000000000e+00  -9.2556543144963965e-07 -9.1344528861262006e-05 0.0000000000000000e+00  -7.0812610804328369e-07 -8.5487167383269710e-05 0.0000000000000000e+00  -4.8981503148444975e-07 -7.9736155598921277e-05 0.0000000000000000e+00  -3.1580242117239265e-07 -7.4071250847497074e-05 0.0000000000000000e+00  -1.7438931402148651e-07 -6.8535006546419840e-05 0.0000000000000000e+00  -1.8699754672556045e-08 -6.3096326352429381e-05 0.0000000000000000e+00  8.6141918330180773e-08 -5.7788783236042751e-05 0.0000000000000000e+00  1.8601940621987796e-07 -5.2632434186595437e-05 0.0000000000000000e+00  2.4754144969301167e-07 -4.7608502269455088e-05 0.0000000000000000e+00  3.0323407204877565e-07 -4.2762312753361053e-05 0.0000000000000000e+00  3.2139215581320931e-07 -3.8063984558638378e-05 0.0000000000000000e+00  3.5183758090548305e-07 -3.3584218203888073e-05 0.0000000000000000e+00  3.2492034748201010e-07 -2.9260667268547705e-05 0.0000000000000000e+00  2.7126546763969891e-07 -2.5185397590033816e-05 0.0000000000000000e+00  2.5889700271553140e-07 -2.1286609080656800e-05 0.0000000000000000e+00  1.9080752030003178e-07 -1.7643688028364236e-05 0.0000000000000000e+00  1.3183954544956050e-07 -1.4257002938570766e-05 0.0000000000000000e+00  3.4025834952577630e-08 -1.1114435815051410e-05 0.0000000000000000e+00  -2.5459601079975993e-08 -8.2855639352599816e-06 0.0000000000000000e+00  -1.5377857856604334e-07 -5.6968815277534536e-06 0.0000000000000000e+00  -2.9605408538147871e-07 -3.4629178789506015e-06 0.0000000000000000e+00  -3.6140039971458353e-07 -1.4869452115301354e-06 0.0000000000000000e+00  -4.8609494474531665e-07 1.5432329832726602e-07 0.0000000000000000e+00  -5.0750095187720465e-07 1.4447711105973756e-06 0.0000000000000000e+00  -5.1263684483496570e-07 2.2828972135329473e-06 0.0000000000000000e+00  -2.8625186817603855e-07 2.5916835730013113e-06 0.0000000000000000e+00  -2.3195874038822514e-07 -3.9691734678230056e-07 0.0000000000000000e+00  -2.6363699754901207e-06 -2.1653923738888226e-04 0.0000000000000000e+00  -9.4808404888873251e-07 -2.0417090151665095e-04 0.0000000000000000e+00  1.2347023736482397e-06 -1.8398129654576960e-04 0.0000000000000000e+00  1.1335454848238256e-06 -2.1794291279642087e-06 0.0000000000000000e+00  2.3626200637476142e-06 -1.7131704790480898e-04 0.0000000000000000e+00  2.1478450814836549e-06 -5.2080845805657627e-06 0.0000000000000000e+00  3.4647567054973089e-06 -1.5850779643125491e-04 0.0000000000000000e+00  3.6865841919731171e-06 -1.2677248215812793e-05 0.0000000000000000e+00  4.5918886885402906e-06 -1.8811414882097637e-05 0.0000000000000000e+00  4.4179367013448395e-06 -1.4579304249980125e-04 0.0000000000000000e+00  6.1706088389992862e-06 -3.8686513597733084e-05 0.0000000000000000e+00  5.8840132668859096e-06 -1.2078722655047163e-04 0.0000000000000000e+00  5.2594078243953810e-06 -2.5682264572786232e-05 0.0000000000000000e+00  6.6548133023443684e-06 -4.7834278426420614e-05 0.0000000000000000e+00  6.3991758840503187e-06 -1.0858013160015359e-04 0.0000000000000000e+00  5.2239558744489750e-06 -1.3320650008935930e-04 0.0000000000000000e+00  6.9325554311981821e-06 -5.7791112755167504e-05 0.0000000000000000e+00  6.7692803456010197e-06 -9.6638014221025147e-05 0.0000000000000000e+00  6.9737999791855647e-06 -6.7851641828936147e-05 0.0000000000000000e+00  7.0941098512888669e-06 -8.5284455738533302e-05 0.0000000000000000e+00  7.0609822882645249e-06 -7.6107910316121523e-05 0.0000000000000000e+00  5.8061569436411978e-06 -3.1724820750991757e-05 0.0000000000000000e+00  -2.2058133453072716e-08 -1.9444003208397159e-04 0.0000000000000000e+00  2.9406239565555066e-06 -8.5179493716499028e-06 0.0000000000000000e+00  -4.8060173753728608e-06 -2.0976169782384205e-04 0.0000000000000000e+00  7.7882679958863753e-08 8.9934906629214462e-08 0.0000000000000000e+00  4.4258654746116266e-07 -1.6434646288566903e-04 0.0000000000000000e+00  -7.4760946684719873e-07 -1.7721644106896350e-04 0.0000000000000000e+00  2.4228983805462407e-06 -4.7851403621121529e-06 0.0000000000000000e+00  5.3669947603672456e-06 -1.6494761816980371e-05 0.0000000000000000e+00  3.1606402274593669e-06 -1.2634350034260885e-04 0.0000000000000000e+00  1.4892564527726206e-06 -1.5155552279760940e-04 0.0000000000000000e+00  8.2634616047287556e-06 -4.3931914336561274e-05 0.0000000000000000e+00  3.7905682310555499e-06 -1.1400008485505889e-04 0.0000000000000000e+00  6.3751335732173985e-06 -2.3202951567704857e-05 0.0000000000000000e+00  8.7365007770371346e-06 -5.3546529230675741e-05 0.0000000000000000e+00  4.2852191008514184e-06 -1.0189494919201546e-04 0.0000000000000000e+00  2.3941746103046704e-06 -1.3887563810360785e-04 0.0000000000000000e+00  9.5027064054402699e-06 -6.3888491017109739e-05 0.0000000000000000e+00  4.6462222484992411e-06 -9.0083088753391949e-05 0.0000000000000000e+00  -3.8431083872560178e-07 -7.9449261428151582e-07 0.0000000000000000e+00  -5.3044332268678232e-07 5.7667589102254751e-07 0.0000000000000000e+00  -1.3497664279332358e-06 -2.2199065125319198e-04 0.0000000000000000e+00  9.9937228154282683e-07 -2.47719713858