<?xml version="1.0"?>
<VTKFile type="UnstructuredGrid"  version="0.1"  >
<UnstructuredGrid>
<Piece  NumberOfPoints="1419" NumberOfCells="2698">
<Points>
<DataArray  type="Float64"  NumberOfComponents="3"  format="ascii">0 0 0  0 0.41 0  2.5 0 0  2.5 0.41 0  0.6 0.19 0  0.6 0.21 0  0.25 0.2 0  0.15 0.2 0  0.2489897948556636 0.21 0  0.2489897948556636 0.19 0  0.6 0.2 0  0 0.3807142857143437 0  0 0.3514285714286952 0  0 0.3221428571430699 0  0 0.29285714285744 0  0 0.2635714285718054 0  0 0.2342857142861561 0  0 0.2050000000005308 0  0 0.175714285714732 0  0 0.1464285714289574 0  0 0.1171428571431897 0  0 0.08785714285737878 0  0 0.05857142857161107 0  0 0.02928571428580012 0  0.03015443760436003 0 0  0.06140001986583606 0 0  0.09377624077125973 0 0  0.1273239957535082 0 0  0.1620856860351972 0 0  0.1981052433264291 0 0  0.235428184091502 0 0  0.2741016576309132 0 0  0.3141745521465447 0 0  0.3556974926295285 0 0  0.3987229542472677 0 0  0.4433053055141081 0 0  0.4895008759286886 0 0  0.5373680609405097 0 0  0.5869673343216626 0 0  0.6383613676634521 0 0  0.6916151138468254 0 0  0.7467958595648856 0 0  0.8039733463919316 0 0  0.8632198139502143 0 0  0.9246101326867038 0 0  0.9882218810934433 0 0  1.054135445558498 0 0  1.122434100542598 0 0  1.193204177141305 0 0  1.266535089879536 0 0  1.342519516046404 0 0  1.421253448503939 0 0  1.502836389106271 0 0  1.587371439758838 0 0  1.674965418777374 0 0  1.765729001825544 0 0  1.859776908880082 0 0  1.957227977487062 0 0  2.058205329869943 0 0  2.162836591189951 0 0  2.271253957290865 0 0  2.383594446803425 0 0  2.5 0.1024999999997612 0  2.5 0.2049999999994743 0  2.5 0.3074999999997183 0  2.383594446803656 0.41 0  2.271253957291315 0.41 0  2.162836591190598 0.41 0  2.058205329870775 0.41 0  1.957227977488067 0.41 0  1.859776908881246 0.41 0  1.765729001826854 0.41 0  1.674965418778818 0.41 0  1.58737143976041 0.41 0  1.502836389107956 0.41 0  1.421253448505726 0.41 0  1.342519516048286 0.41 0  1.266535089881505 0.41 0  1.193204177143353 0.41 0  1.122434100544716 0.41 0  1.05413544556068 0.41 0  0.9882218810956305 0.41 0  0.9246101326886647 0.41 0  0.8632198139519631 0.41 0  0.8039733463934788 0.41 0  0.7467958595662458 0.41 0  0.6916151138480078 0.41 0  0.6383613676644679 0.41 0  0.5869673343225223 0.41 0  0.5373680609412221 0.41 0  0.4895008759292634 0.41 0  0.4433053055145528 0.41 0  0.3987229542475914 0.41 0  0.3556974926297398 0.41 0  0.3141745521466497 0.41 0  0.2741016576310038 0.41 0  0.2354281840915826 0.41 0  0.1981052433265003 0.41 0  0.1620856860352591 0.41 0  0.1273239957535623 0.41 0  0.09377624077128965 0.41 0  0.06140001986584975 0.41 0  0.03015443760436654 0.41 0  0.2497468076502589 0.2050254481002335 0  0.2497468076502614 0.1949745518997913 0  0.2469965252529372 0.1829317073451959 0  0.2439893735792749 0.1762316384219906 0  0.2400332147834255 0.1700443375285386 0  0.2352133972704371 0.1645032867342007 0  0.2296339016332438 0.1597280261969788 0  0.2234150974217223 0.1558215752574715 0  0.2166911463437691 0.1528682099456123 0  0.2096071079204251 0.1509316448471593 0  0.2023158100364996 0.1500536585536553 0  0.194974551899914 0.1502531923497262 0  0.1877417105387872 0.1515259415822739 0  0.1807733240461124 0.153844448527136 0  0.1742197252835808 0.15715869474974 0  0.1682222986673531 0.1613971801805478 0  0.162910430003803 0.1664684656256651 0  0.1583987151779087 0.1722631454351573 0  0.1547844879126891 0.178656207771761 0  0.1521457199348551 0.1855097315605723 0  0.1505393388476355 0.1926758619366523 0  0.1505393388476328 0.2073241380633295 0  0.1521457199348437 0.2144902684393899 0  0.1547844879126531 0.221343792228163 0  0.1583987151778488 0.2277368545647528 0  0.1629104300036858 0.2335315343742052 0  0.1682222986671726 0.2386028198193036 0  0.1742197252833576 0.2428413052501257 0  0.1807733240458683 0.2461555514727623 0  0.1877417105384929 0.2484740584176516 0  0.1949745518995776 0.2497468076502398 0  0.202315810036185 0.2499463414463592 0  0.2096071079201568 0.2490683551528932 0  0.2166911463435495 0.2471317900544655 0  0.2234150974215506 0.2441784247426195 0  0.2296339016331197 0.2402719738031125 0  0.2352133972703547 0.2354967132658811 0  0.2400332147833751 0.2299556624715287 0  0.2439893735792577 0.2237683615780412 0  0.246996525252926 0.2170682926548348 0  0.25645809709277 0.21 0  0.2639263993298655 0.21 0  0.271394701566961 0.21 0  0.2788630038040554 0.21 0  0.2863313060411479 0.21 0  0.2937996082782405 0.21 0  0.301267910515333 0.21 0  0.3087362127524279 0.21 0  0.3162045149895234 0.21 0  0.3236728172265972 0.21 0  0.3311411194636928 0.21 0  0.3386094217007701 0.21 0  0.3460777239378666 0.21 0  0.3535460261749672 0.21 0  0.3610143284120516 0.21 0  0.3684826306491596 0.21 0  0.3759509328862226 0.21 0  0.383419235123329 0.21 0  0.3908875373604028 0.21 0  0.3983558395975142 0.21 0  0.4058241418345938 0.21 0  0.4132924440716992 0.21 0  0.4207607463087888 0.21 0  0.4282290485459029 0.21 0  0.4356973507830418 0.21 0  0.4431656530201649 0.21 0  0.4506339552573136 0.21 0  0.4581022574944306 0.21 0  0.4655705597315852 0.21 0  0.4730388619686996 0.21 0  0.480507164205851 0.21 0  0.4879754664429498 0.21 0  0.4954437686800938 0.21 0  0.502912070917267 0.21 0  0.5103803731544119 0.21 0  0.5178486753915261 0.21 0  0.5253169776286404 0.21 0  0.5327852798657868 0.21 0  0.5402535821029386 0.21 0  0.54772188434007 0.21 0  0.5551901865771842 0.21 0  0.5626584888143201 0.21 0  0.5701267910514778 0.21 0  0.5775950932886138 0.21 0  0.5850633955257281 0.21 0  0.5925316977628483 0.21 0  0.6 0.2050000000000054 0  0.6 0.1950000000000217 0  0.5925316977628897 0.19 0  0.5850633955257988 0.19 0  0.5775950932887378 0.19 0  0.5701267910515998 0.19 0  0.5626584888145268 0.19 0  0.5551901865773963 0.19 0  0.547721884340339 0.19 0  0.5402535821032429 0.19 0  0.5327852798661811 0.19 0  0.5253169776290537 0.19 0  0.5178486753919799 0.19 0  0.5103803731549078 0.19 0  0.502912070917822 0.19 0  0.4954437686807294 0.19 0  0.4879754664436223 0.19 0  0.4805071642065402 0.19 0  0.4730388619694271 0.19 0  0.4655705597323621 0.19 0  0.4581022574952563 0.19 0  0.4506339552581777 0.19 0  0.4431656530210671 0.19 0  0.4356973507839815 0.19 0  0.4282290485468779 0.19 0  0.4207607463097617 0.19 0  0.4132924440726327 0.19 0  0.4058241418354857 0.19 0  0.3983558395983636 0.19 0  0.3908875373612097 0.19 0  0.3834192351240934 0.19 0  0.3759509328869369 0.19 0  0.3684826306498175 0.19 0  0.361014328412667 0.19 0  0.3535460261755617 0.19 0  0.3460777239384295 0.19 0  0.3386094217012945 0.19 0  0.3311411194641595 0.19 0  0.3236728172270245 0.19 0  0.3162045149898895 0.19 0  0.3087362127527544 0.19 0  0.3012679105156187 0.19 0  0.2937996082784807 0.19 0  0.2863313060413428 0.19 0  0.2788630038042048 0.19 0  0.2713947015670686 0.19 0  0.2639263993299336 0.19 0  0.2564580970927985 0.19 0  0.2607803159922026 0.2000727136295815 0  0.5887803774232762 0.2001272386983733 0  0.5745072403740523 0.2002044435018727 0  0.5511891430099709 0.2001122610077113 0  0.2751288526855082 0.20000000000002 0  0.5365194309847112 0.1999999999999436 0  0.2894621222999649 0.1998691686390484 0  0.5215828265105155 0.1999999999999228 0  0.3127789816668748 0.1998657885438805 0  0.3274069683451451 0.2000000000000796 0  0.5066462220363641 0.199999999999908 0  0.3650630746574081 0.199866017807523 0  0.476773013087985 0.1999999999998713 0  0.3417402379596385 0.1998691686391011 0  0.3796850840047755 0.200000000000134 0  0.4618364086138087 0.1999999999998546 0  0.4917096175621762 0.1999999999998808 0  0.3946216884789568 0.2000000000001512 0  0.446899804139621 0.1999999999998389 0  0.4089549580935208 0.1998691686391595 0  0.4322718174608562 0.200127451265745 0  0.4201487168029707 0.1999966199048527 0  0.3528922713220932 0.2000185703532356 0  0.5633122436674589 0.1999814296467508 0  0.3006558810093873 0.1999966199048318 0  0.5815926498168407 0.1966545283159175 0  0.2677053789419034 0.1964246479135325 0  0.5290511287476175 0.1970915826863981 0  0.5439877332217911 0.197091582686394 0  0.2825131256993216 0.2035478995978015 0  0.3199386661080599 0.202908417313604 0  0.4842413153250809 0.1970915826863873 0  0.5141145242734466 0.1970915826863843 0  0.3722167817676917 0.2029084173136195 0  0.4693047108508938 0.1970915826863783 0  0.3348752705822316 0.202908417313609 0  0.3871533862418661 0.2029084173136212 0  0.4543681063767183 0.1970915826863795 0  0.4991779197992749 0.1970915826863902 0  0.4020059614928624 0.203547899597858 0  0.4394315019025246 0.1970915826863714 0  0.2550657455369551 0.2034088125358657 0  0.2548908499171161 0.1966940311614271 0  0.5946539510196798 0.2024302972968126 0  0.267698176732111 0.2039977513680092 0  0.4261685417851465 0.196409292431739 0  0.3590076176283495 0.196411355804271 0  0.5571672426447437 0.2036011176410121 0  0.3066757059912147 0.1964092924317024 0  0.594380730180568 0.1966558399668133 0  0.4842413153245942 0.2040749161535287 0  0.4693047108503577 0.2040749161535231 0  0.3871533862424271 0.1959250838464788 0  0.372246743208829 0.1959123236376545 0  0.5141145242731028 0.2040749161535395 0  0.4543681063761134 0.2040749161535186 0  0.4019979587101454 0.1959834479682427 0  0.4394608940728603 0.2040870543693135 0  0.5439623148931173 0.2040856076781014 0  0.5290511287473298 0.2040749161535501 0  0.4991779197988497 0.2040749161535382 0  0.3347912413592433 0.1959225448935183 0  0.3199680582793816 0.1959123018030061 0  0.2825051229162361 0.1959834479681729 0  0.3590471196690275 0.2036304442587945 0  0.5571594006495384 0.1963685282145804 0  0.3067669986803285 0.203627750582736 0  0.4262598344738712 0.2036568242185335 0  0.5814408164431408 0.2041285596160068 0  0.5688286748170428 0.1961819304477386 0  0.4145905603063645 0.2038180695522843 0  0.3473758401724931 0.2038180695522752 0  0.2950977245128307 0.2038180695522663 0  0.5688286748170693 0.203818069552238 0  0.2950977245127906 0.1961819304477774 0  0.3473758401723931 0.1961819304478349 0  0.4145905603061963 0.1961819304479011 0  0.2601812407614425 0.2056861609747042
[...]
<PointData  Vectors="f_40-1"> 
<DataArray  type="Float64"  Name="f_40-1"  NumberOfComponents="3" format="ascii">0.0000000000000000e+00 0.0000000000000000e+00 0.0000000000000000e+00  0.0000000000000000e+00 0.0000000000000000e+00 0.0000000000000000e+00  0.0000000000000000e+00 0.0000000000000000e+00 0.0000000000000000e+00  0.0000000000000000e+00 0.0000000000000000e+00 0.0000000000000000e+00  6.1748162031176893e-05 2.5212205724861989e-03 0.0000000000000000e+00  -1.0811732272915453e-04 2.5199958506010962e-03 0.0000000000000000e+00  0.0000000000000000e+00 0.0000000000000000e+00 0.0000000000000000e+00  0.0000000000000000e+00 0.0000000000000000e+00 0.0000000000000000e+00  0.0000000000000000e+00 0.0000000000000000e+00 0.0000000000000000e+00  0.0000000000000000e+00 0.0000000000000000e+00 0.0000000000000000e+00  -2.3348950538005139e-05 2.5206062672609563e-03 0.0000000000000000e+00  0.0000000000000000e+00 0.0000000000000000e+00 0.0000000000000000e+00  0.0000000000000000e+00 0.0000000000000000e+00 0.0000000000000000e+00  0.0000000000000000e+00 0.0000000000000000e+00 0.0000000000000000e+00  0.0000000000000000e+00 0.0000000000000000e+00 0.0000000000000000e+00  0.0000000000000000e+00 0.0000000000000000e+00 0.0000000000000000e+00  0.0000000000000000e+00 0.0000000000000000e+00 0.0000000000000000e+00  0.0000000000000000e+00 0.0000000000000000e+00 0.0000000000000000e+00  0.0000000000000000e+00 0.0000000000000000e+00 0.0000000000000000e+00  0.0000000000000000e+00 0.0000000000000000e+00 0.0000000000000000e+00  0.0000000000000000e+00 0.0000000000000000e+00 0.0000000000000000e+00  0.0000000000000000e+00 0.0000000000000000e+00 0.0000000000000000e+00  0.0000000000000000e+00 0.0000000000000000e+00 0.0000000000000000e+00  0.0000000000000000e+00 0.0000000000000000e+00 0.0000000000000000e+00  0.0000000000000000e+00 0.0000000000000000e+00 0.0000000000000000e+00  0.0000000000000000e+00 0.0000000000000000e+00 0.0000000000000000e+00  0.0000000000000000e+00 0.0000000000000000e+00 0.0000000000000000e+00  0.0000000000000000e+00 0.0000000000000000e+00 0.0000000000000000e+00  0.0000000000000000e+00 0.0000000000000000e+00 0.0000000000000000e+00  0.0000000000000000e+00 0.0000000000000000e+00 0.0000000000000000e+00  0.0000000000000000e+00 0.0000000000000000e+00 0.0000000000000000e+00  0.0000000000000000e+00 0.0000000000000000e+00 0.0000000000000000e+00  0.0000000000000000e+00 0.0000000000000000e+00 0.0000000000000000e+00  0.0000000000000000e+00 0.0000000000000000e+00 0.0000000000000000e+00  0.0000000000000000e+00 0.0000000000000000e+00 0.0000000000000000e+00  0.0000000000000000e+00 0.0000000000000000e+00 0.0000000000000000e+00  0.0000000000000000e+00 0.0000000000000000e+00 0.0000000000000000e+00  0.0000000000000000e+00 0.0000000000000000e+00 0.0000000000000000e+00  0.0000000000000000e+00 0.0000000000000000e+00 0.0000000000000000e+00  0.0000000000000000e+00 0.0000000000000000e+00 0.0000000000000000e+00  0.0000000000000000e+00 0.0000000000000000e+00 0.0000000000000000e+00  0.0000000000000000e+00 0.0000000000000000e+00 0.0000000000000000e+00  0.0000000000000000e+00 0.0000000000000000e+00 0.0000000000000000e+00  0.0000000000000000e+00 0.0000000000000000e+00 0.0000000000000000e+00  0.0000000000000000e+00 0.0000000000000000e+00 0.0000000000000000e+00  0.0000000000000000e+00 0.0000000000000000e+00 0.0000000000000000e+00  0.0000000000000000e+00 0.0000000000000000e+00 0.0000000000000000e+00  0.0000000000000000e+00 0.0000000000000000e+00 0.0000000000000000e+00  0.0000000000000000e+00 0.0000000000000000e+00 0.0000000000000000e+00  0.0000000000000000e+00 0.0000000000000000e+00 0.0000000000000000e+00  0.0000000000000000e+00 0.0000000000000000e+00 0.0000000000000000e+00  0.0000000000000000e+00 0.0000000000000000e+00 0.0000000000000000e+00  0.0000000000000000e+00 0.0000000000000000e+00 0.0000000000000000e+00  0.0000000000000000e+00 0.0000000000000000e+00 0.0000000000000000e+00  0.0000000000000000e+00 0.0000000000000000e+00 0.0000000000000000e+00  0.0000000000000000e+00 0.0000000000000000e+00 0.0000000000000000e+00  0.0000000000000000e+00 0.0000000000000000e+00 0.0000000000000000e+00  0.0000000000000000e+00 0.0000000000000000e+00 0.0000000000000000e+00  0.0000000000000000e+00 0.0000000000000000e+00 0.0000000000000000e+00  0.0000000000000000e+00 0.0000000000000000e+00 0.0000000000000000e+00  0.0000000000000000e+00 0.0000000000000000e+00 0.0000000000000000e+00  0.0000000000000000e+00 0.0000000000000000e+00 0.0000000000000000e+00  0.0000000000000000e+00 0.0000000000000000e+00 0.0000000000000000e+00  0.0000000000000000e+00 0.0000000000000000e+00 0.0000000000000000e+00  0.0000000000000000e+00 0.0000000000000000e+00 0.0000000000000000e+00  0.0000000000000000e+00 0.0000000000000000e+00 0.0000000000000000e+00  0.0000000000000000e+00 0.0000000000000000e+00 0.0000000000000000e+00  0.0000000000000000e+00 0.0000000000000000e+00 0.0000000000000000e+00  0.0000000000000000e+00 0.0000000000000000e+00 0.0000000000000000e+00  0.0000000000000000e+00 0.0000000000000000e+00 0.0000000000000000e+00  0.0000000000000000e+00 0.0000000000000000e+00 0.0000000000000000e+00  0.0000000000000000e+00 0.0000000000000000e+00 0.0000000000000000e+00  0.0000000000000000e+00 0.0000000000000000e+00 0.0000000000000000e+00  0.0000000000000000e+00 0.0000000000000000e+00 0.0000000000000000e+00  0.0000000000000000e+00 0.0000000000000000e+00 0.0000000000000000e+00  0.0000000000000000e+00 0.0000000000000000e+00 0.0000000000000000e+00  0.0000000000000000e+00 0.0000000000000000e+00 0.0000000000000000e+00  0.0000000000000000e+00 0.0000000000000000e+00 0.0000000000000000e+00  0.0000000000000000e+00 0.0000000000000000e+00 0.0000000000000000e+00  0.0000000000000000e+00 0.0000000000000000e+00 0.0000000000000000e+00  0.0000000000000000e+00 0.0000000000000000e+00 0.0000000000000000e+00  0.0000000000000000e+00 0.0000000000000000e+00 0.0000000000000000e+00  0.0000000000000000e+00 0.0000000000000000e+00 0.0000000000000000e+00  0.0000000000000000e+00 0.0000000000000000e+00 0.0000000000000000e+00  0.0000000000000000e+00 0.0000000000000000e+00 0.0000000000000000e+00  0.0000000000000000e+00 0.0000000000000000e+00 0.0000000000000000e+00  0.0000000000000000e+00 0.0000000000000000e+00 0.0000000000000000e+00  0.0000000000000000e+00 0.0000000000000000e+00 0.0000000000000000e+00  0.0000000000000000e+00 0.0000000000000000e+00 0.0000000000000000e+00  0.0000000000000000e+00 0.0000000000000000e+00 0.0000000000000000e+00  0.0000000000000000e+00 0.0000000000000000e+00 0.0000000000000000e+00  0.0000000000000000e+00 0.0000000000000000e+00 0.0000000000000000e+00  0.0000000000000000e+00 0.0000000000000000e+00 0.0000000000000000e+00  0.0000000000000000e+00 0.0000000000000000e+00 0.0000000000000000e+00  0.0000000000000000e+00 0.0000000000000000e+00 0.0000000000000000e+00  0.0000000000000000e+00 0.0000000000000000e+00 0.0000000000000000e+00  0.0000000000000000e+00 0.0000000000000000e+00 0.0000000000000000e+00  0.0000000000000000e+00 0.0000000000000000e+00 0.0000000000000000e+00  0.0000000000000000e+00 0.0000000000000000e+00 0.0000000000000000e+00  0.0000000000000000e+00 0.0000000000000000e+00 0.0000000000000000e+00  0.0000000000000000e+00 0.0000000000000000e+00 0.0000000000000000e+00  0.0000000000000000e+00 0.0000000000000000e+00 0.0000000000000000e+00  0.0000000000000000e+00 0.0000000000000000e+00 0.0000000000000000e+00  0.0000000000000000e+00 0.0000000000000000e+00 0.0000000000000000e+00  0.0000000000000000e+00 0.0000000000000000e+00 0.0000000000000000e+00  0.0000000000000000e+00 0.0000000000000000e+00 0.0000000000000000e+00  0.0000000000000000e+00 0.0000000000000000e+00 0.0000000000000000e+00  0.0000000000000000e+00 0.0000000000000000e+00 0.0000000000000000e+00  0.0000000000000000e+00 0.0000000000000000e+00 0.0000000000000000e+00  0.0000000000000000e+00 0.0000000000000000e+00 0.0000000000000000e+00  0.0000000000000000e+00 0.0000000000000000e+00 0.0000000000000000e+00  0.0000000000000000e+00 0.0000000000000000e+00 0.0000000000000000e+00  0.0000000000000000e+00 0.0000000000000000e+00 0.0000000000000000e+00  0.0000000000000000e+00 0.0000000000000000e+00 0.0000000000000000e+00  0.0000000000000000e+00 0.0000000000000000e+00 0.0000000000000000e+00  0.0000000000000000e+00 0.0000000000000000e+00 0.0000000000000000e+00  0.0000000000000000e+00 0.0000000000000000e+00 0.0000000000000000e+00  0.0000000000000000e+00 0.0000000000000000e+00 0.0000000000000000e+00  0.0000000000000000e+00 0.0000000000000000e+00 0.0000000000000000e+00  0.0000000000000000e+00 0.0000000000000000e+00 0.0000000000000000e+00  0.0000000000000000e+00 0.0000000000000000e+00 0.0000000000000000e+00  0.0000000000000000e+00 0.0000000000000000e+00 0.0000000000000000e+00  0.0000000000000000e+00 0.0000000000000000e+00 0.0000000000000000e+00  0.0000000000000000e+00 0.0000000000000000e+00 0.0000000000000000e+00  0.0000000000000000e+00 0.0000000000000000e+00 0.0000000000000000e+00  0.0000000000000000e+00 0.0000000000000000e+00 0.0000000000000000e+00  0.0000000000000000e+00 0.0000000000000000e+00 0.0000000000000000e+00  0.0000000000000000e+00 0.0000000000000000e+00 0.0000000000000000e+00  0.0000000000000000e+00 0.0000000000000000e+00 0.0000000000000000e+00  0.0000000000000000e+00 0.0000000000000000e+00 0.0000000000000000e+00  0.0000000000000000e+00 0.0000000000000000e+00 0.0000000000000000e+00  0.0000000000000000e+00 0.0000000000000000e+00 0.0000000000000000e+00  0.0000000000000000e+00 0.0000000000000000e+00 0.0000000000000000e+00  0.0000000000000000e+00 0.0000000000000000e+00 0.0000000000000000e+00  0.0000000000000000e+00 0.0000000000000000e+00 0.0000000000000000e+00  0.0000000000000000e+00 0.0000000000000000e+00 0.0000000000000000e+00  0.0000000000000000e+00 0.0000000000000000e+00 0.0000000000000000e+00  0.0000000000000000e+00 0.0000000000000000e+00 0.0000000000000000e+00  0.0000000000000000e+00 0.0000000000000000e+00 0.0000000000000000e+00  0.0000000000000000e+00 0.0000000000000000e+00 0.0000000000000000e+00  0.0000000000000000e+00 0.0000000000000000e+00 0.0000000000000000e+00  0.0000000000000000e+00 0.0000000000000000e+00 0.0000000000000000e+00  0.0000000000000000e+00 0.0000000000000000e+00 0.0000000000000000e+00  -7.8497802885057501e-06 6.9329402795474156e-06 0.0000000000000000e+00  -1.6504906884160873e-05 1.5937763593230266e-05 0.0000000000000000e+00  -2.3999098012902633e-05 3.0222121093601949e-05 0.0000000000000000e+00  -3.1855603831075506e-05 5.0074089503900143e-05 0.0000000000000000e+00  -3.8290250131733056e-05 7.4324097306729191e-05 0.0000000000000000e+00  -4.5291271465849363e-05 1.0335153846747530e-04 0.0000000000000000e+00  -5.0829982562071260e-05 1.3575971915814677e-04 0.0000000000000000e+00  -5.6018542934839656e-05 1.7248854967064298e-04 0.0000000000000000e+00  -6.1723512569981595e-05 2.1236696704180950e-04 0.0000000000000000e+00  -6.5972129225518549e-05 2.5536971162193187e-04 0.0000000000000000e+00  -7.0863320721414029e-05 3.0137358537583864e-04 0.0000000000000000e+00  -7.4457576756003358e-05 3.4992449585785672e-04 0.0000000000000000e+00  -7.8421717468830210e-05 4.0087297528310447e-04 0.0000000000000000e+00  -8.1495228823907093e-05 4.5363879166254874e-04 0.0000000000000000e+00  -8.4307876006551482e-05 5.0852565594910006e-04 0.0000000000000000e+00  -8.7273625273532728e-05 5.6490982455389884e-04 0.0000000000000000e+00  -8.9461425808186321e-05 6.2269888001246316e-04 0.0000000000000000e+00  -9.1827706070676197e-05 6.8180870568720377e-04 0.0000000000000000e+00  -9.3557625932083141e-05 7.4191492812714446e-04 0.0000000000000000e+00  -9.5372185498901187e-05 8.0294959602169582e-04 0.0000000000000000e+00  -9.6767285001038208e-05 8.6470896630731243e-04 0.0000000000000000e+00  -9.8117015488562645e-05 9.2713567105514867e-04 0.0000000000000000e+00  -9.9187572119507095e-05 9.8996849831519654e-04 0.0000000000000000e+00  -1.0011858776191088e-04 1.0532666686280140e-03 0.0000000000000000e+00  -1.0101304868850404e-04 1.1168379501126759e-03 0.0000000000000000e+00  -1.0172087553650940e-04 1.1806490978511991e-03 0.0000000000000000e+00  -1.0234772919433352e-04 1.2446603258017505e-03 0.0000000000000000e+00  -1.0287412089852506e-04 1.3087428760420875e-03 0.0000000000000000e+00  -1.0333060278497378e-04 1.3729224036964386e-03 0.0000000000000000e+00  -1.0372154898046015e-04 1.4370997132904877e-03 0.0000000000000000e+00  -1.0405723472531454e-04 1.5012899817039660e-03 0.0000000000000000e+00  -1.0435284768248163e-04 1.5654252342196069e-03 0.0000000000000000e+00  -1.0460983344374009e-04 1.6295169341516797e-03 0.0000000000000000e+00  -1.0484500354850501e-04 1.6935238742185079e-03 0.0000000000000000e+00  -1.0505394653595080e-04 1.7574589253362722e-03 0.0000000000000000e+00  -1.0526234464124981e-04 1.8213068776090414e-03 0.0000000000000000e+00  -1.0545977253919571e-04 1.8850713577483280e-03 0.0000000000000000e+00  -1.0566851701061643e-04 1.9487607126755613e-03 0.0000000000000000e+00  -1.0587684273601299e-04 2.0123734762602032e-03 0.0000000000000000e+00  -1.0610576195546769e-04 2.0759348626707111e-03 0.0000000000000000e+00  -1.0634452528453097e-04 2.1394345608628327e-03 0.0000000000000000e+00  -1.0660920132429202e-04 2.2029061442500205e-03 0.0000000000000000e+00  -1.0689020028768264e-04 2.2663475782927207e-03 0.0000000000000000e+00  -1.0718221433050555e-04 2.3297776631979001e-03 0.0000000000000000e+00  -1.0750184023271583e-04 2.3932102478448404e-03 0.0000000000000000e+00  -1.0782452491504870e-04 2.4566302805996303e-03 0.0000000000000000e+00  -6.5784213518033013e-05 2.5203021901580337e-03 0.0000000000000000e+00  1.9147281401562579e-05 2.5209084008139008e-03 0.0000000000000000e+00  6.2039654679001908e-05 2.4577279891362133e-03 0.0000000000000000e+00  6.2372833991284282e-05 2.3943106995002435e-03 0.0000000000000000e+00  6.2711524065397784e-05 2.3309031342491171e-03 0.0000000000000000e+00  6.3051361468721291e-05 2.2674776702427991e-03 0.0000000000000000e+00  6.3392274933564622e-05 2.2040358869979395e-03 0.0000000000000000e+00  6.3743372051807849e-05 2.1405601809365597e-03 0.0000000000000000e+00  6.4113083900505292e-05 2.0770448981211114e-03 0.0000000000000000e+00  6.4479555350245436e-05 2.0134790241926170e-03 0.0000000000000000e+00  6.4875948397940264e-05 1.9498446133190107e-03 0.0000000000000000e+00  6.5261383504403104e-05 1.8861369237851827e-03 0.0000000000000000e+00  6.5679800400390964e-05 1.8223458557998513e-03 0.0000000000000000e+00  6.6081856984963441e-05 1.7584692745583348e-03 0.0000000000000000e+00  6.6512227945231568e-05 1.6945041410920726e-03 0.0000000000000000e+00  6.6918422582522955e-05 1.6304582113555656e-03 0.0000000000000000e+00  6.7336235919526137e-05 1.5663330595516566e-03 0.0000000000000000e+00  6.7726542403866012e-05 1.5021522006209436e-03 0.0000000000000000e+00  6.8102684385718771e-05 1.4379238874364657e-03 0.0000000000000000e+00  6.8454364228901385e-05 1.3736891964252912e-03 0.0000000000000000e+00  6.8755477618564464e-05 1.3094654844268542e-03 0.0000000000000000e+00  6.9041007941734122e-05 1.2453127700106760e-03 0.0000000000000000e+00  6.9221440650119807e-05 1.1812544722350825e-03 0.0000000000000000e+00  6.9402223682865345e-05 1.1173752283002113e-03 0.0000000000000000e+00  6.9411805937045091e-05 1.0537213242294400e-03 0.0000000000000000e+00  6.9416620641124242e-05 9.9035027010922305e-04 0.0000000000000000e+00  6.9331872968296328e-05 9.2744581275815401e-04 0.0000000000000000e+00  6.9009331425463357e-05 8.6492234638410712e-04 0.0000000000000000e+00  6.8632819466529088e-05 8.0309986348100809e-04 0.0000000000000000e+00  6.7997157931757685e-05 7.4194532140265117e-04 0.0000000000000000e+00  6.7271868872299779e-05 6.8176242953037235e-04 0.0000000000000000e+00  6.6230309530935843e-05 6.2255552644199981e-04 0.0000000000000000e+00  6.5089616407248540e-05 5.6460330375729720e-04 0.0000000000000000e+00  6.3378606299108929e-05 5.0821437019419593e-04 0.0000000000000000e+00  6.1823787552129706e-05 4.5319772219813611e-04 0.0000000000000000e+00  6.0034227206087083e-05 4.0036098303936497e-04 0.0000000000000000e+00  5.7495439026938736e-05 3.4914472188138991e-04 0.0000000000000000e+00  5.4956928025863405e-05 3.0056788879695656e-04 0.0000000000000000e+00  5.1818794379125072e-05 2.5442538709026725e-04 0.0000000000000000e+00  4.8630745148947605e-05 2.1117374446223781e-04 0.0000000000000000e+00  4.4410095610840192e-05 1.7136602078645258e-04 0.0000000000000000e+00  4.0659247897474932e-05 1.3446554453792669e-04 0.0000000000000000e+00  3.6600252049480735e-05 1.0195414841742678e-04 0.0000000000000000e+00  3.1196028262139161e-05 7.2685494715047180e-05 0.0000000000000000e+00  2.6098151332919228e-05 4.8242147731857079e-05 0.0000000000000000e+00  1.9717508888169594e-05 2.8561100136042754e-05 0.0000000000000000e+00  1.3861918222451566e-05 1.4147720460232157e-05 0.0000000000000000e+00  6.6070975420666484e-06 5.1495320255631668e-06 0.0000000000000000e+00  -9.2093451856089739e-07 6.6132552941612908e-06 0.0000000000000000e+00  -2.3879447149343099e-05 2.4253204231448637e-03 0.0000000000000000e+00  -2.3878767755367823e-05 2.3041167338352765e-03 0.0000000000000000e+00  -2.2124466004012221e-05 2.1060036520526362e-03 0.0000000000000000e+00  -2.4153856321786153e-06 3.5386410812919052e-05 0.0000000000000000e+00  -2.0577772832344618e-05 1.9811638999637981e-03 0.0000000000000000e+00  -3.4134038645745088e-06 8.2264008828831828e-05 0.0000000000000000e+00  -1.9972136361285068e-05 1.8537734006118058e-03 0.0000000000000000e+00  -5.4325583867833970e-06 1.9088063959594011e-04 0.0000000000000000e+00  -7.5045121259613753e-06 2.7581495947222328e-04 0.0000000000000000e+00  -1.9348937622800160e-05 1.7260468769022016e-03 0.0000000000000000e+00  -9.7701058737996528e-06 5.3771390903423872e-04 0.0000000000000000e+00  -1.8002150305846889e-05 1.4696252624619788e-03 0.0000000000000000e+00  -7.9182410545067856e-06 3.6913860093573041e-04 0.0000000000000000e+00  -1.1948033363243737e-05 6.5129874902964866e-04 0.0000000000000000e+00  -1.7259488977986284e-05 1.3411612104711683e-03 0.0000000000000000e+00  -1.8695536199912785e-05 1.5979747669353642e-03 0.0000000000000000e+00  -1.3079290041597115e-05 7.7181011661189782e-04 0.0000000000000000e+00  -1.6455681667939374e-05 1.2128488887379221e-03 0.0000000000000000e+00  -1.3009770627170635e-05 8.9052792422582045e-04 0.0000000000000000e+00  -1.6688015561288247e-05 1.0876973558748948e-03 0.0000000000000000e+00  -1.4812581100994133e-05 9.8477264095401086e-04 0.0000000000000000e+00  -9.8893944402493969e-06 4.4779453283823063e-04 0.0000000000000000e+00  -2.1516677141777175e-05 2.2090403517209872e-03 0.0000000000000000e+00  -4.9457831967811776e-06 1.3045391373059845e-04 0.0000000000000000e+00  5.9608869471448098e-06 2.3644753042424732e-03 0.0000000000000000e+00  5.0209615230360414e-06 1.8365607200521798e-05 0.0000000000000000e+00  4.5402707718588460e-06 1.9176581122791003e-03 0.0000000000000000e+00  3.8888276645910235e-06 2.0449071495770737e-03 0.0000000000000000e+00  -1.4337433490887029e-05 5.8267009046403569e-05 0.0000000000000000e+00  -2.3423846217787871e-05 2.3143277386512948e-04 0.0000000000000000e+00  6.6188937024833319e-06 1.5339535677892460e-03 0.0000000000000000e+00  5.2112284640694483e-06 1.7900970362694968e-03 0.0000000000000000e+00  -3.3755078220586879e-05 5.9280339974066606e-04 0.0000000000000000e+00  7.3437141139787080e-06 1.4055118121456718e-03 0.0000000000000000e+00  -2.6842060314811988e-05 3.2365814771674324e-04 0.0000000000000000e+00  -3.5809584995800833e-05 7.1117062400970449e-04 0.0000000000000000e+00  8.0706780643488799e-06 1.2770759890000033e-03 0.0000000000000000e+00  5.9054585394383608e-06 1.6621866145226168e-03 0.0000000000000000e+00  -4.2825221341659923e-05 8.3271513008637140e-04 0.0000000000000000e+00  8.7881139202792069e-06 1.1489655848367368e-03 0.0000000000000000e+00  -1.5658632902237058e-06 1.7400610674376575e-06 0.0000000000000000e+00  8.2119318203443349e-07 1.1982314732686204e-06 0.0000000000000000e+00  -4.3724446577215261e-05 2.4750720214936793e-03 0.0000000000000000e+00  -9.0596931609250671e-06 1.9089250030213161e-05 0.0000000000000000e+00  1.5181299368512553e-05 1.0358641803369713e-03 0.0000000000000000e