<?xml version="1.0"?>
<VTKFile type="UnstructuredGrid"  version="0.1"  >
<UnstructuredGrid>
<Piece  NumberOfPoints="1419" NumberOfCells="2698">
<Points>
<DataArray  type="Float64"  NumberOfComponents="3"  format="ascii">0 0 0  0 0.41 0  2.5 0 0  2.5 0.41 0  0.6 0.19 0  0.6 0.21 0  0.25 0.2 0  0.15 0.2 0  0.2489897948556636 0.21 0  0.2489897948556636 0.19 0  0.6 0.2 0  0 0.3807142857143437 0  0 0.3514285714286952 0  0 0.3221428571430699 0  0 0.29285714285744 0  0 0.2635714285718054 0  0 0.2342857142861561 0  0 0.2050000000005308 0  0 0.175714285714732 0  0 0.1464285714289574 0  0 0.1171428571431897 0  0 0.08785714285737878 0  0 0.05857142857161107 0  0 0.02928571428580012 0  0.03015443760436003 0 0  0.06140001986583606 0 0  0.09377624077125973 0 0  0.1273239957535082 0 0  0.1620856860351972 0 0  0.1981052433264291 0 0  0.235428184091502 0 0  0.2741016576309132 0 0  0.3141745521465447 0 0  0.3556974926295285 0 0  0.3987229542472677 0 0  0.4433053055141081 0 0  0.4895008759286886 0 0  0.5373680609405097 0 0  0.5869673343216626 0 0  0.6383613676634521 0 0  0.6916151138468254 0 0  0.7467958595648856 0 0  0.8039733463919316 0 0  0.8632198139502143 0 0  0.9246101326867038 0 0  0.9882218810934433 0 0  1.054135445558498 0 0  1.122434100542598 0 0  1.193204177141305 0 0  1.266535089879536 0 0  1.342519516046404 0 0  1.421253448503939 0 0  1.502836389106271 0 0  1.587371439758838 0 0  1.674965418777374 0 0  1.765729001825544 0 0  1.859776908880082 0 0  1.957227977487062 0 0  2.058205329869943 0 0  2.162836591189951 0 0  2.271253957290865 0 0  2.383594446803425 0 0  2.5 0.1024999999997612 0  2.5 0.2049999999994743 0  2.5 0.3074999999997183 0  2.383594446803656 0.41 0  2.271253957291315 0.41 0  2.162836591190598 0.41 0  2.058205329870775 0.41 0  1.957227977488067 0.41 0  1.859776908881246 0.41 0  1.765729001826854 0.41 0  1.674965418778818 0.41 0  1.58737143976041 0.41 0  1.502836389107956 0.41 0  1.421253448505726 0.41 0  1.342519516048286 0.41 0  1.266535089881505 0.41 0  1.193204177143353 0.41 0  1.122434100544716 0.41 0  1.05413544556068 0.41 0  0.9882218810956305 0.41 0  0.9246101326886647 0.41 0  0.8632198139519631 0.41 0  0.8039733463934788 0.41 0  0.7467958595662458 0.41 0  0.6916151138480078 0.41 0  0.6383613676644679 0.41 0  0.5869673343225223 0.41 0  0.5373680609412221 0.41 0  0.4895008759292634 0.41 0  0.4433053055145528 0.41 0  0.3987229542475914 0.41 0  0.3556974926297398 0.41 0  0.3141745521466497 0.41 0  0.2741016576310038 0.41 0  0.2354281840915826 0.41 0  0.1981052433265003 0.41 0  0.1620856860352591 0.41 0  0.1273239957535623 0.41 0  0.09377624077128965 0.41 0  0.06140001986584975 0.41 0  0.03015443760436654 0.41 0  0.2497468076502589 0.2050254481002335 0  0.2497468076502614 0.1949745518997913 0  0.2469965252529372 0.1829317073451959 0  0.2439893735792749 0.1762316384219906 0  0.2400332147834255 0.1700443375285386 0  0.2352133972704371 0.1645032867342007 0  0.2296339016332438 0.1597280261969788 0  0.2234150974217223 0.1558215752574715 0  0.2166911463437691 0.1528682099456123 0  0.2096071079204251 0.1509316448471593 0  0.2023158100364996 0.1500536585536553 0  0.194974551899914 0.1502531923497262 0  0.1877417105387872 0.1515259415822739 0  0.1807733240461124 0.153844448527136 0  0.1742197252835808 0.15715869474974 0  0.1682222986673531 0.1613971801805478 0  0.162910430003803 0.1664684656256651 0  0.1583987151779087 0.1722631454351573 0  0.1547844879126891 0.178656207771761 0  0.1521457199348551 0.1855097315605723 0  0.1505393388476355 0.1926758619366523 0  0.1505393388476328 0.2073241380633295 0  0.1521457199348437 0.2144902684393899 0  0.1547844879126531 0.221343792228163 0  0.1583987151778488 0.2277368545647528 0  0.1629104300036858 0.2335315343742052 0  0.1682222986671726 0.2386028198193036 0  0.1742197252833576 0.2428413052501257 0  0.1807733240458683 0.2461555514727623 0  0.1877417105384929 0.2484740584176516 0  0.1949745518995776 0.2497468076502398 0  0.202315810036185 0.2499463414463592 0  0.2096071079201568 0.2490683551528932 0  0.2166911463435495 0.2471317900544655 0  0.2234150974215506 0.2441784247426195 0  0.2296339016331197 0.2402719738031125 0  0.2352133972703547 0.2354967132658811 0  0.2400332147833751 0.2299556624715287 0  0.2439893735792577 0.2237683615780412 0  0.246996525252926 0.2170682926548348 0  0.25645809709277 0.21 0  0.2639263993298655 0.21 0  0.271394701566961 0.21 0  0.2788630038040554 0.21 0  0.2863313060411479 0.21 0  0.2937996082782405 0.21 0  0.301267910515333 0.21 0  0.3087362127524279 0.21 0  0.3162045149895234 0.21 0  0.3236728172265972 0.21 0  0.3311411194636928 0.21 0  0.3386094217007701 0.21 0  0.3460777239378666 0.21 0  0.3535460261749672 0.21 0  0.3610143284120516 0.21 0  0.3684826306491596 0.21 0  0.3759509328862226 0.21 0  0.383419235123329 0.21 0  0.3908875373604028 0.21 0  0.3983558395975142 0.21 0  0.4058241418345938 0.21 0  0.4132924440716992 0.21 0  0.4207607463087888 0.21 0  0.4282290485459029 0.21 0  0.4356973507830418 0.21 0  0.4431656530201649 0.21 0  0.4506339552573136 0.21 0  0.4581022574944306 0.21 0  0.4655705597315852 0.21 0  0.4730388619686996 0.21 0  0.480507164205851 0.21 0  0.4879754664429498 0.21 0  0.4954437686800938 0.21 0  0.502912070917267 0.21 0  0.5103803731544119 0.21 0  0.5178486753915261 0.21 0  0.5253169776286404 0.21 0  0.5327852798657868 0.21 0  0.5402535821029386 0.21 0  0.54772188434007 0.21 0  0.5551901865771842 0.21 0  0.5626584888143201 0.21 0  0.5701267910514778 0.21 0  0.5775950932886138 0.21 0  0.5850633955257281 0.21 0  0.5925316977628483 0.21 0  0.6 0.2050000000000054 0  0.6 0.1950000000000217 0  0.5925316977628897 0.19 0  0.5850633955257988 0.19 0  0.5775950932887378 0.19 0  0.5701267910515998 0.19 0  0.5626584888145268 0.19 0  0.5551901865773963 0.19 0  0.547721884340339 0.19 0  0.5402535821032429 0.19 0  0.5327852798661811 0.19 0  0.5253169776290537 0.19 0  0.5178486753919799 0.19 0  0.5103803731549078 0.19 0  0.502912070917822 0.19 0  0.4954437686807294 0.19 0  0.4879754664436223 0.19 0  0.4805071642065402 0.19 0  0.4730388619694271 0.19 0  0.4655705597323621 0.19 0  0.4581022574952563 0.19 0  0.4506339552581777 0.19 0  0.4431656530210671 0.19 0  0.4356973507839815 0.19 0  0.4282290485468779 0.19 0  0.4207607463097617 0.19 0  0.4132924440726327 0.19 0  0.4058241418354857 0.19 0  0.3983558395983636 0.19 0  0.3908875373612097 0.19 0  0.3834192351240934 0.19 0  0.3759509328869369 0.19 0  0.3684826306498175 0.19 0  0.361014328412667 0.19 0  0.3535460261755617 0.19 0  0.3460777239384295 0.19 0  0.3386094217012945 0.19 0  0.3311411194641595 0.19 0  0.3236728172270245 0.19 0  0.3162045149898895 0.19 0  0.3087362127527544 0.19 0  0.3012679105156187 0.19 0  0.2937996082784807 0.19 0  0.2863313060413428 0.19 0  0.2788630038042048 0.19 0  0.2713947015670686 0.19 0  0.2639263993299336 0.19 0  0.2564580970927985 0.19 0  0.2607803159922026 0.2000727136295815 0  0.5887803774232762 0.2001272386983733 0  0.5745072403740523 0.2002044435018727 0  0.5511891430099709 0.2001122610077113 0  0.2751288526855082 0.20000000000002 0  0.5365194309847112 0.1999999999999436 0  0.2894621222999649 0.1998691686390484 0  0.5215828265105155 0.1999999999999228 0  0.3127789816668748 0.1998657885438805 0  0.3274069683451451 0.2000000000000796 0  0.5066462220363641 0.199999999999908 0  0.3650630746574081 0.199866017807523 0  0.476773013087985 0.1999999999998713 0  0.3417402379596385 0.1998691686391011 0  0.3796850840047755 0.200000000000134 0  0.4618364086138087 0.1999999999998546 0  0.4917096175621762 0.1999999999998808 0  0.3946216884789568 0.2000000000001512 0  0.446899804139621 0.1999999999998389 0  0.4089549580935208 0.1998691686391595 0  0.4322718174608562 0.200127451265745 0  0.4201487168029707 0.1999966199048527 0  0.3528922713220932 0.2000185703532356 0  0.5633122436674589 0.1999814296467508 0  0.3006558810093873 0.1999966199048318 0  0.5815926498168407 0.1966545283159175 0  0.2677053789419034 0.1964246479135325 0  0.5290511287476175 0.1970915826863981 0  0.5439877332217911 0.197091582686394 0  0.2825131256993216 0.2035478995978015 0  0.3199386661080599 0.202908417313604 0  0.4842413153250809 0.1970915826863873 0  0.5141145242734466 0.1970915826863843 0  0.3722167817676917 0.2029084173136195 0  0.4693047108508938 0.1970915826863783 0  0.3348752705822316 0.202908417313609 0  0.3871533862418661 0.2029084173136212 0  0.4543681063767183 0.1970915826863795 0  0.4991779197992749 0.1970915826863902 0  0.4020059614928624 0.203547899597858 0  0.4394315019025246 0.1970915826863714 0  0.2550657455369551 0.2034088125358657 0  0.2548908499171161 0.1966940311614271 0  0.5946539510196798 0.2024302972968126 0  0.267698176732111 0.2039977513680092 0  0.4261685417851465 0.196409292431739 0  0.3590076176283495 0.196411355804271 0  0.5571672426447437 0.2036011176410121 0  0.3066757059912147 0.1964092924317024 0  0.594380730180568 0.1966558399668133 0  0.4842413153245942 0.2040749161535287 0  0.4693047108503577 0.2040749161535231 0  0.3871533862424271 0.1959250838464788 0  0.372246743208829 0.1959123236376545 0  0.5141145242731028 0.2040749161535395 0  0.4543681063761134 0.2040749161535186 0  0.4019979587101454 0.1959834479682427 0  0.4394608940728603 0.2040870543693135 0  0.5439623148931173 0.2040856076781014 0  0.5290511287473298 0.2040749161535501 0  0.4991779197988497 0.2040749161535382 0  0.3347912413592433 0.1959225448935183 0  0.3199680582793816 0.1959123018030061 0  0.2825051229162361 0.1959834479681729 0  0.3590471196690275 0.2036304442587945 0  0.5571594006495384 0.1963685282145804 0  0.3067669986803285 0.203627750582736 0  0.4262598344738712 0.2036568242185335 0  0.5814408164431408 0.2041285596160068 0  0.5688286748170428 0.1961819304477386 0  0.4145905603063645 0.2038180695522843 0  0.3473758401724931 0.2038180695522752 0  0.2950977245128307 0.2038180695522663 0  0.5688286748170693 0.203818069552238 0  0.2950977245127906 0.1961819304477774 0  0.3473758401723931 0.1961819304478349 0  0.4145905603061963 0.1961819304479011 0  0.2601812407614425 0.2056861609747042
[...]
<PointData  Vectors="f_40-1"> 
<DataArray  type="Float64"  Name="f_40-1"  NumberOfComponents="3" format="ascii">0.0000000000000000e+00 0.0000000000000000e+00 0.0000000000000000e+00  0.0000000000000000e+00 0.0000000000000000e+00 0.0000000000000000e+00  0.0000000000000000e+00 0.0000000000000000e+00 0.0000000000000000e+00  0.0000000000000000e+00 0.0000000000000000e+00 0.0000000000000000e+00  6.9577241983639427e-05 2.4211354396943899e-03 0.0000000000000000e+00  -1.0121642155086603e-04 2.4208748332990733e-03 0.0000000000000000e+00  0.0000000000000000e+00 0.0000000000000000e+00 0.0000000000000000e+00  0.0000000000000000e+00 0.0000000000000000e+00 0.0000000000000000e+00  0.0000000000000000e+00 0.0000000000000000e+00 0.0000000000000000e+00  0.0000000000000000e+00 0.0000000000000000e+00 0.0000000000000000e+00  -1.5892672085351313e-05 2.4209966282003254e-03 0.0000000000000000e+00  0.0000000000000000e+00 0.0000000000000000e+00 0.0000000000000000e+00  0.0000000000000000e+00 0.0000000000000000e+00 0.0000000000000000e+00  0.0000000000000000e+00 0.0000000000000000e+00 0.0000000000000000e+00  0.0000000000000000e+00 0.0000000000000000e+00 0.0000000000000000e+00  0.0000000000000000e+00 0.0000000000000000e+00 0.0000000000000000e+00  0.0000000000000000e+00 0.0000000000000000e+00 0.0000000000000000e+00  0.0000000000000000e+00 0.0000000000000000e+00 0.0000000000000000e+00  0.0000000000000000e+00 0.0000000000000000e+00 0.0000000000000000e+00  0.0000000000000000e+00 0.0000000000000000e+00 0.0000000000000000e+00  0.0000000000000000e+00 0.0000000000000000e+00 0.0000000000000000e+00  0.0000000000000000e+00 0.0000000000000000e+00 0.0000000000000000e+00  0.0000000000000000e+00 0.0000000000000000e+00 0.0000000000000000e+00  0.0000000000000000e+00 0.0000000000000000e+00 0.0000000000000000e+00  0.0000000000000000e+00 0.0000000000000000e+00 0.0000000000000000e+00  0.0000000000000000e+00 0.0000000000000000e+00 0.0000000000000000e+00  0.0000000000000000e+00 0.0000000000000000e+00 0.0000000000000000e+00  0.0000000000000000e+00 0.0000000000000000e+00 0.0000000000000000e+00  0.0000000000000000e+00 0.0000000000000000e+00 0.0000000000000000e+00  0.0000000000000000e+00 0.0000000000000000e+00 0.0000000000000000e+00  0.0000000000000000e+00 0.0000000000000000e+00 0.0000000000000000e+00  0.0000000000000000e+00 0.0000000000000000e+00 0.0000000000000000e+00  0.0000000000000000e+00 0.0000000000000000e+00 0.0000000000000000e+00  0.0000000000000000e+00 0.0000000000000000e+00 0.0000000000000000e+00  0.0000000000000000e+00 0.0000000000000000e+00 0.0000000000000000e+00  0.0000000000000000e+00 0.0000000000000000e+00 0.0000000000000000e+00  0.0000000000000000e+00 0.0000000000000000e+00 0.0000000000000000e+00  0.0000000000000000e+00 0.0000000000000000e+00 0.0000000000000000e+00  0.0000000000000000e+00 0.0000000000000000e+00 0.0000000000000000e+00  0.0000000000000000e+00 0.0000000000000000e+00 0.0000000000000000e+00  0.0000000000000000e+00 0.0000000000000000e+00 0.0000000000000000e+00  0.0000000000000000e+00 0.0000000000000000e+00 0.0000000000000000e+00  0.0000000000000000e+00 0.0000000000000000e+00 0.0000000000000000e+00  0.0000000000000000e+00 0.0000000000000000e+00 0.0000000000000000e+00  0.0000000000000000e+00 0.0000000000000000e+00 0.0000000000000000e+00  0.0000000000000000e+00 0.0000000000000000e+00 0.0000000000000000e+00  0.0000000000000000e+00 0.0000000000000000e+00 0.0000000000000000e+00  0.0000000000000000e+00 0.0000000000000000e+00 0.0000000000000000e+00  0.0000000000000000e+00 0.0000000000000000e+00 0.0000000000000000e+00  0.0000000000000000e+00 0.0000000000000000e+00 0.0000000000000000e+00  0.0000000000000000e+00 0.0000000000000000e+00 0.0000000000000000e+00  0.0000000000000000e+00 0.0000000000000000e+00 0.0000000000000000e+00  0.0000000000000000e+00 0.0000000000000000e+00 0.0000000000000000e+00  0.0000000000000000e+00 0.0000000000000000e+00 0.0000000000000000e+00  0.0000000000000000e+00 0.0000000000000000e+00 0.0000000000000000e+00  0.0000000000000000e+00 0.0000000000000000e+00 0.0000000000000000e+00  0.0000000000000000e+00 0.0000000000000000e+00 0.0000000000000000e+00  0.0000000000000000e+00 0.0000000000000000e+00 0.0000000000000000e+00  0.0000000000000000e+00 0.0000000000000000e+00 0.0000000000000000e+00  0.0000000000000000e+00 0.0000000000000000e+00 0.0000000000000000e+00  0.0000000000000000e+00 0.0000000000000000e+00 0.0000000000000000e+00  0.0000000000000000e+00 0.0000000000000000e+00 0.0000000000000000e+00  0.0000000000000000e+00 0.0000000000000000e+00 0.0000000000000000e+00  0.0000000000000000e+00 0.0000000000000000e+00 0.0000000000000000e+00  0.0000000000000000e+00 0.0000000000000000e+00 0.0000000000000000e+00  0.0000000000000000e+00 0.0000000000000000e+00 0.0000000000000000e+00  0.0000000000000000e+00 0.0000000000000000e+00 0.0000000000000000e+00  0.0000000000000000e+00 0.0000000000000000e+00 0.0000000000000000e+00  0.0000000000000000e+00 0.0000000000000000e+00 0.0000000000000000e+00  0.0000000000000000e+00 0.0000000000000000e+00 0.0000000000000000e+00  0.0000000000000000e+00 0.0000000000000000e+00 0.0000000000000000e+00  0.0000000000000000e+00 0.0000000000000000e+00 0.0000000000000000e+00  0.0000000000000000e+00 0.0000000000000000e+00 0.0000000000000000e+00  0.0000000000000000e+00 0.0000000000000000e+00 0.0000000000000000e+00  0.0000000000000000e+00 0.0000000000000000e+00 0.0000000000000000e+00  0.0000000000000000e+00 0.0000000000000000e+00 0.0000000000000000e+00  0.0000000000000000e+00 0.0000000000000000e+00 0.0000000000000000e+00  0.0000000000000000e+00 0.0000000000000000e+00 0.0000000000000000e+00  0.0000000000000000e+00 0.0000000000000000e+00 0.0000000000000000e+00  0.0000000000000000e+00 0.0000000000000000e+00 0.0000000000000000e+00  0.0000000000000000e+00 0.0000000000000000e+00 0.0000000000000000e+00  0.0000000000000000e+00 0.0000000000000000e+00 0.0000000000000000e+00  0.0000000000000000e+00 0.0000000000000000e+00 0.0000000000000000e+00  0.0000000000000000e+00 0.0000000000000000e+00 0.0000000000000000e+00  0.0000000000000000e+00 0.0000000000000000e+00 0.0000000000000000e+00  0.0000000000000000e+00 0.0000000000000000e+00 0.0000000000000000e+00  0.0000000000000000e+00 0.0000000000000000e+00 0.0000000000000000e+00  0.0000000000000000e+00 0.0000000000000000e+00 0.0000000000000000e+00  0.0000000000000000e+00 0.0000000000000000e+00 0.0000000000000000e+00  0.0000000000000000e+00 0.0000000000000000e+00 0.0000000000000000e+00  0.0000000000000000e+00 0.0000000000000000e+00 0.0000000000000000e+00  0.0000000000000000e+00 0.0000000000000000e+00 0.0000000000000000e+00  0.0000000000000000e+00 0.0000000000000000e+00 0.0000000000000000e+00  0.0000000000000000e+00 0.0000000000000000e+00 0.0000000000000000e+00  0.0000000000000000e+00 0.0000000000000000e+00 0.0000000000000000e+00  0.0000000000000000e+00 0.0000000000000000e+00 0.0000000000000000e+00  0.0000000000000000e+00 0.0000000000000000e+00 0.0000000000000000e+00  0.0000000000000000e+00 0.0000000000000000e+00 0.0000000000000000e+00  0.0000000000000000e+00 0.0000000000000000e+00 0.0000000000000000e+00  0.0000000000000000e+00 0.0000000000000000e+00 0.0000000000000000e+00  0.0000000000000000e+00 0.0000000000000000e+00 0.0000000000000000e+00  0.0000000000000000e+00 0.0000000000000000e+00 0.0000000000000000e+00  0.0000000000000000e+00 0.0000000000000000e+00 0.0000000000000000e+00  0.0000000000000000e+00 0.0000000000000000e+00 0.0000000000000000e+00  0.0000000000000000e+00 0.0000000000000000e+00 0.0000000000000000e+00  0.0000000000000000e+00 0.0000000000000000e+00 0.0000000000000000e+00  0.0000000000000000e+00 0.0000000000000000e+00 0.0000000000000000e+00  0.0000000000000000e+00 0.0000000000000000e+00 0.0000000000000000e+00  0.0000000000000000e+00 0.0000000000000000e+00 0.0000000000000000e+00  0.0000000000000000e+00 0.0000000000000000e+00 0.0000000000000000e+00  0.0000000000000000e+00 0.0000000000000000e+00 0.0000000000000000e+00  0.0000000000000000e+00 0.0000000000000000e+00 0.0000000000000000e+00  0.0000000000000000e+00 0.0000000000000000e+00 0.0000000000000000e+00  0.0000000000000000e+00 0.0000000000000000e+00 0.0000000000000000e+00  0.0000000000000000e+00 0.0000000000000000e+00 0.0000000000000000e+00  0.0000000000000000e+00 0.0000000000000000e+00 0.0000000000000000e+00  0.0000000000000000e+00 0.0000000000000000e+00 0.0000000000000000e+00  0.0000000000000000e+00 0.0000000000000000e+00 0.0000000000000000e+00  0.0000000000000000e+00 0.0000000000000000e+00 0.0000000000000000e+00  0.0000000000000000e+00 0.0000000000000000e+00 0.0000000000000000e+00  0.0000000000000000e+00 0.0000000000000000e+00 0.0000000000000000e+00  0.0000000000000000e+00 0.0000000000000000e+00 0.0000000000000000e+00  0.0000000000000000e+00 0.0000000000000000e+00 0.0000000000000000e+00  0.0000000000000000e+00 0.0000000000000000e+00 0.0000000000000000e+00  0.0000000000000000e+00 0.0000000000000000e+00 0.0000000000000000e+00  0.0000000000000000e+00 0.0000000000000000e+00 0.0000000000000000e+00  0.0000000000000000e+00 0.0000000000000000e+00 0.0000000000000000e+00  0.0000000000000000e+00 0.0000000000000000e+00 0.0000000000000000e+00  0.0000000000000000e+00 0.0000000000000000e+00 0.0000000000000000e+00  0.0000000000000000e+00 0.0000000000000000e+00 0.0000000000000000e+00  0.0000000000000000e+00 0.0000000000000000e+00 0.0000000000000000e+00  0.0000000000000000e+00 0.0000000000000000e+00 0.0000000000000000e+00  0.0000000000000000e+00 0.0000000000000000e+00 0.0000000000000000e+00  0.0000000000000000e+00 0.0000000000000000e+00 0.0000000000000000e+00  0.0000000000000000e+00 0.0000000000000000e+00 0.0000000000000000e+00  0.0000000000000000e+00 0.0000000000000000e+00 0.0000000000000000e+00  0.0000000000000000e+00 0.0000000000000000e+00 0.0000000000000000e+00  0.0000000000000000e+00 0.0000000000000000e+00 0.0000000000000000e+00  0.0000000000000000e+00 0.0000000000000000e+00 0.0000000000000000e+00  0.0000000000000000e+00 0.0000000000000000e+00 0.0000000000000000e+00  0.0000000000000000e+00 0.0000000000000000e+00 0.0000000000000000e+00  0.0000000000000000e+00 0.0000000000000000e+00 0.0000000000000000e+00  0.0000000000000000e+00 0.0000000000000000e+00 0.0000000000000000e+00  -6.5969681134584790e-06 6.4613572921140506e-06 0.0000000000000000e+00  -1.3975609240604740e-05 1.4068938028520262e-05 0.0000000000000000e+00  -2.0462803361153420e-05 2.6230782704564947e-05 0.0000000000000000e+00  -2.7359776323310371e-05 4.3225568824100879e-05 0.0000000000000000e+00  -3.3071585971137005e-05 6.4153391081756193e-05 0.0000000000000000e+00  -3.9368113874941513e-05 8.9375761877232910e-05 0.0000000000000000e+00  -4.4391563886775397e-05 1.1769250775531910e-04 0.0000000000000000e+00  -4.9151953841123033e-05 1.5000974070844230e-04 0.0000000000000000e+00  -5.4459124167504120e-05 1.8529068903923968e-04 0.0000000000000000e+00  -5.8447600302482390e-05 2.2356906424138843e-04 0.0000000000000000e+00  -6.3123902653873575e-05 2.6475688328581200e-04 0.0000000000000000e+00  -6.6583793358482611e-05 3.0848941911047685e-04 0.0000000000000000e+00  -7.0484759486043661e-05 3.5464521891471546e-04 0.0000000000000000e+00  -7.3527064823382193e-05 4.0268707783809013e-04 0.0000000000000000e+00  -7.6354810766734668e-05 4.5297680112620038e-04 0.0000000000000000e+00  -7.9410415729717009e-05 5.0489621532466935e-04 0.0000000000000000e+00  -8.1673304602392831e-05 5.5840038876833070e-04 0.0000000000000000e+00  -8.4209802361569471e-05 6.1341916352502428e-04 0.0000000000000000e+00  -8.6060237051691915e-05 6.6966181965186851e-04 0.0000000000000000e+00  -8.8087428929219642e-05 7.2705198450641036e-04 0.0000000000000000e+00  -8.9647224695065008e-05 7.8542864697129968e-04 0.0000000000000000e+00  -9.1234619866192176e-05 8.4473717136757792e-04 0.0000000000000000e+00  -9.2479459732129136e-05 9.0467474201159491e-04 0.0000000000000000e+00  -9.3591562674521782e-05 9.6538177409863596e-04 0.0000000000000000e+00  -9.4723364051160224e-05 1.0265832573779421e-03 0.0000000000000000e+00  -9.5615088286957198e-05 1.0883081324360318e-03 0.0000000000000000e+00  -9.6439467512756687e-05 1.1504850992380537e-03 0.0000000000000000e+00  -9.7126010152172659e-05 1.2129706733557729e-03 0.0000000000000000e+00  -9.7747351116114466e-05 1.2757947123877714e-03 0.0000000000000000e+00  -9.8262413386686917e-05 1.3388258289564253e-03 0.0000000000000000e+00  -9.8719583077372600e-05 1.4020852307561127e-03 0.0000000000000000e+00  -9.9094158907225090e-05 1.4654653759794943e-03 0.0000000000000000e+00  -9.9420944096706391e-05 1.5289860536905112e-03 0.0000000000000000e+00  -9.9684680345478308e-05 1.5925631470227629e-03 0.0000000000000000e+00  -9.9908235334771845e-05 1.6562189413915217e-03 0.0000000000000000e+00  -1.0009226550115524e-04 1.7198940507369797e-03 0.0000000000000000e+00  -1.0024901069924959e-04 1.7836031775984337e-03 0.0000000000000000e+00  -1.0038199086581881e-04 1.8473129225259389e-03 0.0000000000000000e+00  -1.0049721899622282e-04 1.9110332166529767e-03 0.0000000000000000e+00  -1.0060153464971315e-04 1.9747495969912108e-03 0.0000000000000000e+00  -1.0069835580933371e-04 2.0384663127585947e-03 0.0000000000000000e+00  -1.0079270373617335e-04 2.1021817862541064e-03 0.0000000000000000e+00  -1.0088170110406583e-04 2.1659033592217728e-03 0.0000000000000000e+00  -1.0097295113643516e-04 2.2296303503490707e-03 0.0000000000000000e+00  -1.0106445072210715e-04 2.2933722990912632e-03 0.0000000000000000e+00  -1.0114985658696884e-04 2.3571244703841335e-03 0.0000000000000000e+00  -5.8571484970146675e-05 2.4209351488289734e-03 0.0000000000000000e+00  2.6815223141438029e-05 2.4210606941341938e-03 0.0000000000000000e+00  6.9619974236549058e-05 2.3573254843996848e-03 0.0000000000000000e+00  6.9685661766033771e-05 2.2935557000776374e-03 0.0000000000000000e+00  6.9758699546984174e-05 2.2298024696278118e-03 0.0000000000000000e+00  6.9832231908117389e-05 2.1660558279294664e-03 0.0000000000000000e+00  6.9910946432177718e-05 2.1023125035298583e-03 0.0000000000000000e+00  6.9999745366110784e-05 2.0385703060962733e-03 0.0000000000000000e+00  7.0091933006478219e-05 1.9748250165215159e-03 0.0000000000000000e+00  7.0191779545346480e-05 1.9110787646456093e-03 0.0000000000000000e+00  7.0290903890043427e-05 1.8473275193598979e-03 0.0000000000000000e+00  7.0395155658853990e-05 1.7835771237189385e-03 0.0000000000000000e+00  7.0488178938893386e-05 1.7198324029097027e-03 0.0000000000000000e+00  7.0586845426994326e-05 1.6561075578030485e-03 0.0000000000000000e+00  7.0655607848057553e-05 1.5924133175693337e-03 0.0000000000000000e+00  7.0730705795046982e-05 1.5287777884529100e-03 0.0000000000000000e+00  7.0746288184897309e-05 1.4652156962674310e-03 0.0000000000000000e+00  7.0775418704281844e-05 1.4017724913182228e-03 0.0000000000000000e+00  7.0707900635301891e-05 1.3384681145472688e-03 0.0000000000000000e+00  7.0668403985882610e-05 1.2753646836158752e-03 0.0000000000000000e+00  7.0487497374048365e-05 1.2124894139242150e-03 0.0000000000000000e+00  7.0356180226489198e-05 1.1499198171806347e-03 0.0000000000000000e+00  7.0023180440120829e-05 1.0876889945282183e-03 0.0000000000000000e+00  6.9766929712578865e-05 1.0258931407461293e-03 0.0000000000000000e+00  6.9252791224967198e-05 9.6458566905417524e-04 0.0000000000000000e+00  6.8799065995288149e-05 9.0380190685628871e-04 0.0000000000000000e+00  6.8261015896597870e-05 8.4378849061818035e-04 0.0000000000000000e+00  6.7429025590300882e-05 7.8436972119119198e-04 0.0000000000000000e+00  6.6599998914845023e-05 7.2593211071932703e-04 0.0000000000000000e+00  6.5497057250592139e-05 6.6840829345821975e-04 0.0000000000000000e+00  6.4349820184008224e-05 6.1208729960516932e-04 0.0000000000000000e+00  6.2890635507104016e-05 5.5697163667841395e-04 0.0000000000000000e+00  6.1380623476598351e-05 5.0329530193912177e-04 0.0000000000000000e+00  5.9313920347616802e-05 4.5138197185931551e-04 0.0000000000000000e+00  5.7472680020808348e-05 4.0096047902600046e-04 0.0000000000000000e+00  5.5444654246783383e-05 3.5284911443967103e-04 0.0000000000000000e+00  5.2698890809517584e-05 3.0642888127865148e-04 0.0000000000000000e+00  5.0031472785469143e-05 2.6267273031011770e-04 0.0000000000000000e+00  4.6838881509917207e-05 2.2135818252610965e-04 0.0000000000000000e+00  4.3666883271882459e-05 1.8284121807807352e-04 0.0000000000000000e+00  3.9595641551119639e-05 1.4763136614332991e-04 0.0000000000000000e+00  3.6028225406060605e-05 1.1515225997919911e-04 0.0000000000000000e+00  3.2246531486649256e-05 8.6739431256394240e-05 0.0000000000000000e+00  2.7302600537960195e-05 6.1299069917722393e-05 0.0000000000000000e+00  2.2723384804586794e-05 4.0188629750918800e-05 0.0000000000000000e+00  1.7079820600159574e-05 2.3330992156661937e-05 0.0000000000000000e+00  1.1957813315129224e-05 1.1083570192513453e-05 0.0000000000000000e+00  5.6730473557432245e-06 3.5864698962175997e-06 0.0000000000000000e+00  -5.5995801364789485e-07 5.4146975480172761e-06 0.0000000000000000e+00  -1.6845866269365826e-05 2.3251922413829022e-03 0.0000000000000000e+00  -1.7339404777396640e-05 2.2033571298931691e-03 0.0000000000000000e+00  -1.6273984110082597e-05 2.0043729110419055e-03 0.0000000000000000e+00  -1.9179841367711148e-06 2.9821761475515274e-05 0.0000000000000000e+00  -1.5114413892356250e-05 1.8791827120324251e-03 0.0000000000000000e+00  -2.7599935925565446e-06 7.0210762240363364e-05 0.0000000000000000e+00  -1.4877121786715978e-05 1.7517083460751521e-03 0.0000000000000000e+00  -4.4211630339487660e-06 1.6541573112915456e-04 0.0000000000000000e+00  -6.1613559715482764e-06 2.4101439274983548e-04 0.0000000000000000e+00  -1.4596938460205578e-05 1.6242826367216621e-03 0.0000000000000000e+00  -7.8261482939090477e-06 4.7897049022916564e-04 0.0000000000000000e+00  -1.3877738116259604e-05 1.3701455926040319e-03 0.0000000000000000e+00  -6.4030645462983196e-06 3.2501269269355753e-04 0.0000000000000000e+00  -9.6567891288836747e-06 5.8415675799504462e-04 0.0000000000000000e+00  -1.3429334521987981e-05 1.2439383283689022e-03 0.0000000000000000e+00  -1.4265538591241520e-05 1.4970262382229640e-03 0.0000000000000000e+00  -1.0512707251759879e-05 6.9691377981926110e-04 0.0000000000000000e+00  -1.2911168762616661e-05 1.1187919233662143e-03 0.0000000000000000e+00  -1.0232152909756330e-05 8.0909562813940032e-04 0.0000000000000000e+00  -1.3380869382856442e-05 9.9771685693640535e-04 0.0000000000000000e+00  -1.1772841385958771e-05 8.9895521229931311e-04 0.0000000000000000e+00  -8.0767776659068954e-06 3.9656603437825572e-04 0.0000000000000000e+00  -1.5308675732165850e-05 2.1078240069396341e-03 0.0000000000000000e+00  -4.0556744692475856e-06 1.1225717098638552e-04 0.0000000000000000e+00  1.2887279984722856e-05 2.2638627306978886e-03 0.0000000000000000e+00  4.4830275485214958e-06 1.5057093967067483e-05 0.0000000000000000e+00  9.8174060902252719e-06 1.8154452901392234e-03 0.0000000000000000e+00  9.6032059965635750e-06 1.9429284435332067e-03 0.0000000000000000e+00  -1.2246996792250192e-05 4.9740670425905731e-05 0.0000000000000000e+00  -2.0417135078252038e-05 2.0162349104704892e-04 0.0000000000000000e+00  1.0590820052124292e-05 1.4334957891091675e-03 0.0000000000000000e+00  1.0056328028927506e-05 1.6879754507007161e-03 0.0000000000000000e+00  -2.9956532507008692e-05 5.3006695885402422e-04 0.0000000000000000e+00  1.0864874739452006e-05 1.3068998053987833e-03 0.0000000000000000e+00  -2.3530701497868949e-05 2.8418245085854577e-04 0.0000000000000000e+00  -3.1888660541663254e-05 6.4024289764561427e-04 0.0000000000000000e+00  1.1128931987093465e-05 1.1811602128555371e-03 0.0000000000000000e+00  1.0317313954252896e-05 1.5606047842816185e-03 0.0000000000000000e+00  -3.8518605332601183e-05 7.5459034237128754e-04 0.0000000000000000e+00  1.1377019099317935e-05 1.0567052018986183e-03 0.0000000000000000e+00  -1.1485209291518157e-06 1.5418942289996664e-06 0.0000000000000000e+00  8.8575737708810903e-07 7.7431046148785835e-07 0.0000000000000000e+00  -3.6578253944597360e-05 2.3753215921261880e-03 0.0000000000000000e+00  -7.6036253199604502e-06 1.6260021633766698e-05 0.0000000000000000e+00  1.7112262759874753e-05 9.4767777559010469e-04 0.0000000000000000e