<?xml version="1.0"?>
<VTKFile type="UnstructuredGrid"  version="0.1"  >
<UnstructuredGrid>
<Piece  NumberOfPoints="1419" NumberOfCells="2698">
<Points>
<DataArray  type="Float64"  NumberOfComponents="3"  format="ascii">0 0 0  0 0.41 0  2.5 0 0  2.5 0.41 0  0.6 0.19 0  0.6 0.21 0  0.25 0.2 0  0.15 0.2 0  0.2489897948556636 0.21 0  0.2489897948556636 0.19 0  0.6 0.2 0  0 0.3807142857143437 0  0 0.3514285714286952 0  0 0.3221428571430699 0  0 0.29285714285744 0  0 0.2635714285718054 0  0 0.2342857142861561 0  0 0.2050000000005308 0  0 0.175714285714732 0  0 0.1464285714289574 0  0 0.1171428571431897 0  0 0.08785714285737878 0  0 0.05857142857161107 0  0 0.02928571428580012 0  0.03015443760436003 0 0  0.06140001986583606 0 0  0.09377624077125973 0 0  0.1273239957535082 0 0  0.1620856860351972 0 0  0.1981052433264291 0 0  0.235428184091502 0 0  0.2741016576309132 0 0  0.3141745521465447 0 0  0.3556974926295285 0 0  0.3987229542472677 0 0  0.4433053055141081 0 0  0.4895008759286886 0 0  0.5373680609405097 0 0  0.5869673343216626 0 0  0.6383613676634521 0 0  0.6916151138468254 0 0  0.7467958595648856 0 0  0.8039733463919316 0 0  0.8632198139502143 0 0  0.9246101326867038 0 0  0.9882218810934433 0 0  1.054135445558498 0 0  1.122434100542598 0 0  1.193204177141305 0 0  1.266535089879536 0 0  1.342519516046404 0 0  1.421253448503939 0 0  1.502836389106271 0 0  1.587371439758838 0 0  1.674965418777374 0 0  1.765729001825544 0 0  1.859776908880082 0 0  1.957227977487062 0 0  2.058205329869943 0 0  2.162836591189951 0 0  2.271253957290865 0 0  2.383594446803425 0 0  2.5 0.1024999999997612 0  2.5 0.2049999999994743 0  2.5 0.3074999999997183 0  2.383594446803656 0.41 0  2.271253957291315 0.41 0  2.162836591190598 0.41 0  2.058205329870775 0.41 0  1.957227977488067 0.41 0  1.859776908881246 0.41 0  1.765729001826854 0.41 0  1.674965418778818 0.41 0  1.58737143976041 0.41 0  1.502836389107956 0.41 0  1.421253448505726 0.41 0  1.342519516048286 0.41 0  1.266535089881505 0.41 0  1.193204177143353 0.41 0  1.122434100544716 0.41 0  1.05413544556068 0.41 0  0.9882218810956305 0.41 0  0.9246101326886647 0.41 0  0.8632198139519631 0.41 0  0.8039733463934788 0.41 0  0.7467958595662458 0.41 0  0.6916151138480078 0.41 0  0.6383613676644679 0.41 0  0.5869673343225223 0.41 0  0.5373680609412221 0.41 0  0.4895008759292634 0.41 0  0.4433053055145528 0.41 0  0.3987229542475914 0.41 0  0.3556974926297398 0.41 0  0.3141745521466497 0.41 0  0.2741016576310038 0.41 0  0.2354281840915826 0.41 0  0.1981052433265003 0.41 0  0.1620856860352591 0.41 0  0.1273239957535623 0.41 0  0.09377624077128965 0.41 0  0.06140001986584975 0.41 0  0.03015443760436654 0.41 0  0.2497468076502589 0.2050254481002335 0  0.2497468076502614 0.1949745518997913 0  0.2469965252529372 0.1829317073451959 0  0.2439893735792749 0.1762316384219906 0  0.2400332147834255 0.1700443375285386 0  0.2352133972704371 0.1645032867342007 0  0.2296339016332438 0.1597280261969788 0  0.2234150974217223 0.1558215752574715 0  0.2166911463437691 0.1528682099456123 0  0.2096071079204251 0.1509316448471593 0  0.2023158100364996 0.1500536585536553 0  0.194974551899914 0.1502531923497262 0  0.1877417105387872 0.1515259415822739 0  0.1807733240461124 0.153844448527136 0  0.1742197252835808 0.15715869474974 0  0.1682222986673531 0.1613971801805478 0  0.162910430003803 0.1664684656256651 0  0.1583987151779087 0.1722631454351573 0  0.1547844879126891 0.178656207771761 0  0.1521457199348551 0.1855097315605723 0  0.1505393388476355 0.1926758619366523 0  0.1505393388476328 0.2073241380633295 0  0.1521457199348437 0.2144902684393899 0  0.1547844879126531 0.221343792228163 0  0.1583987151778488 0.2277368545647528 0  0.1629104300036858 0.2335315343742052 0  0.1682222986671726 0.2386028198193036 0  0.1742197252833576 0.2428413052501257 0  0.1807733240458683 0.2461555514727623 0  0.1877417105384929 0.2484740584176516 0  0.1949745518995776 0.2497468076502398 0  0.202315810036185 0.2499463414463592 0  0.2096071079201568 0.2490683551528932 0  0.2166911463435495 0.2471317900544655 0  0.2234150974215506 0.2441784247426195 0  0.2296339016331197 0.2402719738031125 0  0.2352133972703547 0.2354967132658811 0  0.2400332147833751 0.2299556624715287 0  0.2439893735792577 0.2237683615780412 0  0.246996525252926 0.2170682926548348 0  0.25645809709277 0.21 0  0.2639263993298655 0.21 0  0.271394701566961 0.21 0  0.2788630038040554 0.21 0  0.2863313060411479 0.21 0  0.2937996082782405 0.21 0  0.301267910515333 0.21 0  0.3087362127524279 0.21 0  0.3162045149895234 0.21 0  0.3236728172265972 0.21 0  0.3311411194636928 0.21 0  0.3386094217007701 0.21 0  0.3460777239378666 0.21 0  0.3535460261749672 0.21 0  0.3610143284120516 0.21 0  0.3684826306491596 0.21 0  0.3759509328862226 0.21 0  0.383419235123329 0.21 0  0.3908875373604028 0.21 0  0.3983558395975142 0.21 0  0.4058241418345938 0.21 0  0.4132924440716992 0.21 0  0.4207607463087888 0.21 0  0.4282290485459029 0.21 0  0.4356973507830418 0.21 0  0.4431656530201649 0.21 0  0.4506339552573136 0.21 0  0.4581022574944306 0.21 0  0.4655705597315852 0.21 0  0.4730388619686996 0.21 0  0.480507164205851 0.21 0  0.4879754664429498 0.21 0  0.4954437686800938 0.21 0  0.502912070917267 0.21 0  0.5103803731544119 0.21 0  0.5178486753915261 0.21 0  0.5253169776286404 0.21 0  0.5327852798657868 0.21 0  0.5402535821029386 0.21 0  0.54772188434007 0.21 0  0.5551901865771842 0.21 0  0.5626584888143201 0.21 0  0.5701267910514778 0.21 0  0.5775950932886138 0.21 0  0.5850633955257281 0.21 0  0.5925316977628483 0.21 0  0.6 0.2050000000000054 0  0.6 0.1950000000000217 0  0.5925316977628897 0.19 0  0.5850633955257988 0.19 0  0.5775950932887378 0.19 0  0.5701267910515998 0.19 0  0.5626584888145268 0.19 0  0.5551901865773963 0.19 0  0.547721884340339 0.19 0  0.5402535821032429 0.19 0  0.5327852798661811 0.19 0  0.5253169776290537 0.19 0  0.5178486753919799 0.19 0  0.5103803731549078 0.19 0  0.502912070917822 0.19 0  0.4954437686807294 0.19 0  0.4879754664436223 0.19 0  0.4805071642065402 0.19 0  0.4730388619694271 0.19 0  0.4655705597323621 0.19 0  0.4581022574952563 0.19 0  0.4506339552581777 0.19 0  0.4431656530210671 0.19 0  0.4356973507839815 0.19 0  0.4282290485468779 0.19 0  0.4207607463097617 0.19 0  0.4132924440726327 0.19 0  0.4058241418354857 0.19 0  0.3983558395983636 0.19 0  0.3908875373612097 0.19 0  0.3834192351240934 0.19 0  0.3759509328869369 0.19 0  0.3684826306498175 0.19 0  0.361014328412667 0.19 0  0.3535460261755617 0.19 0  0.3460777239384295 0.19 0  0.3386094217012945 0.19 0  0.3311411194641595 0.19 0  0.3236728172270245 0.19 0  0.3162045149898895 0.19 0  0.3087362127527544 0.19 0  0.3012679105156187 0.19 0  0.2937996082784807 0.19 0  0.2863313060413428 0.19 0  0.2788630038042048 0.19 0  0.2713947015670686 0.19 0  0.2639263993299336 0.19 0  0.2564580970927985 0.19 0  0.2607803159922026 0.2000727136295815 0  0.5887803774232762 0.2001272386983733 0  0.5745072403740523 0.2002044435018727 0  0.5511891430099709 0.2001122610077113 0  0.2751288526855082 0.20000000000002 0  0.5365194309847112 0.1999999999999436 0  0.2894621222999649 0.1998691686390484 0  0.5215828265105155 0.1999999999999228 0  0.3127789816668748 0.1998657885438805 0  0.3274069683451451 0.2000000000000796 0  0.5066462220363641 0.199999999999908 0  0.3650630746574081 0.199866017807523 0  0.476773013087985 0.1999999999998713 0  0.3417402379596385 0.1998691686391011 0  0.3796850840047755 0.200000000000134 0  0.4618364086138087 0.1999999999998546 0  0.4917096175621762 0.1999999999998808 0  0.3946216884789568 0.2000000000001512 0  0.446899804139621 0.1999999999998389 0  0.4089549580935208 0.1998691686391595 0  0.4322718174608562 0.200127451265745 0  0.4201487168029707 0.1999966199048527 0  0.3528922713220932 0.2000185703532356 0  0.5633122436674589 0.1999814296467508 0  0.3006558810093873 0.1999966199048318 0  0.5815926498168407 0.1966545283159175 0  0.2677053789419034 0.1964246479135325 0  0.5290511287476175 0.1970915826863981 0  0.5439877332217911 0.197091582686394 0  0.2825131256993216 0.2035478995978015 0  0.3199386661080599 0.202908417313604 0  0.4842413153250809 0.1970915826863873 0  0.5141145242734466 0.1970915826863843 0  0.3722167817676917 0.2029084173136195 0  0.4693047108508938 0.1970915826863783 0  0.3348752705822316 0.202908417313609 0  0.3871533862418661 0.2029084173136212 0  0.4543681063767183 0.1970915826863795 0  0.4991779197992749 0.1970915826863902 0  0.4020059614928624 0.203547899597858 0  0.4394315019025246 0.1970915826863714 0  0.2550657455369551 0.2034088125358657 0  0.2548908499171161 0.1966940311614271 0  0.5946539510196798 0.2024302972968126 0  0.267698176732111 0.2039977513680092 0  0.4261685417851465 0.196409292431739 0  0.3590076176283495 0.196411355804271 0  0.5571672426447437 0.2036011176410121 0  0.3066757059912147 0.1964092924317024 0  0.594380730180568 0.1966558399668133 0  0.4842413153245942 0.2040749161535287 0  0.4693047108503577 0.2040749161535231 0  0.3871533862424271 0.1959250838464788 0  0.372246743208829 0.1959123236376545 0  0.5141145242731028 0.2040749161535395 0  0.4543681063761134 0.2040749161535186 0  0.4019979587101454 0.1959834479682427 0  0.4394608940728603 0.2040870543693135 0  0.5439623148931173 0.2040856076781014 0  0.5290511287473298 0.2040749161535501 0  0.4991779197988497 0.2040749161535382 0  0.3347912413592433 0.1959225448935183 0  0.3199680582793816 0.1959123018030061 0  0.2825051229162361 0.1959834479681729 0  0.3590471196690275 0.2036304442587945 0  0.5571594006495384 0.1963685282145804 0  0.3067669986803285 0.203627750582736 0  0.4262598344738712 0.2036568242185335 0  0.5814408164431408 0.2041285596160068 0  0.5688286748170428 0.1961819304477386 0  0.4145905603063645 0.2038180695522843 0  0.3473758401724931 0.2038180695522752 0  0.2950977245128307 0.2038180695522663 0  0.5688286748170693 0.203818069552238 0  0.2950977245127906 0.1961819304477774 0  0.3473758401723931 0.1961819304478349 0  0.4145905603061963 0.1961819304479011 0  0.2601812407614425 0.2056861609747042
[...]
<PointData  Vectors="f_40-1"> 
<DataArray  type="Float64"  Name="f_40-1"  NumberOfComponents="3" format="ascii">0.0000000000000000e+00 0.0000000000000000e+00 0.0000000000000000e+00  0.0000000000000000e+00 0.0000000000000000e+00 0.0000000000000000e+00  0.0000000000000000e+00 0.0000000000000000e+00 0.0000000000000000e+00  0.0000000000000000e+00 0.0000000000000000e+00 0.0000000000000000e+00  8.1262068651732854e-05 2.9065356741452774e-03 0.0000000000000000e+00  -1.2214167213456958e-04 2.9059612638878351e-03 0.0000000000000000e+00  0.0000000000000000e+00 0.0000000000000000e+00 0.0000000000000000e+00  0.0000000000000000e+00 0.0000000000000000e+00 0.0000000000000000e+00  0.0000000000000000e+00 0.0000000000000000e+00 0.0000000000000000e+00  0.0000000000000000e+00 0.0000000000000000e+00 0.0000000000000000e+00  -2.0529331570655761e-05 2.9062430490923779e-03 0.0000000000000000e+00  0.0000000000000000e+00 0.0000000000000000e+00 0.0000000000000000e+00  0.0000000000000000e+00 0.0000000000000000e+00 0.0000000000000000e+00  0.0000000000000000e+00 0.0000000000000000e+00 0.0000000000000000e+00  0.0000000000000000e+00 0.0000000000000000e+00 0.0000000000000000e+00  0.0000000000000000e+00 0.0000000000000000e+00 0.0000000000000000e+00  0.0000000000000000e+00 0.0000000000000000e+00 0.0000000000000000e+00  0.0000000000000000e+00 0.0000000000000000e+00 0.0000000000000000e+00  0.0000000000000000e+00 0.0000000000000000e+00 0.0000000000000000e+00  0.0000000000000000e+00 0.0000000000000000e+00 0.0000000000000000e+00  0.0000000000000000e+00 0.0000000000000000e+00 0.0000000000000000e+00  0.0000000000000000e+00 0.0000000000000000e+00 0.0000000000000000e+00  0.0000000000000000e+00 0.0000000000000000e+00 0.0000000000000000e+00  0.0000000000000000e+00 0.0000000000000000e+00 0.0000000000000000e+00  0.0000000000000000e+00 0.0000000000000000e+00 0.0000000000000000e+00  0.0000000000000000e+00 0.0000000000000000e+00 0.0000000000000000e+00  0.0000000000000000e+00 0.0000000000000000e+00 0.0000000000000000e+00  0.0000000000000000e+00 0.0000000000000000e+00 0.0000000000000000e+00  0.0000000000000000e+00 0.0000000000000000e+00 0.0000000000000000e+00  0.0000000000000000e+00 0.0000000000000000e+00 0.0000000000000000e+00  0.0000000000000000e+00 0.0000000000000000e+00 0.0000000000000000e+00  0.0000000000000000e+00 0.0000000000000000e+00 0.0000000000000000e+00  0.0000000000000000e+00 0.0000000000000000e+00 0.0000000000000000e+00  0.0000000000000000e+00 0.0000000000000000e+00 0.0000000000000000e+00  0.0000000000000000e+00 0.0000000000000000e+00 0.0000000000000000e+00  0.0000000000000000e+00 0.0000000000000000e+00 0.0000000000000000e+00  0.0000000000000000e+00 0.0000000000000000e+00 0.0000000000000000e+00  0.0000000000000000e+00 0.0000000000000000e+00 0.0000000000000000e+00  0.0000000000000000e+00 0.0000000000000000e+00 0.0000000000000000e+00  0.0000000000000000e+00 0.0000000000000000e+00 0.0000000000000000e+00  0.0000000000000000e+00 0.0000000000000000e+00 0.0000000000000000e+00  0.0000000000000000e+00 0.0000000000000000e+00 0.0000000000000000e+00  0.0000000000000000e+00 0.0000000000000000e+00 0.0000000000000000e+00  0.0000000000000000e+00 0.0000000000000000e+00 0.0000000000000000e+00  0.0000000000000000e+00 0.0000000000000000e+00 0.0000000000000000e+00  0.0000000000000000e+00 0.0000000000000000e+00 0.0000000000000000e+00  0.0000000000000000e+00 0.0000000000000000e+00 0.0000000000000000e+00  0.0000000000000000e+00 0.0000000000000000e+00 0.0000000000000000e+00  0.0000000000000000e+00 0.0000000000000000e+00 0.0000000000000000e+00  0.0000000000000000e+00 0.0000000000000000e+00 0.0000000000000000e+00  0.0000000000000000e+00 0.0000000000000000e+00 0.0000000000000000e+00  0.0000000000000000e+00 0.0000000000000000e+00 0.0000000000000000e+00  0.0000000000000000e+00 0.0000000000000000e+00 0.0000000000000000e+00  0.0000000000000000e+00 0.0000000000000000e+00 0.0000000000000000e+00  0.0000000000000000e+00 0.0000000000000000e+00 0.0000000000000000e+00  0.0000000000000000e+00 0.0000000000000000e+00 0.0000000000000000e+00  0.0000000000000000e+00 0.0000000000000000e+00 0.0000000000000000e+00  0.0000000000000000e+00 0.0000000000000000e+00 0.0000000000000000e+00  0.0000000000000000e+00 0.0000000000000000e+00 0.0000000000000000e+00  0.0000000000000000e+00 0.0000000000000000e+00 0.0000000000000000e+00  0.0000000000000000e+00 0.0000000000000000e+00 0.0000000000000000e+00  0.0000000000000000e+00 0.0000000000000000e+00 0.0000000000000000e+00  0.0000000000000000e+00 0.0000000000000000e+00 0.0000000000000000e+00  0.0000000000000000e+00 0.0000000000000000e+00 0.0000000000000000e+00  0.0000000000000000e+00 0.0000000000000000e+00 0.0000000000000000e+00  0.0000000000000000e+00 0.0000000000000000e+00 0.0000000000000000e+00  0.0000000000000000e+00 0.0000000000000000e+00 0.0000000000000000e+00  0.0000000000000000e+00 0.0000000000000000e+00 0.0000000000000000e+00  0.0000000000000000e+00 0.0000000000000000e+00 0.0000000000000000e+00  0.0000000000000000e+00 0.0000000000000000e+00 0.0000000000000000e+00  0.0000000000000000e+00 0.0000000000000000e+00 0.0000000000000000e+00  0.0000000000000000e+00 0.0000000000000000e+00 0.0000000000000000e+00  0.0000000000000000e+00 0.0000000000000000e+00 0.0000000000000000e+00  0.0000000000000000e+00 0.0000000000000000e+00 0.0000000000000000e+00  0.0000000000000000e+00 0.0000000000000000e+00 0.0000000000000000e+00  0.0000000000000000e+00 0.0000000000000000e+00 0.0000000000000000e+00  0.0000000000000000e+00 0.0000000000000000e+00 0.0000000000000000e+00  0.0000000000000000e+00 0.0000000000000000e+00 0.0000000000000000e+00  0.0000000000000000e+00 0.0000000000000000e+00 0.0000000000000000e+00  0.0000000000000000e+00 0.0000000000000000e+00 0.0000000000000000e+00  0.0000000000000000e+00 0.0000000000000000e+00 0.0000000000000000e+00  0.0000000000000000e+00 0.0000000000000000e+00 0.0000000000000000e+00  0.0000000000000000e+00 0.0000000000000000e+00 0.0000000000000000e+00  0.0000000000000000e+00 0.0000000000000000e+00 0.0000000000000000e+00  0.0000000000000000e+00 0.0000000000000000e+00 0.0000000000000000e+00  0.0000000000000000e+00 0.0000000000000000e+00 0.0000000000000000e+00  0.0000000000000000e+00 0.0000000000000000e+00 0.0000000000000000e+00  0.0000000000000000e+00 0.0000000000000000e+00 0.0000000000000000e+00  0.0000000000000000e+00 0.0000000000000000e+00 0.0000000000000000e+00  0.0000000000000000e+00 0.0000000000000000e+00 0.0000000000000000e+00  0.0000000000000000e+00 0.0000000000000000e+00 0.0000000000000000e+00  0.0000000000000000e+00 0.0000000000000000e+00 0.0000000000000000e+00  0.0000000000000000e+00 0.0000000000000000e+00 0.0000000000000000e+00  0.0000000000000000e+00 0.0000000000000000e+00 0.0000000000000000e+00  0.0000000000000000e+00 0.0000000000000000e+00 0.0000000000000000e+00  0.0000000000000000e+00 0.0000000000000000e+00 0.0000000000000000e+00  0.0000000000000000e+00 0.0000000000000000e+00 0.0000000000000000e+00  0.0000000000000000e+00 0.0000000000000000e+00 0.0000000000000000e+00  0.0000000000000000e+00 0.0000000000000000e+00 0.0000000000000000e+00  0.0000000000000000e+00 0.0000000000000000e+00 0.0000000000000000e+00  0.0000000000000000e+00 0.0000000000000000e+00 0.0000000000000000e+00  0.0000000000000000e+00 0.0000000000000000e+00 0.0000000000000000e+00  0.0000000000000000e+00 0.0000000000000000e+00 0.0000000000000000e+00  0.0000000000000000e+00 0.0000000000000000e+00 0.0000000000000000e+00  0.0000000000000000e+00 0.0000000000000000e+00 0.0000000000000000e+00  0.0000000000000000e+00 0.0000000000000000e+00 0.0000000000000000e+00  0.0000000000000000e+00 0.0000000000000000e+00 0.0000000000000000e+00  0.0000000000000000e+00 0.0000000000000000e+00 0.0000000000000000e+00  0.0000000000000000e+00 0.0000000000000000e+00 0.0000000000000000e+00  0.0000000000000000e+00 0.0000000000000000e+00 0.0000000000000000e+00  0.0000000000000000e+00 0.0000000000000000e+00 0.0000000000000000e+00  0.0000000000000000e+00 0.0000000000000000e+00 0.0000000000000000e+00  0.0000000000000000e+00 0.0000000000000000e+00 0.0000000000000000e+00  0.0000000000000000e+00 0.0000000000000000e+00 0.0000000000000000e+00  0.0000000000000000e+00 0.0000000000000000e+00 0.0000000000000000e+00  0.0000000000000000e+00 0.0000000000000000e+00 0.0000000000000000e+00  0.0000000000000000e+00 0.0000000000000000e+00 0.0000000000000000e+00  0.0000000000000000e+00 0.0000000000000000e+00 0.0000000000000000e+00  0.0000000000000000e+00 0.0000000000000000e+00 0.0000000000000000e+00  0.0000000000000000e+00 0.0000000000000000e+00 0.0000000000000000e+00  0.0000000000000000e+00 0.0000000000000000e+00 0.0000000000000000e+00  0.0000000000000000e+00 0.0000000000000000e+00 0.0000000000000000e+00  0.0000000000000000e+00 0.0000000000000000e+00 0.0000000000000000e+00  0.0000000000000000e+00 0.0000000000000000e+00 0.0000000000000000e+00  0.0000000000000000e+00 0.0000000000000000e+00 0.0000000000000000e+00  0.0000000000000000e+00 0.0000000000000000e+00 0.0000000000000000e+00  0.0000000000000000e+00 0.0000000000000000e+00 0.0000000000000000e+00  0.0000000000000000e+00 0.0000000000000000e+00 0.0000000000000000e+00  0.0000000000000000e+00 0.0000000000000000e+00 0.0000000000000000e+00  0.0000000000000000e+00 0.0000000000000000e+00 0.0000000000000000e+00  0.0000000000000000e+00 0.0000000000000000e+00 0.0000000000000000e+00  0.0000000000000000e+00 0.0000000000000000e+00 0.0000000000000000e+00  0.0000000000000000e+00 0.0000000000000000e+00 0.0000000000000000e+00  0.0000000000000000e+00 0.0000000000000000e+00 0.0000000000000000e+00  0.0000000000000000e+00 0.0000000000000000e+00 0.0000000000000000e+00  0.0000000000000000e+00 0.0000000000000000e+00 0.0000000000000000e+00  0.0000000000000000e+00 0.0000000000000000e+00 0.0000000000000000e+00  0.0000000000000000e+00 0.0000000000000000e+00 0.0000000000000000e+00  0.0000000000000000e+00 0.0000000000000000e+00 0.0000000000000000e+00  0.0000000000000000e+00 0.0000000000000000e+00 0.0000000000000000e+00  0.0000000000000000e+00 0.0000000000000000e+00 0.0000000000000000e+00  0.0000000000000000e+00 0.0000000000000000e+00 0.0000000000000000e+00  0.0000000000000000e+00 0.0000000000000000e+00 0.0000000000000000e+00  -8.0289893102366188e-06 7.7094637971126642e-06 0.0000000000000000e+00  -1.6983773624997657e-05 1.7077333919576386e-05 0.0000000000000000e+00  -2.4812505639686211e-05 3.2032096459385992e-05 0.0000000000000000e+00  -3.3118726786147355e-05 5.2898921629135721e-05 0.0000000000000000e+00  -3.9966636069022299e-05 7.8546581625198663e-05 0.0000000000000000e+00  -4.7512456263713607e-05 1.0940294937864160e-04 0.0000000000000000e+00  -5.3508267328347105e-05 1.4400006080327220e-04 0.0000000000000000e+00  -5.9181816914758504e-05 1.8342038978368095e-04 0.0000000000000000e+00  -6.5505239274366776e-05 2.2640007309230535e-04 0.0000000000000000e+00  -7.0240673392085560e-05 2.7297048270421296e-04 0.0000000000000000e+00  -7.5793399587160897e-05 3.2301337502956316e-04 0.0000000000000000e+00  -7.9892135465849991e-05 3.7608468252545163e-04 0.0000000000000000e+00  -8.4511303795402996e-05 4.3202927090193549e-04 0.0000000000000000e+00  -8.8110314994319468e-05 4.9020389330075795e-04 0.0000000000000000e+00  -9.1455997680799355e-05 5.5102907596000312e-04 0.0000000000000000e+00  -9.5066562733133299e-05 6.1376712233163449e-04 0.0000000000000000e+00  -9.7745010684663231e-05 6.7836265553086923e-04 0.0000000000000000e+00  -1.0074078742452184e-04 7.4472489038784092e-04 0.0000000000000000e+00  -1.0293501263941355e-04 8.1251057130964110e-04 0.0000000000000000e+00  -1.0533071587064095e-04 8.8162454042444100e-04 0.0000000000000000e+00  -1.0718339403805755e-04 9.5187429280411907e-04 0.0000000000000000e+00  -1.0906224917304856e-04 1.0231896502933460e-03 0.0000000000000000e+00  -1.1054631623533083e-04 1.0952178985308501e-03 0.0000000000000000e+00  -1.1187572046958088e-04 1.1681119438875205e-03 0.0000000000000000e+00  -1.1322077664025221e-04 1.2415553982328201e-03 0.0000000000000000e+00  -1.1429186840440239e-04 1.3155730947610241e-03 0.0000000000000000e+00  -1.1528227953768071e-04 1.3900818220775701e-03 0.0000000000000000e+00  -1.1611675641343124e-04 1.4649146220299105e-03 0.0000000000000000e+00  -1.1687438843428191e-04 1.5401038256354295e-03 0.0000000000000000e+00  -1.1751406584832252e-04 1.6154996095085270e-03 0.0000000000000000e+00  -1.1808664781734334e-04 1.6911253061914842e-03 0.0000000000000000e+00  -1.1856984923600065e-04 1.7668611668191878e-03 0.0000000000000000e+00  -1.1899874795728275e-04 1.8427285736175554e-03 0.0000000000000000e+00  -1.1936121153538636e-04 1.9186361495537269e-03 0.0000000000000000e+00  -1.1967893988120764e-04 1.9946080418498918e-03 0.0000000000000000e+00  -1.1995678721311902e-04 2.0705817736496324e-03 0.0000000000000000e+00  -1.2020472438551330e-04 2.1465729191328456e-03 0.0000000000000000e+00  -1.2043015729508445e-04 2.2225481765885597e-03 0.0000000000000000e+00  -1.2063636099336644e-04 2.2985180910856436e-03 0.0000000000000000e+00  -1.2083406143630432e-04 2.3744707324869808e-03 0.0000000000000000e+00  -1.2102334278390603e-04 2.4504088702679426e-03 0.0000000000000000e+00  -1.2121450353886643e-04 2.5263364692206572e-03 0.0000000000000000e+00  -1.2140165442322753e-04 2.6022585667358506e-03 0.0000000000000000e+00  -1.2159088797012676e-04 2.6781793467310689e-03 0.0000000000000000e+00  -1.2178510989646592e-04 2.7541082659013434e-03 0.0000000000000000e+00  -1.2197402935898089e-04 2.8300403048054316e-03 0.0000000000000000e+00  -7.1359138099803747e-05 2.9061025172762343e-03 0.0000000000000000e+00  3.0336138404109637e-05 2.9063842949329922e-03 0.0000000000000000e+00  8.1416718225907304e-05 2.8305444411832630e-03 0.0000000000000000e+00  8.1599068535274260e-05 2.7545934837710246e-03 0.0000000000000000e+00  8.1789975536126583e-05 2.6786537925846316e-03 0.0000000000000000e+00  8.1984942441989039e-05 2.6027120216073388e-03 0.0000000000000000e+00  8.2184878503646427e-05 2.5267658475689697e-03 0.0000000000000000e+00  8.2397757676185671e-05 2.4508092928053641e-03 0.0000000000000000e+00  8.2618712652318655e-05 2.3748388244420392e-03 0.0000000000000000e+00  8.2845701768399939e-05 2.2988539305489218e-03 0.0000000000000000e+00  8.3078872528224659e-05 2.2228494523471140e-03 0.0000000000000000e+00  8.3313899460231780e-05 2.1468299531663018e-03 0.0000000000000000e+00  8.3544452322241414e-05 2.0707997017485038e-03 0.0000000000000000e+00  8.3776231616788675e-05 1.9947722267081970e-03 0.0000000000000000e+00  8.3983378778228413e-05 1.9187583283688746e-03 0.0000000000000000e+00  8.4191093863852557e-05 1.8427875612841574e-03 0.0000000000000000e+00  8.4341029522513758e-05 1.7668750533592821e-03 0.0000000000000000e+00  8.4497797234454899e-05 1.6910707648480781e-03 0.0000000000000000e+00  8.4554109398824151e-05 1.6153957544640144e-03 0.0000000000000000e+00  8.4631646387172354e-05 1.5399209640866727e-03 0.0000000000000000e+00  8.4555634014076096e-05 1.4646755618143417e-03 0.0000000000000000e+00  8.4523251821732443e-05 1.3897508198581539e-03 0.0000000000000000e+00  8.4264990346443936e-05 1.3151828768559035e-03 0.0000000000000000e+00  8.4079808048758784e-05 1.2410880448607275e-03 0.0000000000000000e+00  8.3597845146024974e-05 1.1675272385534153e-03 0.0000000000000000e+00  8.3171967496793842e-05 1.0945492989789492e-03 0.0000000000000000e+00  8.2638229291196629e-05 1.0224377406128835e-03 0.0000000000000000e+00  8.1759922564778249e-05 9.5099856291097488e-04 0.0000000000000000e+00  8.0869363667461109e-05 8.8068389451539855e-04 0.0000000000000000e+00  7.9650150478704514e-05 8.1141566004991849e-04 0.0000000000000000e+00  7.8365418329925753e-05 7.4354474167853408e-04 0.0000000000000000e+00  7.6703834721998377e-05 6.7706876581289147e-04 0.0000000000000000e+00  7.4968427227092575e-05 6.1227723984695181e-04 0.0000000000000000e+00  7.2562539053365842e-05 5.4954668343168672e-04 0.0000000000000000e+00  7.0408440626349705e-05 4.8857097203908835e-04 0.0000000000000000e+00  6.8015395336223344e-05 4.3031818143662669e-04 0.0000000000000000e+00  6.4758290559129659e-05 3.7406183622373264e-04 0.0000000000000000e+00  6.1570687064802250e-05 3.2096913998917525e-04 0.0000000000000000e+00  5.7736096485956802e-05 2.7077409439613467e-04 0.0000000000000000e+00  5.3902943746784185e-05 2.2392554678798098e-04 0.0000000000000000e+00  4.8962890452257261e-05 1.8103343674150682e-04 0.0000000000000000e+00  4.4606777566078697e-05 1.4142506132119596e-04 0.0000000000000000e+00  3.9964145535265865e-05 1.0671851782359937e-04 0.0000000000000000e+00  3.3892927468800206e-05 7.5602213144924764e-05 0.0000000000000000e+00  2.8231022914741825e-05 4.9744814231118005e-05 0.0000000000000000e+00  2.1246736511085338e-05 2.9053195148698533e-05 0.0000000000000000e+00  1.4877075148016182e-05 1.3991298529265314e-05 0.0000000000000000e+00  7.0693489991644284e-06 4.7195267092852660e-06 0.0000000000000000e+00  -5.9663555391455348e-07 6.7245022219371743e-06 0.0000000000000000e+00  -2.1519446276147125e-05 2.7921426869109405e-03 0.0000000000000000e+00  -2.1925702326274914e-05 2.6470184443153190e-03 0.0000000000000000e+00  -2.0365772071597571e-05 2.4099233283091754e-03 0.0000000000000000e+00  -2.0087413974646912e-06 3.6758880776204604e-05 0.0000000000000000e+00  -1.8803972657413416e-05 2.2606983861696859e-03 0.0000000000000000e+00  -2.8456196016308144e-06 8.6267770600706299e-05 0.0000000000000000e+00  -1.8341209343556371e-05 2.1086899823164755e-03 0.0000000000000000e+00  -4.6416368494682033e-06 2.0249021455932755e-04 0.0000000000000000e+00  -6.6649973794838892e-06 2.9445612988760432e-04 0.0000000000000000e+00  -1.7831694827130212e-05 1.9566621854442646e-03 0.0000000000000000e+00  -8.6103767246563553e-06 5.8271058298643469e-04 0.0000000000000000e+00  -1.6641359229265440e-05 1.6531323907758742e-03 0.0000000000000000e+00  -6.9033215639951680e-06 3.9639912123592584e-04 0.0000000000000000e+00  -1.0849369196426107e-05 7.0968630067744633e-04 0.0000000000000000e+00  -1.5951407155719567e-05 1.5021783124581059e-03 0.0000000000000000e+00  -1.7266795243893401e-05 1.8047364221483611e-03 0.0000000000000000e+00  -1.1936307026069232e-05 8.4557708165285692e-04 0.0000000000000000e+00  -1.5188210194906803e-05 1.3523139532800475e-03 0.0000000000000000e+00  -1.1675985811373821e-05 9.8057384351826499e-04 0.0000000000000000e+00  -1.5625113070076980e-05 1.2071345132020960e-03 0.0000000000000000e+00  -1.3603635564422580e-05 1.0885617853526560e-03 0.0000000000000000e+00  -8.9140429766227977e-06 4.8305201995460647e-04 0.0000000000000000e+00  -1.9366137813448161e-05 2.5332015935279097e-03 0.0000000000000000e+00  -4.3067831612332146e-06 1.3765062316477348e-04 0.0000000000000000e+00  1.3989820606491387e-05 2.7191402567220300e-03 0.0000000000000000e+00  5.7242455615807459e-06 1.8716362158089940e-05 0.0000000000000000e+00  1.1018335622514167e-05 2.1847422182006810e-03 0.0000000000000000e+00  1.0569072025882561e-05 2.3367288811020214e-03 0.0000000000000000e+00  -1.4547601595381995e-05 6.1091150202027399e-05 0.0000000000000000e+00  -2.4044762851023696e-05 2.4648758525659502e-04 0.0000000000000000e+00  1.2518067804459499e-05 1.7288870901202564e-03 0.0000000000000000e+00  1.1496844210294506e-05 2.0327037830006672e-03 0.0000000000000000e+00  -3.5337479520732025e-05 6.4434975972578403e-04 0.0000000000000000e+00  1.3033427262733237e-05 1.5775504555533952e-03 0.0000000000000000e+00  -2.7707291274447793e-05 3.4679900510775527e-04 0.0000000000000000e+00  -3.7667921144760007e-05 7.7724036943434315e-04 0.0000000000000000e+00  1.3531696464806919e-05 1.4270701978613047e-03 0.0000000000000000e+00  1.2000745760262613e-05 1.8806957630738232e-03 0.0000000000000000e+00  -4.5674243701218856e-05 9.1492890776933254e-04 0.0000000000000000e+00  1.4001416287857840e-05 1.2779394429604154e-03 0.0000000000000000e+00  -1.3991710295603702e-06 1.8615285679304628e-06 0.0000000000000000e+00  1.0988038608494580e-06 1.0435781525933294e-06 0.0000000000000000e+00  -4.5097302072631996e-05 2.8518145955403261e-03 0.0000000000000000e+00  -9.1058036552236628e-06 1.9962261953796429e-05 0.0000000000000000e+00  2.1029269040710891e-05 1.1471403350599779e-03 0.0000000000000000e