<?xml version="1.0"?>
<VTKFile type="UnstructuredGrid"  version="0.1"  >
<UnstructuredGrid>
<Piece  NumberOfPoints="1419" NumberOfCells="2698">
<Points>
<DataArray  type="Float64"  NumberOfComponents="3"  format="ascii">0 0 0  0 0.41 0  2.5 0 0  2.5 0.41 0  0.6 0.19 0  0.6 0.21 0  0.25 0.2 0  0.15 0.2 0  0.2489897948556636 0.21 0  0.2489897948556636 0.19 0  0.6 0.2 0  0 0.3807142857143437 0  0 0.3514285714286952 0  0 0.3221428571430699 0  0 0.29285714285744 0  0 0.2635714285718054 0  0 0.2342857142861561 0  0 0.2050000000005308 0  0 0.175714285714732 0  0 0.1464285714289574 0  0 0.1171428571431897 0  0 0.08785714285737878 0  0 0.05857142857161107 0  0 0.02928571428580012 0  0.03015443760436003 0 0  0.06140001986583606 0 0  0.09377624077125973 0 0  0.1273239957535082 0 0  0.1620856860351972 0 0  0.1981052433264291 0 0  0.235428184091502 0 0  0.2741016576309132 0 0  0.3141745521465447 0 0  0.3556974926295285 0 0  0.3987229542472677 0 0  0.4433053055141081 0 0  0.4895008759286886 0 0  0.5373680609405097 0 0  0.5869673343216626 0 0  0.6383613676634521 0 0  0.6916151138468254 0 0  0.7467958595648856 0 0  0.8039733463919316 0 0  0.8632198139502143 0 0  0.9246101326867038 0 0  0.9882218810934433 0 0  1.054135445558498 0 0  1.122434100542598 0 0  1.193204177141305 0 0  1.266535089879536 0 0  1.342519516046404 0 0  1.421253448503939 0 0  1.502836389106271 0 0  1.587371439758838 0 0  1.674965418777374 0 0  1.765729001825544 0 0  1.859776908880082 0 0  1.957227977487062 0 0  2.058205329869943 0 0  2.162836591189951 0 0  2.271253957290865 0 0  2.383594446803425 0 0  2.5 0.1024999999997612 0  2.5 0.2049999999994743 0  2.5 0.3074999999997183 0  2.383594446803656 0.41 0  2.271253957291315 0.41 0  2.162836591190598 0.41 0  2.058205329870775 0.41 0  1.957227977488067 0.41 0  1.859776908881246 0.41 0  1.765729001826854 0.41 0  1.674965418778818 0.41 0  1.58737143976041 0.41 0  1.502836389107956 0.41 0  1.421253448505726 0.41 0  1.342519516048286 0.41 0  1.266535089881505 0.41 0  1.193204177143353 0.41 0  1.122434100544716 0.41 0  1.05413544556068 0.41 0  0.9882218810956305 0.41 0  0.9246101326886647 0.41 0  0.8632198139519631 0.41 0  0.8039733463934788 0.41 0  0.7467958595662458 0.41 0  0.6916151138480078 0.41 0  0.6383613676644679 0.41 0  0.5869673343225223 0.41 0  0.5373680609412221 0.41 0  0.4895008759292634 0.41 0  0.4433053055145528 0.41 0  0.3987229542475914 0.41 0  0.3556974926297398 0.41 0  0.3141745521466497 0.41 0  0.2741016576310038 0.41 0  0.2354281840915826 0.41 0  0.1981052433265003 0.41 0  0.1620856860352591 0.41 0  0.1273239957535623 0.41 0  0.09377624077128965 0.41 0  0.06140001986584975 0.41 0  0.03015443760436654 0.41 0  0.2497468076502589 0.2050254481002335 0  0.2497468076502614 0.1949745518997913 0  0.2469965252529372 0.1829317073451959 0  0.2439893735792749 0.1762316384219906 0  0.2400332147834255 0.1700443375285386 0  0.2352133972704371 0.1645032867342007 0  0.2296339016332438 0.1597280261969788 0  0.2234150974217223 0.1558215752574715 0  0.2166911463437691 0.1528682099456123 0  0.2096071079204251 0.1509316448471593 0  0.2023158100364996 0.1500536585536553 0  0.194974551899914 0.1502531923497262 0  0.1877417105387872 0.1515259415822739 0  0.1807733240461124 0.153844448527136 0  0.1742197252835808 0.15715869474974 0  0.1682222986673531 0.1613971801805478 0  0.162910430003803 0.1664684656256651 0  0.1583987151779087 0.1722631454351573 0  0.1547844879126891 0.178656207771761 0  0.1521457199348551 0.1855097315605723 0  0.1505393388476355 0.1926758619366523 0  0.1505393388476328 0.2073241380633295 0  0.1521457199348437 0.2144902684393899 0  0.1547844879126531 0.221343792228163 0  0.1583987151778488 0.2277368545647528 0  0.1629104300036858 0.2335315343742052 0  0.1682222986671726 0.2386028198193036 0  0.1742197252833576 0.2428413052501257 0  0.1807733240458683 0.2461555514727623 0  0.1877417105384929 0.2484740584176516 0  0.1949745518995776 0.2497468076502398 0  0.202315810036185 0.2499463414463592 0  0.2096071079201568 0.2490683551528932 0  0.2166911463435495 0.2471317900544655 0  0.2234150974215506 0.2441784247426195 0  0.2296339016331197 0.2402719738031125 0  0.2352133972703547 0.2354967132658811 0  0.2400332147833751 0.2299556624715287 0  0.2439893735792577 0.2237683615780412 0  0.246996525252926 0.2170682926548348 0  0.25645809709277 0.21 0  0.2639263993298655 0.21 0  0.271394701566961 0.21 0  0.2788630038040554 0.21 0  0.2863313060411479 0.21 0  0.2937996082782405 0.21 0  0.301267910515333 0.21 0  0.3087362127524279 0.21 0  0.3162045149895234 0.21 0  0.3236728172265972 0.21 0  0.3311411194636928 0.21 0  0.3386094217007701 0.21 0  0.3460777239378666 0.21 0  0.3535460261749672 0.21 0  0.3610143284120516 0.21 0  0.3684826306491596 0.21 0  0.3759509328862226 0.21 0  0.383419235123329 0.21 0  0.3908875373604028 0.21 0  0.3983558395975142 0.21 0  0.4058241418345938 0.21 0  0.4132924440716992 0.21 0  0.4207607463087888 0.21 0  0.4282290485459029 0.21 0  0.4356973507830418 0.21 0  0.4431656530201649 0.21 0  0.4506339552573136 0.21 0  0.4581022574944306 0.21 0  0.4655705597315852 0.21 0  0.4730388619686996 0.21 0  0.480507164205851 0.21 0  0.4879754664429498 0.21 0  0.4954437686800938 0.21 0  0.502912070917267 0.21 0  0.5103803731544119 0.21 0  0.5178486753915261 0.21 0  0.5253169776286404 0.21 0  0.5327852798657868 0.21 0  0.5402535821029386 0.21 0  0.54772188434007 0.21 0  0.5551901865771842 0.21 0  0.5626584888143201 0.21 0  0.5701267910514778 0.21 0  0.5775950932886138 0.21 0  0.5850633955257281 0.21 0  0.5925316977628483 0.21 0  0.6 0.2050000000000054 0  0.6 0.1950000000000217 0  0.5925316977628897 0.19 0  0.5850633955257988 0.19 0  0.5775950932887378 0.19 0  0.5701267910515998 0.19 0  0.5626584888145268 0.19 0  0.5551901865773963 0.19 0  0.547721884340339 0.19 0  0.5402535821032429 0.19 0  0.5327852798661811 0.19 0  0.5253169776290537 0.19 0  0.5178486753919799 0.19 0  0.5103803731549078 0.19 0  0.502912070917822 0.19 0  0.4954437686807294 0.19 0  0.4879754664436223 0.19 0  0.4805071642065402 0.19 0  0.4730388619694271 0.19 0  0.4655705597323621 0.19 0  0.4581022574952563 0.19 0  0.4506339552581777 0.19 0  0.4431656530210671 0.19 0  0.4356973507839815 0.19 0  0.4282290485468779 0.19 0  0.4207607463097617 0.19 0  0.4132924440726327 0.19 0  0.4058241418354857 0.19 0  0.3983558395983636 0.19 0  0.3908875373612097 0.19 0  0.3834192351240934 0.19 0  0.3759509328869369 0.19 0  0.3684826306498175 0.19 0  0.361014328412667 0.19 0  0.3535460261755617 0.19 0  0.3460777239384295 0.19 0  0.3386094217012945 0.19 0  0.3311411194641595 0.19 0  0.3236728172270245 0.19 0  0.3162045149898895 0.19 0  0.3087362127527544 0.19 0  0.3012679105156187 0.19 0  0.2937996082784807 0.19 0  0.2863313060413428 0.19 0  0.2788630038042048 0.19 0  0.2713947015670686 0.19 0  0.2639263993299336 0.19 0  0.2564580970927985 0.19 0  0.2607803159922026 0.2000727136295815 0  0.5887803774232762 0.2001272386983733 0  0.5745072403740523 0.2002044435018727 0  0.5511891430099709 0.2001122610077113 0  0.2751288526855082 0.20000000000002 0  0.5365194309847112 0.1999999999999436 0  0.2894621222999649 0.1998691686390484 0  0.5215828265105155 0.1999999999999228 0  0.3127789816668748 0.1998657885438805 0  0.3274069683451451 0.2000000000000796 0  0.5066462220363641 0.199999999999908 0  0.3650630746574081 0.199866017807523 0  0.476773013087985 0.1999999999998713 0  0.3417402379596385 0.1998691686391011 0  0.3796850840047755 0.200000000000134 0  0.4618364086138087 0.1999999999998546 0  0.4917096175621762 0.1999999999998808 0  0.3946216884789568 0.2000000000001512 0  0.446899804139621 0.1999999999998389 0  0.4089549580935208 0.1998691686391595 0  0.4322718174608562 0.200127451265745 0  0.4201487168029707 0.1999966199048527 0  0.3528922713220932 0.2000185703532356 0  0.5633122436674589 0.1999814296467508 0  0.3006558810093873 0.1999966199048318 0  0.5815926498168407 0.1966545283159175 0  0.2677053789419034 0.1964246479135325 0  0.5290511287476175 0.1970915826863981 0  0.5439877332217911 0.197091582686394 0  0.2825131256993216 0.2035478995978015 0  0.3199386661080599 0.202908417313604 0  0.4842413153250809 0.1970915826863873 0  0.5141145242734466 0.1970915826863843 0  0.3722167817676917 0.2029084173136195 0  0.4693047108508938 0.1970915826863783 0  0.3348752705822316 0.202908417313609 0  0.3871533862418661 0.2029084173136212 0  0.4543681063767183 0.1970915826863795 0  0.4991779197992749 0.1970915826863902 0  0.4020059614928624 0.203547899597858 0  0.4394315019025246 0.1970915826863714 0  0.2550657455369551 0.2034088125358657 0  0.2548908499171161 0.1966940311614271 0  0.5946539510196798 0.2024302972968126 0  0.267698176732111 0.2039977513680092 0  0.4261685417851465 0.196409292431739 0  0.3590076176283495 0.196411355804271 0  0.5571672426447437 0.2036011176410121 0  0.3066757059912147 0.1964092924317024 0  0.594380730180568 0.1966558399668133 0  0.4842413153245942 0.2040749161535287 0  0.4693047108503577 0.2040749161535231 0  0.3871533862424271 0.1959250838464788 0  0.372246743208829 0.1959123236376545 0  0.5141145242731028 0.2040749161535395 0  0.4543681063761134 0.2040749161535186 0  0.4019979587101454 0.1959834479682427 0  0.4394608940728603 0.2040870543693135 0  0.5439623148931173 0.2040856076781014 0  0.5290511287473298 0.2040749161535501 0  0.4991779197988497 0.2040749161535382 0  0.3347912413592433 0.1959225448935183 0  0.3199680582793816 0.1959123018030061 0  0.2825051229162361 0.1959834479681729 0  0.3590471196690275 0.2036304442587945 0  0.5571594006495384 0.1963685282145804 0  0.3067669986803285 0.203627750582736 0  0.4262598344738712 0.2036568242185335 0  0.5814408164431408 0.2041285596160068 0  0.5688286748170428 0.1961819304477386 0  0.4145905603063645 0.2038180695522843 0  0.3473758401724931 0.2038180695522752 0  0.2950977245128307 0.2038180695522663 0  0.5688286748170693 0.203818069552238 0  0.2950977245127906 0.1961819304477774 0  0.3473758401723931 0.1961819304478349 0  0.4145905603061963 0.1961819304479011 0  0.2601812407614425 0.2056861609747042
[...]
<PointData  Vectors="f_40-1"> 
<DataArray  type="Float64"  Name="f_40-1"  NumberOfComponents="3" format="ascii">0.0000000000000000e+00 0.0000000000000000e+00 0.0000000000000000e+00  0.0000000000000000e+00 0.0000000000000000e+00 0.0000000000000000e+00  0.0000000000000000e+00 0.0000000000000000e+00 0.0000000000000000e+00  0.0000000000000000e+00 0.0000000000000000e+00 0.0000000000000000e+00  3.8180503487058052e-05 2.0241963634487973e-03 0.0000000000000000e+00  -9.2132157418899278e-05 2.0221528729278083e-03 0.0000000000000000e+00  0.0000000000000000e+00 0.0000000000000000e+00 0.0000000000000000e+00  0.0000000000000000e+00 0.0000000000000000e+00 0.0000000000000000e+00  0.0000000000000000e+00 0.0000000000000000e+00 0.0000000000000000e+00  0.0000000000000000e+00 0.0000000000000000e+00 0.0000000000000000e+00  -2.7209162319919712e-05 2.0231742566419685e-03 0.0000000000000000e+00  0.0000000000000000e+00 0.0000000000000000e+00 0.0000000000000000e+00  0.0000000000000000e+00 0.0000000000000000e+00 0.0000000000000000e+00  0.0000000000000000e+00 0.0000000000000000e+00 0.0000000000000000e+00  0.0000000000000000e+00 0.0000000000000000e+00 0.0000000000000000e+00  0.0000000000000000e+00 0.0000000000000000e+00 0.0000000000000000e+00  0.0000000000000000e+00 0.0000000000000000e+00 0.0000000000000000e+00  0.0000000000000000e+00 0.0000000000000000e+00 0.0000000000000000e+00  0.0000000000000000e+00 0.0000000000000000e+00 0.0000000000000000e+00  0.0000000000000000e+00 0.0000000000000000e+00 0.0000000000000000e+00  0.0000000000000000e+00 0.0000000000000000e+00 0.0000000000000000e+00  0.0000000000000000e+00 0.0000000000000000e+00 0.0000000000000000e+00  0.0000000000000000e+00 0.0000000000000000e+00 0.0000000000000000e+00  0.0000000000000000e+00 0.0000000000000000e+00 0.0000000000000000e+00  0.0000000000000000e+00 0.0000000000000000e+00 0.0000000000000000e+00  0.0000000000000000e+00 0.0000000000000000e+00 0.0000000000000000e+00  0.0000000000000000e+00 0.0000000000000000e+00 0.0000000000000000e+00  0.0000000000000000e+00 0.0000000000000000e+00 0.0000000000000000e+00  0.0000000000000000e+00 0.0000000000000000e+00 0.0000000000000000e+00  0.0000000000000000e+00 0.0000000000000000e+00 0.0000000000000000e+00  0.0000000000000000e+00 0.0000000000000000e+00 0.0000000000000000e+00  0.0000000000000000e+00 0.0000000000000000e+00 0.0000000000000000e+00  0.0000000000000000e+00 0.0000000000000000e+00 0.0000000000000000e+00  0.0000000000000000e+00 0.0000000000000000e+00 0.0000000000000000e+00  0.0000000000000000e+00 0.0000000000000000e+00 0.0000000000000000e+00  0.0000000000000000e+00 0.0000000000000000e+00 0.0000000000000000e+00  0.0000000000000000e+00 0.0000000000000000e+00 0.0000000000000000e+00  0.0000000000000000e+00 0.0000000000000000e+00 0.0000000000000000e+00  0.0000000000000000e+00 0.0000000000000000e+00 0.0000000000000000e+00  0.0000000000000000e+00 0.0000000000000000e+00 0.0000000000000000e+00  0.0000000000000000e+00 0.0000000000000000e+00 0.0000000000000000e+00  0.0000000000000000e+00 0.0000000000000000e+00 0.0000000000000000e+00  0.0000000000000000e+00 0.0000000000000000e+00 0.0000000000000000e+00  0.0000000000000000e+00 0.0000000000000000e+00 0.0000000000000000e+00  0.0000000000000000e+00 0.0000000000000000e+00 0.0000000000000000e+00  0.0000000000000000e+00 0.0000000000000000e+00 0.0000000000000000e+00  0.0000000000000000e+00 0.0000000000000000e+00 0.0000000000000000e+00  0.0000000000000000e+00 0.0000000000000000e+00 0.0000000000000000e+00  0.0000000000000000e+00 0.0000000000000000e+00 0.0000000000000000e+00  0.0000000000000000e+00 0.0000000000000000e+00 0.0000000000000000e+00  0.0000000000000000e+00 0.0000000000000000e+00 0.0000000000000000e+00  0.0000000000000000e+00 0.0000000000000000e+00 0.0000000000000000e+00  0.0000000000000000e+00 0.0000000000000000e+00 0.0000000000000000e+00  0.0000000000000000e+00 0.0000000000000000e+00 0.0000000000000000e+00  0.0000000000000000e+00 0.0000000000000000e+00 0.0000000000000000e+00  0.0000000000000000e+00 0.0000000000000000e+00 0.0000000000000000e+00  0.0000000000000000e+00 0.0000000000000000e+00 0.0000000000000000e+00  0.0000000000000000e+00 0.0000000000000000e+00 0.0000000000000000e+00  0.0000000000000000e+00 0.0000000000000000e+00 0.0000000000000000e+00  0.0000000000000000e+00 0.0000000000000000e+00 0.0000000000000000e+00  0.0000000000000000e+00 0.0000000000000000e+00 0.0000000000000000e+00  0.0000000000000000e+00 0.0000000000000000e+00 0.0000000000000000e+00  0.0000000000000000e+00 0.0000000000000000e+00 0.0000000000000000e+00  0.0000000000000000e+00 0.0000000000000000e+00 0.0000000000000000e+00  0.0000000000000000e+00 0.0000000000000000e+00 0.0000000000000000e+00  0.0000000000000000e+00 0.0000000000000000e+00 0.0000000000000000e+00  0.0000000000000000e+00 0.0000000000000000e+00 0.0000000000000000e+00  0.0000000000000000e+00 0.0000000000000000e+00 0.0000000000000000e+00  0.0000000000000000e+00 0.0000000000000000e+00 0.0000000000000000e+00  0.0000000000000000e+00 0.0000000000000000e+00 0.0000000000000000e+00  0.0000000000000000e+00 0.0000000000000000e+00 0.0000000000000000e+00  0.0000000000000000e+00 0.0000000000000000e+00 0.0000000000000000e+00  0.0000000000000000e+00 0.0000000000000000e+00 0.0000000000000000e+00  0.0000000000000000e+00 0.0000000000000000e+00 0.0000000000000000e+00  0.0000000000000000e+00 0.0000000000000000e+00 0.0000000000000000e+00  0.0000000000000000e+00 0.0000000000000000e+00 0.0000000000000000e+00  0.0000000000000000e+00 0.0000000000000000e+00 0.0000000000000000e+00  0.0000000000000000e+00 0.0000000000000000e+00 0.0000000000000000e+00  0.0000000000000000e+00 0.0000000000000000e+00 0.0000000000000000e+00  0.0000000000000000e+00 0.0000000000000000e+00 0.0000000000000000e+00  0.0000000000000000e+00 0.0000000000000000e+00 0.0000000000000000e+00  0.0000000000000000e+00 0.0000000000000000e+00 0.0000000000000000e+00  0.0000000000000000e+00 0.0000000000000000e+00 0.0000000000000000e+00  0.0000000000000000e+00 0.0000000000000000e+00 0.0000000000000000e+00  0.0000000000000000e+00 0.0000000000000000e+00 0.0000000000000000e+00  0.0000000000000000e+00 0.0000000000000000e+00 0.0000000000000000e+00  0.0000000000000000e+00 0.0000000000000000e+00 0.0000000000000000e+00  0.0000000000000000e+00 0.0000000000000000e+00 0.0000000000000000e+00  0.0000000000000000e+00 0.0000000000000000e+00 0.0000000000000000e+00  0.0000000000000000e+00 0.0000000000000000e+00 0.0000000000000000e+00  0.0000000000000000e+00 0.0000000000000000e+00 0.0000000000000000e+00  0.0000000000000000e+00 0.0000000000000000e+00 0.0000000000000000e+00  0.0000000000000000e+00 0.0000000000000000e+00 0.0000000000000000e+00  0.0000000000000000e+00 0.0000000000000000e+00 0.0000000000000000e+00  0.0000000000000000e+00 0.0000000000000000e+00 0.0000000000000000e+00  0.0000000000000000e+00 0.0000000000000000e+00 0.0000000000000000e+00  0.0000000000000000e+00 0.0000000000000000e+00 0.0000000000000000e+00  0.0000000000000000e+00 0.0000000000000000e+00 0.0000000000000000e+00  0.0000000000000000e+00 0.0000000000000000e+00 0.0000000000000000e+00  0.0000000000000000e+00 0.0000000000000000e+00 0.0000000000000000e+00  0.0000000000000000e+00 0.0000000000000000e+00 0.0000000000000000e+00  0.0000000000000000e+00 0.0000000000000000e+00 0.0000000000000000e+00  0.0000000000000000e+00 0.0000000000000000e+00 0.0000000000000000e+00  0.0000000000000000e+00 0.0000000000000000e+00 0.0000000000000000e+00  0.0000000000000000e+00 0.0000000000000000e+00 0.0000000000000000e+00  0.0000000000000000e+00 0.0000000000000000e+00 0.0000000000000000e+00  0.0000000000000000e+00 0.0000000000000000e+00 0.0000000000000000e+00  0.0000000000000000e+00 0.0000000000000000e+00 0.0000000000000000e+00  0.0000000000000000e+00 0.0000000000000000e+00 0.0000000000000000e+00  0.0000000000000000e+00 0.0000000000000000e+00 0.0000000000000000e+00  0.0000000000000000e+00 0.0000000000000000e+00 0.0000000000000000e+00  0.0000000000000000e+00 0.0000000000000000e+00 0.0000000000000000e+00  0.0000000000000000e+00 0.0000000000000000e+00 0.0000000000000000e+00  0.0000000000000000e+00 0.0000000000000000e+00 0.0000000000000000e+00  0.0000000000000000e+00 0.0000000000000000e+00 0.0000000000000000e+00  0.0000000000000000e+00 0.0000000000000000e+00 0.0000000000000000e+00  0.0000000000000000e+00 0.0000000000000000e+00 0.0000000000000000e+00  0.0000000000000000e+00 0.0000000000000000e+00 0.0000000000000000e+00  0.0000000000000000e+00 0.0000000000000000e+00 0.0000000000000000e+00  0.0000000000000000e+00 0.0000000000000000e+00 0.0000000000000000e+00  0.0000000000000000e+00 0.0000000000000000e+00 0.0000000000000000e+00  0.0000000000000000e+00 0.0000000000000000e+00 0.0000000000000000e+00  0.0000000000000000e+00 0.0000000000000000e+00 0.0000000000000000e+00  0.0000000000000000e+00 0.0000000000000000e+00 0.0000000000000000e+00  0.0000000000000000e+00 0.0000000000000000e+00 0.0000000000000000e+00  0.0000000000000000e+00 0.0000000000000000e+00 0.0000000000000000e+00  0.0000000000000000e+00 0.0000000000000000e+00 0.0000000000000000e+00  0.0000000000000000e+00 0.0000000000000000e+00 0.0000000000000000e+00  0.0000000000000000e+00 0.0000000000000000e+00 0.0000000000000000e+00  0.0000000000000000e+00 0.0000000000000000e+00 0.0000000000000000e+00  0.0000000000000000e+00 0.0000000000000000e+00 0.0000000000000000e+00  0.0000000000000000e+00 0.0000000000000000e+00 0.0000000000000000e+00  0.0000000000000000e+00 0.0000000000000000e+00 0.0000000000000000e+00  0.0000000000000000e+00 0.0000000000000000e+00 0.0000000000000000e+00  0.0000000000000000e+00 0.0000000000000000e+00 0.0000000000000000e+00  0.0000000000000000e+00 0.0000000000000000e+00 0.0000000000000000e+00  0.0000000000000000e+00 0.0000000000000000e+00 0.0000000000000000e+00  0.0000000000000000e+00 0.0000000000000000e+00 0.0000000000000000e+00  0.0000000000000000e+00 0.0000000000000000e+00 0.0000000000000000e+00  0.0000000000000000e+00 0.0000000000000000e+00 0.0000000000000000e+00  0.0000000000000000e+00 0.0000000000000000e+00 0.0000000000000000e+00  0.0000000000000000e+00 0.0000000000000000e+00 0.0000000000000000e+00  0.0000000000000000e+00 0.0000000000000000e+00 0.0000000000000000e+00  -7.2240848977819535e-06 5.5711186760854083e-06 0.0000000000000000e+00  -1.5093534019607044e-05 1.3623259099846077e-05 0.0000000000000000e+00  -2.1843063829573087e-05 2.6339901364522771e-05 0.0000000000000000e+00  -2.8826703406217643e-05 4.3954943350541135e-05 0.0000000000000000e+00  -3.4515265099562938e-05 6.5339822324987691e-05 0.0000000000000000e+00  -4.0620231243683721e-05 9.0806533816685745e-05 0.0000000000000000e+00  -4.5437812340285898e-05 1.1911690466537330e-04 0.0000000000000000e+00  -4.9905615941071128e-05 1.5102573220387002e-04 0.0000000000000000e+00  -5.4740929163939929e-05 1.8552138808179789e-04 0.0000000000000000e+00  -5.8331124662654238e-05 2.2253169312535335e-04 0.0000000000000000e+00  -6.2371277176173387e-05 2.6193791178242583e-04 0.0000000000000000e+00  -6.5336525690367091e-05 3.0330779015356042e-04 0.0000000000000000e+00  -6.8518609633544001e-05 3.4650690549417482e-04 0.0000000000000000e+00  -7.0981233067372873e-05 3.9104781525736216e-04 0.0000000000000000e+00  -7.3195386494252258e-05 4.3711447713422043e-04 0.0000000000000000e+00  -7.5458174972657262e-05 4.8422250780841248e-04 0.0000000000000000e+00  -7.7128488156514002e-05 5.3225519986447082e-04 0.0000000000000000e+00  -7.8849519311593677e-05 5.8113961735398287e-04 0.0000000000000000e+00  -8.0119427855511040e-05 6.3059195657313928e-04 0.0000000000000000e+00  -8.1372447704063553e-05 6.8057156981995526e-04 0.0000000000000000e+00  -8.2341338461877140e-05 7.3088269501433837e-04 0.0000000000000000e+00  -8.3211901755623311e-05 7.8148313389618171e-04 0.0000000000000000e+00  -8.3921203040326399e-05 8.3220802512110374e-04 0.0000000000000000e+00  -8.4516728567073562e-05 8.8303622183715045e-04 0.0000000000000000e+00  -8.5038124300150123e-05 9.3389192640017397e-04 0.0000000000000000e+00  -8.5461062802325840e-05 9.8469916174274475e-04 0.0000000000000000e+00  -8.5811674034830712e-05 1.0354555369981842e-03 0.0000000000000000e+00  -8.6116965994217031e-05 1.0860759516758787e-03 0.0000000000000000e+00  -8.6366092652120804e-05 1.1365768583947431e-03 0.0000000000000000e+00  -8.6599593589975122e-05 1.1869103004599692e-03 0.0000000000000000e+00  -8.6794529436524091e-05 1.2370816174982237e-03 0.0000000000000000e+00  -8.6994738371110348e-05 1.2870728469409004e-03 0.0000000000000000e+00  -8.7174867987631601e-05 1.3368848037498594e-03 0.0000000000000000e+00  -8.7373445914040534e-05 1.3865233295173051e-03 0.0000000000000000e+00  -8.7566147951415640e-05 1.4359886973793921e-03 0.0000000000000000e+00  -8.7792543365570910e-05 1.4853086603732427e-03 0.0000000000000000e+00  -8.8027358957450721e-05 1.5344744130425007e-03 0.0000000000000000e+00  -8.8302290906081053e-05 1.5835306583386463e-03 0.0000000000000000e+00  -8.8595338595033699e-05 1.6324632556256639e-03 0.0000000000000000e+00  -8.8933239952986650e-05 1.6813284098752695e-03 0.0000000000000000e+00  -8.9298950492248816e-05 1.7301041635587628e-03 0.0000000000000000e+00  -8.9708793589647558e-05 1.7788452952938118e-03 0.0000000000000000e+00  -9.0153356796811120e-05 1.8275442985895879e-03 0.0000000000000000e+00  -9.0617580744912707e-05 1.8762289715061116e-03 0.0000000000000000e+00  -9.1127947890560487e-05 1.9249173563272580e-03 0.0000000000000000e+00  -9.1648812387251722e-05 1.9735825640528806e-03 0.0000000000000000e+00  -5.9746724071110009e-05 2.0226647975277894e-03 0.0000000000000000e+00  5.4117313173376657e-06 2.0236803416121148e-03 0.0000000000000000e+00  3.8668105943998403e-05 1.9754495858397129e-03 0.0000000000000000e+00  3.9207311866471862e-05 1.9268131849511066e-03 0.0000000000000000e+00  3.9746342205736535e-05 1.8781890057636126e-03 0.0000000000000000e+00  4.0277836476189842e-05 1.8295381353257219e-03 0.0000000000000000e+00  4.0805137028376113e-05 1.7808664447447483e-03 0.0000000000000000e+00  4.1334595642879916e-05 1.7321495267648868e-03 0.0000000000000000e+00  4.1885396039891999e-05 1.6833794063642032e-03 0.0000000000000000e+00  4.2423910576456790e-05 1.6345401098801192e-03 0.0000000000000000e+00  4.3004202394925869e-05 1.5856022080974037e-03 0.0000000000000000e+00  4.3563440828931684e-05 1.5365569059050048e-03 0.0000000000000000e+00  4.4178952253077263e-05 1.4873800960099584e-03 0.0000000000000000e+00  4.4765076320159071e-05 1.4380596365027067e-03 0.0000000000000000e+00  4.5416520475438525e-05 1.3885786361606111e-03 0.0000000000000000e+00  4.6025753646795308e-05 1.3389283833042602e-03 0.0000000000000000e+00  4.6698833910580169e-05 1.2890967846482556e-03 0.0000000000000000e+00  4.7318720487854209e-05 1.2390855915342838e-03 0.0000000000000000e+00  4.7992749184509667e-05 1.1888897573658905e-03 0.0000000000000000e+00  4.8606861532468259e-05 1.1385242087474776e-03 0.0000000000000000e+00  4.9255482256664888e-05 1.0879933327937468e-03 0.0000000000000000e+00  4.9841344292226801e-05 1.0373284347670144e-03 0.0000000000000000e+00  5.0426523884029766e-05 9.8653904387700666e-04 0.0000000000000000e+00  5.0952627223251476e-05 9.3567817253753180e-04 0.0000000000000000e+00  5.1421792656278005e-05 8.8477503276675586e-04 0.0000000000000000e+00  5.1837001373984482e-05 8.3388949711514775e-04 0.0000000000000000e+00  5.2183778451861387e-05 7.8310878256393057e-04 0.0000000000000000e+00  5.2398395340893508e-05 7.3244146937670917e-04 0.0000000000000000e+00  5.2528916039926506e-05 6.8207409509052634e-04 0.0000000000000000e+00  5.2477052498202196e-05 6.3201210687102325e-04 0.0000000000000000e+00  5.2322195036244816e-05 5.8249674045237872e-04 0.0000000000000000e+00  5.1924368052659259e-05 5.3353685454212351e-04 0.0000000000000000e+00  5.1413177780108516e-05 4.8538156554485862e-04 0.0000000000000000e+00  5.0455749193229269e-05 4.3826035021991188e-04 0.0000000000000000e+00  4.9562683955625321e-05 3.9209242271718100e-04 0.0000000000000000e+00  4.8453979367204026e-05 3.4749376804464149e-04 0.0000000000000000e+00  4.6744680012711585e-05 3.0408510763743325e-04 0.0000000000000000e+00  4.4976521026891158e-05 2.6268988655148693e-04 0.0000000000000000e+00  4.2689731697425540e-05 2.2316878127203195e-04 0.0000000000000000e+00  4.0312911519934290e-05 1.8595418870865894e-04 0.0000000000000000e+00  3.7037588197563726e-05 1.5151308681533046e-04 0.0000000000000000e+00  3.4103693140993151e-05 1.1946095927501084e-04 0.0000000000000000e+00  3.0865308354384551e-05 9.1062403983341100e-05 0.0000000000000000e+00  2.6445917712040690e-05 6.5389796123346033e-05 0.0000000000000000e+00  2.2225820557964151e-05 4.3844198384738415e-05 0.0000000000000000e+00  1.6849810204042878e-05 2.6390859292103580e-05 0.0000000000000000e+00  1.1893802192814272e-05 1.3525414188301375e-05 0.0000000000000000e+00  5.6805630811939990e-06 5.3703154746548048e-06 0.0000000000000000e+00  -1.2863148057361471e-06 6.0525774464276763e-06 0.0000000000000000e+00  -2.7151708156593900e-05 1.9500725393998429e-03 0.0000000000000000e+00  -2.6608279599335109e-05 1.8570850337440803e-03 0.0000000000000000e+00  -2.4509885138342093e-05 1.7050373781439688e-03 0.0000000000000000e+00  -2.8204524536063787e-06 3.1754175834933888e-05 0.0000000000000000e+00  -2.2906591088219390e-05 1.6091105322377198e-03 0.0000000000000000e+00  -3.9788419120955211e-06 7.3150371389882256e-05 0.0000000000000000e+00  -2.2054710829426600e-05 1.5110314618700183e-03 0.0000000000000000e+00  -6.1942886134610106e-06 1.6780455980261650e-04 0.0000000000000000e+00  -8.2542374597455374e-06 2.4091055881284872e-04 0.0000000000000000e+00  -2.1220352581316479e-05 1.4124094910107409e-03 0.0000000000000000e+00  -1.0868103090736890e-05 4.6239899070356778e-04 0.0000000000000000e+00  -1.9543012992995500e-05 1.2131184816417148e-03 0.0000000000000000e+00  -8.8759877981447759e-06 3.2049071828544462e-04 0.0000000000000000e+00  -1.2938081163036756e-05 5.5679153813435755e-04 0.0000000000000000e+00  -1.8673324647672042e-05 1.1123976810127423e-03 0.0000000000000000e+00  -2.0387609684888750e-05 1.3131265045825914e-03 0.0000000000000000e+00  -1.4128254253894908e-05 6.5595465857783131e-04 0.0000000000000000e+00  -1.7764723709815445e-05 1.0110662714392911e-03 0.0000000000000000e+00  -1.4324193658618772e-05 7.5270141872236314e-04 0.0000000000000000e+00  -1.7692209653721920e-05 9.1142731134573178e-04 0.0000000000000000e+00  -1.5978183771642911e-05 8.2882072915344267e-04 0.0000000000000000e+00  -1.0746498578102699e-05 3.8693710490061989e-04 0.0000000000000000e+00  -2.4424787158327617e-05 1.7841403695824007e-03 0.0000000000000000e+00  -5.5365697104054299e-06 1.1529359881527587e-04 0.0000000000000000e+00  -3.9719850521914555e-06 1.9035781096906662e-03 0.0000000000000000e+00  3.8914004690636236e-06 1.6873391393105360e-05 0.0000000000000000e+00  -3.3576905516303566e-06 1.5604218864981873e-03 0.0000000000000000e+00  -4.3008503510929413e-06 1.6582840450910131e-03 0.0000000000000000e+00  -1.3440743834469242e-05 5.1731683854469088e-05 0.0000000000000000e+00  -2.1789970569710451e-05 2.0256603344796380e-04 0.0000000000000000e+00  -4.9353387982572116e-07 1.2634928993098561e-03 0.0000000000000000e+00  -2.4148869113500698e-06 1.4620850215975049e-03 0.0000000000000000e+00  -3.0919898328349140e-05 5.0806782875933195e-04 0.0000000000000000e+00  4.8815671387035922e-07 1.1631156116865839e-03 0.0000000000000000e+00  -2.4857458772051486e-05 2.8157222602769575e-04 0.0000000000000000e+00  -3.2697944501307008e-05 6.0595757565315574e-04 0.0000000000000000e+00  1.4802354063115914e-06 1.0620653189392214e-03 0.0000000000000000e+00  -1.4614072737994355e-06 1.3631401655511085e-03 0.0000000000000000e+00  -3.8494523103590285e-05 7.0542638662849364e-04 0.0000000000000000e+00  2.4724811391739148e-06 9.6049325022311283e-04 0.0000000000000000e+00  -1.6981462502638643e-06 1.4619632626326126e-06 0.0000000000000000e+00  4.3128614408374422e-07 1.2903766329674879e-06 0.0000000000000000e+00  -4.2617467310232444e-05 1.9881194049774266e-03 0.0000000000000000e+00  -8.5744167334338698e-06 1.6915325980137479e-05 0.0000000000000000e+00  7.9857092559821049e-06 8.7014131519365368e-04 0.00000000000