<?xml version="1.0"?>
<VTKFile type="UnstructuredGrid"  version="0.1"  >
<UnstructuredGrid>
<Piece  NumberOfPoints="1419" NumberOfCells="2698">
<Points>
<DataArray  type="Float64"  NumberOfComponents="3"  format="ascii">0 0 0  0 0.41 0  2.5 0 0  2.5 0.41 0  0.6 0.19 0  0.6 0.21 0  0.25 0.2 0  0.15 0.2 0  0.2489897948556636 0.21 0  0.2489897948556636 0.19 0  0.6 0.2 0  0 0.3807142857143437 0  0 0.3514285714286952 0  0 0.3221428571430699 0  0 0.29285714285744 0  0 0.2635714285718054 0  0 0.2342857142861561 0  0 0.2050000000005308 0  0 0.175714285714732 0  0 0.1464285714289574 0  0 0.1171428571431897 0  0 0.08785714285737878 0  0 0.05857142857161107 0  0 0.02928571428580012 0  0.03015443760436003 0 0  0.06140001986583606 0 0  0.09377624077125973 0 0  0.1273239957535082 0 0  0.1620856860351972 0 0  0.1981052433264291 0 0  0.235428184091502 0 0  0.2741016576309132 0 0  0.3141745521465447 0 0  0.3556974926295285 0 0  0.3987229542472677 0 0  0.4433053055141081 0 0  0.4895008759286886 0 0  0.5373680609405097 0 0  0.5869673343216626 0 0  0.6383613676634521 0 0  0.6916151138468254 0 0  0.7467958595648856 0 0  0.8039733463919316 0 0  0.8632198139502143 0 0  0.9246101326867038 0 0  0.9882218810934433 0 0  1.054135445558498 0 0  1.122434100542598 0 0  1.193204177141305 0 0  1.266535089879536 0 0  1.342519516046404 0 0  1.421253448503939 0 0  1.502836389106271 0 0  1.587371439758838 0 0  1.674965418777374 0 0  1.765729001825544 0 0  1.859776908880082 0 0  1.957227977487062 0 0  2.058205329869943 0 0  2.162836591189951 0 0  2.271253957290865 0 0  2.383594446803425 0 0  2.5 0.1024999999997612 0  2.5 0.2049999999994743 0  2.5 0.3074999999997183 0  2.383594446803656 0.41 0  2.271253957291315 0.41 0  2.162836591190598 0.41 0  2.058205329870775 0.41 0  1.957227977488067 0.41 0  1.859776908881246 0.41 0  1.765729001826854 0.41 0  1.674965418778818 0.41 0  1.58737143976041 0.41 0  1.502836389107956 0.41 0  1.421253448505726 0.41 0  1.342519516048286 0.41 0  1.266535089881505 0.41 0  1.193204177143353 0.41 0  1.122434100544716 0.41 0  1.05413544556068 0.41 0  0.9882218810956305 0.41 0  0.9246101326886647 0.41 0  0.8632198139519631 0.41 0  0.8039733463934788 0.41 0  0.7467958595662458 0.41 0  0.6916151138480078 0.41 0  0.6383613676644679 0.41 0  0.5869673343225223 0.41 0  0.5373680609412221 0.41 0  0.4895008759292634 0.41 0  0.4433053055145528 0.41 0  0.3987229542475914 0.41 0  0.3556974926297398 0.41 0  0.3141745521466497 0.41 0  0.2741016576310038 0.41 0  0.2354281840915826 0.41 0  0.1981052433265003 0.41 0  0.1620856860352591 0.41 0  0.1273239957535623 0.41 0  0.09377624077128965 0.41 0  0.06140001986584975 0.41 0  0.03015443760436654 0.41 0  0.2497468076502589 0.2050254481002335 0  0.2497468076502614 0.1949745518997913 0  0.2469965252529372 0.1829317073451959 0  0.2439893735792749 0.1762316384219906 0  0.2400332147834255 0.1700443375285386 0  0.2352133972704371 0.1645032867342007 0  0.2296339016332438 0.1597280261969788 0  0.2234150974217223 0.1558215752574715 0  0.2166911463437691 0.1528682099456123 0  0.2096071079204251 0.1509316448471593 0  0.2023158100364996 0.1500536585536553 0  0.194974551899914 0.1502531923497262 0  0.1877417105387872 0.1515259415822739 0  0.1807733240461124 0.153844448527136 0  0.1742197252835808 0.15715869474974 0  0.1682222986673531 0.1613971801805478 0  0.162910430003803 0.1664684656256651 0  0.1583987151779087 0.1722631454351573 0  0.1547844879126891 0.178656207771761 0  0.1521457199348551 0.1855097315605723 0  0.1505393388476355 0.1926758619366523 0  0.1505393388476328 0.2073241380633295 0  0.1521457199348437 0.2144902684393899 0  0.1547844879126531 0.221343792228163 0  0.1583987151778488 0.2277368545647528 0  0.1629104300036858 0.2335315343742052 0  0.1682222986671726 0.2386028198193036 0  0.1742197252833576 0.2428413052501257 0  0.1807733240458683 0.2461555514727623 0  0.1877417105384929 0.2484740584176516 0  0.1949745518995776 0.2497468076502398 0  0.202315810036185 0.2499463414463592 0  0.2096071079201568 0.2490683551528932 0  0.2166911463435495 0.2471317900544655 0  0.2234150974215506 0.2441784247426195 0  0.2296339016331197 0.2402719738031125 0  0.2352133972703547 0.2354967132658811 0  0.2400332147833751 0.2299556624715287 0  0.2439893735792577 0.2237683615780412 0  0.246996525252926 0.2170682926548348 0  0.25645809709277 0.21 0  0.2639263993298655 0.21 0  0.271394701566961 0.21 0  0.2788630038040554 0.21 0  0.2863313060411479 0.21 0  0.2937996082782405 0.21 0  0.301267910515333 0.21 0  0.3087362127524279 0.21 0  0.3162045149895234 0.21 0  0.3236728172265972 0.21 0  0.3311411194636928 0.21 0  0.3386094217007701 0.21 0  0.3460777239378666 0.21 0  0.3535460261749672 0.21 0  0.3610143284120516 0.21 0  0.3684826306491596 0.21 0  0.3759509328862226 0.21 0  0.383419235123329 0.21 0  0.3908875373604028 0.21 0  0.3983558395975142 0.21 0  0.4058241418345938 0.21 0  0.4132924440716992 0.21 0  0.4207607463087888 0.21 0  0.4282290485459029 0.21 0  0.4356973507830418 0.21 0  0.4431656530201649 0.21 0  0.4506339552573136 0.21 0  0.4581022574944306 0.21 0  0.4655705597315852 0.21 0  0.4730388619686996 0.21 0  0.480507164205851 0.21 0  0.4879754664429498 0.21 0  0.4954437686800938 0.21 0  0.502912070917267 0.21 0  0.5103803731544119 0.21 0  0.5178486753915261 0.21 0  0.5253169776286404 0.21 0  0.5327852798657868 0.21 0  0.5402535821029386 0.21 0  0.54772188434007 0.21 0  0.5551901865771842 0.21 0  0.5626584888143201 0.21 0  0.5701267910514778 0.21 0  0.5775950932886138 0.21 0  0.5850633955257281 0.21 0  0.5925316977628483 0.21 0  0.6 0.2050000000000054 0  0.6 0.1950000000000217 0  0.5925316977628897 0.19 0  0.5850633955257988 0.19 0  0.5775950932887378 0.19 0  0.5701267910515998 0.19 0  0.5626584888145268 0.19 0  0.5551901865773963 0.19 0  0.547721884340339 0.19 0  0.5402535821032429 0.19 0  0.5327852798661811 0.19 0  0.5253169776290537 0.19 0  0.5178486753919799 0.19 0  0.5103803731549078 0.19 0  0.502912070917822 0.19 0  0.4954437686807294 0.19 0  0.4879754664436223 0.19 0  0.4805071642065402 0.19 0  0.4730388619694271 0.19 0  0.4655705597323621 0.19 0  0.4581022574952563 0.19 0  0.4506339552581777 0.19 0  0.4431656530210671 0.19 0  0.4356973507839815 0.19 0  0.4282290485468779 0.19 0  0.4207607463097617 0.19 0  0.4132924440726327 0.19 0  0.4058241418354857 0.19 0  0.3983558395983636 0.19 0  0.3908875373612097 0.19 0  0.3834192351240934 0.19 0  0.3759509328869369 0.19 0  0.3684826306498175 0.19 0  0.361014328412667 0.19 0  0.3535460261755617 0.19 0  0.3460777239384295 0.19 0  0.3386094217012945 0.19 0  0.3311411194641595 0.19 0  0.3236728172270245 0.19 0  0.3162045149898895 0.19 0  0.3087362127527544 0.19 0  0.3012679105156187 0.19 0  0.2937996082784807 0.19 0  0.2863313060413428 0.19 0  0.2788630038042048 0.19 0  0.2713947015670686 0.19 0  0.2639263993299336 0.19 0  0.2564580970927985 0.19 0  0.2607803159922026 0.2000727136295815 0  0.5887803774232762 0.2001272386983733 0  0.5745072403740523 0.2002044435018727 0  0.5511891430099709 0.2001122610077113 0  0.2751288526855082 0.20000000000002 0  0.5365194309847112 0.1999999999999436 0  0.2894621222999649 0.1998691686390484 0  0.5215828265105155 0.1999999999999228 0  0.3127789816668748 0.1998657885438805 0  0.3274069683451451 0.2000000000000796 0  0.5066462220363641 0.199999999999908 0  0.3650630746574081 0.199866017807523 0  0.476773013087985 0.1999999999998713 0  0.3417402379596385 0.1998691686391011 0  0.3796850840047755 0.200000000000134 0  0.4618364086138087 0.1999999999998546 0  0.4917096175621762 0.1999999999998808 0  0.3946216884789568 0.2000000000001512 0  0.446899804139621 0.1999999999998389 0  0.4089549580935208 0.1998691686391595 0  0.4322718174608562 0.200127451265745 0  0.4201487168029707 0.1999966199048527 0  0.3528922713220932 0.2000185703532356 0  0.5633122436674589 0.1999814296467508 0  0.3006558810093873 0.1999966199048318 0  0.5815926498168407 0.1966545283159175 0  0.2677053789419034 0.1964246479135325 0  0.5290511287476175 0.1970915826863981 0  0.5439877332217911 0.197091582686394 0  0.2825131256993216 0.2035478995978015 0  0.3199386661080599 0.202908417313604 0  0.4842413153250809 0.1970915826863873 0  0.5141145242734466 0.1970915826863843 0  0.3722167817676917 0.2029084173136195 0  0.4693047108508938 0.1970915826863783 0  0.3348752705822316 0.202908417313609 0  0.3871533862418661 0.2029084173136212 0  0.4543681063767183 0.1970915826863795 0  0.4991779197992749 0.1970915826863902 0  0.4020059614928624 0.203547899597858 0  0.4394315019025246 0.1970915826863714 0  0.2550657455369551 0.2034088125358657 0  0.2548908499171161 0.1966940311614271 0  0.5946539510196798 0.2024302972968126 0  0.267698176732111 0.2039977513680092 0  0.4261685417851465 0.196409292431739 0  0.3590076176283495 0.196411355804271 0  0.5571672426447437 0.2036011176410121 0  0.3066757059912147 0.1964092924317024 0  0.594380730180568 0.1966558399668133 0  0.4842413153245942 0.2040749161535287 0  0.4693047108503577 0.2040749161535231 0  0.3871533862424271 0.1959250838464788 0  0.372246743208829 0.1959123236376545 0  0.5141145242731028 0.2040749161535395 0  0.4543681063761134 0.2040749161535186 0  0.4019979587101454 0.1959834479682427 0  0.4394608940728603 0.2040870543693135 0  0.5439623148931173 0.2040856076781014 0  0.5290511287473298 0.2040749161535501 0  0.4991779197988497 0.2040749161535382 0  0.3347912413592433 0.1959225448935183 0  0.3199680582793816 0.1959123018030061 0  0.2825051229162361 0.1959834479681729 0  0.3590471196690275 0.2036304442587945 0  0.5571594006495384 0.1963685282145804 0  0.3067669986803285 0.203627750582736 0  0.4262598344738712 0.2036568242185335 0  0.5814408164431408 0.2041285596160068 0  0.5688286748170428 0.1961819304477386 0  0.4145905603063645 0.2038180695522843 0  0.3473758401724931 0.2038180695522752 0  0.2950977245128307 0.2038180695522663 0  0.5688286748170693 0.203818069552238 0  0.2950977245127906 0.1961819304477774 0  0.3473758401723931 0.1961819304478349 0  0.4145905603061963 0.1961819304479011 0  0.2601812407614425 0.2056861609747042
[...]
<PointData  Vectors="f_40-1"> 
<DataArray  type="Float64"  Name="f_40-1"  NumberOfComponents="3" format="ascii">0.0000000000000000e+00 0.0000000000000000e+00 0.0000000000000000e+00  0.0000000000000000e+00 0.0000000000000000e+00 0.0000000000000000e+00  0.0000000000000000e+00 0.0000000000000000e+00 0.0000000000000000e+00  0.0000000000000000e+00 0.0000000000000000e+00 0.0000000000000000e+00  5.8432231041848717e-05 2.0840426126497182e-03 0.0000000000000000e+00  -8.7519403888939004e-05 2.0839158500991347e-03 0.0000000000000000e+00  0.0000000000000000e+00 0.0000000000000000e+00 0.0000000000000000e+00  0.0000000000000000e+00 0.0000000000000000e+00 0.0000000000000000e+00  0.0000000000000000e+00 0.0000000000000000e+00 0.0000000000000000e+00  0.0000000000000000e+00 0.0000000000000000e+00 0.0000000000000000e+00  -1.4615030985137333e-05 2.0839715541384994e-03 0.0000000000000000e+00  0.0000000000000000e+00 0.0000000000000000e+00 0.0000000000000000e+00  0.0000000000000000e+00 0.0000000000000000e+00 0.0000000000000000e+00  0.0000000000000000e+00 0.0000000000000000e+00 0.0000000000000000e+00  0.0000000000000000e+00 0.0000000000000000e+00 0.0000000000000000e+00  0.0000000000000000e+00 0.0000000000000000e+00 0.0000000000000000e+00  0.0000000000000000e+00 0.0000000000000000e+00 0.0000000000000000e+00  0.0000000000000000e+00 0.0000000000000000e+00 0.0000000000000000e+00  0.0000000000000000e+00 0.0000000000000000e+00 0.0000000000000000e+00  0.0000000000000000e+00 0.0000000000000000e+00 0.0000000000000000e+00  0.0000000000000000e+00 0.0000000000000000e+00 0.0000000000000000e+00  0.0000000000000000e+00 0.0000000000000000e+00 0.0000000000000000e+00  0.0000000000000000e+00 0.0000000000000000e+00 0.0000000000000000e+00  0.0000000000000000e+00 0.0000000000000000e+00 0.0000000000000000e+00  0.0000000000000000e+00 0.0000000000000000e+00 0.0000000000000000e+00  0.0000000000000000e+00 0.0000000000000000e+00 0.0000000000000000e+00  0.0000000000000000e+00 0.0000000000000000e+00 0.0000000000000000e+00  0.0000000000000000e+00 0.0000000000000000e+00 0.0000000000000000e+00  0.0000000000000000e+00 0.0000000000000000e+00 0.0000000000000000e+00  0.0000000000000000e+00 0.0000000000000000e+00 0.0000000000000000e+00  0.0000000000000000e+00 0.0000000000000000e+00 0.0000000000000000e+00  0.0000000000000000e+00 0.0000000000000000e+00 0.0000000000000000e+00  0.0000000000000000e+00 0.0000000000000000e+00 0.0000000000000000e+00  0.0000000000000000e+00 0.0000000000000000e+00 0.0000000000000000e+00  0.0000000000000000e+00 0.0000000000000000e+00 0.0000000000000000e+00  0.0000000000000000e+00 0.0000000000000000e+00 0.0000000000000000e+00  0.0000000000000000e+00 0.0000000000000000e+00 0.0000000000000000e+00  0.0000000000000000e+00 0.0000000000000000e+00 0.0000000000000000e+00  0.0000000000000000e+00 0.0000000000000000e+00 0.0000000000000000e+00  0.0000000000000000e+00 0.0000000000000000e+00 0.0000000000000000e+00  0.0000000000000000e+00 0.0000000000000000e+00 0.0000000000000000e+00  0.0000000000000000e+00 0.0000000000000000e+00 0.0000000000000000e+00  0.0000000000000000e+00 0.0000000000000000e+00 0.0000000000000000e+00  0.0000000000000000e+00 0.0000000000000000e+00 0.0000000000000000e+00  0.0000000000000000e+00 0.0000000000000000e+00 0.0000000000000000e+00  0.0000000000000000e+00 0.0000000000000000e+00 0.0000000000000000e+00  0.0000000000000000e+00 0.0000000000000000e+00 0.0000000000000000e+00  0.0000000000000000e+00 0.0000000000000000e+00 0.0000000000000000e+00  0.0000000000000000e+00 0.0000000000000000e+00 0.0000000000000000e+00  0.0000000000000000e+00 0.0000000000000000e+00 0.0000000000000000e+00  0.0000000000000000e+00 0.0000000000000000e+00 0.0000000000000000e+00  0.0000000000000000e+00 0.0000000000000000e+00 0.0000000000000000e+00  0.0000000000000000e+00 0.0000000000000000e+00 0.0000000000000000e+00  0.0000000000000000e+00 0.0000000000000000e+00 0.0000000000000000e+00  0.0000000000000000e+00 0.0000000000000000e+00 0.0000000000000000e+00  0.0000000000000000e+00 0.0000000000000000e+00 0.0000000000000000e+00  0.0000000000000000e+00 0.0000000000000000e+00 0.0000000000000000e+00  0.0000000000000000e+00 0.0000000000000000e+00 0.0000000000000000e+00  0.0000000000000000e+00 0.0000000000000000e+00 0.0000000000000000e+00  0.0000000000000000e+00 0.0000000000000000e+00 0.0000000000000000e+00  0.0000000000000000e+00 0.0000000000000000e+00 0.0000000000000000e+00  0.0000000000000000e+00 0.0000000000000000e+00 0.0000000000000000e+00  0.0000000000000000e+00 0.0000000000000000e+00 0.0000000000000000e+00  0.0000000000000000e+00 0.0000000000000000e+00 0.0000000000000000e+00  0.0000000000000000e+00 0.0000000000000000e+00 0.0000000000000000e+00  0.0000000000000000e+00 0.0000000000000000e+00 0.0000000000000000e+00  0.0000000000000000e+00 0.0000000000000000e+00 0.0000000000000000e+00  0.0000000000000000e+00 0.0000000000000000e+00 0.0000000000000000e+00  0.0000000000000000e+00 0.0000000000000000e+00 0.0000000000000000e+00  0.0000000000000000e+00 0.0000000000000000e+00 0.0000000000000000e+00  0.0000000000000000e+00 0.0000000000000000e+00 0.0000000000000000e+00  0.0000000000000000e+00 0.0000000000000000e+00 0.0000000000000000e+00  0.0000000000000000e+00 0.0000000000000000e+00 0.0000000000000000e+00  0.0000000000000000e+00 0.0000000000000000e+00 0.0000000000000000e+00  0.0000000000000000e+00 0.0000000000000000e+00 0.0000000000000000e+00  0.0000000000000000e+00 0.0000000000000000e+00 0.0000000000000000e+00  0.0000000000000000e+00 0.0000000000000000e+00 0.0000000000000000e+00  0.0000000000000000e+00 0.0000000000000000e+00 0.0000000000000000e+00  0.0000000000000000e+00 0.0000000000000000e+00 0.0000000000000000e+00  0.0000000000000000e+00 0.0000000000000000e+00 0.0000000000000000e+00  0.0000000000000000e+00 0.0000000000000000e+00 0.0000000000000000e+00  0.0000000000000000e+00 0.0000000000000000e+00 0.0000000000000000e+00  0.0000000000000000e+00 0.0000000000000000e+00 0.0000000000000000e+00  0.0000000000000000e+00 0.0000000000000000e+00 0.0000000000000000e+00  0.0000000000000000e+00 0.0000000000000000e+00 0.0000000000000000e+00  0.0000000000000000e+00 0.0000000000000000e+00 0.0000000000000000e+00  0.0000000000000000e+00 0.0000000000000000e+00 0.0000000000000000e+00  0.0000000000000000e+00 0.0000000000000000e+00 0.0000000000000000e+00  0.0000000000000000e+00 0.0000000000000000e+00 0.0000000000000000e+00  0.0000000000000000e+00 0.0000000000000000e+00 0.0000000000000000e+00  0.0000000000000000e+00 0.0000000000000000e+00 0.0000000000000000e+00  0.0000000000000000e+00 0.0000000000000000e+00 0.0000000000000000e+00  0.0000000000000000e+00 0.0000000000000000e+00 0.0000000000000000e+00  0.0000000000000000e+00 0.0000000000000000e+00 0.0000000000000000e+00  0.0000000000000000e+00 0.0000000000000000e+00 0.0000000000000000e+00  0.0000000000000000e+00 0.0000000000000000e+00 0.0000000000000000e+00  0.0000000000000000e+00 0.0000000000000000e+00 0.0000000000000000e+00  0.0000000000000000e+00 0.0000000000000000e+00 0.0000000000000000e+00  0.0000000000000000e+00 0.0000000000000000e+00 0.0000000000000000e+00  0.0000000000000000e+00 0.0000000000000000e+00 0.0000000000000000e+00  0.0000000000000000e+00 0.0000000000000000e+00 0.0000000000000000e+00  0.0000000000000000e+00 0.0000000000000000e+00 0.0000000000000000e+00  0.0000000000000000e+00 0.0000000000000000e+00 0.0000000000000000e+00  0.0000000000000000e+00 0.0000000000000000e+00 0.0000000000000000e+00  0.0000000000000000e+00 0.0000000000000000e+00 0.0000000000000000e+00  0.0000000000000000e+00 0.0000000000000000e+00 0.0000000000000000e+00  0.0000000000000000e+00 0.0000000000000000e+00 0.0000000000000000e+00  0.0000000000000000e+00 0.0000000000000000e+00 0.0000000000000000e+00  0.0000000000000000e+00 0.0000000000000000e+00 0.0000000000000000e+00  0.0000000000000000e+00 0.0000000000000000e+00 0.0000000000000000e+00  0.0000000000000000e+00 0.0000000000000000e+00 0.0000000000000000e+00  0.0000000000000000e+00 0.0000000000000000e+00 0.0000000000000000e+00  0.0000000000000000e+00 0.0000000000000000e+00 0.0000000000000000e+00  0.0000000000000000e+00 0.0000000000000000e+00 0.0000000000000000e+00  0.0000000000000000e+00 0.0000000000000000e+00 0.0000000000000000e+00  0.0000000000000000e+00 0.0000000000000000e+00 0.0000000000000000e+00  0.0000000000000000e+00 0.0000000000000000e+00 0.0000000000000000e+00  0.0000000000000000e+00 0.0000000000000000e+00 0.0000000000000000e+00  0.0000000000000000e+00 0.0000000000000000e+00 0.0000000000000000e+00  0.0000000000000000e+00 0.0000000000000000e+00 0.0000000000000000e+00  0.0000000000000000e+00 0.0000000000000000e+00 0.0000000000000000e+00  0.0000000000000000e+00 0.0000000000000000e+00 0.0000000000000000e+00  0.0000000000000000e+00 0.0000000000000000e+00 0.0000000000000000e+00  0.0000000000000000e+00 0.0000000000000000e+00 0.0000000000000000e+00  0.0000000000000000e+00 0.0000000000000000e+00 0.0000000000000000e+00  0.0000000000000000e+00 0.0000000000000000e+00 0.0000000000000000e+00  0.0000000000000000e+00 0.0000000000000000e+00 0.0000000000000000e+00  0.0000000000000000e+00 0.0000000000000000e+00 0.0000000000000000e+00  0.0000000000000000e+00 0.0000000000000000e+00 0.0000000000000000e+00  0.0000000000000000e+00 0.0000000000000000e+00 0.0000000000000000e+00  0.0000000000000000e+00 0.0000000000000000e+00 0.0000000000000000e+00  0.0000000000000000e+00 0.0000000000000000e+00 0.0000000000000000e+00  0.0000000000000000e+00 0.0000000000000000e+00 0.0000000000000000e+00  0.0000000000000000e+00 0.0000000000000000e+00 0.0000000000000000e+00  0.0000000000000000e+00 0.0000000000000000e+00 0.0000000000000000e+00  0.0000000000000000e+00 0.0000000000000000e+00 0.0000000000000000e+00  0.0000000000000000e+00 0.0000000000000000e+00 0.0000000000000000e+00  0.0000000000000000e+00 0.0000000000000000e+00 0.0000000000000000e+00  0.0000000000000000e+00 0.0000000000000000e+00 0.0000000000000000e+00  0.0000000000000000e+00 0.0000000000000000e+00 0.0000000000000000e+00  0.0000000000000000e+00 0.0000000000000000e+00 0.0000000000000000e+00  0.0000000000000000e+00 0.0000000000000000e+00 0.0000000000000000e+00  0.0000000000000000e+00 0.0000000000000000e+00 0.0000000000000000e+00  -5.8682694447925780e-06 5.8201352387033809e-06 0.0000000000000000e+00  -1.2421409716654020e-05 1.2508227504996324e-05 0.0000000000000000e+00  -1.8193505086058840e-05 2.3168997837420909e-05 0.0000000000000000e+00  -2.4316275302753178e-05 3.8052051345746435e-05 0.0000000000000000e+00  -2.9395207227110602e-05 5.6362109673760464e-05 0.0000000000000000e+00  -3.4969008417028410e-05 7.8416357840022604e-05 0.0000000000000000e+00  -3.9425059500539630e-05 1.0315983394608427e-04 0.0000000000000000e+00  -4.3638661012681323e-05 1.3137546207146947e-04 0.0000000000000000e+00  -4.8313518513631462e-05 1.6215932790788391e-04 0.0000000000000000e+00  -5.1833546732825527e-05 1.9553051023520212e-04 0.0000000000000000e+00  -5.5931801800107439e-05 2.3141391506569284e-04 0.0000000000000000e+00  -5.8969614438039487e-05 2.6947915528857029e-04 0.0000000000000000e+00  -6.2368948680262707e-05 3.0962227956915522e-04 0.0000000000000000e+00  -6.5021893031335742e-05 3.5137383298532534e-04 0.0000000000000000e+00  -6.7476261972114550e-05 3.9503480743503832e-04 0.0000000000000000e+00  -7.0109410360440021e-05 4.4007542001383963e-04 0.0000000000000000e+00  -7.2058219426938554e-05 4.8644467052018570e-04 0.0000000000000000e+00  -7.4220420329780941e-05 5.3408473362005478e-04 0.0000000000000000e+00  -7.5796710519116298e-05 5.8273353174022541e-04 0.0000000000000000e+00  -7.7504412658816225e-05 6.3233251127834355e-04 0.0000000000000000e+00  -7.8814165900440475e-05 6.8273071542024235e-04 0.0000000000000000e+00  -8.0130789388328365e-05 7.3388568443074774e-04 0.0000000000000000e+00  -8.1161231103133244e-05 7.8554358865156508e-04 0.0000000000000000e+00  -8.2072166997421896e-05 8.3781219085053498e-04 0.0000000000000000e+00  -8.2988944426304738e-05 8.9047180895757822e-04 0.0000000000000000e+00  -8.3704458661937054e-05 9.4353560031824033e-04 0.0000000000000000e+00  -8.4357127718897313e-05 9.9695235082962333e-04 0.0000000000000000e+00  -8.4894348010391762e-05 1.0505978330750065e-03 0.0000000000000000e+00  -8.5371869810267696e-05 1.1045014932749206e-03 0.0000000000000000e+00  -8.5761352500110909e-05 1.1585523610363377e-03 0.0000000000000000e+00  -8.6098511671783910e-05 1.2127707269487975e-03 0.0000000000000000e+00  -8.6367839796095750e-05 1.2670665724298755e-03 0.0000000000000000e+00  -8.6594583135034053e-05 1.3214588957738576e-03 0.0000000000000000e+00  -8.6769860216982548e-05 1.3758778452954694e-03 0.0000000000000000e+00  -8.6909560052236430e-05 1.4303449942946532e-03 0.0000000000000000e+00  -8.7018404692476239e-05 1.4848121430349292e-03 0.0000000000000000e+00  -8.7103759305577001e-05 1.5392934517327614e-03 0.0000000000000000e+00  -8.7171530308472844e-05 1.5937637829824530e-03 0.0000000000000000e+00  -8.7224428135860400e-05 1.6482326140297146e-03 0.0000000000000000e+00  -8.7270465791769761e-05 1.7026912163035921e-03 0.0000000000000000e+00  -8.7310720140194794e-05 1.7571431334873901e-03 0.0000000000000000e+00  -8.7351268092462155e-05 1.8115911544255756e-03 0.0000000000000000e+00  -8.7387909142496822e-05 1.8660418226531122e-03 0.0000000000000000e+00  -8.7427063353061649e-05 1.9204964517293311e-03 0.0000000000000000e+00  -8.7467615786999579e-05 1.9749643589676972e-03 0.0000000000000000e+00  -8.7502560548831490e-05 2.0294413554697729e-03 0.0000000000000000e+00  -5.1084115185199690e-05 2.0839432675170597e-03 0.0000000000000000e+00  2.1882530965460592e-05 2.0840020738637278e-03 0.0000000000000000e+00  5.8427587653918096e-05 2.0295102508482619e-03 0.0000000000000000e+00  5.8445636768262177e-05 1.9750157050385394e-03 0.0000000000000000e+00  5.8471357561170284e-05 1.9205362644683546e-03 0.0000000000000000e+00  5.8499172661248217e-05 1.8660620401338395e-03 0.0000000000000000e+00  5.8532594655263095e-05 1.8115896888263887e-03 0.0000000000000000e+00  5.8577636701602335e-05 1.7571152076128187e-03 0.0000000000000000e+00  5.8629331388389661e-05 1.7026344415940467e-03 0.0000000000000000e+00  5.8689303030411135e-05 1.6481465371214015e-03 0.0000000000000000e+00  5.8755055317304972e-05 1.5936469058770478e-03 0.0000000000000000e+00  5.8825893616614815e-05 1.5391366085329955e-03 0.0000000000000000e+00  5.8895744731695804e-05 1.4846199504053117e-03 0.0000000000000000e+00  5.8970426216259131e-05 1.4301040883275135e-03 0.0000000000000000e+00  5.9030296750161603e-05 1.3755989121574828e-03 0.0000000000000000e+00  5.9094205867607338e-05 1.3211230152994932e-03 0.0000000000000000e+00  5.9119712157261264e-05 1.2666899995417724e-03 0.0000000000000000e+00  5.9154163337770558e-05 1.2123331028130679e-03 0.0000000000000000e+00  5.9120277938132622e-05 1.1580708947871825e-03 0.0000000000000000e+00  5.9106544011644617e-05 1.1039504685632509e-03 0.0000000000000000e+00  5.8988111012302864e-05 1.0499973803083332e-03 0.0000000000000000e+00  5.8907117175153617e-05 9.9627150065822643e-04 0.0000000000000000e+00  5.8671748143010679e-05 9.4280321977049703e-04 0.0000000000000000e+00  5.8495953596947759e-05 8.8966807681847425e-04 0.0000000000000000e+00  5.8117912143676670e-05 8.3691353577340318e-04 0.0000000000000000e+00  5.7786190057124517e-05 7.8457010623765545e-04 0.0000000000000000e+00  5.7387921446134331e-05 7.3283904289190020e-04 0.0000000000000000e+00  5.6750463588620654e-05 6.8158389864308598e-04 0.0000000000000000e+00  5.6112585687503454e-05 6.3112242569351334e-04 0.0000000000000000e+00  5.5247034256142866e-05 5.8140619462046766e-04 0.0000000000000000e+00  5.4340992231774403e-05 5.3268039570065389e-04 0.0000000000000000e+00  5.3171110086569787e-05 4.8495325651433960e-04 0.0000000000000000e+00  5.1954356806149423e-05 4.3842843341222471e-04 0.0000000000000000e+00  5.0262892568977470e-05 3.9338664656572421e-04 0.0000000000000000e+00  4.8757548958999007e-05 3.4960541477215012e-04 0.0000000000000000e+00  4.7091023255471401e-05 3.0778759396711829e-04 0.0000000000000000e+00  4.4807814579680048e-05 2.6741164863436221e-04 0.0000000000000000e+00  4.2587419741818719e-05 2.2931754449886403e-04 0.0000000000000000e+00  3.9912332909920619e-05 1.9332071239006203e-04 0.0000000000000000e+00  3.7252046574842299e-05 1.5973518616706496e-04 0.0000000000000000e+00  3.3810797297421881e-05 1.2900748361445189e-04 0.0000000000000000e+00  3.0803193085832408e-05 1.0064493374486305e-04 0.0000000000000000e+00  2.7608713380465066e-05 7.5811643071485693e-05 0.0000000000000000e+00  2.3400458065605998e-05 5.3562669223365227e-05 0.0000000000000000e+00  1.9506894769390311e-05 3.5083557954681578e-05 0.0000000000000000e+00  1.4679162988003944e-05 2.0314268999677875e-05 0.0000000000000000e+00  1.0299788608318159e-05 9.5790549914621041e-06 0.0000000000000000e+00  4.8896602385412946e-06 3.0085311092189688e-06 0.0000000000000000e+00  -5.9881699537205013e-07 4.7670022965896121e-06 0.0000000000000000e+00  -1.5484450782837927e-05 2.0021035990597166e-03 0.0000000000000000e+00  -1.5976227560831639e-05 1.8979939742350305e-03 0.0000000000000000e+00  -1.5177925689529801e-05 1.7279525641961655e-03 0.0000000000000000e+00  -2.0037212151568988e-06 2.6166359315308305e-05 0.0000000000000000e+00  -1.4253037363124675e-05 1.6209499943898853e-03 0.0000000000000000e+00  -2.9271728677915883e-06 6.1517642911189645e-05 0.0000000000000000e+00  -1.4112792059615766e-05 1.5119603314326391e-03 0.0000000000000000e+00  -4.6453113767169863e-06 1.4468921034102494e-04 0.0000000000000000e+00  -6.3041186085748220e-06 2.1060958859458694e-04 0.0000000000000000e+00  -1.3929168032363802e-05 1.4029586725879456e-03 0.0000000000000000e+00  -8.0284431010330619e-06 4.1748418850648633e-04 0.0000000000000000e+00  -1.3399976221213452e-05 1.1853308572570100e-03 0.0000000000000000e+00  -6.6353110764944442e-06 2.8373734565216926e-04 0.0000000000000000e+00  -9.6880740411565654e-06 5.0865421388687933e-04 0.0000000000000000e+00  -1.3043635442732553e-05 1.0771007601300395e-03 0.0000000000000000e+00  -1.3693488632803709e-05 1.2940293339034434e-03 0.0000000000000000e+00  -1.0485035381380856e-05 6.0619965467365792e-04 0.0000000000000000e+00  -1.2614913821193183e-05 9.6965377895355022e-04 0.0000000000000000e+00  -1.0281593253109812e-05 7.0306304035474795e-04 0.0000000000000000e+00  -1.3021887960456879e-05 8.6556192225655155e-04 0.0000000000000000e+00  -1.1627362470712439e-05 7.8052585010397497e-04 0.0000000000000000e+00  -8.1692925506430981e-06 3.4593943408430319e-04 0.0000000000000000e+00  -1.4295636217330236e-05 1.8163575160663969e-03 0.0000000000000000e+00  -4.1920523984659329e-06 9.8272548492101344e-05 0.0000000000000000e+00  9.8889313067908587e-06 1.9496775574533965e-03 0.0000000000000000e+00  3.7075246527721046e-06 1.3165850208539813e-05 0.0000000000000000e+00  7.0342970648613377e-06 1.5664402696647763e-03 0.0000000000000000e+00  6.9093401963377982e-06 1.6754190949254445e-03 0.0000000000000000e+00  -1.1136208391886810e-05 4.3661259998210408e-05 0.0000000000000000e+00  -1.8659679070721101e-05 1.7631434841295333e-04 0.0000000000000000e+00  7.5831136025215710e-06 1.2395889675494622e-03 0.0000000000000000e+00  7.1896125422659977e-06 1.4574280795035025e-03 0.0000000000000000e+00  -2.7244068307681945e-05 4.6182752576341652e-04 0.0000000000000000e+00  7.8054916210654367e-06 1.1310799487398294e-03 0.0000000000000000e+00  -2.1486109023305877e-05 2.4824416440823069e-04 0.0000000000000000e+00  -2.8949307688713582e-05 5.5722967263265055e-04 0.0000000000000000e+00  8.0345621528686069e-06 1.0231876069505938e-03 0.0000000000000000e+00  7.3748401086219139e-06 1.3484374856977161e-03 0.0000000000000000e+00  -3.4688396770962003e-05 6.5606084251997650e-04 0.0000000000000000e+00  8.2661451187895286e-06 9.1626101869253659e-04 0.0000000000000000e+00  -1.0409349341111470e-06 1.3968595274289950e-06 0.0000000000000000e+00  7.4319389104303383e-07 6.5484061868235738e-07 0.0000000000000000e+00  -3.2317673603469047e-05 2.0449528417741491e-03 0.0000000000000000e+00  -6.8769812484803703e-06 1.4344515311367472e-05 0.0000000000000000e+00  1.3235899978154027e-05 8.2244952365255713e-04 0.0000000000000000e