<?xml version="1.0"?>
<VTKFile type="UnstructuredGrid"  version="0.1"  >
<UnstructuredGrid>
<Piece  NumberOfPoints="1419" NumberOfCells="2698">
<Points>
<DataArray  type="Float64"  NumberOfComponents="3"  format="ascii">0 0 0  0 0.41 0  2.5 0 0  2.5 0.41 0  0.6 0.19 0  0.6 0.21 0  0.25 0.2 0  0.15 0.2 0  0.2489897948556636 0.21 0  0.2489897948556636 0.19 0  0.6 0.2 0  0 0.3807142857143437 0  0 0.3514285714286952 0  0 0.3221428571430699 0  0 0.29285714285744 0  0 0.2635714285718054 0  0 0.2342857142861561 0  0 0.2050000000005308 0  0 0.175714285714732 0  0 0.1464285714289574 0  0 0.1171428571431897 0  0 0.08785714285737878 0  0 0.05857142857161107 0  0 0.02928571428580012 0  0.03015443760436003 0 0  0.06140001986583606 0 0  0.09377624077125973 0 0  0.1273239957535082 0 0  0.1620856860351972 0 0  0.1981052433264291 0 0  0.235428184091502 0 0  0.2741016576309132 0 0  0.3141745521465447 0 0  0.3556974926295285 0 0  0.3987229542472677 0 0  0.4433053055141081 0 0  0.4895008759286886 0 0  0.5373680609405097 0 0  0.5869673343216626 0 0  0.6383613676634521 0 0  0.6916151138468254 0 0  0.7467958595648856 0 0  0.8039733463919316 0 0  0.8632198139502143 0 0  0.9246101326867038 0 0  0.9882218810934433 0 0  1.054135445558498 0 0  1.122434100542598 0 0  1.193204177141305 0 0  1.266535089879536 0 0  1.342519516046404 0 0  1.421253448503939 0 0  1.502836389106271 0 0  1.587371439758838 0 0  1.674965418777374 0 0  1.765729001825544 0 0  1.859776908880082 0 0  1.957227977487062 0 0  2.058205329869943 0 0  2.162836591189951 0 0  2.271253957290865 0 0  2.383594446803425 0 0  2.5 0.1024999999997612 0  2.5 0.2049999999994743 0  2.5 0.3074999999997183 0  2.383594446803656 0.41 0  2.271253957291315 0.41 0  2.162836591190598 0.41 0  2.058205329870775 0.41 0  1.957227977488067 0.41 0  1.859776908881246 0.41 0  1.765729001826854 0.41 0  1.674965418778818 0.41 0  1.58737143976041 0.41 0  1.502836389107956 0.41 0  1.421253448505726 0.41 0  1.342519516048286 0.41 0  1.266535089881505 0.41 0  1.193204177143353 0.41 0  1.122434100544716 0.41 0  1.05413544556068 0.41 0  0.9882218810956305 0.41 0  0.9246101326886647 0.41 0  0.8632198139519631 0.41 0  0.8039733463934788 0.41 0  0.7467958595662458 0.41 0  0.6916151138480078 0.41 0  0.6383613676644679 0.41 0  0.5869673343225223 0.41 0  0.5373680609412221 0.41 0  0.4895008759292634 0.41 0  0.4433053055145528 0.41 0  0.3987229542475914 0.41 0  0.3556974926297398 0.41 0  0.3141745521466497 0.41 0  0.2741016576310038 0.41 0  0.2354281840915826 0.41 0  0.1981052433265003 0.41 0  0.1620856860352591 0.41 0  0.1273239957535623 0.41 0  0.09377624077128965 0.41 0  0.06140001986584975 0.41 0  0.03015443760436654 0.41 0  0.2497468076502589 0.2050254481002335 0  0.2497468076502614 0.1949745518997913 0  0.2469965252529372 0.1829317073451959 0  0.2439893735792749 0.1762316384219906 0  0.2400332147834255 0.1700443375285386 0  0.2352133972704371 0.1645032867342007 0  0.2296339016332438 0.1597280261969788 0  0.2234150974217223 0.1558215752574715 0  0.2166911463437691 0.1528682099456123 0  0.2096071079204251 0.1509316448471593 0  0.2023158100364996 0.1500536585536553 0  0.194974551899914 0.1502531923497262 0  0.1877417105387872 0.1515259415822739 0  0.1807733240461124 0.153844448527136 0  0.1742197252835808 0.15715869474974 0  0.1682222986673531 0.1613971801805478 0  0.162910430003803 0.1664684656256651 0  0.1583987151779087 0.1722631454351573 0  0.1547844879126891 0.178656207771761 0  0.1521457199348551 0.1855097315605723 0  0.1505393388476355 0.1926758619366523 0  0.1505393388476328 0.2073241380633295 0  0.1521457199348437 0.2144902684393899 0  0.1547844879126531 0.221343792228163 0  0.1583987151778488 0.2277368545647528 0  0.1629104300036858 0.2335315343742052 0  0.1682222986671726 0.2386028198193036 0  0.1742197252833576 0.2428413052501257 0  0.1807733240458683 0.2461555514727623 0  0.1877417105384929 0.2484740584176516 0  0.1949745518995776 0.2497468076502398 0  0.202315810036185 0.2499463414463592 0  0.2096071079201568 0.2490683551528932 0  0.2166911463435495 0.2471317900544655 0  0.2234150974215506 0.2441784247426195 0  0.2296339016331197 0.2402719738031125 0  0.2352133972703547 0.2354967132658811 0  0.2400332147833751 0.2299556624715287 0  0.2439893735792577 0.2237683615780412 0  0.246996525252926 0.2170682926548348 0  0.25645809709277 0.21 0  0.2639263993298655 0.21 0  0.271394701566961 0.21 0  0.2788630038040554 0.21 0  0.2863313060411479 0.21 0  0.2937996082782405 0.21 0  0.301267910515333 0.21 0  0.3087362127524279 0.21 0  0.3162045149895234 0.21 0  0.3236728172265972 0.21 0  0.3311411194636928 0.21 0  0.3386094217007701 0.21 0  0.3460777239378666 0.21 0  0.3535460261749672 0.21 0  0.3610143284120516 0.21 0  0.3684826306491596 0.21 0  0.3759509328862226 0.21 0  0.383419235123329 0.21 0  0.3908875373604028 0.21 0  0.3983558395975142 0.21 0  0.4058241418345938 0.21 0  0.4132924440716992 0.21 0  0.4207607463087888 0.21 0  0.4282290485459029 0.21 0  0.4356973507830418 0.21 0  0.4431656530201649 0.21 0  0.4506339552573136 0.21 0  0.4581022574944306 0.21 0  0.4655705597315852 0.21 0  0.4730388619686996 0.21 0  0.480507164205851 0.21 0  0.4879754664429498 0.21 0  0.4954437686800938 0.21 0  0.502912070917267 0.21 0  0.5103803731544119 0.21 0  0.5178486753915261 0.21 0  0.5253169776286404 0.21 0  0.5327852798657868 0.21 0  0.5402535821029386 0.21 0  0.54772188434007 0.21 0  0.5551901865771842 0.21 0  0.5626584888143201 0.21 0  0.5701267910514778 0.21 0  0.5775950932886138 0.21 0  0.5850633955257281 0.21 0  0.5925316977628483 0.21 0  0.6 0.2050000000000054 0  0.6 0.1950000000000217 0  0.5925316977628897 0.19 0  0.5850633955257988 0.19 0  0.5775950932887378 0.19 0  0.5701267910515998 0.19 0  0.5626584888145268 0.19 0  0.5551901865773963 0.19 0  0.547721884340339 0.19 0  0.5402535821032429 0.19 0  0.5327852798661811 0.19 0  0.5253169776290537 0.19 0  0.5178486753919799 0.19 0  0.5103803731549078 0.19 0  0.502912070917822 0.19 0  0.4954437686807294 0.19 0  0.4879754664436223 0.19 0  0.4805071642065402 0.19 0  0.4730388619694271 0.19 0  0.4655705597323621 0.19 0  0.4581022574952563 0.19 0  0.4506339552581777 0.19 0  0.4431656530210671 0.19 0  0.4356973507839815 0.19 0  0.4282290485468779 0.19 0  0.4207607463097617 0.19 0  0.4132924440726327 0.19 0  0.4058241418354857 0.19 0  0.3983558395983636 0.19 0  0.3908875373612097 0.19 0  0.3834192351240934 0.19 0  0.3759509328869369 0.19 0  0.3684826306498175 0.19 0  0.361014328412667 0.19 0  0.3535460261755617 0.19 0  0.3460777239384295 0.19 0  0.3386094217012945 0.19 0  0.3311411194641595 0.19 0  0.3236728172270245 0.19 0  0.3162045149898895 0.19 0  0.3087362127527544 0.19 0  0.3012679105156187 0.19 0  0.2937996082784807 0.19 0  0.2863313060413428 0.19 0  0.2788630038042048 0.19 0  0.2713947015670686 0.19 0  0.2639263993299336 0.19 0  0.2564580970927985 0.19 0  0.2607803159922026 0.2000727136295815 0  0.5887803774232762 0.2001272386983733 0  0.5745072403740523 0.2002044435018727 0  0.5511891430099709 0.2001122610077113 0  0.2751288526855082 0.20000000000002 0  0.5365194309847112 0.1999999999999436 0  0.2894621222999649 0.1998691686390484 0  0.5215828265105155 0.1999999999999228 0  0.3127789816668748 0.1998657885438805 0  0.3274069683451451 0.2000000000000796 0  0.5066462220363641 0.199999999999908 0  0.3650630746574081 0.199866017807523 0  0.476773013087985 0.1999999999998713 0  0.3417402379596385 0.1998691686391011 0  0.3796850840047755 0.200000000000134 0  0.4618364086138087 0.1999999999998546 0  0.4917096175621762 0.1999999999998808 0  0.3946216884789568 0.2000000000001512 0  0.446899804139621 0.1999999999998389 0  0.4089549580935208 0.1998691686391595 0  0.4322718174608562 0.200127451265745 0  0.4201487168029707 0.1999966199048527 0  0.3528922713220932 0.2000185703532356 0  0.5633122436674589 0.1999814296467508 0  0.3006558810093873 0.1999966199048318 0  0.5815926498168407 0.1966545283159175 0  0.2677053789419034 0.1964246479135325 0  0.5290511287476175 0.1970915826863981 0  0.5439877332217911 0.197091582686394 0  0.2825131256993216 0.2035478995978015 0  0.3199386661080599 0.202908417313604 0  0.4842413153250809 0.1970915826863873 0  0.5141145242734466 0.1970915826863843 0  0.3722167817676917 0.2029084173136195 0  0.4693047108508938 0.1970915826863783 0  0.3348752705822316 0.202908417313609 0  0.3871533862418661 0.2029084173136212 0  0.4543681063767183 0.1970915826863795 0  0.4991779197992749 0.1970915826863902 0  0.4020059614928624 0.203547899597858 0  0.4394315019025246 0.1970915826863714 0  0.2550657455369551 0.2034088125358657 0  0.2548908499171161 0.1966940311614271 0  0.5946539510196798 0.2024302972968126 0  0.267698176732111 0.2039977513680092 0  0.4261685417851465 0.196409292431739 0  0.3590076176283495 0.196411355804271 0  0.5571672426447437 0.2036011176410121 0  0.3066757059912147 0.1964092924317024 0  0.594380730180568 0.1966558399668133 0  0.4842413153245942 0.2040749161535287 0  0.4693047108503577 0.2040749161535231 0  0.3871533862424271 0.1959250838464788 0  0.372246743208829 0.1959123236376545 0  0.5141145242731028 0.2040749161535395 0  0.4543681063761134 0.2040749161535186 0  0.4019979587101454 0.1959834479682427 0  0.4394608940728603 0.2040870543693135 0  0.5439623148931173 0.2040856076781014 0  0.5290511287473298 0.2040749161535501 0  0.4991779197988497 0.2040749161535382 0  0.3347912413592433 0.1959225448935183 0  0.3199680582793816 0.1959123018030061 0  0.2825051229162361 0.1959834479681729 0  0.3590471196690275 0.2036304442587945 0  0.5571594006495384 0.1963685282145804 0  0.3067669986803285 0.203627750582736 0  0.4262598344738712 0.2036568242185335 0  0.5814408164431408 0.2041285596160068 0  0.5688286748170428 0.1961819304477386 0  0.4145905603063645 0.2038180695522843 0  0.3473758401724931 0.2038180695522752 0  0.2950977245128307 0.2038180695522663 0  0.5688286748170693 0.203818069552238 0  0.2950977245127906 0.1961819304477774 0  0.3473758401723931 0.1961819304478349 0  0.4145905603061963 0.1961819304479011 0  0.2601812407614425 0.2056861609747042
[...]
<PointData  Vectors="f_40-1"> 
<DataArray  type="Float64"  Name="f_40-1"  NumberOfComponents="3" format="ascii">0.0000000000000000e+00 0.0000000000000000e+00 0.0000000000000000e+00  0.0000000000000000e+00 0.0000000000000000e+00 0.0000000000000000e+00  0.0000000000000000e+00 0.0000000000000000e+00 0.0000000000000000e+00  0.0000000000000000e+00 0.0000000000000000e+00 0.0000000000000000e+00  5.8361249712832300e-05 2.0819366399653593e-03 0.0000000000000000e+00  -8.7437412564097492e-05 2.0818105107736923e-03 0.0000000000000000e+00  0.0000000000000000e+00 0.0000000000000000e+00 0.0000000000000000e+00  0.0000000000000000e+00 0.0000000000000000e+00 0.0000000000000000e+00  0.0000000000000000e+00 0.0000000000000000e+00 0.0000000000000000e+00  0.0000000000000000e+00 0.0000000000000000e+00 0.0000000000000000e+00  -1.4609526018760247e-05 2.0818658986266549e-03 0.0000000000000000e+00  0.0000000000000000e+00 0.0000000000000000e+00 0.0000000000000000e+00  0.0000000000000000e+00 0.0000000000000000e+00 0.0000000000000000e+00  0.0000000000000000e+00 0.0000000000000000e+00 0.0000000000000000e+00  0.0000000000000000e+00 0.0000000000000000e+00 0.0000000000000000e+00  0.0000000000000000e+00 0.0000000000000000e+00 0.0000000000000000e+00  0.0000000000000000e+00 0.0000000000000000e+00 0.0000000000000000e+00  0.0000000000000000e+00 0.0000000000000000e+00 0.0000000000000000e+00  0.0000000000000000e+00 0.0000000000000000e+00 0.0000000000000000e+00  0.0000000000000000e+00 0.0000000000000000e+00 0.0000000000000000e+00  0.0000000000000000e+00 0.0000000000000000e+00 0.0000000000000000e+00  0.0000000000000000e+00 0.0000000000000000e+00 0.0000000000000000e+00  0.0000000000000000e+00 0.0000000000000000e+00 0.0000000000000000e+00  0.0000000000000000e+00 0.0000000000000000e+00 0.0000000000000000e+00  0.0000000000000000e+00 0.0000000000000000e+00 0.0000000000000000e+00  0.0000000000000000e+00 0.0000000000000000e+00 0.0000000000000000e+00  0.0000000000000000e+00 0.0000000000000000e+00 0.0000000000000000e+00  0.0000000000000000e+00 0.0000000000000000e+00 0.0000000000000000e+00  0.0000000000000000e+00 0.0000000000000000e+00 0.0000000000000000e+00  0.0000000000000000e+00 0.0000000000000000e+00 0.0000000000000000e+00  0.0000000000000000e+00 0.0000000000000000e+00 0.0000000000000000e+00  0.0000000000000000e+00 0.0000000000000000e+00 0.0000000000000000e+00  0.0000000000000000e+00 0.0000000000000000e+00 0.0000000000000000e+00  0.0000000000000000e+00 0.0000000000000000e+00 0.0000000000000000e+00  0.0000000000000000e+00 0.0000000000000000e+00 0.0000000000000000e+00  0.0000000000000000e+00 0.0000000000000000e+00 0.0000000000000000e+00  0.0000000000000000e+00 0.0000000000000000e+00 0.0000000000000000e+00  0.0000000000000000e+00 0.0000000000000000e+00 0.0000000000000000e+00  0.0000000000000000e+00 0.0000000000000000e+00 0.0000000000000000e+00  0.0000000000000000e+00 0.0000000000000000e+00 0.0000000000000000e+00  0.0000000000000000e+00 0.0000000000000000e+00 0.0000000000000000e+00  0.0000000000000000e+00 0.0000000000000000e+00 0.0000000000000000e+00  0.0000000000000000e+00 0.0000000000000000e+00 0.0000000000000000e+00  0.0000000000000000e+00 0.0000000000000000e+00 0.0000000000000000e+00  0.0000000000000000e+00 0.0000000000000000e+00 0.0000000000000000e+00  0.0000000000000000e+00 0.0000000000000000e+00 0.0000000000000000e+00  0.0000000000000000e+00 0.0000000000000000e+00 0.0000000000000000e+00  0.0000000000000000e+00 0.0000000000000000e+00 0.0000000000000000e+00  0.0000000000000000e+00 0.0000000000000000e+00 0.0000000000000000e+00  0.0000000000000000e+00 0.0000000000000000e+00 0.0000000000000000e+00  0.0000000000000000e+00 0.0000000000000000e+00 0.0000000000000000e+00  0.0000000000000000e+00 0.0000000000000000e+00 0.0000000000000000e+00  0.0000000000000000e+00 0.0000000000000000e+00 0.0000000000000000e+00  0.0000000000000000e+00 0.0000000000000000e+00 0.0000000000000000e+00  0.0000000000000000e+00 0.0000000000000000e+00 0.0000000000000000e+00  0.0000000000000000e+00 0.0000000000000000e+00 0.0000000000000000e+00  0.0000000000000000e+00 0.0000000000000000e+00 0.0000000000000000e+00  0.0000000000000000e+00 0.0000000000000000e+00 0.0000000000000000e+00  0.0000000000000000e+00 0.0000000000000000e+00 0.0000000000000000e+00  0.0000000000000000e+00 0.0000000000000000e+00 0.0000000000000000e+00  0.0000000000000000e+00 0.0000000000000000e+00 0.0000000000000000e+00  0.0000000000000000e+00 0.0000000000000000e+00 0.0000000000000000e+00  0.0000000000000000e+00 0.0000000000000000e+00 0.0000000000000000e+00  0.0000000000000000e+00 0.0000000000000000e+00 0.0000000000000000e+00  0.0000000000000000e+00 0.0000000000000000e+00 0.0000000000000000e+00  0.0000000000000000e+00 0.0000000000000000e+00 0.0000000000000000e+00  0.0000000000000000e+00 0.0000000000000000e+00 0.0000000000000000e+00  0.0000000000000000e+00 0.0000000000000000e+00 0.0000000000000000e+00  0.0000000000000000e+00 0.0000000000000000e+00 0.0000000000000000e+00  0.0000000000000000e+00 0.0000000000000000e+00 0.0000000000000000e+00  0.0000000000000000e+00 0.0000000000000000e+00 0.0000000000000000e+00  0.0000000000000000e+00 0.0000000000000000e+00 0.0000000000000000e+00  0.0000000000000000e+00 0.0000000000000000e+00 0.0000000000000000e+00  0.0000000000000000e+00 0.0000000000000000e+00 0.0000000000000000e+00  0.0000000000000000e+00 0.0000000000000000e+00 0.0000000000000000e+00  0.0000000000000000e+00 0.0000000000000000e+00 0.0000000000000000e+00  0.0000000000000000e+00 0.0000000000000000e+00 0.0000000000000000e+00  0.0000000000000000e+00 0.0000000000000000e+00 0.0000000000000000e+00  0.0000000000000000e+00 0.0000000000000000e+00 0.0000000000000000e+00  0.0000000000000000e+00 0.0000000000000000e+00 0.0000000000000000e+00  0.0000000000000000e+00 0.0000000000000000e+00 0.0000000000000000e+00  0.0000000000000000e+00 0.0000000000000000e+00 0.0000000000000000e+00  0.0000000000000000e+00 0.0000000000000000e+00 0.0000000000000000e+00  0.0000000000000000e+00 0.0000000000000000e+00 0.0000000000000000e+00  0.0000000000000000e+00 0.0000000000000000e+00 0.0000000000000000e+00  0.0000000000000000e+00 0.0000000000000000e+00 0.0000000000000000e+00  0.0000000000000000e+00 0.0000000000000000e+00 0.0000000000000000e+00  0.0000000000000000e+00 0.0000000000000000e+00 0.0000000000000000e+00  0.0000000000000000e+00 0.0000000000000000e+00 0.0000000000000000e+00  0.0000000000000000e+00 0.0000000000000000e+00 0.0000000000000000e+00  0.0000000000000000e+00 0.0000000000000000e+00 0.0000000000000000e+00  0.0000000000000000e+00 0.0000000000000000e+00 0.0000000000000000e+00  0.0000000000000000e+00 0.0000000000000000e+00 0.0000000000000000e+00  0.0000000000000000e+00 0.0000000000000000e+00 0.0000000000000000e+00  0.0000000000000000e+00 0.0000000000000000e+00 0.0000000000000000e+00  0.0000000000000000e+00 0.0000000000000000e+00 0.0000000000000000e+00  0.0000000000000000e+00 0.0000000000000000e+00 0.0000000000000000e+00  0.0000000000000000e+00 0.0000000000000000e+00 0.0000000000000000e+00  0.0000000000000000e+00 0.0000000000000000e+00 0.0000000000000000e+00  0.0000000000000000e+00 0.0000000000000000e+00 0.0000000000000000e+00  0.0000000000000000e+00 0.0000000000000000e+00 0.0000000000000000e+00  0.0000000000000000e+00 0.0000000000000000e+00 0.0000000000000000e+00  0.0000000000000000e+00 0.0000000000000000e+00 0.0000000000000000e+00  0.0000000000000000e+00 0.0000000000000000e+00 0.0000000000000000e+00  0.0000000000000000e+00 0.0000000000000000e+00 0.0000000000000000e+00  0.0000000000000000e+00 0.0000000000000000e+00 0.0000000000000000e+00  0.0000000000000000e+00 0.0000000000000000e+00 0.0000000000000000e+00  0.0000000000000000e+00 0.0000000000000000e+00 0.0000000000000000e+00  0.0000000000000000e+00 0.0000000000000000e+00 0.0000000000000000e+00  0.0000000000000000e+00 0.0000000000000000e+00 0.0000000000000000e+00  0.0000000000000000e+00 0.0000000000000000e+00 0.0000000000000000e+00  0.0000000000000000e+00 0.0000000000000000e+00 0.0000000000000000e+00  0.0000000000000000e+00 0.0000000000000000e+00 0.0000000000000000e+00  0.0000000000000000e+00 0.0000000000000000e+00 0.0000000000000000e+00  0.0000000000000000e+00 0.0000000000000000e+00 0.0000000000000000e+00  0.0000000000000000e+00 0.0000000000000000e+00 0.0000000000000000e+00  0.0000000000000000e+00 0.0000000000000000e+00 0.0000000000000000e+00  0.0000000000000000e+00 0.0000000000000000e+00 0.0000000000000000e+00  0.0000000000000000e+00 0.0000000000000000e+00 0.0000000000000000e+00  0.0000000000000000e+00 0.0000000000000000e+00 0.0000000000000000e+00  0.0000000000000000e+00 0.0000000000000000e+00 0.0000000000000000e+00  0.0000000000000000e+00 0.0000000000000000e+00 0.0000000000000000e+00  0.0000000000000000e+00 0.0000000000000000e+00 0.0000000000000000e+00  0.0000000000000000e+00 0.0000000000000000e+00 0.0000000000000000e+00  0.0000000000000000e+00 0.0000000000000000e+00 0.0000000000000000e+00  0.0000000000000000e+00 0.0000000000000000e+00 0.0000000000000000e+00  0.0000000000000000e+00 0.0000000000000000e+00 0.0000000000000000e+00  0.0000000000000000e+00 0.0000000000000000e+00 0.0000000000000000e+00  0.0000000000000000e+00 0.0000000000000000e+00 0.0000000000000000e+00  0.0000000000000000e+00 0.0000000000000000e+00 0.0000000000000000e+00  0.0000000000000000e+00 0.0000000000000000e+00 0.0000000000000000e+00  0.0000000000000000e+00 0.0000000000000000e+00 0.0000000000000000e+00  0.0000000000000000e+00 0.0000000000000000e+00 0.0000000000000000e+00  0.0000000000000000e+00 0.0000000000000000e+00 0.0000000000000000e+00  0.0000000000000000e+00 0.0000000000000000e+00 0.0000000000000000e+00  0.0000000000000000e+00 0.0000000000000000e+00 0.0000000000000000e+00  0.0000000000000000e+00 0.0000000000000000e+00 0.0000000000000000e+00  0.0000000000000000e+00 0.0000000000000000e+00 0.0000000000000000e+00  0.0000000000000000e+00 0.0000000000000000e+00 0.0000000000000000e+00  0.0000000000000000e+00 0.0000000000000000e+00 0.0000000000000000e+00  0.0000000000000000e+00 0.0000000000000000e+00 0.0000000000000000e+00  0.0000000000000000e+00 0.0000000000000000e+00 0.0000000000000000e+00  0.0000000000000000e+00 0.0000000000000000e+00 0.0000000000000000e+00  -5.8634108022166664e-06 5.8157653754057336e-06 0.0000000000000000e+00  -1.2411096183150044e-05 1.2497649104671445e-05 0.0000000000000000e+00  -1.8178512584987189e-05 2.3148387355562230e-05 0.0000000000000000e+00  -2.4296262080804303e-05 3.8017401542650047e-05 0.0000000000000000e+00  -2.9371130544274979e-05 5.6310155769776650e-05 0.0000000000000000e+00  -3.4940334864287159e-05 7.8343557360751009e-05 0.0000000000000000e+00  -3.9392812347799202e-05 1.0306361183646867e-04 0.0000000000000000e+00  -4.3603003751988414e-05 1.3125248193125773e-04 0.0000000000000000e+00  -4.8273946547923819e-05 1.6200711481393712e-04 0.0000000000000000e+00  -5.1791111956152586e-05 1.9534652535675037e-04 0.0000000000000000e+00  -5.5885858037925268e-05 2.3119571063745620e-04 0.0000000000000000e+00  -5.8921141486041301e-05 2.6922452806634519e-04 0.0000000000000000e+00  -6.2317490965236775e-05 3.0932914144732229e-04 0.0000000000000000e+00  -6.4968145135253932e-05 3.5104052422969991e-04 0.0000000000000000e+00  -6.7420338229665157e-05 3.9465931825144712e-04 0.0000000000000000e+00  -7.0051038828618418e-05 4.3965627848730697e-04 0.0000000000000000e+00  -7.1998053114054818e-05 4.8598038352140973e-04 0.0000000000000000e+00  -7.4158124220789095e-05 5.3357388580204030e-04 0.0000000000000000e+00  -7.5732875776443620e-05 5.8217489102470852e-04 0.0000000000000000e+00  -7.7438791079553765e-05 6.3172494911219190e-04 0.0000000000000000e+00  -7.8747162817529922e-05 6.8207317442351713e-04 0.0000000000000000e+00  -8.0062297354231522e-05 7.3317717869533577e-04 0.0000000000000000e+00  -8.1091572405372558e-05 7.8478341526232837e-04 0.0000000000000000e+00  -8.2001421126353966e-05 8.3699946726824770e-04 0.0000000000000000e+00  -8.2917038845660215e-05 8.8960596385017829e-04 0.0000000000000000e+00  -8.3631612247501896e-05 9.4261597790212901e-04 0.0000000000000000e+00  -8.4283367808306442e-05 9.9597840741008420e-04 0.0000000000000000e+00  -8.4819799151427205e-05 1.0495691330558326e-03 0.0000000000000000e+00  -8.5296563163120417e-05 1.1034175986014236e-03 0.0000000000000000e+00  -8.5685388072911158e-05 1.1574129458776792e-03 0.0000000000000000e+00  -8.6021919812056757e-05 1.2115754601289216e-03 0.0000000000000000e+00  -8.6290700601390083e-05 1.2658152174831630e-03 0.0000000000000000e+00  -8.6516924340323910e-05 1.3201512116439848e-03 0.0000000000000000e+00  -8.6691744400847753e-05 1.3745136673637445e-03 0.0000000000000000e+00  -8.6831011559915483e-05 1.4289241540229743e-03 0.0000000000000000e+00  -8.6939470742020657e-05 1.4833345320222756e-03 0.0000000000000000e+00  -8.7024460448368451e-05 1.5377589584635767e-03 0.0000000000000000e+00  -8.7091900930970150e-05 1.5921723415299261e-03 0.0000000000000000e+00  -8.7144484729758561e-05 1.6465841557498323e-03 0.0000000000000000e+00  -8.7190231925832513e-05 1.7009857057212884e-03 0.0000000000000000e+00  -8.7230207364815264e-05 1.7553805314652585e-03 0.0000000000000000e+00  -8.7270492936628280e-05 1.8097714473824895e-03 0.0000000000000000e+00  -8.7306881300089039e-05 1.8641649945680221e-03 0.0000000000000000e+00  -8.7345786829606418e-05 1.9185624976458574e-03 0.0000000000000000e+00  -8.7386098031513483e-05 1.9729732760904420e-03 0.0000000000000000e+00  -8.7420804925536949e-05 2.0273931434813272e-03 0.0000000000000000e+00  -5.1040366814543251e-05 2.0818377702052876e-03 0.0000000000000000e+00  2.1849792448400049e-05 2.0818962599580921e-03 0.0000000000000000e+00  5.8356367176887007e-05 2.0274614052066225e-03 0.0000000000000000e+00  5.8374179372080137e-05 1.9730239888577066e-03 0.0000000000000000e+00  5.8399666254176762e-05 1.9186016776769075e-03 0.0000000000000000e+00  5.8427254961613943e-05 1.8641845800808016e-03 0.0000000000000000e+00  5.8460454807644832e-05 1.8097693503918160e-03 0.0000000000000000e+00  5.8505284297287924e-05 1.7553519754769989e-03 0.0000000000000000e+00  5.8556785191567344e-05 1.7009282989205868e-03 0.0000000000000000e+00  5.8616567977312903e-05 1.6464974497761675e-03 0.0000000000000000e+00  5.8682167901731023e-05 1.5920548352350717e-03 0.0000000000000000e+00  5.8752854017645064e-05 1.5376014891094853e-03 0.0000000000000000e+00  5.8822609756460737e-05 1.4831417133665506e-03 0.0000000000000000e+00  5.8897190884580388e-05 1.4286826265855737e-03 0.0000000000000000e+00  5.8957043676205202e-05 1.3742341138167694e-03 0.0000000000000000e+00  5.9020921447586291e-05 1.3198147175826726e-03 0.0000000000000000e+00  5.9046511239121820e-05 1.2654380336318280e-03 0.0000000000000000e+00  5.9081019789680086e-05 1.2111372347633051e-03 0.0000000000000000e+00  5.9047345670475783e-05 1.1569308831877510e-03 0.0000000000000000e+00  5.9033779777018125e-05 1.1028659911224395e-03 0.0000000000000000e+00  5.8915715467671932e-05 1.0489681057594905e-03 0.0000000000000000e+00  5.8835024652862422e-05 9.9529700115307961e-04 0.0000000000000000e+00  5.8600219428026030e-05 9.4188305225523022e-04 0.0000000000000000e+00  5.8424896515537963e-05 8.8880168288741105e-04 0.0000000000000000e+00  5.8047637444045040e-05 8.3610032272116966e-04 0.0000000000000000e+00  5.7716623640609302e-05 7.8380945222445255e-04 0.0000000000000000e+00  5.7319167479058817e-05 7.3213006984090042e-04 0.0000000000000000e+00  5.6682834285097756e-05 6.8092594498871876e-04 0.0000000000000000e+00  5.6046070884719093e-05 6.3051443547383450e-04 0.0000000000000000e+00  5.5181905553726696e-05 5.8084721759906908e-04 0.0000000000000000e+00  5.4277282245355101e-05 5.3216921647224278e-04 0.0000000000000000e+00  5.3109108375406782e-05 4.8448869323640262e-04 0.0000000000000000e+00  5.1894099774923514e-05 4.3800910980471307e-04 0.0000000000000000e+00  5.0204879165688379e-05 3.9301092994970709e-04 0.0000000000000000e+00  4.8701561903099604e-05 3.4927194350826643e-04 0.0000000000000000e+00  4.7037232685575218e-05 3.0749430916492707e-04 0.0000000000000000e+00  4.4756843921329815e-05 2.6715706250627334e-04 0.0000000000000000e+00  4.2539201454238945e-05 2.2909934536691052e-04 0.0000000000000000e+00  3.9867321847628257e-05 1.9313681233352987e-04 0.0000000000000000e+00  3.7210233574680476e-05 1.5958320436207000e-04 0.0000000000000000e+00  3.3772952382922141e-05 1.2888463832632564e-04 0.0000000000000000e+00  3.0768903360685153e-05 1.0054893628397907e-04 0.0000000000000000e+00  2.7578182937609101e-05 7.5739103574989488e-05 0.0000000000000000e+00  2.3374663555519925e-05 5.3511121996394442e-05 0.0000000000000000e+00  1.9485557349574212e-05 3.5049401431815628e-05 0.0000000000000000e+00  1.4663169399636910e-05 2.0293996698859419e-05 0.0000000000000000e+00  1.0288701579074001e-05 9.5688836577908174e-06 0.0000000000000000e+00  4.8843968418557803e-06 3.0046111724784701e-06 0.0000000000000000e+00  -5.9911065295566715e-07 4.7625421730130885e-06 0.0000000000000000e+00  -1.5478329421900572e-05 2.0000837710628843e-03 0.0000000000000000e+00  -1.5969969677569949e-05 1.8960833358591046e-03 0.0000000000000000e+00  -1.5173115166502694e-05 1.7262202606858458e-03 0.0000000000000000e+00  -2.0043651974501646e-06 2.6141766347532012e-05 0.0000000000000000e+00  -1.4249550207519179e-05 1.6193297740289200e-03 0.0000000000000000e+00  -2.9283988465418402e-06 6.1459711255602235e-05 0.0000000000000000e+00  -1.4109778579973647e-05 1.5104540394688471e-03 0.0000000000000000e+00  -4.6469938840905868e-06 1.4455257644266736e-04 0.0000000000000000e+00  -6.3053397689948595e-06 2.1041028737392719e-04 0.0000000000000000e+00  -1.3926625689513342e-05 1.4015659653118739e-03 0.0000000000000000e+00  -8.0302465091168345e-06 4.1708616490987286e-04 0.0000000000000000e+00  -1.3398359481948835e-05 1.1841634429051650e-03 0.0000000000000000e+00  -6.6371781023071800e-06 2.8346815766980456e-04 0.0000000000000000e+00  -9.6888874016776899e-06 5.0816751467262192e-04 0.0000000000000000e+00  -1.3042465993269618e-05 1.0760444766638960e-03 0.0000000000000000e+00  -1.3691412898508583e-05 1.2927496710498083e-03 0.0000000000000000e+00  -1.0485579528019219e-05 6.0561722162163481e-04 0.0000000000000000e+00  -1.2614177954159822e-05 9.6870711413063763e-04 0.0000000000000000e+00  -1.0282721408387337e-05 7.0238464548616096e-04 0.0000000000000000e+00  -1.3020646123932272e-05 8.6472069472597231e-04 0.0000000000000000e+00  -1.1627356387928370e-05 7.7977008146970777e-04 0.0000000000000000e+00  -8.1703273460718337e-06 3.4561049618134709e-04 0.0000000000000000e+00  -1.4291440045761857e-05 1.8145325012506109e-03 0.0000000000000000e+00  -4.1931156335367334e-06 9.8179895000261697e-05 0.0000000000000000e+00  9.8682630851481518e-06 1.9477126038130294e-03 0.0000000000000000e+00  3.7023225961349479e-06 1.3153044445895446e-05 0.0000000000000000e+00  7.0153833172753019e-06 1.5648769477346789e-03 0.0000000000000000e+00  6.8908564674086867e-06 1.6737417325183820e-03 0.0000000000000000e+00  -1.1128990750523843e-05 4.3620584845214364e-05 0.0000000000000000e+00  -1.8648577776504905e-05 1.7614798196170832e-04 0.0000000000000000e+00  7.5631453622281116e-06 1.2383654354118446e-03 0.0000000000000000e+00  7.1702999707626417e-06 1.4559785317463021e-03 0.0000000000000000e+00  -2.7227476897093283e-05 4.6138670992797957e-04 0.0000000000000000e+00  7.7852968940833529e-06 1.1299681450260435e-03 0.0000000000000000e+00  -2.1473316028883753e-05 2.4800922677453864e-04 0.0000000000000000e+00  -2.8931474018618555e-05 5.5669563707123806e-04 0.0000000000000000e+00  8.0142317632592882e-06 1.0221862264517083e-03 0.0000000000000000e+00  7.3551713642595616e-06 1.3471012762849926e-03 0.0000000000000000e+00  -3.4665167526575892e-05 6.5542938656688594e-04 0.0000000000000000e+00  8.2457810637523426e-06 9.1536832278615746e-04 0.0000000000000000e+00  -1.0402361795321362e-06 1.3958248871742967e-06 0.0000000000000000e+00  7.4222628088509670e-07 6.5398456103010536e-07 0.0000000000000000e+00  -3.2293749939645923e-05 2.0428881563320225e-03 0.0000000000000000e+00  -6.8722111239257433e-06 1.4331534506988699e-05 0.0000000000000000e+00  1.3210818068279936e-05 8.2165142585890159e-04 0.0000000000000000e