<?xml version="1.0"?>
<VTKFile type="UnstructuredGrid"  version="0.1"  >
<UnstructuredGrid>
<Piece  NumberOfPoints="1419" NumberOfCells="2698">
<Points>
<DataArray  type="Float64"  NumberOfComponents="3"  format="ascii">0 0 0  0 0.41 0  2.5 0 0  2.5 0.41 0  0.6 0.19 0  0.6 0.21 0  0.25 0.2 0  0.15 0.2 0  0.2489897948556636 0.21 0  0.2489897948556636 0.19 0  0.6 0.2 0  0 0.3807142857143437 0  0 0.3514285714286952 0  0 0.3221428571430699 0  0 0.29285714285744 0  0 0.2635714285718054 0  0 0.2342857142861561 0  0 0.2050000000005308 0  0 0.175714285714732 0  0 0.1464285714289574 0  0 0.1171428571431897 0  0 0.08785714285737878 0  0 0.05857142857161107 0  0 0.02928571428580012 0  0.03015443760436003 0 0  0.06140001986583606 0 0  0.09377624077125973 0 0  0.1273239957535082 0 0  0.1620856860351972 0 0  0.1981052433264291 0 0  0.235428184091502 0 0  0.2741016576309132 0 0  0.3141745521465447 0 0  0.3556974926295285 0 0  0.3987229542472677 0 0  0.4433053055141081 0 0  0.4895008759286886 0 0  0.5373680609405097 0 0  0.5869673343216626 0 0  0.6383613676634521 0 0  0.6916151138468254 0 0  0.7467958595648856 0 0  0.8039733463919316 0 0  0.8632198139502143 0 0  0.9246101326867038 0 0  0.9882218810934433 0 0  1.054135445558498 0 0  1.122434100542598 0 0  1.193204177141305 0 0  1.266535089879536 0 0  1.342519516046404 0 0  1.421253448503939 0 0  1.502836389106271 0 0  1.587371439758838 0 0  1.674965418777374 0 0  1.765729001825544 0 0  1.859776908880082 0 0  1.957227977487062 0 0  2.058205329869943 0 0  2.162836591189951 0 0  2.271253957290865 0 0  2.383594446803425 0 0  2.5 0.1024999999997612 0  2.5 0.2049999999994743 0  2.5 0.3074999999997183 0  2.383594446803656 0.41 0  2.271253957291315 0.41 0  2.162836591190598 0.41 0  2.058205329870775 0.41 0  1.957227977488067 0.41 0  1.859776908881246 0.41 0  1.765729001826854 0.41 0  1.674965418778818 0.41 0  1.58737143976041 0.41 0  1.502836389107956 0.41 0  1.421253448505726 0.41 0  1.342519516048286 0.41 0  1.266535089881505 0.41 0  1.193204177143353 0.41 0  1.122434100544716 0.41 0  1.05413544556068 0.41 0  0.9882218810956305 0.41 0  0.9246101326886647 0.41 0  0.8632198139519631 0.41 0  0.8039733463934788 0.41 0  0.7467958595662458 0.41 0  0.6916151138480078 0.41 0  0.6383613676644679 0.41 0  0.5869673343225223 0.41 0  0.5373680609412221 0.41 0  0.4895008759292634 0.41 0  0.4433053055145528 0.41 0  0.3987229542475914 0.41 0  0.3556974926297398 0.41 0  0.3141745521466497 0.41 0  0.2741016576310038 0.41 0  0.2354281840915826 0.41 0  0.1981052433265003 0.41 0  0.1620856860352591 0.41 0  0.1273239957535623 0.41 0  0.09377624077128965 0.41 0  0.06140001986584975 0.41 0  0.03015443760436654 0.41 0  0.2497468076502589 0.2050254481002335 0  0.2497468076502614 0.1949745518997913 0  0.2469965252529372 0.1829317073451959 0  0.2439893735792749 0.1762316384219906 0  0.2400332147834255 0.1700443375285386 0  0.2352133972704371 0.1645032867342007 0  0.2296339016332438 0.1597280261969788 0  0.2234150974217223 0.1558215752574715 0  0.2166911463437691 0.1528682099456123 0  0.2096071079204251 0.1509316448471593 0  0.2023158100364996 0.1500536585536553 0  0.194974551899914 0.1502531923497262 0  0.1877417105387872 0.1515259415822739 0  0.1807733240461124 0.153844448527136 0  0.1742197252835808 0.15715869474974 0  0.1682222986673531 0.1613971801805478 0  0.162910430003803 0.1664684656256651 0  0.1583987151779087 0.1722631454351573 0  0.1547844879126891 0.178656207771761 0  0.1521457199348551 0.1855097315605723 0  0.1505393388476355 0.1926758619366523 0  0.1505393388476328 0.2073241380633295 0  0.1521457199348437 0.2144902684393899 0  0.1547844879126531 0.221343792228163 0  0.1583987151778488 0.2277368545647528 0  0.1629104300036858 0.2335315343742052 0  0.1682222986671726 0.2386028198193036 0  0.1742197252833576 0.2428413052501257 0  0.1807733240458683 0.2461555514727623 0  0.1877417105384929 0.2484740584176516 0  0.1949745518995776 0.2497468076502398 0  0.202315810036185 0.2499463414463592 0  0.2096071079201568 0.2490683551528932 0  0.2166911463435495 0.2471317900544655 0  0.2234150974215506 0.2441784247426195 0  0.2296339016331197 0.2402719738031125 0  0.2352133972703547 0.2354967132658811 0  0.2400332147833751 0.2299556624715287 0  0.2439893735792577 0.2237683615780412 0  0.246996525252926 0.2170682926548348 0  0.25645809709277 0.21 0  0.2639263993298655 0.21 0  0.271394701566961 0.21 0  0.2788630038040554 0.21 0  0.2863313060411479 0.21 0  0.2937996082782405 0.21 0  0.301267910515333 0.21 0  0.3087362127524279 0.21 0  0.3162045149895234 0.21 0  0.3236728172265972 0.21 0  0.3311411194636928 0.21 0  0.3386094217007701 0.21 0  0.3460777239378666 0.21 0  0.3535460261749672 0.21 0  0.3610143284120516 0.21 0  0.3684826306491596 0.21 0  0.3759509328862226 0.21 0  0.383419235123329 0.21 0  0.3908875373604028 0.21 0  0.3983558395975142 0.21 0  0.4058241418345938 0.21 0  0.4132924440716992 0.21 0  0.4207607463087888 0.21 0  0.4282290485459029 0.21 0  0.4356973507830418 0.21 0  0.4431656530201649 0.21 0  0.4506339552573136 0.21 0  0.4581022574944306 0.21 0  0.4655705597315852 0.21 0  0.4730388619686996 0.21 0  0.480507164205851 0.21 0  0.4879754664429498 0.21 0  0.4954437686800938 0.21 0  0.502912070917267 0.21 0  0.5103803731544119 0.21 0  0.5178486753915261 0.21 0  0.5253169776286404 0.21 0  0.5327852798657868 0.21 0  0.5402535821029386 0.21 0  0.54772188434007 0.21 0  0.5551901865771842 0.21 0  0.5626584888143201 0.21 0  0.5701267910514778 0.21 0  0.5775950932886138 0.21 0  0.5850633955257281 0.21 0  0.5925316977628483 0.21 0  0.6 0.2050000000000054 0  0.6 0.1950000000000217 0  0.5925316977628897 0.19 0  0.5850633955257988 0.19 0  0.5775950932887378 0.19 0  0.5701267910515998 0.19 0  0.5626584888145268 0.19 0  0.5551901865773963 0.19 0  0.547721884340339 0.19 0  0.5402535821032429 0.19 0  0.5327852798661811 0.19 0  0.5253169776290537 0.19 0  0.5178486753919799 0.19 0  0.5103803731549078 0.19 0  0.502912070917822 0.19 0  0.4954437686807294 0.19 0  0.4879754664436223 0.19 0  0.4805071642065402 0.19 0  0.4730388619694271 0.19 0  0.4655705597323621 0.19 0  0.4581022574952563 0.19 0  0.4506339552581777 0.19 0  0.4431656530210671 0.19 0  0.4356973507839815 0.19 0  0.4282290485468779 0.19 0  0.4207607463097617 0.19 0  0.4132924440726327 0.19 0  0.4058241418354857 0.19 0  0.3983558395983636 0.19 0  0.3908875373612097 0.19 0  0.3834192351240934 0.19 0  0.3759509328869369 0.19 0  0.3684826306498175 0.19 0  0.361014328412667 0.19 0  0.3535460261755617 0.19 0  0.3460777239384295 0.19 0  0.3386094217012945 0.19 0  0.3311411194641595 0.19 0  0.3236728172270245 0.19 0  0.3162045149898895 0.19 0  0.3087362127527544 0.19 0  0.3012679105156187 0.19 0  0.2937996082784807 0.19 0  0.2863313060413428 0.19 0  0.2788630038042048 0.19 0  0.2713947015670686 0.19 0  0.2639263993299336 0.19 0  0.2564580970927985 0.19 0  0.2607803159922026 0.2000727136295815 0  0.5887803774232762 0.2001272386983733 0  0.5745072403740523 0.2002044435018727 0  0.5511891430099709 0.2001122610077113 0  0.2751288526855082 0.20000000000002 0  0.5365194309847112 0.1999999999999436 0  0.2894621222999649 0.1998691686390484 0  0.5215828265105155 0.1999999999999228 0  0.3127789816668748 0.1998657885438805 0  0.3274069683451451 0.2000000000000796 0  0.5066462220363641 0.199999999999908 0  0.3650630746574081 0.199866017807523 0  0.476773013087985 0.1999999999998713 0  0.3417402379596385 0.1998691686391011 0  0.3796850840047755 0.200000000000134 0  0.4618364086138087 0.1999999999998546 0  0.4917096175621762 0.1999999999998808 0  0.3946216884789568 0.2000000000001512 0  0.446899804139621 0.1999999999998389 0  0.4089549580935208 0.1998691686391595 0  0.4322718174608562 0.200127451265745 0  0.4201487168029707 0.1999966199048527 0  0.3528922713220932 0.2000185703532356 0  0.5633122436674589 0.1999814296467508 0  0.3006558810093873 0.1999966199048318 0  0.5815926498168407 0.1966545283159175 0  0.2677053789419034 0.1964246479135325 0  0.5290511287476175 0.1970915826863981 0  0.5439877332217911 0.197091582686394 0  0.2825131256993216 0.2035478995978015 0  0.3199386661080599 0.202908417313604 0  0.4842413153250809 0.1970915826863873 0  0.5141145242734466 0.1970915826863843 0  0.3722167817676917 0.2029084173136195 0  0.4693047108508938 0.1970915826863783 0  0.3348752705822316 0.202908417313609 0  0.3871533862418661 0.2029084173136212 0  0.4543681063767183 0.1970915826863795 0  0.4991779197992749 0.1970915826863902 0  0.4020059614928624 0.203547899597858 0  0.4394315019025246 0.1970915826863714 0  0.2550657455369551 0.2034088125358657 0  0.2548908499171161 0.1966940311614271 0  0.5946539510196798 0.2024302972968126 0  0.267698176732111 0.2039977513680092 0  0.4261685417851465 0.196409292431739 0  0.3590076176283495 0.196411355804271 0  0.5571672426447437 0.2036011176410121 0  0.3066757059912147 0.1964092924317024 0  0.594380730180568 0.1966558399668133 0  0.4842413153245942 0.2040749161535287 0  0.4693047108503577 0.2040749161535231 0  0.3871533862424271 0.1959250838464788 0  0.372246743208829 0.1959123236376545 0  0.5141145242731028 0.2040749161535395 0  0.4543681063761134 0.2040749161535186 0  0.4019979587101454 0.1959834479682427 0  0.4394608940728603 0.2040870543693135 0  0.5439623148931173 0.2040856076781014 0  0.5290511287473298 0.2040749161535501 0  0.4991779197988497 0.2040749161535382 0  0.3347912413592433 0.1959225448935183 0  0.3199680582793816 0.1959123018030061 0  0.2825051229162361 0.1959834479681729 0  0.3590471196690275 0.2036304442587945 0  0.5571594006495384 0.1963685282145804 0  0.3067669986803285 0.203627750582736 0  0.4262598344738712 0.2036568242185335 0  0.5814408164431408 0.2041285596160068 0  0.5688286748170428 0.1961819304477386 0  0.4145905603063645 0.2038180695522843 0  0.3473758401724931 0.2038180695522752 0  0.2950977245128307 0.2038180695522663 0  0.5688286748170693 0.203818069552238 0  0.2950977245127906 0.1961819304477774 0  0.3473758401723931 0.1961819304478349 0  0.4145905603061963 0.1961819304479011 0  0.2601812407614425 0.2056861609747042
[...]
<PointData  Vectors="f_40-1"> 
<DataArray  type="Float64"  Name="f_40-1"  NumberOfComponents="3" format="ascii">0.0000000000000000e+00 0.0000000000000000e+00 0.0000000000000000e+00  0.0000000000000000e+00 0.0000000000000000e+00 0.0000000000000000e+00  0.0000000000000000e+00 0.0000000000000000e+00 0.0000000000000000e+00  0.0000000000000000e+00 0.0000000000000000e+00 0.0000000000000000e+00  8.3455602948527958e-05 2.9413220399385365e-03 0.0000000000000000e+00  -1.2415761315189938e-04 2.9407310396769790e-03 0.0000000000000000e+00  0.0000000000000000e+00 0.0000000000000000e+00 0.0000000000000000e+00  0.0000000000000000e+00 0.0000000000000000e+00 0.0000000000000000e+00  0.0000000000000000e+00 0.0000000000000000e+00 0.0000000000000000e+00  0.0000000000000000e+00 0.0000000000000000e+00 0.0000000000000000e+00  -2.0431263120644252e-05 2.9410196891363339e-03 0.0000000000000000e+00  0.0000000000000000e+00 0.0000000000000000e+00 0.0000000000000000e+00  0.0000000000000000e+00 0.0000000000000000e+00 0.0000000000000000e+00  0.0000000000000000e+00 0.0000000000000000e+00 0.0000000000000000e+00  0.0000000000000000e+00 0.0000000000000000e+00 0.0000000000000000e+00  0.0000000000000000e+00 0.0000000000000000e+00 0.0000000000000000e+00  0.0000000000000000e+00 0.0000000000000000e+00 0.0000000000000000e+00  0.0000000000000000e+00 0.0000000000000000e+00 0.0000000000000000e+00  0.0000000000000000e+00 0.0000000000000000e+00 0.0000000000000000e+00  0.0000000000000000e+00 0.0000000000000000e+00 0.0000000000000000e+00  0.0000000000000000e+00 0.0000000000000000e+00 0.0000000000000000e+00  0.0000000000000000e+00 0.0000000000000000e+00 0.0000000000000000e+00  0.0000000000000000e+00 0.0000000000000000e+00 0.0000000000000000e+00  0.0000000000000000e+00 0.0000000000000000e+00 0.0000000000000000e+00  0.0000000000000000e+00 0.0000000000000000e+00 0.0000000000000000e+00  0.0000000000000000e+00 0.0000000000000000e+00 0.0000000000000000e+00  0.0000000000000000e+00 0.0000000000000000e+00 0.0000000000000000e+00  0.0000000000000000e+00 0.0000000000000000e+00 0.0000000000000000e+00  0.0000000000000000e+00 0.0000000000000000e+00 0.0000000000000000e+00  0.0000000000000000e+00 0.0000000000000000e+00 0.0000000000000000e+00  0.0000000000000000e+00 0.0000000000000000e+00 0.0000000000000000e+00  0.0000000000000000e+00 0.0000000000000000e+00 0.0000000000000000e+00  0.0000000000000000e+00 0.0000000000000000e+00 0.0000000000000000e+00  0.0000000000000000e+00 0.0000000000000000e+00 0.0000000000000000e+00  0.0000000000000000e+00 0.0000000000000000e+00 0.0000000000000000e+00  0.0000000000000000e+00 0.0000000000000000e+00 0.0000000000000000e+00  0.0000000000000000e+00 0.0000000000000000e+00 0.0000000000000000e+00  0.0000000000000000e+00 0.0000000000000000e+00 0.0000000000000000e+00  0.0000000000000000e+00 0.0000000000000000e+00 0.0000000000000000e+00  0.0000000000000000e+00 0.0000000000000000e+00 0.0000000000000000e+00  0.0000000000000000e+00 0.0000000000000000e+00 0.0000000000000000e+00  0.0000000000000000e+00 0.0000000000000000e+00 0.0000000000000000e+00  0.0000000000000000e+00 0.0000000000000000e+00 0.0000000000000000e+00  0.0000000000000000e+00 0.0000000000000000e+00 0.0000000000000000e+00  0.0000000000000000e+00 0.0000000000000000e+00 0.0000000000000000e+00  0.0000000000000000e+00 0.0000000000000000e+00 0.0000000000000000e+00  0.0000000000000000e+00 0.0000000000000000e+00 0.0000000000000000e+00  0.0000000000000000e+00 0.0000000000000000e+00 0.0000000000000000e+00  0.0000000000000000e+00 0.0000000000000000e+00 0.0000000000000000e+00  0.0000000000000000e+00 0.0000000000000000e+00 0.0000000000000000e+00  0.0000000000000000e+00 0.0000000000000000e+00 0.0000000000000000e+00  0.0000000000000000e+00 0.0000000000000000e+00 0.0000000000000000e+00  0.0000000000000000e+00 0.0000000000000000e+00 0.0000000000000000e+00  0.0000000000000000e+00 0.0000000000000000e+00 0.0000000000000000e+00  0.0000000000000000e+00 0.0000000000000000e+00 0.0000000000000000e+00  0.0000000000000000e+00 0.0000000000000000e+00 0.0000000000000000e+00  0.0000000000000000e+00 0.0000000000000000e+00 0.0000000000000000e+00  0.0000000000000000e+00 0.0000000000000000e+00 0.0000000000000000e+00  0.0000000000000000e+00 0.0000000000000000e+00 0.0000000000000000e+00  0.0000000000000000e+00 0.0000000000000000e+00 0.0000000000000000e+00  0.0000000000000000e+00 0.0000000000000000e+00 0.0000000000000000e+00  0.0000000000000000e+00 0.0000000000000000e+00 0.0000000000000000e+00  0.0000000000000000e+00 0.0000000000000000e+00 0.0000000000000000e+00  0.0000000000000000e+00 0.0000000000000000e+00 0.0000000000000000e+00  0.0000000000000000e+00 0.0000000000000000e+00 0.0000000000000000e+00  0.0000000000000000e+00 0.0000000000000000e+00 0.0000000000000000e+00  0.0000000000000000e+00 0.0000000000000000e+00 0.0000000000000000e+00  0.0000000000000000e+00 0.0000000000000000e+00 0.0000000000000000e+00  0.0000000000000000e+00 0.0000000000000000e+00 0.0000000000000000e+00  0.0000000000000000e+00 0.0000000000000000e+00 0.0000000000000000e+00  0.0000000000000000e+00 0.0000000000000000e+00 0.0000000000000000e+00  0.0000000000000000e+00 0.0000000000000000e+00 0.0000000000000000e+00  0.0000000000000000e+00 0.0000000000000000e+00 0.0000000000000000e+00  0.0000000000000000e+00 0.0000000000000000e+00 0.0000000000000000e+00  0.0000000000000000e+00 0.0000000000000000e+00 0.0000000000000000e+00  0.0000000000000000e+00 0.0000000000000000e+00 0.0000000000000000e+00  0.0000000000000000e+00 0.0000000000000000e+00 0.0000000000000000e+00  0.0000000000000000e+00 0.0000000000000000e+00 0.0000000000000000e+00  0.0000000000000000e+00 0.0000000000000000e+00 0.0000000000000000e+00  0.0000000000000000e+00 0.0000000000000000e+00 0.0000000000000000e+00  0.0000000000000000e+00 0.0000000000000000e+00 0.0000000000000000e+00  0.0000000000000000e+00 0.0000000000000000e+00 0.0000000000000000e+00  0.0000000000000000e+00 0.0000000000000000e+00 0.0000000000000000e+00  0.0000000000000000e+00 0.0000000000000000e+00 0.0000000000000000e+00  0.0000000000000000e+00 0.0000000000000000e+00 0.0000000000000000e+00  0.0000000000000000e+00 0.0000000000000000e+00 0.0000000000000000e+00  0.0000000000000000e+00 0.0000000000000000e+00 0.0000000000000000e+00  0.0000000000000000e+00 0.0000000000000000e+00 0.0000000000000000e+00  0.0000000000000000e+00 0.0000000000000000e+00 0.0000000000000000e+00  0.0000000000000000e+00 0.0000000000000000e+00 0.0000000000000000e+00  0.0000000000000000e+00 0.0000000000000000e+00 0.0000000000000000e+00  0.0000000000000000e+00 0.0000000000000000e+00 0.0000000000000000e+00  0.0000000000000000e+00 0.0000000000000000e+00 0.0000000000000000e+00  0.0000000000000000e+00 0.0000000000000000e+00 0.0000000000000000e+00  0.0000000000000000e+00 0.0000000000000000e+00 0.0000000000000000e+00  0.0000000000000000e+00 0.0000000000000000e+00 0.0000000000000000e+00  0.0000000000000000e+00 0.0000000000000000e+00 0.0000000000000000e+00  0.0000000000000000e+00 0.0000000000000000e+00 0.0000000000000000e+00  0.0000000000000000e+00 0.0000000000000000e+00 0.0000000000000000e+00  0.0000000000000000e+00 0.0000000000000000e+00 0.0000000000000000e+00  0.0000000000000000e+00 0.0000000000000000e+00 0.0000000000000000e+00  0.0000000000000000e+00 0.0000000000000000e+00 0.0000000000000000e+00  0.0000000000000000e+00 0.0000000000000000e+00 0.0000000000000000e+00  0.0000000000000000e+00 0.0000000000000000e+00 0.0000000000000000e+00  0.0000000000000000e+00 0.0000000000000000e+00 0.0000000000000000e+00  0.0000000000000000e+00 0.0000000000000000e+00 0.0000000000000000e+00  0.0000000000000000e+00 0.0000000000000000e+00 0.0000000000000000e+00  0.0000000000000000e+00 0.0000000000000000e+00 0.0000000000000000e+00  0.0000000000000000e+00 0.0000000000000000e+00 0.0000000000000000e+00  0.0000000000000000e+00 0.0000000000000000e+00 0.0000000000000000e+00  0.0000000000000000e+00 0.0000000000000000e+00 0.0000000000000000e+00  0.0000000000000000e+00 0.0000000000000000e+00 0.0000000000000000e+00  0.0000000000000000e+00 0.0000000000000000e+00 0.0000000000000000e+00  0.0000000000000000e+00 0.0000000000000000e+00 0.0000000000000000e+00  0.0000000000000000e+00 0.0000000000000000e+00 0.0000000000000000e+00  0.0000000000000000e+00 0.0000000000000000e+00 0.0000000000000000e+00  0.0000000000000000e+00 0.0000000000000000e+00 0.0000000000000000e+00  0.0000000000000000e+00 0.0000000000000000e+00 0.0000000000000000e+00  0.0000000000000000e+00 0.0000000000000000e+00 0.0000000000000000e+00  0.0000000000000000e+00 0.0000000000000000e+00 0.0000000000000000e+00  0.0000000000000000e+00 0.0000000000000000e+00 0.0000000000000000e+00  0.0000000000000000e+00 0.0000000000000000e+00 0.0000000000000000e+00  0.0000000000000000e+00 0.0000000000000000e+00 0.0000000000000000e+00  0.0000000000000000e+00 0.0000000000000000e+00 0.0000000000000000e+00  0.0000000000000000e+00 0.0000000000000000e+00 0.0000000000000000e+00  0.0000000000000000e+00 0.0000000000000000e+00 0.0000000000000000e+00  0.0000000000000000e+00 0.0000000000000000e+00 0.0000000000000000e+00  0.0000000000000000e+00 0.0000000000000000e+00 0.0000000000000000e+00  0.0000000000000000e+00 0.0000000000000000e+00 0.0000000000000000e+00  0.0000000000000000e+00 0.0000000000000000e+00 0.0000000000000000e+00  0.0000000000000000e+00 0.0000000000000000e+00 0.0000000000000000e+00  0.0000000000000000e+00 0.0000000000000000e+00 0.0000000000000000e+00  0.0000000000000000e+00 0.0000000000000000e+00 0.0000000000000000e+00  0.0000000000000000e+00 0.0000000000000000e+00 0.0000000000000000e+00  0.0000000000000000e+00 0.0000000000000000e+00 0.0000000000000000e+00  0.0000000000000000e+00 0.0000000000000000e+00 0.0000000000000000e+00  0.0000000000000000e+00 0.0000000000000000e+00 0.0000000000000000e+00  0.0000000000000000e+00 0.0000000000000000e+00 0.0000000000000000e+00  0.0000000000000000e+00 0.0000000000000000e+00 0.0000000000000000e+00  0.0000000000000000e+00 0.0000000000000000e+00 0.0000000000000000e+00  0.0000000000000000e+00 0.0000000000000000e+00 0.0000000000000000e+00  0.0000000000000000e+00 0.0000000000000000e+00 0.0000000000000000e+00  0.0000000000000000e+00 0.0000000000000000e+00 0.0000000000000000e+00  -7.9314123850435946e-06 7.6014086773834440e-06 0.0000000000000000e+00  -1.6795292731841559e-05 1.6849157894172096e-05 0.0000000000000000e+00  -2.4557631581123913e-05 3.1646539985716916e-05 0.0000000000000000e+00  -3.2810826471616370e-05 5.2318996448239543e-05 0.0000000000000000e+00  -3.9625480061152418e-05 7.7762834135142379e-05 0.0000000000000000e+00  -4.7154650204646691e-05 1.0840873323651092e-04 0.0000000000000000e+00  -5.3145027664126510e-05 1.4280329150382886e-04 0.0000000000000000e+00  -5.8826071452104381e-05 1.8204111267975119e-04 0.0000000000000000e+00  -6.5175483128361399e-05 2.2486286696663890e-04 0.0000000000000000e+00  -6.9938241678797682e-05 2.7131323334007949e-04 0.0000000000000000e+00  -7.5543600007320797e-05 3.2127803558451725e-04 0.0000000000000000e+00  -7.9687278250267863e-05 3.7432541664221596e-04 0.0000000000000000e+00  -8.4377571596580962e-05 4.3030245406709894e-04 0.0000000000000000e+00  -8.8037681148178521e-05 4.8856417742099481e-04 0.0000000000000000e+00  -9.1451985765703280e-05 5.4955159335538730e-04 0.0000000000000000e+00  -9.5153923213760406e-05 6.1251462875358900e-04 0.0000000000000000e+00  -9.7905901417805327e-05 6.7740907352805064e-04 0.0000000000000000e+00  -1.0100418453685734e-04 7.4414407442363660e-04 0.0000000000000000e+00  -1.0327748241062957e-04 8.1238054490171080e-04 0.0000000000000000e+00  -1.0577873793195726e-04 8.8201764345792065e-04 0.0000000000000000e+00  -1.0771857382796647e-04 9.5287179068012792e-04 0.0000000000000000e+00  -1.0970408920958440e-04 1.0248705014386499e-03 0.0000000000000000e+00  -1.1127484697783035e-04 1.0976460816447577e-03 0.0000000000000000e+00  -1.1269213484637350e-04 1.1713730732767578e-03 0.0000000000000000e+00  -1.1413988651463892e-04 1.2457095464679035e-03 0.0000000000000000e+00  -1.1529896248311241e-04 1.3206967582534311e-03 0.0000000000000000e+00  -1.1638125938522697e-04 1.3962404106330269e-03 0.0000000000000000e+00  -1.1729835804743735e-04 1.4721699378677370e-03 0.0000000000000000e+00  -1.1814059700650509e-04 1.5485166407795163e-03 0.0000000000000000e+00  -1.1885555452817032e-04 1.6251232250397284e-03 0.0000000000000000e+00  -1.1950389129312666e-04 1.7020126672246958e-03 0.0000000000000000e+00  -1.2005372592027919e-04 1.7790566827110916e-03 0.0000000000000000e+00  -1.2054843989620957e-04 1.8562765490857951e-03 0.0000000000000000e+00  -1.2096833576403185e-04 1.9335723051629060e-03 0.0000000000000000e+00  -1.2134193037048640e-04 2.0109678888586922e-03 0.0000000000000000e+00  -1.2166798802861065e-04 2.0883924350851711e-03 0.0000000000000000e+00  -1.2196202343452562e-04 2.1658617424442253e-03 0.0000000000000000e+00  -1.2222701372526171e-04 2.2433347000468777e-03 0.0000000000000000e+00  -1.2247056360068079e-04 2.3208221982923749e-03 0.0000000000000000e+00  -1.2270015895855086e-04 2.3983051659223734e-03 0.0000000000000000e+00  -1.2291951904158760e-04 2.4757878655541619e-03 0.0000000000000000e+00  -1.2313553982591711e-04 2.5532669257861658e-03 0.0000000000000000e+00  -1.2334485741217932e-04 2.6307489433325861e-03 0.0000000000000000e+00  -1.2355547026447002e-04 2.7082337378825107e-03 0.0000000000000000e+00  -1.2376719392850311e-04 2.7857303011806288e-03 0.0000000000000000e+00  -1.2397254886355316e-04 2.8632335769072960e-03 0.0000000000000000e+00  -7.2314404608425918e-05 2.9408752970673190e-03 0.0000000000000000e+00  3.1483995253777534e-05 2.9411656842168558e-03 0.0000000000000000e+00  8.3623063888666840e-05 2.8637612975476287e-03 0.0000000000000000e+00  8.3815321566284027e-05 2.7862390418137372e-03 0.0000000000000000e+00  8.4015123651043250e-05 2.7087304395748140e-03 0.0000000000000000e+00  8.4216189276547108e-05 2.6312244065268492e-03 0.0000000000000000e+00  8.4421717794953193e-05 2.5537185701413035e-03 0.0000000000000000e+00  8.4637414287698260e-05 2.4762106674746749e-03 0.0000000000000000e+00  8.4855734259367798e-05 2.3986971553101241e-03 0.0000000000000000e+00  8.5080273806128776e-05 2.3211818089633731e-03 0.0000000000000000e+00  8.5301489994047455e-05 2.2436610020869067e-03 0.0000000000000000e+00  8.5526365584475216e-05 2.1661443657990487e-03 0.0000000000000000e+00  8.5733933531383368e-05 2.0886371858514791e-03 0.0000000000000000e+00  8.5945997540320642e-05 2.0111595116830403e-03 0.0000000000000000e+00  8.6117151969850633e-05 1.9337230543674858e-03 0.0000000000000000e+00  8.6294267771506205e-05 1.8563648608531309e-03 0.0000000000000000e+00  8.6393956966413133e-05 1.7791008808818642e-03 0.0000000000000000e+00  8.6508426655899120e-05 1.7019891479442659e-03 0.0000000000000000e+00  8.6499571841270191e-05 1.6250513336165161e-03 0.0000000000000000e+00  8.6522738961349193e-05 1.5483665529789383e-03 0.0000000000000000e+00  8.6366739690117540e-05 1.4719642838899960e-03 0.0000000000000000e+00  8.6268357171571109e-05 1.3959435278878595e-03 0.0000000000000000e+00  8.5915889826606082e-05 1.3203409872240641e-03 0.0000000000000000e+00  8.5653462680778674e-05 1.2452798903333554e-03 0.0000000000000000e+00  8.5066848383166821e-05 1.1708219793867465e-03 0.0000000000000000e+00  8.4550812183492032e-05 1.0970128451002084e-03 0.0000000000000000e+00  8.3923933171271337e-05 1.0241551202598953e-03 0.0000000000000000e+00  8.2932309258213261e-05 9.5203041205193443e-04 0.0000000000000000e+00  8.1939231099790308e-05 8.8111483144162996e-04 0.0000000000000000e+00  8.0606768690574525e-05 8.1131941268934961e-04 0.0000000000000000e+00  7.9216418115634260e-05 7.4299952273041878e-04 0.0000000000000000e+00  7.7442151699213421e-05 6.7615018811274363e-04 0.0000000000000000e+00  7.5602307614245205e-05 6.1105738467272111e-04 0.0000000000000000e+00  7.3081619499245292e-05 5.4810595153148307e-04 0.0000000000000000e+00  7.0831619472702030e-05 4.8696709280894368e-04 0.0000000000000000e+00  6.8347365539278955e-05 4.2862791264684574e-04 0.0000000000000000e+00  6.4989448037266518e-05 3.7233569840478865e-04 0.0000000000000000e+00  6.1717548618648468e-05 3.1926905931705724e-04 0.0000000000000000e+00  5.7801469964269979e-05 2.6915251622199802e-04 0.0000000000000000e+00  5.3900388903122700e-05 2.2242289940954148e-04 0.0000000000000000e+00  4.8898734940347727e-05 1.7969121196452015e-04 0.0000000000000000e+00  4.4497405962380395e-05 1.4026508898057138e-04 0.0000000000000000e+00  3.9822111243981995e-05 1.0576156542865096e-04 0.0000000000000000e+00  3.3729001016307584e-05 7.4856417149547547e-05 0.0000000000000000e+00  2.8062377880574691e-05 4.9204517853317552e-05 0.0000000000000000e+00  2.1094328614716827e-05 2.8706807725332114e-05 0.0000000000000000e+00  1.4753449710170520e-05 1.3802297037192022e-05 0.0000000000000000e+00  7.0024476038519594e-06 4.6488926914876084e-06 0.0000000000000000e+00  -5.7465033394255266e-07 6.6088207914812510e-06 0.0000000000000000e+00  -2.1431464652457524e-05 2.8245566517105694e-03 0.0000000000000000e+00  -2.1830292527615439e-05 2.6764329762964585e-03 0.0000000000000000e+00  -2.0207710175027284e-05 2.4344772382865333e-03 0.0000000000000000e+00  -1.9491139476211674e-06 3.6315051038532057e-05 0.0000000000000000e+00  -1.8595602583851382e-05 2.2822426771673932e-03 0.0000000000000000e+00  -2.7522916175112351e-06 8.5415233803098377e-05 0.0000000000000000e+00  -1.8106067898202728e-05 2.1272342675333492e-03 0.0000000000000000e+00  -4.4881518880069927e-06 2.0101938630998122e-04 0.0000000000000000e+00  -6.4735848024546313e-06 2.9274250531241124e-04 0.0000000000000000e+00  -1.7571695903374654e-05 1.9722995442043086e-03 0.0000000000000000e+00  -8.3367311530757916e-06 5.8131755087077589e-04 0.0000000000000000e+00  -1.6340624045565114e-05 1.6633659023663930e-03 0.0000000000000000e+00  -6.6788265664971104e-06 3.9462489045495944e-04 0.0000000000000000e+00  -1.0557879862181979e-05 7.0887971994444742e-04 0.0000000000000000e+00  -1.5636534531473399e-05 1.5099849028192313e-03 0.0000000000000000e+00  -1.6984648959639806e-05 1.8175919751079086e-03 0.0000000000000000e+00  -1.1627376891471780e-05 8.4566758266062844e-04 0.0000000000000000e+00  -1.4864086798040801e-05 1.3579228737906769e-03 0.0000000000000000e+00  -1.1343632674591705e-05 9.8181534242886069e-04 0.0000000000000000e+00  -1.5313158534909718e-05 1.2108419045780204e-03 0.0000000000000000e+00  -1.3278186021496266e-05 1.0909084920589923e-03 0.0000000000000000e+00  -8.6674817002486166e-06 4.8138963098386751e-04 0.0000000000000000e+00  -1.9203299813656620e-05 2.5602756985923627e-03 0.0000000000000000e+00  -4.1814290309169258e-06 1.3648157222146819e-04 0.0000000000000000e+00  1.4817242783197914e-05 2.7500469773968730e-03 0.0000000000000000e+00  5.7017954245416103e-06 1.8461386685240162e-05 0.0000000000000000e+00  1.1820610129541018e-05 2.2047823112812601e-03 0.0000000000000000e+00  1.1357177993055892e-05 2.3598039071040838e-03 0.0000000000000000e+00  -1.4383886579284875e-05 6.0432311042226270e-05 0.0000000000000000e+00  -2.3831458958119870e-05 2.4487638356944594e-04 0.0000000000000000e+00  1.3315707989809989e-05 1.7404179199508349e-03 0.0000000000000000e+00  1.2306354924847713e-05 2.0497875599443808e-03 0.0000000000000000e+00  -3.5176011602680449e-05 6.4320941716914705e-04 0.0000000000000000e+00  1.3809720470342765e-05 1.5865533977063352e-03 0.0000000000000000e+00  -2.7492616287269708e-05 3.4502824237333006e-04 0.0000000000000000e+00  -3.7542306278838887e-05 7.7684574604093332e-04 0.0000000000000000e+00  1.4275560760395099e-05 1.4337575209647387e-03 0.0000000000000000e+00  1.2809124923269575e-05 1.8949319314119435e-03 0.0000000000000000e+00  -4.5642749624944029e-05 9.1557853677760957e-04 0.0000000000000000e+00  1.4702923228821266e-05 1.2825559959746924e-03 0.0000000000000000e+00  -1.3781404387429270e-06 1.8199124003475006e-06 0.0000000000000000e+00  1.0949320062829092e-06 1.0129279499288929e-06 0.0000000000000000e+00  -4.5502326602016799e-05 2.8854626856821388e-03 0.0000000000000000e+00  -8.9953907489410953e-06 1.9691522254738836e-05 0.0000000000000000e+00  2.1760499486424516e-05 1.1501489253235196e-03 0.0000000000000000e