<?xml version="1.0"?>
<VTKFile type="UnstructuredGrid"  version="0.1"  >
<UnstructuredGrid>
<Piece  NumberOfPoints="1419" NumberOfCells="2698">
<Points>
<DataArray  type="Float64"  NumberOfComponents="3"  format="ascii">0 0 0  0 0.41 0  2.5 0 0  2.5 0.41 0  0.6 0.19 0  0.6 0.21 0  0.25 0.2 0  0.15 0.2 0  0.2489897948556636 0.21 0  0.2489897948556636 0.19 0  0.6 0.2 0  0 0.3807142857143437 0  0 0.3514285714286952 0  0 0.3221428571430699 0  0 0.29285714285744 0  0 0.2635714285718054 0  0 0.2342857142861561 0  0 0.2050000000005308 0  0 0.175714285714732 0  0 0.1464285714289574 0  0 0.1171428571431897 0  0 0.08785714285737878 0  0 0.05857142857161107 0  0 0.02928571428580012 0  0.03015443760436003 0 0  0.06140001986583606 0 0  0.09377624077125973 0 0  0.1273239957535082 0 0  0.1620856860351972 0 0  0.1981052433264291 0 0  0.235428184091502 0 0  0.2741016576309132 0 0  0.3141745521465447 0 0  0.3556974926295285 0 0  0.3987229542472677 0 0  0.4433053055141081 0 0  0.4895008759286886 0 0  0.5373680609405097 0 0  0.5869673343216626 0 0  0.6383613676634521 0 0  0.6916151138468254 0 0  0.7467958595648856 0 0  0.8039733463919316 0 0  0.8632198139502143 0 0  0.9246101326867038 0 0  0.9882218810934433 0 0  1.054135445558498 0 0  1.122434100542598 0 0  1.193204177141305 0 0  1.266535089879536 0 0  1.342519516046404 0 0  1.421253448503939 0 0  1.502836389106271 0 0  1.587371439758838 0 0  1.674965418777374 0 0  1.765729001825544 0 0  1.859776908880082 0 0  1.957227977487062 0 0  2.058205329869943 0 0  2.162836591189951 0 0  2.271253957290865 0 0  2.383594446803425 0 0  2.5 0.1024999999997612 0  2.5 0.2049999999994743 0  2.5 0.3074999999997183 0  2.383594446803656 0.41 0  2.271253957291315 0.41 0  2.162836591190598 0.41 0  2.058205329870775 0.41 0  1.957227977488067 0.41 0  1.859776908881246 0.41 0  1.765729001826854 0.41 0  1.674965418778818 0.41 0  1.58737143976041 0.41 0  1.502836389107956 0.41 0  1.421253448505726 0.41 0  1.342519516048286 0.41 0  1.266535089881505 0.41 0  1.193204177143353 0.41 0  1.122434100544716 0.41 0  1.05413544556068 0.41 0  0.9882218810956305 0.41 0  0.9246101326886647 0.41 0  0.8632198139519631 0.41 0  0.8039733463934788 0.41 0  0.7467958595662458 0.41 0  0.6916151138480078 0.41 0  0.6383613676644679 0.41 0  0.5869673343225223 0.41 0  0.5373680609412221 0.41 0  0.4895008759292634 0.41 0  0.4433053055145528 0.41 0  0.3987229542475914 0.41 0  0.3556974926297398 0.41 0  0.3141745521466497 0.41 0  0.2741016576310038 0.41 0  0.2354281840915826 0.41 0  0.1981052433265003 0.41 0  0.1620856860352591 0.41 0  0.1273239957535623 0.41 0  0.09377624077128965 0.41 0  0.06140001986584975 0.41 0  0.03015443760436654 0.41 0  0.2497468076502589 0.2050254481002335 0  0.2497468076502614 0.1949745518997913 0  0.2469965252529372 0.1829317073451959 0  0.2439893735792749 0.1762316384219906 0  0.2400332147834255 0.1700443375285386 0  0.2352133972704371 0.1645032867342007 0  0.2296339016332438 0.1597280261969788 0  0.2234150974217223 0.1558215752574715 0  0.2166911463437691 0.1528682099456123 0  0.2096071079204251 0.1509316448471593 0  0.2023158100364996 0.1500536585536553 0  0.194974551899914 0.1502531923497262 0  0.1877417105387872 0.1515259415822739 0  0.1807733240461124 0.153844448527136 0  0.1742197252835808 0.15715869474974 0  0.1682222986673531 0.1613971801805478 0  0.162910430003803 0.1664684656256651 0  0.1583987151779087 0.1722631454351573 0  0.1547844879126891 0.178656207771761 0  0.1521457199348551 0.1855097315605723 0  0.1505393388476355 0.1926758619366523 0  0.1505393388476328 0.2073241380633295 0  0.1521457199348437 0.2144902684393899 0  0.1547844879126531 0.221343792228163 0  0.1583987151778488 0.2277368545647528 0  0.1629104300036858 0.2335315343742052 0  0.1682222986671726 0.2386028198193036 0  0.1742197252833576 0.2428413052501257 0  0.1807733240458683 0.2461555514727623 0  0.1877417105384929 0.2484740584176516 0  0.1949745518995776 0.2497468076502398 0  0.202315810036185 0.2499463414463592 0  0.2096071079201568 0.2490683551528932 0  0.2166911463435495 0.2471317900544655 0  0.2234150974215506 0.2441784247426195 0  0.2296339016331197 0.2402719738031125 0  0.2352133972703547 0.2354967132658811 0  0.2400332147833751 0.2299556624715287 0  0.2439893735792577 0.2237683615780412 0  0.246996525252926 0.2170682926548348 0  0.25645809709277 0.21 0  0.2639263993298655 0.21 0  0.271394701566961 0.21 0  0.2788630038040554 0.21 0  0.2863313060411479 0.21 0  0.2937996082782405 0.21 0  0.301267910515333 0.21 0  0.3087362127524279 0.21 0  0.3162045149895234 0.21 0  0.3236728172265972 0.21 0  0.3311411194636928 0.21 0  0.3386094217007701 0.21 0  0.3460777239378666 0.21 0  0.3535460261749672 0.21 0  0.3610143284120516 0.21 0  0.3684826306491596 0.21 0  0.3759509328862226 0.21 0  0.383419235123329 0.21 0  0.3908875373604028 0.21 0  0.3983558395975142 0.21 0  0.4058241418345938 0.21 0  0.4132924440716992 0.21 0  0.4207607463087888 0.21 0  0.4282290485459029 0.21 0  0.4356973507830418 0.21 0  0.4431656530201649 0.21 0  0.4506339552573136 0.21 0  0.4581022574944306 0.21 0  0.4655705597315852 0.21 0  0.4730388619686996 0.21 0  0.480507164205851 0.21 0  0.4879754664429498 0.21 0  0.4954437686800938 0.21 0  0.502912070917267 0.21 0  0.5103803731544119 0.21 0  0.5178486753915261 0.21 0  0.5253169776286404 0.21 0  0.5327852798657868 0.21 0  0.5402535821029386 0.21 0  0.54772188434007 0.21 0  0.5551901865771842 0.21 0  0.5626584888143201 0.21 0  0.5701267910514778 0.21 0  0.5775950932886138 0.21 0  0.5850633955257281 0.21 0  0.5925316977628483 0.21 0  0.6 0.2050000000000054 0  0.6 0.1950000000000217 0  0.5925316977628897 0.19 0  0.5850633955257988 0.19 0  0.5775950932887378 0.19 0  0.5701267910515998 0.19 0  0.5626584888145268 0.19 0  0.5551901865773963 0.19 0  0.547721884340339 0.19 0  0.5402535821032429 0.19 0  0.5327852798661811 0.19 0  0.5253169776290537 0.19 0  0.5178486753919799 0.19 0  0.5103803731549078 0.19 0  0.502912070917822 0.19 0  0.4954437686807294 0.19 0  0.4879754664436223 0.19 0  0.4805071642065402 0.19 0  0.4730388619694271 0.19 0  0.4655705597323621 0.19 0  0.4581022574952563 0.19 0  0.4506339552581777 0.19 0  0.4431656530210671 0.19 0  0.4356973507839815 0.19 0  0.4282290485468779 0.19 0  0.4207607463097617 0.19 0  0.4132924440726327 0.19 0  0.4058241418354857 0.19 0  0.3983558395983636 0.19 0  0.3908875373612097 0.19 0  0.3834192351240934 0.19 0  0.3759509328869369 0.19 0  0.3684826306498175 0.19 0  0.361014328412667 0.19 0  0.3535460261755617 0.19 0  0.3460777239384295 0.19 0  0.3386094217012945 0.19 0  0.3311411194641595 0.19 0  0.3236728172270245 0.19 0  0.3162045149898895 0.19 0  0.3087362127527544 0.19 0  0.3012679105156187 0.19 0  0.2937996082784807 0.19 0  0.2863313060413428 0.19 0  0.2788630038042048 0.19 0  0.2713947015670686 0.19 0  0.2639263993299336 0.19 0  0.2564580970927985 0.19 0  0.2607803159922026 0.2000727136295815 0  0.5887803774232762 0.2001272386983733 0  0.5745072403740523 0.2002044435018727 0  0.5511891430099709 0.2001122610077113 0  0.2751288526855082 0.20000000000002 0  0.5365194309847112 0.1999999999999436 0  0.2894621222999649 0.1998691686390484 0  0.5215828265105155 0.1999999999999228 0  0.3127789816668748 0.1998657885438805 0  0.3274069683451451 0.2000000000000796 0  0.5066462220363641 0.199999999999908 0  0.3650630746574081 0.199866017807523 0  0.476773013087985 0.1999999999998713 0  0.3417402379596385 0.1998691686391011 0  0.3796850840047755 0.200000000000134 0  0.4618364086138087 0.1999999999998546 0  0.4917096175621762 0.1999999999998808 0  0.3946216884789568 0.2000000000001512 0  0.446899804139621 0.1999999999998389 0  0.4089549580935208 0.1998691686391595 0  0.4322718174608562 0.200127451265745 0  0.4201487168029707 0.1999966199048527 0  0.3528922713220932 0.2000185703532356 0  0.5633122436674589 0.1999814296467508 0  0.3006558810093873 0.1999966199048318 0  0.5815926498168407 0.1966545283159175 0  0.2677053789419034 0.1964246479135325 0  0.5290511287476175 0.1970915826863981 0  0.5439877332217911 0.197091582686394 0  0.2825131256993216 0.2035478995978015 0  0.3199386661080599 0.202908417313604 0  0.4842413153250809 0.1970915826863873 0  0.5141145242734466 0.1970915826863843 0  0.3722167817676917 0.2029084173136195 0  0.4693047108508938 0.1970915826863783 0  0.3348752705822316 0.202908417313609 0  0.3871533862418661 0.2029084173136212 0  0.4543681063767183 0.1970915826863795 0  0.4991779197992749 0.1970915826863902 0  0.4020059614928624 0.203547899597858 0  0.4394315019025246 0.1970915826863714 0  0.2550657455369551 0.2034088125358657 0  0.2548908499171161 0.1966940311614271 0  0.5946539510196798 0.2024302972968126 0  0.267698176732111 0.2039977513680092 0  0.4261685417851465 0.196409292431739 0  0.3590076176283495 0.196411355804271 0  0.5571672426447437 0.2036011176410121 0  0.3066757059912147 0.1964092924317024 0  0.594380730180568 0.1966558399668133 0  0.4842413153245942 0.2040749161535287 0  0.4693047108503577 0.2040749161535231 0  0.3871533862424271 0.1959250838464788 0  0.372246743208829 0.1959123236376545 0  0.5141145242731028 0.2040749161535395 0  0.4543681063761134 0.2040749161535186 0  0.4019979587101454 0.1959834479682427 0  0.4394608940728603 0.2040870543693135 0  0.5439623148931173 0.2040856076781014 0  0.5290511287473298 0.2040749161535501 0  0.4991779197988497 0.2040749161535382 0  0.3347912413592433 0.1959225448935183 0  0.3199680582793816 0.1959123018030061 0  0.2825051229162361 0.1959834479681729 0  0.3590471196690275 0.2036304442587945 0  0.5571594006495384 0.1963685282145804 0  0.3067669986803285 0.203627750582736 0  0.4262598344738712 0.2036568242185335 0  0.5814408164431408 0.2041285596160068 0  0.5688286748170428 0.1961819304477386 0  0.4145905603063645 0.2038180695522843 0  0.3473758401724931 0.2038180695522752 0  0.2950977245128307 0.2038180695522663 0  0.5688286748170693 0.203818069552238 0  0.2950977245127906 0.1961819304477774 0  0.3473758401723931 0.1961819304478349 0  0.4145905603061963 0.1961819304479011 0  0.2601812407614425 0.2056861609747042
[...]
<PointData  Vectors="f_40-1"> 
<DataArray  type="Float64"  Name="f_40-1"  NumberOfComponents="3" format="ascii">0.0000000000000000e+00 0.0000000000000000e+00 0.0000000000000000e+00  0.0000000000000000e+00 0.0000000000000000e+00 0.0000000000000000e+00  0.0000000000000000e+00 0.0000000000000000e+00 0.0000000000000000e+00  0.0000000000000000e+00 0.0000000000000000e+00 0.0000000000000000e+00  5.7201377876665298e-05 2.0378958799983733e-03 0.0000000000000000e+00  -8.5347118594039748e-05 2.0378029287869944e-03 0.0000000000000000e+00  0.0000000000000000e+00 0.0000000000000000e+00 0.0000000000000000e+00  0.0000000000000000e+00 0.0000000000000000e+00 0.0000000000000000e+00  0.0000000000000000e+00 0.0000000000000000e+00 0.0000000000000000e+00  0.0000000000000000e+00 0.0000000000000000e+00 0.0000000000000000e+00  -1.4144384046929797e-05 2.0378417921642646e-03 0.0000000000000000e+00  0.0000000000000000e+00 0.0000000000000000e+00 0.0000000000000000e+00  0.0000000000000000e+00 0.0000000000000000e+00 0.0000000000000000e+00  0.0000000000000000e+00 0.0000000000000000e+00 0.0000000000000000e+00  0.0000000000000000e+00 0.0000000000000000e+00 0.0000000000000000e+00  0.0000000000000000e+00 0.0000000000000000e+00 0.0000000000000000e+00  0.0000000000000000e+00 0.0000000000000000e+00 0.0000000000000000e+00  0.0000000000000000e+00 0.0000000000000000e+00 0.0000000000000000e+00  0.0000000000000000e+00 0.0000000000000000e+00 0.0000000000000000e+00  0.0000000000000000e+00 0.0000000000000000e+00 0.0000000000000000e+00  0.0000000000000000e+00 0.0000000000000000e+00 0.0000000000000000e+00  0.0000000000000000e+00 0.0000000000000000e+00 0.0000000000000000e+00  0.0000000000000000e+00 0.0000000000000000e+00 0.0000000000000000e+00  0.0000000000000000e+00 0.0000000000000000e+00 0.0000000000000000e+00  0.0000000000000000e+00 0.0000000000000000e+00 0.0000000000000000e+00  0.0000000000000000e+00 0.0000000000000000e+00 0.0000000000000000e+00  0.0000000000000000e+00 0.0000000000000000e+00 0.0000000000000000e+00  0.0000000000000000e+00 0.0000000000000000e+00 0.0000000000000000e+00  0.0000000000000000e+00 0.0000000000000000e+00 0.0000000000000000e+00  0.0000000000000000e+00 0.0000000000000000e+00 0.0000000000000000e+00  0.0000000000000000e+00 0.0000000000000000e+00 0.0000000000000000e+00  0.0000000000000000e+00 0.0000000000000000e+00 0.0000000000000000e+00  0.0000000000000000e+00 0.0000000000000000e+00 0.0000000000000000e+00  0.0000000000000000e+00 0.0000000000000000e+00 0.0000000000000000e+00  0.0000000000000000e+00 0.0000000000000000e+00 0.0000000000000000e+00  0.0000000000000000e+00 0.0000000000000000e+00 0.0000000000000000e+00  0.0000000000000000e+00 0.0000000000000000e+00 0.0000000000000000e+00  0.0000000000000000e+00 0.0000000000000000e+00 0.0000000000000000e+00  0.0000000000000000e+00 0.0000000000000000e+00 0.0000000000000000e+00  0.0000000000000000e+00 0.0000000000000000e+00 0.0000000000000000e+00  0.0000000000000000e+00 0.0000000000000000e+00 0.0000000000000000e+00  0.0000000000000000e+00 0.0000000000000000e+00 0.0000000000000000e+00  0.0000000000000000e+00 0.0000000000000000e+00 0.0000000000000000e+00  0.0000000000000000e+00 0.0000000000000000e+00 0.0000000000000000e+00  0.0000000000000000e+00 0.0000000000000000e+00 0.0000000000000000e+00  0.0000000000000000e+00 0.0000000000000000e+00 0.0000000000000000e+00  0.0000000000000000e+00 0.0000000000000000e+00 0.0000000000000000e+00  0.0000000000000000e+00 0.0000000000000000e+00 0.0000000000000000e+00  0.0000000000000000e+00 0.0000000000000000e+00 0.0000000000000000e+00  0.0000000000000000e+00 0.0000000000000000e+00 0.0000000000000000e+00  0.0000000000000000e+00 0.0000000000000000e+00 0.0000000000000000e+00  0.0000000000000000e+00 0.0000000000000000e+00 0.0000000000000000e+00  0.0000000000000000e+00 0.0000000000000000e+00 0.0000000000000000e+00  0.0000000000000000e+00 0.0000000000000000e+00 0.0000000000000000e+00  0.0000000000000000e+00 0.0000000000000000e+00 0.0000000000000000e+00  0.0000000000000000e+00 0.0000000000000000e+00 0.0000000000000000e+00  0.0000000000000000e+00 0.0000000000000000e+00 0.0000000000000000e+00  0.0000000000000000e+00 0.0000000000000000e+00 0.0000000000000000e+00  0.0000000000000000e+00 0.0000000000000000e+00 0.0000000000000000e+00  0.0000000000000000e+00 0.0000000000000000e+00 0.0000000000000000e+00  0.0000000000000000e+00 0.0000000000000000e+00 0.0000000000000000e+00  0.0000000000000000e+00 0.0000000000000000e+00 0.0000000000000000e+00  0.0000000000000000e+00 0.0000000000000000e+00 0.0000000000000000e+00  0.0000000000000000e+00 0.0000000000000000e+00 0.0000000000000000e+00  0.0000000000000000e+00 0.0000000000000000e+00 0.0000000000000000e+00  0.0000000000000000e+00 0.0000000000000000e+00 0.0000000000000000e+00  0.0000000000000000e+00 0.0000000000000000e+00 0.0000000000000000e+00  0.0000000000000000e+00 0.0000000000000000e+00 0.0000000000000000e+00  0.0000000000000000e+00 0.0000000000000000e+00 0.0000000000000000e+00  0.0000000000000000e+00 0.0000000000000000e+00 0.0000000000000000e+00  0.0000000000000000e+00 0.0000000000000000e+00 0.0000000000000000e+00  0.0000000000000000e+00 0.0000000000000000e+00 0.0000000000000000e+00  0.0000000000000000e+00 0.0000000000000000e+00 0.0000000000000000e+00  0.0000000000000000e+00 0.0000000000000000e+00 0.0000000000000000e+00  0.0000000000000000e+00 0.0000000000000000e+00 0.0000000000000000e+00  0.0000000000000000e+00 0.0000000000000000e+00 0.0000000000000000e+00  0.0000000000000000e+00 0.0000000000000000e+00 0.0000000000000000e+00  0.0000000000000000e+00 0.0000000000000000e+00 0.0000000000000000e+00  0.0000000000000000e+00 0.0000000000000000e+00 0.0000000000000000e+00  0.0000000000000000e+00 0.0000000000000000e+00 0.0000000000000000e+00  0.0000000000000000e+00 0.0000000000000000e+00 0.0000000000000000e+00  0.0000000000000000e+00 0.0000000000000000e+00 0.0000000000000000e+00  0.0000000000000000e+00 0.0000000000000000e+00 0.0000000000000000e+00  0.0000000000000000e+00 0.0000000000000000e+00 0.0000000000000000e+00  0.0000000000000000e+00 0.0000000000000000e+00 0.0000000000000000e+00  0.0000000000000000e+00 0.0000000000000000e+00 0.0000000000000000e+00  0.0000000000000000e+00 0.0000000000000000e+00 0.0000000000000000e+00  0.0000000000000000e+00 0.0000000000000000e+00 0.0000000000000000e+00  0.0000000000000000e+00 0.0000000000000000e+00 0.0000000000000000e+00  0.0000000000000000e+00 0.0000000000000000e+00 0.0000000000000000e+00  0.0000000000000000e+00 0.0000000000000000e+00 0.0000000000000000e+00  0.0000000000000000e+00 0.0000000000000000e+00 0.0000000000000000e+00  0.0000000000000000e+00 0.0000000000000000e+00 0.0000000000000000e+00  0.0000000000000000e+00 0.0000000000000000e+00 0.0000000000000000e+00  0.0000000000000000e+00 0.0000000000000000e+00 0.0000000000000000e+00  0.0000000000000000e+00 0.0000000000000000e+00 0.0000000000000000e+00  0.0000000000000000e+00 0.0000000000000000e+00 0.0000000000000000e+00  0.0000000000000000e+00 0.0000000000000000e+00 0.0000000000000000e+00  0.0000000000000000e+00 0.0000000000000000e+00 0.0000000000000000e+00  0.0000000000000000e+00 0.0000000000000000e+00 0.0000000000000000e+00  0.0000000000000000e+00 0.0000000000000000e+00 0.0000000000000000e+00  0.0000000000000000e+00 0.0000000000000000e+00 0.0000000000000000e+00  0.0000000000000000e+00 0.0000000000000000e+00 0.0000000000000000e+00  0.0000000000000000e+00 0.0000000000000000e+00 0.0000000000000000e+00  0.0000000000000000e+00 0.0000000000000000e+00 0.0000000000000000e+00  0.0000000000000000e+00 0.0000000000000000e+00 0.0000000000000000e+00  0.0000000000000000e+00 0.0000000000000000e+00 0.0000000000000000e+00  0.0000000000000000e+00 0.0000000000000000e+00 0.0000000000000000e+00  0.0000000000000000e+00 0.0000000000000000e+00 0.0000000000000000e+00  0.0000000000000000e+00 0.0000000000000000e+00 0.0000000000000000e+00  0.0000000000000000e+00 0.0000000000000000e+00 0.0000000000000000e+00  0.0000000000000000e+00 0.0000000000000000e+00 0.0000000000000000e+00  0.0000000000000000e+00 0.0000000000000000e+00 0.0000000000000000e+00  0.0000000000000000e+00 0.0000000000000000e+00 0.0000000000000000e+00  0.0000000000000000e+00 0.0000000000000000e+00 0.0000000000000000e+00  0.0000000000000000e+00 0.0000000000000000e+00 0.0000000000000000e+00  0.0000000000000000e+00 0.0000000000000000e+00 0.0000000000000000e+00  0.0000000000000000e+00 0.0000000000000000e+00 0.0000000000000000e+00  0.0000000000000000e+00 0.0000000000000000e+00 0.0000000000000000e+00  0.0000000000000000e+00 0.0000000000000000e+00 0.0000000000000000e+00  0.0000000000000000e+00 0.0000000000000000e+00 0.0000000000000000e+00  0.0000000000000000e+00 0.0000000000000000e+00 0.0000000000000000e+00  0.0000000000000000e+00 0.0000000000000000e+00 0.0000000000000000e+00  0.0000000000000000e+00 0.0000000000000000e+00 0.0000000000000000e+00  0.0000000000000000e+00 0.0000000000000000e+00 0.0000000000000000e+00  0.0000000000000000e+00 0.0000000000000000e+00 0.0000000000000000e+00  0.0000000000000000e+00 0.0000000000000000e+00 0.0000000000000000e+00  0.0000000000000000e+00 0.0000000000000000e+00 0.0000000000000000e+00  0.0000000000000000e+00 0.0000000000000000e+00 0.0000000000000000e+00  0.0000000000000000e+00 0.0000000000000000e+00 0.0000000000000000e+00  0.0000000000000000e+00 0.0000000000000000e+00 0.0000000000000000e+00  0.0000000000000000e+00 0.0000000000000000e+00 0.0000000000000000e+00  0.0000000000000000e+00 0.0000000000000000e+00 0.0000000000000000e+00  0.0000000000000000e+00 0.0000000000000000e+00 0.0000000000000000e+00  0.0000000000000000e+00 0.0000000000000000e+00 0.0000000000000000e+00  0.0000000000000000e+00 0.0000000000000000e+00 0.0000000000000000e+00  0.0000000000000000e+00 0.0000000000000000e+00 0.0000000000000000e+00  0.0000000000000000e+00 0.0000000000000000e+00 0.0000000000000000e+00  0.0000000000000000e+00 0.0000000000000000e+00 0.0000000000000000e+00  0.0000000000000000e+00 0.0000000000000000e+00 0.0000000000000000e+00  0.0000000000000000e+00 0.0000000000000000e+00 0.0000000000000000e+00  0.0000000000000000e+00 0.0000000000000000e+00 0.0000000000000000e+00  0.0000000000000000e+00 0.0000000000000000e+00 0.0000000000000000e+00  -5.7603863203599715e-06 5.7400794407071898e-06 0.0000000000000000e+00  -1.2192392369600492e-05 1.2301852047181496e-05 0.0000000000000000e+00  -1.7859066688652094e-05 2.2755945132166101e-05 0.0000000000000000e+00  -2.3868715310526160e-05 3.7348055679720087e-05 0.0000000000000000e+00  -2.8854171581161665e-05 5.5297865404405251e-05 0.0000000000000000e+00  -3.4322347161033625e-05 7.6916526182466231e-05 0.0000000000000000e+00  -3.8694145662024285e-05 1.0116903850705843e-04 0.0000000000000000e+00  -4.2826441748951430e-05 1.2882153480974122e-04 0.0000000000000000e+00  -4.7408434937808287e-05 1.5898830847257432e-04 0.0000000000000000e+00  -5.0858058763841632e-05 1.9168653031794924e-04 0.0000000000000000e+00  -5.4871079079340214e-05 2.2684286810781623e-04 0.0000000000000000e+00  -5.7844973602838775e-05 2.6413170558127962e-04 0.0000000000000000e+00  -6.1169646572105992e-05 3.0345146143040690e-04 0.0000000000000000e+00  -6.3763246253531082e-05 3.4434194657981693e-04 0.0000000000000000e+00  -6.6160496751122079e-05 3.8709588684495870e-04 0.0000000000000000e+00  -6.8729896644691003e-05 4.3119551211515095e-04 0.0000000000000000e+00  -7.0629709830117744e-05 4.7658901399211847e-04 0.0000000000000000e+00  -7.2734756601955673e-05 5.2322021891259033e-04 0.0000000000000000e+00  -7.4267515448694576e-05 5.7083094007472004e-04 0.0000000000000000e+00  -7.5925526826103591e-05 6.1936502060393520e-04 0.0000000000000000e+00  -7.7195034832314667e-05 6.6867285092841013e-04 0.0000000000000000e+00  -7.8468576495740992e-05 7.1871360147803508e-04 0.0000000000000000e+00  -7.9463607799553981e-05 7.6924010262145607e-04 0.0000000000000000e+00  -8.0340919667759827e-05 8.2035562396373652e-04 0.0000000000000000e+00  -8.1222149790546858e-05 8.7184801845211824e-04 0.0000000000000000e+00  -8.1907391703212889e-05 9.2372823274369169e-04 0.0000000000000000e+00  -8.2530363490029171e-05 9.7594779400416007e-04 0.0000000000000000e+00  -8.3040921642177714e-05 1.0283850368714151e-03 0.0000000000000000e+00  -8.3492485478790232e-05 1.0810693575772838e-03 0.0000000000000000e+00  -8.3858489096291810e-05 1.1338925123452941e-03 0.0000000000000000e+00  -8.4172885044741101e-05 1.1868746607111170e-03 0.0000000000000000e+00  -8.4421465631750832e-05 1.2399281253980686e-03 0.0000000000000000e+00  -8.4628134883968175e-05 1.2930717920375627e-03 0.0000000000000000e+00  -8.4784932480894563e-05 1.3462377384336594e-03 0.0000000000000000e+00  -8.4906760219082838e-05 1.3994474436793826e-03 0.0000000000000000e+00  -8.4998956966167444e-05 1.4526542421424518e-03 0.0000000000000000e+00  -8.5068179298071445e-05 1.5058722096982632e-03 0.0000000000000000e+00  -8.5120713307356918e-05 1.5590773918893598e-03 0.0000000000000000e+00  -8.5158786118745295e-05 1.6122792010471898e-03 0.0000000000000000e+00  -8.5190620283336985e-05 1.6654697664066573e-03 0.0000000000000000e+00  -8.5216943658310908e-05 1.7186525127797841e-03 0.0000000000000000e+00  -8.5244011335231282e-05 1.7718309187293208e-03 0.0000000000000000e+00  -8.5267422866176613e-05 1.8250114234708264e-03 0.0000000000000000e+00  -8.5293419764026081e-05 1.8781956641814818e-03 0.0000000000000000e+00  -8.5321031020444804e-05 1.9313929841262023e-03 0.0000000000000000e+00  -8.5343106159820300e-05 1.9845992665035949e-03 0.0000000000000000e+00  -4.9762708445356695e-05 2.0378219434865241e-03 0.0000000000000000e+00  2.1502447730868736e-05 2.0378638407633092e-03 0.0000000000000000e+00  5.7184109751741603e-05 1.9846342673642717e-03 0.0000000000000000e+00  5.7189621517426565e-05 1.9314104222321977e-03 0.0000000000000000e+00  5.7202881267926823e-05 1.8782015742451492e-03 0.0000000000000000e+00  5.7218470125179319e-05 1.8249977589330538e-03 0.0000000000000000e+00  5.7239745017606708e-05 1.7717955866216367e-03 0.0000000000000000e+00  5.7272887475849282e-05 1.7185907554635076e-03 0.0000000000000000e+00  5.7313193936833218e-05 1.6653791009725665e-03 0.0000000000000000e+00  5.7361863492631200e-05 1.6121593176871200e-03 0.0000000000000000e+00  5.7417296288468785e-05 1.5589267058096741e-03 0.0000000000000000e+00  5.7477775709401652e-05 1.5056816364139032e-03 0.0000000000000000e+00  5.7538771480576529e-05 1.4524283222977607e-03 0.0000000000000000e+00  5.7604423381157409e-05 1.3991729334477765e-03 0.0000000000000000e+00  5.7657422027432044e-05 1.3459252311557870e-03 0.0000000000000000e+00  5.7714055430030320e-05 1.2927025123715620e-03 0.0000000000000000e+00  5.7735245169120671e-05 1.2395182163686927e-03 0.0000000000000000e+00  5.7764643557008856e-05 1.1864039419352565e-03 0.0000000000000000e+00  5.7729618368241217e-05 1.1333780662843179e-03 0.0000000000000000e+00  5.7713559630458824e-05 1.0804856838004862e-03 0.0000000000000000e+00  5.7597836173705327e-05 1.0277521266935888e-03 0.0000000000000000e+00  5.7517790653632875e-05 9.7523492116678582e-04 0.0000000000000000e+00  5.7289822204748905e-05 9.2296408253372385e-04 0.0000000000000000e+00  5.7118996443659251e-05 8.7101239286756867e-04 0.0000000000000000e+00  5.6753483701895625e-05 8.1942650697809519e-04 0.0000000000000000e+00  5.6432302387335282e-05 7.6823633755426085e-04 0.0000000000000000e+00  5.6046944241785081e-05 7.1763696447402713e-04 0.0000000000000000e+00  5.5429812511157789e-05 6.6749731676946967e-04 0.0000000000000000e+00  5.4811734372743342e-05 6.1812581542639022e-04 0.0000000000000000e+00  5.3972222652434729e-05 5.6947661562877926e-04 0.0000000000000000e+00  5.3092683637553447e-05 5.2178898525628349e-04 0.0000000000000000e+00  5.1955796381456738e-05 4.7507192983851346e-04 0.0000000000000000e+00  5.0772533625818725e-05 4.2952501007871970e-04 0.0000000000000000e+00  4.9125660392751566e-05 3.8542310287244513e-04 0.0000000000000000e+00  4.7659540410369061e-05 3.4255036170625783e-04 0.0000000000000000e+00  4.6035695096769818e-05 3.0159394174704494e-04 0.0000000000000000e+00  4.3808897195260710e-05 2.6204553811701474e-04 0.0000000000000000e+00  4.1642804035090771e-05 2.2472701144962440e-04 0.0000000000000000e+00  3.9031627458584696e-05 1.8945893734694021e-04 0.0000000000000000e+00  3.6434486511722134e-05 1.5654957074871293e-04 0.0000000000000000e+00  3.3072564264553374e-05 1.2643680309371738e-04 0.0000000000000000e+00  3.0134751980924669e-05 9.8639328523575384e-05 0.0000000000000000e+00  2.7013865686939925e-05 7.4297766677053749e-05 0.0000000000000000e+00  2.2899585808466608e-05 5.2487466858230691e-05 0.0000000000000000e+00  1.9093270165237128e-05 3.4370273244633691e-05 0.0000000000000000e+00  1.4370654781133218e-05 1.9888487366883301e-05 0.0000000000000000e+00  1.0086253797316914e-05 9.3619509562279635e-06 0.0000000000000000e+00  4.7890896169783273e-06 2.9200681975566547e-06 0.0000000000000000e+00  -5.9087101517463757e-07 4.6773221161389035e-06 0.0000000000000000e+00  -1.5011226543652155e-05 1.9578831529360259e-03 0.0000000000000000e+00  -1.5514126950258436e-05 1.8562020980859740e-03 0.0000000000000000e+00  -1.4771155089007205e-05 1.6901258712138190e-03 0.0000000000000000e+00  -1.9900152530033091e-06 2.5661902203844175e-05 0.0000000000000000e+00  -1.3890238492416988e-05 1.5856144164404548e-03 0.0000000000000000e+00  -2.9117196907657467e-06 6.0319827295108846e-05 0.0000000000000000e+00  -1.3775340497567073e-05 1.4791558719935657e-03 0.0000000000000000e+00  -4.6168265666630765e-06 1.4183873626375532e-04 0.0000000000000000e+00  -6.2515893142568013e-06 2.0643207167226290e-04 0.0000000000000000e+00  -1.3617001851846179e-05 1.3726760254588882e-03 0.0000000000000000e+00  -7.9515785945848130e-06 4.0905147550903900e-04 0.0000000000000000e+00  -1.3137984614769012e-05 1.1600422064489023e-03 0.0000000000000000e+00  -6.5825608231486070e-06 2.7807052677656882e-04 0.0000000000000000e+00  -9.5754569084272316e-06 4.9830494229676338e-04 0.0000000000000000e+00  -1.2806357913979749e-05 1.0542697305440192e-03 0.0000000000000000e+00  -1.3406501360633184e-05 1.2662541269908127e-03 0.0000000000000000e+00  -1.0351858331634514e-05 5.9377109036344588e-04 0.0000000000000000e+00  -1.2402022171380362e-05 9.4924174491954377e-04 0.0000000000000000e+00  -1.0147064437577302e-05 6.8854098690666410e-04 0.0000000000000000e+00  -1.2812375777367177e-05 8.4747071101453286e-04 0.0000000000000000e+00  -1.1456974260233691e-05 7.6430998232843964e-04 0.0000000000000000e+00  -8.0878084910791310e-06 3.3899267719235415e-04 0.0000000000000000e+00  -1.3890494455065712e-05 1.7764694187182416e-03 0.0000000000000000e+00  -4.1623175677511639e-06 9.6347732288162445e-05 0.0000000000000000e+00  9.7591753811839722e-06 1.9066741717313257e-03 0.0000000000000000e+00  3.6197191728829077e-06 1.2901014660076659e-05 0.0000000000000000e+00  6.8920621635291751e-06 1.5323660401705200e-03 0.0000000000000000e+00  6.7912374669709382e-06 1.6388106448893688e-03 0.0000000000000000e+00  -1.0951291252754620e-05 4.2826409368364442e-05 0.0000000000000000e+00  -1.8353171090228429e-05 1.7283805414993841e-04 0.0000000000000000e+00  7.3744754762004722e-06 1.2130546818647958e-03 0.0000000000000000e+00  7.0240463307075581e-06 1.4258807752068705e-03 0.0000000000000000e+00  -2.6762529708650335e-05 4.5247385724756336e-04 0.0000000000000000e+00  7.5778367124986372e-06 1.1070187117352202e-03 0.0000000000000000e+00  -2.1127426505191888e-05 2.4331104410200725e-04 0.0000000000000000e+00  -2.8424334351301143e-05 5.4585614884677112e-04 0.0000000000000000e+00  7.7901064299546405e-06 1.0015658585726533e-03 0.0000000000000000e+00  7.1870266462528930e-06 1.3194054203715946e-03 0.0000000000000000e+00  -3.4029400478556366e-05 6.4256718781206107e-04 0.0000000000000000e+00  8.0073292815825471e-06 8.9703464698238987e-04 0.0000000000000000e+00  -1.0187286238200628e-06 1.3786309891364908e-06 0.0000000000000000e+00  7.3072430342902209e-07 6.3639084749835744e-07 0.0000000000000000e+00  -3.1442611547693699e-05 1.9997368640730308e-03 0.0000000000000000e+00  -6.7579966604429810e-06 1.4083777926623815e-05 0.0000000000000000e+00  1.2861653974247986e-05 8.0530170588153369e-04 0.0000000000000000e