<?xml version="1.0"?>
<VTKFile type="UnstructuredGrid"  version="0.1"  >
<UnstructuredGrid>
<Piece  NumberOfPoints="1419" NumberOfCells="2698">
<Points>
<DataArray  type="Float64"  NumberOfComponents="3"  format="ascii">0 0 0  0 0.41 0  2.5 0 0  2.5 0.41 0  0.6 0.19 0  0.6 0.21 0  0.25 0.2 0  0.15 0.2 0  0.2489897948556636 0.21 0  0.2489897948556636 0.19 0  0.6 0.2 0  0 0.3807142857143437 0  0 0.3514285714286952 0  0 0.3221428571430699 0  0 0.29285714285744 0  0 0.2635714285718054 0  0 0.2342857142861561 0  0 0.2050000000005308 0  0 0.175714285714732 0  0 0.1464285714289574 0  0 0.1171428571431897 0  0 0.08785714285737878 0  0 0.05857142857161107 0  0 0.02928571428580012 0  0.03015443760436003 0 0  0.06140001986583606 0 0  0.09377624077125973 0 0  0.1273239957535082 0 0  0.1620856860351972 0 0  0.1981052433264291 0 0  0.235428184091502 0 0  0.2741016576309132 0 0  0.3141745521465447 0 0  0.3556974926295285 0 0  0.3987229542472677 0 0  0.4433053055141081 0 0  0.4895008759286886 0 0  0.5373680609405097 0 0  0.5869673343216626 0 0  0.6383613676634521 0 0  0.6916151138468254 0 0  0.7467958595648856 0 0  0.8039733463919316 0 0  0.8632198139502143 0 0  0.9246101326867038 0 0  0.9882218810934433 0 0  1.054135445558498 0 0  1.122434100542598 0 0  1.193204177141305 0 0  1.266535089879536 0 0  1.342519516046404 0 0  1.421253448503939 0 0  1.502836389106271 0 0  1.587371439758838 0 0  1.674965418777374 0 0  1.765729001825544 0 0  1.859776908880082 0 0  1.957227977487062 0 0  2.058205329869943 0 0  2.162836591189951 0 0  2.271253957290865 0 0  2.383594446803425 0 0  2.5 0.1024999999997612 0  2.5 0.2049999999994743 0  2.5 0.3074999999997183 0  2.383594446803656 0.41 0  2.271253957291315 0.41 0  2.162836591190598 0.41 0  2.058205329870775 0.41 0  1.957227977488067 0.41 0  1.859776908881246 0.41 0  1.765729001826854 0.41 0  1.674965418778818 0.41 0  1.58737143976041 0.41 0  1.502836389107956 0.41 0  1.421253448505726 0.41 0  1.342519516048286 0.41 0  1.266535089881505 0.41 0  1.193204177143353 0.41 0  1.122434100544716 0.41 0  1.05413544556068 0.41 0  0.9882218810956305 0.41 0  0.9246101326886647 0.41 0  0.8632198139519631 0.41 0  0.8039733463934788 0.41 0  0.7467958595662458 0.41 0  0.6916151138480078 0.41 0  0.6383613676644679 0.41 0  0.5869673343225223 0.41 0  0.5373680609412221 0.41 0  0.4895008759292634 0.41 0  0.4433053055145528 0.41 0  0.3987229542475914 0.41 0  0.3556974926297398 0.41 0  0.3141745521466497 0.41 0  0.2741016576310038 0.41 0  0.2354281840915826 0.41 0  0.1981052433265003 0.41 0  0.1620856860352591 0.41 0  0.1273239957535623 0.41 0  0.09377624077128965 0.41 0  0.06140001986584975 0.41 0  0.03015443760436654 0.41 0  0.2497468076502589 0.2050254481002335 0  0.2497468076502614 0.1949745518997913 0  0.2469965252529372 0.1829317073451959 0  0.2439893735792749 0.1762316384219906 0  0.2400332147834255 0.1700443375285386 0  0.2352133972704371 0.1645032867342007 0  0.2296339016332438 0.1597280261969788 0  0.2234150974217223 0.1558215752574715 0  0.2166911463437691 0.1528682099456123 0  0.2096071079204251 0.1509316448471593 0  0.2023158100364996 0.1500536585536553 0  0.194974551899914 0.1502531923497262 0  0.1877417105387872 0.1515259415822739 0  0.1807733240461124 0.153844448527136 0  0.1742197252835808 0.15715869474974 0  0.1682222986673531 0.1613971801805478 0  0.162910430003803 0.1664684656256651 0  0.1583987151779087 0.1722631454351573 0  0.1547844879126891 0.178656207771761 0  0.1521457199348551 0.1855097315605723 0  0.1505393388476355 0.1926758619366523 0  0.1505393388476328 0.2073241380633295 0  0.1521457199348437 0.2144902684393899 0  0.1547844879126531 0.221343792228163 0  0.1583987151778488 0.2277368545647528 0  0.1629104300036858 0.2335315343742052 0  0.1682222986671726 0.2386028198193036 0  0.1742197252833576 0.2428413052501257 0  0.1807733240458683 0.2461555514727623 0  0.1877417105384929 0.2484740584176516 0  0.1949745518995776 0.2497468076502398 0  0.202315810036185 0.2499463414463592 0  0.2096071079201568 0.2490683551528932 0  0.2166911463435495 0.2471317900544655 0  0.2234150974215506 0.2441784247426195 0  0.2296339016331197 0.2402719738031125 0  0.2352133972703547 0.2354967132658811 0  0.2400332147833751 0.2299556624715287 0  0.2439893735792577 0.2237683615780412 0  0.246996525252926 0.2170682926548348 0  0.25645809709277 0.21 0  0.2639263993298655 0.21 0  0.271394701566961 0.21 0  0.2788630038040554 0.21 0  0.2863313060411479 0.21 0  0.2937996082782405 0.21 0  0.301267910515333 0.21 0  0.3087362127524279 0.21 0  0.3162045149895234 0.21 0  0.3236728172265972 0.21 0  0.3311411194636928 0.21 0  0.3386094217007701 0.21 0  0.3460777239378666 0.21 0  0.3535460261749672 0.21 0  0.3610143284120516 0.21 0  0.3684826306491596 0.21 0  0.3759509328862226 0.21 0  0.383419235123329 0.21 0  0.3908875373604028 0.21 0  0.3983558395975142 0.21 0  0.4058241418345938 0.21 0  0.4132924440716992 0.21 0  0.4207607463087888 0.21 0  0.4282290485459029 0.21 0  0.4356973507830418 0.21 0  0.4431656530201649 0.21 0  0.4506339552573136 0.21 0  0.4581022574944306 0.21 0  0.4655705597315852 0.21 0  0.4730388619686996 0.21 0  0.480507164205851 0.21 0  0.4879754664429498 0.21 0  0.4954437686800938 0.21 0  0.502912070917267 0.21 0  0.5103803731544119 0.21 0  0.5178486753915261 0.21 0  0.5253169776286404 0.21 0  0.5327852798657868 0.21 0  0.5402535821029386 0.21 0  0.54772188434007 0.21 0  0.5551901865771842 0.21 0  0.5626584888143201 0.21 0  0.5701267910514778 0.21 0  0.5775950932886138 0.21 0  0.5850633955257281 0.21 0  0.5925316977628483 0.21 0  0.6 0.2050000000000054 0  0.6 0.1950000000000217 0  0.5925316977628897 0.19 0  0.5850633955257988 0.19 0  0.5775950932887378 0.19 0  0.5701267910515998 0.19 0  0.5626584888145268 0.19 0  0.5551901865773963 0.19 0  0.547721884340339 0.19 0  0.5402535821032429 0.19 0  0.5327852798661811 0.19 0  0.5253169776290537 0.19 0  0.5178486753919799 0.19 0  0.5103803731549078 0.19 0  0.502912070917822 0.19 0  0.4954437686807294 0.19 0  0.4879754664436223 0.19 0  0.4805071642065402 0.19 0  0.4730388619694271 0.19 0  0.4655705597323621 0.19 0  0.4581022574952563 0.19 0  0.4506339552581777 0.19 0  0.4431656530210671 0.19 0  0.4356973507839815 0.19 0  0.4282290485468779 0.19 0  0.4207607463097617 0.19 0  0.4132924440726327 0.19 0  0.4058241418354857 0.19 0  0.3983558395983636 0.19 0  0.3908875373612097 0.19 0  0.3834192351240934 0.19 0  0.3759509328869369 0.19 0  0.3684826306498175 0.19 0  0.361014328412667 0.19 0  0.3535460261755617 0.19 0  0.3460777239384295 0.19 0  0.3386094217012945 0.19 0  0.3311411194641595 0.19 0  0.3236728172270245 0.19 0  0.3162045149898895 0.19 0  0.3087362127527544 0.19 0  0.3012679105156187 0.19 0  0.2937996082784807 0.19 0  0.2863313060413428 0.19 0  0.2788630038042048 0.19 0  0.2713947015670686 0.19 0  0.2639263993299336 0.19 0  0.2564580970927985 0.19 0  0.2607803159922026 0.2000727136295815 0  0.5887803774232762 0.2001272386983733 0  0.5745072403740523 0.2002044435018727 0  0.5511891430099709 0.2001122610077113 0  0.2751288526855082 0.20000000000002 0  0.5365194309847112 0.1999999999999436 0  0.2894621222999649 0.1998691686390484 0  0.5215828265105155 0.1999999999999228 0  0.3127789816668748 0.1998657885438805 0  0.3274069683451451 0.2000000000000796 0  0.5066462220363641 0.199999999999908 0  0.3650630746574081 0.199866017807523 0  0.476773013087985 0.1999999999998713 0  0.3417402379596385 0.1998691686391011 0  0.3796850840047755 0.200000000000134 0  0.4618364086138087 0.1999999999998546 0  0.4917096175621762 0.1999999999998808 0  0.3946216884789568 0.2000000000001512 0  0.446899804139621 0.1999999999998389 0  0.4089549580935208 0.1998691686391595 0  0.4322718174608562 0.200127451265745 0  0.4201487168029707 0.1999966199048527 0  0.3528922713220932 0.2000185703532356 0  0.5633122436674589 0.1999814296467508 0  0.3006558810093873 0.1999966199048318 0  0.5815926498168407 0.1966545283159175 0  0.2677053789419034 0.1964246479135325 0  0.5290511287476175 0.1970915826863981 0  0.5439877332217911 0.197091582686394 0  0.2825131256993216 0.2035478995978015 0  0.3199386661080599 0.202908417313604 0  0.4842413153250809 0.1970915826863873 0  0.5141145242734466 0.1970915826863843 0  0.3722167817676917 0.2029084173136195 0  0.4693047108508938 0.1970915826863783 0  0.3348752705822316 0.202908417313609 0  0.3871533862418661 0.2029084173136212 0  0.4543681063767183 0.1970915826863795 0  0.4991779197992749 0.1970915826863902 0  0.4020059614928624 0.203547899597858 0  0.4394315019025246 0.1970915826863714 0  0.2550657455369551 0.2034088125358657 0  0.2548908499171161 0.1966940311614271 0  0.5946539510196798 0.2024302972968126 0  0.267698176732111 0.2039977513680092 0  0.4261685417851465 0.196409292431739 0  0.3590076176283495 0.196411355804271 0  0.5571672426447437 0.2036011176410121 0  0.3066757059912147 0.1964092924317024 0  0.594380730180568 0.1966558399668133 0  0.4842413153245942 0.2040749161535287 0  0.4693047108503577 0.2040749161535231 0  0.3871533862424271 0.1959250838464788 0  0.372246743208829 0.1959123236376545 0  0.5141145242731028 0.2040749161535395 0  0.4543681063761134 0.2040749161535186 0  0.4019979587101454 0.1959834479682427 0  0.4394608940728603 0.2040870543693135 0  0.5439623148931173 0.2040856076781014 0  0.5290511287473298 0.2040749161535501 0  0.4991779197988497 0.2040749161535382 0  0.3347912413592433 0.1959225448935183 0  0.3199680582793816 0.1959123018030061 0  0.2825051229162361 0.1959834479681729 0  0.3590471196690275 0.2036304442587945 0  0.5571594006495384 0.1963685282145804 0  0.3067669986803285 0.203627750582736 0  0.4262598344738712 0.2036568242185335 0  0.5814408164431408 0.2041285596160068 0  0.5688286748170428 0.1961819304477386 0  0.4145905603063645 0.2038180695522843 0  0.3473758401724931 0.2038180695522752 0  0.2950977245128307 0.2038180695522663 0  0.5688286748170693 0.203818069552238 0  0.2950977245127906 0.1961819304477774 0  0.3473758401723931 0.1961819304478349 0  0.4145905603061963 0.1961819304479011 0  0.2601812407614425 0.2056861609747042
[...]
<PointData  Vectors="f_40-1"> 
<DataArray  type="Float64"  Name="f_40-1"  NumberOfComponents="3" format="ascii">0.0000000000000000e+00 0.0000000000000000e+00 0.0000000000000000e+00  0.0000000000000000e+00 0.0000000000000000e+00 0.0000000000000000e+00  0.0000000000000000e+00 0.0000000000000000e+00 0.0000000000000000e+00  0.0000000000000000e+00 0.0000000000000000e+00 0.0000000000000000e+00  -4.7459659101251602e-08 1.0019248236644658e-03 0.0000000000000000e+00  -5.3905268626556146e-05 9.9879936470306384e-04 0.0000000000000000e+00  0.0000000000000000e+00 0.0000000000000000e+00 0.0000000000000000e+00  0.0000000000000000e+00 0.0000000000000000e+00 0.0000000000000000e+00  0.0000000000000000e+00 0.0000000000000000e+00 0.0000000000000000e+00  0.0000000000000000e+00 0.0000000000000000e+00 0.0000000000000000e+00  -2.7324571466571639e-05 1.0003652974670918e-03 0.0000000000000000e+00  0.0000000000000000e+00 0.0000000000000000e+00 0.0000000000000000e+00  0.0000000000000000e+00 0.0000000000000000e+00 0.0000000000000000e+00  0.0000000000000000e+00 0.0000000000000000e+00 0.0000000000000000e+00  0.0000000000000000e+00 0.0000000000000000e+00 0.0000000000000000e+00  0.0000000000000000e+00 0.0000000000000000e+00 0.0000000000000000e+00  0.0000000000000000e+00 0.0000000000000000e+00 0.0000000000000000e+00  0.0000000000000000e+00 0.0000000000000000e+00 0.0000000000000000e+00  0.0000000000000000e+00 0.0000000000000000e+00 0.0000000000000000e+00  0.0000000000000000e+00 0.0000000000000000e+00 0.0000000000000000e+00  0.0000000000000000e+00 0.0000000000000000e+00 0.0000000000000000e+00  0.0000000000000000e+00 0.0000000000000000e+00 0.0000000000000000e+00  0.0000000000000000e+00 0.0000000000000000e+00 0.0000000000000000e+00  0.0000000000000000e+00 0.0000000000000000e+00 0.0000000000000000e+00  0.0000000000000000e+00 0.0000000000000000e+00 0.0000000000000000e+00  0.0000000000000000e+00 0.0000000000000000e+00 0.0000000000000000e+00  0.0000000000000000e+00 0.0000000000000000e+00 0.0000000000000000e+00  0.0000000000000000e+00 0.0000000000000000e+00 0.0000000000000000e+00  0.0000000000000000e+00 0.0000000000000000e+00 0.0000000000000000e+00  0.0000000000000000e+00 0.0000000000000000e+00 0.0000000000000000e+00  0.0000000000000000e+00 0.0000000000000000e+00 0.0000000000000000e+00  0.0000000000000000e+00 0.0000000000000000e+00 0.0000000000000000e+00  0.0000000000000000e+00 0.0000000000000000e+00 0.0000000000000000e+00  0.0000000000000000e+00 0.0000000000000000e+00 0.0000000000000000e+00  0.0000000000000000e+00 0.0000000000000000e+00 0.0000000000000000e+00  0.0000000000000000e+00 0.0000000000000000e+00 0.0000000000000000e+00  0.0000000000000000e+00 0.0000000000000000e+00 0.0000000000000000e+00  0.0000000000000000e+00 0.0000000000000000e+00 0.0000000000000000e+00  0.0000000000000000e+00 0.0000000000000000e+00 0.0000000000000000e+00  0.0000000000000000e+00 0.0000000000000000e+00 0.0000000000000000e+00  0.0000000000000000e+00 0.0000000000000000e+00 0.0000000000000000e+00  0.0000000000000000e+00 0.0000000000000000e+00 0.0000000000000000e+00  0.0000000000000000e+00 0.0000000000000000e+00 0.0000000000000000e+00  0.0000000000000000e+00 0.0000000000000000e+00 0.0000000000000000e+00  0.0000000000000000e+00 0.0000000000000000e+00 0.0000000000000000e+00  0.0000000000000000e+00 0.0000000000000000e+00 0.0000000000000000e+00  0.0000000000000000e+00 0.0000000000000000e+00 0.0000000000000000e+00  0.0000000000000000e+00 0.0000000000000000e+00 0.0000000000000000e+00  0.0000000000000000e+00 0.0000000000000000e+00 0.0000000000000000e+00  0.0000000000000000e+00 0.0000000000000000e+00 0.0000000000000000e+00  0.0000000000000000e+00 0.0000000000000000e+00 0.0000000000000000e+00  0.0000000000000000e+00 0.0000000000000000e+00 0.0000000000000000e+00  0.0000000000000000e+00 0.0000000000000000e+00 0.0000000000000000e+00  0.0000000000000000e+00 0.0000000000000000e+00 0.0000000000000000e+00  0.0000000000000000e+00 0.0000000000000000e+00 0.0000000000000000e+00  0.0000000000000000e+00 0.0000000000000000e+00 0.0000000000000000e+00  0.0000000000000000e+00 0.0000000000000000e+00 0.0000000000000000e+00  0.0000000000000000e+00 0.0000000000000000e+00 0.0000000000000000e+00  0.0000000000000000e+00 0.0000000000000000e+00 0.0000000000000000e+00  0.0000000000000000e+00 0.0000000000000000e+00 0.0000000000000000e+00  0.0000000000000000e+00 0.0000000000000000e+00 0.0000000000000000e+00  0.0000000000000000e+00 0.0000000000000000e+00 0.0000000000000000e+00  0.0000000000000000e+00 0.0000000000000000e+00 0.0000000000000000e+00  0.0000000000000000e+00 0.0000000000000000e+00 0.0000000000000000e+00  0.0000000000000000e+00 0.0000000000000000e+00 0.0000000000000000e+00  0.0000000000000000e+00 0.0000000000000000e+00 0.0000000000000000e+00  0.0000000000000000e+00 0.0000000000000000e+00 0.0000000000000000e+00  0.0000000000000000e+00 0.0000000000000000e+00 0.0000000000000000e+00  0.0000000000000000e+00 0.0000000000000000e+00 0.0000000000000000e+00  0.0000000000000000e+00 0.0000000000000000e+00 0.0000000000000000e+00  0.0000000000000000e+00 0.0000000000000000e+00 0.0000000000000000e+00  0.0000000000000000e+00 0.0000000000000000e+00 0.0000000000000000e+00  0.0000000000000000e+00 0.0000000000000000e+00 0.0000000000000000e+00  0.0000000000000000e+00 0.0000000000000000e+00 0.0000000000000000e+00  0.0000000000000000e+00 0.0000000000000000e+00 0.0000000000000000e+00  0.0000000000000000e+00 0.0000000000000000e+00 0.0000000000000000e+00  0.0000000000000000e+00 0.0000000000000000e+00 0.0000000000000000e+00  0.0000000000000000e+00 0.0000000000000000e+00 0.0000000000000000e+00  0.0000000000000000e+00 0.0000000000000000e+00 0.0000000000000000e+00  0.0000000000000000e+00 0.0000000000000000e+00 0.0000000000000000e+00  0.0000000000000000e+00 0.0000000000000000e+00 0.0000000000000000e+00  0.0000000000000000e+00 0.0000000000000000e+00 0.0000000000000000e+00  0.0000000000000000e+00 0.0000000000000000e+00 0.0000000000000000e+00  0.0000000000000000e+00 0.0000000000000000e+00 0.0000000000000000e+00  0.0000000000000000e+00 0.0000000000000000e+00 0.0000000000000000e+00  0.0000000000000000e+00 0.0000000000000000e+00 0.0000000000000000e+00  0.0000000000000000e+00 0.0000000000000000e+00 0.0000000000000000e+00  0.0000000000000000e+00 0.0000000000000000e+00 0.0000000000000000e+00  0.0000000000000000e+00 0.0000000000000000e+00 0.0000000000000000e+00  0.0000000000000000e+00 0.0000000000000000e+00 0.0000000000000000e+00  0.0000000000000000e+00 0.0000000000000000e+00 0.0000000000000000e+00  0.0000000000000000e+00 0.0000000000000000e+00 0.0000000000000000e+00  0.0000000000000000e+00 0.0000000000000000e+00 0.0000000000000000e+00  0.0000000000000000e+00 0.0000000000000000e+00 0.0000000000000000e+00  0.0000000000000000e+00 0.0000000000000000e+00 0.0000000000000000e+00  0.0000000000000000e+00 0.0000000000000000e+00 0.0000000000000000e+00  0.0000000000000000e+00 0.0000000000000000e+00 0.0000000000000000e+00  0.0000000000000000e+00 0.0000000000000000e+00 0.0000000000000000e+00  0.0000000000000000e+00 0.0000000000000000e+00 0.0000000000000000e+00  0.0000000000000000e+00 0.0000000000000000e+00 0.0000000000000000e+00  0.0000000000000000e+00 0.0000000000000000e+00 0.0000000000000000e+00  0.0000000000000000e+00 0.0000000000000000e+00 0.0000000000000000e+00  0.0000000000000000e+00 0.0000000000000000e+00 0.0000000000000000e+00  0.0000000000000000e+00 0.0000000000000000e+00 0.0000000000000000e+00  0.0000000000000000e+00 0.0000000000000000e+00 0.0000000000000000e+00  0.0000000000000000e+00 0.0000000000000000e+00 0.0000000000000000e+00  0.0000000000000000e+00 0.0000000000000000e+00 0.0000000000000000e+00  0.0000000000000000e+00 0.0000000000000000e+00 0.0000000000000000e+00  0.0000000000000000e+00 0.0000000000000000e+00 0.0000000000000000e+00  0.0000000000000000e+00 0.0000000000000000e+00 0.0000000000000000e+00  0.0000000000000000e+00 0.0000000000000000e+00 0.0000000000000000e+00  0.0000000000000000e+00 0.0000000000000000e+00 0.0000000000000000e+00  0.0000000000000000e+00 0.0000000000000000e+00 0.0000000000000000e+00  0.0000000000000000e+00 0.0000000000000000e+00 0.0000000000000000e+00  0.0000000000000000e+00 0.0000000000000000e+00 0.0000000000000000e+00  0.0000000000000000e+00 0.0000000000000000e+00 0.0000000000000000e+00  0.0000000000000000e+00 0.0000000000000000e+00 0.0000000000000000e+00  0.0000000000000000e+00 0.0000000000000000e+00 0.0000000000000000e+00  0.0000000000000000e+00 0.0000000000000000e+00 0.0000000000000000e+00  0.0000000000000000e+00 0.0000000000000000e+00 0.0000000000000000e+00  0.0000000000000000e+00 0.0000000000000000e+00 0.0000000000000000e+00  0.0000000000000000e+00 0.0000000000000000e+00 0.0000000000000000e+00  0.0000000000000000e+00 0.0000000000000000e+00 0.0000000000000000e+00  0.0000000000000000e+00 0.0000000000000000e+00 0.0000000000000000e+00  0.0000000000000000e+00 0.0000000000000000e+00 0.0000000000000000e+00  0.0000000000000000e+00 0.0000000000000000e+00 0.0000000000000000e+00  0.0000000000000000e+00 0.0000000000000000e+00 0.0000000000000000e+00  0.0000000000000000e+00 0.0000000000000000e+00 0.0000000000000000e+00  0.0000000000000000e+00 0.0000000000000000e+00 0.0000000000000000e+00  0.0000000000000000e+00 0.0000000000000000e+00 0.0000000000000000e+00  0.0000000000000000e+00 0.0000000000000000e+00 0.0000000000000000e+00  0.0000000000000000e+00 0.0000000000000000e+00 0.0000000000000000e+00  0.0000000000000000e+00 0.0000000000000000e+00 0.0000000000000000e+00  0.0000000000000000e+00 0.0000000000000000e+00 0.0000000000000000e+00  0.0000000000000000e+00 0.0000000000000000e+00 0.0000000000000000e+00  0.0000000000000000e+00 0.0000000000000000e+00 0.0000000000000000e+00  0.0000000000000000e+00 0.0000000000000000e+00 0.0000000000000000e+00  0.0000000000000000e+00 0.0000000000000000e+00 0.0000000000000000e+00  0.0000000000000000e+00 0.0000000000000000e+00 0.0000000000000000e+00  0.0000000000000000e+00 0.0000000000000000e+00 0.0000000000000000e+00  0.0000000000000000e+00 0.0000000000000000e+00 0.0000000000000000e+00  0.0000000000000000e+00 0.0000000000000000e+00 0.0000000000000000e+00  0.0000000000000000e+00 0.0000000000000000e+00 0.0000000000000000e+00  -5.1837984055487878e-06 2.7681716427524654e-06 0.0000000000000000e+00  -1.0684426903146898e-05 8.1867121728217740e-06 0.0000000000000000e+00  -1.5301354211454680e-05 1.6656413245849254e-05 0.0000000000000000e+00  -1.9933149498148663e-05 2.8300287522553780e-05 0.0000000000000000e+00  -2.3652850548733566e-05 4.2226572426611847e-05 0.0000000000000000e+00  -2.7508072198480394e-05 5.8605072149266107e-05 0.0000000000000000e+00  -3.0525403528290593e-05 7.6617610493918834e-05 0.0000000000000000e+00  -3.3245274725695824e-05 9.6637385429835132e-05 0.0000000000000000e+00  -3.6061732866537048e-05 1.1803888735445789e-04 0.0000000000000000e+00  -3.8125724699513444e-05 1.4069363205656480e-04 0.0000000000000000e+00  -4.0293334901296062e-05 1.6450994944166008e-04 0.0000000000000000e+00  -4.1867998920737473e-05 1.8915200421951443e-04 0.0000000000000000e+00  -4.3406031995662702e-05 2.1452959609106662e-04 0.0000000000000000e+00  -4.4579556123700606e-05 2.4036407598698839e-04 0.0000000000000000e+00  -4.5559184708020433e-05 2.6663969182645798e-04 0.0000000000000000e+00  -4.6431560900345724e-05 2.9314720067826497e-04 0.0000000000000000e+00  -4.7066451581425485e-05 3.1975329308141541e-04 0.0000000000000000e+00  -4.7563217722218162e-05 3.4641429595233010e-04 0.0000000000000000e+00  -4.7942169302012367e-05 3.7294773053344075e-04 0.0000000000000000e+00  -4.8164342657508062e-05 3.9935984439216704e-04 0.0000000000000000e+00  -4.8339054368127566e-05 4.2549738796083972e-04 0.0000000000000000e+00  -4.8358032770423216e-05 4.5134822164764735e-04 0.0000000000000000e+00  -4.8408548137960112e-05 4.7691112919373031e-04 0.0000000000000000e+00  -4.8400526638160453e-05 5.0205602102673978e-04 0.0000000000000000e+00  -4.8279966163502199e-05 5.2688365782249745e-04 0.0000000000000000e+00  -4.8201289249334487e-05 5.5127197135658066e-04 0.0000000000000000e+00  -4.8075845547887203e-05 5.7527229169628783e-04 0.0000000000000000e+00  -4.7990397640120680e-05 5.9887459639514247e-04 0.0000000000000000e+00  -4.7878386156913267e-05 6.2208000411564262e-04 0.0000000000000000e+00  -4.7823939478039484e-05 6.4492032180342006e-04 0.0000000000000000e+00  -4.7761349391572226e-05 6.6738465179565416e-04 0.0000000000000000e+00  -4.7767198509061611e-05 6.8952756306401230e-04 0.0000000000000000e+00  -4.7782760803297685e-05 7.1133272574386850e-04 0.0000000000000000e+00  -4.7870724461510653e-05 7.3287049860410380e-04 0.0000000000000000e+00  -4.7983263037880876e-05 7.5412039165173518e-04 0.0000000000000000e+00  -4.8173812812053931e-05 7.7516666957571452e-04 0.0000000000000000e+00  -4.8400197415448650e-05 7.9598040655401165e-04 0.0000000000000000e+00  -4.8703823725066561e-05 8.1665276314281225e-04 0.0000000000000000e+00  -4.9051518447206161e-05 8.3714865772844887e-04 0.0000000000000000e+00  -4.9476256746845279e-05 8.5756389163284177e-04 0.0000000000000000e+00  -4.9954804554823375e-05 8.7785789089130767e-04 0.0000000000000000e+00  -5.0501920901210211e-05 8.9811159056422051e-04 0.0000000000000000e+00  -5.1111697283956336e-05 9.1830883916616327e-04 0.0000000000000000e+00  -5.1754280532228421e-05 9.3848777114655861e-04 0.0000000000000000e+00  -5.2472160314442672e-05 9.5867345457930947e-04 0.0000000000000000e+00  -5.3213166177163420e-05 9.7881840549772633e-04 0.0000000000000000e+00  -4.0733432859881705e-05 9.9958386051414026e-04 0.0000000000000000e+00  -1.3795653072328256e-05 1.0011407620975747e-03 0.0000000000000000e+00  6.5945394037026244e-07 9.8168918893839531e-04 0.0000000000000000e+00  1.4334058469806517e-06 9.6162014585579158e-04 0.0000000000000000e+00  2.1957491689055850e-06 9.4156769401418871e-04 0.0000000000000000e+00  2.9322822563273709e-06 9.2147372106934043e-04 0.0000000000000000e+00  3.6532744889281656e-06 9.0135184353804367e-04 0.0000000000000000e+00  4.3584153628188870e-06 8.8117010136223872e-04 0.0000000000000000e+00  5.0821705974634178e-06 8.6091822815576925e-04 0.0000000000000000e+00  5.7757799836379426e-06 8.4057881474488129e-04 0.0000000000000000e+00  6.5169737177343851e-06 8.2010457527724901e-04 0.0000000000000000e+00  7.2202530815293597e-06 7.9949024015640521e-04 0.0000000000000000e+00  7.9991991771070932e-06 7.7868989795072338e-04 0.0000000000000000e+00  8.7299303948070758e-06 7.5768701738759326e-04 0.0000000000000000e+00  9.5626489434865035e-06 7.3644279742020931e-04 0.0000000000000000e+00  1.0330561486132440e-05 7.1493426818193702e-04 0.0000000000000000e+00  1.1220250801337325e-05 6.9312835038312919e-04 0.0000000000000000e+00  1.2026520410237857e-05 6.7100258712033550e-04 0.0000000000000000e+00  1.2968977174796524e-05 6.4853091734327927e-04 0.0000000000000000e+00  1.3810530193695296e-05 6.2569412306541256e-04 0.0000000000000000e+00  1.4796230224364077e-05 6.0247544974794559e-04 0.0000000000000000e+00  1.5663908277041078e-05 5.7886371344285144e-04 0.0000000000000000e+00  1.6674483031202462e-05 5.5484553229004677e-04 0.0000000000000000e+00  1.7554095091046963e-05 5.3042182243780861e-04 0.0000000000000000e+00  1.8545188211743689e-05 5.0559140026789609e-04 0.0000000000000000e+00  1.9423842118588960e-05 4.8040763405088013e-04 0.0000000000000000e+00  2.0276571602409160e-05 4.5480735487256471e-04 0.0000000000000000e+00  2.1167022551831817e-05 4.2892807935878026e-04 0.0000000000000000e+00  2.1946865019450156e-05 4.0273744771009520e-04 0.0000000000000000e+00  2.2682980431093822e-05 3.7629523725824632e-04 0.0000000000000000e+00  2.3315505955071967e-05 3.4971148156052757e-04 0.0000000000000000e+00  2.3848753327885843e-05 3.2300361057530113e-04 0.0000000000000000e+00  2.4268317728703413e-05 2.9633463526473625e-04 0.0000000000000000e+00  2.4489692068343716e-05 2.6978894642446080e-04 0.0000000000000000e+00  2.4636258316397165e-05 2.4345246842674337e-04 0.0000000000000000e+00  2.4630794587862372e-05 2.1757344486415342e-04 0.0000000000000000e+00  2.4331175822880911e-05 1.9208667222229544e-04 0.0000000000000000e+00  2.3900836351180360e-05 1.6740861397342209e-04 0.0000000000000000e+00  2.3150651434563248e-05 1.4351736805843504e-04 0.0000000000000000e+00  2.2270243007557479e-05 1.2073956116071432e-04 0.0000000000000000e+00  2.0826069653344795e-05 9.9349320650330683e-05 0.0000000000000000e+00  1.9489566349371523e-05 7.9237428702417926e-05 0.0000000000000000e+00  1.7905860380446527e-05 6.1161439570305115e-05 0.0000000000000000e+00  1.5562827175825087e-05 4.4650409818821851e-05 0.0000000000000000e+00  1.3240356509696685e-05 3.0625040819818851e-05 0.0000000000000000e+00  1.0128851980858052e-05 1.9098277779560485e-05 0.0000000000000000e+00  7.2253105297472114e-06 1.0469411857001251e-05 0.0000000000000000e+00  3.4690716899181080e-06 4.8088522061053195e-06 0.0000000000000000e+00  -1.5874436418097763e-06 4.2900547436510046e-06 0.0000000000000000e+00  -2.6382939448336163e-05 9.7014553677783231e-04 0.0000000000000000e+00  -2.5105119650018505e-05 9.3169665865281250e-04 0.0000000000000000e+00  -2.2833227741166335e-05 8.6870321034986282e-04 0.0000000000000000e+00  -2.9222429498795429e-06 2.1549931742630665e-05 0.0000000000000000e+00  -2.1419220904851821e-05 8.2872682563022457e-04 0.0000000000000000e+00  -4.1004684053063816e-06 4.8608395239211659e-05 0.0000000000000000e+00  -2.0387214820502539e-05 7.8748010886646740e-04 0.0000000000000000e+00  -6.1800075023992350e-06 1.0848347242432592e-04 0.0000000000000000e+00  -7.8432783525503319e-06 1.5325903135307486e-04 0.0000000000000000e+00  -1.9433700130709662e-05 7.4547306755502328e-04 0.0000000000000000e+00  -1.0362985965155449e-05 2.8245470249450367e-04 0.0000000000000000e+00  -1.7680708372815629e-05 6.5822810668973242e-04 0.0000000000000000e+00  -8.6009554273935447e-06 2.0077572082743866e-04 0.0000000000000000e+00  -1.1874489132883460e-05 3.3472780731786864e-04 0.0000000000000000e+00  -1.6843897211175971e-05 6.1257405338043186e-04 0.0000000000000000e+00  -1.8537783237787879e-05 7.0246455982338901e-04 0.0000000000000000e+00  -1.2877144977370956e-05 3.8796979393578273e-04 0.0000000000000000e+00  -1.6010901601235308e-05 5.6536423266630869e-04 0.0000000000000000e+00  -1.3336685319684034e-05 4.3830788337702054e-04 0.0000000000000000e+00  -1.5600611351900317e-05 5.1753808524462451e-04 0.0000000000000000e+00  -1.4454661565722564e-05 4.7673661974587594e-04 0.0000000000000000e+00  -9.9799146488429949e-06 2.3941136644042282e-04 0.0000000000000000e+00  -2.3504946473865645e-05 9.0152756288149267e-04 0.0000000000000000e+00  -5.4195586676008410e-06 7.5504434156010378e-05 0.0000000000000000e+00  -1.6238629823255655e-05 9.5130403449105285e-04 0.0000000000000000e+00  1.6894862420812776e-06 1.2061943300659130e-05 0.0000000000000000e+00  -1.2827051604225129e-05 8.0867462379421409e-04 0.0000000000000000e+00  -1.4011207526943714e-05 8.4962157305341142e-04 0.0000000000000000e+00  -1.0002594197141230e-05 3.4244284352809378e-05 0.0000000000000000e+00  -1.5888310754925855e-05 1.2953170465381404e-04 0.0000000000000000e+00  -9.4644107711265177e-06 6.8100849576658879e-04 0.0000000000000000e+00  -1.1688130270651670e-05 7.6708204772386141e-04 0.0000000000000000e+00  -2.1635067408151535e-05 3.0753219295347856e-04 0.0000000000000000e+00  -8.3512256058197367e-06 6.3608102161889020e-04 0.0000000000000000e+00  -1.7915554282769541e-05 1.7730197411487648e-04 0.0000000000000000e+00  -2.2660470925892588e-05 3.6092789887518640e-04 0.0000000000000000e+00  -7.2250306440609890e-06 5.8965930250025062e-04 0.0000000000000000e+00  -1.0572747850754481e-05 7.2460582047754270e-04 0.0000000000000000e+00  -2.5733956167835432e-05 4.1339113338312306e-04 0.0000000000000000e+00  -6.0893803858367339e-06 5.4163700897815273e-04 0.0000000000000000e+00  -1.6082427623461146e-06 8.3655919602509469e-07 0.0000000000000000e+00  -1.8210125739080597e-07 1.2097140796514549e-06 0.0000000000000000e+00  -3.3251766831531363e-05 9.8562491319692351e-04 0.0000000000000000e+00  -6.5086152034279422e-06 1.1143149979079421e-05 0.0000000000000000e+00  -2.7723211143013373e-06 4.9774483092748041e-04 0.0000