<?xml version="1.0"?>
<VTKFile type="UnstructuredGrid"  version="0.1"  >
<UnstructuredGrid>
<Piece  NumberOfPoints="1419" NumberOfCells="2698">
<Points>
<DataArray  type="Float64"  NumberOfComponents="3"  format="ascii">0 0 0  0 0.41 0  2.5 0 0  2.5 0.41 0  0.6 0.19 0  0.6 0.21 0  0.25 0.2 0  0.15 0.2 0  0.2489897948556636 0.21 0  0.2489897948556636 0.19 0  0.6 0.2 0  0 0.3807142857143437 0  0 0.3514285714286952 0  0 0.3221428571430699 0  0 0.29285714285744 0  0 0.2635714285718054 0  0 0.2342857142861561 0  0 0.2050000000005308 0  0 0.175714285714732 0  0 0.1464285714289574 0  0 0.1171428571431897 0  0 0.08785714285737878 0  0 0.05857142857161107 0  0 0.02928571428580012 0  0.03015443760436003 0 0  0.06140001986583606 0 0  0.09377624077125973 0 0  0.1273239957535082 0 0  0.1620856860351972 0 0  0.1981052433264291 0 0  0.235428184091502 0 0  0.2741016576309132 0 0  0.3141745521465447 0 0  0.3556974926295285 0 0  0.3987229542472677 0 0  0.4433053055141081 0 0  0.4895008759286886 0 0  0.5373680609405097 0 0  0.5869673343216626 0 0  0.6383613676634521 0 0  0.6916151138468254 0 0  0.7467958595648856 0 0  0.8039733463919316 0 0  0.8632198139502143 0 0  0.9246101326867038 0 0  0.9882218810934433 0 0  1.054135445558498 0 0  1.122434100542598 0 0  1.193204177141305 0 0  1.266535089879536 0 0  1.342519516046404 0 0  1.421253448503939 0 0  1.502836389106271 0 0  1.587371439758838 0 0  1.674965418777374 0 0  1.765729001825544 0 0  1.859776908880082 0 0  1.957227977487062 0 0  2.058205329869943 0 0  2.162836591189951 0 0  2.271253957290865 0 0  2.383594446803425 0 0  2.5 0.1024999999997612 0  2.5 0.2049999999994743 0  2.5 0.3074999999997183 0  2.383594446803656 0.41 0  2.271253957291315 0.41 0  2.162836591190598 0.41 0  2.058205329870775 0.41 0  1.957227977488067 0.41 0  1.859776908881246 0.41 0  1.765729001826854 0.41 0  1.674965418778818 0.41 0  1.58737143976041 0.41 0  1.502836389107956 0.41 0  1.421253448505726 0.41 0  1.342519516048286 0.41 0  1.266535089881505 0.41 0  1.193204177143353 0.41 0  1.122434100544716 0.41 0  1.05413544556068 0.41 0  0.9882218810956305 0.41 0  0.9246101326886647 0.41 0  0.8632198139519631 0.41 0  0.8039733463934788 0.41 0  0.7467958595662458 0.41 0  0.6916151138480078 0.41 0  0.6383613676644679 0.41 0  0.5869673343225223 0.41 0  0.5373680609412221 0.41 0  0.4895008759292634 0.41 0  0.4433053055145528 0.41 0  0.3987229542475914 0.41 0  0.3556974926297398 0.41 0  0.3141745521466497 0.41 0  0.2741016576310038 0.41 0  0.2354281840915826 0.41 0  0.1981052433265003 0.41 0  0.1620856860352591 0.41 0  0.1273239957535623 0.41 0  0.09377624077128965 0.41 0  0.06140001986584975 0.41 0  0.03015443760436654 0.41 0  0.2497468076502589 0.2050254481002335 0  0.2497468076502614 0.1949745518997913 0  0.2469965252529372 0.1829317073451959 0  0.2439893735792749 0.1762316384219906 0  0.2400332147834255 0.1700443375285386 0  0.2352133972704371 0.1645032867342007 0  0.2296339016332438 0.1597280261969788 0  0.2234150974217223 0.1558215752574715 0  0.2166911463437691 0.1528682099456123 0  0.2096071079204251 0.1509316448471593 0  0.2023158100364996 0.1500536585536553 0  0.194974551899914 0.1502531923497262 0  0.1877417105387872 0.1515259415822739 0  0.1807733240461124 0.153844448527136 0  0.1742197252835808 0.15715869474974 0  0.1682222986673531 0.1613971801805478 0  0.162910430003803 0.1664684656256651 0  0.1583987151779087 0.1722631454351573 0  0.1547844879126891 0.178656207771761 0  0.1521457199348551 0.1855097315605723 0  0.1505393388476355 0.1926758619366523 0  0.1505393388476328 0.2073241380633295 0  0.1521457199348437 0.2144902684393899 0  0.1547844879126531 0.221343792228163 0  0.1583987151778488 0.2277368545647528 0  0.1629104300036858 0.2335315343742052 0  0.1682222986671726 0.2386028198193036 0  0.1742197252833576 0.2428413052501257 0  0.1807733240458683 0.2461555514727623 0  0.1877417105384929 0.2484740584176516 0  0.1949745518995776 0.2497468076502398 0  0.202315810036185 0.2499463414463592 0  0.2096071079201568 0.2490683551528932 0  0.2166911463435495 0.2471317900544655 0  0.2234150974215506 0.2441784247426195 0  0.2296339016331197 0.2402719738031125 0  0.2352133972703547 0.2354967132658811 0  0.2400332147833751 0.2299556624715287 0  0.2439893735792577 0.2237683615780412 0  0.246996525252926 0.2170682926548348 0  0.25645809709277 0.21 0  0.2639263993298655 0.21 0  0.271394701566961 0.21 0  0.2788630038040554 0.21 0  0.2863313060411479 0.21 0  0.2937996082782405 0.21 0  0.301267910515333 0.21 0  0.3087362127524279 0.21 0  0.3162045149895234 0.21 0  0.3236728172265972 0.21 0  0.3311411194636928 0.21 0  0.3386094217007701 0.21 0  0.3460777239378666 0.21 0  0.3535460261749672 0.21 0  0.3610143284120516 0.21 0  0.3684826306491596 0.21 0  0.3759509328862226 0.21 0  0.383419235123329 0.21 0  0.3908875373604028 0.21 0  0.3983558395975142 0.21 0  0.4058241418345938 0.21 0  0.4132924440716992 0.21 0  0.4207607463087888 0.21 0  0.4282290485459029 0.21 0  0.4356973507830418 0.21 0  0.4431656530201649 0.21 0  0.4506339552573136 0.21 0  0.4581022574944306 0.21 0  0.4655705597315852 0.21 0  0.4730388619686996 0.21 0  0.480507164205851 0.21 0  0.4879754664429498 0.21 0  0.4954437686800938 0.21 0  0.502912070917267 0.21 0  0.5103803731544119 0.21 0  0.5178486753915261 0.21 0  0.5253169776286404 0.21 0  0.5327852798657868 0.21 0  0.5402535821029386 0.21 0  0.54772188434007 0.21 0  0.5551901865771842 0.21 0  0.5626584888143201 0.21 0  0.5701267910514778 0.21 0  0.5775950932886138 0.21 0  0.5850633955257281 0.21 0  0.5925316977628483 0.21 0  0.6 0.2050000000000054 0  0.6 0.1950000000000217 0  0.5925316977628897 0.19 0  0.5850633955257988 0.19 0  0.5775950932887378 0.19 0  0.5701267910515998 0.19 0  0.5626584888145268 0.19 0  0.5551901865773963 0.19 0  0.547721884340339 0.19 0  0.5402535821032429 0.19 0  0.5327852798661811 0.19 0  0.5253169776290537 0.19 0  0.5178486753919799 0.19 0  0.5103803731549078 0.19 0  0.502912070917822 0.19 0  0.4954437686807294 0.19 0  0.4879754664436223 0.19 0  0.4805071642065402 0.19 0  0.4730388619694271 0.19 0  0.4655705597323621 0.19 0  0.4581022574952563 0.19 0  0.4506339552581777 0.19 0  0.4431656530210671 0.19 0  0.4356973507839815 0.19 0  0.4282290485468779 0.19 0  0.4207607463097617 0.19 0  0.4132924440726327 0.19 0  0.4058241418354857 0.19 0  0.3983558395983636 0.19 0  0.3908875373612097 0.19 0  0.3834192351240934 0.19 0  0.3759509328869369 0.19 0  0.3684826306498175 0.19 0  0.361014328412667 0.19 0  0.3535460261755617 0.19 0  0.3460777239384295 0.19 0  0.3386094217012945 0.19 0  0.3311411194641595 0.19 0  0.3236728172270245 0.19 0  0.3162045149898895 0.19 0  0.3087362127527544 0.19 0  0.3012679105156187 0.19 0  0.2937996082784807 0.19 0  0.2863313060413428 0.19 0  0.2788630038042048 0.19 0  0.2713947015670686 0.19 0  0.2639263993299336 0.19 0  0.2564580970927985 0.19 0  0.2607803159922026 0.2000727136295815 0  0.5887803774232762 0.2001272386983733 0  0.5745072403740523 0.2002044435018727 0  0.5511891430099709 0.2001122610077113 0  0.2751288526855082 0.20000000000002 0  0.5365194309847112 0.1999999999999436 0  0.2894621222999649 0.1998691686390484 0  0.5215828265105155 0.1999999999999228 0  0.3127789816668748 0.1998657885438805 0  0.3274069683451451 0.2000000000000796 0  0.5066462220363641 0.199999999999908 0  0.3650630746574081 0.199866017807523 0  0.476773013087985 0.1999999999998713 0  0.3417402379596385 0.1998691686391011 0  0.3796850840047755 0.200000000000134 0  0.4618364086138087 0.1999999999998546 0  0.4917096175621762 0.1999999999998808 0  0.3946216884789568 0.2000000000001512 0  0.446899804139621 0.1999999999998389 0  0.4089549580935208 0.1998691686391595 0  0.4322718174608562 0.200127451265745 0  0.4201487168029707 0.1999966199048527 0  0.3528922713220932 0.2000185703532356 0  0.5633122436674589 0.1999814296467508 0  0.3006558810093873 0.1999966199048318 0  0.5815926498168407 0.1966545283159175 0  0.2677053789419034 0.1964246479135325 0  0.5290511287476175 0.1970915826863981 0  0.5439877332217911 0.197091582686394 0  0.2825131256993216 0.2035478995978015 0  0.3199386661080599 0.202908417313604 0  0.4842413153250809 0.1970915826863873 0  0.5141145242734466 0.1970915826863843 0  0.3722167817676917 0.2029084173136195 0  0.4693047108508938 0.1970915826863783 0  0.3348752705822316 0.202908417313609 0  0.3871533862418661 0.2029084173136212 0  0.4543681063767183 0.1970915826863795 0  0.4991779197992749 0.1970915826863902 0  0.4020059614928624 0.203547899597858 0  0.4394315019025246 0.1970915826863714 0  0.2550657455369551 0.2034088125358657 0  0.2548908499171161 0.1966940311614271 0  0.5946539510196798 0.2024302972968126 0  0.267698176732111 0.2039977513680092 0  0.4261685417851465 0.196409292431739 0  0.3590076176283495 0.196411355804271 0  0.5571672426447437 0.2036011176410121 0  0.3066757059912147 0.1964092924317024 0  0.594380730180568 0.1966558399668133 0  0.4842413153245942 0.2040749161535287 0  0.4693047108503577 0.2040749161535231 0  0.3871533862424271 0.1959250838464788 0  0.372246743208829 0.1959123236376545 0  0.5141145242731028 0.2040749161535395 0  0.4543681063761134 0.2040749161535186 0  0.4019979587101454 0.1959834479682427 0  0.4394608940728603 0.2040870543693135 0  0.5439623148931173 0.2040856076781014 0  0.5290511287473298 0.2040749161535501 0  0.4991779197988497 0.2040749161535382 0  0.3347912413592433 0.1959225448935183 0  0.3199680582793816 0.1959123018030061 0  0.2825051229162361 0.1959834479681729 0  0.3590471196690275 0.2036304442587945 0  0.5571594006495384 0.1963685282145804 0  0.3067669986803285 0.203627750582736 0  0.4262598344738712 0.2036568242185335 0  0.5814408164431408 0.2041285596160068 0  0.5688286748170428 0.1961819304477386 0  0.4145905603063645 0.2038180695522843 0  0.3473758401724931 0.2038180695522752 0  0.2950977245128307 0.2038180695522663 0  0.5688286748170693 0.203818069552238 0  0.2950977245127906 0.1961819304477774 0  0.3473758401723931 0.1961819304478349 0  0.4145905603061963 0.1961819304479011 0  0.2601812407614425 0.2056861609747042
[...]
<PointData  Vectors="f_40-1"> 
<DataArray  type="Float64"  Name="f_40-1"  NumberOfComponents="3" format="ascii">0.0000000000000000e+00 0.0000000000000000e+00 0.0000000000000000e+00  0.0000000000000000e+00 0.0000000000000000e+00 0.0000000000000000e+00  0.0000000000000000e+00 0.0000000000000000e+00 0.0000000000000000e+00  0.0000000000000000e+00 0.0000000000000000e+00 0.0000000000000000e+00  5.9982575995677596e-05 2.1078105030349868e-03 0.0000000000000000e+00  -8.7875790610552173e-05 2.1077114451393307e-03 0.0000000000000000e+00  0.0000000000000000e+00 0.0000000000000000e+00 0.0000000000000000e+00  0.0000000000000000e+00 0.0000000000000000e+00 0.0000000000000000e+00  0.0000000000000000e+00 0.0000000000000000e+00 0.0000000000000000e+00  0.0000000000000000e+00 0.0000000000000000e+00 0.0000000000000000e+00  -1.4018654280347784e-05 2.1077529302837910e-03 0.0000000000000000e+00  0.0000000000000000e+00 0.0000000000000000e+00 0.0000000000000000e+00  0.0000000000000000e+00 0.0000000000000000e+00 0.0000000000000000e+00  0.0000000000000000e+00 0.0000000000000000e+00 0.0000000000000000e+00  0.0000000000000000e+00 0.0000000000000000e+00 0.0000000000000000e+00  0.0000000000000000e+00 0.0000000000000000e+00 0.0000000000000000e+00  0.0000000000000000e+00 0.0000000000000000e+00 0.0000000000000000e+00  0.0000000000000000e+00 0.0000000000000000e+00 0.0000000000000000e+00  0.0000000000000000e+00 0.0000000000000000e+00 0.0000000000000000e+00  0.0000000000000000e+00 0.0000000000000000e+00 0.0000000000000000e+00  0.0000000000000000e+00 0.0000000000000000e+00 0.0000000000000000e+00  0.0000000000000000e+00 0.0000000000000000e+00 0.0000000000000000e+00  0.0000000000000000e+00 0.0000000000000000e+00 0.0000000000000000e+00  0.0000000000000000e+00 0.0000000000000000e+00 0.0000000000000000e+00  0.0000000000000000e+00 0.0000000000000000e+00 0.0000000000000000e+00  0.0000000000000000e+00 0.0000000000000000e+00 0.0000000000000000e+00  0.0000000000000000e+00 0.0000000000000000e+00 0.0000000000000000e+00  0.0000000000000000e+00 0.0000000000000000e+00 0.0000000000000000e+00  0.0000000000000000e+00 0.0000000000000000e+00 0.0000000000000000e+00  0.0000000000000000e+00 0.0000000000000000e+00 0.0000000000000000e+00  0.0000000000000000e+00 0.0000000000000000e+00 0.0000000000000000e+00  0.0000000000000000e+00 0.0000000000000000e+00 0.0000000000000000e+00  0.0000000000000000e+00 0.0000000000000000e+00 0.0000000000000000e+00  0.0000000000000000e+00 0.0000000000000000e+00 0.0000000000000000e+00  0.0000000000000000e+00 0.0000000000000000e+00 0.0000000000000000e+00  0.0000000000000000e+00 0.0000000000000000e+00 0.0000000000000000e+00  0.0000000000000000e+00 0.0000000000000000e+00 0.0000000000000000e+00  0.0000000000000000e+00 0.0000000000000000e+00 0.0000000000000000e+00  0.0000000000000000e+00 0.0000000000000000e+00 0.0000000000000000e+00  0.0000000000000000e+00 0.0000000000000000e+00 0.0000000000000000e+00  0.0000000000000000e+00 0.0000000000000000e+00 0.0000000000000000e+00  0.0000000000000000e+00 0.0000000000000000e+00 0.0000000000000000e+00  0.0000000000000000e+00 0.0000000000000000e+00 0.0000000000000000e+00  0.0000000000000000e+00 0.0000000000000000e+00 0.0000000000000000e+00  0.0000000000000000e+00 0.0000000000000000e+00 0.0000000000000000e+00  0.0000000000000000e+00 0.0000000000000000e+00 0.0000000000000000e+00  0.0000000000000000e+00 0.0000000000000000e+00 0.0000000000000000e+00  0.0000000000000000e+00 0.0000000000000000e+00 0.0000000000000000e+00  0.0000000000000000e+00 0.0000000000000000e+00 0.0000000000000000e+00  0.0000000000000000e+00 0.0000000000000000e+00 0.0000000000000000e+00  0.0000000000000000e+00 0.0000000000000000e+00 0.0000000000000000e+00  0.0000000000000000e+00 0.0000000000000000e+00 0.0000000000000000e+00  0.0000000000000000e+00 0.0000000000000000e+00 0.0000000000000000e+00  0.0000000000000000e+00 0.0000000000000000e+00 0.0000000000000000e+00  0.0000000000000000e+00 0.0000000000000000e+00 0.0000000000000000e+00  0.0000000000000000e+00 0.0000000000000000e+00 0.0000000000000000e+00  0.0000000000000000e+00 0.0000000000000000e+00 0.0000000000000000e+00  0.0000000000000000e+00 0.0000000000000000e+00 0.0000000000000000e+00  0.0000000000000000e+00 0.0000000000000000e+00 0.0000000000000000e+00  0.0000000000000000e+00 0.0000000000000000e+00 0.0000000000000000e+00  0.0000000000000000e+00 0.0000000000000000e+00 0.0000000000000000e+00  0.0000000000000000e+00 0.0000000000000000e+00 0.0000000000000000e+00  0.0000000000000000e+00 0.0000000000000000e+00 0.0000000000000000e+00  0.0000000000000000e+00 0.0000000000000000e+00 0.0000000000000000e+00  0.0000000000000000e+00 0.0000000000000000e+00 0.0000000000000000e+00  0.0000000000000000e+00 0.0000000000000000e+00 0.0000000000000000e+00  0.0000000000000000e+00 0.0000000000000000e+00 0.0000000000000000e+00  0.0000000000000000e+00 0.0000000000000000e+00 0.0000000000000000e+00  0.0000000000000000e+00 0.0000000000000000e+00 0.0000000000000000e+00  0.0000000000000000e+00 0.0000000000000000e+00 0.0000000000000000e+00  0.0000000000000000e+00 0.0000000000000000e+00 0.0000000000000000e+00  0.0000000000000000e+00 0.0000000000000000e+00 0.0000000000000000e+00  0.0000000000000000e+00 0.0000000000000000e+00 0.0000000000000000e+00  0.0000000000000000e+00 0.0000000000000000e+00 0.0000000000000000e+00  0.0000000000000000e+00 0.0000000000000000e+00 0.0000000000000000e+00  0.0000000000000000e+00 0.0000000000000000e+00 0.0000000000000000e+00  0.0000000000000000e+00 0.0000000000000000e+00 0.0000000000000000e+00  0.0000000000000000e+00 0.0000000000000000e+00 0.0000000000000000e+00  0.0000000000000000e+00 0.0000000000000000e+00 0.0000000000000000e+00  0.0000000000000000e+00 0.0000000000000000e+00 0.0000000000000000e+00  0.0000000000000000e+00 0.0000000000000000e+00 0.0000000000000000e+00  0.0000000000000000e+00 0.0000000000000000e+00 0.0000000000000000e+00  0.0000000000000000e+00 0.0000000000000000e+00 0.0000000000000000e+00  0.0000000000000000e+00 0.0000000000000000e+00 0.0000000000000000e+00  0.0000000000000000e+00 0.0000000000000000e+00 0.0000000000000000e+00  0.0000000000000000e+00 0.0000000000000000e+00 0.0000000000000000e+00  0.0000000000000000e+00 0.0000000000000000e+00 0.0000000000000000e+00  0.0000000000000000e+00 0.0000000000000000e+00 0.0000000000000000e+00  0.0000000000000000e+00 0.0000000000000000e+00 0.0000000000000000e+00  0.0000000000000000e+00 0.0000000000000000e+00 0.0000000000000000e+00  0.0000000000000000e+00 0.0000000000000000e+00 0.0000000000000000e+00  0.0000000000000000e+00 0.0000000000000000e+00 0.0000000000000000e+00  0.0000000000000000e+00 0.0000000000000000e+00 0.0000000000000000e+00  0.0000000000000000e+00 0.0000000000000000e+00 0.0000000000000000e+00  0.0000000000000000e+00 0.0000000000000000e+00 0.0000000000000000e+00  0.0000000000000000e+00 0.0000000000000000e+00 0.0000000000000000e+00  0.0000000000000000e+00 0.0000000000000000e+00 0.0000000000000000e+00  0.0000000000000000e+00 0.0000000000000000e+00 0.0000000000000000e+00  0.0000000000000000e+00 0.0000000000000000e+00 0.0000000000000000e+00  0.0000000000000000e+00 0.0000000000000000e+00 0.0000000000000000e+00  0.0000000000000000e+00 0.0000000000000000e+00 0.0000000000000000e+00  0.0000000000000000e+00 0.0000000000000000e+00 0.0000000000000000e+00  0.0000000000000000e+00 0.0000000000000000e+00 0.0000000000000000e+00  0.0000000000000000e+00 0.0000000000000000e+00 0.0000000000000000e+00  0.0000000000000000e+00 0.0000000000000000e+00 0.0000000000000000e+00  0.0000000000000000e+00 0.0000000000000000e+00 0.0000000000000000e+00  0.0000000000000000e+00 0.0000000000000000e+00 0.0000000000000000e+00  0.0000000000000000e+00 0.0000000000000000e+00 0.0000000000000000e+00  0.0000000000000000e+00 0.0000000000000000e+00 0.0000000000000000e+00  0.0000000000000000e+00 0.0000000000000000e+00 0.0000000000000000e+00  0.0000000000000000e+00 0.0000000000000000e+00 0.0000000000000000e+00  0.0000000000000000e+00 0.0000000000000000e+00 0.0000000000000000e+00  0.0000000000000000e+00 0.0000000000000000e+00 0.0000000000000000e+00  0.0000000000000000e+00 0.0000000000000000e+00 0.0000000000000000e+00  0.0000000000000000e+00 0.0000000000000000e+00 0.0000000000000000e+00  0.0000000000000000e+00 0.0000000000000000e+00 0.0000000000000000e+00  0.0000000000000000e+00 0.0000000000000000e+00 0.0000000000000000e+00  0.0000000000000000e+00 0.0000000000000000e+00 0.0000000000000000e+00  0.0000000000000000e+00 0.0000000000000000e+00 0.0000000000000000e+00  0.0000000000000000e+00 0.0000000000000000e+00 0.0000000000000000e+00  0.0000000000000000e+00 0.0000000000000000e+00 0.0000000000000000e+00  0.0000000000000000e+00 0.0000000000000000e+00 0.0000000000000000e+00  0.0000000000000000e+00 0.0000000000000000e+00 0.0000000000000000e+00  0.0000000000000000e+00 0.0000000000000000e+00 0.0000000000000000e+00  0.0000000000000000e+00 0.0000000000000000e+00 0.0000000000000000e+00  0.0000000000000000e+00 0.0000000000000000e+00 0.0000000000000000e+00  0.0000000000000000e+00 0.0000000000000000e+00 0.0000000000000000e+00  0.0000000000000000e+00 0.0000000000000000e+00 0.0000000000000000e+00  0.0000000000000000e+00 0.0000000000000000e+00 0.0000000000000000e+00  0.0000000000000000e+00 0.0000000000000000e+00 0.0000000000000000e+00  0.0000000000000000e+00 0.0000000000000000e+00 0.0000000000000000e+00  0.0000000000000000e+00 0.0000000000000000e+00 0.0000000000000000e+00  0.0000000000000000e+00 0.0000000000000000e+00 0.0000000000000000e+00  0.0000000000000000e+00 0.0000000000000000e+00 0.0000000000000000e+00  0.0000000000000000e+00 0.0000000000000000e+00 0.0000000000000000e+00  0.0000000000000000e+00 0.0000000000000000e+00 0.0000000000000000e+00  0.0000000000000000e+00 0.0000000000000000e+00 0.0000000000000000e+00  0.0000000000000000e+00 0.0000000000000000e+00 0.0000000000000000e+00  0.0000000000000000e+00 0.0000000000000000e+00 0.0000000000000000e+00  0.0000000000000000e+00 0.0000000000000000e+00 0.0000000000000000e+00  0.0000000000000000e+00 0.0000000000000000e+00 0.0000000000000000e+00  0.0000000000000000e+00 0.0000000000000000e+00 0.0000000000000000e+00  0.0000000000000000e+00 0.0000000000000000e+00 0.0000000000000000e+00  -5.8814506121461762e-06 5.8602031624996068e-06 0.0000000000000000e+00  -1.2454881720773982e-05 1.2583434347446783e-05 0.0000000000000000e+00  -1.8246012826321593e-05 2.3306625797812167e-05 0.0000000000000000e+00  -2.4394301109487937e-05 3.8281438576081724e-05 0.0000000000000000e+00  -2.9493963984164852e-05 5.6712033868850258e-05 0.0000000000000000e+00  -3.5096562092994969e-05 7.8918754855036583e-05 0.0000000000000000e+00  -3.9573943731815374e-05 1.0384029137869859e-04 0.0000000000000000e+00  -4.3809627252753753e-05 1.3226881739979827e-04 0.0000000000000000e+00  -4.8514465153678010e-05 1.6329319962996415e-04 0.0000000000000000e+00  -5.2054713591667432e-05 1.9693531584563835e-04 0.0000000000000000e+00  -5.6183352827299922e-05 2.3311994817627323e-04 0.0000000000000000e+00  -5.9240813426309215e-05 2.7151621047582955e-04 0.0000000000000000e+00  -6.2668045450393493e-05 3.1201938595068154e-04 0.0000000000000000e+00  -6.5340422792565492e-05 3.5415551789202607e-04 0.0000000000000000e+00  -6.7813938757442247e-05 3.9823192389250479e-04 0.0000000000000000e+00  -7.0471912725544853e-05 4.4371166372877291e-04 0.0000000000000000e+00  -7.2436204137876493e-05 4.9054522482554371e-04 0.0000000000000000e+00  -7.4620800125295542e-05 5.3867402941386040e-04 0.0000000000000000e+00  -7.6210030705692753e-05 5.8783421948566637e-04 0.0000000000000000e+00  -7.7936164150122660e-05 6.3796552311172461e-04 0.0000000000000000e+00  -7.9257467853324147e-05 6.8891682467852829e-04 0.0000000000000000e+00  -8.0588553637910468e-05 7.4064455874355765e-04 0.0000000000000000e+00  -8.1627420496572752e-05 7.9288987625367115e-04 0.0000000000000000e+00  -8.2545594433640037e-05 8.4576456643679757e-04 0.0000000000000000e+00  -8.3471538610799923e-05 8.9904273090215560e-04 0.0000000000000000e+00  -8.4191844830470481e-05 9.5273964337333863e-04 0.0000000000000000e+00  -8.4848927647758777e-05 1.0068017737903830e-03 0.0000000000000000e+00  -8.5387911760170064e-05 1.0611027479986324e-03 0.0000000000000000e+00  -8.5866581477782802e-05 1.1156720441547602e-03 0.0000000000000000e+00  -8.6254942832341365e-05 1.1703962165494973e-03 0.0000000000000000e+00  -8.6590276644460211e-05 1.2252956374550032e-03 0.0000000000000000e+00  -8.6855874841608330e-05 1.2802780366677603e-03 0.0000000000000000e+00  -8.7078181491975022e-05 1.3353624902522926e-03 0.0000000000000000e+00  -8.7247505310005224e-05 1.3904772699002289e-03 0.0000000000000000e+00  -8.7380617924964757e-05 1.4456440309549819e-03 0.0000000000000000e+00  -8.7481759783120491e-05 1.5008130938617152e-03 0.0000000000000000e+00  -8.7558911401221912e-05 1.5559986720038582e-03 0.0000000000000000e+00  -8.7617719266435174e-05 1.6111746058237568e-03 0.0000000000000000e+00  -8.7661330196675042e-05 1.6663504198137771e-03 0.0000000000000000e+00  -8.7697642822159459e-05 1.7215167453368051e-03 0.0000000000000000e+00  -8.7728080735392599e-05 1.7766772290649228e-03 0.0000000000000000e+00  -8.7758536063035509e-05 1.8318341982116533e-03 0.0000000000000000e+00  -8.7785011579185623e-05 1.8869944214007300e-03 0.0000000000000000e+00  -8.7814113417255957e-05 1.9421589549793771e-03 0.0000000000000000e+00  -8.7844513143042755e-05 1.9973373685772517e-03 0.0000000000000000e+00  -8.7869283777949824e-05 2.0525254160433937e-03 0.0000000000000000e+00  -5.0964075098614937e-05 2.1077316848965434e-03 0.0000000000000000e+00  2.2955459320514074e-05 2.1077765687973270e-03 0.0000000000000000e+00  5.9966290414513403e-05 2.0525658940520586e-03 0.0000000000000000e+00  5.9972921490128358e-05 1.9973603001210475e-03 0.0000000000000000e+00  5.9987265115374248e-05 1.9421704688331657e-03 0.0000000000000000e+00  6.0003449502760244e-05 1.8869863512387883e-03 0.0000000000000000e+00  6.0025313624824775e-05 1.8318044654371333e-03 0.0000000000000000e+00  6.0058676919885711e-05 1.7766210143672690e-03 0.0000000000000000e+00  6.0098336371881554e-05 1.7214317192244582e-03 0.0000000000000000e+00  6.0146290655498736e-05 1.6662360408700896e-03 0.0000000000000000e+00  6.0199255381822010e-05 1.6110293987335825e-03 0.0000000000000000e+00  6.0257334926165370e-05 1.5558134142351027e-03 0.0000000000000000e+00  6.0313170942030581e-05 1.5005924410038509e-03 0.0000000000000000e+00  6.0373912140897088e-05 1.4453745391280618e-03 0.0000000000000000e+00  6.0417931364022005e-05 1.3901697040086111e-03 0.0000000000000000e+00  6.0466232500487430e-05 1.3349977944846156e-03 0.0000000000000000e+00  6.0473429533298424e-05 1.2798725713155526e-03 0.0000000000000000e+00  6.0490126434982355e-05 1.2248288949111017e-03 0.0000000000000000e+00  6.0434881204348570e-05 1.1698855257325984e-03 0.0000000000000000e+00  6.0400816623696797e-05 1.1150914924613631e-03 0.0000000000000000e+00  6.0257486498654278e-05 1.0604725874719780e-03 0.0000000000000000e+00  6.0153245501034932e-05 1.0060908274944409e-03 0.0000000000000000e+00  5.9888937366508293e-05 9.5197693896455562e-04 0.0000000000000000e+00  5.9686561946108845e-05 8.9820878223971739e-04 0.0000000000000000e+00  5.9275570813647377e-05 8.4483445978716953e-04 0.0000000000000000e+00  5.8912957154165084e-05 7.9188480000722461e-04 0.0000000000000000e+00  5.8482192832358452e-05 7.3956610847775855e-04 0.0000000000000000e+00  5.7806445929555809e-05 6.8773719466826318e-04 0.0000000000000000e+00  5.7131399489064163e-05 6.3672297790013982e-04 0.0000000000000000e+00  5.6224363796239148e-05 5.8647284529285675e-04 0.0000000000000000e+00  5.5277288859648853e-05 5.3723560958582198e-04 0.0000000000000000e+00  5.4062356853461093e-05 4.8901896255094913e-04 0.0000000000000000e+00  5.2801175845183858e-05 4.4202833603511376e-04 0.0000000000000000e+00  5.1058752129095324e-05 3.9654830643874155e-04 0.0000000000000000e+00  4.9507232322171977e-05 3.5235068588984310e-04 0.0000000000000000e+00  4.7793551560340764e-05 3.1014808524866576e-04 0.0000000000000000e+00  4.5455638315019437e-05 2.6940960235341429e-04 0.0000000000000000e+00  4.3183747793128665e-05 2.3098498195738267e-04 0.0000000000000000e+00  4.0453293154879610e-05 1.9468613537742302e-04 0.0000000000000000e+00  3.7739977731814178e-05 1.6082796267228824e-04 0.0000000000000000e+00  3.4239584389221214e-05 1.2986096392671634e-04 0.0000000000000000e+00  3.1179588387480415e-05 1.0128452808537274e-04 0.0000000000000000e+00  2.7933127979297029e-05 7.6272823367660406e-05 0.0000000000000000e+00  2.3665817202099791e-05 5.3870060665219963e-05 0.0000000000000000e+00  1.9719118698691855e-05 3.5269544346490989e-05 0.0000000000000000e+00  1.4833848833445080e-05 2.0409395630974437e-05 0.0000000000000000e+00  1.0403024111736613e-05 9.6122701931055251e-06 0.0000000000000000e+00  4.9376868923428828e-06 3.0092417717322451e-06 0.0000000000000000e+00  -5.6814468862101704e-07 4.7850042283830601e-06 0.0000000000000000e+00  -1.4916212313294628e-05 2.0248161708748356e-03 0.0000000000000000e+00  -1.5435824934995572e-05 1.9193486550163976e-03 0.0000000000000000e+00  -1.4662642356443545e-05 1.7470924409562769e-03 0.0000000000000000e+00  -1.9440617820633185e-06 2.6305834248598876e-05 0.0000000000000000e+00  -1.3748575614561513e-05 1.6386991805090469e-03 0.0000000000000000e+00  -2.8350446663364241e-06 6.1886256102441727e-05 0.0000000000000000e+00  -1.3630234595215117e-05 1.5282976024973539e-03 0.0000000000000000e+00  -4.5035602314906555e-06 1.4566859543993106e-04 0.0000000000000000e+00  -6.1378352540566768e-06 2.1212297667441338e-04 0.0000000000000000e+00  -1.3468572925893572e-05 1.4178910784740659e-03 0.0000000000000000e+00  -7.7838823962849497e-06 4.2088115131951655e-04 0.0000000000000000e+00  -1.2983635298249719e-05 1.1974953917233263e-03 0.0000000000000000e+00  -6.4353438323943123e-06 2.8588348644029496e-04 0.0000000000000000e+00  -9.4257758323368430e-06 5.1296401600385219e-04 0.0000000000000000e+00  -1.2649729912083398e-05 1.0879166857360909e-03 0.0000000000000000e+00  -1.3254945862223811e-05 1.3075686846260000e-03 0.0000000000000000e+00  -1.0197353002142624e-05 6.1153369729379805e-04 0.0000000000000000e+00  -1.2243693353084563e-05 9.7915654001689938e-04 0.0000000000000000e+00  -9.9602732860819623e-06 7.0945819394430923e-04 0.0000000000000000e+00  -1.2683893964470452e-05 8.7382287225470088e-04 0.0000000000000000e+00  -1.1297778741618891e-05 7.8779967245130725e-04 0.0000000000000000e+00  -7.9557302524070696e-06 3.4865526072630558e-04 0.0000000000000000e+00  -1.3750290682679477e-05 1.8366481653606017e-03 0.0000000000000000e+00  -4.0790598888282312e-06 9.8902360225057326e-05 0.0000000000000000e+00  1.0777446526652395e-05 1.9717011065963057e-03 0.0000000000000000e+00  3.7832319740475357e-06 1.3224548116965655e-05 0.0000000000000000e+00  7.8023930703923165e-06 1.5834788873456723e-03 0.0000000000000000e+00  7.7002818588077686e-06 1.6938718454795655e-03 0.0000000000000000e+00  -1.1118596849893706e-05 4.3915994351811673e-05 0.0000000000000000e+00  -1.8614051759223330e-05 1.7754916701033535e-04 0.0000000000000000e+00  8.2772589170370859e-06 1.2524344896869789e-03 0.0000000000000000e+00  7.9341740112403304e-06 1.4730578899363380e-03 0.0000000000000000e+00  -2.7175251171531402e-05 4.6566673114445948e-04 0.0000000000000000e+00  8.4720486268857326e-06 1.1425628051974928e-03 0.0000000000000000e+00  -2.1433191327119207e-05 2.5008221301527458e-04 0.0000000000000000e+00  -2.8872254421711703e-05 5.6204752141772690e-04 0.0000000000000000e+00  8.6715337387242641e-06 1.0333384762663596e-03 0.0000000000000000e+00  8.0948683782903456e-06 1.3626677288658168e-03 0.0000000000000000e+00  -3.4649374521464405e-05 6.6194063007768097e-04 0.0000000000000000e+00  8.8714735900902656e-06 9.2512028848997440e-04 0.0000000000000000e+00  -1.0294343367116348e-06 1.4029086163441481e-06 0.0000000000000000e+00  7.6485167430274366e-07 6.5193731072736380e-07 0.0000000000000000e+00  -3.1960445341050508e-05 2.0682282052022268e-03 0.0000000000000000e+00  -6.8676651763503991e-06 1.4420223955129467e-05 0.0000000000000000e+00  1.3866422548820878e-05 8.3020352825994410e-04 0.0000000000000000e