<?xml version="1.0"?>
<VTKFile type="UnstructuredGrid"  version="0.1"  >
<UnstructuredGrid>
<Piece  NumberOfPoints="1419" NumberOfCells="2698">
<Points>
<DataArray  type="Float64"  NumberOfComponents="3"  format="ascii">0 0 0  0 0.41 0  2.5 0 0  2.5 0.41 0  0.6 0.19 0  0.6 0.21 0  0.25 0.2 0  0.15 0.2 0  0.2489897948556636 0.21 0  0.2489897948556636 0.19 0  0.6 0.2 0  0 0.3807142857143437 0  0 0.3514285714286952 0  0 0.3221428571430699 0  0 0.29285714285744 0  0 0.2635714285718054 0  0 0.2342857142861561 0  0 0.2050000000005308 0  0 0.175714285714732 0  0 0.1464285714289574 0  0 0.1171428571431897 0  0 0.08785714285737878 0  0 0.05857142857161107 0  0 0.02928571428580012 0  0.03015443760436003 0 0  0.06140001986583606 0 0  0.09377624077125973 0 0  0.1273239957535082 0 0  0.1620856860351972 0 0  0.1981052433264291 0 0  0.235428184091502 0 0  0.2741016576309132 0 0  0.3141745521465447 0 0  0.3556974926295285 0 0  0.3987229542472677 0 0  0.4433053055141081 0 0  0.4895008759286886 0 0  0.5373680609405097 0 0  0.5869673343216626 0 0  0.6383613676634521 0 0  0.6916151138468254 0 0  0.7467958595648856 0 0  0.8039733463919316 0 0  0.8632198139502143 0 0  0.9246101326867038 0 0  0.9882218810934433 0 0  1.054135445558498 0 0  1.122434100542598 0 0  1.193204177141305 0 0  1.266535089879536 0 0  1.342519516046404 0 0  1.421253448503939 0 0  1.502836389106271 0 0  1.587371439758838 0 0  1.674965418777374 0 0  1.765729001825544 0 0  1.859776908880082 0 0  1.957227977487062 0 0  2.058205329869943 0 0  2.162836591189951 0 0  2.271253957290865 0 0  2.383594446803425 0 0  2.5 0.1024999999997612 0  2.5 0.2049999999994743 0  2.5 0.3074999999997183 0  2.383594446803656 0.41 0  2.271253957291315 0.41 0  2.162836591190598 0.41 0  2.058205329870775 0.41 0  1.957227977488067 0.41 0  1.859776908881246 0.41 0  1.765729001826854 0.41 0  1.674965418778818 0.41 0  1.58737143976041 0.41 0  1.502836389107956 0.41 0  1.421253448505726 0.41 0  1.342519516048286 0.41 0  1.266535089881505 0.41 0  1.193204177143353 0.41 0  1.122434100544716 0.41 0  1.05413544556068 0.41 0  0.9882218810956305 0.41 0  0.9246101326886647 0.41 0  0.8632198139519631 0.41 0  0.8039733463934788 0.41 0  0.7467958595662458 0.41 0  0.6916151138480078 0.41 0  0.6383613676644679 0.41 0  0.5869673343225223 0.41 0  0.5373680609412221 0.41 0  0.4895008759292634 0.41 0  0.4433053055145528 0.41 0  0.3987229542475914 0.41 0  0.3556974926297398 0.41 0  0.3141745521466497 0.41 0  0.2741016576310038 0.41 0  0.2354281840915826 0.41 0  0.1981052433265003 0.41 0  0.1620856860352591 0.41 0  0.1273239957535623 0.41 0  0.09377624077128965 0.41 0  0.06140001986584975 0.41 0  0.03015443760436654 0.41 0  0.2497468076502589 0.2050254481002335 0  0.2497468076502614 0.1949745518997913 0  0.2469965252529372 0.1829317073451959 0  0.2439893735792749 0.1762316384219906 0  0.2400332147834255 0.1700443375285386 0  0.2352133972704371 0.1645032867342007 0  0.2296339016332438 0.1597280261969788 0  0.2234150974217223 0.1558215752574715 0  0.2166911463437691 0.1528682099456123 0  0.2096071079204251 0.1509316448471593 0  0.2023158100364996 0.1500536585536553 0  0.194974551899914 0.1502531923497262 0  0.1877417105387872 0.1515259415822739 0  0.1807733240461124 0.153844448527136 0  0.1742197252835808 0.15715869474974 0  0.1682222986673531 0.1613971801805478 0  0.162910430003803 0.1664684656256651 0  0.1583987151779087 0.1722631454351573 0  0.1547844879126891 0.178656207771761 0  0.1521457199348551 0.1855097315605723 0  0.1505393388476355 0.1926758619366523 0  0.1505393388476328 0.2073241380633295 0  0.1521457199348437 0.2144902684393899 0  0.1547844879126531 0.221343792228163 0  0.1583987151778488 0.2277368545647528 0  0.1629104300036858 0.2335315343742052 0  0.1682222986671726 0.2386028198193036 0  0.1742197252833576 0.2428413052501257 0  0.1807733240458683 0.2461555514727623 0  0.1877417105384929 0.2484740584176516 0  0.1949745518995776 0.2497468076502398 0  0.202315810036185 0.2499463414463592 0  0.2096071079201568 0.2490683551528932 0  0.2166911463435495 0.2471317900544655 0  0.2234150974215506 0.2441784247426195 0  0.2296339016331197 0.2402719738031125 0  0.2352133972703547 0.2354967132658811 0  0.2400332147833751 0.2299556624715287 0  0.2439893735792577 0.2237683615780412 0  0.246996525252926 0.2170682926548348 0  0.25645809709277 0.21 0  0.2639263993298655 0.21 0  0.271394701566961 0.21 0  0.2788630038040554 0.21 0  0.2863313060411479 0.21 0  0.2937996082782405 0.21 0  0.301267910515333 0.21 0  0.3087362127524279 0.21 0  0.3162045149895234 0.21 0  0.3236728172265972 0.21 0  0.3311411194636928 0.21 0  0.3386094217007701 0.21 0  0.3460777239378666 0.21 0  0.3535460261749672 0.21 0  0.3610143284120516 0.21 0  0.3684826306491596 0.21 0  0.3759509328862226 0.21 0  0.383419235123329 0.21 0  0.3908875373604028 0.21 0  0.3983558395975142 0.21 0  0.4058241418345938 0.21 0  0.4132924440716992 0.21 0  0.4207607463087888 0.21 0  0.4282290485459029 0.21 0  0.4356973507830418 0.21 0  0.4431656530201649 0.21 0  0.4506339552573136 0.21 0  0.4581022574944306 0.21 0  0.4655705597315852 0.21 0  0.4730388619686996 0.21 0  0.480507164205851 0.21 0  0.4879754664429498 0.21 0  0.4954437686800938 0.21 0  0.502912070917267 0.21 0  0.5103803731544119 0.21 0  0.5178486753915261 0.21 0  0.5253169776286404 0.21 0  0.5327852798657868 0.21 0  0.5402535821029386 0.21 0  0.54772188434007 0.21 0  0.5551901865771842 0.21 0  0.5626584888143201 0.21 0  0.5701267910514778 0.21 0  0.5775950932886138 0.21 0  0.5850633955257281 0.21 0  0.5925316977628483 0.21 0  0.6 0.2050000000000054 0  0.6 0.1950000000000217 0  0.5925316977628897 0.19 0  0.5850633955257988 0.19 0  0.5775950932887378 0.19 0  0.5701267910515998 0.19 0  0.5626584888145268 0.19 0  0.5551901865773963 0.19 0  0.547721884340339 0.19 0  0.5402535821032429 0.19 0  0.5327852798661811 0.19 0  0.5253169776290537 0.19 0  0.5178486753919799 0.19 0  0.5103803731549078 0.19 0  0.502912070917822 0.19 0  0.4954437686807294 0.19 0  0.4879754664436223 0.19 0  0.4805071642065402 0.19 0  0.4730388619694271 0.19 0  0.4655705597323621 0.19 0  0.4581022574952563 0.19 0  0.4506339552581777 0.19 0  0.4431656530210671 0.19 0  0.4356973507839815 0.19 0  0.4282290485468779 0.19 0  0.4207607463097617 0.19 0  0.4132924440726327 0.19 0  0.4058241418354857 0.19 0  0.3983558395983636 0.19 0  0.3908875373612097 0.19 0  0.3834192351240934 0.19 0  0.3759509328869369 0.19 0  0.3684826306498175 0.19 0  0.361014328412667 0.19 0  0.3535460261755617 0.19 0  0.3460777239384295 0.19 0  0.3386094217012945 0.19 0  0.3311411194641595 0.19 0  0.3236728172270245 0.19 0  0.3162045149898895 0.19 0  0.3087362127527544 0.19 0  0.3012679105156187 0.19 0  0.2937996082784807 0.19 0  0.2863313060413428 0.19 0  0.2788630038042048 0.19 0  0.2713947015670686 0.19 0  0.2639263993299336 0.19 0  0.2564580970927985 0.19 0  0.2607803159922026 0.2000727136295815 0  0.5887803774232762 0.2001272386983733 0  0.5745072403740523 0.2002044435018727 0  0.5511891430099709 0.2001122610077113 0  0.2751288526855082 0.20000000000002 0  0.5365194309847112 0.1999999999999436 0  0.2894621222999649 0.1998691686390484 0  0.5215828265105155 0.1999999999999228 0  0.3127789816668748 0.1998657885438805 0  0.3274069683451451 0.2000000000000796 0  0.5066462220363641 0.199999999999908 0  0.3650630746574081 0.199866017807523 0  0.476773013087985 0.1999999999998713 0  0.3417402379596385 0.1998691686391011 0  0.3796850840047755 0.200000000000134 0  0.4618364086138087 0.1999999999998546 0  0.4917096175621762 0.1999999999998808 0  0.3946216884789568 0.2000000000001512 0  0.446899804139621 0.1999999999998389 0  0.4089549580935208 0.1998691686391595 0  0.4322718174608562 0.200127451265745 0  0.4201487168029707 0.1999966199048527 0  0.3528922713220932 0.2000185703532356 0  0.5633122436674589 0.1999814296467508 0  0.3006558810093873 0.1999966199048318 0  0.5815926498168407 0.1966545283159175 0  0.2677053789419034 0.1964246479135325 0  0.5290511287476175 0.1970915826863981 0  0.5439877332217911 0.197091582686394 0  0.2825131256993216 0.2035478995978015 0  0.3199386661080599 0.202908417313604 0  0.4842413153250809 0.1970915826863873 0  0.5141145242734466 0.1970915826863843 0  0.3722167817676917 0.2029084173136195 0  0.4693047108508938 0.1970915826863783 0  0.3348752705822316 0.202908417313609 0  0.3871533862418661 0.2029084173136212 0  0.4543681063767183 0.1970915826863795 0  0.4991779197992749 0.1970915826863902 0  0.4020059614928624 0.203547899597858 0  0.4394315019025246 0.1970915826863714 0  0.2550657455369551 0.2034088125358657 0  0.2548908499171161 0.1966940311614271 0  0.5946539510196798 0.2024302972968126 0  0.267698176732111 0.2039977513680092 0  0.4261685417851465 0.196409292431739 0  0.3590076176283495 0.196411355804271 0  0.5571672426447437 0.2036011176410121 0  0.3066757059912147 0.1964092924317024 0  0.594380730180568 0.1966558399668133 0  0.4842413153245942 0.2040749161535287 0  0.4693047108503577 0.2040749161535231 0  0.3871533862424271 0.1959250838464788 0  0.372246743208829 0.1959123236376545 0  0.5141145242731028 0.2040749161535395 0  0.4543681063761134 0.2040749161535186 0  0.4019979587101454 0.1959834479682427 0  0.4394608940728603 0.2040870543693135 0  0.5439623148931173 0.2040856076781014 0  0.5290511287473298 0.2040749161535501 0  0.4991779197988497 0.2040749161535382 0  0.3347912413592433 0.1959225448935183 0  0.3199680582793816 0.1959123018030061 0  0.2825051229162361 0.1959834479681729 0  0.3590471196690275 0.2036304442587945 0  0.5571594006495384 0.1963685282145804 0  0.3067669986803285 0.203627750582736 0  0.4262598344738712 0.2036568242185335 0  0.5814408164431408 0.2041285596160068 0  0.5688286748170428 0.1961819304477386 0  0.4145905603063645 0.2038180695522843 0  0.3473758401724931 0.2038180695522752 0  0.2950977245128307 0.2038180695522663 0  0.5688286748170693 0.203818069552238 0  0.2950977245127906 0.1961819304477774 0  0.3473758401723931 0.1961819304478349 0  0.4145905603061963 0.1961819304479011 0  0.2601812407614425 0.2056861609747042
[...]
<PointData  Vectors="f_40-1"> 
<DataArray  type="Float64"  Name="f_40-1"  NumberOfComponents="3" format="ascii">0.0000000000000000e+00 0.0000000000000000e+00 0.0000000000000000e+00  0.0000000000000000e+00 0.0000000000000000e+00 0.0000000000000000e+00  0.0000000000000000e+00 0.0000000000000000e+00 0.0000000000000000e+00  0.0000000000000000e+00 0.0000000000000000e+00 0.0000000000000000e+00  5.8440210099770280e-05 2.0842744088992076e-03 0.0000000000000000e+00  -8.7528090882076488e-05 2.0841475919194086e-03 0.0000000000000000e+00  0.0000000000000000e+00 0.0000000000000000e+00 0.0000000000000000e+00  0.0000000000000000e+00 0.0000000000000000e+00 0.0000000000000000e+00  0.0000000000000000e+00 0.0000000000000000e+00 0.0000000000000000e+00  0.0000000000000000e+00 0.0000000000000000e+00 0.0000000000000000e+00  -1.4615385008972491e-05 2.0842033233031652e-03 0.0000000000000000e+00  0.0000000000000000e+00 0.0000000000000000e+00 0.0000000000000000e+00  0.0000000000000000e+00 0.0000000000000000e+00 0.0000000000000000e+00  0.0000000000000000e+00 0.0000000000000000e+00 0.0000000000000000e+00  0.0000000000000000e+00 0.0000000000000000e+00 0.0000000000000000e+00  0.0000000000000000e+00 0.0000000000000000e+00 0.0000000000000000e+00  0.0000000000000000e+00 0.0000000000000000e+00 0.0000000000000000e+00  0.0000000000000000e+00 0.0000000000000000e+00 0.0000000000000000e+00  0.0000000000000000e+00 0.0000000000000000e+00 0.0000000000000000e+00  0.0000000000000000e+00 0.0000000000000000e+00 0.0000000000000000e+00  0.0000000000000000e+00 0.0000000000000000e+00 0.0000000000000000e+00  0.0000000000000000e+00 0.0000000000000000e+00 0.0000000000000000e+00  0.0000000000000000e+00 0.0000000000000000e+00 0.0000000000000000e+00  0.0000000000000000e+00 0.0000000000000000e+00 0.0000000000000000e+00  0.0000000000000000e+00 0.0000000000000000e+00 0.0000000000000000e+00  0.0000000000000000e+00 0.0000000000000000e+00 0.0000000000000000e+00  0.0000000000000000e+00 0.0000000000000000e+00 0.0000000000000000e+00  0.0000000000000000e+00 0.0000000000000000e+00 0.0000000000000000e+00  0.0000000000000000e+00 0.0000000000000000e+00 0.0000000000000000e+00  0.0000000000000000e+00 0.0000000000000000e+00 0.0000000000000000e+00  0.0000000000000000e+00 0.0000000000000000e+00 0.0000000000000000e+00  0.0000000000000000e+00 0.0000000000000000e+00 0.0000000000000000e+00  0.0000000000000000e+00 0.0000000000000000e+00 0.0000000000000000e+00  0.0000000000000000e+00 0.0000000000000000e+00 0.0000000000000000e+00  0.0000000000000000e+00 0.0000000000000000e+00 0.0000000000000000e+00  0.0000000000000000e+00 0.0000000000000000e+00 0.0000000000000000e+00  0.0000000000000000e+00 0.0000000000000000e+00 0.0000000000000000e+00  0.0000000000000000e+00 0.0000000000000000e+00 0.0000000000000000e+00  0.0000000000000000e+00 0.0000000000000000e+00 0.0000000000000000e+00  0.0000000000000000e+00 0.0000000000000000e+00 0.0000000000000000e+00  0.0000000000000000e+00 0.0000000000000000e+00 0.0000000000000000e+00  0.0000000000000000e+00 0.0000000000000000e+00 0.0000000000000000e+00  0.0000000000000000e+00 0.0000000000000000e+00 0.0000000000000000e+00  0.0000000000000000e+00 0.0000000000000000e+00 0.0000000000000000e+00  0.0000000000000000e+00 0.0000000000000000e+00 0.0000000000000000e+00  0.0000000000000000e+00 0.0000000000000000e+00 0.0000000000000000e+00  0.0000000000000000e+00 0.0000000000000000e+00 0.0000000000000000e+00  0.0000000000000000e+00 0.0000000000000000e+00 0.0000000000000000e+00  0.0000000000000000e+00 0.0000000000000000e+00 0.0000000000000000e+00  0.0000000000000000e+00 0.0000000000000000e+00 0.0000000000000000e+00  0.0000000000000000e+00 0.0000000000000000e+00 0.0000000000000000e+00  0.0000000000000000e+00 0.0000000000000000e+00 0.0000000000000000e+00  0.0000000000000000e+00 0.0000000000000000e+00 0.0000000000000000e+00  0.0000000000000000e+00 0.0000000000000000e+00 0.0000000000000000e+00  0.0000000000000000e+00 0.0000000000000000e+00 0.0000000000000000e+00  0.0000000000000000e+00 0.0000000000000000e+00 0.0000000000000000e+00  0.0000000000000000e+00 0.0000000000000000e+00 0.0000000000000000e+00  0.0000000000000000e+00 0.0000000000000000e+00 0.0000000000000000e+00  0.0000000000000000e+00 0.0000000000000000e+00 0.0000000000000000e+00  0.0000000000000000e+00 0.0000000000000000e+00 0.0000000000000000e+00  0.0000000000000000e+00 0.0000000000000000e+00 0.0000000000000000e+00  0.0000000000000000e+00 0.0000000000000000e+00 0.0000000000000000e+00  0.0000000000000000e+00 0.0000000000000000e+00 0.0000000000000000e+00  0.0000000000000000e+00 0.0000000000000000e+00 0.0000000000000000e+00  0.0000000000000000e+00 0.0000000000000000e+00 0.0000000000000000e+00  0.0000000000000000e+00 0.0000000000000000e+00 0.0000000000000000e+00  0.0000000000000000e+00 0.0000000000000000e+00 0.0000000000000000e+00  0.0000000000000000e+00 0.0000000000000000e+00 0.0000000000000000e+00  0.0000000000000000e+00 0.0000000000000000e+00 0.0000000000000000e+00  0.0000000000000000e+00 0.0000000000000000e+00 0.0000000000000000e+00  0.0000000000000000e+00 0.0000000000000000e+00 0.0000000000000000e+00  0.0000000000000000e+00 0.0000000000000000e+00 0.0000000000000000e+00  0.0000000000000000e+00 0.0000000000000000e+00 0.0000000000000000e+00  0.0000000000000000e+00 0.0000000000000000e+00 0.0000000000000000e+00  0.0000000000000000e+00 0.0000000000000000e+00 0.0000000000000000e+00  0.0000000000000000e+00 0.0000000000000000e+00 0.0000000000000000e+00  0.0000000000000000e+00 0.0000000000000000e+00 0.0000000000000000e+00  0.0000000000000000e+00 0.0000000000000000e+00 0.0000000000000000e+00  0.0000000000000000e+00 0.0000000000000000e+00 0.0000000000000000e+00  0.0000000000000000e+00 0.0000000000000000e+00 0.0000000000000000e+00  0.0000000000000000e+00 0.0000000000000000e+00 0.0000000000000000e+00  0.0000000000000000e+00 0.0000000000000000e+00 0.0000000000000000e+00  0.0000000000000000e+00 0.0000000000000000e+00 0.0000000000000000e+00  0.0000000000000000e+00 0.0000000000000000e+00 0.0000000000000000e+00  0.0000000000000000e+00 0.0000000000000000e+00 0.0000000000000000e+00  0.0000000000000000e+00 0.0000000000000000e+00 0.0000000000000000e+00  0.0000000000000000e+00 0.0000000000000000e+00 0.0000000000000000e+00  0.0000000000000000e+00 0.0000000000000000e+00 0.0000000000000000e+00  0.0000000000000000e+00 0.0000000000000000e+00 0.0000000000000000e+00  0.0000000000000000e+00 0.0000000000000000e+00 0.0000000000000000e+00  0.0000000000000000e+00 0.0000000000000000e+00 0.0000000000000000e+00  0.0000000000000000e+00 0.0000000000000000e+00 0.0000000000000000e+00  0.0000000000000000e+00 0.0000000000000000e+00 0.0000000000000000e+00  0.0000000000000000e+00 0.0000000000000000e+00 0.0000000000000000e+00  0.0000000000000000e+00 0.0000000000000000e+00 0.0000000000000000e+00  0.0000000000000000e+00 0.0000000000000000e+00 0.0000000000000000e+00  0.0000000000000000e+00 0.0000000000000000e+00 0.0000000000000000e+00  0.0000000000000000e+00 0.0000000000000000e+00 0.0000000000000000e+00  0.0000000000000000e+00 0.0000000000000000e+00 0.0000000000000000e+00  0.0000000000000000e+00 0.0000000000000000e+00 0.0000000000000000e+00  0.0000000000000000e+00 0.0000000000000000e+00 0.0000000000000000e+00  0.0000000000000000e+00 0.0000000000000000e+00 0.0000000000000000e+00  0.0000000000000000e+00 0.0000000000000000e+00 0.0000000000000000e+00  0.0000000000000000e+00 0.0000000000000000e+00 0.0000000000000000e+00  0.0000000000000000e+00 0.0000000000000000e+00 0.0000000000000000e+00  0.0000000000000000e+00 0.0000000000000000e+00 0.0000000000000000e+00  0.0000000000000000e+00 0.0000000000000000e+00 0.0000000000000000e+00  0.0000000000000000e+00 0.0000000000000000e+00 0.0000000000000000e+00  0.0000000000000000e+00 0.0000000000000000e+00 0.0000000000000000e+00  0.0000000000000000e+00 0.0000000000000000e+00 0.0000000000000000e+00  0.0000000000000000e+00 0.0000000000000000e+00 0.0000000000000000e+00  0.0000000000000000e+00 0.0000000000000000e+00 0.0000000000000000e+00  0.0000000000000000e+00 0.0000000000000000e+00 0.0000000000000000e+00  0.0000000000000000e+00 0.0000000000000000e+00 0.0000000000000000e+00  0.0000000000000000e+00 0.0000000000000000e+00 0.0000000000000000e+00  0.0000000000000000e+00 0.0000000000000000e+00 0.0000000000000000e+00  0.0000000000000000e+00 0.0000000000000000e+00 0.0000000000000000e+00  0.0000000000000000e+00 0.0000000000000000e+00 0.0000000000000000e+00  0.0000000000000000e+00 0.0000000000000000e+00 0.0000000000000000e+00  0.0000000000000000e+00 0.0000000000000000e+00 0.0000000000000000e+00  0.0000000000000000e+00 0.0000000000000000e+00 0.0000000000000000e+00  0.0000000000000000e+00 0.0000000000000000e+00 0.0000000000000000e+00  0.0000000000000000e+00 0.0000000000000000e+00 0.0000000000000000e+00  0.0000000000000000e+00 0.0000000000000000e+00 0.0000000000000000e+00  0.0000000000000000e+00 0.0000000000000000e+00 0.0000000000000000e+00  0.0000000000000000e+00 0.0000000000000000e+00 0.0000000000000000e+00  0.0000000000000000e+00 0.0000000000000000e+00 0.0000000000000000e+00  0.0000000000000000e+00 0.0000000000000000e+00 0.0000000000000000e+00  0.0000000000000000e+00 0.0000000000000000e+00 0.0000000000000000e+00  0.0000000000000000e+00 0.0000000000000000e+00 0.0000000000000000e+00  0.0000000000000000e+00 0.0000000000000000e+00 0.0000000000000000e+00  0.0000000000000000e+00 0.0000000000000000e+00 0.0000000000000000e+00  0.0000000000000000e+00 0.0000000000000000e+00 0.0000000000000000e+00  0.0000000000000000e+00 0.0000000000000000e+00 0.0000000000000000e+00  0.0000000000000000e+00 0.0000000000000000e+00 0.0000000000000000e+00  0.0000000000000000e+00 0.0000000000000000e+00 0.0000000000000000e+00  0.0000000000000000e+00 0.0000000000000000e+00 0.0000000000000000e+00  0.0000000000000000e+00 0.0000000000000000e+00 0.0000000000000000e+00  0.0000000000000000e+00 0.0000000000000000e+00 0.0000000000000000e+00  0.0000000000000000e+00 0.0000000000000000e+00 0.0000000000000000e+00  0.0000000000000000e+00 0.0000000000000000e+00 0.0000000000000000e+00  0.0000000000000000e+00 0.0000000000000000e+00 0.0000000000000000e+00  0.0000000000000000e+00 0.0000000000000000e+00 0.0000000000000000e+00  -5.8688205072862120e-06 5.8206444630668333e-06 0.0000000000000000e+00  -1.2422577128702103e-05 1.2509450452306513e-05 0.0000000000000000e+00  -1.8195198212304722e-05 2.3171367817749286e-05 0.0000000000000000e+00  -2.4318530371680063e-05 3.8056022103566179e-05 0.0000000000000000e+00  -2.9397914168209109e-05 5.6368047827614204e-05 0.0000000000000000e+00  -3.4972224428716479e-05 7.8424660676184544e-05 0.0000000000000000e+00  -3.9428668474353694e-05 1.0317078831502792e-04 0.0000000000000000e+00  -4.3642642837089291e-05 1.3138943826304322e-04 0.0000000000000000e+00  -4.8317927056151055e-05 1.6217659918886830e-04 0.0000000000000000e+00  -5.1838264257924835e-05 1.9555135522265240e-04 0.0000000000000000e+00  -5.5936897199004097e-05 2.3143860159487018e-04 0.0000000000000000e+00  -5.8974979355815969e-05 2.6950792233661105e-04 0.0000000000000000e+00  -6.2374630736370423e-05 3.0965535294936737e-04 0.0000000000000000e+00  -6.5027816090852434e-05 3.5141139095751315e-04 0.0000000000000000e+00  -6.7482412518082683e-05 3.9507706482720911e-04 0.0000000000000000e+00  -7.0115816100756542e-05 4.4012253320523668e-04 0.0000000000000000e+00  -7.2064809941699233e-05 4.8649679708472038e-04 0.0000000000000000e+00  -7.4227229777323991e-05 5.3414202241131340e-04 0.0000000000000000e+00  -7.5803676027109176e-05 5.8279611101780401e-04 0.0000000000000000e+00  -7.7511559141550196e-05 6.3240049834447634e-04 0.0000000000000000e+00  -7.8821450590582353e-05 6.8280421901965090e-04 0.0000000000000000e+00  -8.0138222485376785e-05 7.3396480564738716e-04 0.0000000000000000e+00  -8.1168779137235082e-05 7.8562839891896375e-04 0.0000000000000000e+00  -8.2079821343891132e-05 8.3790277950333608e-04 0.0000000000000000e+00  -8.2996711931875001e-05 8.9056823344360711e-04 0.0000000000000000e+00  -8.3712316812230259e-05 9.4363792615376977e-04 0.0000000000000000e+00  -8.4365073405761758e-05 9.9706063213995553e-04 0.0000000000000000e+00  -8.4902368541520944e-05 1.0507121127175071e-03 0.0000000000000000e+00  -8.5379961820684035e-05 1.1046218143911282e-03 0.0000000000000000e+00  -8.5769505944759285e-05 1.1586787553144284e-03 0.0000000000000000e+00  -8.6106723379785114e-05 1.2129032266330331e-03 0.0000000000000000e+00  -8.6376101830742529e-05 1.2672052002499631e-03 0.0000000000000000e+00  -8.6602892670074085e-05 1.3216036749320564e-03 0.0000000000000000e+00  -8.6778211122049749e-05 1.3760287914375284e-03 0.0000000000000000e+00  -8.6917949897575739e-05 1.4305021234711701e-03 0.0000000000000000e+00  -8.7026828912215644e-05 1.4849754654197370e-03 0.0000000000000000e+00  -8.7112215865795822e-05 1.5394629778058178e-03 0.0000000000000000e+00  -8.7180015903727136e-05 1.5939395188172094e-03 0.0000000000000000e+00  -8.7232941129553054e-05 1.6484145659801234e-03 0.0000000000000000e+00  -8.7279003935041301e-05 1.7028793875223868e-03 0.0000000000000000e+00  -8.7319282237553555e-05 1.7573375274271229e-03 0.0000000000000000e+00  -8.7359852607661625e-05 1.8117917721500970e-03 0.0000000000000000e+00  -8.7396515128556891e-05 1.8662486653412088e-03 0.0000000000000000e+00  -8.7435690327232544e-05 1.9207095196000135e-03 0.0000000000000000e+00  -8.7476263087481366e-05 1.9751836519148968e-03 0.0000000000000000e+00  -8.7511227812173337e-05 2.0296668731655861e-03 0.0000000000000000e+00  -5.1088635871785249e-05 2.0841750230439207e-03 0.0000000000000000e+00  2.1886343650204264e-05 2.0842338565949369e-03 0.0000000000000000e+00  5.8435587670541609e-05 2.0297358229409840e-03 0.0000000000000000e+00  5.8453657552048351e-05 1.9752350522944137e-03 0.0000000000000000e+00  5.8479398803964570e-05 1.9207493865508762e-03 0.0000000000000000e+00  5.8507233752638062e-05 1.8662689369651113e-03 0.0000000000000000e+00  5.8540675095206556e-05 1.8117903606331793e-03 0.0000000000000000e+00  5.8585735562677956e-05 1.7573096555129918e-03 0.0000000000000000e+00  5.8637446934886955e-05 1.7028226669414349e-03 0.0000000000000000e+00  5.8697434673349361e-05 1.6483285429174912e-03 0.0000000000000000e+00  5.8763199646549468e-05 1.5938226955725463e-03 0.0000000000000000e+00  5.8834050498392997e-05 1.5393061881712215e-03 0.0000000000000000e+00  5.8903908781885955e-05 1.4847833263460957e-03 0.0000000000000000e+00  5.8978597793060885e-05 1.4302612706242317e-03 0.0000000000000000e+00  5.9038467933505779e-05 1.3757499113220594e-03 0.0000000000000000e+00  5.9102377824835218e-05 1.3212678468095852e-03 0.0000000000000000e+00  5.9127873748305870e-05 1.2668286794511674e-03 0.0000000000000000e+00  5.9162316908743199e-05 1.2124656536108113e-03 0.0000000000000000e+00  5.9128408383978808e-05 1.1581973396936644e-03 0.0000000000000000e+00  5.9114655305984305e-05 1.1040708389155648e-03 0.0000000000000000e+00  5.8996183222699723e-05 1.0501117083391289e-03 0.0000000000000000e+00  5.8915156445627091e-05 9.9637982844958165e-04 0.0000000000000000e+00  5.8679728246631562e-05 9.4290559094656269e-04 0.0000000000000000e+00  5.8503883285010406e-05 8.8976454694306953e-04 0.0000000000000000e+00  5.8125759710141648e-05 8.3700416400612349e-04 0.0000000000000000e+00  5.7793962423486006e-05 7.8465495509875722e-04 0.0000000000000000e+00  5.7395607421595575e-05 7.3291820125627027e-04 0.0000000000000000e+00  5.6758030706507955e-05 6.8165743367877357e-04 0.0000000000000000e+00  5.6120034046254353e-05 6.3119044570868687e-04 0.0000000000000000e+00  5.5254334913876874e-05 5.8146879718540235e-04 0.0000000000000000e+00  5.4348140770822932e-05 5.3273770721600237e-04 0.0000000000000000e+00  5.3178075129802957e-05 4.8500539982644105e-04 0.0000000000000000e+00  5.1961133361495471e-05 4.3847555331280445e-04 0.0000000000000000e+00  5.0269426287559616e-05 3.9342891532542361e-04 0.0000000000000000e+00  4.8763861768489773e-05 3.4964297711645670e-04 0.0000000000000000e+00  4.7097095550347006e-05 3.0782066996969142e-04 0.0000000000000000e+00  4.4813577987869777e-05 2.6744039787654559e-04 0.0000000000000000e+00  4.2592879638846858e-05 2.2934221706434997e-04 0.0000000000000000e+00  3.9917438066381175e-05 1.9334153453311528e-04 0.0000000000000000e+00  3.7256796154022473e-05 1.5975241848242738e-04 0.0000000000000000e+00  3.3815104278593553e-05 1.2902143135046890e-04 0.0000000000000000e+00  3.0807101315893078e-05 1.0065584972350159e-04 0.0000000000000000e+00  2.7612198185240015e-05 7.5819903449258642e-05 0.0000000000000000e+00  2.3403408586432018e-05 5.3568548571276586e-05 0.0000000000000000e+00  1.9509339616870239e-05 3.5087459975391751e-05 0.0000000000000000e+00  1.4680999695251375e-05 2.0316587641102110e-05 0.0000000000000000e+00  1.0301064034579031e-05 9.5802192067061737e-06 0.0000000000000000e+00  4.8902673456802708e-06 3.0089776500799598e-06 0.0000000000000000e+00  -5.9877464014178697e-07 4.7675196736948959e-06 0.0000000000000000e+00  -1.5484880223328751e-05 2.0023260170482873e-03 0.0000000000000000e+00  -1.5976682357502385e-05 1.8982044944711642e-03 0.0000000000000000e+00  -1.5178239848040366e-05 1.7281436490032159e-03 0.0000000000000000e+00  -2.0036307417452401e-06 2.6169180205034671e-05 0.0000000000000000e+00  -1.4253217978225887e-05 1.6211288611985293e-03 0.0000000000000000e+00  -2.9270074869998605e-06 6.1524256639840810e-05 0.0000000000000000e+00  -1.4112931920162614e-05 1.5121267756025012e-03 0.0000000000000000e+00  -4.6450799523449651e-06 1.4470472415154280e-04 0.0000000000000000e+00  -6.3039296817979426e-06 2.1063215193348525e-04 0.0000000000000000e+00  -1.3929267373861509e-05 1.4031127261349865e-03 0.0000000000000000e+00  -8.0281644996367500e-06 4.1752895198216521e-04 0.0000000000000000e+00  -1.3399996166547895e-05 1.1854603077269602e-03 0.0000000000000000e+00  -6.6350405224762039e-06 2.8376774027498290e-04 0.0000000000000000e+00  -9.6878955225357844e-06 5.0870882444860126e-04 0.0000000000000000e+00  -1.3043617245115819e-05 1.0772180551423876e-03 0.0000000000000000e+00  -1.3693547898412721e-05 1.2941710478740389e-03 0.0000000000000000e+00  -1.0484876376217091e-05 6.0626486283602899e-04 0.0000000000000000e+00  -1.2614858874619913e-05 9.6975906640418678e-04 0.0000000000000000e+00  -1.0281359960707294e-05 7.0313884112220115e-04 0.0000000000000000e+00  -1.3021899055803803e-05 8.6565563994159505e-04 0.0000000000000000e+00  -1.1627246320526709e-05 7.8061017169005133e-04 0.0000000000000000e+00  -8.1691076203986912e-06 3.4597650139970253e-04 0.0000000000000000e+00  -1.4295874544955129e-05 1.8165587051387423e-03 0.0000000000000000e+00  -4.1918984998877738e-06 9.8283095482915676e-05 0.0000000000000000e+00  9.8914156357542150e-06 1.9498939936447742e-03 0.0000000000000000e+00  3.7081300988731633e-06 1.3167321671001536e-05 0.0000000000000000e+00  7.0365537641780244e-06 1.5666129306159326e-03 0.0000000000000000e+00  6.9115601280197751e-06 1.6756041887690850e-03 0.0000000000000000e+00  -1.1137005819387088e-05 4.3665914663609795e-05 0.0000000000000000e+00  -1.8660880111628329e-05 1.7633321177392677e-04 0.0000000000000000e+00  7.5854576820506145e-06 1.2397245482040102e-03 0.0000000000000000e+00  7.1919030010325243e-06 1.4575883321320589e-03 0.0000000000000000e+00  -2.7245827363713630e-05 4.6187704648519723e-04 0.0000000000000000e+00  7.8078524194197723e-06 1.1312033160413015e-03 0.0000000000000000e+00  -2.1487484861451979e-05 2.4827072602561087e-04 0.0000000000000000e+00  -2.8951188240914096e-05 5.5728952861633049e-04 0.0000000000000000e+00  8.0369304589579022e-06 1.0232988878186037e-03 0.0000000000000000e+00  7.3771601722254914e-06 1.3485853709204422e-03 0.0000000000000000e+00  -3.4690857053624822e-05 6.5613146727530527e-04 0.0000000000000000e+00  8.2685104103181684e-06 9.1636038417379864e-04 0.0000000000000000e+00  -1.0410098094468147e-06 1.3969826353231682e-06 0.0000000000000000e+00  7.4330911133965371e-07 6.5494073068696576e-07 0.0000000000000000e+00  -3.2320038349165513e-05 2.0451801489156096e-03 0.0000000000000000e+00  -6.8775121141597939e-06 1.4346011693155858e-05 0.0000000000000000e+00  1.3238778697344432e-05 8.2253849847872460e-04 0.0000000000000000e