<?xml version="1.0"?>
<VTKFile type="UnstructuredGrid"  version="0.1"  >
<UnstructuredGrid>
<Piece  NumberOfPoints="1419" NumberOfCells="2698">
<Points>
<DataArray  type="Float64"  NumberOfComponents="3"  format="ascii">0 0 0  0 0.41 0  2.5 0 0  2.5 0.41 0  0.6 0.19 0  0.6 0.21 0  0.25 0.2 0  0.15 0.2 0  0.2489897948556636 0.21 0  0.2489897948556636 0.19 0  0.6 0.2 0  0 0.3807142857143437 0  0 0.3514285714286952 0  0 0.3221428571430699 0  0 0.29285714285744 0  0 0.2635714285718054 0  0 0.2342857142861561 0  0 0.2050000000005308 0  0 0.175714285714732 0  0 0.1464285714289574 0  0 0.1171428571431897 0  0 0.08785714285737878 0  0 0.05857142857161107 0  0 0.02928571428580012 0  0.03015443760436003 0 0  0.06140001986583606 0 0  0.09377624077125973 0 0  0.1273239957535082 0 0  0.1620856860351972 0 0  0.1981052433264291 0 0  0.235428184091502 0 0  0.2741016576309132 0 0  0.3141745521465447 0 0  0.3556974926295285 0 0  0.3987229542472677 0 0  0.4433053055141081 0 0  0.4895008759286886 0 0  0.5373680609405097 0 0  0.5869673343216626 0 0  0.6383613676634521 0 0  0.6916151138468254 0 0  0.7467958595648856 0 0  0.8039733463919316 0 0  0.8632198139502143 0 0  0.9246101326867038 0 0  0.9882218810934433 0 0  1.054135445558498 0 0  1.122434100542598 0 0  1.193204177141305 0 0  1.266535089879536 0 0  1.342519516046404 0 0  1.421253448503939 0 0  1.502836389106271 0 0  1.587371439758838 0 0  1.674965418777374 0 0  1.765729001825544 0 0  1.859776908880082 0 0  1.957227977487062 0 0  2.058205329869943 0 0  2.162836591189951 0 0  2.271253957290865 0 0  2.383594446803425 0 0  2.5 0.1024999999997612 0  2.5 0.2049999999994743 0  2.5 0.3074999999997183 0  2.383594446803656 0.41 0  2.271253957291315 0.41 0  2.162836591190598 0.41 0  2.058205329870775 0.41 0  1.957227977488067 0.41 0  1.859776908881246 0.41 0  1.765729001826854 0.41 0  1.674965418778818 0.41 0  1.58737143976041 0.41 0  1.502836389107956 0.41 0  1.421253448505726 0.41 0  1.342519516048286 0.41 0  1.266535089881505 0.41 0  1.193204177143353 0.41 0  1.122434100544716 0.41 0  1.05413544556068 0.41 0  0.9882218810956305 0.41 0  0.9246101326886647 0.41 0  0.8632198139519631 0.41 0  0.8039733463934788 0.41 0  0.7467958595662458 0.41 0  0.6916151138480078 0.41 0  0.6383613676644679 0.41 0  0.5869673343225223 0.41 0  0.5373680609412221 0.41 0  0.4895008759292634 0.41 0  0.4433053055145528 0.41 0  0.3987229542475914 0.41 0  0.3556974926297398 0.41 0  0.3141745521466497 0.41 0  0.2741016576310038 0.41 0  0.2354281840915826 0.41 0  0.1981052433265003 0.41 0  0.1620856860352591 0.41 0  0.1273239957535623 0.41 0  0.09377624077128965 0.41 0  0.06140001986584975 0.41 0  0.03015443760436654 0.41 0  0.2497468076502589 0.2050254481002335 0  0.2497468076502614 0.1949745518997913 0  0.2469965252529372 0.1829317073451959 0  0.2439893735792749 0.1762316384219906 0  0.2400332147834255 0.1700443375285386 0  0.2352133972704371 0.1645032867342007 0  0.2296339016332438 0.1597280261969788 0  0.2234150974217223 0.1558215752574715 0  0.2166911463437691 0.1528682099456123 0  0.2096071079204251 0.1509316448471593 0  0.2023158100364996 0.1500536585536553 0  0.194974551899914 0.1502531923497262 0  0.1877417105387872 0.1515259415822739 0  0.1807733240461124 0.153844448527136 0  0.1742197252835808 0.15715869474974 0  0.1682222986673531 0.1613971801805478 0  0.162910430003803 0.1664684656256651 0  0.1583987151779087 0.1722631454351573 0  0.1547844879126891 0.178656207771761 0  0.1521457199348551 0.1855097315605723 0  0.1505393388476355 0.1926758619366523 0  0.1505393388476328 0.2073241380633295 0  0.1521457199348437 0.2144902684393899 0  0.1547844879126531 0.221343792228163 0  0.1583987151778488 0.2277368545647528 0  0.1629104300036858 0.2335315343742052 0  0.1682222986671726 0.2386028198193036 0  0.1742197252833576 0.2428413052501257 0  0.1807733240458683 0.2461555514727623 0  0.1877417105384929 0.2484740584176516 0  0.1949745518995776 0.2497468076502398 0  0.202315810036185 0.2499463414463592 0  0.2096071079201568 0.2490683551528932 0  0.2166911463435495 0.2471317900544655 0  0.2234150974215506 0.2441784247426195 0  0.2296339016331197 0.2402719738031125 0  0.2352133972703547 0.2354967132658811 0  0.2400332147833751 0.2299556624715287 0  0.2439893735792577 0.2237683615780412 0  0.246996525252926 0.2170682926548348 0  0.25645809709277 0.21 0  0.2639263993298655 0.21 0  0.271394701566961 0.21 0  0.2788630038040554 0.21 0  0.2863313060411479 0.21 0  0.2937996082782405 0.21 0  0.301267910515333 0.21 0  0.3087362127524279 0.21 0  0.3162045149895234 0.21 0  0.3236728172265972 0.21 0  0.3311411194636928 0.21 0  0.3386094217007701 0.21 0  0.3460777239378666 0.21 0  0.3535460261749672 0.21 0  0.3610143284120516 0.21 0  0.3684826306491596 0.21 0  0.3759509328862226 0.21 0  0.383419235123329 0.21 0  0.3908875373604028 0.21 0  0.3983558395975142 0.21 0  0.4058241418345938 0.21 0  0.4132924440716992 0.21 0  0.4207607463087888 0.21 0  0.4282290485459029 0.21 0  0.4356973507830418 0.21 0  0.4431656530201649 0.21 0  0.4506339552573136 0.21 0  0.4581022574944306 0.21 0  0.4655705597315852 0.21 0  0.4730388619686996 0.21 0  0.480507164205851 0.21 0  0.4879754664429498 0.21 0  0.4954437686800938 0.21 0  0.502912070917267 0.21 0  0.5103803731544119 0.21 0  0.5178486753915261 0.21 0  0.5253169776286404 0.21 0  0.5327852798657868 0.21 0  0.5402535821029386 0.21 0  0.54772188434007 0.21 0  0.5551901865771842 0.21 0  0.5626584888143201 0.21 0  0.5701267910514778 0.21 0  0.5775950932886138 0.21 0  0.5850633955257281 0.21 0  0.5925316977628483 0.21 0  0.6 0.2050000000000054 0  0.6 0.1950000000000217 0  0.5925316977628897 0.19 0  0.5850633955257988 0.19 0  0.5775950932887378 0.19 0  0.5701267910515998 0.19 0  0.5626584888145268 0.19 0  0.5551901865773963 0.19 0  0.547721884340339 0.19 0  0.5402535821032429 0.19 0  0.5327852798661811 0.19 0  0.5253169776290537 0.19 0  0.5178486753919799 0.19 0  0.5103803731549078 0.19 0  0.502912070917822 0.19 0  0.4954437686807294 0.19 0  0.4879754664436223 0.19 0  0.4805071642065402 0.19 0  0.4730388619694271 0.19 0  0.4655705597323621 0.19 0  0.4581022574952563 0.19 0  0.4506339552581777 0.19 0  0.4431656530210671 0.19 0  0.4356973507839815 0.19 0  0.4282290485468779 0.19 0  0.4207607463097617 0.19 0  0.4132924440726327 0.19 0  0.4058241418354857 0.19 0  0.3983558395983636 0.19 0  0.3908875373612097 0.19 0  0.3834192351240934 0.19 0  0.3759509328869369 0.19 0  0.3684826306498175 0.19 0  0.361014328412667 0.19 0  0.3535460261755617 0.19 0  0.3460777239384295 0.19 0  0.3386094217012945 0.19 0  0.3311411194641595 0.19 0  0.3236728172270245 0.19 0  0.3162045149898895 0.19 0  0.3087362127527544 0.19 0  0.3012679105156187 0.19 0  0.2937996082784807 0.19 0  0.2863313060413428 0.19 0  0.2788630038042048 0.19 0  0.2713947015670686 0.19 0  0.2639263993299336 0.19 0  0.2564580970927985 0.19 0  0.2607803159922026 0.2000727136295815 0  0.5887803774232762 0.2001272386983733 0  0.5745072403740523 0.2002044435018727 0  0.5511891430099709 0.2001122610077113 0  0.2751288526855082 0.20000000000002 0  0.5365194309847112 0.1999999999999436 0  0.2894621222999649 0.1998691686390484 0  0.5215828265105155 0.1999999999999228 0  0.3127789816668748 0.1998657885438805 0  0.3274069683451451 0.2000000000000796 0  0.5066462220363641 0.199999999999908 0  0.3650630746574081 0.199866017807523 0  0.476773013087985 0.1999999999998713 0  0.3417402379596385 0.1998691686391011 0  0.3796850840047755 0.200000000000134 0  0.4618364086138087 0.1999999999998546 0  0.4917096175621762 0.1999999999998808 0  0.3946216884789568 0.2000000000001512 0  0.446899804139621 0.1999999999998389 0  0.4089549580935208 0.1998691686391595 0  0.4322718174608562 0.200127451265745 0  0.4201487168029707 0.1999966199048527 0  0.3528922713220932 0.2000185703532356 0  0.5633122436674589 0.1999814296467508 0  0.3006558810093873 0.1999966199048318 0  0.5815926498168407 0.1966545283159175 0  0.2677053789419034 0.1964246479135325 0  0.5290511287476175 0.1970915826863981 0  0.5439877332217911 0.197091582686394 0  0.2825131256993216 0.2035478995978015 0  0.3199386661080599 0.202908417313604 0  0.4842413153250809 0.1970915826863873 0  0.5141145242734466 0.1970915826863843 0  0.3722167817676917 0.2029084173136195 0  0.4693047108508938 0.1970915826863783 0  0.3348752705822316 0.202908417313609 0  0.3871533862418661 0.2029084173136212 0  0.4543681063767183 0.1970915826863795 0  0.4991779197992749 0.1970915826863902 0  0.4020059614928624 0.203547899597858 0  0.4394315019025246 0.1970915826863714 0  0.2550657455369551 0.2034088125358657 0  0.2548908499171161 0.1966940311614271 0  0.5946539510196798 0.2024302972968126 0  0.267698176732111 0.2039977513680092 0  0.4261685417851465 0.196409292431739 0  0.3590076176283495 0.196411355804271 0  0.5571672426447437 0.2036011176410121 0  0.3066757059912147 0.1964092924317024 0  0.594380730180568 0.1966558399668133 0  0.4842413153245942 0.2040749161535287 0  0.4693047108503577 0.2040749161535231 0  0.3871533862424271 0.1959250838464788 0  0.372246743208829 0.1959123236376545 0  0.5141145242731028 0.2040749161535395 0  0.4543681063761134 0.2040749161535186 0  0.4019979587101454 0.1959834479682427 0  0.4394608940728603 0.2040870543693135 0  0.5439623148931173 0.2040856076781014 0  0.5290511287473298 0.2040749161535501 0  0.4991779197988497 0.2040749161535382 0  0.3347912413592433 0.1959225448935183 0  0.3199680582793816 0.1959123018030061 0  0.2825051229162361 0.1959834479681729 0  0.3590471196690275 0.2036304442587945 0  0.5571594006495384 0.1963685282145804 0  0.3067669986803285 0.203627750582736 0  0.4262598344738712 0.2036568242185335 0  0.5814408164431408 0.2041285596160068 0  0.5688286748170428 0.1961819304477386 0  0.4145905603063645 0.2038180695522843 0  0.3473758401724931 0.2038180695522752 0  0.2950977245128307 0.2038180695522663 0  0.5688286748170693 0.203818069552238 0  0.2950977245127906 0.1961819304477774 0  0.3473758401723931 0.1961819304478349 0  0.4145905603061963 0.1961819304479011 0  0.2601812407614425 0.2056861609747042
[...]
<PointData  Vectors="f_40-1"> 
<DataArray  type="Float64"  Name="f_40-1"  NumberOfComponents="3" format="ascii">0.0000000000000000e+00 0.0000000000000000e+00 0.0000000000000000e+00  0.0000000000000000e+00 0.0000000000000000e+00 0.0000000000000000e+00  0.0000000000000000e+00 0.0000000000000000e+00 0.0000000000000000e+00  0.0000000000000000e+00 0.0000000000000000e+00 0.0000000000000000e+00  7.8731886047714260e-05 2.8415060179093872e-03 0.0000000000000000e+00  -1.1841672846455234e-04 2.8409544263499641e-03 0.0000000000000000e+00  0.0000000000000000e+00 0.0000000000000000e+00 0.0000000000000000e+00  0.0000000000000000e+00 0.0000000000000000e+00 0.0000000000000000e+00  0.0000000000000000e+00 0.0000000000000000e+00 0.0000000000000000e+00  0.0000000000000000e+00 0.0000000000000000e+00 0.0000000000000000e+00  -1.9943967286458137e-05 2.8412258942905298e-03 0.0000000000000000e+00  0.0000000000000000e+00 0.0000000000000000e+00 0.0000000000000000e+00  0.0000000000000000e+00 0.0000000000000000e+00 0.0000000000000000e+00  0.0000000000000000e+00 0.0000000000000000e+00 0.0000000000000000e+00  0.0000000000000000e+00 0.0000000000000000e+00 0.0000000000000000e+00  0.0000000000000000e+00 0.0000000000000000e+00 0.0000000000000000e+00  0.0000000000000000e+00 0.0000000000000000e+00 0.0000000000000000e+00  0.0000000000000000e+00 0.0000000000000000e+00 0.0000000000000000e+00  0.0000000000000000e+00 0.0000000000000000e+00 0.0000000000000000e+00  0.0000000000000000e+00 0.0000000000000000e+00 0.0000000000000000e+00  0.0000000000000000e+00 0.0000000000000000e+00 0.0000000000000000e+00  0.0000000000000000e+00 0.0000000000000000e+00 0.0000000000000000e+00  0.0000000000000000e+00 0.0000000000000000e+00 0.0000000000000000e+00  0.0000000000000000e+00 0.0000000000000000e+00 0.0000000000000000e+00  0.0000000000000000e+00 0.0000000000000000e+00 0.0000000000000000e+00  0.0000000000000000e+00 0.0000000000000000e+00 0.0000000000000000e+00  0.0000000000000000e+00 0.0000000000000000e+00 0.0000000000000000e+00  0.0000000000000000e+00 0.0000000000000000e+00 0.0000000000000000e+00  0.0000000000000000e+00 0.0000000000000000e+00 0.0000000000000000e+00  0.0000000000000000e+00 0.0000000000000000e+00 0.0000000000000000e+00  0.0000000000000000e+00 0.0000000000000000e+00 0.0000000000000000e+00  0.0000000000000000e+00 0.0000000000000000e+00 0.0000000000000000e+00  0.0000000000000000e+00 0.0000000000000000e+00 0.0000000000000000e+00  0.0000000000000000e+00 0.0000000000000000e+00 0.0000000000000000e+00  0.0000000000000000e+00 0.0000000000000000e+00 0.0000000000000000e+00  0.0000000000000000e+00 0.0000000000000000e+00 0.0000000000000000e+00  0.0000000000000000e+00 0.0000000000000000e+00 0.0000000000000000e+00  0.0000000000000000e+00 0.0000000000000000e+00 0.0000000000000000e+00  0.0000000000000000e+00 0.0000000000000000e+00 0.0000000000000000e+00  0.0000000000000000e+00 0.0000000000000000e+00 0.0000000000000000e+00  0.0000000000000000e+00 0.0000000000000000e+00 0.0000000000000000e+00  0.0000000000000000e+00 0.0000000000000000e+00 0.0000000000000000e+00  0.0000000000000000e+00 0.0000000000000000e+00 0.0000000000000000e+00  0.0000000000000000e+00 0.0000000000000000e+00 0.0000000000000000e+00  0.0000000000000000e+00 0.0000000000000000e+00 0.0000000000000000e+00  0.0000000000000000e+00 0.0000000000000000e+00 0.0000000000000000e+00  0.0000000000000000e+00 0.0000000000000000e+00 0.0000000000000000e+00  0.0000000000000000e+00 0.0000000000000000e+00 0.0000000000000000e+00  0.0000000000000000e+00 0.0000000000000000e+00 0.0000000000000000e+00  0.0000000000000000e+00 0.0000000000000000e+00 0.0000000000000000e+00  0.0000000000000000e+00 0.0000000000000000e+00 0.0000000000000000e+00  0.0000000000000000e+00 0.0000000000000000e+00 0.0000000000000000e+00  0.0000000000000000e+00 0.0000000000000000e+00 0.0000000000000000e+00  0.0000000000000000e+00 0.0000000000000000e+00 0.0000000000000000e+00  0.0000000000000000e+00 0.0000000000000000e+00 0.0000000000000000e+00  0.0000000000000000e+00 0.0000000000000000e+00 0.0000000000000000e+00  0.0000000000000000e+00 0.0000000000000000e+00 0.0000000000000000e+00  0.0000000000000000e+00 0.0000000000000000e+00 0.0000000000000000e+00  0.0000000000000000e+00 0.0000000000000000e+00 0.0000000000000000e+00  0.0000000000000000e+00 0.0000000000000000e+00 0.0000000000000000e+00  0.0000000000000000e+00 0.0000000000000000e+00 0.0000000000000000e+00  0.0000000000000000e+00 0.0000000000000000e+00 0.0000000000000000e+00  0.0000000000000000e+00 0.0000000000000000e+00 0.0000000000000000e+00  0.0000000000000000e+00 0.0000000000000000e+00 0.0000000000000000e+00  0.0000000000000000e+00 0.0000000000000000e+00 0.0000000000000000e+00  0.0000000000000000e+00 0.0000000000000000e+00 0.0000000000000000e+00  0.0000000000000000e+00 0.0000000000000000e+00 0.0000000000000000e+00  0.0000000000000000e+00 0.0000000000000000e+00 0.0000000000000000e+00  0.0000000000000000e+00 0.0000000000000000e+00 0.0000000000000000e+00  0.0000000000000000e+00 0.0000000000000000e+00 0.0000000000000000e+00  0.0000000000000000e+00 0.0000000000000000e+00 0.0000000000000000e+00  0.0000000000000000e+00 0.0000000000000000e+00 0.0000000000000000e+00  0.0000000000000000e+00 0.0000000000000000e+00 0.0000000000000000e+00  0.0000000000000000e+00 0.0000000000000000e+00 0.0000000000000000e+00  0.0000000000000000e+00 0.0000000000000000e+00 0.0000000000000000e+00  0.0000000000000000e+00 0.0000000000000000e+00 0.0000000000000000e+00  0.0000000000000000e+00 0.0000000000000000e+00 0.0000000000000000e+00  0.0000000000000000e+00 0.0000000000000000e+00 0.0000000000000000e+00  0.0000000000000000e+00 0.0000000000000000e+00 0.0000000000000000e+00  0.0000000000000000e+00 0.0000000000000000e+00 0.0000000000000000e+00  0.0000000000000000e+00 0.0000000000000000e+00 0.0000000000000000e+00  0.0000000000000000e+00 0.0000000000000000e+00 0.0000000000000000e+00  0.0000000000000000e+00 0.0000000000000000e+00 0.0000000000000000e+00  0.0000000000000000e+00 0.0000000000000000e+00 0.0000000000000000e+00  0.0000000000000000e+00 0.0000000000000000e+00 0.0000000000000000e+00  0.0000000000000000e+00 0.0000000000000000e+00 0.0000000000000000e+00  0.0000000000000000e+00 0.0000000000000000e+00 0.0000000000000000e+00  0.0000000000000000e+00 0.0000000000000000e+00 0.0000000000000000e+00  0.0000000000000000e+00 0.0000000000000000e+00 0.0000000000000000e+00  0.0000000000000000e+00 0.0000000000000000e+00 0.0000000000000000e+00  0.0000000000000000e+00 0.0000000000000000e+00 0.0000000000000000e+00  0.0000000000000000e+00 0.0000000000000000e+00 0.0000000000000000e+00  0.0000000000000000e+00 0.0000000000000000e+00 0.0000000000000000e+00  0.0000000000000000e+00 0.0000000000000000e+00 0.0000000000000000e+00  0.0000000000000000e+00 0.0000000000000000e+00 0.0000000000000000e+00  0.0000000000000000e+00 0.0000000000000000e+00 0.0000000000000000e+00  0.0000000000000000e+00 0.0000000000000000e+00 0.0000000000000000e+00  0.0000000000000000e+00 0.0000000000000000e+00 0.0000000000000000e+00  0.0000000000000000e+00 0.0000000000000000e+00 0.0000000000000000e+00  0.0000000000000000e+00 0.0000000000000000e+00 0.0000000000000000e+00  0.0000000000000000e+00 0.0000000000000000e+00 0.0000000000000000e+00  0.0000000000000000e+00 0.0000000000000000e+00 0.0000000000000000e+00  0.0000000000000000e+00 0.0000000000000000e+00 0.0000000000000000e+00  0.0000000000000000e+00 0.0000000000000000e+00 0.0000000000000000e+00  0.0000000000000000e+00 0.0000000000000000e+00 0.0000000000000000e+00  0.0000000000000000e+00 0.0000000000000000e+00 0.0000000000000000e+00  0.0000000000000000e+00 0.0000000000000000e+00 0.0000000000000000e+00  0.0000000000000000e+00 0.0000000000000000e+00 0.0000000000000000e+00  0.0000000000000000e+00 0.0000000000000000e+00 0.0000000000000000e+00  0.0000000000000000e+00 0.0000000000000000e+00 0.0000000000000000e+00  0.0000000000000000e+00 0.0000000000000000e+00 0.0000000000000000e+00  0.0000000000000000e+00 0.0000000000000000e+00 0.0000000000000000e+00  0.0000000000000000e+00 0.0000000000000000e+00 0.0000000000000000e+00  0.0000000000000000e+00 0.0000000000000000e+00 0.0000000000000000e+00  0.0000000000000000e+00 0.0000000000000000e+00 0.0000000000000000e+00  0.0000000000000000e+00 0.0000000000000000e+00 0.0000000000000000e+00  0.0000000000000000e+00 0.0000000000000000e+00 0.0000000000000000e+00  0.0000000000000000e+00 0.0000000000000000e+00 0.0000000000000000e+00  0.0000000000000000e+00 0.0000000000000000e+00 0.0000000000000000e+00  0.0000000000000000e+00 0.0000000000000000e+00 0.0000000000000000e+00  0.0000000000000000e+00 0.0000000000000000e+00 0.0000000000000000e+00  0.0000000000000000e+00 0.0000000000000000e+00 0.0000000000000000e+00  0.0000000000000000e+00 0.0000000000000000e+00 0.0000000000000000e+00  0.0000000000000000e+00 0.0000000000000000e+00 0.0000000000000000e+00  0.0000000000000000e+00 0.0000000000000000e+00 0.0000000000000000e+00  0.0000000000000000e+00 0.0000000000000000e+00 0.0000000000000000e+00  0.0000000000000000e+00 0.0000000000000000e+00 0.0000000000000000e+00  0.0000000000000000e+00 0.0000000000000000e+00 0.0000000000000000e+00  0.0000000000000000e+00 0.0000000000000000e+00 0.0000000000000000e+00  0.0000000000000000e+00 0.0000000000000000e+00 0.0000000000000000e+00  0.0000000000000000e+00 0.0000000000000000e+00 0.0000000000000000e+00  0.0000000000000000e+00 0.0000000000000000e+00 0.0000000000000000e+00  0.0000000000000000e+00 0.0000000000000000e+00 0.0000000000000000e+00  0.0000000000000000e+00 0.0000000000000000e+00 0.0000000000000000e+00  0.0000000000000000e+00 0.0000000000000000e+00 0.0000000000000000e+00  0.0000000000000000e+00 0.0000000000000000e+00 0.0000000000000000e+00  0.0000000000000000e+00 0.0000000000000000e+00 0.0000000000000000e+00  0.0000000000000000e+00 0.0000000000000000e+00 0.0000000000000000e+00  0.0000000000000000e+00 0.0000000000000000e+00 0.0000000000000000e+00  0.0000000000000000e+00 0.0000000000000000e+00 0.0000000000000000e+00  0.0000000000000000e+00 0.0000000000000000e+00 0.0000000000000000e+00  0.0000000000000000e+00 0.0000000000000000e+00 0.0000000000000000e+00  0.0000000000000000e+00 0.0000000000000000e+00 0.0000000000000000e+00  -8.0383113327597773e-06 7.7387248061830842e-06 0.0000000000000000e+00  -1.6985664009092642e-05 1.7125940964926873e-05 0.0000000000000000e+00  -2.4794265358027337e-05 3.2076606776494632e-05 0.0000000000000000e+00  -3.3061423538520493e-05 5.2912633492778238e-05 0.0000000000000000e+00  -3.9865611575423142e-05 7.8487130815512444e-05 0.0000000000000000e+00  -4.7342808407452404e-05 1.0922114402918219e-04 0.0000000000000000e+00  -5.3274931475348119e-05 1.4364769175551439e-04 0.0000000000000000e+00  -5.8874334443020403e-05 1.8282572652480092e-04 0.0000000000000000e+00  -6.5097619262203911e-05 2.2550065538006473e-04 0.0000000000000000e+00  -6.9747769991400536e-05 2.7169004624629580e-04 0.0000000000000000e+00  -7.5180539646077534e-05 3.2127348580871179e-04 0.0000000000000000e+00  -7.9181767685560533e-05 3.7379900927511655e-04 0.0000000000000000e+00  -8.3671090899907981e-05 4.2911149216720828e-04 0.0000000000000000e+00  -8.7160598197541712e-05 4.8657613241808221e-04 0.0000000000000000e+00  -9.0391133929011065e-05 5.4658870511549895e-04 0.0000000000000000e+00  -9.3860816919410183e-05 6.0843189045932736e-04 0.0000000000000000e+00  -9.6425413141387447e-05 6.7203961872741743e-04 0.0000000000000000e+00  -9.9274905433894661e-05 7.3732254200596853e-04 0.0000000000000000e+00  -1.0135420076076650e-04 8.0393670821854641e-04 0.0000000000000000e+00  -1.0360650074969474e-04 8.7179388024833944e-04 0.0000000000000000e+00  -1.0533953538735217e-04 9.4069480821668667e-04 0.0000000000000000e+00  -1.0707927564329757e-04 1.0105725396664096e-03 0.0000000000000000e+00  -1.0844811142525168e-04 1.0810929799192101e-03 0.0000000000000000e+00  -1.0966272284883357e-04 1.1523864757471995e-03 0.0000000000000000e+00  -1.1087863628085368e-04 1.2241650934935011e-03 0.0000000000000000e+00  -1.1183813384037217e-04 1.2964378159968318e-03 0.0000000000000000e+00  -1.1271439028726501e-04 1.3691330102768976e-03 0.0000000000000000e+00  -1.1344571811681446e-04 1.4420896036094893e-03 0.0000000000000000e+00  -1.1409952582197894e-04 1.5153402810761600e-03 0.0000000000000000e+00  -1.1464605625591215e-04 1.5887446782142311e-03 0.0000000000000000e+00  -1.1512618504582241e-04 1.6623258368790208e-03 0.0000000000000000e+00  -1.1552710212946101e-04 1.7359741338353074e-03 0.0000000000000000e+00  -1.1587555921640604e-04 1.8097102713582898e-03 0.0000000000000000e+00  -1.1616678111223853e-04 1.8834527317626280e-03 0.0000000000000000e+00  -1.1641578803618515e-04 1.9572249434462352e-03 0.0000000000000000e+00  -1.1663315742457315e-04 2.0309738337448606e-03 0.0000000000000000e+00  -1.1682352901772327e-04 2.1047138822622999e-03 0.0000000000000000e+00  -1.1699843853571167e-04 2.1784203146537743e-03 0.0000000000000000e+00  -1.1715709644011925e-04 2.2521024986824675e-03 0.0000000000000000e+00  -1.1731318690387288e-04 2.3257562414977359e-03 0.0000000000000000e+00  -1.1746355846356410e-04 2.3993823086043971e-03 0.0000000000000000e+00  -1.1762117884365537e-04 2.4729919134634181e-03 0.0000000000000000e+00  -1.1777815275383447e-04 2.5465885790763752e-03 0.0000000000000000e+00  -1.1793849067071773e-04 2.6201805156765958e-03 0.0000000000000000e+00  -1.1810810518020557e-04 2.6937779014563606e-03 0.0000000000000000e+00  -1.1827375340861827e-04 2.7673749928548695e-03 0.0000000000000000e+00  -6.9208473491428363e-05 2.8410908438834329e-03 0.0000000000000000e+00  2.9360567784999816e-05 2.8413609193676430e-03 0.0000000000000000e+00  7.8865326473314567e-05 2.7678469554549144e-03 0.0000000000000000e+00  7.9029591575286213e-05 2.6942324260923415e-03 0.0000000000000000e+00  7.9202941777629465e-05 2.6206276691226010e-03 0.0000000000000000e+00  7.9382027003255839e-05 2.5470166859952376e-03 0.0000000000000000e+00  7.9566200406767099e-05 2.4733974319220173e-03 0.0000000000000000e+00  7.9765060695138781e-05 2.3997605483244188e-03 0.0000000000000000e+00  7.9976513557203350e-05 2.3261022757859154e-03 0.0000000000000000e+00  8.0193228868306640e-05 2.2524183719708781e-03 0.0000000000000000e+00  8.0424395320775736e-05 2.1787015990904902e-03 0.0000000000000000e+00  8.0655271886495637e-05 2.1049523726513150e-03 0.0000000000000000e+00  8.0893286210939429e-05 2.0311731343858413e-03 0.0000000000000000e+00  8.1129027401698927e-05 1.9573718074345071e-03 0.0000000000000000e+00  8.1355332059473040e-05 1.8835574760147488e-03 0.0000000000000000e+00  8.1576755739909434e-05 1.8097528761731156e-03 0.0000000000000000e+00  8.1759301485987421e-05 1.7359715222769476e-03 0.0000000000000000e+00  8.1940819055672980e-05 1.6622556789707124e-03 0.0000000000000000e+00  8.2044519449040465e-05 1.5886249883207031e-03 0.0000000000000000e+00  8.2158840614246812e-05 1.5151421686940903e-03 0.0000000000000000e+00  8.2145747506527495e-05 1.4418352736885437e-03 0.0000000000000000e+00  8.2162457956965837e-05 1.3687872970241644e-03 0.0000000000000000e+00  8.1982976717786445e-05 1.2960330121226230e-03 0.0000000000000000e+00  8.1859625575804703e-05 1.2236807779135463e-03 0.0000000000000000e+00  8.1469486288928832e-05 1.1517896801788298e-03 0.0000000000000000e+00  8.1121064488730828e-05 1.0804110371143399e-03 0.0000000000000000e+00  8.0669336050038880e-05 1.0098064688695049e-03 0.0000000000000000e+00  7.9896761521497725e-05 9.3980773728390707e-04 0.0000000000000000e+00  7.9102008748044785e-05 8.7083835928970126e-04 0.0000000000000000e+00  7.7993094080238185e-05 8.0283186620449360e-04 0.0000000000000000e+00  7.6812413837781828e-05 7.3613048208737164e-04 0.0000000000000000e+00  7.5266430816725008e-05 6.7073481619881901e-04 0.0000000000000000e+00  7.3639915752449298e-05 6.0693420449986837e-04 0.0000000000000000e+00  7.1361043653639741e-05 5.4509336666160165e-04 0.0000000000000000e+00  6.9313137586297870e-05 4.8493138063575124e-04 0.0000000000000000e+00  6.7025233902179434e-05 4.2738739136658686e-04 0.0000000000000000e+00  6.3892556674800729e-05 3.7176855266886046e-04 0.0000000000000000e+00  6.0813347868914679e-05 3.1921811134407173e-04 0.0000000000000000e+00  5.7092172273223527e-05 2.6948272196293690e-04 0.0000000000000000e+00  5.3359963581844980e-05 2.2301758259908567e-04 0.0000000000000000e+00  4.8527485444703686e-05 1.8042559988783288e-04 0.0000000000000000e+00  4.4257177749979578e-05 1.4106031434200114e-04 0.0000000000000000e+00  3.9692118774362658e-05 1.0652367014719744e-04 0.0000000000000000e+00  3.3703708154139142e-05 7.5530704604834199e-05 0.0000000000000000e+00  2.8104082106773295e-05 4.9745599286000509e-05 0.0000000000000000e+00  2.1176081750831706e-05 2.9082605048941166e-05 0.0000000000000000e+00  1.4844043881481220e-05 1.4025194695212125e-05 0.0000000000000000e+00  7.0618427059757016e-06 4.7351090069244819e-06 0.0000000000000000e+00  -6.0850350957050634e-07 6.7677633706487033e-06 0.0000000000000000e+00  -2.0920881997463589e-05 2.7306360768634503e-03 0.0000000000000000e+00  -2.1341025660432737e-05 2.5899729928890399e-03 0.0000000000000000e+00  -1.9882918887608588e-05 2.3601326835340501e-03 0.0000000000000000e+00  -2.0395719454744804e-06 3.6806686289122157e-05 0.0000000000000000e+00  -1.8405315579113471e-05 2.2154288996943149e-03 0.0000000000000000e+00  -2.8949138824087508e-06 8.6190891624174137e-05 0.0000000000000000e+00  -1.7994772513584359e-05 2.0679646837952828e-03 0.0000000000000000e+00  -4.7150549651173716e-06 2.0178088227850916e-04 0.0000000000000000e+00  -6.7396897999380297e-06 2.9300167700366421e-04 0.0000000000000000e+00  -1.7538350318660870e-05 1.9203938351550617e-03 0.0000000000000000e+00  -8.6936823133630595e-06 5.7785109366044311e-04 0.0000000000000000e+00  -1.6452970692427585e-05 1.6253847899992196e-03 0.0000000000000000e+00  -6.9907977446821803e-06 3.9391233709384080e-04 0.0000000000000000e+00  -1.0901499683127475e-05 7.0288733955387777e-04 0.0000000000000000e+00  -1.5812615950572286e-05 1.4784210235704661e-03 0.0000000000000000e+00  -1.7026488181903559e-05 1.7728058510041494e-03 0.0000000000000000e+00  -1.1966758328953128e-05 8.3643702512702154e-04 0.0000000000000000e+00  -1.5095956875080778e-05 1.3323157645180341e-03 0.0000000000000000e+00  -1.1704818506849819e-05 9.6885274629423764e-04 0.0000000000000000e+00  -1.5545362712789384e-05 1.1905589000767737e-03 0.0000000000000000e+00  -1.3583037439729668e-05 1.0745952091277496e-03 0.0000000000000000e+00  -8.9860587142456406e-06 4.7952629338219666e-04 0.0000000000000000e+00  -1.8885435240584797e-05 2.4796450154850364e-03 0.0000000000000000e+00  -4.3652129035724071e-06 1.3733710483983870e-04 0.0000000000000000e+00  1.3486311948652725e-05 2.6598755941128613e-03 0.0000000000000000e+00  5.6900765143623125e-06 1.8768107542409355e-05 0.0000000000000000e+00  1.0509914713565421e-05 2.1417493238697484e-03 0.0000000000000000e+00  1.0099859660911249e-05 2.2891590883708942e-03 0.0000000000000000e+00  -1.4544559489534393e-05 6.1093001646267574e-05 0.0000000000000000e+00  -2.3962675494592968e-05 2.4544577986413448e-04 0.0000000000000000e+00  1.1922823607727427e-05 1.6990633720432593e-03 0.0000000000000000e+00  1.0953258209075806e-05 1.9942146940344408e-03 0.0000000000000000e+00  -3.5011699886468395e-05 6.3857898872197452e-04 0.0000000000000000e+00  1.2424859522623062e-05 1.5518174539566724e-03 0.0000000000000000e+00  -2.7570757829347481e-05 3.4483982765444660e-04 0.0000000000000000e+00  -3.7255567593470767e-05 7.6930948410329253e-04 0.0000000000000000e+00  1.2919778780668191e-05 1.4052160612482417e-03 0.0000000000000000e+00  1.1427676455339900e-05 1.8466077294236689e-03 0.0000000000000000e+00  -4.5055665262746626e-05 9.0449221270151863e-04 0.0000000000000000e+00  1.3395650730322884e-05 1.2597143609987993e-03 0.0000000000000000e+00  -1.4028862455657362e-06 1.8840701031536348e-06 0.0000000000000000e+00  1.0930199435410656e-06 1.0621031198966976e-06 0.0000000000000000e+00  -4.3764798079645281e-05 2.7884738827320928e-03 0.0000000000000000e+00  -9.1131058085147927e-06 2.0019711521867720e-05 0.0000000000000000e+00  2.0291912196051729e-05 1.1318974767593277e-03 0.0000000000000000e