<?xml version="1.0"?>
<VTKFile type="UnstructuredGrid"  version="0.1"  >
<UnstructuredGrid>
<Piece  NumberOfPoints="1419" NumberOfCells="2698">
<Points>
<DataArray  type="Float64"  NumberOfComponents="3"  format="ascii">0 0 0  0 0.41 0  2.5 0 0  2.5 0.41 0  0.6 0.19 0  0.6 0.21 0  0.25 0.2 0  0.15 0.2 0  0.2489897948556636 0.21 0  0.2489897948556636 0.19 0  0.6 0.2 0  0 0.3807142857143437 0  0 0.3514285714286952 0  0 0.3221428571430699 0  0 0.29285714285744 0  0 0.2635714285718054 0  0 0.2342857142861561 0  0 0.2050000000005308 0  0 0.175714285714732 0  0 0.1464285714289574 0  0 0.1171428571431897 0  0 0.08785714285737878 0  0 0.05857142857161107 0  0 0.02928571428580012 0  0.03015443760436003 0 0  0.06140001986583606 0 0  0.09377624077125973 0 0  0.1273239957535082 0 0  0.1620856860351972 0 0  0.1981052433264291 0 0  0.235428184091502 0 0  0.2741016576309132 0 0  0.3141745521465447 0 0  0.3556974926295285 0 0  0.3987229542472677 0 0  0.4433053055141081 0 0  0.4895008759286886 0 0  0.5373680609405097 0 0  0.5869673343216626 0 0  0.6383613676634521 0 0  0.6916151138468254 0 0  0.7467958595648856 0 0  0.8039733463919316 0 0  0.8632198139502143 0 0  0.9246101326867038 0 0  0.9882218810934433 0 0  1.054135445558498 0 0  1.122434100542598 0 0  1.193204177141305 0 0  1.266535089879536 0 0  1.342519516046404 0 0  1.421253448503939 0 0  1.502836389106271 0 0  1.587371439758838 0 0  1.674965418777374 0 0  1.765729001825544 0 0  1.859776908880082 0 0  1.957227977487062 0 0  2.058205329869943 0 0  2.162836591189951 0 0  2.271253957290865 0 0  2.383594446803425 0 0  2.5 0.1024999999997612 0  2.5 0.2049999999994743 0  2.5 0.3074999999997183 0  2.383594446803656 0.41 0  2.271253957291315 0.41 0  2.162836591190598 0.41 0  2.058205329870775 0.41 0  1.957227977488067 0.41 0  1.859776908881246 0.41 0  1.765729001826854 0.41 0  1.674965418778818 0.41 0  1.58737143976041 0.41 0  1.502836389107956 0.41 0  1.421253448505726 0.41 0  1.342519516048286 0.41 0  1.266535089881505 0.41 0  1.193204177143353 0.41 0  1.122434100544716 0.41 0  1.05413544556068 0.41 0  0.9882218810956305 0.41 0  0.9246101326886647 0.41 0  0.8632198139519631 0.41 0  0.8039733463934788 0.41 0  0.7467958595662458 0.41 0  0.6916151138480078 0.41 0  0.6383613676644679 0.41 0  0.5869673343225223 0.41 0  0.5373680609412221 0.41 0  0.4895008759292634 0.41 0  0.4433053055145528 0.41 0  0.3987229542475914 0.41 0  0.3556974926297398 0.41 0  0.3141745521466497 0.41 0  0.2741016576310038 0.41 0  0.2354281840915826 0.41 0  0.1981052433265003 0.41 0  0.1620856860352591 0.41 0  0.1273239957535623 0.41 0  0.09377624077128965 0.41 0  0.06140001986584975 0.41 0  0.03015443760436654 0.41 0  0.2497468076502589 0.2050254481002335 0  0.2497468076502614 0.1949745518997913 0  0.2469965252529372 0.1829317073451959 0  0.2439893735792749 0.1762316384219906 0  0.2400332147834255 0.1700443375285386 0  0.2352133972704371 0.1645032867342007 0  0.2296339016332438 0.1597280261969788 0  0.2234150974217223 0.1558215752574715 0  0.2166911463437691 0.1528682099456123 0  0.2096071079204251 0.1509316448471593 0  0.2023158100364996 0.1500536585536553 0  0.194974551899914 0.1502531923497262 0  0.1877417105387872 0.1515259415822739 0  0.1807733240461124 0.153844448527136 0  0.1742197252835808 0.15715869474974 0  0.1682222986673531 0.1613971801805478 0  0.162910430003803 0.1664684656256651 0  0.1583987151779087 0.1722631454351573 0  0.1547844879126891 0.178656207771761 0  0.1521457199348551 0.1855097315605723 0  0.1505393388476355 0.1926758619366523 0  0.1505393388476328 0.2073241380633295 0  0.1521457199348437 0.2144902684393899 0  0.1547844879126531 0.221343792228163 0  0.1583987151778488 0.2277368545647528 0  0.1629104300036858 0.2335315343742052 0  0.1682222986671726 0.2386028198193036 0  0.1742197252833576 0.2428413052501257 0  0.1807733240458683 0.2461555514727623 0  0.1877417105384929 0.2484740584176516 0  0.1949745518995776 0.2497468076502398 0  0.202315810036185 0.2499463414463592 0  0.2096071079201568 0.2490683551528932 0  0.2166911463435495 0.2471317900544655 0  0.2234150974215506 0.2441784247426195 0  0.2296339016331197 0.2402719738031125 0  0.2352133972703547 0.2354967132658811 0  0.2400332147833751 0.2299556624715287 0  0.2439893735792577 0.2237683615780412 0  0.246996525252926 0.2170682926548348 0  0.25645809709277 0.21 0  0.2639263993298655 0.21 0  0.271394701566961 0.21 0  0.2788630038040554 0.21 0  0.2863313060411479 0.21 0  0.2937996082782405 0.21 0  0.301267910515333 0.21 0  0.3087362127524279 0.21 0  0.3162045149895234 0.21 0  0.3236728172265972 0.21 0  0.3311411194636928 0.21 0  0.3386094217007701 0.21 0  0.3460777239378666 0.21 0  0.3535460261749672 0.21 0  0.3610143284120516 0.21 0  0.3684826306491596 0.21 0  0.3759509328862226 0.21 0  0.383419235123329 0.21 0  0.3908875373604028 0.21 0  0.3983558395975142 0.21 0  0.4058241418345938 0.21 0  0.4132924440716992 0.21 0  0.4207607463087888 0.21 0  0.4282290485459029 0.21 0  0.4356973507830418 0.21 0  0.4431656530201649 0.21 0  0.4506339552573136 0.21 0  0.4581022574944306 0.21 0  0.4655705597315852 0.21 0  0.4730388619686996 0.21 0  0.480507164205851 0.21 0  0.4879754664429498 0.21 0  0.4954437686800938 0.21 0  0.502912070917267 0.21 0  0.5103803731544119 0.21 0  0.5178486753915261 0.21 0  0.5253169776286404 0.21 0  0.5327852798657868 0.21 0  0.5402535821029386 0.21 0  0.54772188434007 0.21 0  0.5551901865771842 0.21 0  0.5626584888143201 0.21 0  0.5701267910514778 0.21 0  0.5775950932886138 0.21 0  0.5850633955257281 0.21 0  0.5925316977628483 0.21 0  0.6 0.2050000000000054 0  0.6 0.1950000000000217 0  0.5925316977628897 0.19 0  0.5850633955257988 0.19 0  0.5775950932887378 0.19 0  0.5701267910515998 0.19 0  0.5626584888145268 0.19 0  0.5551901865773963 0.19 0  0.547721884340339 0.19 0  0.5402535821032429 0.19 0  0.5327852798661811 0.19 0  0.5253169776290537 0.19 0  0.5178486753919799 0.19 0  0.5103803731549078 0.19 0  0.502912070917822 0.19 0  0.4954437686807294 0.19 0  0.4879754664436223 0.19 0  0.4805071642065402 0.19 0  0.4730388619694271 0.19 0  0.4655705597323621 0.19 0  0.4581022574952563 0.19 0  0.4506339552581777 0.19 0  0.4431656530210671 0.19 0  0.4356973507839815 0.19 0  0.4282290485468779 0.19 0  0.4207607463097617 0.19 0  0.4132924440726327 0.19 0  0.4058241418354857 0.19 0  0.3983558395983636 0.19 0  0.3908875373612097 0.19 0  0.3834192351240934 0.19 0  0.3759509328869369 0.19 0  0.3684826306498175 0.19 0  0.361014328412667 0.19 0  0.3535460261755617 0.19 0  0.3460777239384295 0.19 0  0.3386094217012945 0.19 0  0.3311411194641595 0.19 0  0.3236728172270245 0.19 0  0.3162045149898895 0.19 0  0.3087362127527544 0.19 0  0.3012679105156187 0.19 0  0.2937996082784807 0.19 0  0.2863313060413428 0.19 0  0.2788630038042048 0.19 0  0.2713947015670686 0.19 0  0.2639263993299336 0.19 0  0.2564580970927985 0.19 0  0.2607803159922026 0.2000727136295815 0  0.5887803774232762 0.2001272386983733 0  0.5745072403740523 0.2002044435018727 0  0.5511891430099709 0.2001122610077113 0  0.2751288526855082 0.20000000000002 0  0.5365194309847112 0.1999999999999436 0  0.2894621222999649 0.1998691686390484 0  0.5215828265105155 0.1999999999999228 0  0.3127789816668748 0.1998657885438805 0  0.3274069683451451 0.2000000000000796 0  0.5066462220363641 0.199999999999908 0  0.3650630746574081 0.199866017807523 0  0.476773013087985 0.1999999999998713 0  0.3417402379596385 0.1998691686391011 0  0.3796850840047755 0.200000000000134 0  0.4618364086138087 0.1999999999998546 0  0.4917096175621762 0.1999999999998808 0  0.3946216884789568 0.2000000000001512 0  0.446899804139621 0.1999999999998389 0  0.4089549580935208 0.1998691686391595 0  0.4322718174608562 0.200127451265745 0  0.4201487168029707 0.1999966199048527 0  0.3528922713220932 0.2000185703532356 0  0.5633122436674589 0.1999814296467508 0  0.3006558810093873 0.1999966199048318 0  0.5815926498168407 0.1966545283159175 0  0.2677053789419034 0.1964246479135325 0  0.5290511287476175 0.1970915826863981 0  0.5439877332217911 0.197091582686394 0  0.2825131256993216 0.2035478995978015 0  0.3199386661080599 0.202908417313604 0  0.4842413153250809 0.1970915826863873 0  0.5141145242734466 0.1970915826863843 0  0.3722167817676917 0.2029084173136195 0  0.4693047108508938 0.1970915826863783 0  0.3348752705822316 0.202908417313609 0  0.3871533862418661 0.2029084173136212 0  0.4543681063767183 0.1970915826863795 0  0.4991779197992749 0.1970915826863902 0  0.4020059614928624 0.203547899597858 0  0.4394315019025246 0.1970915826863714 0  0.2550657455369551 0.2034088125358657 0  0.2548908499171161 0.1966940311614271 0  0.5946539510196798 0.2024302972968126 0  0.267698176732111 0.2039977513680092 0  0.4261685417851465 0.196409292431739 0  0.3590076176283495 0.196411355804271 0  0.5571672426447437 0.2036011176410121 0  0.3066757059912147 0.1964092924317024 0  0.594380730180568 0.1966558399668133 0  0.4842413153245942 0.2040749161535287 0  0.4693047108503577 0.2040749161535231 0  0.3871533862424271 0.1959250838464788 0  0.372246743208829 0.1959123236376545 0  0.5141145242731028 0.2040749161535395 0  0.4543681063761134 0.2040749161535186 0  0.4019979587101454 0.1959834479682427 0  0.4394608940728603 0.2040870543693135 0  0.5439623148931173 0.2040856076781014 0  0.5290511287473298 0.2040749161535501 0  0.4991779197988497 0.2040749161535382 0  0.3347912413592433 0.1959225448935183 0  0.3199680582793816 0.1959123018030061 0  0.2825051229162361 0.1959834479681729 0  0.3590471196690275 0.2036304442587945 0  0.5571594006495384 0.1963685282145804 0  0.3067669986803285 0.203627750582736 0  0.4262598344738712 0.2036568242185335 0  0.5814408164431408 0.2041285596160068 0  0.5688286748170428 0.1961819304477386 0  0.4145905603063645 0.2038180695522843 0  0.3473758401724931 0.2038180695522752 0  0.2950977245128307 0.2038180695522663 0  0.5688286748170693 0.203818069552238 0  0.2950977245127906 0.1961819304477774 0  0.3473758401723931 0.1961819304478349 0  0.4145905603061963 0.1961819304479011 0  0.2601812407614425 0.2056861609747042
[...]
<PointData  Vectors="f_40-1"> 
<DataArray  type="Float64"  Name="f_40-1"  NumberOfComponents="3" format="ascii">0.0000000000000000e+00 0.0000000000000000e+00 0.0000000000000000e+00  0.0000000000000000e+00 0.0000000000000000e+00 0.0000000000000000e+00  0.0000000000000000e+00 0.0000000000000000e+00 0.0000000000000000e+00  0.0000000000000000e+00 0.0000000000000000e+00 0.0000000000000000e+00  -1.1290812358960930e-05 -7.6074083485107110e-05 0.0000000000000000e+00  -5.3127754495406835e-06 -7.8349685651528221e-05 0.0000000000000000e+00  0.0000000000000000e+00 0.0000000000000000e+00 0.0000000000000000e+00  0.0000000000000000e+00 0.0000000000000000e+00 0.0000000000000000e+00  0.0000000000000000e+00 0.0000000000000000e+00 0.0000000000000000e+00  0.0000000000000000e+00 0.0000000000000000e+00 0.0000000000000000e+00  -8.4391683514487332e-06 -7.7211350728511490e-05 0.0000000000000000e+00  0.0000000000000000e+00 0.0000000000000000e+00 0.0000000000000000e+00  0.0000000000000000e+00 0.0000000000000000e+00 0.0000000000000000e+00  0.0000000000000000e+00 0.0000000000000000e+00 0.0000000000000000e+00  0.0000000000000000e+00 0.0000000000000000e+00 0.0000000000000000e+00  0.0000000000000000e+00 0.0000000000000000e+00 0.0000000000000000e+00  0.0000000000000000e+00 0.0000000000000000e+00 0.0000000000000000e+00  0.0000000000000000e+00 0.0000000000000000e+00 0.0000000000000000e+00  0.0000000000000000e+00 0.0000000000000000e+00 0.0000000000000000e+00  0.0000000000000000e+00 0.0000000000000000e+00 0.0000000000000000e+00  0.0000000000000000e+00 0.0000000000000000e+00 0.0000000000000000e+00  0.0000000000000000e+00 0.0000000000000000e+00 0.0000000000000000e+00  0.0000000000000000e+00 0.0000000000000000e+00 0.0000000000000000e+00  0.0000000000000000e+00 0.0000000000000000e+00 0.0000000000000000e+00  0.0000000000000000e+00 0.0000000000000000e+00 0.0000000000000000e+00  0.0000000000000000e+00 0.0000000000000000e+00 0.0000000000000000e+00  0.0000000000000000e+00 0.0000000000000000e+00 0.0000000000000000e+00  0.0000000000000000e+00 0.0000000000000000e+00 0.0000000000000000e+00  0.0000000000000000e+00 0.0000000000000000e+00 0.0000000000000000e+00  0.0000000000000000e+00 0.0000000000000000e+00 0.0000000000000000e+00  0.0000000000000000e+00 0.0000000000000000e+00 0.0000000000000000e+00  0.0000000000000000e+00 0.0000000000000000e+00 0.0000000000000000e+00  0.0000000000000000e+00 0.0000000000000000e+00 0.0000000000000000e+00  0.0000000000000000e+00 0.0000000000000000e+00 0.0000000000000000e+00  0.0000000000000000e+00 0.0000000000000000e+00 0.0000000000000000e+00  0.0000000000000000e+00 0.0000000000000000e+00 0.0000000000000000e+00  0.0000000000000000e+00 0.0000000000000000e+00 0.0000000000000000e+00  0.0000000000000000e+00 0.0000000000000000e+00 0.0000000000000000e+00  0.0000000000000000e+00 0.0000000000000000e+00 0.0000000000000000e+00  0.0000000000000000e+00 0.0000000000000000e+00 0.0000000000000000e+00  0.0000000000000000e+00 0.0000000000000000e+00 0.0000000000000000e+00  0.0000000000000000e+00 0.0000000000000000e+00 0.0000000000000000e+00  0.0000000000000000e+00 0.0000000000000000e+00 0.0000000000000000e+00  0.0000000000000000e+00 0.0000000000000000e+00 0.0000000000000000e+00  0.0000000000000000e+00 0.0000000000000000e+00 0.0000000000000000e+00  0.0000000000000000e+00 0.0000000000000000e+00 0.0000000000000000e+00  0.0000000000000000e+00 0.0000000000000000e+00 0.0000000000000000e+00  0.0000000000000000e+00 0.0000000000000000e+00 0.0000000000000000e+00  0.0000000000000000e+00 0.0000000000000000e+00 0.0000000000000000e+00  0.0000000000000000e+00 0.0000000000000000e+00 0.0000000000000000e+00  0.0000000000000000e+00 0.0000000000000000e+00 0.0000000000000000e+00  0.0000000000000000e+00 0.0000000000000000e+00 0.0000000000000000e+00  0.0000000000000000e+00 0.0000000000000000e+00 0.0000000000000000e+00  0.0000000000000000e+00 0.0000000000000000e+00 0.0000000000000000e+00  0.0000000000000000e+00 0.0000000000000000e+00 0.0000000000000000e+00  0.0000000000000000e+00 0.0000000000000000e+00 0.0000000000000000e+00  0.0000000000000000e+00 0.0000000000000000e+00 0.0000000000000000e+00  0.0000000000000000e+00 0.0000000000000000e+00 0.0000000000000000e+00  0.0000000000000000e+00 0.0000000000000000e+00 0.0000000000000000e+00  0.0000000000000000e+00 0.0000000000000000e+00 0.0000000000000000e+00  0.0000000000000000e+00 0.0000000000000000e+00 0.0000000000000000e+00  0.0000000000000000e+00 0.0000000000000000e+00 0.0000000000000000e+00  0.0000000000000000e+00 0.0000000000000000e+00 0.0000000000000000e+00  0.0000000000000000e+00 0.0000000000000000e+00 0.0000000000000000e+00  0.0000000000000000e+00 0.0000000000000000e+00 0.0000000000000000e+00  0.0000000000000000e+00 0.0000000000000000e+00 0.0000000000000000e+00  0.0000000000000000e+00 0.0000000000000000e+00 0.0000000000000000e+00  0.0000000000000000e+00 0.0000000000000000e+00 0.0000000000000000e+00  0.0000000000000000e+00 0.0000000000000000e+00 0.0000000000000000e+00  0.0000000000000000e+00 0.0000000000000000e+00 0.0000000000000000e+00  0.0000000000000000e+00 0.0000000000000000e+00 0.0000000000000000e+00  0.0000000000000000e+00 0.0000000000000000e+00 0.0000000000000000e+00  0.0000000000000000e+00 0.0000000000000000e+00 0.0000000000000000e+00  0.0000000000000000e+00 0.0000000000000000e+00 0.0000000000000000e+00  0.0000000000000000e+00 0.0000000000000000e+00 0.0000000000000000e+00  0.0000000000000000e+00 0.0000000000000000e+00 0.0000000000000000e+00  0.0000000000000000e+00 0.0000000000000000e+00 0.0000000000000000e+00  0.0000000000000000e+00 0.0000000000000000e+00 0.0000000000000000e+00  0.0000000000000000e+00 0.0000000000000000e+00 0.0000000000000000e+00  0.0000000000000000e+00 0.0000000000000000e+00 0.0000000000000000e+00  0.0000000000000000e+00 0.0000000000000000e+00 0.0000000000000000e+00  0.0000000000000000e+00 0.0000000000000000e+00 0.0000000000000000e+00  0.0000000000000000e+00 0.0000000000000000e+00 0.0000000000000000e+00  0.0000000000000000e+00 0.0000000000000000e+00 0.0000000000000000e+00  0.0000000000000000e+00 0.0000000000000000e+00 0.0000000000000000e+00  0.0000000000000000e+00 0.0000000000000000e+00 0.0000000000000000e+00  0.0000000000000000e+00 0.0000000000000000e+00 0.0000000000000000e+00  0.0000000000000000e+00 0.0000000000000000e+00 0.0000000000000000e+00  0.0000000000000000e+00 0.0000000000000000e+00 0.0000000000000000e+00  0.0000000000000000e+00 0.0000000000000000e+00 0.0000000000000000e+00  0.0000000000000000e+00 0.0000000000000000e+00 0.0000000000000000e+00  0.0000000000000000e+00 0.0000000000000000e+00 0.0000000000000000e+00  0.0000000000000000e+00 0.0000000000000000e+00 0.0000000000000000e+00  0.0000000000000000e+00 0.0000000000000000e+00 0.0000000000000000e+00  0.0000000000000000e+00 0.0000000000000000e+00 0.0000000000000000e+00  0.0000000000000000e+00 0.0000000000000000e+00 0.0000000000000000e+00  0.0000000000000000e+00 0.0000000000000000e+00 0.0000000000000000e+00  0.0000000000000000e+00 0.0000000000000000e+00 0.0000000000000000e+00  0.0000000000000000e+00 0.0000000000000000e+00 0.0000000000000000e+00  0.0000000000000000e+00 0.0000000000000000e+00 0.0000000000000000e+00  0.0000000000000000e+00 0.0000000000000000e+00 0.0000000000000000e+00  0.0000000000000000e+00 0.0000000000000000e+00 0.0000000000000000e+00  0.0000000000000000e+00 0.0000000000000000e+00 0.0000000000000000e+00  0.0000000000000000e+00 0.0000000000000000e+00 0.0000000000000000e+00  0.0000000000000000e+00 0.0000000000000000e+00 0.0000000000000000e+00  0.0000000000000000e+00 0.0000000000000000e+00 0.0000000000000000e+00  0.0000000000000000e+00 0.0000000000000000e+00 0.0000000000000000e+00  0.0000000000000000e+00 0.0000000000000000e+00 0.0000000000000000e+00  0.0000000000000000e+00 0.0000000000000000e+00 0.0000000000000000e+00  0.0000000000000000e+00 0.0000000000000000e+00 0.0000000000000000e+00  0.0000000000000000e+00 0.0000000000000000e+00 0.0000000000000000e+00  0.0000000000000000e+00 0.0000000000000000e+00 0.0000000000000000e+00  0.0000000000000000e+00 0.0000000000000000e+00 0.0000000000000000e+00  0.0000000000000000e+00 0.0000000000000000e+00 0.0000000000000000e+00  0.0000000000000000e+00 0.0000000000000000e+00 0.0000000000000000e+00  0.0000000000000000e+00 0.0000000000000000e+00 0.0000000000000000e+00  0.0000000000000000e+00 0.0000000000000000e+00 0.0000000000000000e+00  0.0000000000000000e+00 0.0000000000000000e+00 0.0000000000000000e+00  0.0000000000000000e+00 0.0000000000000000e+00 0.0000000000000000e+00  0.0000000000000000e+00 0.0000000000000000e+00 0.0000000000000000e+00  0.0000000000000000e+00 0.0000000000000000e+00 0.0000000000000000e+00  0.0000000000000000e+00 0.0000000000000000e+00 0.0000000000000000e+00  0.0000000000000000e+00 0.0000000000000000e+00 0.0000000000000000e+00  0.0000000000000000e+00 0.0000000000000000e+00 0.0000000000000000e+00  0.0000000000000000e+00 0.0000000000000000e+00 0.0000000000000000e+00  0.0000000000000000e+00 0.0000000000000000e+00 0.0000000000000000e+00  0.0000000000000000e+00 0.0000000000000000e+00 0.0000000000000000e+00  0.0000000000000000e+00 0.0000000000000000e+00 0.0000000000000000e+00  0.0000000000000000e+00 0.0000000000000000e+00 0.0000000000000000e+00  0.0000000000000000e+00 0.0000000000000000e+00 0.0000000000000000e+00  0.0000000000000000e+00 0.0000000000000000e+00 0.0000000000000000e+00  0.0000000000000000e+00 0.0000000000000000e+00 0.0000000000000000e+00  0.0000000000000000e+00 0.0000000000000000e+00 0.0000000000000000e+00  0.0000000000000000e+00 0.0000000000000000e+00 0.0000000000000000e+00  0.0000000000000000e+00 0.0000000000000000e+00 0.0000000000000000e+00  0.0000000000000000e+00 0.0000000000000000e+00 0.0000000000000000e+00  0.0000000000000000e+00 0.0000000000000000e+00 0.0000000000000000e+00  0.0000000000000000e+00 0.0000000000000000e+00 0.0000000000000000e+00  0.0000000000000000e+00 0.0000000000000000e+00 0.0000000000000000e+00  0.0000000000000000e+00 0.0000000000000000e+00 0.0000000000000000e+00  0.0000000000000000e+00 0.0000000000000000e+00 0.0000000000000000e+00  0.0000000000000000e+00 0.0000000000000000e+00 0.0000000000000000e+00  0.0000000000000000e+00 0.0000000000000000e+00 0.0000000000000000e+00  1.5526560688485552e-07 -2.1501104468169073e-06 0.0000000000000000e+00  3.9250337816847663e-07 -2.4883438044522191e-06 0.0000000000000000e+00  7.1273197582834890e-07 -2.8317552107404716e-06 0.0000000000000000e+00  1.0930025935328194e-06 -3.2373079864851426e-06 0.0000000000000000e+00  1.4549002976318262e-06 -3.7478651469490315e-06 0.0000000000000000e+00  1.8172355860540105e-06 -4.3941650162698329e-06 0.0000000000000000e+00  2.1338077174815748e-06 -5.1260399729815395e-06 0.0000000000000000e+00  2.4243019734364283e-06 -5.9730873777400322e-06 0.0000000000000000e+00  2.7202518940853388e-06 -6.9105940700947587e-06 0.0000000000000000e+00  2.9578462021501069e-06 -7.9328697777763250e-06 0.0000000000000000e+00  3.2015166802119917e-06 -9.0564794081946519e-06 0.0000000000000000e+00  3.3894488132257792e-06 -1.0251804123483375e-05 0.0000000000000000e+00  3.5733679891102784e-06 -1.1534048714560618e-05 0.0000000000000000e+00  3.7153725560193712e-06 -1.2881469354185128e-05 0.0000000000000000e+00  3.8290671318121129e-06 -1.4306834834428517e-05 0.0000000000000000e+00  3.9392618063262435e-06 -1.5797381298515244e-05 0.0000000000000000e+00  3.9997856340955000e-06 -1.7340188281311826e-05 0.0000000000000000e+00  4.0546142693953815e-06 -1.8956605490750742e-05 0.0000000000000000e+00  4.0640086448843346e-06 -2.0612293036743889e-05 0.0000000000000000e+00  4.0649579994621207e-06 -2.2332381272356002e-05 0.0000000000000000e+00  4.0271285772573334e-06 -2.4087420164633031e-05 0.0000000000000000e+00  3.9711316731653535e-06 -2.5896408365099939e-05 0.0000000000000000e+00  3.8853955923983175e-06 -2.7739112814571554e-05 0.0000000000000000e+00  3.7718525710055869e-06 -2.9623063514117936e-05 0.0000000000000000e+00  3.6474124737427478e-06 -3.1542029061884745e-05 0.0000000000000000e+00  3.4875958926561111e-06 -3.3485690892432405e-05 0.0000000000000000e+00  3.3056583451456608e-06 -3.5473761838944331e-05 0.0000000000000000e+00  3.0967006179722650e-06 -3.7472883401779675e-05 0.0000000000000000e+00  2.8654356191512859e-06 -3.9511465036345845e-05 0.0000000000000000e+00  2.6082609542820523e-06 -4.1558185407057401e-05 0.0000000000000000e+00  2.3286971815282967e-06 -4.3639150596069212e-05 0.0000000000000000e+00  2.0232912653488841e-06 -4.5724025116226845e-05 0.0000000000000000e+00  1.6962696775711867e-06 -4.7839654441379297e-05 0.0000000000000000e+00  1.3432239853097227e-06 -4.9954127406889424e-05 0.0000000000000000e+00  9.6692571984884075e-07 -5.2097347411604326e-05 0.0000000000000000e+00  5.6641213224737233e-07 -5.4237069709836999e-05 0.0000000000000000e+00  1.4363962438484817e-07 -5.6401053237377767e-05 0.0000000000000000e+00  -3.0330542858961838e-07 -5.8559384498595668e-05 0.0000000000000000e+00  -7.7357506617589684e-07 -6.0739219855426090e-05 0.0000000000000000e+00  -1.2688472770054095e-06 -6.2911245330739428e-05 0.0000000000000000e+00  -1.7904783917265378e-06 -6.5097588447972699e-05 0.0000000000000000e+00  -2.3310118771768723e-06 -6.7282445105000218e-05 0.0000000000000000e+00  -2.8997479372039953e-06 -6.9472968557396980e-05 0.0000000000000000e+00  -3.4823600224451839e-06 -7.1665042351148602e-05 0.0000000000000000e+00  -4.0929549283380631e-06 -7.3851125991245792e-05 0.0000000000000000e+00  -4.7130963145741966e-06 -7.6057242322109570e-05 0.0000000000000000e+00  -6.9256148415083758e-06 -7.7780144282087285e-05 0.0000000000000000e+00  -9.9084916948203360e-06 -7.6644288822364279e-05 0.0000000000000000e+00  -1.0684933171527089e-05 -7.3904413524609794e-05 0.0000000000000000e+00  -1.0055013372210504e-05 -7.1651158535258457e-05 0.0000000000000000e+00  -9.4366105021388014e-06 -6.9387782892340940e-05 0.0000000000000000e+00  -8.8433178610452104e-06 -6.7135958374226753e-05 0.0000000000000000e+00  -8.2649026128714275e-06 -6.4887012829058742e-05 0.0000000000000000e+00  -7.7140273485250400e-06 -6.2642636384380374e-05 0.0000000000000000e+00  -7.1784732655527812e-06 -6.0405990156092583e-05 0.0000000000000000e+00  -6.6689890834231610e-06 -5.8167065348715338e-05 0.0000000000000000e+00  -6.1779594195177890e-06 -5.5946836879467190e-05 0.0000000000000000e+00  -5.7101227851045007e-06 -5.3720705445719141e-05 0.0000000000000000e+00  -5.2594318502160698e-06 -5.1516522640981558e-05 0.0000000000000000e+00  -4.8325340881915403e-06 -4.9309263965641952e-05 0.0000000000000000e+00  -4.4213855950696389e-06 -4.7126723428301370e-05 0.0000000000000000e+00  -4.0341017953857489e-06 -4.4944427898498212e-05 0.0000000000000000e+00  -3.6607651047863115e-06 -4.2789622692671609e-05 0.0000000000000000e+00  -3.3122839268080571e-06 -4.0638380409916979e-05 0.0000000000000000e+00  -2.9763314657869231e-06 -3.8517957737108510e-05 0.0000000000000000e+00  -2.6662553720842756e-06 -3.6405040037022296e-05 0.0000000000000000e+00  -2.3666962558544904e-06 -3.4327498508951741e-05 0.0000000000000000e+00  -2.0938734816135714e-06 -3.2262332056996703e-05 0.0000000000000000e+00  -1.8292689620067981e-06 -3.0236777978609421e-05 0.0000000000000000e+00  -1.5927606081571649e-06 -2.8229258515469648e-05 0.0000000000000000e+00  -1.3659492511266303e-06 -2.6262127708724279e-05 0.0000000000000000e+00  -1.1614134198815265e-06 -2.4323854391975599e-05 0.0000000000000000e+00  -9.7904697146523358e-07 -2.2430531816977443e-05 0.0000000000000000e+00  -7.9772653471994985e-07 -2.0571948538850580e-05 0.0000000000000000e+00  -6.4451385637219581e-07 -1.8755553438965238e-05 0.0000000000000000e+00  -5.0174606009037217e-07 -1.6996399562742614e-05 0.0000000000000000e+00  -3.8126528562533199e-07 -1.5276550113567286e-05 0.0000000000000000e+00  -2.7188396449498435e-07 -1.3623318501007709e-05 0.0000000000000000e+00  -1.8427045231529281e-07 -1.2014470945286682e-05 0.0000000000000000e+00  -1.0275789304023501e-07 -1.0483757138125404e-05 0.0000000000000000e+00  -4.7076792761933961e-08 -9.0037770162864417e-06 0.0000000000000000e+00  -1.1304883042223112e-08 -7.6086909640061566e-06 0.0000000000000000e+00  3.2182331336418815e-08 -6.2733077034370565e-06 0.0000000000000000e+00  4.5717088901982853e-08 -5.0219518540485617e-06 0.0000000000000000e+00  5.2908552713686691e-08 -3.8622063295751079e-06 0.0000000000000000e+00  3.6894689290233878e-08 -2.7790349280680913e-06 0.0000000000000000e+00  2.2680447431896715e-08 -1.8049999658497217e-06 0.0000000000000000e+00  -2.2558113194423333e-08 -9.1029208626617045e-07 0.0000000000000000e+00  -8.5614060034347233e-08 -1.3576907308936426e-07 0.0000000000000000e+00  -1.2995050803698539e-07 5.5048928948545604e-07 0.0000000000000000e+00  -2.0856804196100516e-07 1.1329180507662462e-06 0.0000000000000000e+00  -2.4882030631148803e-07 1.5905602413593664e-06 0.0000000000000000e+00  -2.6641705071780030e-07 1.8621900131287164e-06 0.0000000000000000e+00  -1.6039445238998458e-07 1.8904318639556670e-06 0.0000000000000000e+00  -3.5424137244770030e-07 -1.4447572555402081e-07 0.0000000000000000e+00  -7.4002058425433070e-06 -7.3871701026275357e-05 0.0000000000000000e+00  -6.1702008890306854e-06 -6.9627751296893204e-05 0.0000000000000000e+00  -4.4496029684105064e-06 -6.2695248498395277e-05 0.0000000000000000e+00  3.1569919402019781e-07 -7.4520077194623514e-07 0.0000000000000000e+00  -3.4989334902170020e-06 -5.8347415830396526e-05 0.0000000000000000e+00  7.3032181681951238e-07 -1.7619591411931639e-06 0.0000000000000000e+00  -2.5823221913170418e-06 -5.3961325503831714e-05 0.0000000000000000e+00  1.2774765591235872e-06 -4.3040461018606448e-06 0.0000000000000000e+00  1.5487669647917369e-06 -6.4022563668208596e-06 0.0000000000000000e+00  -1.7533380520330165e-06 -4.9612460151129262e-05 0.0000000000000000e+00  1.8305659837356092e-06 -1.3138101021348003e-05 0.0000000000000000e+00  -3.5518086187408187e-07 -4.1073231050329142e-05 0.0000000000000000e+00  1.7066774659756081e-06 -8.7227927660164756e-06 0.0000000000000000e+00  1.8338171367585155e-06 -1.6255437461267863e-05 0.0000000000000000e+00  2.1517573306305340e-07 -3.6910881239910489e-05 0.0000000000000000e+00  -1.0111382889182253e-06 -4.5312007423652746e-05 0.0000000000000000e+00  1.7298984908206015e-06 -1.9635229387681566e-05 0.0000000000000000e+00  6.9999319579366771e-07 -3.2842716986995093e-05 0.0000000000000000e+00  1.5211761269870720e-06 -2.3040533286424050e-05 0.0000000000000000e+00  1.1280581812506835e-06 -2.8988927305834771e-05 0.0000000000000000e+00  1.3501418414904218e-06 -2.5857755697786161e-05 0.0000000000000000e+00  1.8113971649362581e-06 -1.0789032235130204e-05 0.0000000000000000e+00  -5.3778010647342633e-06 -6.6274741228741698e-05 0.0000000000000000e+00  1.0204263839671590e-06 -2.9024713248525983e-06 0.0000000000000000e+00  -7.8122123277694149e-06 -7.1345032315940236e-05 0.0000000000000000e+00  -1.1873064301301606e-07 4.4018468619379115e-07 0.0000000000000000e+00  -3.8823125381233132e-06 -5.5766372793342102e-05 0.0000000000000000e+00  -4.8481920301885306e-06 -6.0182348638099287e-05 0.0000000000000000e+00  7.9509049617667250e-07 -2.0114752086376451e-06 0.0000000000000000e+00  1.8349533689606999e-06 -5.9058686322757027e-06 0.0000000000000000e+00  -1.4957599876652149e-06 -4.2754148355662286e-05 0.0000000000000000e+00  -3.0021680010090866e-06 -5.1382110571608791e-05 0.0000000000000000e+00  2.4660424403713926e-06 -1.5197763529101391e-05 0.0000000000000000e+00  -8.6738390701699044e-07 -3.8536468608319729e-05 0.0000000000000000e+00  2.1224576436775757e-06 -8.1778499530657926e-06 0.0000000000000000e+00  2.4456617763344840e-06 -1.8454747498522213e-05 0.0000000000000000e+00  -3.2139557583445281e-07 -3.4404033994748285e-05 0.0000000000000000e+00  -2.2071127837893156e-06 -4.7040552829384576e-05 0.0000000000000000e+00  2.4920590621658005e-06 -2.2015555298488393e-05 0.0000000000000000e+00  1.4321947118221327e-07 -3.0375409418695659e-05 0.0000000000000000e+00  -3.8268949399490013e-07 -5.1538607266851012e-07 0.0000000000000000e+00  -4.2768339032808137e-07 4.1476513502278877e-07 0.0000000000000000e+00  -7.2353480246514544e-06 -7.5875793027736701e-05 0.0000000000000000e+00  1.99131