<?xml version="1.0"?>
<VTKFile type="UnstructuredGrid"  version="0.1"  >
<UnstructuredGrid>
<Piece  NumberOfPoints="1419" NumberOfCells="2698">
<Points>
<DataArray  type="Float64"  NumberOfComponents="3"  format="ascii">0 0 0  0 0.41 0  2.5 0 0  2.5 0.41 0  0.6 0.19 0  0.6 0.21 0  0.25 0.2 0  0.15 0.2 0  0.2489897948556636 0.21 0  0.2489897948556636 0.19 0  0.6 0.2 0  0 0.3807142857143437 0  0 0.3514285714286952 0  0 0.3221428571430699 0  0 0.29285714285744 0  0 0.2635714285718054 0  0 0.2342857142861561 0  0 0.2050000000005308 0  0 0.175714285714732 0  0 0.1464285714289574 0  0 0.1171428571431897 0  0 0.08785714285737878 0  0 0.05857142857161107 0  0 0.02928571428580012 0  0.03015443760436003 0 0  0.06140001986583606 0 0  0.09377624077125973 0 0  0.1273239957535082 0 0  0.1620856860351972 0 0  0.1981052433264291 0 0  0.235428184091502 0 0  0.2741016576309132 0 0  0.3141745521465447 0 0  0.3556974926295285 0 0  0.3987229542472677 0 0  0.4433053055141081 0 0  0.4895008759286886 0 0  0.5373680609405097 0 0  0.5869673343216626 0 0  0.6383613676634521 0 0  0.6916151138468254 0 0  0.7467958595648856 0 0  0.8039733463919316 0 0  0.8632198139502143 0 0  0.9246101326867038 0 0  0.9882218810934433 0 0  1.054135445558498 0 0  1.122434100542598 0 0  1.193204177141305 0 0  1.266535089879536 0 0  1.342519516046404 0 0  1.421253448503939 0 0  1.502836389106271 0 0  1.587371439758838 0 0  1.674965418777374 0 0  1.765729001825544 0 0  1.859776908880082 0 0  1.957227977487062 0 0  2.058205329869943 0 0  2.162836591189951 0 0  2.271253957290865 0 0  2.383594446803425 0 0  2.5 0.1024999999997612 0  2.5 0.2049999999994743 0  2.5 0.3074999999997183 0  2.383594446803656 0.41 0  2.271253957291315 0.41 0  2.162836591190598 0.41 0  2.058205329870775 0.41 0  1.957227977488067 0.41 0  1.859776908881246 0.41 0  1.765729001826854 0.41 0  1.674965418778818 0.41 0  1.58737143976041 0.41 0  1.502836389107956 0.41 0  1.421253448505726 0.41 0  1.342519516048286 0.41 0  1.266535089881505 0.41 0  1.193204177143353 0.41 0  1.122434100544716 0.41 0  1.05413544556068 0.41 0  0.9882218810956305 0.41 0  0.9246101326886647 0.41 0  0.8632198139519631 0.41 0  0.8039733463934788 0.41 0  0.7467958595662458 0.41 0  0.6916151138480078 0.41 0  0.6383613676644679 0.41 0  0.5869673343225223 0.41 0  0.5373680609412221 0.41 0  0.4895008759292634 0.41 0  0.4433053055145528 0.41 0  0.3987229542475914 0.41 0  0.3556974926297398 0.41 0  0.3141745521466497 0.41 0  0.2741016576310038 0.41 0  0.2354281840915826 0.41 0  0.1981052433265003 0.41 0  0.1620856860352591 0.41 0  0.1273239957535623 0.41 0  0.09377624077128965 0.41 0  0.06140001986584975 0.41 0  0.03015443760436654 0.41 0  0.2497468076502589 0.2050254481002335 0  0.2497468076502614 0.1949745518997913 0  0.2469965252529372 0.1829317073451959 0  0.2439893735792749 0.1762316384219906 0  0.2400332147834255 0.1700443375285386 0  0.2352133972704371 0.1645032867342007 0  0.2296339016332438 0.1597280261969788 0  0.2234150974217223 0.1558215752574715 0  0.2166911463437691 0.1528682099456123 0  0.2096071079204251 0.1509316448471593 0  0.2023158100364996 0.1500536585536553 0  0.194974551899914 0.1502531923497262 0  0.1877417105387872 0.1515259415822739 0  0.1807733240461124 0.153844448527136 0  0.1742197252835808 0.15715869474974 0  0.1682222986673531 0.1613971801805478 0  0.162910430003803 0.1664684656256651 0  0.1583987151779087 0.1722631454351573 0  0.1547844879126891 0.178656207771761 0  0.1521457199348551 0.1855097315605723 0  0.1505393388476355 0.1926758619366523 0  0.1505393388476328 0.2073241380633295 0  0.1521457199348437 0.2144902684393899 0  0.1547844879126531 0.221343792228163 0  0.1583987151778488 0.2277368545647528 0  0.1629104300036858 0.2335315343742052 0  0.1682222986671726 0.2386028198193036 0  0.1742197252833576 0.2428413052501257 0  0.1807733240458683 0.2461555514727623 0  0.1877417105384929 0.2484740584176516 0  0.1949745518995776 0.2497468076502398 0  0.202315810036185 0.2499463414463592 0  0.2096071079201568 0.2490683551528932 0  0.2166911463435495 0.2471317900544655 0  0.2234150974215506 0.2441784247426195 0  0.2296339016331197 0.2402719738031125 0  0.2352133972703547 0.2354967132658811 0  0.2400332147833751 0.2299556624715287 0  0.2439893735792577 0.2237683615780412 0  0.246996525252926 0.2170682926548348 0  0.25645809709277 0.21 0  0.2639263993298655 0.21 0  0.271394701566961 0.21 0  0.2788630038040554 0.21 0  0.2863313060411479 0.21 0  0.2937996082782405 0.21 0  0.301267910515333 0.21 0  0.3087362127524279 0.21 0  0.3162045149895234 0.21 0  0.3236728172265972 0.21 0  0.3311411194636928 0.21 0  0.3386094217007701 0.21 0  0.3460777239378666 0.21 0  0.3535460261749672 0.21 0  0.3610143284120516 0.21 0  0.3684826306491596 0.21 0  0.3759509328862226 0.21 0  0.383419235123329 0.21 0  0.3908875373604028 0.21 0  0.3983558395975142 0.21 0  0.4058241418345938 0.21 0  0.4132924440716992 0.21 0  0.4207607463087888 0.21 0  0.4282290485459029 0.21 0  0.4356973507830418 0.21 0  0.4431656530201649 0.21 0  0.4506339552573136 0.21 0  0.4581022574944306 0.21 0  0.4655705597315852 0.21 0  0.4730388619686996 0.21 0  0.480507164205851 0.21 0  0.4879754664429498 0.21 0  0.4954437686800938 0.21 0  0.502912070917267 0.21 0  0.5103803731544119 0.21 0  0.5178486753915261 0.21 0  0.5253169776286404 0.21 0  0.5327852798657868 0.21 0  0.5402535821029386 0.21 0  0.54772188434007 0.21 0  0.5551901865771842 0.21 0  0.5626584888143201 0.21 0  0.5701267910514778 0.21 0  0.5775950932886138 0.21 0  0.5850633955257281 0.21 0  0.5925316977628483 0.21 0  0.6 0.2050000000000054 0  0.6 0.1950000000000217 0  0.5925316977628897 0.19 0  0.5850633955257988 0.19 0  0.5775950932887378 0.19 0  0.5701267910515998 0.19 0  0.5626584888145268 0.19 0  0.5551901865773963 0.19 0  0.547721884340339 0.19 0  0.5402535821032429 0.19 0  0.5327852798661811 0.19 0  0.5253169776290537 0.19 0  0.5178486753919799 0.19 0  0.5103803731549078 0.19 0  0.502912070917822 0.19 0  0.4954437686807294 0.19 0  0.4879754664436223 0.19 0  0.4805071642065402 0.19 0  0.4730388619694271 0.19 0  0.4655705597323621 0.19 0  0.4581022574952563 0.19 0  0.4506339552581777 0.19 0  0.4431656530210671 0.19 0  0.4356973507839815 0.19 0  0.4282290485468779 0.19 0  0.4207607463097617 0.19 0  0.4132924440726327 0.19 0  0.4058241418354857 0.19 0  0.3983558395983636 0.19 0  0.3908875373612097 0.19 0  0.3834192351240934 0.19 0  0.3759509328869369 0.19 0  0.3684826306498175 0.19 0  0.361014328412667 0.19 0  0.3535460261755617 0.19 0  0.3460777239384295 0.19 0  0.3386094217012945 0.19 0  0.3311411194641595 0.19 0  0.3236728172270245 0.19 0  0.3162045149898895 0.19 0  0.3087362127527544 0.19 0  0.3012679105156187 0.19 0  0.2937996082784807 0.19 0  0.2863313060413428 0.19 0  0.2788630038042048 0.19 0  0.2713947015670686 0.19 0  0.2639263993299336 0.19 0  0.2564580970927985 0.19 0  0.2607803159922026 0.2000727136295815 0  0.5887803774232762 0.2001272386983733 0  0.5745072403740523 0.2002044435018727 0  0.5511891430099709 0.2001122610077113 0  0.2751288526855082 0.20000000000002 0  0.5365194309847112 0.1999999999999436 0  0.2894621222999649 0.1998691686390484 0  0.5215828265105155 0.1999999999999228 0  0.3127789816668748 0.1998657885438805 0  0.3274069683451451 0.2000000000000796 0  0.5066462220363641 0.199999999999908 0  0.3650630746574081 0.199866017807523 0  0.476773013087985 0.1999999999998713 0  0.3417402379596385 0.1998691686391011 0  0.3796850840047755 0.200000000000134 0  0.4618364086138087 0.1999999999998546 0  0.4917096175621762 0.1999999999998808 0  0.3946216884789568 0.2000000000001512 0  0.446899804139621 0.1999999999998389 0  0.4089549580935208 0.1998691686391595 0  0.4322718174608562 0.200127451265745 0  0.4201487168029707 0.1999966199048527 0  0.3528922713220932 0.2000185703532356 0  0.5633122436674589 0.1999814296467508 0  0.3006558810093873 0.1999966199048318 0  0.5815926498168407 0.1966545283159175 0  0.2677053789419034 0.1964246479135325 0  0.5290511287476175 0.1970915826863981 0  0.5439877332217911 0.197091582686394 0  0.2825131256993216 0.2035478995978015 0  0.3199386661080599 0.202908417313604 0  0.4842413153250809 0.1970915826863873 0  0.5141145242734466 0.1970915826863843 0  0.3722167817676917 0.2029084173136195 0  0.4693047108508938 0.1970915826863783 0  0.3348752705822316 0.202908417313609 0  0.3871533862418661 0.2029084173136212 0  0.4543681063767183 0.1970915826863795 0  0.4991779197992749 0.1970915826863902 0  0.4020059614928624 0.203547899597858 0  0.4394315019025246 0.1970915826863714 0  0.2550657455369551 0.2034088125358657 0  0.2548908499171161 0.1966940311614271 0  0.5946539510196798 0.2024302972968126 0  0.267698176732111 0.2039977513680092 0  0.4261685417851465 0.196409292431739 0  0.3590076176283495 0.196411355804271 0  0.5571672426447437 0.2036011176410121 0  0.3066757059912147 0.1964092924317024 0  0.594380730180568 0.1966558399668133 0  0.4842413153245942 0.2040749161535287 0  0.4693047108503577 0.2040749161535231 0  0.3871533862424271 0.1959250838464788 0  0.372246743208829 0.1959123236376545 0  0.5141145242731028 0.2040749161535395 0  0.4543681063761134 0.2040749161535186 0  0.4019979587101454 0.1959834479682427 0  0.4394608940728603 0.2040870543693135 0  0.5439623148931173 0.2040856076781014 0  0.5290511287473298 0.2040749161535501 0  0.4991779197988497 0.2040749161535382 0  0.3347912413592433 0.1959225448935183 0  0.3199680582793816 0.1959123018030061 0  0.2825051229162361 0.1959834479681729 0  0.3590471196690275 0.2036304442587945 0  0.5571594006495384 0.1963685282145804 0  0.3067669986803285 0.203627750582736 0  0.4262598344738712 0.2036568242185335 0  0.5814408164431408 0.2041285596160068 0  0.5688286748170428 0.1961819304477386 0  0.4145905603063645 0.2038180695522843 0  0.3473758401724931 0.2038180695522752 0  0.2950977245128307 0.2038180695522663 0  0.5688286748170693 0.203818069552238 0  0.2950977245127906 0.1961819304477774 0  0.3473758401723931 0.1961819304478349 0  0.4145905603061963 0.1961819304479011 0  0.2601812407614425 0.2056861609747042
[...]
<PointData  Vectors="f_40-1"> 
<DataArray  type="Float64"  Name="f_40-1"  NumberOfComponents="3" format="ascii">0.0000000000000000e+00 0.0000000000000000e+00 0.0000000000000000e+00  0.0000000000000000e+00 0.0000000000000000e+00 0.0000000000000000e+00  0.0000000000000000e+00 0.0000000000000000e+00 0.0000000000000000e+00  0.0000000000000000e+00 0.0000000000000000e+00 0.0000000000000000e+00  5.8273361618572058e-05 2.0796807961056870e-03 0.0000000000000000e+00  -8.7357300055884569e-05 2.0795548117726356e-03 0.0000000000000000e+00  0.0000000000000000e+00 0.0000000000000000e+00 0.0000000000000000e+00  0.0000000000000000e+00 0.0000000000000000e+00 0.0000000000000000e+00  0.0000000000000000e+00 0.0000000000000000e+00 0.0000000000000000e+00  0.0000000000000000e+00 0.0000000000000000e+00 0.0000000000000000e+00  -1.4613415283211276e-05 2.0796101315999943e-03 0.0000000000000000e+00  0.0000000000000000e+00 0.0000000000000000e+00 0.0000000000000000e+00  0.0000000000000000e+00 0.0000000000000000e+00 0.0000000000000000e+00  0.0000000000000000e+00 0.0000000000000000e+00 0.0000000000000000e+00  0.0000000000000000e+00 0.0000000000000000e+00 0.0000000000000000e+00  0.0000000000000000e+00 0.0000000000000000e+00 0.0000000000000000e+00  0.0000000000000000e+00 0.0000000000000000e+00 0.0000000000000000e+00  0.0000000000000000e+00 0.0000000000000000e+00 0.0000000000000000e+00  0.0000000000000000e+00 0.0000000000000000e+00 0.0000000000000000e+00  0.0000000000000000e+00 0.0000000000000000e+00 0.0000000000000000e+00  0.0000000000000000e+00 0.0000000000000000e+00 0.0000000000000000e+00  0.0000000000000000e+00 0.0000000000000000e+00 0.0000000000000000e+00  0.0000000000000000e+00 0.0000000000000000e+00 0.0000000000000000e+00  0.0000000000000000e+00 0.0000000000000000e+00 0.0000000000000000e+00  0.0000000000000000e+00 0.0000000000000000e+00 0.0000000000000000e+00  0.0000000000000000e+00 0.0000000000000000e+00 0.0000000000000000e+00  0.0000000000000000e+00 0.0000000000000000e+00 0.0000000000000000e+00  0.0000000000000000e+00 0.0000000000000000e+00 0.0000000000000000e+00  0.0000000000000000e+00 0.0000000000000000e+00 0.0000000000000000e+00  0.0000000000000000e+00 0.0000000000000000e+00 0.0000000000000000e+00  0.0000000000000000e+00 0.0000000000000000e+00 0.0000000000000000e+00  0.0000000000000000e+00 0.0000000000000000e+00 0.0000000000000000e+00  0.0000000000000000e+00 0.0000000000000000e+00 0.0000000000000000e+00  0.0000000000000000e+00 0.0000000000000000e+00 0.0000000000000000e+00  0.0000000000000000e+00 0.0000000000000000e+00 0.0000000000000000e+00  0.0000000000000000e+00 0.0000000000000000e+00 0.0000000000000000e+00  0.0000000000000000e+00 0.0000000000000000e+00 0.0000000000000000e+00  0.0000000000000000e+00 0.0000000000000000e+00 0.0000000000000000e+00  0.0000000000000000e+00 0.0000000000000000e+00 0.0000000000000000e+00  0.0000000000000000e+00 0.0000000000000000e+00 0.0000000000000000e+00  0.0000000000000000e+00 0.0000000000000000e+00 0.0000000000000000e+00  0.0000000000000000e+00 0.0000000000000000e+00 0.0000000000000000e+00  0.0000000000000000e+00 0.0000000000000000e+00 0.0000000000000000e+00  0.0000000000000000e+00 0.0000000000000000e+00 0.0000000000000000e+00  0.0000000000000000e+00 0.0000000000000000e+00 0.0000000000000000e+00  0.0000000000000000e+00 0.0000000000000000e+00 0.0000000000000000e+00  0.0000000000000000e+00 0.0000000000000000e+00 0.0000000000000000e+00  0.0000000000000000e+00 0.0000000000000000e+00 0.0000000000000000e+00  0.0000000000000000e+00 0.0000000000000000e+00 0.0000000000000000e+00  0.0000000000000000e+00 0.0000000000000000e+00 0.0000000000000000e+00  0.0000000000000000e+00 0.0000000000000000e+00 0.0000000000000000e+00  0.0000000000000000e+00 0.0000000000000000e+00 0.0000000000000000e+00  0.0000000000000000e+00 0.0000000000000000e+00 0.0000000000000000e+00  0.0000000000000000e+00 0.0000000000000000e+00 0.0000000000000000e+00  0.0000000000000000e+00 0.0000000000000000e+00 0.0000000000000000e+00  0.0000000000000000e+00 0.0000000000000000e+00 0.0000000000000000e+00  0.0000000000000000e+00 0.0000000000000000e+00 0.0000000000000000e+00  0.0000000000000000e+00 0.0000000000000000e+00 0.0000000000000000e+00  0.0000000000000000e+00 0.0000000000000000e+00 0.0000000000000000e+00  0.0000000000000000e+00 0.0000000000000000e+00 0.0000000000000000e+00  0.0000000000000000e+00 0.0000000000000000e+00 0.0000000000000000e+00  0.0000000000000000e+00 0.0000000000000000e+00 0.0000000000000000e+00  0.0000000000000000e+00 0.0000000000000000e+00 0.0000000000000000e+00  0.0000000000000000e+00 0.0000000000000000e+00 0.0000000000000000e+00  0.0000000000000000e+00 0.0000000000000000e+00 0.0000000000000000e+00  0.0000000000000000e+00 0.0000000000000000e+00 0.0000000000000000e+00  0.0000000000000000e+00 0.0000000000000000e+00 0.0000000000000000e+00  0.0000000000000000e+00 0.0000000000000000e+00 0.0000000000000000e+00  0.0000000000000000e+00 0.0000000000000000e+00 0.0000000000000000e+00  0.0000000000000000e+00 0.0000000000000000e+00 0.0000000000000000e+00  0.0000000000000000e+00 0.0000000000000000e+00 0.0000000000000000e+00  0.0000000000000000e+00 0.0000000000000000e+00 0.0000000000000000e+00  0.0000000000000000e+00 0.0000000000000000e+00 0.0000000000000000e+00  0.0000000000000000e+00 0.0000000000000000e+00 0.0000000000000000e+00  0.0000000000000000e+00 0.0000000000000000e+00 0.0000000000000000e+00  0.0000000000000000e+00 0.0000000000000000e+00 0.0000000000000000e+00  0.0000000000000000e+00 0.0000000000000000e+00 0.0000000000000000e+00  0.0000000000000000e+00 0.0000000000000000e+00 0.0000000000000000e+00  0.0000000000000000e+00 0.0000000000000000e+00 0.0000000000000000e+00  0.0000000000000000e+00 0.0000000000000000e+00 0.0000000000000000e+00  0.0000000000000000e+00 0.0000000000000000e+00 0.0000000000000000e+00  0.0000000000000000e+00 0.0000000000000000e+00 0.0000000000000000e+00  0.0000000000000000e+00 0.0000000000000000e+00 0.0000000000000000e+00  0.0000000000000000e+00 0.0000000000000000e+00 0.0000000000000000e+00  0.0000000000000000e+00 0.0000000000000000e+00 0.0000000000000000e+00  0.0000000000000000e+00 0.0000000000000000e+00 0.0000000000000000e+00  0.0000000000000000e+00 0.0000000000000000e+00 0.0000000000000000e+00  0.0000000000000000e+00 0.0000000000000000e+00 0.0000000000000000e+00  0.0000000000000000e+00 0.0000000000000000e+00 0.0000000000000000e+00  0.0000000000000000e+00 0.0000000000000000e+00 0.0000000000000000e+00  0.0000000000000000e+00 0.0000000000000000e+00 0.0000000000000000e+00  0.0000000000000000e+00 0.0000000000000000e+00 0.0000000000000000e+00  0.0000000000000000e+00 0.0000000000000000e+00 0.0000000000000000e+00  0.0000000000000000e+00 0.0000000000000000e+00 0.0000000000000000e+00  0.0000000000000000e+00 0.0000000000000000e+00 0.0000000000000000e+00  0.0000000000000000e+00 0.0000000000000000e+00 0.0000000000000000e+00  0.0000000000000000e+00 0.0000000000000000e+00 0.0000000000000000e+00  0.0000000000000000e+00 0.0000000000000000e+00 0.0000000000000000e+00  0.0000000000000000e+00 0.0000000000000000e+00 0.0000000000000000e+00  0.0000000000000000e+00 0.0000000000000000e+00 0.0000000000000000e+00  0.0000000000000000e+00 0.0000000000000000e+00 0.0000000000000000e+00  0.0000000000000000e+00 0.0000000000000000e+00 0.0000000000000000e+00  0.0000000000000000e+00 0.0000000000000000e+00 0.0000000000000000e+00  0.0000000000000000e+00 0.0000000000000000e+00 0.0000000000000000e+00  0.0000000000000000e+00 0.0000000000000000e+00 0.0000000000000000e+00  0.0000000000000000e+00 0.0000000000000000e+00 0.0000000000000000e+00  0.0000000000000000e+00 0.0000000000000000e+00 0.0000000000000000e+00  0.0000000000000000e+00 0.0000000000000000e+00 0.0000000000000000e+00  0.0000000000000000e+00 0.0000000000000000e+00 0.0000000000000000e+00  0.0000000000000000e+00 0.0000000000000000e+00 0.0000000000000000e+00  0.0000000000000000e+00 0.0000000000000000e+00 0.0000000000000000e+00  0.0000000000000000e+00 0.0000000000000000e+00 0.0000000000000000e+00  0.0000000000000000e+00 0.0000000000000000e+00 0.0000000000000000e+00  0.0000000000000000e+00 0.0000000000000000e+00 0.0000000000000000e+00  0.0000000000000000e+00 0.0000000000000000e+00 0.0000000000000000e+00  0.0000000000000000e+00 0.0000000000000000e+00 0.0000000000000000e+00  0.0000000000000000e+00 0.0000000000000000e+00 0.0000000000000000e+00  0.0000000000000000e+00 0.0000000000000000e+00 0.0000000000000000e+00  0.0000000000000000e+00 0.0000000000000000e+00 0.0000000000000000e+00  0.0000000000000000e+00 0.0000000000000000e+00 0.0000000000000000e+00  0.0000000000000000e+00 0.0000000000000000e+00 0.0000000000000000e+00  0.0000000000000000e+00 0.0000000000000000e+00 0.0000000000000000e+00  0.0000000000000000e+00 0.0000000000000000e+00 0.0000000000000000e+00  0.0000000000000000e+00 0.0000000000000000e+00 0.0000000000000000e+00  0.0000000000000000e+00 0.0000000000000000e+00 0.0000000000000000e+00  0.0000000000000000e+00 0.0000000000000000e+00 0.0000000000000000e+00  0.0000000000000000e+00 0.0000000000000000e+00 0.0000000000000000e+00  0.0000000000000000e+00 0.0000000000000000e+00 0.0000000000000000e+00  0.0000000000000000e+00 0.0000000000000000e+00 0.0000000000000000e+00  0.0000000000000000e+00 0.0000000000000000e+00 0.0000000000000000e+00  0.0000000000000000e+00 0.0000000000000000e+00 0.0000000000000000e+00  0.0000000000000000e+00 0.0000000000000000e+00 0.0000000000000000e+00  0.0000000000000000e+00 0.0000000000000000e+00 0.0000000000000000e+00  0.0000000000000000e+00 0.0000000000000000e+00 0.0000000000000000e+00  0.0000000000000000e+00 0.0000000000000000e+00 0.0000000000000000e+00  0.0000000000000000e+00 0.0000000000000000e+00 0.0000000000000000e+00  0.0000000000000000e+00 0.0000000000000000e+00 0.0000000000000000e+00  0.0000000000000000e+00 0.0000000000000000e+00 0.0000000000000000e+00  0.0000000000000000e+00 0.0000000000000000e+00 0.0000000000000000e+00  0.0000000000000000e+00 0.0000000000000000e+00 0.0000000000000000e+00  0.0000000000000000e+00 0.0000000000000000e+00 0.0000000000000000e+00  0.0000000000000000e+00 0.0000000000000000e+00 0.0000000000000000e+00  0.0000000000000000e+00 0.0000000000000000e+00 0.0000000000000000e+00  -5.8589255585715182e-06 5.8113117161682515e-06 0.0000000000000000e+00  -1.2401486566518181e-05 1.2487192849654009e-05 0.0000000000000000e+00  -1.8164477702985514e-05 2.3128135175684163e-05 0.0000000000000000e+00  -2.4277395529641054e-05 3.7983365737944276e-05 0.0000000000000000e+00  -2.9348347223261575e-05 5.6259006143144564e-05 0.0000000000000000e+00  -3.4913032359785169e-05 7.8271667990026516e-05 0.0000000000000000e+00  -3.9362007523456210e-05 1.0296830625279878e-04 0.0000000000000000e+00  -4.3568824638231548e-05 1.3113026213417843e-04 0.0000000000000000e+00  -4.8235816892265151e-05 1.6185535486829371e-04 0.0000000000000000e+00  -5.1750112379701015e-05 1.9516249350616012e-04 0.0000000000000000e+00  -5.5841248073649245e-05 2.3097675563680549e-04 0.0000000000000000e+00  -5.8873956567741443e-05 2.6896821628117533e-04 0.0000000000000000e+00  -6.2267187197957268e-05 3.0903315115774318e-04 0.0000000000000000e+00  -6.4915471524879781e-05 3.5070298215951923e-04 0.0000000000000000e+00  -6.7365395392696018e-05 3.9427793237628637e-04 0.0000000000000000e+00  -6.9993485143846122e-05 4.3922934828662319e-04 0.0000000000000000e+00  -7.1938618713374033e-05 4.8550615914316682e-04 0.0000000000000000e+00  -7.4096388092118097e-05 5.3305069670303345e-04 0.0000000000000000e+00  -7.5669519000546773e-05 5.8160125151957248e-04 0.0000000000000000e+00  -7.7373491741352749e-05 6.3109949412266009e-04 0.0000000000000000e+00  -7.8680395588810636e-05 6.8139459645128820e-04 0.0000000000000000e+00  -7.9993907741722844e-05 7.3244425067332830e-04 0.0000000000000000e+00  -8.1021950590428932e-05 7.8399524624718844e-04 0.0000000000000000e+00  -8.1930653489579070e-05 8.3615492896930228e-04 0.0000000000000000e+00  -8.2845019177755396e-05 8.8870431569221980e-04 0.0000000000000000e+00  -8.3558610388789360e-05 9.4165635770095872e-04 0.0000000000000000e+00  -8.4209408823287377e-05 9.9496009502442260e-04 0.0000000000000000e+00  -8.4745039369938546e-05 1.0484915366282611e-03 0.0000000000000000e+00  -8.5221035800960723e-05 1.1022801240420702e-03 0.0000000000000000e+00  -8.5609222515898339e-05 1.1562151388058851e-03 0.0000000000000000e+00  -8.5945151221392590e-05 1.2103168598255607e-03 0.0000000000000000e+00  -8.6213435665995395e-05 1.2644954852811514e-03 0.0000000000000000e+00  -8.6439197192579719e-05 1.3187700032997721e-03 0.0000000000000000e+00  -8.6613640618577126e-05 1.3730707405510622e-03 0.0000000000000000e+00  -8.6752562636985666e-05 1.4274192616231176e-03 0.0000000000000000e+00  -8.6860743193499545e-05 1.4817675094580924e-03 0.0000000000000000e+00  -8.6945481728678258e-05 1.5361296370142738e-03 0.0000000000000000e+00  -8.7012720590059518e-05 1.5904806169540983e-03 0.0000000000000000e+00  -8.7065125215511158e-05 1.6448299203568025e-03 0.0000000000000000e+00  -8.7110728162459607e-05 1.6991688997862373e-03 0.0000000000000000e+00  -8.7150574413517312e-05 1.7535010888031454e-03 0.0000000000000000e+00  -8.7190756850450256e-05 1.8078293414686549e-03 0.0000000000000000e+00  -8.7227056516932298e-05 1.8621601927709345e-03 0.0000000000000000e+00  -8.7265877460156454e-05 1.9164949864993799e-03 0.0000000000000000e+00  -8.7306116921620437e-05 1.9708430432676814e-03 0.0000000000000000e+00  -8.7340756660493838e-05 2.0252001809148764e-03 0.0000000000000000e+00  -5.1002258123777890e-05 2.0795820382713687e-03 0.0000000000000000e+00  2.1803905934531288e-05 2.0796404556570097e-03 0.0000000000000000e+00  5.8268427935420422e-05 2.0252682955936817e-03 0.0000000000000000e+00  5.8286192995778244e-05 1.9708936085719056e-03 0.0000000000000000e+00  5.8311637084388694e-05 1.9165340193955426e-03 0.0000000000000000e+00  5.8339197003061784e-05 1.8621796325240347e-03 0.0000000000000000e+00  5.8372372598654610e-05 1.8078270996579428e-03 0.0000000000000000e+00  5.8417192198452425e-05 1.7534723900898294e-03 0.0000000000000000e+00  5.8468712890563994e-05 1.6991113469653327e-03 0.0000000000000000e+00  5.8528519922214791e-05 1.6447430731630120e-03 0.0000000000000000e+00  5.8594200049644176e-05 1.5903629694610263e-03 0.0000000000000000e+00  5.8664963198200811e-05 1.5359720308392253e-03 0.0000000000000000e+00  5.8734880201112785e-05 1.4815745543259754e-03 0.0000000000000000e+00  5.8809611376894761e-05 1.4271776042305180e-03 0.0000000000000000e+00  5.8869733280843443e-05 1.3727910587045058e-03 0.0000000000000000e+00  5.8933855757511931e-05 1.3184333901757406e-03 0.0000000000000000e+00  5.8959851331772868e-05 1.2641181859095205e-03 0.0000000000000000e+00  5.8994722614314839e-05 1.2098785316405089e-03 0.0000000000000000e+00  5.8961621458106960e-05 1.1557329795650773e-03 0.0000000000000000e+00  5.8948560795925240e-05 1.1017284373485774e-03 0.0000000000000000e+00  5.8831268614520519e-05 1.0478904405551383e-03 0.0000000000000000e+00  5.8751251096045093e-05 9.9427864270149524e-04 0.0000000000000000e+00  5.8517456969180739e-05 9.4092339961425367e-04 0.0000000000000000e+00  5.8343010882176894e-05 8.8789999572852865e-04 0.0000000000000000e+00  5.7967018989475264e-05 8.3525582041878372e-04 0.0000000000000000e+00  5.7637161949950443e-05 7.8302132850830959e-04 0.0000000000000000e+00  5.7240978756004345e-05 7.3139720192545200e-04 0.0000000000000000e+00  5.6606295455727754e-05 6.8024749279860469e-04 0.0000000000000000e+00  5.5971145458998338e-05 6.2988908572440556e-04 0.0000000000000000e+00  5.5108904575444573e-05 5.8027379150080128e-04 0.0000000000000000e+00  5.4206220256593653e-05 5.3164624549781618e-04 0.0000000000000000e+00  5.3040305130500050e-05 4.8401474793650310e-04 0.0000000000000000e+00  5.1827570818817049e-05 4.3758256686859010e-04 0.0000000000000000e+00  5.0141169798324726e-05 3.9262987530531821e-04 0.0000000000000000e+00  4.8640394376377707e-05 3.4893480550406120e-04 0.0000000000000000e+00  4.6978768508906045e-05 3.0719873972752799e-04 0.0000000000000000e+00  4.4701754563063038e-05 2.6690137764377167e-04 0.0000000000000000e+00  4.2487368187504446e-05 2.2888097683910084e-04 0.0000000000000000e+00  3.9819204545228167e-05 1.9295344911722816e-04 0.0000000000000000e+00  3.7165781215288403e-05 1.5943226959017341e-04 0.0000000000000000e+00  3.3732937500573966e-05 1.2876313835402968e-04 0.0000000000000000e+00  3.0732849353246606e-05 1.0045444531082544e-04 0.0000000000000000e+00  2.7546259084274559e-05 7.5668066191450576e-05 0.0000000000000000e+00  2.3347839534868018e-05 5.3460973277796132e-05 0.0000000000000000e+00  1.9463489012067947e-05 3.5016455953961217e-05 0.0000000000000000e+00  1.4646702908776318e-05 2.0274683727851208e-05 0.0000000000000000e+00  1.0277352253545311e-05 9.5594198847570188e-06 0.0000000000000000e+00  4.8790264859632311e-06 3.0011481221484550e-06 0.0000000000000000e+00  -5.9983420601876766e-07 4.7583488443573484e-06 0.0000000000000000e+00  -1.5481235858459346e-05 1.9979222507873875e-03 0.0000000000000000e+00  -1.5972336671753002e-05 1.8940416961122023e-03 0.0000000000000000e+00  -1.5176434456005233e-05 1.7243743459313700e-03 0.0000000000000000e+00  -2.0058375076832364e-06 2.6117976079496574e-05 0.0000000000000000e+00  -1.4253919858341350e-05 1.6176067940215770e-03 0.0000000000000000e+00  -2.9308773604963039e-06 6.1403001855522905e-05 0.0000000000000000e+00  -1.4114258701811696e-05 1.5088559110429658e-03 0.0000000000000000e+00  -4.6506277834279122e-06 1.4441697148363230e-04 0.0000000000000000e+00  -6.3089348954226482e-06 2.1021103829795587e-04 0.0000000000000000e+00  -1.3931212311730872e-05 1.4000921571961458e-03 0.0000000000000000e+00  -8.0355395104498803e-06 4.1668170114656026e-04 0.0000000000000000e+00  -1.3403135687051808e-05 1.1829355059857173e-03 0.0000000000000000e+00  -6.6418554231313406e-06 2.8319727445149490e-04 0.0000000000000000e+00  -9.6935622550277876e-06 5.0767014374584096e-04 0.0000000000000000e+00  -1.3047316312818243e-05 1.0749373181690699e-03 0.0000000000000000e+00  -1.3696099536643001e-05 1.2913993762087162e-03 0.0000000000000000e+00  -1.0490393369900126e-05 6.0501880057994156e-04 0.0000000000000000e+00  -1.2619084839262174e-05 9.6771865197051588e-04 0.0000000000000000e+00  -1.0288563265014077e-05 7.0168424651345358e-04 0.0000000000000000e+00  -1.3024603048237521e-05 8.6384590087554617e-04 0.0000000000000000e+00  -1.1632301936388775e-05 7.7898698348663454e-04 0.0000000000000000e+00  -8.1744687353371877e-06 3.4527785391200383e-04 0.0000000000000000e+00  -1.4295764504608195e-05 1.8125848517067267e-03 0.0000000000000000e+00  -4.1957660373739693e-06 9.8088520082107453e-05 0.0000000000000000e+00  9.8361394600803980e-06 1.9456114293887807e-03 0.0000000000000000e+00  3.6965824350665770e-06 1.3140876272151748e-05 0.0000000000000000e+00  6.9866748337536044e-06 1.5632164139113465e-03 0.0000000000000000e+00  6.8621888615726106e-06 1.6719561671795229e-03 0.0000000000000000e+00  -1.1122876847021234e-05 4.3580847622309580e-05 0.0000000000000000e+00  -1.8639417647036728e-05 1.7598215845366583e-04 0.0000000000000000e+00  7.5346437654664035e-06 1.2370764398919004e-03 0.0000000000000000e+00  7.1415953279353480e-06 1.4544426091681628e-03 0.0000000000000000e+00  -2.7213698268473887e-05 4.6093740075936609e-04 0.0000000000000000e+00  7.7570307383807353e-06 1.1288007680767035e-03 0.0000000000000000e+00  -2.1462746176486744e-05 2.4777343002081568e-04 0.0000000000000000e+00  -2.8916677153914222e-05 5.5614829427924487e-04 0.0000000000000000e+00  7.9863161620416063e-06 1.0211386478191429e-03 0.0000000000000000e+00  7.3265299487131296e-06 1.3456893036325652e-03 0.0000000000000000e+00  -3.4644927961208663e-05 6.5477883003443990e-04 0.0000000000000000e+00  8.2183404658812043e-06 9.1443817988584759e-04 0.0000000000000000e+00  -1.0397934461664502e-06 1.3948273258663860e-06 0.0000000000000000e+00  7.4104451960547408e-07 6.5327935878086023e-07 0.0000000000000000e+00  -3.2277267483440070e-05 2.0406773142369414e-03 0.0000000000000000e+00  -6.8681399876640754e-06 1.4318955277831711e-05 0.0000000000000000e+00  1.3178783584993852e-05 8.2082305454203727e-04 0.0000000000000000e