<?xml version="1.0"?>
<VTKFile type="UnstructuredGrid"  version="0.1"  >
<UnstructuredGrid>
<Piece  NumberOfPoints="1419" NumberOfCells="2698">
<Points>
<DataArray  type="Float64"  NumberOfComponents="3"  format="ascii">0 0 0  0 0.41 0  2.5 0 0  2.5 0.41 0  0.6 0.19 0  0.6 0.21 0  0.25 0.2 0  0.15 0.2 0  0.2489897948556636 0.21 0  0.2489897948556636 0.19 0  0.6 0.2 0  0 0.3807142857143437 0  0 0.3514285714286952 0  0 0.3221428571430699 0  0 0.29285714285744 0  0 0.2635714285718054 0  0 0.2342857142861561 0  0 0.2050000000005308 0  0 0.175714285714732 0  0 0.1464285714289574 0  0 0.1171428571431897 0  0 0.08785714285737878 0  0 0.05857142857161107 0  0 0.02928571428580012 0  0.03015443760436003 0 0  0.06140001986583606 0 0  0.09377624077125973 0 0  0.1273239957535082 0 0  0.1620856860351972 0 0  0.1981052433264291 0 0  0.235428184091502 0 0  0.2741016576309132 0 0  0.3141745521465447 0 0  0.3556974926295285 0 0  0.3987229542472677 0 0  0.4433053055141081 0 0  0.4895008759286886 0 0  0.5373680609405097 0 0  0.5869673343216626 0 0  0.6383613676634521 0 0  0.6916151138468254 0 0  0.7467958595648856 0 0  0.8039733463919316 0 0  0.8632198139502143 0 0  0.9246101326867038 0 0  0.9882218810934433 0 0  1.054135445558498 0 0  1.122434100542598 0 0  1.193204177141305 0 0  1.266535089879536 0 0  1.342519516046404 0 0  1.421253448503939 0 0  1.502836389106271 0 0  1.587371439758838 0 0  1.674965418777374 0 0  1.765729001825544 0 0  1.859776908880082 0 0  1.957227977487062 0 0  2.058205329869943 0 0  2.162836591189951 0 0  2.271253957290865 0 0  2.383594446803425 0 0  2.5 0.1024999999997612 0  2.5 0.2049999999994743 0  2.5 0.3074999999997183 0  2.383594446803656 0.41 0  2.271253957291315 0.41 0  2.162836591190598 0.41 0  2.058205329870775 0.41 0  1.957227977488067 0.41 0  1.859776908881246 0.41 0  1.765729001826854 0.41 0  1.674965418778818 0.41 0  1.58737143976041 0.41 0  1.502836389107956 0.41 0  1.421253448505726 0.41 0  1.342519516048286 0.41 0  1.266535089881505 0.41 0  1.193204177143353 0.41 0  1.122434100544716 0.41 0  1.05413544556068 0.41 0  0.9882218810956305 0.41 0  0.9246101326886647 0.41 0  0.8632198139519631 0.41 0  0.8039733463934788 0.41 0  0.7467958595662458 0.41 0  0.6916151138480078 0.41 0  0.6383613676644679 0.41 0  0.5869673343225223 0.41 0  0.5373680609412221 0.41 0  0.4895008759292634 0.41 0  0.4433053055145528 0.41 0  0.3987229542475914 0.41 0  0.3556974926297398 0.41 0  0.3141745521466497 0.41 0  0.2741016576310038 0.41 0  0.2354281840915826 0.41 0  0.1981052433265003 0.41 0  0.1620856860352591 0.41 0  0.1273239957535623 0.41 0  0.09377624077128965 0.41 0  0.06140001986584975 0.41 0  0.03015443760436654 0.41 0  0.2497468076502589 0.2050254481002335 0  0.2497468076502614 0.1949745518997913 0  0.2469965252529372 0.1829317073451959 0  0.2439893735792749 0.1762316384219906 0  0.2400332147834255 0.1700443375285386 0  0.2352133972704371 0.1645032867342007 0  0.2296339016332438 0.1597280261969788 0  0.2234150974217223 0.1558215752574715 0  0.2166911463437691 0.1528682099456123 0  0.2096071079204251 0.1509316448471593 0  0.2023158100364996 0.1500536585536553 0  0.194974551899914 0.1502531923497262 0  0.1877417105387872 0.1515259415822739 0  0.1807733240461124 0.153844448527136 0  0.1742197252835808 0.15715869474974 0  0.1682222986673531 0.1613971801805478 0  0.162910430003803 0.1664684656256651 0  0.1583987151779087 0.1722631454351573 0  0.1547844879126891 0.178656207771761 0  0.1521457199348551 0.1855097315605723 0  0.1505393388476355 0.1926758619366523 0  0.1505393388476328 0.2073241380633295 0  0.1521457199348437 0.2144902684393899 0  0.1547844879126531 0.221343792228163 0  0.1583987151778488 0.2277368545647528 0  0.1629104300036858 0.2335315343742052 0  0.1682222986671726 0.2386028198193036 0  0.1742197252833576 0.2428413052501257 0  0.1807733240458683 0.2461555514727623 0  0.1877417105384929 0.2484740584176516 0  0.1949745518995776 0.2497468076502398 0  0.202315810036185 0.2499463414463592 0  0.2096071079201568 0.2490683551528932 0  0.2166911463435495 0.2471317900544655 0  0.2234150974215506 0.2441784247426195 0  0.2296339016331197 0.2402719738031125 0  0.2352133972703547 0.2354967132658811 0  0.2400332147833751 0.2299556624715287 0  0.2439893735792577 0.2237683615780412 0  0.246996525252926 0.2170682926548348 0  0.25645809709277 0.21 0  0.2639263993298655 0.21 0  0.271394701566961 0.21 0  0.2788630038040554 0.21 0  0.2863313060411479 0.21 0  0.2937996082782405 0.21 0  0.301267910515333 0.21 0  0.3087362127524279 0.21 0  0.3162045149895234 0.21 0  0.3236728172265972 0.21 0  0.3311411194636928 0.21 0  0.3386094217007701 0.21 0  0.3460777239378666 0.21 0  0.3535460261749672 0.21 0  0.3610143284120516 0.21 0  0.3684826306491596 0.21 0  0.3759509328862226 0.21 0  0.383419235123329 0.21 0  0.3908875373604028 0.21 0  0.3983558395975142 0.21 0  0.4058241418345938 0.21 0  0.4132924440716992 0.21 0  0.4207607463087888 0.21 0  0.4282290485459029 0.21 0  0.4356973507830418 0.21 0  0.4431656530201649 0.21 0  0.4506339552573136 0.21 0  0.4581022574944306 0.21 0  0.4655705597315852 0.21 0  0.4730388619686996 0.21 0  0.480507164205851 0.21 0  0.4879754664429498 0.21 0  0.4954437686800938 0.21 0  0.502912070917267 0.21 0  0.5103803731544119 0.21 0  0.5178486753915261 0.21 0  0.5253169776286404 0.21 0  0.5327852798657868 0.21 0  0.5402535821029386 0.21 0  0.54772188434007 0.21 0  0.5551901865771842 0.21 0  0.5626584888143201 0.21 0  0.5701267910514778 0.21 0  0.5775950932886138 0.21 0  0.5850633955257281 0.21 0  0.5925316977628483 0.21 0  0.6 0.2050000000000054 0  0.6 0.1950000000000217 0  0.5925316977628897 0.19 0  0.5850633955257988 0.19 0  0.5775950932887378 0.19 0  0.5701267910515998 0.19 0  0.5626584888145268 0.19 0  0.5551901865773963 0.19 0  0.547721884340339 0.19 0  0.5402535821032429 0.19 0  0.5327852798661811 0.19 0  0.5253169776290537 0.19 0  0.5178486753919799 0.19 0  0.5103803731549078 0.19 0  0.502912070917822 0.19 0  0.4954437686807294 0.19 0  0.4879754664436223 0.19 0  0.4805071642065402 0.19 0  0.4730388619694271 0.19 0  0.4655705597323621 0.19 0  0.4581022574952563 0.19 0  0.4506339552581777 0.19 0  0.4431656530210671 0.19 0  0.4356973507839815 0.19 0  0.4282290485468779 0.19 0  0.4207607463097617 0.19 0  0.4132924440726327 0.19 0  0.4058241418354857 0.19 0  0.3983558395983636 0.19 0  0.3908875373612097 0.19 0  0.3834192351240934 0.19 0  0.3759509328869369 0.19 0  0.3684826306498175 0.19 0  0.361014328412667 0.19 0  0.3535460261755617 0.19 0  0.3460777239384295 0.19 0  0.3386094217012945 0.19 0  0.3311411194641595 0.19 0  0.3236728172270245 0.19 0  0.3162045149898895 0.19 0  0.3087362127527544 0.19 0  0.3012679105156187 0.19 0  0.2937996082784807 0.19 0  0.2863313060413428 0.19 0  0.2788630038042048 0.19 0  0.2713947015670686 0.19 0  0.2639263993299336 0.19 0  0.2564580970927985 0.19 0  0.2607803159922026 0.2000727136295815 0  0.5887803774232762 0.2001272386983733 0  0.5745072403740523 0.2002044435018727 0  0.5511891430099709 0.2001122610077113 0  0.2751288526855082 0.20000000000002 0  0.5365194309847112 0.1999999999999436 0  0.2894621222999649 0.1998691686390484 0  0.5215828265105155 0.1999999999999228 0  0.3127789816668748 0.1998657885438805 0  0.3274069683451451 0.2000000000000796 0  0.5066462220363641 0.199999999999908 0  0.3650630746574081 0.199866017807523 0  0.476773013087985 0.1999999999998713 0  0.3417402379596385 0.1998691686391011 0  0.3796850840047755 0.200000000000134 0  0.4618364086138087 0.1999999999998546 0  0.4917096175621762 0.1999999999998808 0  0.3946216884789568 0.2000000000001512 0  0.446899804139621 0.1999999999998389 0  0.4089549580935208 0.1998691686391595 0  0.4322718174608562 0.200127451265745 0  0.4201487168029707 0.1999966199048527 0  0.3528922713220932 0.2000185703532356 0  0.5633122436674589 0.1999814296467508 0  0.3006558810093873 0.1999966199048318 0  0.5815926498168407 0.1966545283159175 0  0.2677053789419034 0.1964246479135325 0  0.5290511287476175 0.1970915826863981 0  0.5439877332217911 0.197091582686394 0  0.2825131256993216 0.2035478995978015 0  0.3199386661080599 0.202908417313604 0  0.4842413153250809 0.1970915826863873 0  0.5141145242734466 0.1970915826863843 0  0.3722167817676917 0.2029084173136195 0  0.4693047108508938 0.1970915826863783 0  0.3348752705822316 0.202908417313609 0  0.3871533862418661 0.2029084173136212 0  0.4543681063767183 0.1970915826863795 0  0.4991779197992749 0.1970915826863902 0  0.4020059614928624 0.203547899597858 0  0.4394315019025246 0.1970915826863714 0  0.2550657455369551 0.2034088125358657 0  0.2548908499171161 0.1966940311614271 0  0.5946539510196798 0.2024302972968126 0  0.267698176732111 0.2039977513680092 0  0.4261685417851465 0.196409292431739 0  0.3590076176283495 0.196411355804271 0  0.5571672426447437 0.2036011176410121 0  0.3066757059912147 0.1964092924317024 0  0.594380730180568 0.1966558399668133 0  0.4842413153245942 0.2040749161535287 0  0.4693047108503577 0.2040749161535231 0  0.3871533862424271 0.1959250838464788 0  0.372246743208829 0.1959123236376545 0  0.5141145242731028 0.2040749161535395 0  0.4543681063761134 0.2040749161535186 0  0.4019979587101454 0.1959834479682427 0  0.4394608940728603 0.2040870543693135 0  0.5439623148931173 0.2040856076781014 0  0.5290511287473298 0.2040749161535501 0  0.4991779197988497 0.2040749161535382 0  0.3347912413592433 0.1959225448935183 0  0.3199680582793816 0.1959123018030061 0  0.2825051229162361 0.1959834479681729 0  0.3590471196690275 0.2036304442587945 0  0.5571594006495384 0.1963685282145804 0  0.3067669986803285 0.203627750582736 0  0.4262598344738712 0.2036568242185335 0  0.5814408164431408 0.2041285596160068 0  0.5688286748170428 0.1961819304477386 0  0.4145905603063645 0.2038180695522843 0  0.3473758401724931 0.2038180695522752 0  0.2950977245128307 0.2038180695522663 0  0.5688286748170693 0.203818069552238 0  0.2950977245127906 0.1961819304477774 0  0.3473758401723931 0.1961819304478349 0  0.4145905603061963 0.1961819304479011 0  0.2601812407614425 0.2056861609747042
[...]
<PointData  Vectors="f_40-1"> 
<DataArray  type="Float64"  Name="f_40-1"  NumberOfComponents="3" format="ascii">0.0000000000000000e+00 0.0000000000000000e+00 0.0000000000000000e+00  0.0000000000000000e+00 0.0000000000000000e+00 0.0000000000000000e+00  0.0000000000000000e+00 0.0000000000000000e+00 0.0000000000000000e+00  0.0000000000000000e+00 0.0000000000000000e+00 0.0000000000000000e+00  5.8273202764173428e-05 2.0796812990994565e-03 0.0000000000000000e+00  -8.7357486966990126e-05 2.0795553048582856e-03 0.0000000000000000e+00  0.0000000000000000e+00 0.0000000000000000e+00 0.0000000000000000e+00  0.0000000000000000e+00 0.0000000000000000e+00 0.0000000000000000e+00  0.0000000000000000e+00 0.0000000000000000e+00 0.0000000000000000e+00  0.0000000000000000e+00 0.0000000000000000e+00 0.0000000000000000e+00  -1.4613588182755846e-05 2.0796106296428135e-03 0.0000000000000000e+00  0.0000000000000000e+00 0.0000000000000000e+00 0.0000000000000000e+00  0.0000000000000000e+00 0.0000000000000000e+00 0.0000000000000000e+00  0.0000000000000000e+00 0.0000000000000000e+00 0.0000000000000000e+00  0.0000000000000000e+00 0.0000000000000000e+00 0.0000000000000000e+00  0.0000000000000000e+00 0.0000000000000000e+00 0.0000000000000000e+00  0.0000000000000000e+00 0.0000000000000000e+00 0.0000000000000000e+00  0.0000000000000000e+00 0.0000000000000000e+00 0.0000000000000000e+00  0.0000000000000000e+00 0.0000000000000000e+00 0.0000000000000000e+00  0.0000000000000000e+00 0.0000000000000000e+00 0.0000000000000000e+00  0.0000000000000000e+00 0.0000000000000000e+00 0.0000000000000000e+00  0.0000000000000000e+00 0.0000000000000000e+00 0.0000000000000000e+00  0.0000000000000000e+00 0.0000000000000000e+00 0.0000000000000000e+00  0.0000000000000000e+00 0.0000000000000000e+00 0.0000000000000000e+00  0.0000000000000000e+00 0.0000000000000000e+00 0.0000000000000000e+00  0.0000000000000000e+00 0.0000000000000000e+00 0.0000000000000000e+00  0.0000000000000000e+00 0.0000000000000000e+00 0.0000000000000000e+00  0.0000000000000000e+00 0.0000000000000000e+00 0.0000000000000000e+00  0.0000000000000000e+00 0.0000000000000000e+00 0.0000000000000000e+00  0.0000000000000000e+00 0.0000000000000000e+00 0.0000000000000000e+00  0.0000000000000000e+00 0.0000000000000000e+00 0.0000000000000000e+00  0.0000000000000000e+00 0.0000000000000000e+00 0.0000000000000000e+00  0.0000000000000000e+00 0.0000000000000000e+00 0.0000000000000000e+00  0.0000000000000000e+00 0.0000000000000000e+00 0.0000000000000000e+00  0.0000000000000000e+00 0.0000000000000000e+00 0.0000000000000000e+00  0.0000000000000000e+00 0.0000000000000000e+00 0.0000000000000000e+00  0.0000000000000000e+00 0.0000000000000000e+00 0.0000000000000000e+00  0.0000000000000000e+00 0.0000000000000000e+00 0.0000000000000000e+00  0.0000000000000000e+00 0.0000000000000000e+00 0.0000000000000000e+00  0.0000000000000000e+00 0.0000000000000000e+00 0.0000000000000000e+00  0.0000000000000000e+00 0.0000000000000000e+00 0.0000000000000000e+00  0.0000000000000000e+00 0.0000000000000000e+00 0.0000000000000000e+00  0.0000000000000000e+00 0.0000000000000000e+00 0.0000000000000000e+00  0.0000000000000000e+00 0.0000000000000000e+00 0.0000000000000000e+00  0.0000000000000000e+00 0.0000000000000000e+00 0.0000000000000000e+00  0.0000000000000000e+00 0.0000000000000000e+00 0.0000000000000000e+00  0.0000000000000000e+00 0.0000000000000000e+00 0.0000000000000000e+00  0.0000000000000000e+00 0.0000000000000000e+00 0.0000000000000000e+00  0.0000000000000000e+00 0.0000000000000000e+00 0.0000000000000000e+00  0.0000000000000000e+00 0.0000000000000000e+00 0.0000000000000000e+00  0.0000000000000000e+00 0.0000000000000000e+00 0.0000000000000000e+00  0.0000000000000000e+00 0.0000000000000000e+00 0.0000000000000000e+00  0.0000000000000000e+00 0.0000000000000000e+00 0.0000000000000000e+00  0.0000000000000000e+00 0.0000000000000000e+00 0.0000000000000000e+00  0.0000000000000000e+00 0.0000000000000000e+00 0.0000000000000000e+00  0.0000000000000000e+00 0.0000000000000000e+00 0.0000000000000000e+00  0.0000000000000000e+00 0.0000000000000000e+00 0.0000000000000000e+00  0.0000000000000000e+00 0.0000000000000000e+00 0.0000000000000000e+00  0.0000000000000000e+00 0.0000000000000000e+00 0.0000000000000000e+00  0.0000000000000000e+00 0.0000000000000000e+00 0.0000000000000000e+00  0.0000000000000000e+00 0.0000000000000000e+00 0.0000000000000000e+00  0.0000000000000000e+00 0.0000000000000000e+00 0.0000000000000000e+00  0.0000000000000000e+00 0.0000000000000000e+00 0.0000000000000000e+00  0.0000000000000000e+00 0.0000000000000000e+00 0.0000000000000000e+00  0.0000000000000000e+00 0.0000000000000000e+00 0.0000000000000000e+00  0.0000000000000000e+00 0.0000000000000000e+00 0.0000000000000000e+00  0.0000000000000000e+00 0.0000000000000000e+00 0.0000000000000000e+00  0.0000000000000000e+00 0.0000000000000000e+00 0.0000000000000000e+00  0.0000000000000000e+00 0.0000000000000000e+00 0.0000000000000000e+00  0.0000000000000000e+00 0.0000000000000000e+00 0.0000000000000000e+00  0.0000000000000000e+00 0.0000000000000000e+00 0.0000000000000000e+00  0.0000000000000000e+00 0.0000000000000000e+00 0.0000000000000000e+00  0.0000000000000000e+00 0.0000000000000000e+00 0.0000000000000000e+00  0.0000000000000000e+00 0.0000000000000000e+00 0.0000000000000000e+00  0.0000000000000000e+00 0.0000000000000000e+00 0.0000000000000000e+00  0.0000000000000000e+00 0.0000000000000000e+00 0.0000000000000000e+00  0.0000000000000000e+00 0.0000000000000000e+00 0.0000000000000000e+00  0.0000000000000000e+00 0.0000000000000000e+00 0.0000000000000000e+00  0.0000000000000000e+00 0.0000000000000000e+00 0.0000000000000000e+00  0.0000000000000000e+00 0.0000000000000000e+00 0.0000000000000000e+00  0.0000000000000000e+00 0.0000000000000000e+00 0.0000000000000000e+00  0.0000000000000000e+00 0.0000000000000000e+00 0.0000000000000000e+00  0.0000000000000000e+00 0.0000000000000000e+00 0.0000000000000000e+00  0.0000000000000000e+00 0.0000000000000000e+00 0.0000000000000000e+00  0.0000000000000000e+00 0.0000000000000000e+00 0.0000000000000000e+00  0.0000000000000000e+00 0.0000000000000000e+00 0.0000000000000000e+00  0.0000000000000000e+00 0.0000000000000000e+00 0.0000000000000000e+00  0.0000000000000000e+00 0.0000000000000000e+00 0.0000000000000000e+00  0.0000000000000000e+00 0.0000000000000000e+00 0.0000000000000000e+00  0.0000000000000000e+00 0.0000000000000000e+00 0.0000000000000000e+00  0.0000000000000000e+00 0.0000000000000000e+00 0.0000000000000000e+00  0.0000000000000000e+00 0.0000000000000000e+00 0.0000000000000000e+00  0.0000000000000000e+00 0.0000000000000000e+00 0.0000000000000000e+00  0.0000000000000000e+00 0.0000000000000000e+00 0.0000000000000000e+00  0.0000000000000000e+00 0.0000000000000000e+00 0.0000000000000000e+00  0.0000000000000000e+00 0.0000000000000000e+00 0.0000000000000000e+00  0.0000000000000000e+00 0.0000000000000000e+00 0.0000000000000000e+00  0.0000000000000000e+00 0.0000000000000000e+00 0.0000000000000000e+00  0.0000000000000000e+00 0.0000000000000000e+00 0.0000000000000000e+00  0.0000000000000000e+00 0.0000000000000000e+00 0.0000000000000000e+00  0.0000000000000000e+00 0.0000000000000000e+00 0.0000000000000000e+00  0.0000000000000000e+00 0.0000000000000000e+00 0.0000000000000000e+00  0.0000000000000000e+00 0.0000000000000000e+00 0.0000000000000000e+00  0.0000000000000000e+00 0.0000000000000000e+00 0.0000000000000000e+00  0.0000000000000000e+00 0.0000000000000000e+00 0.0000000000000000e+00  0.0000000000000000e+00 0.0000000000000000e+00 0.0000000000000000e+00  0.0000000000000000e+00 0.0000000000000000e+00 0.0000000000000000e+00  0.0000000000000000e+00 0.0000000000000000e+00 0.0000000000000000e+00  0.0000000000000000e+00 0.0000000000000000e+00 0.0000000000000000e+00  0.0000000000000000e+00 0.0000000000000000e+00 0.0000000000000000e+00  0.0000000000000000e+00 0.0000000000000000e+00 0.0000000000000000e+00  0.0000000000000000e+00 0.0000000000000000e+00 0.0000000000000000e+00  0.0000000000000000e+00 0.0000000000000000e+00 0.0000000000000000e+00  0.0000000000000000e+00 0.0000000000000000e+00 0.0000000000000000e+00  0.0000000000000000e+00 0.0000000000000000e+00 0.0000000000000000e+00  0.0000000000000000e+00 0.0000000000000000e+00 0.0000000000000000e+00  0.0000000000000000e+00 0.0000000000000000e+00 0.0000000000000000e+00  0.0000000000000000e+00 0.0000000000000000e+00 0.0000000000000000e+00  0.0000000000000000e+00 0.0000000000000000e+00 0.0000000000000000e+00  0.0000000000000000e+00 0.0000000000000000e+00 0.0000000000000000e+00  0.0000000000000000e+00 0.0000000000000000e+00 0.0000000000000000e+00  0.0000000000000000e+00 0.0000000000000000e+00 0.0000000000000000e+00  0.0000000000000000e+00 0.0000000000000000e+00 0.0000000000000000e+00  0.0000000000000000e+00 0.0000000000000000e+00 0.0000000000000000e+00  0.0000000000000000e+00 0.0000000000000000e+00 0.0000000000000000e+00  0.0000000000000000e+00 0.0000000000000000e+00 0.0000000000000000e+00  0.0000000000000000e+00 0.0000000000000000e+00 0.0000000000000000e+00  0.0000000000000000e+00 0.0000000000000000e+00 0.0000000000000000e+00  0.0000000000000000e+00 0.0000000000000000e+00 0.0000000000000000e+00  0.0000000000000000e+00 0.0000000000000000e+00 0.0000000000000000e+00  0.0000000000000000e+00 0.0000000000000000e+00 0.0000000000000000e+00  0.0000000000000000e+00 0.0000000000000000e+00 0.0000000000000000e+00  0.0000000000000000e+00 0.0000000000000000e+00 0.0000000000000000e+00  0.0000000000000000e+00 0.0000000000000000e+00 0.0000000000000000e+00  0.0000000000000000e+00 0.0000000000000000e+00 0.0000000000000000e+00  0.0000000000000000e+00 0.0000000000000000e+00 0.0000000000000000e+00  0.0000000000000000e+00 0.0000000000000000e+00 0.0000000000000000e+00  0.0000000000000000e+00 0.0000000000000000e+00 0.0000000000000000e+00  0.0000000000000000e+00 0.0000000000000000e+00 0.0000000000000000e+00  0.0000000000000000e+00 0.0000000000000000e+00 0.0000000000000000e+00  0.0000000000000000e+00 0.0000000000000000e+00 0.0000000000000000e+00  0.0000000000000000e+00 0.0000000000000000e+00 0.0000000000000000e+00  0.0000000000000000e+00 0.0000000000000000e+00 0.0000000000000000e+00  -5.8589313495549108e-06 5.8113089173739064e-06 0.0000000000000000e+00  -1.2401498359107828e-05 1.2487192106570395e-05 0.0000000000000000e+00  -1.8164494972387602e-05 2.3128138054000411e-05 0.0000000000000000e+00  -2.4277418202091228e-05 3.7983373824510794e-05 0.0000000000000000e+00  -2.9348374864023507e-05 5.6259020480902406e-05 0.0000000000000000e+00  -3.4913065077214840e-05 7.8271689683403104e-05 0.0000000000000000e+00  -3.9362044951469278e-05 1.0296833607334496e-04 0.0000000000000000e+00  -4.3568866674049733e-05 1.3113030104356716e-04 0.0000000000000000e+00  -4.8235863619898978e-05 1.6185540354001111e-04 0.0000000000000000e+00  -5.1750163464134072e-05 1.9516255257860435e-04 0.0000000000000000e+00  -5.5841303614375147e-05 2.3097682570212013e-04 0.0000000000000000e+00  -5.8874016289459201e-05 2.6896829780389278e-04 0.0000000000000000e+00  -6.2267251135386418e-05 3.0903324455530586e-04 0.0000000000000000e+00  -6.4915539502418283e-05 3.5070308772139195e-04 0.0000000000000000e+00  -6.7365467344122660e-05 3.9427805041525473e-04 0.0000000000000000e+00  -6.9993561059002309e-05 4.3922947899676859e-04 0.0000000000000000e+00  -7.1938698464231400e-05 4.8550630267773761e-04 0.0000000000000000e+00  -7.4096471660575563e-05 5.3305085318760019e-04 0.0000000000000000e+00  -7.5669606302605923e-05 5.8160142100378983e-04 0.0000000000000000e+00  -7.7373582740097624e-05 6.3109967664452501e-04 0.0000000000000000e+00  -7.8680490237747314e-05 6.8139479198627343e-04 0.0000000000000000e+00  -7.9994005987615142e-05 7.3244445917977706e-04 0.0000000000000000e+00  -8.1022052420400836e-05 7.8399546765828450e-04 0.0000000000000000e+00  -8.1930758873754523e-05 8.3615516317369081e-04 0.0000000000000000e+00  -8.2845128069008900e-05 8.8870456259185476e-04 0.0000000000000000e+00  -8.3558722784953811e-05 9.4165661714445666e-04 0.0000000000000000e+00  -8.4209524695548043e-05 9.9496036687065086e-04 0.0000000000000000e+00  -8.4745158721449899e-05 1.0484918207140604e-03 0.0000000000000000e+00  -8.5221158610417243e-05 1.1022804202062443e-03 0.0000000000000000e+00  -8.5609348796088217e-05 1.1562154468818971e-03 0.0000000000000000e+00  -8.5945280959367294e-05 1.2103171796474705e-03 0.0000000000000000e+00  -8.6213568881514035e-05 1.2644958166904900e-03 0.0000000000000000e+00  -8.6439333879751392e-05 1.3187703461390019e-03 0.0000000000000000e+00  -8.6613780801239493e-05 1.3730710946806195e-03 0.0000000000000000e+00  -8.6752706315994244e-05 1.4274196269038555e-03 0.0000000000000000e+00  -8.6860890395500147e-05 1.4817678857737108e-03 0.0000000000000000e+00  -8.6945632458874919e-05 1.5361300242466612e-03 0.0000000000000000e+00  -8.7012874874016317e-05 1.5904810150132339e-03 0.0000000000000000e+00  -8.7065283062028333e-05 1.6448303291514788e-03 0.0000000000000000e+00  -8.7110889595884395e-05 1.6991693192532093e-03 0.0000000000000000e+00  -8.7150739442426009e-05 1.7535015188724513e-03 0.0000000000000000e+00  -8.7190925499681081e-05 1.8078297821042253e-03 0.0000000000000000e+00  -8.7227228801702801e-05 1.8621606439305611e-03 0.0000000000000000e+00  -8.7266053384901074e-05 1.9164954481617387e-03 0.0000000000000000e+00  -8.7306296503854747e-05 1.9708435154164898e-03 0.0000000000000000e+00  -8.7340939906766106e-05 2.0252006635388567e-03 0.0000000000000000e+00  -5.1002438036594678e-05 2.0795825338368202e-03 0.0000000000000000e+00  2.1803740054320042e-05 2.0796409561749359e-03 0.0000000000000000e+00  5.8268272757161290e-05 2.0252687881015235e-03 0.0000000000000000e+00  5.8286041505080342e-05 1.9708940906049198e-03 0.0000000000000000e+00  5.8311489288170003e-05 1.9165344909466322e-03 0.0000000000000000e+00  5.8339052917380566e-05 1.8621800935770311e-03 0.0000000000000000e+00  5.8372232227132228e-05 1.8078275501910220e-03 0.0000000000000000e+00  5.8417055553422952e-05 1.7534728300613552e-03 0.0000000000000000e+00  5.8468579998607041e-05 1.6991117763337051e-03 0.0000000000000000e+00  5.8528390780128593e-05 1.6447434918660639e-03 0.0000000000000000e+00  5.8594074698576563e-05 1.5903633774305972e-03 0.0000000000000000e+00  5.8664841624896714e-05 1.5359724279860984e-03 0.0000000000000000e+00  5.8734762456277304e-05 1.4815749405573215e-03 0.0000000000000000e+00  5.8809497438958310e-05 1.4271779794311668e-03 0.0000000000000000e+00  5.8869623207657207e-05 1.3727914227560391e-03 0.0000000000000000e+00  5.8933749517958542e-05 1.3184337429396863e-03 0.0000000000000000e+00  5.8959748987879200e-05 1.2641185272448648e-03 0.0000000000000000e+00  5.8994624124879611e-05 1.2098788613904197e-03 0.0000000000000000e+00  5.8961526884404209e-05 1.1557332975711562e-03 0.0000000000000000e+00  5.8948470086950118e-05 1.1017287434447805e-03 0.0000000000000000e+00  5.8831181825192801e-05 1.0478907345753909e-03 0.0000000000000000e+00  5.8751168167445180e-05 9.9427892448339015e-04 0.0000000000000000e+00  5.8517377944635910e-05 9.4092366899581456e-04 0.0000000000000000e+00  5.8342935698835503e-05 8.8790025256277837e-04 0.0000000000000000e+00  5.7966947666293617e-05 8.3525606456568129e-04 0.0000000000000000e+00  5.7637094434037030e-05 7.8302155985986296e-04 0.0000000000000000e+00  5.7240915017151283e-05 7.3139742037057695e-04 0.0000000000000000e+00  5.6606235479304241e-05 6.8024769827136221e-04 0.0000000000000000e+00  5.5971089189880623e-05 6.2988927818192011e-04 0.0000000000000000e+00  5.5108851967763856e-05 5.8027397091348629e-04 0.0000000000000000e+00  5.4206171259343989e-05 5.3164641190903529e-04 0.0000000000000000e+00  5.3040259676594179e-05 4.8401490138600057e-04 0.0000000000000000e+00  5.1827528855737771e-05 4.3758270748034373e-04 0.0000000000000000e+00  5.0141131207418540e-05 3.9263000324593741e-04 0.0000000000000000e+00  4.8640359142455211e-05 3.4893492095544403e-04 0.0000000000000000e+00  4.6978736553941248e-05 3.0719884301004985e-04 0.0000000000000000e+00  4.4701725728812960e-05 2.6690146900962633e-04 0.0000000000000000e+00  4.2487342422476653e-05 2.2888105675358429e-04 0.0000000000000000e+00  3.9819181691995257e-05 1.9295351801414251e-04 0.0000000000000000e+00  3.7165761218816321e-05 1.5943232804797712e-04 0.0000000000000000e+00  3.3732920090778511e-05 1.2876318707201936e-04 0.0000000000000000e+00  3.0732834592585068e-05 1.0045448491426002e-04 0.0000000000000000e+00  2.7546246855813426e-05 7.5668097656812915e-05 0.0000000000000000e+00  2.3347829488387295e-05 5.3460997341332750e-05 0.0000000000000000e+00  1.9463481158460480e-05 3.5016473798308941e-05 0.0000000000000000e+00  1.4646696945388455e-05 2.0274696500479324e-05 0.0000000000000000e+00  1.0277348382703618e-05 9.5594287371190469e-06 0.0000000000000000e+00  4.8790244833026637e-06 3.0011541751743194e-06 0.0000000000000000e+00  -5.9984119767743207e-07 4.7583506453624908e-06 0.0000000000000000e+00  -1.5481403409373275e-05 1.9979227330359441e-03 0.0000000000000000e+00  -1.5972497301870320e-05 1.8940421582950744e-03 0.0000000000000000e+00  -1.5176583486745088e-05 1.7243747752595468e-03 0.0000000000000000e+00  -2.0058509500895529e-06 2.6117985506901259e-05 0.0000000000000000e+00  -1.4254061515825893e-05 1.6176072024643618e-03 0.0000000000000000e+00  -2.9308976038091156e-06 6.1403023398990680e-05 0.0000000000000000e+00  -1.4114393016222611e-05 1.5088562978549447e-03 0.0000000000000000e+00  -4.6506592896705894e-06 1.4441702008822699e-04 0.0000000000000000e+00  -6.3089737053290459e-06 2.1021110737404357e-04 0.0000000000000000e+00  -1.3931339281711318e-05 1.4000925219602987e-03 0.0000000000000000e+00  -8.0355965400063251e-06 4.1668183091844583e-04 0.0000000000000000e+00  -1.3403247958559818e-05 1.1829358250210681e-03 0.0000000000000000e+00  -6.6419010364919540e-06 2.8319736563618827e-04 0.0000000000000000e+00  -9.6936266979027012e-06 5.0767029864100764e-04 0.0000000000000000e+00  -1.3047421228464861e-05 1.0749376133832871e-03 0.0000000000000000e+00  -1.3696219159588427e-05 1.2913997184088224e-03 0.0000000000000000e+00  -1.0490465163880116e-05 6.0501898153707831e-04 0.0000000000000000e+00  -1.2619182395996411e-05 9.6771892269652781e-04 0.0000000000000000e+00  -1.0288641893539224e-05 7.0168445255980772e-04 0.0000000000000000e+00  -1.3024693610509652e-05 8.6384614695271154e-04 0.0000000000000000e+00  -1.1632386301507575e-05 7.7898720885561550e-04 0.0000000000000000e+00  -8.1745200489683223e-06 3.4527796318984945e-04 0.0000000000000000e+00  -1.4295919312694627e-05 1.8125852982404901e-03 0.0000000000000000e+00  -4.1957918199883424e-06 9.8088553677083931e-05 0.0000000000000000e+00  9.8359803319228189e-06 1.9456119032707009e-03 0.0000000000000000e+00  3.6965741802715243e-06 1.3140883151280864e-05 0.0000000000000000e+00  6.9865410732397427e-06 1.5632168130174596e-03 0.0000000000000000e+00  6.8620476969461586e-06 1.6719565877488551e-03 0.0000000000000000e+00  -1.1122896684840130e-05 4.3580861158129303e-05 0.0000000000000000e+00  -1.8639456811324545e-05 1.7598221538507185e-04 0.0000000000000000e+00  7.5345323355024546e-06 1.2370767720194023e-03 0.0000000000000000e+00  7.1414689915719590e-06 1.4544429864467754e-03 0.0000000000000000e+00  -2.7213763998300572e-05 4.6093754129835263e-04 0.0000000000000000e+00  7.7569267840429759e-06 1.1288010767158017e-03 0.0000000000000000e+00  -2.1462793028308886e-05 2.4777350899256512e-04 0.0000000000000000e+00  -2.8916750302377529e-05 5.5614846074761304e-04 0.0000000000000000e+00  7.9862196880179208e-06 1.0211389323030516e-03 0.0000000000000000e+00  7.3264110564356605e-06 1.3456896586158524e-03 0.0000000000000000e+00  -3.4645009544359495e-05 6.5477902213518212e-04 0.0000000000000000e+00  8.2182514639489170e-06 9.1443843956306374e-04 0.0000000000000000e+00  -1.0397976387040352e-06 1.3948267464703358e-06 0.0000000000000000e+00  7.4104105786417916e-07 6.5328068366638779e-07 0.0000000000000000e+00  -3.2277441160687418e-05 2.0406778035813771e-03 0.0000000000000000e+00  -6.8681518663709948e-06 1.4318958291428211e-05 0.0000000000000000e+00  1.3178702370347536e-05 8.2082329203973401e-04 0.0000000000000000e