<?xml version="1.0"?>
<VTKFile type="UnstructuredGrid"  version="0.1"  >
<UnstructuredGrid>
<Piece  NumberOfPoints="1419" NumberOfCells="2698">
<Points>
<DataArray  type="Float64"  NumberOfComponents="3"  format="ascii">0 0 0  0 0.41 0  2.5 0 0  2.5 0.41 0  0.6 0.19 0  0.6 0.21 0  0.25 0.2 0  0.15 0.2 0  0.2489897948556636 0.21 0  0.2489897948556636 0.19 0  0.6 0.2 0  0 0.3807142857143437 0  0 0.3514285714286952 0  0 0.3221428571430699 0  0 0.29285714285744 0  0 0.2635714285718054 0  0 0.2342857142861561 0  0 0.2050000000005308 0  0 0.175714285714732 0  0 0.1464285714289574 0  0 0.1171428571431897 0  0 0.08785714285737878 0  0 0.05857142857161107 0  0 0.02928571428580012 0  0.03015443760436003 0 0  0.06140001986583606 0 0  0.09377624077125973 0 0  0.1273239957535082 0 0  0.1620856860351972 0 0  0.1981052433264291 0 0  0.235428184091502 0 0  0.2741016576309132 0 0  0.3141745521465447 0 0  0.3556974926295285 0 0  0.3987229542472677 0 0  0.4433053055141081 0 0  0.4895008759286886 0 0  0.5373680609405097 0 0  0.5869673343216626 0 0  0.6383613676634521 0 0  0.6916151138468254 0 0  0.7467958595648856 0 0  0.8039733463919316 0 0  0.8632198139502143 0 0  0.9246101326867038 0 0  0.9882218810934433 0 0  1.054135445558498 0 0  1.122434100542598 0 0  1.193204177141305 0 0  1.266535089879536 0 0  1.342519516046404 0 0  1.421253448503939 0 0  1.502836389106271 0 0  1.587371439758838 0 0  1.674965418777374 0 0  1.765729001825544 0 0  1.859776908880082 0 0  1.957227977487062 0 0  2.058205329869943 0 0  2.162836591189951 0 0  2.271253957290865 0 0  2.383594446803425 0 0  2.5 0.1024999999997612 0  2.5 0.2049999999994743 0  2.5 0.3074999999997183 0  2.383594446803656 0.41 0  2.271253957291315 0.41 0  2.162836591190598 0.41 0  2.058205329870775 0.41 0  1.957227977488067 0.41 0  1.859776908881246 0.41 0  1.765729001826854 0.41 0  1.674965418778818 0.41 0  1.58737143976041 0.41 0  1.502836389107956 0.41 0  1.421253448505726 0.41 0  1.342519516048286 0.41 0  1.266535089881505 0.41 0  1.193204177143353 0.41 0  1.122434100544716 0.41 0  1.05413544556068 0.41 0  0.9882218810956305 0.41 0  0.9246101326886647 0.41 0  0.8632198139519631 0.41 0  0.8039733463934788 0.41 0  0.7467958595662458 0.41 0  0.6916151138480078 0.41 0  0.6383613676644679 0.41 0  0.5869673343225223 0.41 0  0.5373680609412221 0.41 0  0.4895008759292634 0.41 0  0.4433053055145528 0.41 0  0.3987229542475914 0.41 0  0.3556974926297398 0.41 0  0.3141745521466497 0.41 0  0.2741016576310038 0.41 0  0.2354281840915826 0.41 0  0.1981052433265003 0.41 0  0.1620856860352591 0.41 0  0.1273239957535623 0.41 0  0.09377624077128965 0.41 0  0.06140001986584975 0.41 0  0.03015443760436654 0.41 0  0.2497468076502589 0.2050254481002335 0  0.2497468076502614 0.1949745518997913 0  0.2469965252529372 0.1829317073451959 0  0.2439893735792749 0.1762316384219906 0  0.2400332147834255 0.1700443375285386 0  0.2352133972704371 0.1645032867342007 0  0.2296339016332438 0.1597280261969788 0  0.2234150974217223 0.1558215752574715 0  0.2166911463437691 0.1528682099456123 0  0.2096071079204251 0.1509316448471593 0  0.2023158100364996 0.1500536585536553 0  0.194974551899914 0.1502531923497262 0  0.1877417105387872 0.1515259415822739 0  0.1807733240461124 0.153844448527136 0  0.1742197252835808 0.15715869474974 0  0.1682222986673531 0.1613971801805478 0  0.162910430003803 0.1664684656256651 0  0.1583987151779087 0.1722631454351573 0  0.1547844879126891 0.178656207771761 0  0.1521457199348551 0.1855097315605723 0  0.1505393388476355 0.1926758619366523 0  0.1505393388476328 0.2073241380633295 0  0.1521457199348437 0.2144902684393899 0  0.1547844879126531 0.221343792228163 0  0.1583987151778488 0.2277368545647528 0  0.1629104300036858 0.2335315343742052 0  0.1682222986671726 0.2386028198193036 0  0.1742197252833576 0.2428413052501257 0  0.1807733240458683 0.2461555514727623 0  0.1877417105384929 0.2484740584176516 0  0.1949745518995776 0.2497468076502398 0  0.202315810036185 0.2499463414463592 0  0.2096071079201568 0.2490683551528932 0  0.2166911463435495 0.2471317900544655 0  0.2234150974215506 0.2441784247426195 0  0.2296339016331197 0.2402719738031125 0  0.2352133972703547 0.2354967132658811 0  0.2400332147833751 0.2299556624715287 0  0.2439893735792577 0.2237683615780412 0  0.246996525252926 0.2170682926548348 0  0.25645809709277 0.21 0  0.2639263993298655 0.21 0  0.271394701566961 0.21 0  0.2788630038040554 0.21 0  0.2863313060411479 0.21 0  0.2937996082782405 0.21 0  0.301267910515333 0.21 0  0.3087362127524279 0.21 0  0.3162045149895234 0.21 0  0.3236728172265972 0.21 0  0.3311411194636928 0.21 0  0.3386094217007701 0.21 0  0.3460777239378666 0.21 0  0.3535460261749672 0.21 0  0.3610143284120516 0.21 0  0.3684826306491596 0.21 0  0.3759509328862226 0.21 0  0.383419235123329 0.21 0  0.3908875373604028 0.21 0  0.3983558395975142 0.21 0  0.4058241418345938 0.21 0  0.4132924440716992 0.21 0  0.4207607463087888 0.21 0  0.4282290485459029 0.21 0  0.4356973507830418 0.21 0  0.4431656530201649 0.21 0  0.4506339552573136 0.21 0  0.4581022574944306 0.21 0  0.4655705597315852 0.21 0  0.4730388619686996 0.21 0  0.480507164205851 0.21 0  0.4879754664429498 0.21 0  0.4954437686800938 0.21 0  0.502912070917267 0.21 0  0.5103803731544119 0.21 0  0.5178486753915261 0.21 0  0.5253169776286404 0.21 0  0.5327852798657868 0.21 0  0.5402535821029386 0.21 0  0.54772188434007 0.21 0  0.5551901865771842 0.21 0  0.5626584888143201 0.21 0  0.5701267910514778 0.21 0  0.5775950932886138 0.21 0  0.5850633955257281 0.21 0  0.5925316977628483 0.21 0  0.6 0.2050000000000054 0  0.6 0.1950000000000217 0  0.5925316977628897 0.19 0  0.5850633955257988 0.19 0  0.5775950932887378 0.19 0  0.5701267910515998 0.19 0  0.5626584888145268 0.19 0  0.5551901865773963 0.19 0  0.547721884340339 0.19 0  0.5402535821032429 0.19 0  0.5327852798661811 0.19 0  0.5253169776290537 0.19 0  0.5178486753919799 0.19 0  0.5103803731549078 0.19 0  0.502912070917822 0.19 0  0.4954437686807294 0.19 0  0.4879754664436223 0.19 0  0.4805071642065402 0.19 0  0.4730388619694271 0.19 0  0.4655705597323621 0.19 0  0.4581022574952563 0.19 0  0.4506339552581777 0.19 0  0.4431656530210671 0.19 0  0.4356973507839815 0.19 0  0.4282290485468779 0.19 0  0.4207607463097617 0.19 0  0.4132924440726327 0.19 0  0.4058241418354857 0.19 0  0.3983558395983636 0.19 0  0.3908875373612097 0.19 0  0.3834192351240934 0.19 0  0.3759509328869369 0.19 0  0.3684826306498175 0.19 0  0.361014328412667 0.19 0  0.3535460261755617 0.19 0  0.3460777239384295 0.19 0  0.3386094217012945 0.19 0  0.3311411194641595 0.19 0  0.3236728172270245 0.19 0  0.3162045149898895 0.19 0  0.3087362127527544 0.19 0  0.3012679105156187 0.19 0  0.2937996082784807 0.19 0  0.2863313060413428 0.19 0  0.2788630038042048 0.19 0  0.2713947015670686 0.19 0  0.2639263993299336 0.19 0  0.2564580970927985 0.19 0  0.2607803159922026 0.2000727136295815 0  0.5887803774232762 0.2001272386983733 0  0.5745072403740523 0.2002044435018727 0  0.5511891430099709 0.2001122610077113 0  0.2751288526855082 0.20000000000002 0  0.5365194309847112 0.1999999999999436 0  0.2894621222999649 0.1998691686390484 0  0.5215828265105155 0.1999999999999228 0  0.3127789816668748 0.1998657885438805 0  0.3274069683451451 0.2000000000000796 0  0.5066462220363641 0.199999999999908 0  0.3650630746574081 0.199866017807523 0  0.476773013087985 0.1999999999998713 0  0.3417402379596385 0.1998691686391011 0  0.3796850840047755 0.200000000000134 0  0.4618364086138087 0.1999999999998546 0  0.4917096175621762 0.1999999999998808 0  0.3946216884789568 0.2000000000001512 0  0.446899804139621 0.1999999999998389 0  0.4089549580935208 0.1998691686391595 0  0.4322718174608562 0.200127451265745 0  0.4201487168029707 0.1999966199048527 0  0.3528922713220932 0.2000185703532356 0  0.5633122436674589 0.1999814296467508 0  0.3006558810093873 0.1999966199048318 0  0.5815926498168407 0.1966545283159175 0  0.2677053789419034 0.1964246479135325 0  0.5290511287476175 0.1970915826863981 0  0.5439877332217911 0.197091582686394 0  0.2825131256993216 0.2035478995978015 0  0.3199386661080599 0.202908417313604 0  0.4842413153250809 0.1970915826863873 0  0.5141145242734466 0.1970915826863843 0  0.3722167817676917 0.2029084173136195 0  0.4693047108508938 0.1970915826863783 0  0.3348752705822316 0.202908417313609 0  0.3871533862418661 0.2029084173136212 0  0.4543681063767183 0.1970915826863795 0  0.4991779197992749 0.1970915826863902 0  0.4020059614928624 0.203547899597858 0  0.4394315019025246 0.1970915826863714 0  0.2550657455369551 0.2034088125358657 0  0.2548908499171161 0.1966940311614271 0  0.5946539510196798 0.2024302972968126 0  0.267698176732111 0.2039977513680092 0  0.4261685417851465 0.196409292431739 0  0.3590076176283495 0.196411355804271 0  0.5571672426447437 0.2036011176410121 0  0.3066757059912147 0.1964092924317024 0  0.594380730180568 0.1966558399668133 0  0.4842413153245942 0.2040749161535287 0  0.4693047108503577 0.2040749161535231 0  0.3871533862424271 0.1959250838464788 0  0.372246743208829 0.1959123236376545 0  0.5141145242731028 0.2040749161535395 0  0.4543681063761134 0.2040749161535186 0  0.4019979587101454 0.1959834479682427 0  0.4394608940728603 0.2040870543693135 0  0.5439623148931173 0.2040856076781014 0  0.5290511287473298 0.2040749161535501 0  0.4991779197988497 0.2040749161535382 0  0.3347912413592433 0.1959225448935183 0  0.3199680582793816 0.1959123018030061 0  0.2825051229162361 0.1959834479681729 0  0.3590471196690275 0.2036304442587945 0  0.5571594006495384 0.1963685282145804 0  0.3067669986803285 0.203627750582736 0  0.4262598344738712 0.2036568242185335 0  0.5814408164431408 0.2041285596160068 0  0.5688286748170428 0.1961819304477386 0  0.4145905603063645 0.2038180695522843 0  0.3473758401724931 0.2038180695522752 0  0.2950977245128307 0.2038180695522663 0  0.5688286748170693 0.203818069552238 0  0.2950977245127906 0.1961819304477774 0  0.3473758401723931 0.1961819304478349 0  0.4145905603061963 0.1961819304479011 0  0.2601812407614425 0.2056861609747042
[...]
<PointData  Vectors="f_40-1"> 
<DataArray  type="Float64"  Name="f_40-1"  NumberOfComponents="3" format="ascii">0.0000000000000000e+00 0.0000000000000000e+00 0.0000000000000000e+00  0.0000000000000000e+00 0.0000000000000000e+00 0.0000000000000000e+00  0.0000000000000000e+00 0.0000000000000000e+00 0.0000000000000000e+00  0.0000000000000000e+00 0.0000000000000000e+00 0.0000000000000000e+00  5.8273202052823280e-05 2.0796812928873224e-03 0.0000000000000000e+00  -8.7357487200164717e-05 2.0795552986202469e-03 0.0000000000000000e+00  0.0000000000000000e+00 0.0000000000000000e+00 0.0000000000000000e+00  0.0000000000000000e+00 0.0000000000000000e+00 0.0000000000000000e+00  0.0000000000000000e+00 0.0000000000000000e+00 0.0000000000000000e+00  0.0000000000000000e+00 0.0000000000000000e+00 0.0000000000000000e+00  -1.4613588655069515e-05 2.0796106234177423e-03 0.0000000000000000e+00  0.0000000000000000e+00 0.0000000000000000e+00 0.0000000000000000e+00  0.0000000000000000e+00 0.0000000000000000e+00 0.0000000000000000e+00  0.0000000000000000e+00 0.0000000000000000e+00 0.0000000000000000e+00  0.0000000000000000e+00 0.0000000000000000e+00 0.0000000000000000e+00  0.0000000000000000e+00 0.0000000000000000e+00 0.0000000000000000e+00  0.0000000000000000e+00 0.0000000000000000e+00 0.0000000000000000e+00  0.0000000000000000e+00 0.0000000000000000e+00 0.0000000000000000e+00  0.0000000000000000e+00 0.0000000000000000e+00 0.0000000000000000e+00  0.0000000000000000e+00 0.0000000000000000e+00 0.0000000000000000e+00  0.0000000000000000e+00 0.0000000000000000e+00 0.0000000000000000e+00  0.0000000000000000e+00 0.0000000000000000e+00 0.0000000000000000e+00  0.0000000000000000e+00 0.0000000000000000e+00 0.0000000000000000e+00  0.0000000000000000e+00 0.0000000000000000e+00 0.0000000000000000e+00  0.0000000000000000e+00 0.0000000000000000e+00 0.0000000000000000e+00  0.0000000000000000e+00 0.0000000000000000e+00 0.0000000000000000e+00  0.0000000000000000e+00 0.0000000000000000e+00 0.0000000000000000e+00  0.0000000000000000e+00 0.0000000000000000e+00 0.0000000000000000e+00  0.0000000000000000e+00 0.0000000000000000e+00 0.0000000000000000e+00  0.0000000000000000e+00 0.0000000000000000e+00 0.0000000000000000e+00  0.0000000000000000e+00 0.0000000000000000e+00 0.0000000000000000e+00  0.0000000000000000e+00 0.0000000000000000e+00 0.0000000000000000e+00  0.0000000000000000e+00 0.0000000000000000e+00 0.0000000000000000e+00  0.0000000000000000e+00 0.0000000000000000e+00 0.0000000000000000e+00  0.0000000000000000e+00 0.0000000000000000e+00 0.0000000000000000e+00  0.0000000000000000e+00 0.0000000000000000e+00 0.0000000000000000e+00  0.0000000000000000e+00 0.0000000000000000e+00 0.0000000000000000e+00  0.0000000000000000e+00 0.0000000000000000e+00 0.0000000000000000e+00  0.0000000000000000e+00 0.0000000000000000e+00 0.0000000000000000e+00  0.0000000000000000e+00 0.0000000000000000e+00 0.0000000000000000e+00  0.0000000000000000e+00 0.0000000000000000e+00 0.0000000000000000e+00  0.0000000000000000e+00 0.0000000000000000e+00 0.0000000000000000e+00  0.0000000000000000e+00 0.0000000000000000e+00 0.0000000000000000e+00  0.0000000000000000e+00 0.0000000000000000e+00 0.0000000000000000e+00  0.0000000000000000e+00 0.0000000000000000e+00 0.0000000000000000e+00  0.0000000000000000e+00 0.0000000000000000e+00 0.0000000000000000e+00  0.0000000000000000e+00 0.0000000000000000e+00 0.0000000000000000e+00  0.0000000000000000e+00 0.0000000000000000e+00 0.0000000000000000e+00  0.0000000000000000e+00 0.0000000000000000e+00 0.0000000000000000e+00  0.0000000000000000e+00 0.0000000000000000e+00 0.0000000000000000e+00  0.0000000000000000e+00 0.0000000000000000e+00 0.0000000000000000e+00  0.0000000000000000e+00 0.0000000000000000e+00 0.0000000000000000e+00  0.0000000000000000e+00 0.0000000000000000e+00 0.0000000000000000e+00  0.0000000000000000e+00 0.0000000000000000e+00 0.0000000000000000e+00  0.0000000000000000e+00 0.0000000000000000e+00 0.0000000000000000e+00  0.0000000000000000e+00 0.0000000000000000e+00 0.0000000000000000e+00  0.0000000000000000e+00 0.0000000000000000e+00 0.0000000000000000e+00  0.0000000000000000e+00 0.0000000000000000e+00 0.0000000000000000e+00  0.0000000000000000e+00 0.0000000000000000e+00 0.0000000000000000e+00  0.0000000000000000e+00 0.0000000000000000e+00 0.0000000000000000e+00  0.0000000000000000e+00 0.0000000000000000e+00 0.0000000000000000e+00  0.0000000000000000e+00 0.0000000000000000e+00 0.0000000000000000e+00  0.0000000000000000e+00 0.0000000000000000e+00 0.0000000000000000e+00  0.0000000000000000e+00 0.0000000000000000e+00 0.0000000000000000e+00  0.0000000000000000e+00 0.0000000000000000e+00 0.0000000000000000e+00  0.0000000000000000e+00 0.0000000000000000e+00 0.0000000000000000e+00  0.0000000000000000e+00 0.0000000000000000e+00 0.0000000000000000e+00  0.0000000000000000e+00 0.0000000000000000e+00 0.0000000000000000e+00  0.0000000000000000e+00 0.0000000000000000e+00 0.0000000000000000e+00  0.0000000000000000e+00 0.0000000000000000e+00 0.0000000000000000e+00  0.0000000000000000e+00 0.0000000000000000e+00 0.0000000000000000e+00  0.0000000000000000e+00 0.0000000000000000e+00 0.0000000000000000e+00  0.0000000000000000e+00 0.0000000000000000e+00 0.0000000000000000e+00  0.0000000000000000e+00 0.0000000000000000e+00 0.0000000000000000e+00  0.0000000000000000e+00 0.0000000000000000e+00 0.0000000000000000e+00  0.0000000000000000e+00 0.0000000000000000e+00 0.0000000000000000e+00  0.0000000000000000e+00 0.0000000000000000e+00 0.0000000000000000e+00  0.0000000000000000e+00 0.0000000000000000e+00 0.0000000000000000e+00  0.0000000000000000e+00 0.0000000000000000e+00 0.0000000000000000e+00  0.0000000000000000e+00 0.0000000000000000e+00 0.0000000000000000e+00  0.0000000000000000e+00 0.0000000000000000e+00 0.0000000000000000e+00  0.0000000000000000e+00 0.0000000000000000e+00 0.0000000000000000e+00  0.0000000000000000e+00 0.0000000000000000e+00 0.0000000000000000e+00  0.0000000000000000e+00 0.0000000000000000e+00 0.0000000000000000e+00  0.0000000000000000e+00 0.0000000000000000e+00 0.0000000000000000e+00  0.0000000000000000e+00 0.0000000000000000e+00 0.0000000000000000e+00  0.0000000000000000e+00 0.0000000000000000e+00 0.0000000000000000e+00  0.0000000000000000e+00 0.0000000000000000e+00 0.0000000000000000e+00  0.0000000000000000e+00 0.0000000000000000e+00 0.0000000000000000e+00  0.0000000000000000e+00 0.0000000000000000e+00 0.0000000000000000e+00  0.0000000000000000e+00 0.0000000000000000e+00 0.0000000000000000e+00  0.0000000000000000e+00 0.0000000000000000e+00 0.0000000000000000e+00  0.0000000000000000e+00 0.0000000000000000e+00 0.0000000000000000e+00  0.0000000000000000e+00 0.0000000000000000e+00 0.0000000000000000e+00  0.0000000000000000e+00 0.0000000000000000e+00 0.0000000000000000e+00  0.0000000000000000e+00 0.0000000000000000e+00 0.0000000000000000e+00  0.0000000000000000e+00 0.0000000000000000e+00 0.0000000000000000e+00  0.0000000000000000e+00 0.0000000000000000e+00 0.0000000000000000e+00  0.0000000000000000e+00 0.0000000000000000e+00 0.0000000000000000e+00  0.0000000000000000e+00 0.0000000000000000e+00 0.0000000000000000e+00  0.0000000000000000e+00 0.0000000000000000e+00 0.0000000000000000e+00  0.0000000000000000e+00 0.0000000000000000e+00 0.0000000000000000e+00  0.0000000000000000e+00 0.0000000000000000e+00 0.0000000000000000e+00  0.0000000000000000e+00 0.0000000000000000e+00 0.0000000000000000e+00  0.0000000000000000e+00 0.0000000000000000e+00 0.0000000000000000e+00  0.0000000000000000e+00 0.0000000000000000e+00 0.0000000000000000e+00  0.0000000000000000e+00 0.0000000000000000e+00 0.0000000000000000e+00  0.0000000000000000e+00 0.0000000000000000e+00 0.0000000000000000e+00  0.0000000000000000e+00 0.0000000000000000e+00 0.0000000000000000e+00  0.0000000000000000e+00 0.0000000000000000e+00 0.0000000000000000e+00  0.0000000000000000e+00 0.0000000000000000e+00 0.0000000000000000e+00  0.0000000000000000e+00 0.0000000000000000e+00 0.0000000000000000e+00  0.0000000000000000e+00 0.0000000000000000e+00 0.0000000000000000e+00  0.0000000000000000e+00 0.0000000000000000e+00 0.0000000000000000e+00  0.0000000000000000e+00 0.0000000000000000e+00 0.0000000000000000e+00  0.0000000000000000e+00 0.0000000000000000e+00 0.0000000000000000e+00  0.0000000000000000e+00 0.0000000000000000e+00 0.0000000000000000e+00  0.0000000000000000e+00 0.0000000000000000e+00 0.0000000000000000e+00  0.0000000000000000e+00 0.0000000000000000e+00 0.0000000000000000e+00  0.0000000000000000e+00 0.0000000000000000e+00 0.0000000000000000e+00  0.0000000000000000e+00 0.0000000000000000e+00 0.0000000000000000e+00  0.0000000000000000e+00 0.0000000000000000e+00 0.0000000000000000e+00  0.0000000000000000e+00 0.0000000000000000e+00 0.0000000000000000e+00  0.0000000000000000e+00 0.0000000000000000e+00 0.0000000000000000e+00  0.0000000000000000e+00 0.0000000000000000e+00 0.0000000000000000e+00  0.0000000000000000e+00 0.0000000000000000e+00 0.0000000000000000e+00  0.0000000000000000e+00 0.0000000000000000e+00 0.0000000000000000e+00  0.0000000000000000e+00 0.0000000000000000e+00 0.0000000000000000e+00  0.0000000000000000e+00 0.0000000000000000e+00 0.0000000000000000e+00  0.0000000000000000e+00 0.0000000000000000e+00 0.0000000000000000e+00  0.0000000000000000e+00 0.0000000000000000e+00 0.0000000000000000e+00  0.0000000000000000e+00 0.0000000000000000e+00 0.0000000000000000e+00  0.0000000000000000e+00 0.0000000000000000e+00 0.0000000000000000e+00  0.0000000000000000e+00 0.0000000000000000e+00 0.0000000000000000e+00  0.0000000000000000e+00 0.0000000000000000e+00 0.0000000000000000e+00  0.0000000000000000e+00 0.0000000000000000e+00 0.0000000000000000e+00  0.0000000000000000e+00 0.0000000000000000e+00 0.0000000000000000e+00  0.0000000000000000e+00 0.0000000000000000e+00 0.0000000000000000e+00  0.0000000000000000e+00 0.0000000000000000e+00 0.0000000000000000e+00  0.0000000000000000e+00 0.0000000000000000e+00 0.0000000000000000e+00  0.0000000000000000e+00 0.0000000000000000e+00 0.0000000000000000e+00  0.0000000000000000e+00 0.0000000000000000e+00 0.0000000000000000e+00  0.0000000000000000e+00 0.0000000000000000e+00 0.0000000000000000e+00  -5.8589313488028599e-06 5.8113088939379278e-06 0.0000000000000000e+00  -1.2401498356030302e-05 1.2487192066990964e-05 0.0000000000000000e+00  -1.8164494968206999e-05 2.3128137989082125e-05 0.0000000000000000e+00  -2.4277418195325294e-05 3.7983373724454377e-05 0.0000000000000000e+00  -2.9348374856824296e-05 5.6259020336949292e-05 0.0000000000000000e+00  -3.4913065067924541e-05 7.8271689485964331e-05 0.0000000000000000e+00  -3.9362044942697886e-05 1.0296833581532509e-04 0.0000000000000000e+00  -4.3568866666060302e-05 1.3113030071563948e-04 0.0000000000000000e+00  -4.8235863611066958e-05 1.6185540313511673e-04 0.0000000000000000e+00  -5.1750163457292126e-05 1.9516255208932369e-04 0.0000000000000000e+00  -5.5841303607418682e-05 2.3097682512121748e-04 0.0000000000000000e+00  -5.8874016285154885e-05 2.6896829712462305e-04 0.0000000000000000e+00  -6.2267251132132903e-05 3.0903324377119920e-04 0.0000000000000000e+00  -6.4915539502245366e-05 3.5070308682716423e-04 0.0000000000000000e+00  -6.7365467347240120e-05 3.9427804940437975e-04 0.0000000000000000e+00  -6.9993561064355720e-05 4.3922947786435385e-04 0.0000000000000000e+00  -7.1938698473854860e-05 4.8550630141867439e-04 0.0000000000000000e+00  -7.4096471673153988e-05 5.3305085179698177e-04 0.0000000000000000e+00  -7.5669606320087423e-05 5.8160141947715435e-04 0.0000000000000000e+00  -7.7373582761435306e-05 6.3109967497775987e-04 0.0000000000000000e+00  -7.8680490264314428e-05 6.8139479017533813e-04 0.0000000000000000e+00  -7.9994006018844135e-05 7.3244445722084393e-04 0.0000000000000000e+00  -8.1022052457461387e-05 7.8399546554851196e-04 0.0000000000000000e+00  -8.1930758916853362e-05 8.3615516090942618e-04 0.0000000000000000e+00  -8.2845128117732810e-05 8.8870456017065274e-04 0.0000000000000000e+00  -8.3558722840119414e-05 9.4165661456339998e-04 0.0000000000000000e+00  -8.4209524757173105e-05 9.9496036412727155e-04 0.0000000000000000e+00  -8.4745158790013178e-05 1.0484918178062332e-03 0.0000000000000000e+00  -8.5221158685974655e-05 1.1022804171318416e-03 0.0000000000000000e+00  -8.5609348879055907e-05 1.1562154436392021e-03 0.0000000000000000e+00  -8.5945281049822715e-05 1.2103171762347467e-03 0.0000000000000000e+00  -8.6213568979819229e-05 1.2644958131063796e-03 0.0000000000000000e+00  -8.6439333985995087e-05 1.3187703423821354e-03 0.0000000000000000e+00  -8.6613780915727895e-05 1.3730710907499714e-03 0.0000000000000000e+00  -8.6752706438823331e-05 1.4274196227983839e-03 0.0000000000000000e+00  -8.6860890526926511e-05 1.4817678814926709e-03 0.0000000000000000e+00  -8.6945632598991326e-05 1.5361300197892914e-03 0.0000000000000000e+00  -8.7012875023026692e-05 1.5904810103790237e-03 0.0000000000000000e+00  -8.7065283220018355e-05 1.6448303243399060e-03 0.0000000000000000e+00  -8.7110889763014011e-05 1.6991693142639566e-03 0.0000000000000000e+00  -8.7150739618760704e-05 1.7535015137051650e-03 0.0000000000000000e+00  -8.7190925685355148e-05 1.8078297767587478e-03 0.0000000000000000e+00  -8.7227228996795983e-05 1.8621606384067045e-03 0.0000000000000000e+00  -8.7266053589438132e-05 1.9164954424594177e-03 0.0000000000000000e+00  -8.7306296717914393e-05 1.9708435095356384e-03 0.0000000000000000e+00  -8.7340940130378630e-05 2.0252006574794333e-03 0.0000000000000000e+00  -5.1002438389363762e-05 2.0795825276052702e-03 0.0000000000000000e+00  2.1803739462480182e-05 2.0796409499563339e-03 0.0000000000000000e+00  5.8268272055412681e-05 2.0252687820679315e-03 0.0000000000000000e+00  5.8286040812975819e-05 1.9708940847499002e-03 0.0000000000000000e+00  5.8311488605740209e-05 1.9165344852701562e-03 0.0000000000000000e+00  5.8339052244701151e-05 1.8621800880790364e-03 0.0000000000000000e+00  5.8372231564227933e-05 1.8078275448714209e-03 0.0000000000000000e+00  5.8417054900364148e-05 1.7534728249199629e-03 0.0000000000000000e+00  5.8468579355539851e-05 1.6991117713703360e-03 0.0000000000000000e+00  5.8528390147060749e-05 1.6447434870804066e-03 0.0000000000000000e+00  5.8594074075765089e-05 1.5903633728223080e-03 0.0000000000000000e+00  5.8664841012302130e-05 1.5359724235546727e-03 0.0000000000000000e+00  5.8734761854260787e-05 1.4815749363022309e-03 0.0000000000000000e+00  5.8809496847438556e-05 1.4271779753516740e-03 0.0000000000000000e+00  5.8869622627114852e-05 1.3727914188513791e-03 0.0000000000000000e+00  5.8933748948252523e-05 1.3184337392088425e-03 0.0000000000000000e+00  5.8959748429624918e-05 1.2641185236867900e-03 0.0000000000000000e+00  5.8994623577859011e-05 1.2098788580037721e-03 0.0000000000000000e+00  5.8961526349378206e-05 1.1557332943545617e-03 0.0000000000000000e+00  5.8948469563606875e-05 1.1017287403965370e-03 0.0000000000000000e+00  5.8831181314451984e-05 1.0478907316937582e-03 0.0000000000000000e+00  5.8751167668885334e-05 9.9427892176627780e-04 0.0000000000000000e+00  5.8517377459368485e-05 9.4092366644107342e-04 0.0000000000000000e+00  5.8342935226327809e-05 8.8790025016786663e-04 0.0000000000000000e+00  5.7966947207770220e-05 8.3525606232795078e-04 0.0000000000000000e+00  5.7637093989060123e-05 7.8302155777665067e-04 0.0000000000000000e+00  5.7240914586018478e-05 7.3139741843824798e-04 0.0000000000000000e+00  5.6606235063144208e-05 6.8024769648723142e-04 0.0000000000000000e+00  5.5971088788481921e-05 6.2988927654189432e-04 0.0000000000000000e+00  5.5108851582001254e-05 5.8027396941391033e-04 0.0000000000000000e+00  5.4206170889177845e-05 5.3164641054548756e-04 0.0000000000000000e+00  5.3040259322894749e-05 4.8401490015417652e-04 0.0000000000000000e+00  5.1827528518471294e-05 4.3758270637547764e-04 0.0000000000000000e+00  5.0141130888071730e-05 3.9263000226244223e-04 0.0000000000000000e+00  4.8640358840160665e-05 3.4893492008879781e-04 0.0000000000000000e+00  4.6978736269077840e-05 3.0719884225356904e-04 0.0000000000000000e+00  4.4701725463201046e-05 2.6690146835854980e-04 0.0000000000000000e+00  4.2487342175688312e-05 2.2888105620075982e-04 0.0000000000000000e+00  3.9819181465212573e-05 1.9295351755315563e-04 0.0000000000000000e+00  3.7165761011816234e-05 1.5943232767179943e-04 0.0000000000000000e+00  3.3732919905548405e-05 1.2876318677251868e-04 0.0000000000000000e+00  3.0732834427772927e-05 1.0045448468491942e-04 0.0000000000000000e+00  2.7546246711786746e-05 7.5668097488153964e-05 0.0000000000000000e+00  2.3347829367635657e-05 5.3460997226550841e-05 0.0000000000000000e+00  1.9463481059962542e-05 3.5016473727823230e-05 0.0000000000000000e+00  1.4646696871414303e-05 2.0274696464966119e-05 0.0000000000000000e+00  1.0277348332220425e-05 9.5594287263402732e-06 0.0000000000000000e+00  4.8790244588916544e-06 3.0011541785712112e-06 0.0000000000000000e+00  -5.9984121865350262e-07 4.7583506347830111e-06 0.0000000000000000e+00  -1.5481403864211262e-05 1.9979227270789969e-03 0.0000000000000000e+00  -1.5972497736506124e-05 1.8940421526792860e-03 0.0000000000000000e+00  -1.5176583893636966e-05 1.7243747702006601e-03 0.0000000000000000e+00  -2.0058509907027578e-06 2.6117985446530388e-05 0.0000000000000000e+00  -1.4254061906552268e-05 1.6176071977547744e-03 0.0000000000000000e+00  -2.9308976658856471e-06 6.1403023254298967e-05 0.0000000000000000e+00  -1.4114393387770773e-05 1.5088562934992237e-03 0.0000000000000000e+00  -4.6506593854854674e-06 1.4441701973907928e-04 0.0000000000000000e+00  -6.3089738203009249e-06 2.1021110685833782e-04 0.0000000000000000e+00  -1.3931339634067936e-05 1.4000925179559409e-03 0.0000000000000000e+00  -8.0355967089885579e-06 4.1668182985973048e-04 0.0000000000000000e+00  -1.3403248272443228e-05 1.1829358217076134e-03 0.0000000000000000e+00  -6.6419011731732358e-06 2.8319736493212738e-04 0.0000000000000000e+00  -9.6936268844240894e-06 5.0767029733332950e-04 0.0000000000000000e+00  -1.3047421523035675e-05 1.0749376104067655e-03 0.0000000000000000e+00  -1.3696219492728894e-05 1.2913997147522933e-03 0.0000000000000000e+00  -1.0490465370363194e-05 6.0501897995701064e-04 0.0000000000000000e+00  -1.2619182671194434e-05 9.6771892004927126e-04 0.0000000000000000e+00  -1.0288642121607170e-05 7.0168445070323032e-04 0.0000000000000000e+00  -1.3024693863953516e-05 8.6384614461872513e-04 0.0000000000000000e+00  -1.1632386541794737e-05 7.7898720677316280e-04 0.0000000000000000e+00  -8.1745201988924543e-06 3.4527796232203240e-04 0.0000000000000000e+00  -1.4295919738275265e-05 1.8125852928924505e-03 0.0000000000000000e+00  -4.1957918972715362e-06 9.8088553442635403e-05 0.0000000000000000e+00  9.8359798033430857e-06 1.9456118974900999e-03 0.0000000000000000e+00  3.6965741382114972e-06 1.3140883125555324e-05 0.0000000000000000e+00  6.9865406233108226e-06 1.5632168084887801e-03 0.0000000000000000e+00  6.8620472274962936e-06 1.6719565828654014e-03 0.0000000000000000e+00  -1.1122896715618922e-05 4.3580861052170129e-05 0.0000000000000000e+00  -1.8639456883067080e-05 1.7598221495300658e-04 0.0000000000000000e+00  7.5345319453670166e-06 1.2370767685387501e-03 0.0000000000000000e+00  7.1414685613390240e-06 1.4544429822708116e-03 0.0000000000000000e+00  -2.7213764125574256e-05 4.6093754011568977e-04 0.0000000000000000e+00  7.7569264144055904e-06 1.1288010735753130e-03 0.0000000000000000e+00  -2.1462793115779099e-05 2.4777350837694288e-04 0.0000000000000000e+00  -2.8916750446180677e-05 5.5614845930156837e-04 0.0000000000000000e+00  7.9862193392352370e-06 1.0211389294958444e-03 0.0000000000000000e+00  7.3264106461182210e-06 1.3456896547896060e-03 0.0000000000000000e+00  -3.4645009692523203e-05 6.5477902040913876e-04 0.0000000000000000e+00  8.2182511363801513e-06 9.1443843708065753e-04 0.0000000000000000e+00  -1.0397976481698366e-06 1.3948267412073819e-06 0.0000000000000000e+00  7.4104104455338314e-07 6.5328068446476081e-07 0.0000000000000000e+00  -3.2277441568025366e-05 2.0406777974809973e-03 0.0000000000000000e+00  -6.8681518832421487e-06 1.4318958254060790e-05 0.0000000000000000e+00  1.3178702047879027e-05 8.2082328983805193e-04 0.0000000000000000e