<?xml version="1.0"?>
<VTKFile type="UnstructuredGrid"  version="0.1"  >
<UnstructuredGrid>
<Piece  NumberOfPoints="1419" NumberOfCells="2698">
<Points>
<DataArray  type="Float64"  NumberOfComponents="3"  format="ascii">0 0 0  0 0.41 0  2.5 0 0  2.5 0.41 0  0.6 0.19 0  0.6 0.21 0  0.25 0.2 0  0.15 0.2 0  0.2489897948556636 0.21 0  0.2489897948556636 0.19 0  0.6 0.2 0  0 0.3807142857143437 0  0 0.3514285714286952 0  0 0.3221428571430699 0  0 0.29285714285744 0  0 0.2635714285718054 0  0 0.2342857142861561 0  0 0.2050000000005308 0  0 0.175714285714732 0  0 0.1464285714289574 0  0 0.1171428571431897 0  0 0.08785714285737878 0  0 0.05857142857161107 0  0 0.02928571428580012 0  0.03015443760436003 0 0  0.06140001986583606 0 0  0.09377624077125973 0 0  0.1273239957535082 0 0  0.1620856860351972 0 0  0.1981052433264291 0 0  0.235428184091502 0 0  0.2741016576309132 0 0  0.3141745521465447 0 0  0.3556974926295285 0 0  0.3987229542472677 0 0  0.4433053055141081 0 0  0.4895008759286886 0 0  0.5373680609405097 0 0  0.5869673343216626 0 0  0.6383613676634521 0 0  0.6916151138468254 0 0  0.7467958595648856 0 0  0.8039733463919316 0 0  0.8632198139502143 0 0  0.9246101326867038 0 0  0.9882218810934433 0 0  1.054135445558498 0 0  1.122434100542598 0 0  1.193204177141305 0 0  1.266535089879536 0 0  1.342519516046404 0 0  1.421253448503939 0 0  1.502836389106271 0 0  1.587371439758838 0 0  1.674965418777374 0 0  1.765729001825544 0 0  1.859776908880082 0 0  1.957227977487062 0 0  2.058205329869943 0 0  2.162836591189951 0 0  2.271253957290865 0 0  2.383594446803425 0 0  2.5 0.1024999999997612 0  2.5 0.2049999999994743 0  2.5 0.3074999999997183 0  2.383594446803656 0.41 0  2.271253957291315 0.41 0  2.162836591190598 0.41 0  2.058205329870775 0.41 0  1.957227977488067 0.41 0  1.859776908881246 0.41 0  1.765729001826854 0.41 0  1.674965418778818 0.41 0  1.58737143976041 0.41 0  1.502836389107956 0.41 0  1.421253448505726 0.41 0  1.342519516048286 0.41 0  1.266535089881505 0.41 0  1.193204177143353 0.41 0  1.122434100544716 0.41 0  1.05413544556068 0.41 0  0.9882218810956305 0.41 0  0.9246101326886647 0.41 0  0.8632198139519631 0.41 0  0.8039733463934788 0.41 0  0.7467958595662458 0.41 0  0.6916151138480078 0.41 0  0.6383613676644679 0.41 0  0.5869673343225223 0.41 0  0.5373680609412221 0.41 0  0.4895008759292634 0.41 0  0.4433053055145528 0.41 0  0.3987229542475914 0.41 0  0.3556974926297398 0.41 0  0.3141745521466497 0.41 0  0.2741016576310038 0.41 0  0.2354281840915826 0.41 0  0.1981052433265003 0.41 0  0.1620856860352591 0.41 0  0.1273239957535623 0.41 0  0.09377624077128965 0.41 0  0.06140001986584975 0.41 0  0.03015443760436654 0.41 0  0.2497468076502589 0.2050254481002335 0  0.2497468076502614 0.1949745518997913 0  0.2469965252529372 0.1829317073451959 0  0.2439893735792749 0.1762316384219906 0  0.2400332147834255 0.1700443375285386 0  0.2352133972704371 0.1645032867342007 0  0.2296339016332438 0.1597280261969788 0  0.2234150974217223 0.1558215752574715 0  0.2166911463437691 0.1528682099456123 0  0.2096071079204251 0.1509316448471593 0  0.2023158100364996 0.1500536585536553 0  0.194974551899914 0.1502531923497262 0  0.1877417105387872 0.1515259415822739 0  0.1807733240461124 0.153844448527136 0  0.1742197252835808 0.15715869474974 0  0.1682222986673531 0.1613971801805478 0  0.162910430003803 0.1664684656256651 0  0.1583987151779087 0.1722631454351573 0  0.1547844879126891 0.178656207771761 0  0.1521457199348551 0.1855097315605723 0  0.1505393388476355 0.1926758619366523 0  0.1505393388476328 0.2073241380633295 0  0.1521457199348437 0.2144902684393899 0  0.1547844879126531 0.221343792228163 0  0.1583987151778488 0.2277368545647528 0  0.1629104300036858 0.2335315343742052 0  0.1682222986671726 0.2386028198193036 0  0.1742197252833576 0.2428413052501257 0  0.1807733240458683 0.2461555514727623 0  0.1877417105384929 0.2484740584176516 0  0.1949745518995776 0.2497468076502398 0  0.202315810036185 0.2499463414463592 0  0.2096071079201568 0.2490683551528932 0  0.2166911463435495 0.2471317900544655 0  0.2234150974215506 0.2441784247426195 0  0.2296339016331197 0.2402719738031125 0  0.2352133972703547 0.2354967132658811 0  0.2400332147833751 0.2299556624715287 0  0.2439893735792577 0.2237683615780412 0  0.246996525252926 0.2170682926548348 0  0.25645809709277 0.21 0  0.2639263993298655 0.21 0  0.271394701566961 0.21 0  0.2788630038040554 0.21 0  0.2863313060411479 0.21 0  0.2937996082782405 0.21 0  0.301267910515333 0.21 0  0.3087362127524279 0.21 0  0.3162045149895234 0.21 0  0.3236728172265972 0.21 0  0.3311411194636928 0.21 0  0.3386094217007701 0.21 0  0.3460777239378666 0.21 0  0.3535460261749672 0.21 0  0.3610143284120516 0.21 0  0.3684826306491596 0.21 0  0.3759509328862226 0.21 0  0.383419235123329 0.21 0  0.3908875373604028 0.21 0  0.3983558395975142 0.21 0  0.4058241418345938 0.21 0  0.4132924440716992 0.21 0  0.4207607463087888 0.21 0  0.4282290485459029 0.21 0  0.4356973507830418 0.21 0  0.4431656530201649 0.21 0  0.4506339552573136 0.21 0  0.4581022574944306 0.21 0  0.4655705597315852 0.21 0  0.4730388619686996 0.21 0  0.480507164205851 0.21 0  0.4879754664429498 0.21 0  0.4954437686800938 0.21 0  0.502912070917267 0.21 0  0.5103803731544119 0.21 0  0.5178486753915261 0.21 0  0.5253169776286404 0.21 0  0.5327852798657868 0.21 0  0.5402535821029386 0.21 0  0.54772188434007 0.21 0  0.5551901865771842 0.21 0  0.5626584888143201 0.21 0  0.5701267910514778 0.21 0  0.5775950932886138 0.21 0  0.5850633955257281 0.21 0  0.5925316977628483 0.21 0  0.6 0.2050000000000054 0  0.6 0.1950000000000217 0  0.5925316977628897 0.19 0  0.5850633955257988 0.19 0  0.5775950932887378 0.19 0  0.5701267910515998 0.19 0  0.5626584888145268 0.19 0  0.5551901865773963 0.19 0  0.547721884340339 0.19 0  0.5402535821032429 0.19 0  0.5327852798661811 0.19 0  0.5253169776290537 0.19 0  0.5178486753919799 0.19 0  0.5103803731549078 0.19 0  0.502912070917822 0.19 0  0.4954437686807294 0.19 0  0.4879754664436223 0.19 0  0.4805071642065402 0.19 0  0.4730388619694271 0.19 0  0.4655705597323621 0.19 0  0.4581022574952563 0.19 0  0.4506339552581777 0.19 0  0.4431656530210671 0.19 0  0.4356973507839815 0.19 0  0.4282290485468779 0.19 0  0.4207607463097617 0.19 0  0.4132924440726327 0.19 0  0.4058241418354857 0.19 0  0.3983558395983636 0.19 0  0.3908875373612097 0.19 0  0.3834192351240934 0.19 0  0.3759509328869369 0.19 0  0.3684826306498175 0.19 0  0.361014328412667 0.19 0  0.3535460261755617 0.19 0  0.3460777239384295 0.19 0  0.3386094217012945 0.19 0  0.3311411194641595 0.19 0  0.3236728172270245 0.19 0  0.3162045149898895 0.19 0  0.3087362127527544 0.19 0  0.3012679105156187 0.19 0  0.2937996082784807 0.19 0  0.2863313060413428 0.19 0  0.2788630038042048 0.19 0  0.2713947015670686 0.19 0  0.2639263993299336 0.19 0  0.2564580970927985 0.19 0  0.2607803159922026 0.2000727136295815 0  0.5887803774232762 0.2001272386983733 0  0.5745072403740523 0.2002044435018727 0  0.5511891430099709 0.2001122610077113 0  0.2751288526855082 0.20000000000002 0  0.5365194309847112 0.1999999999999436 0  0.2894621222999649 0.1998691686390484 0  0.5215828265105155 0.1999999999999228 0  0.3127789816668748 0.1998657885438805 0  0.3274069683451451 0.2000000000000796 0  0.5066462220363641 0.199999999999908 0  0.3650630746574081 0.199866017807523 0  0.476773013087985 0.1999999999998713 0  0.3417402379596385 0.1998691686391011 0  0.3796850840047755 0.200000000000134 0  0.4618364086138087 0.1999999999998546 0  0.4917096175621762 0.1999999999998808 0  0.3946216884789568 0.2000000000001512 0  0.446899804139621 0.1999999999998389 0  0.4089549580935208 0.1998691686391595 0  0.4322718174608562 0.200127451265745 0  0.4201487168029707 0.1999966199048527 0  0.3528922713220932 0.2000185703532356 0  0.5633122436674589 0.1999814296467508 0  0.3006558810093873 0.1999966199048318 0  0.5815926498168407 0.1966545283159175 0  0.2677053789419034 0.1964246479135325 0  0.5290511287476175 0.1970915826863981 0  0.5439877332217911 0.197091582686394 0  0.2825131256993216 0.2035478995978015 0  0.3199386661080599 0.202908417313604 0  0.4842413153250809 0.1970915826863873 0  0.5141145242734466 0.1970915826863843 0  0.3722167817676917 0.2029084173136195 0  0.4693047108508938 0.1970915826863783 0  0.3348752705822316 0.202908417313609 0  0.3871533862418661 0.2029084173136212 0  0.4543681063767183 0.1970915826863795 0  0.4991779197992749 0.1970915826863902 0  0.4020059614928624 0.203547899597858 0  0.4394315019025246 0.1970915826863714 0  0.2550657455369551 0.2034088125358657 0  0.2548908499171161 0.1966940311614271 0  0.5946539510196798 0.2024302972968126 0  0.267698176732111 0.2039977513680092 0  0.4261685417851465 0.196409292431739 0  0.3590076176283495 0.196411355804271 0  0.5571672426447437 0.2036011176410121 0  0.3066757059912147 0.1964092924317024 0  0.594380730180568 0.1966558399668133 0  0.4842413153245942 0.2040749161535287 0  0.4693047108503577 0.2040749161535231 0  0.3871533862424271 0.1959250838464788 0  0.372246743208829 0.1959123236376545 0  0.5141145242731028 0.2040749161535395 0  0.4543681063761134 0.2040749161535186 0  0.4019979587101454 0.1959834479682427 0  0.4394608940728603 0.2040870543693135 0  0.5439623148931173 0.2040856076781014 0  0.5290511287473298 0.2040749161535501 0  0.4991779197988497 0.2040749161535382 0  0.3347912413592433 0.1959225448935183 0  0.3199680582793816 0.1959123018030061 0  0.2825051229162361 0.1959834479681729 0  0.3590471196690275 0.2036304442587945 0  0.5571594006495384 0.1963685282145804 0  0.3067669986803285 0.203627750582736 0  0.4262598344738712 0.2036568242185335 0  0.5814408164431408 0.2041285596160068 0  0.5688286748170428 0.1961819304477386 0  0.4145905603063645 0.2038180695522843 0  0.3473758401724931 0.2038180695522752 0  0.2950977245128307 0.2038180695522663 0  0.5688286748170693 0.203818069552238 0  0.2950977245127906 0.1961819304477774 0  0.3473758401723931 0.1961819304478349 0  0.4145905603061963 0.1961819304479011 0  0.2601812407614425 0.2056861609747042
[...]
<PointData  Vectors="f_40-1"> 
<DataArray  type="Float64"  Name="f_40-1"  NumberOfComponents="3" format="ascii">0.0000000000000000e+00 0.0000000000000000e+00 0.0000000000000000e+00  0.0000000000000000e+00 0.0000000000000000e+00 0.0000000000000000e+00  0.0000000000000000e+00 0.0000000000000000e+00 0.0000000000000000e+00  0.0000000000000000e+00 0.0000000000000000e+00 0.0000000000000000e+00  5.8274841769993490e-05 2.0797121008265815e-03 0.0000000000000000e+00  -8.7358124195108434e-05 2.0795861303533358e-03 0.0000000000000000e+00  0.0000000000000000e+00 0.0000000000000000e+00 0.0000000000000000e+00  0.0000000000000000e+00 0.0000000000000000e+00 0.0000000000000000e+00  0.0000000000000000e+00 0.0000000000000000e+00 0.0000000000000000e+00  0.0000000000000000e+00 0.0000000000000000e+00 0.0000000000000000e+00  -1.4613087225572733e-05 2.0796414432191161e-03 0.0000000000000000e+00  0.0000000000000000e+00 0.0000000000000000e+00 0.0000000000000000e+00  0.0000000000000000e+00 0.0000000000000000e+00 0.0000000000000000e+00  0.0000000000000000e+00 0.0000000000000000e+00 0.0000000000000000e+00  0.0000000000000000e+00 0.0000000000000000e+00 0.0000000000000000e+00  0.0000000000000000e+00 0.0000000000000000e+00 0.0000000000000000e+00  0.0000000000000000e+00 0.0000000000000000e+00 0.0000000000000000e+00  0.0000000000000000e+00 0.0000000000000000e+00 0.0000000000000000e+00  0.0000000000000000e+00 0.0000000000000000e+00 0.0000000000000000e+00  0.0000000000000000e+00 0.0000000000000000e+00 0.0000000000000000e+00  0.0000000000000000e+00 0.0000000000000000e+00 0.0000000000000000e+00  0.0000000000000000e+00 0.0000000000000000e+00 0.0000000000000000e+00  0.0000000000000000e+00 0.0000000000000000e+00 0.0000000000000000e+00  0.0000000000000000e+00 0.0000000000000000e+00 0.0000000000000000e+00  0.0000000000000000e+00 0.0000000000000000e+00 0.0000000000000000e+00  0.0000000000000000e+00 0.0000000000000000e+00 0.0000000000000000e+00  0.0000000000000000e+00 0.0000000000000000e+00 0.0000000000000000e+00  0.0000000000000000e+00 0.0000000000000000e+00 0.0000000000000000e+00  0.0000000000000000e+00 0.0000000000000000e+00 0.0000000000000000e+00  0.0000000000000000e+00 0.0000000000000000e+00 0.0000000000000000e+00  0.0000000000000000e+00 0.0000000000000000e+00 0.0000000000000000e+00  0.0000000000000000e+00 0.0000000000000000e+00 0.0000000000000000e+00  0.0000000000000000e+00 0.0000000000000000e+00 0.0000000000000000e+00  0.0000000000000000e+00 0.0000000000000000e+00 0.0000000000000000e+00  0.0000000000000000e+00 0.0000000000000000e+00 0.0000000000000000e+00  0.0000000000000000e+00 0.0000000000000000e+00 0.0000000000000000e+00  0.0000000000000000e+00 0.0000000000000000e+00 0.0000000000000000e+00  0.0000000000000000e+00 0.0000000000000000e+00 0.0000000000000000e+00  0.0000000000000000e+00 0.0000000000000000e+00 0.0000000000000000e+00  0.0000000000000000e+00 0.0000000000000000e+00 0.0000000000000000e+00  0.0000000000000000e+00 0.0000000000000000e+00 0.0000000000000000e+00  0.0000000000000000e+00 0.0000000000000000e+00 0.0000000000000000e+00  0.0000000000000000e+00 0.0000000000000000e+00 0.0000000000000000e+00  0.0000000000000000e+00 0.0000000000000000e+00 0.0000000000000000e+00  0.0000000000000000e+00 0.0000000000000000e+00 0.0000000000000000e+00  0.0000000000000000e+00 0.0000000000000000e+00 0.0000000000000000e+00  0.0000000000000000e+00 0.0000000000000000e+00 0.0000000000000000e+00  0.0000000000000000e+00 0.0000000000000000e+00 0.0000000000000000e+00  0.0000000000000000e+00 0.0000000000000000e+00 0.0000000000000000e+00  0.0000000000000000e+00 0.0000000000000000e+00 0.0000000000000000e+00  0.0000000000000000e+00 0.0000000000000000e+00 0.0000000000000000e+00  0.0000000000000000e+00 0.0000000000000000e+00 0.0000000000000000e+00  0.0000000000000000e+00 0.0000000000000000e+00 0.0000000000000000e+00  0.0000000000000000e+00 0.0000000000000000e+00 0.0000000000000000e+00  0.0000000000000000e+00 0.0000000000000000e+00 0.0000000000000000e+00  0.0000000000000000e+00 0.0000000000000000e+00 0.0000000000000000e+00  0.0000000000000000e+00 0.0000000000000000e+00 0.0000000000000000e+00  0.0000000000000000e+00 0.0000000000000000e+00 0.0000000000000000e+00  0.0000000000000000e+00 0.0000000000000000e+00 0.0000000000000000e+00  0.0000000000000000e+00 0.0000000000000000e+00 0.0000000000000000e+00  0.0000000000000000e+00 0.0000000000000000e+00 0.0000000000000000e+00  0.0000000000000000e+00 0.0000000000000000e+00 0.0000000000000000e+00  0.0000000000000000e+00 0.0000000000000000e+00 0.0000000000000000e+00  0.0000000000000000e+00 0.0000000000000000e+00 0.0000000000000000e+00  0.0000000000000000e+00 0.0000000000000000e+00 0.0000000000000000e+00  0.0000000000000000e+00 0.0000000000000000e+00 0.0000000000000000e+00  0.0000000000000000e+00 0.0000000000000000e+00 0.0000000000000000e+00  0.0000000000000000e+00 0.0000000000000000e+00 0.0000000000000000e+00  0.0000000000000000e+00 0.0000000000000000e+00 0.0000000000000000e+00  0.0000000000000000e+00 0.0000000000000000e+00 0.0000000000000000e+00  0.0000000000000000e+00 0.0000000000000000e+00 0.0000000000000000e+00  0.0000000000000000e+00 0.0000000000000000e+00 0.0000000000000000e+00  0.0000000000000000e+00 0.0000000000000000e+00 0.0000000000000000e+00  0.0000000000000000e+00 0.0000000000000000e+00 0.0000000000000000e+00  0.0000000000000000e+00 0.0000000000000000e+00 0.0000000000000000e+00  0.0000000000000000e+00 0.0000000000000000e+00 0.0000000000000000e+00  0.0000000000000000e+00 0.0000000000000000e+00 0.0000000000000000e+00  0.0000000000000000e+00 0.0000000000000000e+00 0.0000000000000000e+00  0.0000000000000000e+00 0.0000000000000000e+00 0.0000000000000000e+00  0.0000000000000000e+00 0.0000000000000000e+00 0.0000000000000000e+00  0.0000000000000000e+00 0.0000000000000000e+00 0.0000000000000000e+00  0.0000000000000000e+00 0.0000000000000000e+00 0.0000000000000000e+00  0.0000000000000000e+00 0.0000000000000000e+00 0.0000000000000000e+00  0.0000000000000000e+00 0.0000000000000000e+00 0.0000000000000000e+00  0.0000000000000000e+00 0.0000000000000000e+00 0.0000000000000000e+00  0.0000000000000000e+00 0.0000000000000000e+00 0.0000000000000000e+00  0.0000000000000000e+00 0.0000000000000000e+00 0.0000000000000000e+00  0.0000000000000000e+00 0.0000000000000000e+00 0.0000000000000000e+00  0.0000000000000000e+00 0.0000000000000000e+00 0.0000000000000000e+00  0.0000000000000000e+00 0.0000000000000000e+00 0.0000000000000000e+00  0.0000000000000000e+00 0.0000000000000000e+00 0.0000000000000000e+00  0.0000000000000000e+00 0.0000000000000000e+00 0.0000000000000000e+00  0.0000000000000000e+00 0.0000000000000000e+00 0.0000000000000000e+00  0.0000000000000000e+00 0.0000000000000000e+00 0.0000000000000000e+00  0.0000000000000000e+00 0.0000000000000000e+00 0.0000000000000000e+00  0.0000000000000000e+00 0.0000000000000000e+00 0.0000000000000000e+00  0.0000000000000000e+00 0.0000000000000000e+00 0.0000000000000000e+00  0.0000000000000000e+00 0.0000000000000000e+00 0.0000000000000000e+00  0.0000000000000000e+00 0.0000000000000000e+00 0.0000000000000000e+00  0.0000000000000000e+00 0.0000000000000000e+00 0.0000000000000000e+00  0.0000000000000000e+00 0.0000000000000000e+00 0.0000000000000000e+00  0.0000000000000000e+00 0.0000000000000000e+00 0.0000000000000000e+00  0.0000000000000000e+00 0.0000000000000000e+00 0.0000000000000000e+00  0.0000000000000000e+00 0.0000000000000000e+00 0.0000000000000000e+00  0.0000000000000000e+00 0.0000000000000000e+00 0.0000000000000000e+00  0.0000000000000000e+00 0.0000000000000000e+00 0.0000000000000000e+00  0.0000000000000000e+00 0.0000000000000000e+00 0.0000000000000000e+00  0.0000000000000000e+00 0.0000000000000000e+00 0.0000000000000000e+00  0.0000000000000000e+00 0.0000000000000000e+00 0.0000000000000000e+00  0.0000000000000000e+00 0.0000000000000000e+00 0.0000000000000000e+00  0.0000000000000000e+00 0.0000000000000000e+00 0.0000000000000000e+00  0.0000000000000000e+00 0.0000000000000000e+00 0.0000000000000000e+00  0.0000000000000000e+00 0.0000000000000000e+00 0.0000000000000000e+00  0.0000000000000000e+00 0.0000000000000000e+00 0.0000000000000000e+00  0.0000000000000000e+00 0.0000000000000000e+00 0.0000000000000000e+00  0.0000000000000000e+00 0.0000000000000000e+00 0.0000000000000000e+00  0.0000000000000000e+00 0.0000000000000000e+00 0.0000000000000000e+00  0.0000000000000000e+00 0.0000000000000000e+00 0.0000000000000000e+00  0.0000000000000000e+00 0.0000000000000000e+00 0.0000000000000000e+00  0.0000000000000000e+00 0.0000000000000000e+00 0.0000000000000000e+00  0.0000000000000000e+00 0.0000000000000000e+00 0.0000000000000000e+00  0.0000000000000000e+00 0.0000000000000000e+00 0.0000000000000000e+00  0.0000000000000000e+00 0.0000000000000000e+00 0.0000000000000000e+00  0.0000000000000000e+00 0.0000000000000000e+00 0.0000000000000000e+00  0.0000000000000000e+00 0.0000000000000000e+00 0.0000000000000000e+00  0.0000000000000000e+00 0.0000000000000000e+00 0.0000000000000000e+00  0.0000000000000000e+00 0.0000000000000000e+00 0.0000000000000000e+00  0.0000000000000000e+00 0.0000000000000000e+00 0.0000000000000000e+00  0.0000000000000000e+00 0.0000000000000000e+00 0.0000000000000000e+00  0.0000000000000000e+00 0.0000000000000000e+00 0.0000000000000000e+00  0.0000000000000000e+00 0.0000000000000000e+00 0.0000000000000000e+00  0.0000000000000000e+00 0.0000000000000000e+00 0.0000000000000000e+00  0.0000000000000000e+00 0.0000000000000000e+00 0.0000000000000000e+00  0.0000000000000000e+00 0.0000000000000000e+00 0.0000000000000000e+00  0.0000000000000000e+00 0.0000000000000000e+00 0.0000000000000000e+00  0.0000000000000000e+00 0.0000000000000000e+00 0.0000000000000000e+00  0.0000000000000000e+00 0.0000000000000000e+00 0.0000000000000000e+00  0.0000000000000000e+00 0.0000000000000000e+00 0.0000000000000000e+00  0.0000000000000000e+00 0.0000000000000000e+00 0.0000000000000000e+00  0.0000000000000000e+00 0.0000000000000000e+00 0.0000000000000000e+00  0.0000000000000000e+00 0.0000000000000000e+00 0.0000000000000000e+00  0.0000000000000000e+00 0.0000000000000000e+00 0.0000000000000000e+00  0.0000000000000000e+00 0.0000000000000000e+00 0.0000000000000000e+00  -5.8589852542711634e-06 5.8113843821006269e-06 0.0000000000000000e+00  -1.2401614688649207e-05 1.2487354430766787e-05 0.0000000000000000e+00  -1.8164663903619767e-05 2.3128440115502507e-05 0.0000000000000000e+00  -2.4277645376441414e-05 3.7983871256421411e-05 0.0000000000000000e+00  -2.9348647299569320e-05 5.6259759687809809e-05 0.0000000000000000e+00  -3.4913390752754172e-05 7.8272721145827772e-05 0.0000000000000000e+00  -3.9362409539385552e-05 1.0296969672587863e-04 0.0000000000000000e+00  -4.3569268142319948e-05 1.3113203896317958e-04 0.0000000000000000e+00  -4.8236309593212581e-05 1.6185755462281754e-04 0.0000000000000000e+00  -5.1750638959817915e-05 1.9516515394088973e-04 0.0000000000000000e+00  -5.5841818427387157e-05 2.3097991326186584e-04 0.0000000000000000e+00  -5.8874556248904508e-05 2.6897190426339237e-04 0.0000000000000000e+00  -6.2267823327931147e-05 3.0903740102989789e-04 0.0000000000000000e+00  -6.4916133769002236e-05 3.5070781916733072e-04 0.0000000000000000e+00  -6.7366082201371529e-05 3.9428338724539899e-04 0.0000000000000000e+00  -6.9994200884711095e-05 4.3923544366446639e-04 0.0000000000000000e+00  -7.1939353504265984e-05 4.8551291817248917e-04 0.0000000000000000e+00  -7.4097147321955612e-05 5.3305814140033284e-04 0.0000000000000000e+00  -7.5670293590290045e-05 5.8160940127134229e-04 0.0000000000000000e+00  -7.7374285759537664e-05 6.3110836671570957e-04 0.0000000000000000e+00  -7.8681202761056616e-05 6.8140420875857340e-04 0.0000000000000000e+00  -7.9994729946727283e-05 7.3245461848795356e-04 0.0000000000000000e+00  -8.1022782749856222e-05 7.8400638095072741e-04 0.0000000000000000e+00  -8.1931494430903214e-05 8.3616684493144843e-04 0.0000000000000000e+00  -8.2845870192940923e-05 8.8871702229537564e-04 0.0000000000000000e+00  -8.3559467998636688e-05 9.4166986582103695e-04 0.0000000000000000e+00  -8.4210272670180741e-05 9.9497441372340192e-04 0.0000000000000000e+00  -8.4745907456184105e-05 1.0485066733007650e-03 0.0000000000000000e+00  -8.5221907683150744e-05 1.1022960861151736e-03 0.0000000000000000e+00  -8.5610096558449362e-05 1.1562319319228373e-03 0.0000000000000000e+00  -8.5946026968759332e-05 1.2103344897136800e-03 0.0000000000000000e+00  -8.6214311781893162e-05 1.2645139561280700e-03 0.0000000000000000e+00  -8.6440073244311514e-05 1.3187893193641153e-03 0.0000000000000000e+00  -8.6614515541435139e-05 1.3730909048152498e-03 0.0000000000000000e+00  -8.6753436035570295e-05 1.4274402771303979e-03 0.0000000000000000e+00  -8.6861614242712107e-05 1.4817893782286416e-03 0.0000000000000000e+00  -8.6946350086414520e-05 1.5361523611242352e-03 0.0000000000000000e+00  -8.7013585643919633e-05 1.5905041976791115e-03 0.0000000000000000e+00  -8.7065986683548431e-05 1.6448543590178511e-03 0.0000000000000000e+00  -8.7111585610202515e-05 1.6991941971101123e-03 0.0000000000000000e+00  -8.7151427644115723e-05 1.7535272455971788e-03 0.0000000000000000e+00  -8.7191605540179115e-05 1.8078563580513031e-03 0.0000000000000000e+00  -8.7227900478567265e-05 1.8621880695256824e-03 0.0000000000000000e+00  -8.7266716629115886e-05 1.9165237235780706e-03 0.0000000000000000e+00  -8.7306951134599067e-05 1.9708726407870647e-03 0.0000000000000000e+00  -8.7341585852819886e-05 2.0252306389405722e-03 0.0000000000000000e+00  -5.1002506134245535e-05 2.0796133533623716e-03 0.0000000000000000e+00  2.1804810041679736e-05 2.0796717638210645e-03 0.0000000000000000e+00  5.8269902982471633e-05 2.0252987398328400e-03 0.0000000000000000e+00  5.8287662872126905e-05 1.9709231923031737e-03 0.0000000000000000e+00  5.8313101727648334e-05 1.9165627426683881e-03 0.0000000000000000e+00  5.8340656247916496e-05 1.8622074954495194e-03 0.0000000000000000e+00  5.8373826378516823e-05 1.8078541023923299e-03 0.0000000000000000e+00  5.8418640334521479e-05 1.7534985330032256e-03 0.0000000000000000e+00  5.8470155019487367e-05 1.6991366304429912e-03 0.0000000000000000e+00  5.8529955982991345e-05 1.6447674979118861e-03 0.0000000000000000e+00  5.8595629357899844e-05 1.5903865362708125e-03 0.0000000000000000e+00  5.8666385789166926e-05 1.5359947409756560e-03 0.0000000000000000e+00  5.8736295040595750e-05 1.4815964091181443e-03 0.0000000000000000e+00  5.8811018599225543e-05 1.4271986056749739e-03 0.0000000000000000e+00  5.8871131417844983e-05 1.3728112088836411e-03 0.0000000000000000e+00  5.8935245103204752e-05 1.3184526920388311e-03 0.0000000000000000e+00  5.8961229888882263e-05 1.2641366425113812e-03 0.0000000000000000e+00  5.8996090903009210e-05 1.2098961471234770e-03 0.0000000000000000e+00  5.8962976856160675e-05 1.1557497581968002e-03 0.0000000000000000e+00  5.8949904124815374e-05 1.1017443847144274e-03 0.0000000000000000e+00  5.8832596521197294e-05 1.0479055623858063e-03 0.0000000000000000e+00  5.8752564784710688e-05 9.9429294626470280e-04 0.0000000000000000e+00  5.8518752160505901e-05 9.4093689242116146e-04 0.0000000000000000e+00  5.8344289219351955e-05 8.8791268709207012e-04 0.0000000000000000e+00  5.7968275471259848e-05 8.3526772017949243e-04 0.0000000000000000e+00  5.7638397911183074e-05 7.8303244688086393e-04 0.0000000000000000e+00  5.7242192634650458e-05 7.3140755320792077e-04 0.0000000000000000e+00  5.6607482340206393e-05 6.8025708771398308e-04 0.0000000000000000e+00  5.5972305692078339e-05 6.2989794118097975e-04 0.0000000000000000e+00  5.5110034004397204e-05 5.8028192268904082e-04 0.0000000000000000e+00  5.4207318545815307e-05 5.3165367156269975e-04 0.0000000000000000e+00  5.3041367930030738e-05 4.8402148750442919e-04 0.0000000000000000e+00  5.1828597750933033e-05 4.3758864134128454e-04 0.0000000000000000e+00  5.0142153396683771e-05 3.9263530999292202e-04 0.0000000000000000e+00  4.8641338161656165e-05 3.4893962134807080e-04 0.0000000000000000e+00  4.6979670094675872e-05 3.0720296820428087e-04 0.0000000000000000e+00  4.4702604677766347e-05 2.6690504141521886e-04 0.0000000000000000e+00  4.2488168133346821e-05 2.2888411079984190e-04 0.0000000000000000e+00  3.9819947748786893e-05 1.9295608472805334e-04 0.0000000000000000e+00  3.7166468073913094e-05 1.5943444235107400e-04 0.0000000000000000e+00  3.3733556917883172e-05 1.2876488963386293e-04 0.0000000000000000e+00  3.0733407668546875e-05 1.0045580891363181e-04 0.0000000000000000e+00  2.7546753576645055e-05 7.5669091947470698e-05 0.0000000000000000e+00  2.3348256185185293e-05 5.3461697304732851e-05 0.0000000000000000e+00  1.9463832248822826e-05 3.5016930562682627e-05 0.0000000000000000e+00  1.4646960089669890e-05 2.0274959797707270e-05 0.0000000000000000e+00  1.0277529730885666e-05 9.5595522602453905e-06 0.0000000000000000e+00  4.8791110394282627e-06 3.0011927158682580e-06 0.0000000000000000e+00  -5.9981296236392354e-07 4.7584115919304092e-06 0.0000000000000000e+00  -1.5480930126906076e-05 1.9979522697263813e-03 0.0000000000000000e+00  -1.5972049583271278e-05 1.8940700705493330e-03 0.0000000000000000e+00  -1.5176152634068496e-05 1.7244000349110392e-03 0.0000000000000000e+00  -2.0057954548342421e-06 2.6118325524576244e-05 0.0000000000000000e+00  -1.4253635135053965e-05 1.6176307958965209e-03 0.0000000000000000e+00  -2.9308101291831253e-06 6.1403828814582485e-05 0.0000000000000000e+00  -1.4113984173375715e-05 1.5088781991227538e-03 0.0000000000000000e+00  -4.6505265566859044e-06 1.4441893318102749e-04 0.0000000000000000e+00  -6.3088232110102314e-06 2.1021390871507067e-04 0.0000000000000000e+00  -1.3930948020814097e-05 1.4001127380008588e-03 0.0000000000000000e+00  -8.0353752434477376e-06 4.1668747381794446e-04 0.0000000000000000e+00  -1.3402892155440041e-05 1.1829527063356138e-03 0.0000000000000000e+00  -6.6417175405540002e-06 2.8320116207917762e-04 0.0000000000000000e+00  -9.6933954715260104e-06 5.0767722016366627e-04 0.0000000000000000e+00  -1.3047083422288439e-05 1.0749528549861354e-03 0.0000000000000000e+00  -1.3695845559939180e-05 1.2914182596603695e-03 0.0000000000000000e+00  -1.0490213151056409e-05 6.0502728922873336e-04 0.0000000000000000e+00  -1.2618862814396708e-05 9.6773255118478879e-04 0.0000000000000000e+00  -1.0288357688568533e-05 7.0169415516643894e-04 0.0000000000000000e+00  -1.3024405550078075e-05 8.6385822870798528e-04 0.0000000000000000e+00  -1.1632100152960962e-05 7.7899804051313564e-04 0.0000000000000000e+00  -8.1743299620883937e-06 3.4528261469969341e-04 0.0000000000000000e+00  -1.4295459364302420e-05 1.8126119364517226e-03 0.0000000000000000e+00  -4.1956879901156549e-06 9.8089846929671294e-05 0.0000000000000000e+00  9.8368403210615704e-06 1.9456406177528970e-03 0.0000000000000000e+00  3.6966812375776182e-06 1.3141053150837408e-05 0.0000000000000000e+00  6.9872878218646527e-06 1.5632395563628446e-03 0.0000000000000000e+00  6.8628128986465400e-06 1.6719810256309632e-03 0.0000000000000000e+00  -1.1122939040702012e-05 4.3581431446866449e-05 0.0000000000000000e+00  -1.8639493512401229e-05 1.7598455441061056e-04 0.0000000000000000e+00  7.5352195543994598e-06 1.2370944780271396e-03 0.0000000000000000e+00  7.1421967217729932e-06 1.4544640407726306e-03 0.0000000000000000e+00  -2.7213796106270501e-05 4.6094380560881068e-04 0.0000000000000000e+00  7.7575920447012997e-06 1.1288171322609722e-03 0.0000000000000000e+00  -2.1462829872491393e-05 2.4777682222484703e-04 0.0000000000000000e+00  -2.8916776757928281e-05 5.5615607191019420e-04 0.0000000000000000e+00  7.9868615211925520e-06 1.0211533606607358e-03 0.0000000000000000e+00  7.3271190169281855e-06 1.3457090325135342e-03 0.0000000000000000e+00  -3.4645090965265801e-05 6.5478804793188676e-04 0.0000000000000000e+00  8.2188682728091895e-06 9.1445127090022959e-04 0.0000000000000000e+00  -1.0397939774488960e-06 1.3948441481650128e-06 0.0000000000000000e+00  7.4106750871930659e-07 6.5328891075606093e-07 0.0000000000000000e+00  -3.2277223073766493e-05 2.0407080115526768e-03 0.0000000000000000e+00  -6.8681838923250296e-06 1.4319144090312252e-05 0.0000000000000000e+00  1.3179365429320788e-05 8.2083473643696956e-04 0.0000000000000000e