<?xml version="1.0"?>
<VTKFile type="UnstructuredGrid"  version="0.1"  >
<UnstructuredGrid>
<Piece  NumberOfPoints="1419" NumberOfCells="2698">
<Points>
<DataArray  type="Float64"  NumberOfComponents="3"  format="ascii">0 0 0  0 0.41 0  2.5 0 0  2.5 0.41 0  0.6 0.19 0  0.6 0.21 0  0.25 0.2 0  0.15 0.2 0  0.2489897948556636 0.21 0  0.2489897948556636 0.19 0  0.6 0.2 0  0 0.3807142857143437 0  0 0.3514285714286952 0  0 0.3221428571430699 0  0 0.29285714285744 0  0 0.2635714285718054 0  0 0.2342857142861561 0  0 0.2050000000005308 0  0 0.175714285714732 0  0 0.1464285714289574 0  0 0.1171428571431897 0  0 0.08785714285737878 0  0 0.05857142857161107 0  0 0.02928571428580012 0  0.03015443760436003 0 0  0.06140001986583606 0 0  0.09377624077125973 0 0  0.1273239957535082 0 0  0.1620856860351972 0 0  0.1981052433264291 0 0  0.235428184091502 0 0  0.2741016576309132 0 0  0.3141745521465447 0 0  0.3556974926295285 0 0  0.3987229542472677 0 0  0.4433053055141081 0 0  0.4895008759286886 0 0  0.5373680609405097 0 0  0.5869673343216626 0 0  0.6383613676634521 0 0  0.6916151138468254 0 0  0.7467958595648856 0 0  0.8039733463919316 0 0  0.8632198139502143 0 0  0.9246101326867038 0 0  0.9882218810934433 0 0  1.054135445558498 0 0  1.122434100542598 0 0  1.193204177141305 0 0  1.266535089879536 0 0  1.342519516046404 0 0  1.421253448503939 0 0  1.502836389106271 0 0  1.587371439758838 0 0  1.674965418777374 0 0  1.765729001825544 0 0  1.859776908880082 0 0  1.957227977487062 0 0  2.058205329869943 0 0  2.162836591189951 0 0  2.271253957290865 0 0  2.383594446803425 0 0  2.5 0.1024999999997612 0  2.5 0.2049999999994743 0  2.5 0.3074999999997183 0  2.383594446803656 0.41 0  2.271253957291315 0.41 0  2.162836591190598 0.41 0  2.058205329870775 0.41 0  1.957227977488067 0.41 0  1.859776908881246 0.41 0  1.765729001826854 0.41 0  1.674965418778818 0.41 0  1.58737143976041 0.41 0  1.502836389107956 0.41 0  1.421253448505726 0.41 0  1.342519516048286 0.41 0  1.266535089881505 0.41 0  1.193204177143353 0.41 0  1.122434100544716 0.41 0  1.05413544556068 0.41 0  0.9882218810956305 0.41 0  0.9246101326886647 0.41 0  0.8632198139519631 0.41 0  0.8039733463934788 0.41 0  0.7467958595662458 0.41 0  0.6916151138480078 0.41 0  0.6383613676644679 0.41 0  0.5869673343225223 0.41 0  0.5373680609412221 0.41 0  0.4895008759292634 0.41 0  0.4433053055145528 0.41 0  0.3987229542475914 0.41 0  0.3556974926297398 0.41 0  0.3141745521466497 0.41 0  0.2741016576310038 0.41 0  0.2354281840915826 0.41 0  0.1981052433265003 0.41 0  0.1620856860352591 0.41 0  0.1273239957535623 0.41 0  0.09377624077128965 0.41 0  0.06140001986584975 0.41 0  0.03015443760436654 0.41 0  0.2497468076502589 0.2050254481002335 0  0.2497468076502614 0.1949745518997913 0  0.2469965252529372 0.1829317073451959 0  0.2439893735792749 0.1762316384219906 0  0.2400332147834255 0.1700443375285386 0  0.2352133972704371 0.1645032867342007 0  0.2296339016332438 0.1597280261969788 0  0.2234150974217223 0.1558215752574715 0  0.2166911463437691 0.1528682099456123 0  0.2096071079204251 0.1509316448471593 0  0.2023158100364996 0.1500536585536553 0  0.194974551899914 0.1502531923497262 0  0.1877417105387872 0.1515259415822739 0  0.1807733240461124 0.153844448527136 0  0.1742197252835808 0.15715869474974 0  0.1682222986673531 0.1613971801805478 0  0.162910430003803 0.1664684656256651 0  0.1583987151779087 0.1722631454351573 0  0.1547844879126891 0.178656207771761 0  0.1521457199348551 0.1855097315605723 0  0.1505393388476355 0.1926758619366523 0  0.1505393388476328 0.2073241380633295 0  0.1521457199348437 0.2144902684393899 0  0.1547844879126531 0.221343792228163 0  0.1583987151778488 0.2277368545647528 0  0.1629104300036858 0.2335315343742052 0  0.1682222986671726 0.2386028198193036 0  0.1742197252833576 0.2428413052501257 0  0.1807733240458683 0.2461555514727623 0  0.1877417105384929 0.2484740584176516 0  0.1949745518995776 0.2497468076502398 0  0.202315810036185 0.2499463414463592 0  0.2096071079201568 0.2490683551528932 0  0.2166911463435495 0.2471317900544655 0  0.2234150974215506 0.2441784247426195 0  0.2296339016331197 0.2402719738031125 0  0.2352133972703547 0.2354967132658811 0  0.2400332147833751 0.2299556624715287 0  0.2439893735792577 0.2237683615780412 0  0.246996525252926 0.2170682926548348 0  0.25645809709277 0.21 0  0.2639263993298655 0.21 0  0.271394701566961 0.21 0  0.2788630038040554 0.21 0  0.2863313060411479 0.21 0  0.2937996082782405 0.21 0  0.301267910515333 0.21 0  0.3087362127524279 0.21 0  0.3162045149895234 0.21 0  0.3236728172265972 0.21 0  0.3311411194636928 0.21 0  0.3386094217007701 0.21 0  0.3460777239378666 0.21 0  0.3535460261749672 0.21 0  0.3610143284120516 0.21 0  0.3684826306491596 0.21 0  0.3759509328862226 0.21 0  0.383419235123329 0.21 0  0.3908875373604028 0.21 0  0.3983558395975142 0.21 0  0.4058241418345938 0.21 0  0.4132924440716992 0.21 0  0.4207607463087888 0.21 0  0.4282290485459029 0.21 0  0.4356973507830418 0.21 0  0.4431656530201649 0.21 0  0.4506339552573136 0.21 0  0.4581022574944306 0.21 0  0.4655705597315852 0.21 0  0.4730388619686996 0.21 0  0.480507164205851 0.21 0  0.4879754664429498 0.21 0  0.4954437686800938 0.21 0  0.502912070917267 0.21 0  0.5103803731544119 0.21 0  0.5178486753915261 0.21 0  0.5253169776286404 0.21 0  0.5327852798657868 0.21 0  0.5402535821029386 0.21 0  0.54772188434007 0.21 0  0.5551901865771842 0.21 0  0.5626584888143201 0.21 0  0.5701267910514778 0.21 0  0.5775950932886138 0.21 0  0.5850633955257281 0.21 0  0.5925316977628483 0.21 0  0.6 0.2050000000000054 0  0.6 0.1950000000000217 0  0.5925316977628897 0.19 0  0.5850633955257988 0.19 0  0.5775950932887378 0.19 0  0.5701267910515998 0.19 0  0.5626584888145268 0.19 0  0.5551901865773963 0.19 0  0.547721884340339 0.19 0  0.5402535821032429 0.19 0  0.5327852798661811 0.19 0  0.5253169776290537 0.19 0  0.5178486753919799 0.19 0  0.5103803731549078 0.19 0  0.502912070917822 0.19 0  0.4954437686807294 0.19 0  0.4879754664436223 0.19 0  0.4805071642065402 0.19 0  0.4730388619694271 0.19 0  0.4655705597323621 0.19 0  0.4581022574952563 0.19 0  0.4506339552581777 0.19 0  0.4431656530210671 0.19 0  0.4356973507839815 0.19 0  0.4282290485468779 0.19 0  0.4207607463097617 0.19 0  0.4132924440726327 0.19 0  0.4058241418354857 0.19 0  0.3983558395983636 0.19 0  0.3908875373612097 0.19 0  0.3834192351240934 0.19 0  0.3759509328869369 0.19 0  0.3684826306498175 0.19 0  0.361014328412667 0.19 0  0.3535460261755617 0.19 0  0.3460777239384295 0.19 0  0.3386094217012945 0.19 0  0.3311411194641595 0.19 0  0.3236728172270245 0.19 0  0.3162045149898895 0.19 0  0.3087362127527544 0.19 0  0.3012679105156187 0.19 0  0.2937996082784807 0.19 0  0.2863313060413428 0.19 0  0.2788630038042048 0.19 0  0.2713947015670686 0.19 0  0.2639263993299336 0.19 0  0.2564580970927985 0.19 0  0.2607803159922026 0.2000727136295815 0  0.5887803774232762 0.2001272386983733 0  0.5745072403740523 0.2002044435018727 0  0.5511891430099709 0.2001122610077113 0  0.2751288526855082 0.20000000000002 0  0.5365194309847112 0.1999999999999436 0  0.2894621222999649 0.1998691686390484 0  0.5215828265105155 0.1999999999999228 0  0.3127789816668748 0.1998657885438805 0  0.3274069683451451 0.2000000000000796 0  0.5066462220363641 0.199999999999908 0  0.3650630746574081 0.199866017807523 0  0.476773013087985 0.1999999999998713 0  0.3417402379596385 0.1998691686391011 0  0.3796850840047755 0.200000000000134 0  0.4618364086138087 0.1999999999998546 0  0.4917096175621762 0.1999999999998808 0  0.3946216884789568 0.2000000000001512 0  0.446899804139621 0.1999999999998389 0  0.4089549580935208 0.1998691686391595 0  0.4322718174608562 0.200127451265745 0  0.4201487168029707 0.1999966199048527 0  0.3528922713220932 0.2000185703532356 0  0.5633122436674589 0.1999814296467508 0  0.3006558810093873 0.1999966199048318 0  0.5815926498168407 0.1966545283159175 0  0.2677053789419034 0.1964246479135325 0  0.5290511287476175 0.1970915826863981 0  0.5439877332217911 0.197091582686394 0  0.2825131256993216 0.2035478995978015 0  0.3199386661080599 0.202908417313604 0  0.4842413153250809 0.1970915826863873 0  0.5141145242734466 0.1970915826863843 0  0.3722167817676917 0.2029084173136195 0  0.4693047108508938 0.1970915826863783 0  0.3348752705822316 0.202908417313609 0  0.3871533862418661 0.2029084173136212 0  0.4543681063767183 0.1970915826863795 0  0.4991779197992749 0.1970915826863902 0  0.4020059614928624 0.203547899597858 0  0.4394315019025246 0.1970915826863714 0  0.2550657455369551 0.2034088125358657 0  0.2548908499171161 0.1966940311614271 0  0.5946539510196798 0.2024302972968126 0  0.267698176732111 0.2039977513680092 0  0.4261685417851465 0.196409292431739 0  0.3590076176283495 0.196411355804271 0  0.5571672426447437 0.2036011176410121 0  0.3066757059912147 0.1964092924317024 0  0.594380730180568 0.1966558399668133 0  0.4842413153245942 0.2040749161535287 0  0.4693047108503577 0.2040749161535231 0  0.3871533862424271 0.1959250838464788 0  0.372246743208829 0.1959123236376545 0  0.5141145242731028 0.2040749161535395 0  0.4543681063761134 0.2040749161535186 0  0.4019979587101454 0.1959834479682427 0  0.4394608940728603 0.2040870543693135 0  0.5439623148931173 0.2040856076781014 0  0.5290511287473298 0.2040749161535501 0  0.4991779197988497 0.2040749161535382 0  0.3347912413592433 0.1959225448935183 0  0.3199680582793816 0.1959123018030061 0  0.2825051229162361 0.1959834479681729 0  0.3590471196690275 0.2036304442587945 0  0.5571594006495384 0.1963685282145804 0  0.3067669986803285 0.203627750582736 0  0.4262598344738712 0.2036568242185335 0  0.5814408164431408 0.2041285596160068 0  0.5688286748170428 0.1961819304477386 0  0.4145905603063645 0.2038180695522843 0  0.3473758401724931 0.2038180695522752 0  0.2950977245128307 0.2038180695522663 0  0.5688286748170693 0.203818069552238 0  0.2950977245127906 0.1961819304477774 0  0.3473758401723931 0.1961819304478349 0  0.4145905603061963 0.1961819304479011 0  0.2601812407614425 0.2056861609747042
[...]
<PointData  Vectors="f_40-1"> 
<DataArray  type="Float64"  Name="f_40-1"  NumberOfComponents="3" format="ascii">0.0000000000000000e+00 0.0000000000000000e+00 0.0000000000000000e+00  0.0000000000000000e+00 0.0000000000000000e+00 0.0000000000000000e+00  0.0000000000000000e+00 0.0000000000000000e+00 0.0000000000000000e+00  0.0000000000000000e+00 0.0000000000000000e+00 0.0000000000000000e+00  5.8275185717770014e-05 2.0797184733047347e-03 0.0000000000000000e+00  -8.7358236442561913e-05 2.0795925085392909e-03 0.0000000000000000e+00  0.0000000000000000e+00 0.0000000000000000e+00 0.0000000000000000e+00  0.0000000000000000e+00 0.0000000000000000e+00 0.0000000000000000e+00  0.0000000000000000e+00 0.0000000000000000e+00 0.0000000000000000e+00  0.0000000000000000e+00 0.0000000000000000e+00 0.0000000000000000e+00  -1.4612971362386666e-05 2.0796478185573894e-03 0.0000000000000000e+00  0.0000000000000000e+00 0.0000000000000000e+00 0.0000000000000000e+00  0.0000000000000000e+00 0.0000000000000000e+00 0.0000000000000000e+00  0.0000000000000000e+00 0.0000000000000000e+00 0.0000000000000000e+00  0.0000000000000000e+00 0.0000000000000000e+00 0.0000000000000000e+00  0.0000000000000000e+00 0.0000000000000000e+00 0.0000000000000000e+00  0.0000000000000000e+00 0.0000000000000000e+00 0.0000000000000000e+00  0.0000000000000000e+00 0.0000000000000000e+00 0.0000000000000000e+00  0.0000000000000000e+00 0.0000000000000000e+00 0.0000000000000000e+00  0.0000000000000000e+00 0.0000000000000000e+00 0.0000000000000000e+00  0.0000000000000000e+00 0.0000000000000000e+00 0.0000000000000000e+00  0.0000000000000000e+00 0.0000000000000000e+00 0.0000000000000000e+00  0.0000000000000000e+00 0.0000000000000000e+00 0.0000000000000000e+00  0.0000000000000000e+00 0.0000000000000000e+00 0.0000000000000000e+00  0.0000000000000000e+00 0.0000000000000000e+00 0.0000000000000000e+00  0.0000000000000000e+00 0.0000000000000000e+00 0.0000000000000000e+00  0.0000000000000000e+00 0.0000000000000000e+00 0.0000000000000000e+00  0.0000000000000000e+00 0.0000000000000000e+00 0.0000000000000000e+00  0.0000000000000000e+00 0.0000000000000000e+00 0.0000000000000000e+00  0.0000000000000000e+00 0.0000000000000000e+00 0.0000000000000000e+00  0.0000000000000000e+00 0.0000000000000000e+00 0.0000000000000000e+00  0.0000000000000000e+00 0.0000000000000000e+00 0.0000000000000000e+00  0.0000000000000000e+00 0.0000000000000000e+00 0.0000000000000000e+00  0.0000000000000000e+00 0.0000000000000000e+00 0.0000000000000000e+00  0.0000000000000000e+00 0.0000000000000000e+00 0.0000000000000000e+00  0.0000000000000000e+00 0.0000000000000000e+00 0.0000000000000000e+00  0.0000000000000000e+00 0.0000000000000000e+00 0.0000000000000000e+00  0.0000000000000000e+00 0.0000000000000000e+00 0.0000000000000000e+00  0.0000000000000000e+00 0.0000000000000000e+00 0.0000000000000000e+00  0.0000000000000000e+00 0.0000000000000000e+00 0.0000000000000000e+00  0.0000000000000000e+00 0.0000000000000000e+00 0.0000000000000000e+00  0.0000000000000000e+00 0.0000000000000000e+00 0.0000000000000000e+00  0.0000000000000000e+00 0.0000000000000000e+00 0.0000000000000000e+00  0.0000000000000000e+00 0.0000000000000000e+00 0.0000000000000000e+00  0.0000000000000000e+00 0.0000000000000000e+00 0.0000000000000000e+00  0.0000000000000000e+00 0.0000000000000000e+00 0.0000000000000000e+00  0.0000000000000000e+00 0.0000000000000000e+00 0.0000000000000000e+00  0.0000000000000000e+00 0.0000000000000000e+00 0.0000000000000000e+00  0.0000000000000000e+00 0.0000000000000000e+00 0.0000000000000000e+00  0.0000000000000000e+00 0.0000000000000000e+00 0.0000000000000000e+00  0.0000000000000000e+00 0.0000000000000000e+00 0.0000000000000000e+00  0.0000000000000000e+00 0.0000000000000000e+00 0.0000000000000000e+00  0.0000000000000000e+00 0.0000000000000000e+00 0.0000000000000000e+00  0.0000000000000000e+00 0.0000000000000000e+00 0.0000000000000000e+00  0.0000000000000000e+00 0.0000000000000000e+00 0.0000000000000000e+00  0.0000000000000000e+00 0.0000000000000000e+00 0.0000000000000000e+00  0.0000000000000000e+00 0.0000000000000000e+00 0.0000000000000000e+00  0.0000000000000000e+00 0.0000000000000000e+00 0.0000000000000000e+00  0.0000000000000000e+00 0.0000000000000000e+00 0.0000000000000000e+00  0.0000000000000000e+00 0.0000000000000000e+00 0.0000000000000000e+00  0.0000000000000000e+00 0.0000000000000000e+00 0.0000000000000000e+00  0.0000000000000000e+00 0.0000000000000000e+00 0.0000000000000000e+00  0.0000000000000000e+00 0.0000000000000000e+00 0.0000000000000000e+00  0.0000000000000000e+00 0.0000000000000000e+00 0.0000000000000000e+00  0.0000000000000000e+00 0.0000000000000000e+00 0.0000000000000000e+00  0.0000000000000000e+00 0.0000000000000000e+00 0.0000000000000000e+00  0.0000000000000000e+00 0.0000000000000000e+00 0.0000000000000000e+00  0.0000000000000000e+00 0.0000000000000000e+00 0.0000000000000000e+00  0.0000000000000000e+00 0.0000000000000000e+00 0.0000000000000000e+00  0.0000000000000000e+00 0.0000000000000000e+00 0.0000000000000000e+00  0.0000000000000000e+00 0.0000000000000000e+00 0.0000000000000000e+00  0.0000000000000000e+00 0.0000000000000000e+00 0.0000000000000000e+00  0.0000000000000000e+00 0.0000000000000000e+00 0.0000000000000000e+00  0.0000000000000000e+00 0.0000000000000000e+00 0.0000000000000000e+00  0.0000000000000000e+00 0.0000000000000000e+00 0.0000000000000000e+00  0.0000000000000000e+00 0.0000000000000000e+00 0.0000000000000000e+00  0.0000000000000000e+00 0.0000000000000000e+00 0.0000000000000000e+00  0.0000000000000000e+00 0.0000000000000000e+00 0.0000000000000000e+00  0.0000000000000000e+00 0.0000000000000000e+00 0.0000000000000000e+00  0.0000000000000000e+00 0.0000000000000000e+00 0.0000000000000000e+00  0.0000000000000000e+00 0.0000000000000000e+00 0.0000000000000000e+00  0.0000000000000000e+00 0.0000000000000000e+00 0.0000000000000000e+00  0.0000000000000000e+00 0.0000000000000000e+00 0.0000000000000000e+00  0.0000000000000000e+00 0.0000000000000000e+00 0.0000000000000000e+00  0.0000000000000000e+00 0.0000000000000000e+00 0.0000000000000000e+00  0.0000000000000000e+00 0.0000000000000000e+00 0.0000000000000000e+00  0.0000000000000000e+00 0.0000000000000000e+00 0.0000000000000000e+00  0.0000000000000000e+00 0.0000000000000000e+00 0.0000000000000000e+00  0.0000000000000000e+00 0.0000000000000000e+00 0.0000000000000000e+00  0.0000000000000000e+00 0.0000000000000000e+00 0.0000000000000000e+00  0.0000000000000000e+00 0.0000000000000000e+00 0.0000000000000000e+00  0.0000000000000000e+00 0.0000000000000000e+00 0.0000000000000000e+00  0.0000000000000000e+00 0.0000000000000000e+00 0.0000000000000000e+00  0.0000000000000000e+00 0.0000000000000000e+00 0.0000000000000000e+00  0.0000000000000000e+00 0.0000000000000000e+00 0.0000000000000000e+00  0.0000000000000000e+00 0.0000000000000000e+00 0.0000000000000000e+00  0.0000000000000000e+00 0.0000000000000000e+00 0.0000000000000000e+00  0.0000000000000000e+00 0.0000000000000000e+00 0.0000000000000000e+00  0.0000000000000000e+00 0.0000000000000000e+00 0.0000000000000000e+00  0.0000000000000000e+00 0.0000000000000000e+00 0.0000000000000000e+00  0.0000000000000000e+00 0.0000000000000000e+00 0.0000000000000000e+00  0.0000000000000000e+00 0.0000000000000000e+00 0.0000000000000000e+00  0.0000000000000000e+00 0.0000000000000000e+00 0.0000000000000000e+00  0.0000000000000000e+00 0.0000000000000000e+00 0.0000000000000000e+00  0.0000000000000000e+00 0.0000000000000000e+00 0.0000000000000000e+00  0.0000000000000000e+00 0.0000000000000000e+00 0.0000000000000000e+00  0.0000000000000000e+00 0.0000000000000000e+00 0.0000000000000000e+00  0.0000000000000000e+00 0.0000000000000000e+00 0.0000000000000000e+00  0.0000000000000000e+00 0.0000000000000000e+00 0.0000000000000000e+00  0.0000000000000000e+00 0.0000000000000000e+00 0.0000000000000000e+00  0.0000000000000000e+00 0.0000000000000000e+00 0.0000000000000000e+00  0.0000000000000000e+00 0.0000000000000000e+00 0.0000000000000000e+00  0.0000000000000000e+00 0.0000000000000000e+00 0.0000000000000000e+00  0.0000000000000000e+00 0.0000000000000000e+00 0.0000000000000000e+00  0.0000000000000000e+00 0.0000000000000000e+00 0.0000000000000000e+00  0.0000000000000000e+00 0.0000000000000000e+00 0.0000000000000000e+00  0.0000000000000000e+00 0.0000000000000000e+00 0.0000000000000000e+00  0.0000000000000000e+00 0.0000000000000000e+00 0.0000000000000000e+00  0.0000000000000000e+00 0.0000000000000000e+00 0.0000000000000000e+00  0.0000000000000000e+00 0.0000000000000000e+00 0.0000000000000000e+00  0.0000000000000000e+00 0.0000000000000000e+00 0.0000000000000000e+00  0.0000000000000000e+00 0.0000000000000000e+00 0.0000000000000000e+00  0.0000000000000000e+00 0.0000000000000000e+00 0.0000000000000000e+00  0.0000000000000000e+00 0.0000000000000000e+00 0.0000000000000000e+00  0.0000000000000000e+00 0.0000000000000000e+00 0.0000000000000000e+00  0.0000000000000000e+00 0.0000000000000000e+00 0.0000000000000000e+00  0.0000000000000000e+00 0.0000000000000000e+00 0.0000000000000000e+00  0.0000000000000000e+00 0.0000000000000000e+00 0.0000000000000000e+00  0.0000000000000000e+00 0.0000000000000000e+00 0.0000000000000000e+00  0.0000000000000000e+00 0.0000000000000000e+00 0.0000000000000000e+00  0.0000000000000000e+00 0.0000000000000000e+00 0.0000000000000000e+00  0.0000000000000000e+00 0.0000000000000000e+00 0.0000000000000000e+00  0.0000000000000000e+00 0.0000000000000000e+00 0.0000000000000000e+00  0.0000000000000000e+00 0.0000000000000000e+00 0.0000000000000000e+00  0.0000000000000000e+00 0.0000000000000000e+00 0.0000000000000000e+00  0.0000000000000000e+00 0.0000000000000000e+00 0.0000000000000000e+00  0.0000000000000000e+00 0.0000000000000000e+00 0.0000000000000000e+00  0.0000000000000000e+00 0.0000000000000000e+00 0.0000000000000000e+00  0.0000000000000000e+00 0.0000000000000000e+00 0.0000000000000000e+00  0.0000000000000000e+00 0.0000000000000000e+00 0.0000000000000000e+00  0.0000000000000000e+00 0.0000000000000000e+00 0.0000000000000000e+00  0.0000000000000000e+00 0.0000000000000000e+00 0.0000000000000000e+00  0.0000000000000000e+00 0.0000000000000000e+00 0.0000000000000000e+00  -5.8589979548263477e-06 5.8114021031999426e-06 0.0000000000000000e+00  -1.2401641832266551e-05 1.2487392614897732e-05 0.0000000000000000e+00  -1.8164703019186310e-05 2.3128510752768451e-05 0.0000000000000000e+00  -2.4277697514642170e-05 3.7983986924331720e-05 0.0000000000000000e+00  -2.9348709382349443e-05 5.6259930600325462e-05 0.0000000000000000e+00  -3.4913464311127763e-05 7.8272958369522615e-05 0.0000000000000000e+00  -3.9362491318579300e-05 1.0297000819754658e-04 0.0000000000000000e+00  -4.3569357547678140e-05 1.3113243489980939e-04 0.0000000000000000e+00  -4.8236408067888681e-05 1.6185804253605687e-04 0.0000000000000000e+00  -5.1750743237089770e-05 1.9516574145674300e-04 0.0000000000000000e+00  -5.5841930353279526e-05 2.3098060769575875e-04 0.0000000000000000e+00  -5.8874672843235642e-05 2.6897271210330305e-04 0.0000000000000000e+00  -6.2267945849921286e-05 3.0903832839403482e-04 0.0000000000000000e+00  -6.4916260137968512e-05 3.5070887086304647e-04 0.0000000000000000e+00  -6.7366212031145739e-05 3.9428456904726564e-04 0.0000000000000000e+00  -6.9994334896014519e-05 4.3923675975874151e-04 0.0000000000000000e+00  -7.1939489794465189e-05 4.8551437275950760e-04 0.0000000000000000e+00  -7.4097286782087205e-05 5.3305973843893360e-04 0.0000000000000000e+00  -7.5670434537333320e-05 5.8161114415230717e-04 0.0000000000000000e+00  -7.7374428838843716e-05 6.3111025853723507e-04 0.0000000000000000e+00  -7.8681346834443613e-05 6.8140625237696087e-04 0.0000000000000000e+00  -7.9994875272275848e-05 7.3245681655475256e-04 0.0000000000000000e+00  -8.1022928445133760e-05 7.8400873533220560e-04 0.0000000000000000e+00  -8.1931640266070358e-05 8.3616935795940582e-04 0.0000000000000000e+00  -8.2846016343771076e-05 8.8871969546560627e-04 0.0000000000000000e+00  -8.3559613876202344e-05 9.4167270083931926e-04 0.0000000000000000e+00  -8.4210418193566644e-05 9.9497741199822218e-04 0.0000000000000000e+00  -8.4746052295940207e-05 1.0485098359486725e-03 0.0000000000000000e+00  -8.5222051753702498e-05 1.1022994142603571e-03 0.0000000000000000e+00  -8.5610239600027808e-05 1.1562354263946481e-03 0.0000000000000000e+00  -8.5946168901192559e-05 1.2103381513566267e-03 0.0000000000000000e+00  -8.6214452400194128e-05 1.2645177855426402e-03 0.0000000000000000e+00  -8.6440212477578642e-05 1.3187933171626589e-03 0.0000000000000000e+00  -8.6614653230909151e-05 1.3730950714148349e-03 0.0000000000000000e+00  -8.6753572119488924e-05 1.4274446129582459e-03 0.0000000000000000e+00  -8.6861748601003663e-05 1.4817938835610376e-03 0.0000000000000000e+00  -8.6946482667315571e-05 1.5361570362471132e-03 0.0000000000000000e+00  -8.7013716359995020e-05 1.5905090427621104e-03 0.0000000000000000e+00  -8.7066115491850305e-05 1.6448593742384259e-03 0.0000000000000000e+00  -8.7111712448818379e-05 1.6991993825605791e-03 0.0000000000000000e+00  -8.7151552479980242e-05 1.7535326013800835e-03 0.0000000000000000e+00  -8.7191728328646673e-05 1.8078618842024120e-03 0.0000000000000000e+00  -8.7228021190620086e-05 1.8621937660839982e-03 0.0000000000000000e+00  -8.7266835249410151e-05 1.9165295905541925e-03 0.0000000000000000e+00  -8.7307067640537265e-05 1.9708786781779662e-03 0.0000000000000000e+00  -8.7341700231944249e-05 2.0252368467366423e-03 0.0000000000000000e+00  -5.1002504328403892e-05 2.0796197301256266e-03 0.0000000000000000e+00  2.1805039958544508e-05 2.0796781377316240e-03 0.0000000000000000e+00  5.8270244845513069e-05 2.0253049419399600e-03 0.0000000000000000e+00  5.8288002637738262e-05 1.9709292240016299e-03 0.0000000000000000e+00  5.8313439384179752e-05 1.9165686039453345e-03 0.0000000000000000e+00  5.8340991776989887e-05 1.8622131863040921e-03 0.0000000000000000e+00  5.8374159765352207e-05 1.8078596228351933e-03 0.0000000000000000e+00  5.8418971553284277e-05 1.7535038830717665e-03 0.0000000000000000e+00  5.8470484021682219e-05 1.6991418101817519e-03 0.0000000000000000e+00  5.8530282755104775e-05 1.6447725074099676e-03 0.0000000000000000e+00  5.8595953807493481e-05 1.5903913756302322e-03 0.0000000000000000e+00  5.8666707916631121e-05 1.5359994103653486e-03 0.0000000000000000e+00  5.8736614702587607e-05 1.4816009087165029e-03 0.0000000000000000e+00  5.8811335809722853e-05 1.4272029357555104e-03 0.0000000000000000e+00  5.8871445968265747e-05 1.3728153697322126e-03 0.0000000000000000e+00  5.8935557028573241e-05 1.3184566840683744e-03 0.0000000000000000e+00  5.8961538897671665e-05 1.2641404661502035e-03 0.0000000000000000e+00  5.8996397060519367e-05 1.2098998029653316e-03 0.0000000000000000e+00  5.8963279769004592e-05 1.1557532468544466e-03 0.0000000000000000e+00  5.8950203899955537e-05 1.1017477070087306e-03 0.0000000000000000e+00  5.8832892640456745e-05 1.0479087191601559e-03 0.0000000000000000e+00  5.8752857410199476e-05 9.9429593861562627e-04 0.0000000000000000e+00  5.8519040609852713e-05 9.4093972148490829e-04 0.0000000000000000e+00  5.8344573720224265e-05 8.8791535431441686e-04 0.0000000000000000e+00  5.7968555195133578e-05 8.3527022710024729e-04 0.0000000000000000e+00  5.7638673035024548e-05 7.8303479512827144e-04 0.0000000000000000e+00  5.7242462860508464e-05 7.3140974510151220e-04 0.0000000000000000e+00  5.6607746811611936e-05 6.8025912500761256e-04 0.0000000000000000e+00  5.5972564400387366e-05 6.2989982671627482e-04 0.0000000000000000e+00  5.5110286175627879e-05 5.8028365902651881e-04 0.0000000000000000e+00  5.4207564048244863e-05 5.3165526204211058e-04 0.0000000000000000e+00  5.3041605914811979e-05 4.8402293537055295e-04 0.0000000000000000e+00  5.1828828066070837e-05 4.3758995044597691e-04 0.0000000000000000e+00  5.0142374564429774e-05 3.9263648492775054e-04 0.0000000000000000e+00  4.8641550748169371e-05 3.4894066598869958e-04 0.0000000000000000e+00  4.6979873547297247e-05 3.0720388846613566e-04 0.0000000000000000e+00  4.4702797126995711e-05 2.6690584159821414e-04 0.0000000000000000e+00  4.2488349688713557e-05 2.2888479768103646e-04 0.0000000000000000e+00  3.9820116983864566e-05 1.9295666444575681e-04 0.0000000000000000e+00  3.7166624930312850e-05 1.5943492202462675e-04 0.0000000000000000e+00  3.3733698965229239e-05 1.2876527761724281e-04 0.0000000000000000e+00  3.0733536076834553e-05 1.0045611215956515e-04 0.0000000000000000e+00  2.7546867625167546e-05 7.5669320832597465e-05 0.0000000000000000e+00  2.3348352765549848e-05 5.3461859424081850e-05 0.0000000000000000e+00  1.9463912106815853e-05 3.5017037113014614e-05 0.0000000000000000e+00  1.4647020273288284e-05 2.0275021743005530e-05 0.0000000000000000e+00  1.0277571417809218e-05 9.5595817465832055e-06 0.0000000000000000e+00  4.8791310472755272e-06 3.0012021548624038e-06 0.0000000000000000e+00  -5.9980664682562147e-07 4.7584263781937205e-06 0.0000000000000000e+00  -1.5480820343490960e-05 1.9979583891245132e-03 0.0000000000000000e+00  -1.5971945599639121e-05 1.8940758642631494e-03 0.0000000000000000e+00  -1.5176053128792088e-05 1.7244052965547049e-03 0.0000000000000000e+00  -2.0057830402116403e-06 2.6118405301995185e-05 0.0000000000000000e+00  -1.4253537208262667e-05 1.6176357230740959e-03 0.0000000000000000e+00  -2.9307905529314690e-06 6.1404015136877303e-05 0.0000000000000000e+00  -1.4113890456965542e-05 1.5088827862969893e-03 0.0000000000000000e+00  -4.6504968840321287e-06 1.4441936851900892e-04 0.0000000000000000e+00  -6.3087895404514637e-06 2.1021454058666624e-04 0.0000000000000000e+00  -1.3930858518753203e-05 1.4001169860547581e-03 0.0000000000000000e+00  -8.0353257323996781e-06 4.1668872141067503e-04 0.0000000000000000e+00  -1.3402811121829447e-05 1.1829562809136207e-03 0.0000000000000000e+00  -6.6416765210119814e-06 2.8320201158369389e-04 0.0000000000000000e+00  -9.6933435340333974e-06 5.0767873981561146e-04 0.0000000000000000e+00  -1.3047006663755094e-05 1.0749560966744252e-03 0.0000000000000000e+00  -1.3695760282237217e-05 1.2914221699673457e-03 0.0000000000000000e+00  -1.0490156443795562e-05 6.0502910102326222e-04 0.0000000000000000e+00  -1.2618790367625770e-05 9.6773546384379405e-04 0.0000000000000000e+00  -1.0288293843390826e-05 7.0169625839442665e-04 0.0000000000000000e+00  -1.3024340122954872e-05 8.6386082411776105e-04 0.0000000000000000e+00  -1.1632035546691451e-05 7.7900037792400564e-04 0.0000000000000000e+00  -8.1742873619871077e-06 3.4528364929096398e-04 0.0000000000000000e+00  -1.4295353454324453e-05 1.8126174746411425e-03 0.0000000000000000e+00  -4.1956647746750199e-06 9.8090143482025785e-05 0.0000000000000000e+00  9.8370272931866444e-06 1.9456465721478067e-03 0.0000000000000000e+00  3.6967056014384962e-06 1.3141093531285700e-05 0.0000000000000000e+00  6.9874497951529671e-06 1.5632443126393177e-03 0.0000000000000000e+00  6.8629791958493303e-06 1.6719861222025440e-03 0.0000000000000000e+00  -1.1122948935975616e-05 4.3581564066311571e-05 0.0000000000000000e+00  -1.8639501211552448e-05 1.7598508425502427e-04 0.0000000000000000e+00  7.5353679729226071e-06 1.2370982193880742e-03 0.0000000000000000e+00  7.1423542950496195e-06 1.4544684574429503e-03 0.0000000000000000e+00  -2.7213800342329318e-05 4.6094518576601123e-04 0.0000000000000000e+00  7.7577356261444349e-06 1.1288205392132916e-03 0.0000000000000000e+00  -2.1462837035849258e-05 2.4777756633316284e-04 0.0000000000000000e+00  -2.8916778932358547e-05 5.5615773726594789e-04 0.0000000000000000e+00  7.9870000274784264e-06 1.0211564365271168e-03 0.0000000000000000e+00  7.3272720844901145e-06 1.3457131106907275e-03 0.0000000000000000e+00  -3.4645103716744622e-05 6.5479001009820605e-04 0.0000000000000000e+00  8.2190014307834334e-06 9.1445402013650117e-04 0.0000000000000000e+00  -1.0397932492968795e-06 1.3948484544157235e-06 0.0000000000000000e+00  7.4107351185709499e-07 6.5329114023803288e-07 0.0000000000000000e+00  -3.2277164164032326e-05 2.0407142656186129e-03 0.0000000000000000e+00  -6.8681915161393122e-06 1.4319188012826192e-05 0.0000000000000000e+00  1.3179508022951220e-05 8.2083720033115004e-04 0.0000000000000000e