<?xml version="1.0"?>
<VTKFile type="UnstructuredGrid"  version="0.1"  >
<UnstructuredGrid>
<Piece  NumberOfPoints="1419" NumberOfCells="2698">
<Points>
<DataArray  type="Float64"  NumberOfComponents="3"  format="ascii">0 0 0  0 0.41 0  2.5 0 0  2.5 0.41 0  0.6 0.19 0  0.6 0.21 0  0.25 0.2 0  0.15 0.2 0  0.2489897948556636 0.21 0  0.2489897948556636 0.19 0  0.6 0.2 0  0 0.3807142857143437 0  0 0.3514285714286952 0  0 0.3221428571430699 0  0 0.29285714285744 0  0 0.2635714285718054 0  0 0.2342857142861561 0  0 0.2050000000005308 0  0 0.175714285714732 0  0 0.1464285714289574 0  0 0.1171428571431897 0  0 0.08785714285737878 0  0 0.05857142857161107 0  0 0.02928571428580012 0  0.03015443760436003 0 0  0.06140001986583606 0 0  0.09377624077125973 0 0  0.1273239957535082 0 0  0.1620856860351972 0 0  0.1981052433264291 0 0  0.235428184091502 0 0  0.2741016576309132 0 0  0.3141745521465447 0 0  0.3556974926295285 0 0  0.3987229542472677 0 0  0.4433053055141081 0 0  0.4895008759286886 0 0  0.5373680609405097 0 0  0.5869673343216626 0 0  0.6383613676634521 0 0  0.6916151138468254 0 0  0.7467958595648856 0 0  0.8039733463919316 0 0  0.8632198139502143 0 0  0.9246101326867038 0 0  0.9882218810934433 0 0  1.054135445558498 0 0  1.122434100542598 0 0  1.193204177141305 0 0  1.266535089879536 0 0  1.342519516046404 0 0  1.421253448503939 0 0  1.502836389106271 0 0  1.587371439758838 0 0  1.674965418777374 0 0  1.765729001825544 0 0  1.859776908880082 0 0  1.957227977487062 0 0  2.058205329869943 0 0  2.162836591189951 0 0  2.271253957290865 0 0  2.383594446803425 0 0  2.5 0.1024999999997612 0  2.5 0.2049999999994743 0  2.5 0.3074999999997183 0  2.383594446803656 0.41 0  2.271253957291315 0.41 0  2.162836591190598 0.41 0  2.058205329870775 0.41 0  1.957227977488067 0.41 0  1.859776908881246 0.41 0  1.765729001826854 0.41 0  1.674965418778818 0.41 0  1.58737143976041 0.41 0  1.502836389107956 0.41 0  1.421253448505726 0.41 0  1.342519516048286 0.41 0  1.266535089881505 0.41 0  1.193204177143353 0.41 0  1.122434100544716 0.41 0  1.05413544556068 0.41 0  0.9882218810956305 0.41 0  0.9246101326886647 0.41 0  0.8632198139519631 0.41 0  0.8039733463934788 0.41 0  0.7467958595662458 0.41 0  0.6916151138480078 0.41 0  0.6383613676644679 0.41 0  0.5869673343225223 0.41 0  0.5373680609412221 0.41 0  0.4895008759292634 0.41 0  0.4433053055145528 0.41 0  0.3987229542475914 0.41 0  0.3556974926297398 0.41 0  0.3141745521466497 0.41 0  0.2741016576310038 0.41 0  0.2354281840915826 0.41 0  0.1981052433265003 0.41 0  0.1620856860352591 0.41 0  0.1273239957535623 0.41 0  0.09377624077128965 0.41 0  0.06140001986584975 0.41 0  0.03015443760436654 0.41 0  0.2497468076502589 0.2050254481002335 0  0.2497468076502614 0.1949745518997913 0  0.2469965252529372 0.1829317073451959 0  0.2439893735792749 0.1762316384219906 0  0.2400332147834255 0.1700443375285386 0  0.2352133972704371 0.1645032867342007 0  0.2296339016332438 0.1597280261969788 0  0.2234150974217223 0.1558215752574715 0  0.2166911463437691 0.1528682099456123 0  0.2096071079204251 0.1509316448471593 0  0.2023158100364996 0.1500536585536553 0  0.194974551899914 0.1502531923497262 0  0.1877417105387872 0.1515259415822739 0  0.1807733240461124 0.153844448527136 0  0.1742197252835808 0.15715869474974 0  0.1682222986673531 0.1613971801805478 0  0.162910430003803 0.1664684656256651 0  0.1583987151779087 0.1722631454351573 0  0.1547844879126891 0.178656207771761 0  0.1521457199348551 0.1855097315605723 0  0.1505393388476355 0.1926758619366523 0  0.1505393388476328 0.2073241380633295 0  0.1521457199348437 0.2144902684393899 0  0.1547844879126531 0.221343792228163 0  0.1583987151778488 0.2277368545647528 0  0.1629104300036858 0.2335315343742052 0  0.1682222986671726 0.2386028198193036 0  0.1742197252833576 0.2428413052501257 0  0.1807733240458683 0.2461555514727623 0  0.1877417105384929 0.2484740584176516 0  0.1949745518995776 0.2497468076502398 0  0.202315810036185 0.2499463414463592 0  0.2096071079201568 0.2490683551528932 0  0.2166911463435495 0.2471317900544655 0  0.2234150974215506 0.2441784247426195 0  0.2296339016331197 0.2402719738031125 0  0.2352133972703547 0.2354967132658811 0  0.2400332147833751 0.2299556624715287 0  0.2439893735792577 0.2237683615780412 0  0.246996525252926 0.2170682926548348 0  0.25645809709277 0.21 0  0.2639263993298655 0.21 0  0.271394701566961 0.21 0  0.2788630038040554 0.21 0  0.2863313060411479 0.21 0  0.2937996082782405 0.21 0  0.301267910515333 0.21 0  0.3087362127524279 0.21 0  0.3162045149895234 0.21 0  0.3236728172265972 0.21 0  0.3311411194636928 0.21 0  0.3386094217007701 0.21 0  0.3460777239378666 0.21 0  0.3535460261749672 0.21 0  0.3610143284120516 0.21 0  0.3684826306491596 0.21 0  0.3759509328862226 0.21 0  0.383419235123329 0.21 0  0.3908875373604028 0.21 0  0.3983558395975142 0.21 0  0.4058241418345938 0.21 0  0.4132924440716992 0.21 0  0.4207607463087888 0.21 0  0.4282290485459029 0.21 0  0.4356973507830418 0.21 0  0.4431656530201649 0.21 0  0.4506339552573136 0.21 0  0.4581022574944306 0.21 0  0.4655705597315852 0.21 0  0.4730388619686996 0.21 0  0.480507164205851 0.21 0  0.4879754664429498 0.21 0  0.4954437686800938 0.21 0  0.502912070917267 0.21 0  0.5103803731544119 0.21 0  0.5178486753915261 0.21 0  0.5253169776286404 0.21 0  0.5327852798657868 0.21 0  0.5402535821029386 0.21 0  0.54772188434007 0.21 0  0.5551901865771842 0.21 0  0.5626584888143201 0.21 0  0.5701267910514778 0.21 0  0.5775950932886138 0.21 0  0.5850633955257281 0.21 0  0.5925316977628483 0.21 0  0.6 0.2050000000000054 0  0.6 0.1950000000000217 0  0.5925316977628897 0.19 0  0.5850633955257988 0.19 0  0.5775950932887378 0.19 0  0.5701267910515998 0.19 0  0.5626584888145268 0.19 0  0.5551901865773963 0.19 0  0.547721884340339 0.19 0  0.5402535821032429 0.19 0  0.5327852798661811 0.19 0  0.5253169776290537 0.19 0  0.5178486753919799 0.19 0  0.5103803731549078 0.19 0  0.502912070917822 0.19 0  0.4954437686807294 0.19 0  0.4879754664436223 0.19 0  0.4805071642065402 0.19 0  0.4730388619694271 0.19 0  0.4655705597323621 0.19 0  0.4581022574952563 0.19 0  0.4506339552581777 0.19 0  0.4431656530210671 0.19 0  0.4356973507839815 0.19 0  0.4282290485468779 0.19 0  0.4207607463097617 0.19 0  0.4132924440726327 0.19 0  0.4058241418354857 0.19 0  0.3983558395983636 0.19 0  0.3908875373612097 0.19 0  0.3834192351240934 0.19 0  0.3759509328869369 0.19 0  0.3684826306498175 0.19 0  0.361014328412667 0.19 0  0.3535460261755617 0.19 0  0.3460777239384295 0.19 0  0.3386094217012945 0.19 0  0.3311411194641595 0.19 0  0.3236728172270245 0.19 0  0.3162045149898895 0.19 0  0.3087362127527544 0.19 0  0.3012679105156187 0.19 0  0.2937996082784807 0.19 0  0.2863313060413428 0.19 0  0.2788630038042048 0.19 0  0.2713947015670686 0.19 0  0.2639263993299336 0.19 0  0.2564580970927985 0.19 0  0.2607803159922026 0.2000727136295815 0  0.5887803774232762 0.2001272386983733 0  0.5745072403740523 0.2002044435018727 0  0.5511891430099709 0.2001122610077113 0  0.2751288526855082 0.20000000000002 0  0.5365194309847112 0.1999999999999436 0  0.2894621222999649 0.1998691686390484 0  0.5215828265105155 0.1999999999999228 0  0.3127789816668748 0.1998657885438805 0  0.3274069683451451 0.2000000000000796 0  0.5066462220363641 0.199999999999908 0  0.3650630746574081 0.199866017807523 0  0.476773013087985 0.1999999999998713 0  0.3417402379596385 0.1998691686391011 0  0.3796850840047755 0.200000000000134 0  0.4618364086138087 0.1999999999998546 0  0.4917096175621762 0.1999999999998808 0  0.3946216884789568 0.2000000000001512 0  0.446899804139621 0.1999999999998389 0  0.4089549580935208 0.1998691686391595 0  0.4322718174608562 0.200127451265745 0  0.4201487168029707 0.1999966199048527 0  0.3528922713220932 0.2000185703532356 0  0.5633122436674589 0.1999814296467508 0  0.3006558810093873 0.1999966199048318 0  0.5815926498168407 0.1966545283159175 0  0.2677053789419034 0.1964246479135325 0  0.5290511287476175 0.1970915826863981 0  0.5439877332217911 0.197091582686394 0  0.2825131256993216 0.2035478995978015 0  0.3199386661080599 0.202908417313604 0  0.4842413153250809 0.1970915826863873 0  0.5141145242734466 0.1970915826863843 0  0.3722167817676917 0.2029084173136195 0  0.4693047108508938 0.1970915826863783 0  0.3348752705822316 0.202908417313609 0  0.3871533862418661 0.2029084173136212 0  0.4543681063767183 0.1970915826863795 0  0.4991779197992749 0.1970915826863902 0  0.4020059614928624 0.203547899597858 0  0.4394315019025246 0.1970915826863714 0  0.2550657455369551 0.2034088125358657 0  0.2548908499171161 0.1966940311614271 0  0.5946539510196798 0.2024302972968126 0  0.267698176732111 0.2039977513680092 0  0.4261685417851465 0.196409292431739 0  0.3590076176283495 0.196411355804271 0  0.5571672426447437 0.2036011176410121 0  0.3066757059912147 0.1964092924317024 0  0.594380730180568 0.1966558399668133 0  0.4842413153245942 0.2040749161535287 0  0.4693047108503577 0.2040749161535231 0  0.3871533862424271 0.1959250838464788 0  0.372246743208829 0.1959123236376545 0  0.5141145242731028 0.2040749161535395 0  0.4543681063761134 0.2040749161535186 0  0.4019979587101454 0.1959834479682427 0  0.4394608940728603 0.2040870543693135 0  0.5439623148931173 0.2040856076781014 0  0.5290511287473298 0.2040749161535501 0  0.4991779197988497 0.2040749161535382 0  0.3347912413592433 0.1959225448935183 0  0.3199680582793816 0.1959123018030061 0  0.2825051229162361 0.1959834479681729 0  0.3590471196690275 0.2036304442587945 0  0.5571594006495384 0.1963685282145804 0  0.3067669986803285 0.203627750582736 0  0.4262598344738712 0.2036568242185335 0  0.5814408164431408 0.2041285596160068 0  0.5688286748170428 0.1961819304477386 0  0.4145905603063645 0.2038180695522843 0  0.3473758401724931 0.2038180695522752 0  0.2950977245128307 0.2038180695522663 0  0.5688286748170693 0.203818069552238 0  0.2950977245127906 0.1961819304477774 0  0.3473758401723931 0.1961819304478349 0  0.4145905603061963 0.1961819304479011 0  0.2601812407614425 0.2056861609747042
[...]
<PointData  Vectors="f_40-1"> 
<DataArray  type="Float64"  Name="f_40-1"  NumberOfComponents="3" format="ascii">0.0000000000000000e+00 0.0000000000000000e+00 0.0000000000000000e+00  0.0000000000000000e+00 0.0000000000000000e+00 0.0000000000000000e+00  0.0000000000000000e+00 0.0000000000000000e+00 0.0000000000000000e+00  0.0000000000000000e+00 0.0000000000000000e+00 0.0000000000000000e+00  5.8270820666834934e-05 2.0794746786398578e-03 0.0000000000000000e+00  -8.7344771546770872e-05 2.0793490112721667e-03 0.0000000000000000e+00  0.0000000000000000e+00 0.0000000000000000e+00 0.0000000000000000e+00  0.0000000000000000e+00 0.0000000000000000e+00 0.0000000000000000e+00  0.0000000000000000e+00 0.0000000000000000e+00 0.0000000000000000e+00  0.0000000000000000e+00 0.0000000000000000e+00 0.0000000000000000e+00  -1.4608421220568719e-05 2.0794041729021921e-03 0.0000000000000000e+00  0.0000000000000000e+00 0.0000000000000000e+00 0.0000000000000000e+00  0.0000000000000000e+00 0.0000000000000000e+00 0.0000000000000000e+00  0.0000000000000000e+00 0.0000000000000000e+00 0.0000000000000000e+00  0.0000000000000000e+00 0.0000000000000000e+00 0.0000000000000000e+00  0.0000000000000000e+00 0.0000000000000000e+00 0.0000000000000000e+00  0.0000000000000000e+00 0.0000000000000000e+00 0.0000000000000000e+00  0.0000000000000000e+00 0.0000000000000000e+00 0.0000000000000000e+00  0.0000000000000000e+00 0.0000000000000000e+00 0.0000000000000000e+00  0.0000000000000000e+00 0.0000000000000000e+00 0.0000000000000000e+00  0.0000000000000000e+00 0.0000000000000000e+00 0.0000000000000000e+00  0.0000000000000000e+00 0.0000000000000000e+00 0.0000000000000000e+00  0.0000000000000000e+00 0.0000000000000000e+00 0.0000000000000000e+00  0.0000000000000000e+00 0.0000000000000000e+00 0.0000000000000000e+00  0.0000000000000000e+00 0.0000000000000000e+00 0.0000000000000000e+00  0.0000000000000000e+00 0.0000000000000000e+00 0.0000000000000000e+00  0.0000000000000000e+00 0.0000000000000000e+00 0.0000000000000000e+00  0.0000000000000000e+00 0.0000000000000000e+00 0.0000000000000000e+00  0.0000000000000000e+00 0.0000000000000000e+00 0.0000000000000000e+00  0.0000000000000000e+00 0.0000000000000000e+00 0.0000000000000000e+00  0.0000000000000000e+00 0.0000000000000000e+00 0.0000000000000000e+00  0.0000000000000000e+00 0.0000000000000000e+00 0.0000000000000000e+00  0.0000000000000000e+00 0.0000000000000000e+00 0.0000000000000000e+00  0.0000000000000000e+00 0.0000000000000000e+00 0.0000000000000000e+00  0.0000000000000000e+00 0.0000000000000000e+00 0.0000000000000000e+00  0.0000000000000000e+00 0.0000000000000000e+00 0.0000000000000000e+00  0.0000000000000000e+00 0.0000000000000000e+00 0.0000000000000000e+00  0.0000000000000000e+00 0.0000000000000000e+00 0.0000000000000000e+00  0.0000000000000000e+00 0.0000000000000000e+00 0.0000000000000000e+00  0.0000000000000000e+00 0.0000000000000000e+00 0.0000000000000000e+00  0.0000000000000000e+00 0.0000000000000000e+00 0.0000000000000000e+00  0.0000000000000000e+00 0.0000000000000000e+00 0.0000000000000000e+00  0.0000000000000000e+00 0.0000000000000000e+00 0.0000000000000000e+00  0.0000000000000000e+00 0.0000000000000000e+00 0.0000000000000000e+00  0.0000000000000000e+00 0.0000000000000000e+00 0.0000000000000000e+00  0.0000000000000000e+00 0.0000000000000000e+00 0.0000000000000000e+00  0.0000000000000000e+00 0.0000000000000000e+00 0.0000000000000000e+00  0.0000000000000000e+00 0.0000000000000000e+00 0.0000000000000000e+00  0.0000000000000000e+00 0.0000000000000000e+00 0.0000000000000000e+00  0.0000000000000000e+00 0.0000000000000000e+00 0.0000000000000000e+00  0.0000000000000000e+00 0.0000000000000000e+00 0.0000000000000000e+00  0.0000000000000000e+00 0.0000000000000000e+00 0.0000000000000000e+00  0.0000000000000000e+00 0.0000000000000000e+00 0.0000000000000000e+00  0.0000000000000000e+00 0.0000000000000000e+00 0.0000000000000000e+00  0.0000000000000000e+00 0.0000000000000000e+00 0.0000000000000000e+00  0.0000000000000000e+00 0.0000000000000000e+00 0.0000000000000000e+00  0.0000000000000000e+00 0.0000000000000000e+00 0.0000000000000000e+00  0.0000000000000000e+00 0.0000000000000000e+00 0.0000000000000000e+00  0.0000000000000000e+00 0.0000000000000000e+00 0.0000000000000000e+00  0.0000000000000000e+00 0.0000000000000000e+00 0.0000000000000000e+00  0.0000000000000000e+00 0.0000000000000000e+00 0.0000000000000000e+00  0.0000000000000000e+00 0.0000000000000000e+00 0.0000000000000000e+00  0.0000000000000000e+00 0.0000000000000000e+00 0.0000000000000000e+00  0.0000000000000000e+00 0.0000000000000000e+00 0.0000000000000000e+00  0.0000000000000000e+00 0.0000000000000000e+00 0.0000000000000000e+00  0.0000000000000000e+00 0.0000000000000000e+00 0.0000000000000000e+00  0.0000000000000000e+00 0.0000000000000000e+00 0.0000000000000000e+00  0.0000000000000000e+00 0.0000000000000000e+00 0.0000000000000000e+00  0.0000000000000000e+00 0.0000000000000000e+00 0.0000000000000000e+00  0.0000000000000000e+00 0.0000000000000000e+00 0.0000000000000000e+00  0.0000000000000000e+00 0.0000000000000000e+00 0.0000000000000000e+00  0.0000000000000000e+00 0.0000000000000000e+00 0.0000000000000000e+00  0.0000000000000000e+00 0.0000000000000000e+00 0.0000000000000000e+00  0.0000000000000000e+00 0.0000000000000000e+00 0.0000000000000000e+00  0.0000000000000000e+00 0.0000000000000000e+00 0.0000000000000000e+00  0.0000000000000000e+00 0.0000000000000000e+00 0.0000000000000000e+00  0.0000000000000000e+00 0.0000000000000000e+00 0.0000000000000000e+00  0.0000000000000000e+00 0.0000000000000000e+00 0.0000000000000000e+00  0.0000000000000000e+00 0.0000000000000000e+00 0.0000000000000000e+00  0.0000000000000000e+00 0.0000000000000000e+00 0.0000000000000000e+00  0.0000000000000000e+00 0.0000000000000000e+00 0.0000000000000000e+00  0.0000000000000000e+00 0.0000000000000000e+00 0.0000000000000000e+00  0.0000000000000000e+00 0.0000000000000000e+00 0.0000000000000000e+00  0.0000000000000000e+00 0.0000000000000000e+00 0.0000000000000000e+00  0.0000000000000000e+00 0.0000000000000000e+00 0.0000000000000000e+00  0.0000000000000000e+00 0.0000000000000000e+00 0.0000000000000000e+00  0.0000000000000000e+00 0.0000000000000000e+00 0.0000000000000000e+00  0.0000000000000000e+00 0.0000000000000000e+00 0.0000000000000000e+00  0.0000000000000000e+00 0.0000000000000000e+00 0.0000000000000000e+00  0.0000000000000000e+00 0.0000000000000000e+00 0.0000000000000000e+00  0.0000000000000000e+00 0.0000000000000000e+00 0.0000000000000000e+00  0.0000000000000000e+00 0.0000000000000000e+00 0.0000000000000000e+00  0.0000000000000000e+00 0.0000000000000000e+00 0.0000000000000000e+00  0.0000000000000000e+00 0.0000000000000000e+00 0.0000000000000000e+00  0.0000000000000000e+00 0.0000000000000000e+00 0.0000000000000000e+00  0.0000000000000000e+00 0.0000000000000000e+00 0.0000000000000000e+00  0.0000000000000000e+00 0.0000000000000000e+00 0.0000000000000000e+00  0.0000000000000000e+00 0.0000000000000000e+00 0.0000000000000000e+00  0.0000000000000000e+00 0.0000000000000000e+00 0.0000000000000000e+00  0.0000000000000000e+00 0.0000000000000000e+00 0.0000000000000000e+00  0.0000000000000000e+00 0.0000000000000000e+00 0.0000000000000000e+00  0.0000000000000000e+00 0.0000000000000000e+00 0.0000000000000000e+00  0.0000000000000000e+00 0.0000000000000000e+00 0.0000000000000000e+00  0.0000000000000000e+00 0.0000000000000000e+00 0.0000000000000000e+00  0.0000000000000000e+00 0.0000000000000000e+00 0.0000000000000000e+00  0.0000000000000000e+00 0.0000000000000000e+00 0.0000000000000000e+00  0.0000000000000000e+00 0.0000000000000000e+00 0.0000000000000000e+00  0.0000000000000000e+00 0.0000000000000000e+00 0.0000000000000000e+00  0.0000000000000000e+00 0.0000000000000000e+00 0.0000000000000000e+00  0.0000000000000000e+00 0.0000000000000000e+00 0.0000000000000000e+00  0.0000000000000000e+00 0.0000000000000000e+00 0.0000000000000000e+00  0.0000000000000000e+00 0.0000000000000000e+00 0.0000000000000000e+00  0.0000000000000000e+00 0.0000000000000000e+00 0.0000000000000000e+00  0.0000000000000000e+00 0.0000000000000000e+00 0.0000000000000000e+00  0.0000000000000000e+00 0.0000000000000000e+00 0.0000000000000000e+00  0.0000000000000000e+00 0.0000000000000000e+00 0.0000000000000000e+00  0.0000000000000000e+00 0.0000000000000000e+00 0.0000000000000000e+00  0.0000000000000000e+00 0.0000000000000000e+00 0.0000000000000000e+00  0.0000000000000000e+00 0.0000000000000000e+00 0.0000000000000000e+00  0.0000000000000000e+00 0.0000000000000000e+00 0.0000000000000000e+00  0.0000000000000000e+00 0.0000000000000000e+00 0.0000000000000000e+00  0.0000000000000000e+00 0.0000000000000000e+00 0.0000000000000000e+00  0.0000000000000000e+00 0.0000000000000000e+00 0.0000000000000000e+00  0.0000000000000000e+00 0.0000000000000000e+00 0.0000000000000000e+00  0.0000000000000000e+00 0.0000000000000000e+00 0.0000000000000000e+00  0.0000000000000000e+00 0.0000000000000000e+00 0.0000000000000000e+00  0.0000000000000000e+00 0.0000000000000000e+00 0.0000000000000000e+00  0.0000000000000000e+00 0.0000000000000000e+00 0.0000000000000000e+00  0.0000000000000000e+00 0.0000000000000000e+00 0.0000000000000000e+00  0.0000000000000000e+00 0.0000000000000000e+00 0.0000000000000000e+00  0.0000000000000000e+00 0.0000000000000000e+00 0.0000000000000000e+00  0.0000000000000000e+00 0.0000000000000000e+00 0.0000000000000000e+00  0.0000000000000000e+00 0.0000000000000000e+00 0.0000000000000000e+00  0.0000000000000000e+00 0.0000000000000000e+00 0.0000000000000000e+00  0.0000000000000000e+00 0.0000000000000000e+00 0.0000000000000000e+00  0.0000000000000000e+00 0.0000000000000000e+00 0.0000000000000000e+00  0.0000000000000000e+00 0.0000000000000000e+00 0.0000000000000000e+00  0.0000000000000000e+00 0.0000000000000000e+00 0.0000000000000000e+00  0.0000000000000000e+00 0.0000000000000000e+00 0.0000000000000000e+00  0.0000000000000000e+00 0.0000000000000000e+00 0.0000000000000000e+00  0.0000000000000000e+00 0.0000000000000000e+00 0.0000000000000000e+00  0.0000000000000000e+00 0.0000000000000000e+00 0.0000000000000000e+00  0.0000000000000000e+00 0.0000000000000000e+00 0.0000000000000000e+00  -5.8583696364594866e-06 5.8110228428038880e-06 0.0000000000000000e+00  -1.2400314189639515e-05 1.2486335328914478e-05 0.0000000000000000e+00  -1.8162763742759014e-05 2.3126341028337841e-05 0.0000000000000000e+00  -2.4275107794280603e-05 3.7980249912799994e-05 0.0000000000000000e+00  -2.9345576106235340e-05 5.6254255521321204e-05 0.0000000000000000e+00  -3.4909723502639968e-05 7.8264942568322582e-05 0.0000000000000000e+00  -3.9358257916442698e-05 1.0295935626865149e-04 0.0000000000000000e+00  -4.3564648126637230e-05 1.3111876250664899e-04 0.0000000000000000e+00  -4.8231162070783653e-05 1.6184106295493355e-04 0.0000000000000000e+00  -5.1745080776212718e-05 1.9514515868900926e-04 0.0000000000000000e+00  -5.5835773891871847e-05 2.3095613547653414e-04 0.0000000000000000e+00  -5.8868135774265420e-05 2.6894409053638429e-04 0.0000000000000000e+00  -6.2260972591757799e-05 3.0900531046553083e-04 0.0000000000000000e+00  -6.4908931847223593e-05 3.5067125898033153e-04 0.0000000000000000e+00  -6.7358541132365941e-05 3.9424212293766227e-04 0.0000000000000000e+00  -6.9986287605382208e-05 4.3918930252130167e-04 0.0000000000000000e+00  -7.1931143651989243e-05 4.8546172400893139e-04 0.0000000000000000e+00  -7.4088600324440332e-05 5.3300172670490520e-04 0.0000000000000000e+00  -7.5661478824645481e-05 5.8154761911213056e-04 0.0000000000000000e+00  -7.7365172956988347e-05 6.3104108233893389e-04 0.0000000000000000e+00  -7.8671839869901225e-05 6.8133129509320690e-04 0.0000000000000000e+00  -7.9985103597506889e-05 7.3237595688864889e-04 0.0000000000000000e+00  -8.1012931520961485e-05 7.8392188646780913e-04 0.0000000000000000e+00  -8.1921427738505223e-05 8.3607641085228519e-04 0.0000000000000000e+00  -8.2835579179097886e-05 8.8862057939180158e-04 0.0000000000000000e+00  -8.3548979114678271e-05 9.4156733469507898e-04 0.0000000000000000e+00  -8.4199589293356325e-05 9.9486572853284575e-04 0.0000000000000000e+00  -8.4735044760819990e-05 1.0483917814468294e-03 0.0000000000000000e+00  -8.5210869594457985e-05 1.1021749347194306e-03 0.0000000000000000e+00  -8.5598895307243290e-05 1.1561044819248356e-03 0.0000000000000000e+00  -8.5934666402949676e-05 1.2102007014076937e-03 0.0000000000000000e+00  -8.6202801688969833e-05 1.2643738014842584e-03 0.0000000000000000e+00  -8.6428417141954801e-05 1.3186427697784860e-03 0.0000000000000000e+00  -8.6602721022528800e-05 1.3729379410697237e-03 0.0000000000000000e+00  -8.6741506149320524e-05 1.4272808795285209e-03 0.0000000000000000e+00  -8.6849554641372457e-05 1.4816235343968803e-03 0.0000000000000000e+00  -8.6934163280996774e-05 1.5359800583275142e-03 0.0000000000000000e+00  -8.7001275657411613e-05 1.5903254285930689e-03 0.0000000000000000e+00  -8.7053555426033638e-05 1.6446691160174737e-03 0.0000000000000000e+00  -8.7099035725986081e-05 1.6990024763601265e-03 0.0000000000000000e+00  -8.7138760333784369e-05 1.7533290428251283e-03 0.0000000000000000e+00  -8.7178822569114220e-05 1.8076516717839585e-03 0.0000000000000000e+00  -8.7215002787301244e-05 1.8619768978820630e-03 0.0000000000000000e+00  -8.7253704483453642e-05 1.9163060658908603e-03 0.0000000000000000e+00  -8.7293825253905976e-05 1.9706484963615423e-03 0.0000000000000000e+00  -8.7328346476151400e-05 2.0250000073325221e-03 0.0000000000000000e+00  -5.0993496902102267e-05 2.0793761587317681e-03 0.0000000000000000e+00  2.1805132753347142e-05 2.0794344176787694e-03 0.0000000000000000e+00  5.8265769507390918e-05 2.0250678054766647e-03 0.0000000000000000e+00  5.8283417121961955e-05 1.9706987450745115e-03 0.0000000000000000e+00  5.8308743921730598e-05 1.9163447820969581e-03 0.0000000000000000e+00  5.8336187243960366e-05 1.8619960209293582e-03 0.0000000000000000e+00  5.8369246499699785e-05 1.8076491132296177e-03 0.0000000000000000e+00  5.8413950583966133e-05 1.7533000274089537e-03 0.0000000000000000e+00  5.8465357448272170e-05 1.6989446065861073e-03 0.0000000000000000e+00  5.8525051109583958e-05 1.6445819520718194e-03 0.0000000000000000e+00  5.8590621332823746e-05 1.5902074642879936e-03 0.0000000000000000e+00  5.8661274707432047e-05 1.5358221355897040e-03 0.0000000000000000e+00  5.8731087507545566e-05 1.4814302626905238e-03 0.0000000000000000e+00  5.8805714193037897e-05 1.4270389059922043e-03 0.0000000000000000e+00  5.8865739917810940e-05 1.3726579431572047e-03 0.0000000000000000e+00  5.8929765109414705e-05 1.3183058412880326e-03 0.0000000000000000e+00  5.8955675151497596e-05 1.2639961870013667e-03 0.0000000000000000e+00  5.8990458527258598e-05 1.2097620591259169e-03 0.0000000000000000e+00  5.8957285416658405e-05 1.1556220090515241e-03 0.0000000000000000e+00  5.8944148632413042e-05 1.1016229358013681e-03 0.0000000000000000e+00  5.8826801292525573e-05 1.0477903739520261e-03 0.0000000000000000e+00  5.8746722050219592e-05 9.9418396667062185e-04 0.0000000000000000e+00  5.8512893540730906e-05 9.4083406814279131e-04 0.0000000000000000e+00  5.8338403614635125e-05 8.8781595050219314e-04 0.0000000000000000e+00  5.7962400433446498e-05 8.3517699948710764e-04 0.0000000000000000e+00  5.7632524359940769e-05 7.8294766675545877e-04 0.0000000000000000e+00  5.7236332917381277e-05 7.3132860746871731e-04 0.0000000000000000e+00  5.6601673795719586e-05 6.8018389635911931e-04 0.0000000000000000e+00  5.5966546553299966e-05 6.2983037717402319e-04 0.0000000000000000e+00  5.5104356195013852e-05 5.8021987171327815e-04 0.0000000000000000e+00  5.4201725164353890e-05 5.3159698857043489e-04 0.0000000000000000e+00  5.3035892458488753e-05 4.8397003138929374e-04 0.0000000000000000e+00  5.1823243446520364e-05 4.3754224926073441e-04 0.0000000000000000e+00  5.0136977514487089e-05 3.9259378926013153e-04 0.0000000000000000e+00  4.8636314053333896e-05 3.4890281225075537e-04 0.0000000000000000e+00  4.6974816150763875e-05 3.0717063051290198e-04 0.0000000000000000e+00  4.4697991818277466e-05 2.6687700209143103e-04 0.0000000000000000e+00  4.2483786477239521e-05 2.2886010325512887e-04 0.0000000000000000e+00  3.9815847513814178e-05 1.9293586856880345e-04 0.0000000000000000e+00  3.7162646124584609e-05 1.5941774635486454e-04 0.0000000000000000e+00  3.3730097816117948e-05 1.2875139779582514e-04 0.0000000000000000e+00  3.0730262759866673e-05 1.0044526319254230e-04 0.0000000000000000e+00  2.7543943342526033e-05 7.5661112122352817e-05 0.0000000000000000e+00  2.3345887165591340e-05 5.3456007994626917e-05 0.0000000000000000e+00  1.9461870447427952e-05 3.5013132017776558e-05 0.0000000000000000e+00  1.4645498667142953e-05 2.0272664521605174e-05 0.0000000000000000e+00  1.0276515060505930e-05 9.5583509904989186e-06 0.0000000000000000e+00  4.8786356986490406e-06 3.0006705803512890e-06 0.0000000000000000e+00  -5.9968013453938242e-07 4.7579407489150791e-06 0.0000000000000000e+00  -1.5476323300070230e-05 1.9977247475182268e-03 0.0000000000000000e+00  -1.5967591503000570e-05 1.8938549471552611e-03 0.0000000000000000e+00  -1.5172126869336607e-05 1.7242051577942958e-03 0.0000000000000000e+00  -2.0055480952962085e-06 2.6115682655980037e-05 0.0000000000000000e+00  -1.4249928076002835e-05 1.6174486433813973e-03 0.0000000000000000e+00  -2.9304635507226079e-06 6.1397561192504056e-05 0.0000000000000000e+00  -1.4110502335340339e-05 1.5087089828892974e-03 0.0000000000000000e+00  -4.6499649004120253e-06 1.4440404486685271e-04 0.0000000000000000e+00  -6.3080439997935246e-06 2.1019211197616288e-04 0.0000000000000000e+00  -1.3927691077479385e-05 1.3999564193957900e-03 0.0000000000000000e+00  -8.0342312339174131e-06 4.1664358211350954e-04 0.0000000000000000e+00  -1.3400083054131452e-05 1.1828219645089288e-03 0.0000000000000000e+00  -6.6408465026839989e-06 2.8317162180663036e-04 0.0000000000000000e+00  -9.6919735809093517e-06 5.0762340411934120e-04 0.0000000000000000e+00  -1.3044496437872800e-05 1.0748347213613868e-03 0.0000000000000000e+00  -1.3692812975729446e-05 1.2912747762947767e-03 0.0000000000000000e+00  -1.0488590147303096e-05 6.0496272159377151e-04 0.0000000000000000e+00  -1.2616496329052423e-05 9.6762684370354406e-04 0.0000000000000000e+00  -1.0286636519774822e-05 7.0161877790974702e-04 0.0000000000000000e+00  -1.3022149593018284e-05 8.6376446016383818e-04 0.0000000000000000e+00  -1.1630122838731754e-05 7.7891393073735080e-04 0.0000000000000000e+00  -8.1732391377624075e-06 3.4524643041076536e-04 0.0000000000000000e+00  -1.4291364065210077e-05 1.8124065318211079e-03 0.0000000000000000e+00  -4.1951963040449362e-06 9.8079785718989309e-05 0.0000000000000000e+00  9.8383222606062852e-06 1.9454192863164711e-03 0.0000000000000000e+00  3.6963526173155980e-06 1.3139640368462691e-05 0.0000000000000000e+00  6.9883655726555162e-06 1.5630638307483069e-03 0.0000000000000000e+00  6.8641109894575596e-06 1.6717923514615500e-03 0.0000000000000000e+00  -1.1121751164707225e-05 4.3577083867987777e-05 0.0000000000000000e+00  -1.8637439595060458e-05 1.7596642619678419e-04 0.0000000000000000e+00  7.5356645598339433e-06 1.2369573329620573e-03 0.0000000000000000e+00  7.1430578335603022e-06 1.4543012342069968e-03 0.0000000000000000e+00  -2.7210511328648001e-05 4.6089516267816289e-04 0.0000000000000000e+00  7.7578413478959989e-06 1.1286926668388339e-03 0.0000000000000000e+00  -2.1460412220313749e-05 2.4775111471029020e-04 0.0000000000000000e+00  -2.8913175461460837e-05 5.5609697675792710e-04 0.0000000000000000e+00  7.9869262165737962e-06 1.0210414183767123e-03 0.0000000000000000e+00  7.3277686327478167e-06 1.3455590952767995e-03 0.0000000000000000e+00  -3.4640706368856724e-05 6.5471800260594279e-04 0.0000000000000000e+00  8.2187607863662425e-06 9.1435164180092663e-04 0.0000000000000000e+00  -1.0396272048548438e-06 1.3947613566078552e-06 0.0000000000000000e+00  7.4105141183163327e-07 6.5317947086016589e-07 0.0000000000000000e+00  -3.2270526882474676e-05 2.0404754220132567e-03 0.0000000000000000e+00  -6.8674315319254282e-06 1.4317803578967994e-05 0.0000000000000000e+00  1.3178576065402882e-05 8.2074580187947027e-04 0.0000000000000000e