<?xml version="1.0"?>
<VTKFile type="UnstructuredGrid"  version="0.1"  >
<UnstructuredGrid>
<Piece  NumberOfPoints="1419" NumberOfCells="2698">
<Points>
<DataArray  type="Float64"  NumberOfComponents="3"  format="ascii">0 0 0  0 0.41 0  2.5 0 0  2.5 0.41 0  0.6 0.19 0  0.6 0.21 0  0.25 0.2 0  0.15 0.2 0  0.2489897948556636 0.21 0  0.2489897948556636 0.19 0  0.6 0.2 0  0 0.3807142857143437 0  0 0.3514285714286952 0  0 0.3221428571430699 0  0 0.29285714285744 0  0 0.2635714285718054 0  0 0.2342857142861561 0  0 0.2050000000005308 0  0 0.175714285714732 0  0 0.1464285714289574 0  0 0.1171428571431897 0  0 0.08785714285737878 0  0 0.05857142857161107 0  0 0.02928571428580012 0  0.03015443760436003 0 0  0.06140001986583606 0 0  0.09377624077125973 0 0  0.1273239957535082 0 0  0.1620856860351972 0 0  0.1981052433264291 0 0  0.235428184091502 0 0  0.2741016576309132 0 0  0.3141745521465447 0 0  0.3556974926295285 0 0  0.3987229542472677 0 0  0.4433053055141081 0 0  0.4895008759286886 0 0  0.5373680609405097 0 0  0.5869673343216626 0 0  0.6383613676634521 0 0  0.6916151138468254 0 0  0.7467958595648856 0 0  0.8039733463919316 0 0  0.8632198139502143 0 0  0.9246101326867038 0 0  0.9882218810934433 0 0  1.054135445558498 0 0  1.122434100542598 0 0  1.193204177141305 0 0  1.266535089879536 0 0  1.342519516046404 0 0  1.421253448503939 0 0  1.502836389106271 0 0  1.587371439758838 0 0  1.674965418777374 0 0  1.765729001825544 0 0  1.859776908880082 0 0  1.957227977487062 0 0  2.058205329869943 0 0  2.162836591189951 0 0  2.271253957290865 0 0  2.383594446803425 0 0  2.5 0.1024999999997612 0  2.5 0.2049999999994743 0  2.5 0.3074999999997183 0  2.383594446803656 0.41 0  2.271253957291315 0.41 0  2.162836591190598 0.41 0  2.058205329870775 0.41 0  1.957227977488067 0.41 0  1.859776908881246 0.41 0  1.765729001826854 0.41 0  1.674965418778818 0.41 0  1.58737143976041 0.41 0  1.502836389107956 0.41 0  1.421253448505726 0.41 0  1.342519516048286 0.41 0  1.266535089881505 0.41 0  1.193204177143353 0.41 0  1.122434100544716 0.41 0  1.05413544556068 0.41 0  0.9882218810956305 0.41 0  0.9246101326886647 0.41 0  0.8632198139519631 0.41 0  0.8039733463934788 0.41 0  0.7467958595662458 0.41 0  0.6916151138480078 0.41 0  0.6383613676644679 0.41 0  0.5869673343225223 0.41 0  0.5373680609412221 0.41 0  0.4895008759292634 0.41 0  0.4433053055145528 0.41 0  0.3987229542475914 0.41 0  0.3556974926297398 0.41 0  0.3141745521466497 0.41 0  0.2741016576310038 0.41 0  0.2354281840915826 0.41 0  0.1981052433265003 0.41 0  0.1620856860352591 0.41 0  0.1273239957535623 0.41 0  0.09377624077128965 0.41 0  0.06140001986584975 0.41 0  0.03015443760436654 0.41 0  0.2497468076502589 0.2050254481002335 0  0.2497468076502614 0.1949745518997913 0  0.2469965252529372 0.1829317073451959 0  0.2439893735792749 0.1762316384219906 0  0.2400332147834255 0.1700443375285386 0  0.2352133972704371 0.1645032867342007 0  0.2296339016332438 0.1597280261969788 0  0.2234150974217223 0.1558215752574715 0  0.2166911463437691 0.1528682099456123 0  0.2096071079204251 0.1509316448471593 0  0.2023158100364996 0.1500536585536553 0  0.194974551899914 0.1502531923497262 0  0.1877417105387872 0.1515259415822739 0  0.1807733240461124 0.153844448527136 0  0.1742197252835808 0.15715869474974 0  0.1682222986673531 0.1613971801805478 0  0.162910430003803 0.1664684656256651 0  0.1583987151779087 0.1722631454351573 0  0.1547844879126891 0.178656207771761 0  0.1521457199348551 0.1855097315605723 0  0.1505393388476355 0.1926758619366523 0  0.1505393388476328 0.2073241380633295 0  0.1521457199348437 0.2144902684393899 0  0.1547844879126531 0.221343792228163 0  0.1583987151778488 0.2277368545647528 0  0.1629104300036858 0.2335315343742052 0  0.1682222986671726 0.2386028198193036 0  0.1742197252833576 0.2428413052501257 0  0.1807733240458683 0.2461555514727623 0  0.1877417105384929 0.2484740584176516 0  0.1949745518995776 0.2497468076502398 0  0.202315810036185 0.2499463414463592 0  0.2096071079201568 0.2490683551528932 0  0.2166911463435495 0.2471317900544655 0  0.2234150974215506 0.2441784247426195 0  0.2296339016331197 0.2402719738031125 0  0.2352133972703547 0.2354967132658811 0  0.2400332147833751 0.2299556624715287 0  0.2439893735792577 0.2237683615780412 0  0.246996525252926 0.2170682926548348 0  0.25645809709277 0.21 0  0.2639263993298655 0.21 0  0.271394701566961 0.21 0  0.2788630038040554 0.21 0  0.2863313060411479 0.21 0  0.2937996082782405 0.21 0  0.301267910515333 0.21 0  0.3087362127524279 0.21 0  0.3162045149895234 0.21 0  0.3236728172265972 0.21 0  0.3311411194636928 0.21 0  0.3386094217007701 0.21 0  0.3460777239378666 0.21 0  0.3535460261749672 0.21 0  0.3610143284120516 0.21 0  0.3684826306491596 0.21 0  0.3759509328862226 0.21 0  0.383419235123329 0.21 0  0.3908875373604028 0.21 0  0.3983558395975142 0.21 0  0.4058241418345938 0.21 0  0.4132924440716992 0.21 0  0.4207607463087888 0.21 0  0.4282290485459029 0.21 0  0.4356973507830418 0.21 0  0.4431656530201649 0.21 0  0.4506339552573136 0.21 0  0.4581022574944306 0.21 0  0.4655705597315852 0.21 0  0.4730388619686996 0.21 0  0.480507164205851 0.21 0  0.4879754664429498 0.21 0  0.4954437686800938 0.21 0  0.502912070917267 0.21 0  0.5103803731544119 0.21 0  0.5178486753915261 0.21 0  0.5253169776286404 0.21 0  0.5327852798657868 0.21 0  0.5402535821029386 0.21 0  0.54772188434007 0.21 0  0.5551901865771842 0.21 0  0.5626584888143201 0.21 0  0.5701267910514778 0.21 0  0.5775950932886138 0.21 0  0.5850633955257281 0.21 0  0.5925316977628483 0.21 0  0.6 0.2050000000000054 0  0.6 0.1950000000000217 0  0.5925316977628897 0.19 0  0.5850633955257988 0.19 0  0.5775950932887378 0.19 0  0.5701267910515998 0.19 0  0.5626584888145268 0.19 0  0.5551901865773963 0.19 0  0.547721884340339 0.19 0  0.5402535821032429 0.19 0  0.5327852798661811 0.19 0  0.5253169776290537 0.19 0  0.5178486753919799 0.19 0  0.5103803731549078 0.19 0  0.502912070917822 0.19 0  0.4954437686807294 0.19 0  0.4879754664436223 0.19 0  0.4805071642065402 0.19 0  0.4730388619694271 0.19 0  0.4655705597323621 0.19 0  0.4581022574952563 0.19 0  0.4506339552581777 0.19 0  0.4431656530210671 0.19 0  0.4356973507839815 0.19 0  0.4282290485468779 0.19 0  0.4207607463097617 0.19 0  0.4132924440726327 0.19 0  0.4058241418354857 0.19 0  0.3983558395983636 0.19 0  0.3908875373612097 0.19 0  0.3834192351240934 0.19 0  0.3759509328869369 0.19 0  0.3684826306498175 0.19 0  0.361014328412667 0.19 0  0.3535460261755617 0.19 0  0.3460777239384295 0.19 0  0.3386094217012945 0.19 0  0.3311411194641595 0.19 0  0.3236728172270245 0.19 0  0.3162045149898895 0.19 0  0.3087362127527544 0.19 0  0.3012679105156187 0.19 0  0.2937996082784807 0.19 0  0.2863313060413428 0.19 0  0.2788630038042048 0.19 0  0.2713947015670686 0.19 0  0.2639263993299336 0.19 0  0.2564580970927985 0.19 0  0.2607803159922026 0.2000727136295815 0  0.5887803774232762 0.2001272386983733 0  0.5745072403740523 0.2002044435018727 0  0.5511891430099709 0.2001122610077113 0  0.2751288526855082 0.20000000000002 0  0.5365194309847112 0.1999999999999436 0  0.2894621222999649 0.1998691686390484 0  0.5215828265105155 0.1999999999999228 0  0.3127789816668748 0.1998657885438805 0  0.3274069683451451 0.2000000000000796 0  0.5066462220363641 0.199999999999908 0  0.3650630746574081 0.199866017807523 0  0.476773013087985 0.1999999999998713 0  0.3417402379596385 0.1998691686391011 0  0.3796850840047755 0.200000000000134 0  0.4618364086138087 0.1999999999998546 0  0.4917096175621762 0.1999999999998808 0  0.3946216884789568 0.2000000000001512 0  0.446899804139621 0.1999999999998389 0  0.4089549580935208 0.1998691686391595 0  0.4322718174608562 0.200127451265745 0  0.4201487168029707 0.1999966199048527 0  0.3528922713220932 0.2000185703532356 0  0.5633122436674589 0.1999814296467508 0  0.3006558810093873 0.1999966199048318 0  0.5815926498168407 0.1966545283159175 0  0.2677053789419034 0.1964246479135325 0  0.5290511287476175 0.1970915826863981 0  0.5439877332217911 0.197091582686394 0  0.2825131256993216 0.2035478995978015 0  0.3199386661080599 0.202908417313604 0  0.4842413153250809 0.1970915826863873 0  0.5141145242734466 0.1970915826863843 0  0.3722167817676917 0.2029084173136195 0  0.4693047108508938 0.1970915826863783 0  0.3348752705822316 0.202908417313609 0  0.3871533862418661 0.2029084173136212 0  0.4543681063767183 0.1970915826863795 0  0.4991779197992749 0.1970915826863902 0  0.4020059614928624 0.203547899597858 0  0.4394315019025246 0.1970915826863714 0  0.2550657455369551 0.2034088125358657 0  0.2548908499171161 0.1966940311614271 0  0.5946539510196798 0.2024302972968126 0  0.267698176732111 0.2039977513680092 0  0.4261685417851465 0.196409292431739 0  0.3590076176283495 0.196411355804271 0  0.5571672426447437 0.2036011176410121 0  0.3066757059912147 0.1964092924317024 0  0.594380730180568 0.1966558399668133 0  0.4842413153245942 0.2040749161535287 0  0.4693047108503577 0.2040749161535231 0  0.3871533862424271 0.1959250838464788 0  0.372246743208829 0.1959123236376545 0  0.5141145242731028 0.2040749161535395 0  0.4543681063761134 0.2040749161535186 0  0.4019979587101454 0.1959834479682427 0  0.4394608940728603 0.2040870543693135 0  0.5439623148931173 0.2040856076781014 0  0.5290511287473298 0.2040749161535501 0  0.4991779197988497 0.2040749161535382 0  0.3347912413592433 0.1959225448935183 0  0.3199680582793816 0.1959123018030061 0  0.2825051229162361 0.1959834479681729 0  0.3590471196690275 0.2036304442587945 0  0.5571594006495384 0.1963685282145804 0  0.3067669986803285 0.203627750582736 0  0.4262598344738712 0.2036568242185335 0  0.5814408164431408 0.2041285596160068 0  0.5688286748170428 0.1961819304477386 0  0.4145905603063645 0.2038180695522843 0  0.3473758401724931 0.2038180695522752 0  0.2950977245128307 0.2038180695522663 0  0.5688286748170693 0.203818069552238 0  0.2950977245127906 0.1961819304477774 0  0.3473758401723931 0.1961819304478349 0  0.4145905603061963 0.1961819304479011 0  0.2601812407614425 0.2056861609747042
[...]
<PointData  Vectors="f_40-1"> 
<DataArray  type="Float64"  Name="f_40-1"  NumberOfComponents="3" format="ascii">0.0000000000000000e+00 0.0000000000000000e+00 0.0000000000000000e+00  0.0000000000000000e+00 0.0000000000000000e+00 0.0000000000000000e+00  0.0000000000000000e+00 0.0000000000000000e+00 0.0000000000000000e+00  0.0000000000000000e+00 0.0000000000000000e+00 0.0000000000000000e+00  5.8273255166168444e-05 2.0796816567565423e-03 0.0000000000000000e+00  -8.7357461350815485e-05 2.0795556646871632e-03 0.0000000000000000e+00  0.0000000000000000e+00 0.0000000000000000e+00 0.0000000000000000e+00  0.0000000000000000e+00 0.0000000000000000e+00 0.0000000000000000e+00  0.0000000000000000e+00 0.0000000000000000e+00 0.0000000000000000e+00  0.0000000000000000e+00 0.0000000000000000e+00 0.0000000000000000e+00  -1.4613549169757531e-05 2.0796109883858627e-03 0.0000000000000000e+00  0.0000000000000000e+00 0.0000000000000000e+00 0.0000000000000000e+00  0.0000000000000000e+00 0.0000000000000000e+00 0.0000000000000000e+00  0.0000000000000000e+00 0.0000000000000000e+00 0.0000000000000000e+00  0.0000000000000000e+00 0.0000000000000000e+00 0.0000000000000000e+00  0.0000000000000000e+00 0.0000000000000000e+00 0.0000000000000000e+00  0.0000000000000000e+00 0.0000000000000000e+00 0.0000000000000000e+00  0.0000000000000000e+00 0.0000000000000000e+00 0.0000000000000000e+00  0.0000000000000000e+00 0.0000000000000000e+00 0.0000000000000000e+00  0.0000000000000000e+00 0.0000000000000000e+00 0.0000000000000000e+00  0.0000000000000000e+00 0.0000000000000000e+00 0.0000000000000000e+00  0.0000000000000000e+00 0.0000000000000000e+00 0.0000000000000000e+00  0.0000000000000000e+00 0.0000000000000000e+00 0.0000000000000000e+00  0.0000000000000000e+00 0.0000000000000000e+00 0.0000000000000000e+00  0.0000000000000000e+00 0.0000000000000000e+00 0.0000000000000000e+00  0.0000000000000000e+00 0.0000000000000000e+00 0.0000000000000000e+00  0.0000000000000000e+00 0.0000000000000000e+00 0.0000000000000000e+00  0.0000000000000000e+00 0.0000000000000000e+00 0.0000000000000000e+00  0.0000000000000000e+00 0.0000000000000000e+00 0.0000000000000000e+00  0.0000000000000000e+00 0.0000000000000000e+00 0.0000000000000000e+00  0.0000000000000000e+00 0.0000000000000000e+00 0.0000000000000000e+00  0.0000000000000000e+00 0.0000000000000000e+00 0.0000000000000000e+00  0.0000000000000000e+00 0.0000000000000000e+00 0.0000000000000000e+00  0.0000000000000000e+00 0.0000000000000000e+00 0.0000000000000000e+00  0.0000000000000000e+00 0.0000000000000000e+00 0.0000000000000000e+00  0.0000000000000000e+00 0.0000000000000000e+00 0.0000000000000000e+00  0.0000000000000000e+00 0.0000000000000000e+00 0.0000000000000000e+00  0.0000000000000000e+00 0.0000000000000000e+00 0.0000000000000000e+00  0.0000000000000000e+00 0.0000000000000000e+00 0.0000000000000000e+00  0.0000000000000000e+00 0.0000000000000000e+00 0.0000000000000000e+00  0.0000000000000000e+00 0.0000000000000000e+00 0.0000000000000000e+00  0.0000000000000000e+00 0.0000000000000000e+00 0.0000000000000000e+00  0.0000000000000000e+00 0.0000000000000000e+00 0.0000000000000000e+00  0.0000000000000000e+00 0.0000000000000000e+00 0.0000000000000000e+00  0.0000000000000000e+00 0.0000000000000000e+00 0.0000000000000000e+00  0.0000000000000000e+00 0.0000000000000000e+00 0.0000000000000000e+00  0.0000000000000000e+00 0.0000000000000000e+00 0.0000000000000000e+00  0.0000000000000000e+00 0.0000000000000000e+00 0.0000000000000000e+00  0.0000000000000000e+00 0.0000000000000000e+00 0.0000000000000000e+00  0.0000000000000000e+00 0.0000000000000000e+00 0.0000000000000000e+00  0.0000000000000000e+00 0.0000000000000000e+00 0.0000000000000000e+00  0.0000000000000000e+00 0.0000000000000000e+00 0.0000000000000000e+00  0.0000000000000000e+00 0.0000000000000000e+00 0.0000000000000000e+00  0.0000000000000000e+00 0.0000000000000000e+00 0.0000000000000000e+00  0.0000000000000000e+00 0.0000000000000000e+00 0.0000000000000000e+00  0.0000000000000000e+00 0.0000000000000000e+00 0.0000000000000000e+00  0.0000000000000000e+00 0.0000000000000000e+00 0.0000000000000000e+00  0.0000000000000000e+00 0.0000000000000000e+00 0.0000000000000000e+00  0.0000000000000000e+00 0.0000000000000000e+00 0.0000000000000000e+00  0.0000000000000000e+00 0.0000000000000000e+00 0.0000000000000000e+00  0.0000000000000000e+00 0.0000000000000000e+00 0.0000000000000000e+00  0.0000000000000000e+00 0.0000000000000000e+00 0.0000000000000000e+00  0.0000000000000000e+00 0.0000000000000000e+00 0.0000000000000000e+00  0.0000000000000000e+00 0.0000000000000000e+00 0.0000000000000000e+00  0.0000000000000000e+00 0.0000000000000000e+00 0.0000000000000000e+00  0.0000000000000000e+00 0.0000000000000000e+00 0.0000000000000000e+00  0.0000000000000000e+00 0.0000000000000000e+00 0.0000000000000000e+00  0.0000000000000000e+00 0.0000000000000000e+00 0.0000000000000000e+00  0.0000000000000000e+00 0.0000000000000000e+00 0.0000000000000000e+00  0.0000000000000000e+00 0.0000000000000000e+00 0.0000000000000000e+00  0.0000000000000000e+00 0.0000000000000000e+00 0.0000000000000000e+00  0.0000000000000000e+00 0.0000000000000000e+00 0.0000000000000000e+00  0.0000000000000000e+00 0.0000000000000000e+00 0.0000000000000000e+00  0.0000000000000000e+00 0.0000000000000000e+00 0.0000000000000000e+00  0.0000000000000000e+00 0.0000000000000000e+00 0.0000000000000000e+00  0.0000000000000000e+00 0.0000000000000000e+00 0.0000000000000000e+00  0.0000000000000000e+00 0.0000000000000000e+00 0.0000000000000000e+00  0.0000000000000000e+00 0.0000000000000000e+00 0.0000000000000000e+00  0.0000000000000000e+00 0.0000000000000000e+00 0.0000000000000000e+00  0.0000000000000000e+00 0.0000000000000000e+00 0.0000000000000000e+00  0.0000000000000000e+00 0.0000000000000000e+00 0.0000000000000000e+00  0.0000000000000000e+00 0.0000000000000000e+00 0.0000000000000000e+00  0.0000000000000000e+00 0.0000000000000000e+00 0.0000000000000000e+00  0.0000000000000000e+00 0.0000000000000000e+00 0.0000000000000000e+00  0.0000000000000000e+00 0.0000000000000000e+00 0.0000000000000000e+00  0.0000000000000000e+00 0.0000000000000000e+00 0.0000000000000000e+00  0.0000000000000000e+00 0.0000000000000000e+00 0.0000000000000000e+00  0.0000000000000000e+00 0.0000000000000000e+00 0.0000000000000000e+00  0.0000000000000000e+00 0.0000000000000000e+00 0.0000000000000000e+00  0.0000000000000000e+00 0.0000000000000000e+00 0.0000000000000000e+00  0.0000000000000000e+00 0.0000000000000000e+00 0.0000000000000000e+00  0.0000000000000000e+00 0.0000000000000000e+00 0.0000000000000000e+00  0.0000000000000000e+00 0.0000000000000000e+00 0.0000000000000000e+00  0.0000000000000000e+00 0.0000000000000000e+00 0.0000000000000000e+00  0.0000000000000000e+00 0.0000000000000000e+00 0.0000000000000000e+00  0.0000000000000000e+00 0.0000000000000000e+00 0.0000000000000000e+00  0.0000000000000000e+00 0.0000000000000000e+00 0.0000000000000000e+00  0.0000000000000000e+00 0.0000000000000000e+00 0.0000000000000000e+00  0.0000000000000000e+00 0.0000000000000000e+00 0.0000000000000000e+00  0.0000000000000000e+00 0.0000000000000000e+00 0.0000000000000000e+00  0.0000000000000000e+00 0.0000000000000000e+00 0.0000000000000000e+00  0.0000000000000000e+00 0.0000000000000000e+00 0.0000000000000000e+00  0.0000000000000000e+00 0.0000000000000000e+00 0.0000000000000000e+00  0.0000000000000000e+00 0.0000000000000000e+00 0.0000000000000000e+00  0.0000000000000000e+00 0.0000000000000000e+00 0.0000000000000000e+00  0.0000000000000000e+00 0.0000000000000000e+00 0.0000000000000000e+00  0.0000000000000000e+00 0.0000000000000000e+00 0.0000000000000000e+00  0.0000000000000000e+00 0.0000000000000000e+00 0.0000000000000000e+00  0.0000000000000000e+00 0.0000000000000000e+00 0.0000000000000000e+00  0.0000000000000000e+00 0.0000000000000000e+00 0.0000000000000000e+00  0.0000000000000000e+00 0.0000000000000000e+00 0.0000000000000000e+00  0.0000000000000000e+00 0.0000000000000000e+00 0.0000000000000000e+00  0.0000000000000000e+00 0.0000000000000000e+00 0.0000000000000000e+00  0.0000000000000000e+00 0.0000000000000000e+00 0.0000000000000000e+00  0.0000000000000000e+00 0.0000000000000000e+00 0.0000000000000000e+00  0.0000000000000000e+00 0.0000000000000000e+00 0.0000000000000000e+00  0.0000000000000000e+00 0.0000000000000000e+00 0.0000000000000000e+00  0.0000000000000000e+00 0.0000000000000000e+00 0.0000000000000000e+00  0.0000000000000000e+00 0.0000000000000000e+00 0.0000000000000000e+00  0.0000000000000000e+00 0.0000000000000000e+00 0.0000000000000000e+00  0.0000000000000000e+00 0.0000000000000000e+00 0.0000000000000000e+00  0.0000000000000000e+00 0.0000000000000000e+00 0.0000000000000000e+00  0.0000000000000000e+00 0.0000000000000000e+00 0.0000000000000000e+00  0.0000000000000000e+00 0.0000000000000000e+00 0.0000000000000000e+00  0.0000000000000000e+00 0.0000000000000000e+00 0.0000000000000000e+00  0.0000000000000000e+00 0.0000000000000000e+00 0.0000000000000000e+00  0.0000000000000000e+00 0.0000000000000000e+00 0.0000000000000000e+00  0.0000000000000000e+00 0.0000000000000000e+00 0.0000000000000000e+00  0.0000000000000000e+00 0.0000000000000000e+00 0.0000000000000000e+00  0.0000000000000000e+00 0.0000000000000000e+00 0.0000000000000000e+00  0.0000000000000000e+00 0.0000000000000000e+00 0.0000000000000000e+00  0.0000000000000000e+00 0.0000000000000000e+00 0.0000000000000000e+00  0.0000000000000000e+00 0.0000000000000000e+00 0.0000000000000000e+00  0.0000000000000000e+00 0.0000000000000000e+00 0.0000000000000000e+00  0.0000000000000000e+00 0.0000000000000000e+00 0.0000000000000000e+00  0.0000000000000000e+00 0.0000000000000000e+00 0.0000000000000000e+00  0.0000000000000000e+00 0.0000000000000000e+00 0.0000000000000000e+00  0.0000000000000000e+00 0.0000000000000000e+00 0.0000000000000000e+00  0.0000000000000000e+00 0.0000000000000000e+00 0.0000000000000000e+00  0.0000000000000000e+00 0.0000000000000000e+00 0.0000000000000000e+00  0.0000000000000000e+00 0.0000000000000000e+00 0.0000000000000000e+00  0.0000000000000000e+00 0.0000000000000000e+00 0.0000000000000000e+00  0.0000000000000000e+00 0.0000000000000000e+00 0.0000000000000000e+00  -5.8589312355764354e-06 5.8113106891843354e-06 0.0000000000000000e+00  -1.2401498215733843e-05 1.2487194986378491e-05 0.0000000000000000e+00  -1.8164494712870669e-05 2.3128142620810306e-05 0.0000000000000000e+00  -2.4277417911520725e-05 3.7983380695046259e-05 0.0000000000000000e+00  -2.9348374397757298e-05 5.6259030195842555e-05 0.0000000000000000e+00  -3.4913064521650815e-05 7.8271702832472217e-05 0.0000000000000000e+00  -3.9362044138883378e-05 1.0296835308087462e-04 0.0000000000000000e+00  -4.3568865578354069e-05 1.3113032245974304e-04 0.0000000000000000e+00  -4.8235862325414703e-05 1.6185542977358901e-04 0.0000000000000000e+00  -5.1750161798624036e-05 1.9516258405051284e-04 0.0000000000000000e+00  -5.5841301686970283e-05 2.3097686281876436e-04 0.0000000000000000e+00  -5.8874013939203476e-05 2.6896834093382475e-04 0.0000000000000000e+00  -6.2267248441323509e-05 3.0903329404886193e-04 0.0000000000000000e+00  -6.4915536350046310e-05 3.5070314385909446e-04 0.0000000000000000e+00  -6.7365463716886819e-05 3.9427811353888177e-04 0.0000000000000000e+00  -6.9993557006442373e-05 4.3922954935860826e-04 0.0000000000000000e+00  -7.1938693877319061e-05 4.8550638053681785e-04 0.0000000000000000e+00  -7.4096466601539175e-05 5.3305093879069349e-04 0.0000000000000000e+00  -7.5669600670967931e-05 5.8160151457065145e-04 0.0000000000000000e+00  -7.7373576584528284e-05 6.3109977837699620e-04 0.0000000000000000e+00  -7.8680483488920123e-05 6.8139490207927119e-04 0.0000000000000000e+00  -7.9993998670859067e-05 7.3244457781710282e-04 0.0000000000000000e+00  -8.1022044478615653e-05 7.8399559497496513e-04 0.0000000000000000e+00  -8.1930750296180135e-05 8.3615529934277777e-04 0.0000000000000000e+00  -8.2845118874725842e-05 8.8870470772844077e-04 0.0000000000000000e+00  -8.3558712935015184e-05 9.4165677138606789e-04 0.0000000000000000e+00  -8.4209514189143988e-05 9.9496053033337490e-04 0.0000000000000000e+00  -8.4745147536195638e-05 1.0484919934981092e-03 0.0000000000000000e+00  -8.5221146744074224e-05 1.1022806024120367e-03 0.0000000000000000e+00  -8.5609336229413262e-05 1.1562156385912070e-03 0.0000000000000000e+00  -8.5945267689174976e-05 1.2103173809430005e-03 0.0000000000000000e+00  -8.6213554891093966e-05 1.2644960276376562e-03 0.0000000000000000e+00  -8.6439319165420564e-05 1.3187705668038464e-03 0.0000000000000000e+00  -8.6613765348680176e-05 1.3730713251134136e-03 0.0000000000000000e+00  -8.6752690121023654e-05 1.4274198671554693e-03 0.0000000000000000e+00  -8.6860873445864509e-05 1.4817681358814084e-03 0.0000000000000000e+00  -8.6945614750336521e-05 1.5361302842486759e-03 0.0000000000000000e+00  -8.7012856396636616e-05 1.5904812849355438e-03 0.0000000000000000e+00  -8.7065263811520407e-05 1.6448306090207899e-03 0.0000000000000000e+00  -8.7110869564138276e-05 1.6991696090860268e-03 0.0000000000000000e+00  -8.7150718625777297e-05 1.7535018186870749e-03 0.0000000000000000e+00  -8.7190903891057011e-05 1.8078300919089586e-03 0.0000000000000000e+00  -8.7227206396598011e-05 1.8621609637348620e-03 0.0000000000000000e+00  -8.7266030181462609e-05 1.9164957779697618e-03 0.0000000000000000e+00  -8.7306272497636239e-05 1.9708438552304818e-03 0.0000000000000000e+00  -8.7340915095785959e-05 2.0252010133598036e-03 0.0000000000000000e+00  -5.1002405720941168e-05 2.0795828931226908e-03 0.0000000000000000e+00  2.1803785763336658e-05 2.0796413143752824e-03 0.0000000000000000e+00  5.8268324356047777e-05 2.0252691357563208e-03 0.0000000000000000e+00  5.8286092297986959e-05 1.9708944282524157e-03 0.0000000000000000e+00  5.8311539273104509e-05 1.9165348185868542e-03 0.0000000000000000e+00  5.8339102090514473e-05 1.8621804112124070e-03 0.0000000000000000e+00  5.8372280586810157e-05 1.8078278578257843e-03 0.0000000000000000e+00  5.8417103095889674e-05 1.7534731277047656e-03 0.0000000000000000e+00  5.8468626716290785e-05 1.6991120639955654e-03 0.0000000000000000e+00  5.8528436672647890e-05 1.6447437695624935e-03 0.0000000000000000e+00  5.8594119753108663e-05 1.5903636451795838e-03 0.0000000000000000e+00  5.8664885843665192e-05 1.5359726858134514e-03 0.0000000000000000e+00  5.8734805821567057e-05 1.4815751884900866e-03 0.0000000000000000e+00  5.8809539955264039e-05 1.4271782175062525e-03 0.0000000000000000e+00  5.8869664851820931e-05 1.3727916510117000e-03 0.0000000000000000e+00  5.8933790297406204e-05 1.3184339614257549e-03 0.0000000000000000e+00  5.8959788873309683e-05 1.2641187360125986e-03 0.0000000000000000e+00  5.8994663127328335e-05 1.2098790605045158e-03 0.0000000000000000e+00  5.8961564967965267e-05 1.1557334870978143e-03 0.0000000000000000e+00  5.8948507266960918e-05 1.1017289234651491e-03 0.0000000000000000e+00  5.8831218058486754e-05 1.0478909051720899e-03 0.0000000000000000e+00  5.8751203474232560e-05 9.9427908575518901e-04 0.0000000000000000e+00  5.8517412272653173e-05 9.4092382104403590e-04 0.0000000000000000e+00  5.8342969073194064e-05 8.8790039550691211e-04 0.0000000000000000e+00  5.7966980028737058e-05 8.3525619853038792e-04 0.0000000000000000e+00  5.7637125804608468e-05 7.8302168497063854e-04 0.0000000000000000e+00  5.7240945380560742e-05 7.3139753679960548e-04 0.0000000000000000e+00  5.6606264780448204e-05 6.8024780614599635e-04 0.0000000000000000e+00  5.5971117436487208e-05 6.2988937769888433e-04 0.0000000000000000e+00  5.5108879114802047e-05 5.8027406224862616e-04 0.0000000000000000e+00  5.4206197305477541e-05 5.3164649527960117e-04 0.0000000000000000e+00  5.3040284574717747e-05 4.8401497700340098e-04 0.0000000000000000e+00  5.1827552603190966e-05 4.3758277558443413e-04 0.0000000000000000e+00  5.0141153722206256e-05 3.9263006411999375e-04 0.0000000000000000e+00  4.8640380464465869e-05 3.4893497483273305e-04 0.0000000000000000e+00  4.6978756657095470e-05 3.0719889024068982e-04 0.0000000000000000e+00  4.4701744510267643e-05 2.6690150984544554e-04 0.0000000000000000e+00  4.2487359896466763e-05 2.2888109158224318e-04 0.0000000000000000e+00  3.9819197784886206e-05 1.9295354718506928e-04 0.0000000000000000e+00  3.7165775933985813e-05 1.5943235195640203e-04 0.0000000000000000e+00  3.3732933302787052e-05 1.2876320617902600e-04 0.0000000000000000e+00  3.0732846370500835e-05 1.0045449959800173e-04 0.0000000000000000e+00  2.7546257167101172e-05 7.5668108476030900e-05 0.0000000000000000e+00  2.3347838172928570e-05 5.3461004702340495e-05 0.0000000000000000e+00  1.9463488264136282e-05 3.5016478286022161e-05 0.0000000000000000e+00  1.4646702312846603e-05 2.0274698690566513e-05 0.0000000000000000e+00  1.0277352057249517e-05 9.5594292928884802e-06 0.0000000000000000e+00  4.8790262741175009e-06 3.0011537845569591e-06 0.0000000000000000e+00  -5.9983950603758403e-07 4.7583513955269333e-06 0.0000000000000000e+00  -1.5481365777914613e-05 1.9979230767603958e-03 0.0000000000000000e+00  -1.5972461313879680e-05 1.8940424829014567e-03 0.0000000000000000e+00  -1.5176549887625146e-05 1.7243750686420148e-03 0.0000000000000000e+00  -2.0058476782579485e-06 2.6117989571419498e-05 0.0000000000000000e+00  -1.4254029346639400e-05 1.6176074762561542e-03 0.0000000000000000e+00  -2.9308926137708292e-06 6.1403032941327395e-05 0.0000000000000000e+00  -1.4114362455086919e-05 1.5088565517969289e-03 0.0000000000000000e+00  -4.6506515804383407e-06 1.4441704259483948e-04 0.0000000000000000e+00  -6.3089644139293345e-06 2.1021114022660010e-04 0.0000000000000000e+00  -1.3931310329056002e-05 1.4000927561791836e-03 0.0000000000000000e+00  -8.0355828843007305e-06 4.1668189661185677e-04 0.0000000000000000e+00  -1.3403222227000560e-05 1.1829360203746773e-03 0.0000000000000000e+00  -6.6418900136520053e-06 2.8319741000927740e-04 0.0000000000000000e+00  -9.6936115500795131e-06 5.0767037907419510e-04 0.0000000000000000e+00  -1.3047397111258279e-05 1.0749377897137770e-03 0.0000000000000000e+00  -1.3696191816466733e-05 1.2913999330795777e-03 0.0000000000000000e+00  -1.0490448369114604e-05 6.0501907791931883e-04 0.0000000000000000e+00  -1.2619159896093101e-05 9.6771908036697850e-04 0.0000000000000000e+00  -1.0288623377289345e-05 7.0168456497552811e-04 0.0000000000000000e+00  -1.3024672852492818e-05 8.6384628678723245e-04 0.0000000000000000e+00  -1.1632366707864710e-05 7.7898733427789592e-04 0.0000000000000000e+00  -8.1745078998569375e-06 3.4527801745920728e-04 0.0000000000000000e+00  -1.4295884232653216e-05 1.8125856078292381e-03 0.0000000000000000e+00  -4.1957855872407090e-06 9.8088568953035509e-05 0.0000000000000000e+00  9.8360218379177439e-06 1.9456122369872360e-03 0.0000000000000000e+00  3.6965773885731144e-06 1.3140884840889313e-05 0.0000000000000000e+00  6.9865762977501163e-06 1.5632170765576851e-03 0.0000000000000000e+00  6.8620845470496140e-06 1.6719568711857445e-03 0.0000000000000000e+00  -1.1122893873714323e-05 4.3580868278587863e-05 0.0000000000000000e+00  -1.8639450399214485e-05 1.7598224313980347e-04 0.0000000000000000e+00  7.5345626259155521e-06 1.2370769766879136e-03 0.0000000000000000e+00  7.1415025822744501e-06 1.4544432301957103e-03 0.0000000000000000e+00  -2.7213752588475766e-05 4.6093761444079682e-04 0.0000000000000000e+00  7.7569554035556669e-06 1.1288012622069114e-03 0.0000000000000000e+00  -2.1462785205146192e-05 2.4777354805789238e-04 0.0000000000000000e+00  -2.8916737417164291e-05 5.5614854939363856e-04 0.0000000000000000e+00  7.9862466200986285e-06 1.0211390989443131e-03 0.0000000000000000e+00  7.3264430031820503e-06 1.3456898827235502e-03 0.0000000000000000e+00  -3.4644995891430509e-05 6.5477912711534036e-04 0.0000000000000000e+00  8.2182766917460175e-06 9.1443858775443481e-04 0.0000000000000000e+00  -1.0397968436321562e-06 1.3948271620140203e-06 0.0000000000000000e+00  7.4104210166577999e-07 6.5328061270603609e-07 0.0000000000000000e+00  -3.2277405979743031e-05 2.0406781554256357e-03 0.0000000000000000e+00  -6.8681503070495921e-06 1.4318960920003719e-05 0.0000000000000000e+00  1.3178726875523975e-05 8.2082342417704780e-04 0.0000000000000000e