<?xml version="1.0"?>
<VTKFile type="UnstructuredGrid"  version="0.1"  >
<UnstructuredGrid>
<Piece  NumberOfPoints="1419" NumberOfCells="2698">
<Points>
<DataArray  type="Float64"  NumberOfComponents="3"  format="ascii">0 0 0  0 0.41 0  2.5 0 0  2.5 0.41 0  0.6 0.19 0  0.6 0.21 0  0.25 0.2 0  0.15 0.2 0  0.2489897948556636 0.21 0  0.2489897948556636 0.19 0  0.6 0.2 0  0 0.3807142857143437 0  0 0.3514285714286952 0  0 0.3221428571430699 0  0 0.29285714285744 0  0 0.2635714285718054 0  0 0.2342857142861561 0  0 0.2050000000005308 0  0 0.175714285714732 0  0 0.1464285714289574 0  0 0.1171428571431897 0  0 0.08785714285737878 0  0 0.05857142857161107 0  0 0.02928571428580012 0  0.03015443760436003 0 0  0.06140001986583606 0 0  0.09377624077125973 0 0  0.1273239957535082 0 0  0.1620856860351972 0 0  0.1981052433264291 0 0  0.235428184091502 0 0  0.2741016576309132 0 0  0.3141745521465447 0 0  0.3556974926295285 0 0  0.3987229542472677 0 0  0.4433053055141081 0 0  0.4895008759286886 0 0  0.5373680609405097 0 0  0.5869673343216626 0 0  0.6383613676634521 0 0  0.6916151138468254 0 0  0.7467958595648856 0 0  0.8039733463919316 0 0  0.8632198139502143 0 0  0.9246101326867038 0 0  0.9882218810934433 0 0  1.054135445558498 0 0  1.122434100542598 0 0  1.193204177141305 0 0  1.266535089879536 0 0  1.342519516046404 0 0  1.421253448503939 0 0  1.502836389106271 0 0  1.587371439758838 0 0  1.674965418777374 0 0  1.765729001825544 0 0  1.859776908880082 0 0  1.957227977487062 0 0  2.058205329869943 0 0  2.162836591189951 0 0  2.271253957290865 0 0  2.383594446803425 0 0  2.5 0.1024999999997612 0  2.5 0.2049999999994743 0  2.5 0.3074999999997183 0  2.383594446803656 0.41 0  2.271253957291315 0.41 0  2.162836591190598 0.41 0  2.058205329870775 0.41 0  1.957227977488067 0.41 0  1.859776908881246 0.41 0  1.765729001826854 0.41 0  1.674965418778818 0.41 0  1.58737143976041 0.41 0  1.502836389107956 0.41 0  1.421253448505726 0.41 0  1.342519516048286 0.41 0  1.266535089881505 0.41 0  1.193204177143353 0.41 0  1.122434100544716 0.41 0  1.05413544556068 0.41 0  0.9882218810956305 0.41 0  0.9246101326886647 0.41 0  0.8632198139519631 0.41 0  0.8039733463934788 0.41 0  0.7467958595662458 0.41 0  0.6916151138480078 0.41 0  0.6383613676644679 0.41 0  0.5869673343225223 0.41 0  0.5373680609412221 0.41 0  0.4895008759292634 0.41 0  0.4433053055145528 0.41 0  0.3987229542475914 0.41 0  0.3556974926297398 0.41 0  0.3141745521466497 0.41 0  0.2741016576310038 0.41 0  0.2354281840915826 0.41 0  0.1981052433265003 0.41 0  0.1620856860352591 0.41 0  0.1273239957535623 0.41 0  0.09377624077128965 0.41 0  0.06140001986584975 0.41 0  0.03015443760436654 0.41 0  0.2497468076502589 0.2050254481002335 0  0.2497468076502614 0.1949745518997913 0  0.2469965252529372 0.1829317073451959 0  0.2439893735792749 0.1762316384219906 0  0.2400332147834255 0.1700443375285386 0  0.2352133972704371 0.1645032867342007 0  0.2296339016332438 0.1597280261969788 0  0.2234150974217223 0.1558215752574715 0  0.2166911463437691 0.1528682099456123 0  0.2096071079204251 0.1509316448471593 0  0.2023158100364996 0.1500536585536553 0  0.194974551899914 0.1502531923497262 0  0.1877417105387872 0.1515259415822739 0  0.1807733240461124 0.153844448527136 0  0.1742197252835808 0.15715869474974 0  0.1682222986673531 0.1613971801805478 0  0.162910430003803 0.1664684656256651 0  0.1583987151779087 0.1722631454351573 0  0.1547844879126891 0.178656207771761 0  0.1521457199348551 0.1855097315605723 0  0.1505393388476355 0.1926758619366523 0  0.1505393388476328 0.2073241380633295 0  0.1521457199348437 0.2144902684393899 0  0.1547844879126531 0.221343792228163 0  0.1583987151778488 0.2277368545647528 0  0.1629104300036858 0.2335315343742052 0  0.1682222986671726 0.2386028198193036 0  0.1742197252833576 0.2428413052501257 0  0.1807733240458683 0.2461555514727623 0  0.1877417105384929 0.2484740584176516 0  0.1949745518995776 0.2497468076502398 0  0.202315810036185 0.2499463414463592 0  0.2096071079201568 0.2490683551528932 0  0.2166911463435495 0.2471317900544655 0  0.2234150974215506 0.2441784247426195 0  0.2296339016331197 0.2402719738031125 0  0.2352133972703547 0.2354967132658811 0  0.2400332147833751 0.2299556624715287 0  0.2439893735792577 0.2237683615780412 0  0.246996525252926 0.2170682926548348 0  0.25645809709277 0.21 0  0.2639263993298655 0.21 0  0.271394701566961 0.21 0  0.2788630038040554 0.21 0  0.2863313060411479 0.21 0  0.2937996082782405 0.21 0  0.301267910515333 0.21 0  0.3087362127524279 0.21 0  0.3162045149895234 0.21 0  0.3236728172265972 0.21 0  0.3311411194636928 0.21 0  0.3386094217007701 0.21 0  0.3460777239378666 0.21 0  0.3535460261749672 0.21 0  0.3610143284120516 0.21 0  0.3684826306491596 0.21 0  0.3759509328862226 0.21 0  0.383419235123329 0.21 0  0.3908875373604028 0.21 0  0.3983558395975142 0.21 0  0.4058241418345938 0.21 0  0.4132924440716992 0.21 0  0.4207607463087888 0.21 0  0.4282290485459029 0.21 0  0.4356973507830418 0.21 0  0.4431656530201649 0.21 0  0.4506339552573136 0.21 0  0.4581022574944306 0.21 0  0.4655705597315852 0.21 0  0.4730388619686996 0.21 0  0.480507164205851 0.21 0  0.4879754664429498 0.21 0  0.4954437686800938 0.21 0  0.502912070917267 0.21 0  0.5103803731544119 0.21 0  0.5178486753915261 0.21 0  0.5253169776286404 0.21 0  0.5327852798657868 0.21 0  0.5402535821029386 0.21 0  0.54772188434007 0.21 0  0.5551901865771842 0.21 0  0.5626584888143201 0.21 0  0.5701267910514778 0.21 0  0.5775950932886138 0.21 0  0.5850633955257281 0.21 0  0.5925316977628483 0.21 0  0.6 0.2050000000000054 0  0.6 0.1950000000000217 0  0.5925316977628897 0.19 0  0.5850633955257988 0.19 0  0.5775950932887378 0.19 0  0.5701267910515998 0.19 0  0.5626584888145268 0.19 0  0.5551901865773963 0.19 0  0.547721884340339 0.19 0  0.5402535821032429 0.19 0  0.5327852798661811 0.19 0  0.5253169776290537 0.19 0  0.5178486753919799 0.19 0  0.5103803731549078 0.19 0  0.502912070917822 0.19 0  0.4954437686807294 0.19 0  0.4879754664436223 0.19 0  0.4805071642065402 0.19 0  0.4730388619694271 0.19 0  0.4655705597323621 0.19 0  0.4581022574952563 0.19 0  0.4506339552581777 0.19 0  0.4431656530210671 0.19 0  0.4356973507839815 0.19 0  0.4282290485468779 0.19 0  0.4207607463097617 0.19 0  0.4132924440726327 0.19 0  0.4058241418354857 0.19 0  0.3983558395983636 0.19 0  0.3908875373612097 0.19 0  0.3834192351240934 0.19 0  0.3759509328869369 0.19 0  0.3684826306498175 0.19 0  0.361014328412667 0.19 0  0.3535460261755617 0.19 0  0.3460777239384295 0.19 0  0.3386094217012945 0.19 0  0.3311411194641595 0.19 0  0.3236728172270245 0.19 0  0.3162045149898895 0.19 0  0.3087362127527544 0.19 0  0.3012679105156187 0.19 0  0.2937996082784807 0.19 0  0.2863313060413428 0.19 0  0.2788630038042048 0.19 0  0.2713947015670686 0.19 0  0.2639263993299336 0.19 0  0.2564580970927985 0.19 0  0.2607803159922026 0.2000727136295815 0  0.5887803774232762 0.2001272386983733 0  0.5745072403740523 0.2002044435018727 0  0.5511891430099709 0.2001122610077113 0  0.2751288526855082 0.20000000000002 0  0.5365194309847112 0.1999999999999436 0  0.2894621222999649 0.1998691686390484 0  0.5215828265105155 0.1999999999999228 0  0.3127789816668748 0.1998657885438805 0  0.3274069683451451 0.2000000000000796 0  0.5066462220363641 0.199999999999908 0  0.3650630746574081 0.199866017807523 0  0.476773013087985 0.1999999999998713 0  0.3417402379596385 0.1998691686391011 0  0.3796850840047755 0.200000000000134 0  0.4618364086138087 0.1999999999998546 0  0.4917096175621762 0.1999999999998808 0  0.3946216884789568 0.2000000000001512 0  0.446899804139621 0.1999999999998389 0  0.4089549580935208 0.1998691686391595 0  0.4322718174608562 0.200127451265745 0  0.4201487168029707 0.1999966199048527 0  0.3528922713220932 0.2000185703532356 0  0.5633122436674589 0.1999814296467508 0  0.3006558810093873 0.1999966199048318 0  0.5815926498168407 0.1966545283159175 0  0.2677053789419034 0.1964246479135325 0  0.5290511287476175 0.1970915826863981 0  0.5439877332217911 0.197091582686394 0  0.2825131256993216 0.2035478995978015 0  0.3199386661080599 0.202908417313604 0  0.4842413153250809 0.1970915826863873 0  0.5141145242734466 0.1970915826863843 0  0.3722167817676917 0.2029084173136195 0  0.4693047108508938 0.1970915826863783 0  0.3348752705822316 0.202908417313609 0  0.3871533862418661 0.2029084173136212 0  0.4543681063767183 0.1970915826863795 0  0.4991779197992749 0.1970915826863902 0  0.4020059614928624 0.203547899597858 0  0.4394315019025246 0.1970915826863714 0  0.2550657455369551 0.2034088125358657 0  0.2548908499171161 0.1966940311614271 0  0.5946539510196798 0.2024302972968126 0  0.267698176732111 0.2039977513680092 0  0.4261685417851465 0.196409292431739 0  0.3590076176283495 0.196411355804271 0  0.5571672426447437 0.2036011176410121 0  0.3066757059912147 0.1964092924317024 0  0.594380730180568 0.1966558399668133 0  0.4842413153245942 0.2040749161535287 0  0.4693047108503577 0.2040749161535231 0  0.3871533862424271 0.1959250838464788 0  0.372246743208829 0.1959123236376545 0  0.5141145242731028 0.2040749161535395 0  0.4543681063761134 0.2040749161535186 0  0.4019979587101454 0.1959834479682427 0  0.4394608940728603 0.2040870543693135 0  0.5439623148931173 0.2040856076781014 0  0.5290511287473298 0.2040749161535501 0  0.4991779197988497 0.2040749161535382 0  0.3347912413592433 0.1959225448935183 0  0.3199680582793816 0.1959123018030061 0  0.2825051229162361 0.1959834479681729 0  0.3590471196690275 0.2036304442587945 0  0.5571594006495384 0.1963685282145804 0  0.3067669986803285 0.203627750582736 0  0.4262598344738712 0.2036568242185335 0  0.5814408164431408 0.2041285596160068 0  0.5688286748170428 0.1961819304477386 0  0.4145905603063645 0.2038180695522843 0  0.3473758401724931 0.2038180695522752 0  0.2950977245128307 0.2038180695522663 0  0.5688286748170693 0.203818069552238 0  0.2950977245127906 0.1961819304477774 0  0.3473758401723931 0.1961819304478349 0  0.4145905603061963 0.1961819304479011 0  0.2601812407614425 0.2056861609747042
[...]
<PointData  Vectors="f_40-1"> 
<DataArray  type="Float64"  Name="f_40-1"  NumberOfComponents="3" format="ascii">0.0000000000000000e+00 0.0000000000000000e+00 0.0000000000000000e+00  0.0000000000000000e+00 0.0000000000000000e+00 0.0000000000000000e+00  0.0000000000000000e+00 0.0000000000000000e+00 0.0000000000000000e+00  0.0000000000000000e+00 0.0000000000000000e+00 0.0000000000000000e+00  5.8273206898410638e-05 2.0796813445985848e-03 0.0000000000000000e+00  -8.7357486282532820e-05 2.0795553504874436e-03 0.0000000000000000e+00  0.0000000000000000e+00 0.0000000000000000e+00 0.0000000000000000e+00  0.0000000000000000e+00 0.0000000000000000e+00 0.0000000000000000e+00  0.0000000000000000e+00 0.0000000000000000e+00 0.0000000000000000e+00  0.0000000000000000e+00 0.0000000000000000e+00 0.0000000000000000e+00  -1.4613585773139345e-05 2.0796106752068687e-03 0.0000000000000000e+00  0.0000000000000000e+00 0.0000000000000000e+00 0.0000000000000000e+00  0.0000000000000000e+00 0.0000000000000000e+00 0.0000000000000000e+00  0.0000000000000000e+00 0.0000000000000000e+00 0.0000000000000000e+00  0.0000000000000000e+00 0.0000000000000000e+00 0.0000000000000000e+00  0.0000000000000000e+00 0.0000000000000000e+00 0.0000000000000000e+00  0.0000000000000000e+00 0.0000000000000000e+00 0.0000000000000000e+00  0.0000000000000000e+00 0.0000000000000000e+00 0.0000000000000000e+00  0.0000000000000000e+00 0.0000000000000000e+00 0.0000000000000000e+00  0.0000000000000000e+00 0.0000000000000000e+00 0.0000000000000000e+00  0.0000000000000000e+00 0.0000000000000000e+00 0.0000000000000000e+00  0.0000000000000000e+00 0.0000000000000000e+00 0.0000000000000000e+00  0.0000000000000000e+00 0.0000000000000000e+00 0.0000000000000000e+00  0.0000000000000000e+00 0.0000000000000000e+00 0.0000000000000000e+00  0.0000000000000000e+00 0.0000000000000000e+00 0.0000000000000000e+00  0.0000000000000000e+00 0.0000000000000000e+00 0.0000000000000000e+00  0.0000000000000000e+00 0.0000000000000000e+00 0.0000000000000000e+00  0.0000000000000000e+00 0.0000000000000000e+00 0.0000000000000000e+00  0.0000000000000000e+00 0.0000000000000000e+00 0.0000000000000000e+00  0.0000000000000000e+00 0.0000000000000000e+00 0.0000000000000000e+00  0.0000000000000000e+00 0.0000000000000000e+00 0.0000000000000000e+00  0.0000000000000000e+00 0.0000000000000000e+00 0.0000000000000000e+00  0.0000000000000000e+00 0.0000000000000000e+00 0.0000000000000000e+00  0.0000000000000000e+00 0.0000000000000000e+00 0.0000000000000000e+00  0.0000000000000000e+00 0.0000000000000000e+00 0.0000000000000000e+00  0.0000000000000000e+00 0.0000000000000000e+00 0.0000000000000000e+00  0.0000000000000000e+00 0.0000000000000000e+00 0.0000000000000000e+00  0.0000000000000000e+00 0.0000000000000000e+00 0.0000000000000000e+00  0.0000000000000000e+00 0.0000000000000000e+00 0.0000000000000000e+00  0.0000000000000000e+00 0.0000000000000000e+00 0.0000000000000000e+00  0.0000000000000000e+00 0.0000000000000000e+00 0.0000000000000000e+00  0.0000000000000000e+00 0.0000000000000000e+00 0.0000000000000000e+00  0.0000000000000000e+00 0.0000000000000000e+00 0.0000000000000000e+00  0.0000000000000000e+00 0.0000000000000000e+00 0.0000000000000000e+00  0.0000000000000000e+00 0.0000000000000000e+00 0.0000000000000000e+00  0.0000000000000000e+00 0.0000000000000000e+00 0.0000000000000000e+00  0.0000000000000000e+00 0.0000000000000000e+00 0.0000000000000000e+00  0.0000000000000000e+00 0.0000000000000000e+00 0.0000000000000000e+00  0.0000000000000000e+00 0.0000000000000000e+00 0.0000000000000000e+00  0.0000000000000000e+00 0.0000000000000000e+00 0.0000000000000000e+00  0.0000000000000000e+00 0.0000000000000000e+00 0.0000000000000000e+00  0.0000000000000000e+00 0.0000000000000000e+00 0.0000000000000000e+00  0.0000000000000000e+00 0.0000000000000000e+00 0.0000000000000000e+00  0.0000000000000000e+00 0.0000000000000000e+00 0.0000000000000000e+00  0.0000000000000000e+00 0.0000000000000000e+00 0.0000000000000000e+00  0.0000000000000000e+00 0.0000000000000000e+00 0.0000000000000000e+00  0.0000000000000000e+00 0.0000000000000000e+00 0.0000000000000000e+00  0.0000000000000000e+00 0.0000000000000000e+00 0.0000000000000000e+00  0.0000000000000000e+00 0.0000000000000000e+00 0.0000000000000000e+00  0.0000000000000000e+00 0.0000000000000000e+00 0.0000000000000000e+00  0.0000000000000000e+00 0.0000000000000000e+00 0.0000000000000000e+00  0.0000000000000000e+00 0.0000000000000000e+00 0.0000000000000000e+00  0.0000000000000000e+00 0.0000000000000000e+00 0.0000000000000000e+00  0.0000000000000000e+00 0.0000000000000000e+00 0.0000000000000000e+00  0.0000000000000000e+00 0.0000000000000000e+00 0.0000000000000000e+00  0.0000000000000000e+00 0.0000000000000000e+00 0.0000000000000000e+00  0.0000000000000000e+00 0.0000000000000000e+00 0.0000000000000000e+00  0.0000000000000000e+00 0.0000000000000000e+00 0.0000000000000000e+00  0.0000000000000000e+00 0.0000000000000000e+00 0.0000000000000000e+00  0.0000000000000000e+00 0.0000000000000000e+00 0.0000000000000000e+00  0.0000000000000000e+00 0.0000000000000000e+00 0.0000000000000000e+00  0.0000000000000000e+00 0.0000000000000000e+00 0.0000000000000000e+00  0.0000000000000000e+00 0.0000000000000000e+00 0.0000000000000000e+00  0.0000000000000000e+00 0.0000000000000000e+00 0.0000000000000000e+00  0.0000000000000000e+00 0.0000000000000000e+00 0.0000000000000000e+00  0.0000000000000000e+00 0.0000000000000000e+00 0.0000000000000000e+00  0.0000000000000000e+00 0.0000000000000000e+00 0.0000000000000000e+00  0.0000000000000000e+00 0.0000000000000000e+00 0.0000000000000000e+00  0.0000000000000000e+00 0.0000000000000000e+00 0.0000000000000000e+00  0.0000000000000000e+00 0.0000000000000000e+00 0.0000000000000000e+00  0.0000000000000000e+00 0.0000000000000000e+00 0.0000000000000000e+00  0.0000000000000000e+00 0.0000000000000000e+00 0.0000000000000000e+00  0.0000000000000000e+00 0.0000000000000000e+00 0.0000000000000000e+00  0.0000000000000000e+00 0.0000000000000000e+00 0.0000000000000000e+00  0.0000000000000000e+00 0.0000000000000000e+00 0.0000000000000000e+00  0.0000000000000000e+00 0.0000000000000000e+00 0.0000000000000000e+00  0.0000000000000000e+00 0.0000000000000000e+00 0.0000000000000000e+00  0.0000000000000000e+00 0.0000000000000000e+00 0.0000000000000000e+00  0.0000000000000000e+00 0.0000000000000000e+00 0.0000000000000000e+00  0.0000000000000000e+00 0.0000000000000000e+00 0.0000000000000000e+00  0.0000000000000000e+00 0.0000000000000000e+00 0.0000000000000000e+00  0.0000000000000000e+00 0.0000000000000000e+00 0.0000000000000000e+00  0.0000000000000000e+00 0.0000000000000000e+00 0.0000000000000000e+00  0.0000000000000000e+00 0.0000000000000000e+00 0.0000000000000000e+00  0.0000000000000000e+00 0.0000000000000000e+00 0.0000000000000000e+00  0.0000000000000000e+00 0.0000000000000000e+00 0.0000000000000000e+00  0.0000000000000000e+00 0.0000000000000000e+00 0.0000000000000000e+00  0.0000000000000000e+00 0.0000000000000000e+00 0.0000000000000000e+00  0.0000000000000000e+00 0.0000000000000000e+00 0.0000000000000000e+00  0.0000000000000000e+00 0.0000000000000000e+00 0.0000000000000000e+00  0.0000000000000000e+00 0.0000000000000000e+00 0.0000000000000000e+00  0.0000000000000000e+00 0.0000000000000000e+00 0.0000000000000000e+00  0.0000000000000000e+00 0.0000000000000000e+00 0.0000000000000000e+00  0.0000000000000000e+00 0.0000000000000000e+00 0.0000000000000000e+00  0.0000000000000000e+00 0.0000000000000000e+00 0.0000000000000000e+00  0.0000000000000000e+00 0.0000000000000000e+00 0.0000000000000000e+00  0.0000000000000000e+00 0.0000000000000000e+00 0.0000000000000000e+00  0.0000000000000000e+00 0.0000000000000000e+00 0.0000000000000000e+00  0.0000000000000000e+00 0.0000000000000000e+00 0.0000000000000000e+00  0.0000000000000000e+00 0.0000000000000000e+00 0.0000000000000000e+00  0.0000000000000000e+00 0.0000000000000000e+00 0.0000000000000000e+00  0.0000000000000000e+00 0.0000000000000000e+00 0.0000000000000000e+00  0.0000000000000000e+00 0.0000000000000000e+00 0.0000000000000000e+00  0.0000000000000000e+00 0.0000000000000000e+00 0.0000000000000000e+00  0.0000000000000000e+00 0.0000000000000000e+00 0.0000000000000000e+00  0.0000000000000000e+00 0.0000000000000000e+00 0.0000000000000000e+00  0.0000000000000000e+00 0.0000000000000000e+00 0.0000000000000000e+00  0.0000000000000000e+00 0.0000000000000000e+00 0.0000000000000000e+00  0.0000000000000000e+00 0.0000000000000000e+00 0.0000000000000000e+00  0.0000000000000000e+00 0.0000000000000000e+00 0.0000000000000000e+00  0.0000000000000000e+00 0.0000000000000000e+00 0.0000000000000000e+00  0.0000000000000000e+00 0.0000000000000000e+00 0.0000000000000000e+00  0.0000000000000000e+00 0.0000000000000000e+00 0.0000000000000000e+00  0.0000000000000000e+00 0.0000000000000000e+00 0.0000000000000000e+00  0.0000000000000000e+00 0.0000000000000000e+00 0.0000000000000000e+00  0.0000000000000000e+00 0.0000000000000000e+00 0.0000000000000000e+00  0.0000000000000000e+00 0.0000000000000000e+00 0.0000000000000000e+00  0.0000000000000000e+00 0.0000000000000000e+00 0.0000000000000000e+00  0.0000000000000000e+00 0.0000000000000000e+00 0.0000000000000000e+00  0.0000000000000000e+00 0.0000000000000000e+00 0.0000000000000000e+00  0.0000000000000000e+00 0.0000000000000000e+00 0.0000000000000000e+00  0.0000000000000000e+00 0.0000000000000000e+00 0.0000000000000000e+00  0.0000000000000000e+00 0.0000000000000000e+00 0.0000000000000000e+00  0.0000000000000000e+00 0.0000000000000000e+00 0.0000000000000000e+00  0.0000000000000000e+00 0.0000000000000000e+00 0.0000000000000000e+00  0.0000000000000000e+00 0.0000000000000000e+00 0.0000000000000000e+00  0.0000000000000000e+00 0.0000000000000000e+00 0.0000000000000000e+00  0.0000000000000000e+00 0.0000000000000000e+00 0.0000000000000000e+00  0.0000000000000000e+00 0.0000000000000000e+00 0.0000000000000000e+00  0.0000000000000000e+00 0.0000000000000000e+00 0.0000000000000000e+00  0.0000000000000000e+00 0.0000000000000000e+00 0.0000000000000000e+00  0.0000000000000000e+00 0.0000000000000000e+00 0.0000000000000000e+00  0.0000000000000000e+00 0.0000000000000000e+00 0.0000000000000000e+00  -5.8589313834801016e-06 5.8113090656041377e-06 0.0000000000000000e+00  -1.2401498438887554e-05 1.2487192376659371e-05 0.0000000000000000e+00  -1.8164495086977058e-05 2.3128138517337082e-05 0.0000000000000000e+00  -2.4277418361381533e-05 3.7983374556770865e-05 0.0000000000000000e+00  -2.9348375050984465e-05 5.6259021547861705e-05 0.0000000000000000e+00  -3.4913065303862337e-05 7.8271691156904831e-05 0.0000000000000000e+00  -3.9362045197923807e-05 1.0296833800632635e-04 0.0000000000000000e+00  -4.3568866937992443e-05 1.3113030350535656e-04 0.0000000000000000e+00  -4.8235863912997673e-05 1.6185540658280963e-04 0.0000000000000000e+00  -5.1750163765128233e-05 1.9516255625695329e-04 0.0000000000000000e+00  -5.5841303938332648e-05 2.3097683006905348e-04 0.0000000000000000e+00  -5.8874016615863469e-05 2.6896830290842292e-04 0.0000000000000000e+00  -6.2267251475499948e-05 3.0903325044430528e-04 0.0000000000000000e+00  -6.4915539841319282e-05 3.5070309443289803e-04 0.0000000000000000e+00  -6.7365467680024769e-05 3.9427805799600678e-04 0.0000000000000000e+00  -6.9993561399167976e-05 4.3922948748163396e-04 0.0000000000000000e+00  -7.1938698793937213e-05 4.8550631210285140e-04 0.0000000000000000e+00  -7.4096471988842138e-05 5.3305086358756894e-04 0.0000000000000000e+00  -7.5669606615524939e-05 5.8160143240977298e-04 0.0000000000000000e+00  -7.7373583044738797e-05 6.3109968908519329e-04 0.0000000000000000e+00  -7.8680490524366621e-05 6.8139480548950635e-04 0.0000000000000000e+00  -7.9994006259881130e-05 7.3244447377187748e-04 0.0000000000000000e+00  -8.1022052670147877e-05 7.8399548335861887e-04 0.0000000000000000e+00  -8.1930759099396795e-05 8.3615518000700918e-04 0.0000000000000000e+00  -8.2845128273184132e-05 8.8870458057459874e-04 0.0000000000000000e+00  -8.3558722961991653e-05 9.4165663629610459e-04 0.0000000000000000e+00  -8.4209524845181509e-05 9.9496038720759653e-04 0.0000000000000000e+00  -8.4745158840374545e-05 1.0484918422502124e-03 0.0000000000000000e+00  -8.5221158698140840e-05 1.1022804429555433e-03 0.0000000000000000e+00  -8.5609348849791136e-05 1.1562154708554197e-03 0.0000000000000000e+00  -8.5945280978445566e-05 1.2103172048564229e-03 0.0000000000000000e+00  -8.6213568863561030e-05 1.2644958431434759e-03 0.0000000000000000e+00  -8.6439333824123242e-05 1.3187703738447294e-03 0.0000000000000000e+00  -8.6613780705929163e-05 1.3730711236455105e-03 0.0000000000000000e+00  -8.6752706180344085e-05 1.4274196571344246e-03 0.0000000000000000e+00  -8.6860890217865059e-05 1.4817679172745451e-03 0.0000000000000000e+00  -8.6945632238636921e-05 1.5361300570224605e-03 0.0000000000000000e+00  -8.7012874609891780e-05 1.5904810490670756e-03 0.0000000000000000e+00  -8.7065282753457767e-05 1.6448303644865275e-03 0.0000000000000000e+00  -8.7110889241889594e-05 1.6991693558713497e-03 0.0000000000000000e+00  -8.7150739042591492e-05 1.7535015567757745e-03 0.0000000000000000e+00  -8.7190925053203685e-05 1.8078298212936498e-03 0.0000000000000000e+00  -8.7227228308110071e-05 1.8621606844071797e-03 0.0000000000000000e+00  -8.7266052844041074e-05 1.9164954899260364e-03 0.0000000000000000e+00  -8.7306295915266975e-05 1.9708435584688401e-03 0.0000000000000000e+00  -8.7340939270273823e-05 2.0252007078794937e-03 0.0000000000000000e+00  -5.1002436489424239e-05 2.0795825794333984e-03 0.0000000000000000e+00  2.1803743326284573e-05 2.0796410017065218e-03 0.0000000000000000e+00  5.8268276843213513e-05 2.0252688323125177e-03 0.0000000000000000e+00  5.8286045542714142e-05 1.9708941335276208e-03 0.0000000000000000e+00  5.8311493277207747e-05 1.9165345325812028e-03 0.0000000000000000e+00  5.8339056857374513e-05 1.8621801339238340e-03 0.0000000000000000e+00  5.8372236117935638e-05 1.8078275892505541e-03 0.0000000000000000e+00  5.8417059394607891e-05 1.7534728678346816e-03 0.0000000000000000e+00  5.8468583789285939e-05 1.6991118128219154e-03 0.0000000000000000e+00  5.8528394520238302e-05 1.6447435270709973e-03 0.0000000000000000e+00  5.8594078386543115e-05 1.5903634113542957e-03 0.0000000000000000e+00  5.8664845260923496e-05 1.5359724606316153e-03 0.0000000000000000e+00  5.8734766038112897e-05 1.4815749719278531e-03 0.0000000000000000e+00  5.8809500967059827e-05 1.4271780095312494e-03 0.0000000000000000e+00  5.8869626678982621e-05 1.3727914515903840e-03 0.0000000000000000e+00  5.8933752933331019e-05 1.3184337705146477e-03 0.0000000000000000e+00  5.8959752343344764e-05 1.2641185535669987e-03 0.0000000000000000e+00  5.8994627421743572e-05 1.2098788864682362e-03 0.0000000000000000e+00  5.8961530117696356e-05 1.1557333214133872e-03 0.0000000000000000e+00  5.8948473258577623e-05 1.1017287660624038e-03 0.0000000000000000e+00  5.8831184929059939e-05 1.0478907559796212e-03 0.0000000000000000e+00  5.8751171206172849e-05 9.9427894468792090e-04 0.0000000000000000e+00  5.8517380910739496e-05 9.4092368801473034e-04 0.0000000000000000e+00  5.8342938595700115e-05 8.8790027041295012e-04 0.0000000000000000e+00  5.7966950485525146e-05 8.3525608126476666e-04 0.0000000000000000e+00  5.7637097178406216e-05 7.8302157542577556e-04 0.0000000000000000e+00  5.7240917684438762e-05 7.3139743482794682e-04 0.0000000000000000e+00  5.6606238061639100e-05 6.8024771163846932e-04 0.0000000000000000e+00  5.5971091688438366e-05 6.2988929048690462e-04 0.0000000000000000e+00  5.5108854376264305e-05 5.8027398218153128e-04 0.0000000000000000e+00  5.4206173577811225e-05 5.3164642217097427e-04 0.0000000000000000e+00  5.3040261898667216e-05 4.8401491067186122e-04 0.0000000000000000e+00  5.1827530981389476e-05 4.3758271582374463e-04 0.0000000000000000e+00  5.0141133225774488e-05 3.9263001068641040e-04 0.0000000000000000e+00  4.8640361059448190e-05 3.4893492752520054e-04 0.0000000000000000e+00  4.6978738366549268e-05 3.0719884875697189e-04 0.0000000000000000e+00  4.4701727423658341e-05 2.6690147396794464e-04 0.0000000000000000e+00  4.2487344002276780e-05 2.2888106097513199e-04 0.0000000000000000e+00  3.9819183147780198e-05 1.9295352154548919e-04 0.0000000000000000e+00  3.7165762551865647e-05 1.5943233094065762e-04 0.0000000000000000e+00  3.3732921286004057e-05 1.2876318938579977e-04 0.0000000000000000e+00  3.0732835659658127e-05 1.0045448669736222e-04 0.0000000000000000e+00  2.7546247791616046e-05 7.5668098979692574e-05 0.0000000000000000e+00  2.3347830273963837e-05 5.3460998254729658e-05 0.0000000000000000e+00  1.9463481800940852e-05 3.5016474374399366e-05 0.0000000000000000e+00  1.4646697427568229e-05 2.0274696809477726e-05 0.0000000000000000e+00  1.0277348712747800e-05 9.5594288555699707e-06 0.0000000000000000e+00  4.8790246422372857e-06 3.0011541816836571e-06 0.0000000000000000e+00  -5.9984108724500706e-07 4.7583507274584487e-06 0.0000000000000000e+00  -1.5481401094129630e-05 1.9979227766653163e-03 0.0000000000000000e+00  -1.5972495092047721e-05 1.8940421994629337e-03 0.0000000000000000e+00  -1.5176581411285973e-05 1.7243748124087816e-03 0.0000000000000000e+00  -2.0058507358063108e-06 2.6117985971254878e-05 0.0000000000000000e+00  -1.4254059515597136e-05 1.6176072370916589e-03 0.0000000000000000e+00  -2.9308972747769958e-06 6.1403024506802086e-05 0.0000000000000000e+00  -1.4114391112232012e-05 1.5088563299249836e-03 0.0000000000000000e+00  -4.6506587831045623e-06 1.4441702274494499e-04 0.0000000000000000e+00  -6.3089731024675894e-06 2.1021111128489734e-04 0.0000000000000000e+00  -1.3931337474043345e-05 1.4000925514883389e-03 0.0000000000000000e+00  -8.0355956538811743e-06 4.1668183888856643e-04 0.0000000000000000e+00  -1.3403246344108951e-05 1.1829358495389199e-03 0.0000000000000000e+00  -6.6419003171879008e-06 2.8319737096024777e-04 0.0000000000000000e+00  -9.6936257272311685e-06 5.0767030845902167e-04 0.0000000000000000e+00  -1.3047419711123357e-05 1.0749376354502985e-03 0.0000000000000000e+00  -1.3696217448397857e-05 1.2913997454167920e-03 0.0000000000000000e+00  -1.0490464091583686e-05 6.0501899336988605e-04 0.0000000000000000e+00  -1.2619180976165314e-05 9.6771894236251594e-04 0.0000000000000000e+00  -1.0288640705821960e-05 7.0168446643119548e-04 0.0000000000000000e+00  -1.3024692306479504e-05 8.6384616432765634e-04 0.0000000000000000e+00  -1.1632385057727311e-05 7.7898722438651173e-04 0.0000000000000000e+00  -8.1745192663394574e-06 3.4527796973702577e-04 0.0000000000000000e+00  -1.4295917136597922e-05 1.8125853374769915e-03 0.0000000000000000e+00  -4.1957914132292205e-06 9.8088555465697405e-05 0.0000000000000000e+00  9.8359831995476865e-06 1.9456119456376852e-03 0.0000000000000000e+00  3.6965744302989362e-06 1.3140883363331467e-05 0.0000000000000000e+00  6.9865435225816847e-06 1.5632168463459669e-03 0.0000000000000000e+00  6.8620502445953069e-06 1.6719566236400726e-03 0.0000000000000000e+00  -1.1122896570328172e-05 4.3580861958248924e-05 0.0000000000000000e+00  -1.8639456509350791e-05 1.7598221865687167e-04 0.0000000000000000e+00  7.5345344819809366e-06 1.2370767977597798e-03 0.0000000000000000e+00  7.1414713414921493e-06 1.4544430172250137e-03 0.0000000000000000e+00  -2.7213763444072553e-05 4.6093755017979828e-04 0.0000000000000000e+00  7.7569288258021326e-06 1.1288010999846113e-03 0.0000000000000000e+00  -2.1462792655698899e-05 2.4777351364396646e-04 0.0000000000000000e+00  -2.8916749670633882e-05 5.5614847158080296e-04 0.0000000000000000e+00  7.9862216226072792e-06 1.0211389531446665e-03 0.0000000000000000e+00  7.3264133055171841e-06 1.3456896868622678e-03 0.0000000000000000e+00  -3.4645008924380228e-05 6.5477903503374779e-04 0.0000000000000000e+00  8.2182532888313896e-06 9.1443845803300026e-04 0.0000000000000000e+00  -1.0397975940166498e-06 1.3948267799919535e-06 0.0000000000000000e+00  7.4104113277751335e-07 6.5328068470456770e-07 0.0000000000000000e+00  -3.2277439204739969e-05 2.0406778482389711e-03 0.0000000000000000e+00  -6.8681518085781290e-06 1.4318958564839475e-05 0.0000000000000000e+00  1.3178704198638495e-05 8.2082330845621883e-04 0.0000000000000000e