<?xml version="1.0"?>
<VTKFile type="UnstructuredGrid"  version="0.1"  >
<UnstructuredGrid>
<Piece  NumberOfPoints="1419" NumberOfCells="2698">
<Points>
<DataArray  type="Float64"  NumberOfComponents="3"  format="ascii">0 0 0  0 0.41 0  2.5 0 0  2.5 0.41 0  0.6 0.19 0  0.6 0.21 0  0.25 0.2 0  0.15 0.2 0  0.2489897948556636 0.21 0  0.2489897948556636 0.19 0  0.6 0.2 0  0 0.3807142857143437 0  0 0.3514285714286952 0  0 0.3221428571430699 0  0 0.29285714285744 0  0 0.2635714285718054 0  0 0.2342857142861561 0  0 0.2050000000005308 0  0 0.175714285714732 0  0 0.1464285714289574 0  0 0.1171428571431897 0  0 0.08785714285737878 0  0 0.05857142857161107 0  0 0.02928571428580012 0  0.03015443760436003 0 0  0.06140001986583606 0 0  0.09377624077125973 0 0  0.1273239957535082 0 0  0.1620856860351972 0 0  0.1981052433264291 0 0  0.235428184091502 0 0  0.2741016576309132 0 0  0.3141745521465447 0 0  0.3556974926295285 0 0  0.3987229542472677 0 0  0.4433053055141081 0 0  0.4895008759286886 0 0  0.5373680609405097 0 0  0.5869673343216626 0 0  0.6383613676634521 0 0  0.6916151138468254 0 0  0.7467958595648856 0 0  0.8039733463919316 0 0  0.8632198139502143 0 0  0.9246101326867038 0 0  0.9882218810934433 0 0  1.054135445558498 0 0  1.122434100542598 0 0  1.193204177141305 0 0  1.266535089879536 0 0  1.342519516046404 0 0  1.421253448503939 0 0  1.502836389106271 0 0  1.587371439758838 0 0  1.674965418777374 0 0  1.765729001825544 0 0  1.859776908880082 0 0  1.957227977487062 0 0  2.058205329869943 0 0  2.162836591189951 0 0  2.271253957290865 0 0  2.383594446803425 0 0  2.5 0.1024999999997612 0  2.5 0.2049999999994743 0  2.5 0.3074999999997183 0  2.383594446803656 0.41 0  2.271253957291315 0.41 0  2.162836591190598 0.41 0  2.058205329870775 0.41 0  1.957227977488067 0.41 0  1.859776908881246 0.41 0  1.765729001826854 0.41 0  1.674965418778818 0.41 0  1.58737143976041 0.41 0  1.502836389107956 0.41 0  1.421253448505726 0.41 0  1.342519516048286 0.41 0  1.266535089881505 0.41 0  1.193204177143353 0.41 0  1.122434100544716 0.41 0  1.05413544556068 0.41 0  0.9882218810956305 0.41 0  0.9246101326886647 0.41 0  0.8632198139519631 0.41 0  0.8039733463934788 0.41 0  0.7467958595662458 0.41 0  0.6916151138480078 0.41 0  0.6383613676644679 0.41 0  0.5869673343225223 0.41 0  0.5373680609412221 0.41 0  0.4895008759292634 0.41 0  0.4433053055145528 0.41 0  0.3987229542475914 0.41 0  0.3556974926297398 0.41 0  0.3141745521466497 0.41 0  0.2741016576310038 0.41 0  0.2354281840915826 0.41 0  0.1981052433265003 0.41 0  0.1620856860352591 0.41 0  0.1273239957535623 0.41 0  0.09377624077128965 0.41 0  0.06140001986584975 0.41 0  0.03015443760436654 0.41 0  0.2497468076502589 0.2050254481002335 0  0.2497468076502614 0.1949745518997913 0  0.2469965252529372 0.1829317073451959 0  0.2439893735792749 0.1762316384219906 0  0.2400332147834255 0.1700443375285386 0  0.2352133972704371 0.1645032867342007 0  0.2296339016332438 0.1597280261969788 0  0.2234150974217223 0.1558215752574715 0  0.2166911463437691 0.1528682099456123 0  0.2096071079204251 0.1509316448471593 0  0.2023158100364996 0.1500536585536553 0  0.194974551899914 0.1502531923497262 0  0.1877417105387872 0.1515259415822739 0  0.1807733240461124 0.153844448527136 0  0.1742197252835808 0.15715869474974 0  0.1682222986673531 0.1613971801805478 0  0.162910430003803 0.1664684656256651 0  0.1583987151779087 0.1722631454351573 0  0.1547844879126891 0.178656207771761 0  0.1521457199348551 0.1855097315605723 0  0.1505393388476355 0.1926758619366523 0  0.1505393388476328 0.2073241380633295 0  0.1521457199348437 0.2144902684393899 0  0.1547844879126531 0.221343792228163 0  0.1583987151778488 0.2277368545647528 0  0.1629104300036858 0.2335315343742052 0  0.1682222986671726 0.2386028198193036 0  0.1742197252833576 0.2428413052501257 0  0.1807733240458683 0.2461555514727623 0  0.1877417105384929 0.2484740584176516 0  0.1949745518995776 0.2497468076502398 0  0.202315810036185 0.2499463414463592 0  0.2096071079201568 0.2490683551528932 0  0.2166911463435495 0.2471317900544655 0  0.2234150974215506 0.2441784247426195 0  0.2296339016331197 0.2402719738031125 0  0.2352133972703547 0.2354967132658811 0  0.2400332147833751 0.2299556624715287 0  0.2439893735792577 0.2237683615780412 0  0.246996525252926 0.2170682926548348 0  0.25645809709277 0.21 0  0.2639263993298655 0.21 0  0.271394701566961 0.21 0  0.2788630038040554 0.21 0  0.2863313060411479 0.21 0  0.2937996082782405 0.21 0  0.301267910515333 0.21 0  0.3087362127524279 0.21 0  0.3162045149895234 0.21 0  0.3236728172265972 0.21 0  0.3311411194636928 0.21 0  0.3386094217007701 0.21 0  0.3460777239378666 0.21 0  0.3535460261749672 0.21 0  0.3610143284120516 0.21 0  0.3684826306491596 0.21 0  0.3759509328862226 0.21 0  0.383419235123329 0.21 0  0.3908875373604028 0.21 0  0.3983558395975142 0.21 0  0.4058241418345938 0.21 0  0.4132924440716992 0.21 0  0.4207607463087888 0.21 0  0.4282290485459029 0.21 0  0.4356973507830418 0.21 0  0.4431656530201649 0.21 0  0.4506339552573136 0.21 0  0.4581022574944306 0.21 0  0.4655705597315852 0.21 0  0.4730388619686996 0.21 0  0.480507164205851 0.21 0  0.4879754664429498 0.21 0  0.4954437686800938 0.21 0  0.502912070917267 0.21 0  0.5103803731544119 0.21 0  0.5178486753915261 0.21 0  0.5253169776286404 0.21 0  0.5327852798657868 0.21 0  0.5402535821029386 0.21 0  0.54772188434007 0.21 0  0.5551901865771842 0.21 0  0.5626584888143201 0.21 0  0.5701267910514778 0.21 0  0.5775950932886138 0.21 0  0.5850633955257281 0.21 0  0.5925316977628483 0.21 0  0.6 0.2050000000000054 0  0.6 0.1950000000000217 0  0.5925316977628897 0.19 0  0.5850633955257988 0.19 0  0.5775950932887378 0.19 0  0.5701267910515998 0.19 0  0.5626584888145268 0.19 0  0.5551901865773963 0.19 0  0.547721884340339 0.19 0  0.5402535821032429 0.19 0  0.5327852798661811 0.19 0  0.5253169776290537 0.19 0  0.5178486753919799 0.19 0  0.5103803731549078 0.19 0  0.502912070917822 0.19 0  0.4954437686807294 0.19 0  0.4879754664436223 0.19 0  0.4805071642065402 0.19 0  0.4730388619694271 0.19 0  0.4655705597323621 0.19 0  0.4581022574952563 0.19 0  0.4506339552581777 0.19 0  0.4431656530210671 0.19 0  0.4356973507839815 0.19 0  0.4282290485468779 0.19 0  0.4207607463097617 0.19 0  0.4132924440726327 0.19 0  0.4058241418354857 0.19 0  0.3983558395983636 0.19 0  0.3908875373612097 0.19 0  0.3834192351240934 0.19 0  0.3759509328869369 0.19 0  0.3684826306498175 0.19 0  0.361014328412667 0.19 0  0.3535460261755617 0.19 0  0.3460777239384295 0.19 0  0.3386094217012945 0.19 0  0.3311411194641595 0.19 0  0.3236728172270245 0.19 0  0.3162045149898895 0.19 0  0.3087362127527544 0.19 0  0.3012679105156187 0.19 0  0.2937996082784807 0.19 0  0.2863313060413428 0.19 0  0.2788630038042048 0.19 0  0.2713947015670686 0.19 0  0.2639263993299336 0.19 0  0.2564580970927985 0.19 0  0.2607803159922026 0.2000727136295815 0  0.5887803774232762 0.2001272386983733 0  0.5745072403740523 0.2002044435018727 0  0.5511891430099709 0.2001122610077113 0  0.2751288526855082 0.20000000000002 0  0.5365194309847112 0.1999999999999436 0  0.2894621222999649 0.1998691686390484 0  0.5215828265105155 0.1999999999999228 0  0.3127789816668748 0.1998657885438805 0  0.3274069683451451 0.2000000000000796 0  0.5066462220363641 0.199999999999908 0  0.3650630746574081 0.199866017807523 0  0.476773013087985 0.1999999999998713 0  0.3417402379596385 0.1998691686391011 0  0.3796850840047755 0.200000000000134 0  0.4618364086138087 0.1999999999998546 0  0.4917096175621762 0.1999999999998808 0  0.3946216884789568 0.2000000000001512 0  0.446899804139621 0.1999999999998389 0  0.4089549580935208 0.1998691686391595 0  0.4322718174608562 0.200127451265745 0  0.4201487168029707 0.1999966199048527 0  0.3528922713220932 0.2000185703532356 0  0.5633122436674589 0.1999814296467508 0  0.3006558810093873 0.1999966199048318 0  0.5815926498168407 0.1966545283159175 0  0.2677053789419034 0.1964246479135325 0  0.5290511287476175 0.1970915826863981 0  0.5439877332217911 0.197091582686394 0  0.2825131256993216 0.2035478995978015 0  0.3199386661080599 0.202908417313604 0  0.4842413153250809 0.1970915826863873 0  0.5141145242734466 0.1970915826863843 0  0.3722167817676917 0.2029084173136195 0  0.4693047108508938 0.1970915826863783 0  0.3348752705822316 0.202908417313609 0  0.3871533862418661 0.2029084173136212 0  0.4543681063767183 0.1970915826863795 0  0.4991779197992749 0.1970915826863902 0  0.4020059614928624 0.203547899597858 0  0.4394315019025246 0.1970915826863714 0  0.2550657455369551 0.2034088125358657 0  0.2548908499171161 0.1966940311614271 0  0.5946539510196798 0.2024302972968126 0  0.267698176732111 0.2039977513680092 0  0.4261685417851465 0.196409292431739 0  0.3590076176283495 0.196411355804271 0  0.5571672426447437 0.2036011176410121 0  0.3066757059912147 0.1964092924317024 0  0.594380730180568 0.1966558399668133 0  0.4842413153245942 0.2040749161535287 0  0.4693047108503577 0.2040749161535231 0  0.3871533862424271 0.1959250838464788 0  0.372246743208829 0.1959123236376545 0  0.5141145242731028 0.2040749161535395 0  0.4543681063761134 0.2040749161535186 0  0.4019979587101454 0.1959834479682427 0  0.4394608940728603 0.2040870543693135 0  0.5439623148931173 0.2040856076781014 0  0.5290511287473298 0.2040749161535501 0  0.4991779197988497 0.2040749161535382 0  0.3347912413592433 0.1959225448935183 0  0.3199680582793816 0.1959123018030061 0  0.2825051229162361 0.1959834479681729 0  0.3590471196690275 0.2036304442587945 0  0.5571594006495384 0.1963685282145804 0  0.3067669986803285 0.203627750582736 0  0.4262598344738712 0.2036568242185335 0  0.5814408164431408 0.2041285596160068 0  0.5688286748170428 0.1961819304477386 0  0.4145905603063645 0.2038180695522843 0  0.3473758401724931 0.2038180695522752 0  0.2950977245128307 0.2038180695522663 0  0.5688286748170693 0.203818069552238 0  0.2950977245127906 0.1961819304477774 0  0.3473758401723931 0.1961819304478349 0  0.4145905603061963 0.1961819304479011 0  0.2601812407614425 0.2056861609747042
[...]
<PointData  Vectors="f_40-1"> 
<DataArray  type="Float64"  Name="f_40-1"  NumberOfComponents="3" format="ascii">0.0000000000000000e+00 0.0000000000000000e+00 0.0000000000000000e+00  0.0000000000000000e+00 0.0000000000000000e+00 0.0000000000000000e+00  0.0000000000000000e+00 0.0000000000000000e+00 0.0000000000000000e+00  0.0000000000000000e+00 0.0000000000000000e+00 0.0000000000000000e+00  5.8273347266156663e-05 2.0796806609325079e-03 0.0000000000000000e+00  -8.7357303611080081e-05 2.0795546761139144e-03 0.0000000000000000e+00  0.0000000000000000e+00 0.0000000000000000e+00 0.0000000000000000e+00  0.0000000000000000e+00 0.0000000000000000e+00 0.0000000000000000e+00  0.0000000000000000e+00 0.0000000000000000e+00 0.0000000000000000e+00  0.0000000000000000e+00 0.0000000000000000e+00 0.0000000000000000e+00  -1.4613424238047921e-05 2.0796099961847446e-03 0.0000000000000000e+00  0.0000000000000000e+00 0.0000000000000000e+00 0.0000000000000000e+00  0.0000000000000000e+00 0.0000000000000000e+00 0.0000000000000000e+00  0.0000000000000000e+00 0.0000000000000000e+00 0.0000000000000000e+00  0.0000000000000000e+00 0.0000000000000000e+00 0.0000000000000000e+00  0.0000000000000000e+00 0.0000000000000000e+00 0.0000000000000000e+00  0.0000000000000000e+00 0.0000000000000000e+00 0.0000000000000000e+00  0.0000000000000000e+00 0.0000000000000000e+00 0.0000000000000000e+00  0.0000000000000000e+00 0.0000000000000000e+00 0.0000000000000000e+00  0.0000000000000000e+00 0.0000000000000000e+00 0.0000000000000000e+00  0.0000000000000000e+00 0.0000000000000000e+00 0.0000000000000000e+00  0.0000000000000000e+00 0.0000000000000000e+00 0.0000000000000000e+00  0.0000000000000000e+00 0.0000000000000000e+00 0.0000000000000000e+00  0.0000000000000000e+00 0.0000000000000000e+00 0.0000000000000000e+00  0.0000000000000000e+00 0.0000000000000000e+00 0.0000000000000000e+00  0.0000000000000000e+00 0.0000000000000000e+00 0.0000000000000000e+00  0.0000000000000000e+00 0.0000000000000000e+00 0.0000000000000000e+00  0.0000000000000000e+00 0.0000000000000000e+00 0.0000000000000000e+00  0.0000000000000000e+00 0.0000000000000000e+00 0.0000000000000000e+00  0.0000000000000000e+00 0.0000000000000000e+00 0.0000000000000000e+00  0.0000000000000000e+00 0.0000000000000000e+00 0.0000000000000000e+00  0.0000000000000000e+00 0.0000000000000000e+00 0.0000000000000000e+00  0.0000000000000000e+00 0.0000000000000000e+00 0.0000000000000000e+00  0.0000000000000000e+00 0.0000000000000000e+00 0.0000000000000000e+00  0.0000000000000000e+00 0.0000000000000000e+00 0.0000000000000000e+00  0.0000000000000000e+00 0.0000000000000000e+00 0.0000000000000000e+00  0.0000000000000000e+00 0.0000000000000000e+00 0.0000000000000000e+00  0.0000000000000000e+00 0.0000000000000000e+00 0.0000000000000000e+00  0.0000000000000000e+00 0.0000000000000000e+00 0.0000000000000000e+00  0.0000000000000000e+00 0.0000000000000000e+00 0.0000000000000000e+00  0.0000000000000000e+00 0.0000000000000000e+00 0.0000000000000000e+00  0.0000000000000000e+00 0.0000000000000000e+00 0.0000000000000000e+00  0.0000000000000000e+00 0.0000000000000000e+00 0.0000000000000000e+00  0.0000000000000000e+00 0.0000000000000000e+00 0.0000000000000000e+00  0.0000000000000000e+00 0.0000000000000000e+00 0.0000000000000000e+00  0.0000000000000000e+00 0.0000000000000000e+00 0.0000000000000000e+00  0.0000000000000000e+00 0.0000000000000000e+00 0.0000000000000000e+00  0.0000000000000000e+00 0.0000000000000000e+00 0.0000000000000000e+00  0.0000000000000000e+00 0.0000000000000000e+00 0.0000000000000000e+00  0.0000000000000000e+00 0.0000000000000000e+00 0.0000000000000000e+00  0.0000000000000000e+00 0.0000000000000000e+00 0.0000000000000000e+00  0.0000000000000000e+00 0.0000000000000000e+00 0.0000000000000000e+00  0.0000000000000000e+00 0.0000000000000000e+00 0.0000000000000000e+00  0.0000000000000000e+00 0.0000000000000000e+00 0.0000000000000000e+00  0.0000000000000000e+00 0.0000000000000000e+00 0.0000000000000000e+00  0.0000000000000000e+00 0.0000000000000000e+00 0.0000000000000000e+00  0.0000000000000000e+00 0.0000000000000000e+00 0.0000000000000000e+00  0.0000000000000000e+00 0.0000000000000000e+00 0.0000000000000000e+00  0.0000000000000000e+00 0.0000000000000000e+00 0.0000000000000000e+00  0.0000000000000000e+00 0.0000000000000000e+00 0.0000000000000000e+00  0.0000000000000000e+00 0.0000000000000000e+00 0.0000000000000000e+00  0.0000000000000000e+00 0.0000000000000000e+00 0.0000000000000000e+00  0.0000000000000000e+00 0.0000000000000000e+00 0.0000000000000000e+00  0.0000000000000000e+00 0.0000000000000000e+00 0.0000000000000000e+00  0.0000000000000000e+00 0.0000000000000000e+00 0.0000000000000000e+00  0.0000000000000000e+00 0.0000000000000000e+00 0.0000000000000000e+00  0.0000000000000000e+00 0.0000000000000000e+00 0.0000000000000000e+00  0.0000000000000000e+00 0.0000000000000000e+00 0.0000000000000000e+00  0.0000000000000000e+00 0.0000000000000000e+00 0.0000000000000000e+00  0.0000000000000000e+00 0.0000000000000000e+00 0.0000000000000000e+00  0.0000000000000000e+00 0.0000000000000000e+00 0.0000000000000000e+00  0.0000000000000000e+00 0.0000000000000000e+00 0.0000000000000000e+00  0.0000000000000000e+00 0.0000000000000000e+00 0.0000000000000000e+00  0.0000000000000000e+00 0.0000000000000000e+00 0.0000000000000000e+00  0.0000000000000000e+00 0.0000000000000000e+00 0.0000000000000000e+00  0.0000000000000000e+00 0.0000000000000000e+00 0.0000000000000000e+00  0.0000000000000000e+00 0.0000000000000000e+00 0.0000000000000000e+00  0.0000000000000000e+00 0.0000000000000000e+00 0.0000000000000000e+00  0.0000000000000000e+00 0.0000000000000000e+00 0.0000000000000000e+00  0.0000000000000000e+00 0.0000000000000000e+00 0.0000000000000000e+00  0.0000000000000000e+00 0.0000000000000000e+00 0.0000000000000000e+00  0.0000000000000000e+00 0.0000000000000000e+00 0.0000000000000000e+00  0.0000000000000000e+00 0.0000000000000000e+00 0.0000000000000000e+00  0.0000000000000000e+00 0.0000000000000000e+00 0.0000000000000000e+00  0.0000000000000000e+00 0.0000000000000000e+00 0.0000000000000000e+00  0.0000000000000000e+00 0.0000000000000000e+00 0.0000000000000000e+00  0.0000000000000000e+00 0.0000000000000000e+00 0.0000000000000000e+00  0.0000000000000000e+00 0.0000000000000000e+00 0.0000000000000000e+00  0.0000000000000000e+00 0.0000000000000000e+00 0.0000000000000000e+00  0.0000000000000000e+00 0.0000000000000000e+00 0.0000000000000000e+00  0.0000000000000000e+00 0.0000000000000000e+00 0.0000000000000000e+00  0.0000000000000000e+00 0.0000000000000000e+00 0.0000000000000000e+00  0.0000000000000000e+00 0.0000000000000000e+00 0.0000000000000000e+00  0.0000000000000000e+00 0.0000000000000000e+00 0.0000000000000000e+00  0.0000000000000000e+00 0.0000000000000000e+00 0.0000000000000000e+00  0.0000000000000000e+00 0.0000000000000000e+00 0.0000000000000000e+00  0.0000000000000000e+00 0.0000000000000000e+00 0.0000000000000000e+00  0.0000000000000000e+00 0.0000000000000000e+00 0.0000000000000000e+00  0.0000000000000000e+00 0.0000000000000000e+00 0.0000000000000000e+00  0.0000000000000000e+00 0.0000000000000000e+00 0.0000000000000000e+00  0.0000000000000000e+00 0.0000000000000000e+00 0.0000000000000000e+00  0.0000000000000000e+00 0.0000000000000000e+00 0.0000000000000000e+00  0.0000000000000000e+00 0.0000000000000000e+00 0.0000000000000000e+00  0.0000000000000000e+00 0.0000000000000000e+00 0.0000000000000000e+00  0.0000000000000000e+00 0.0000000000000000e+00 0.0000000000000000e+00  0.0000000000000000e+00 0.0000000000000000e+00 0.0000000000000000e+00  0.0000000000000000e+00 0.0000000000000000e+00 0.0000000000000000e+00  0.0000000000000000e+00 0.0000000000000000e+00 0.0000000000000000e+00  0.0000000000000000e+00 0.0000000000000000e+00 0.0000000000000000e+00  0.0000000000000000e+00 0.0000000000000000e+00 0.0000000000000000e+00  0.0000000000000000e+00 0.0000000000000000e+00 0.0000000000000000e+00  0.0000000000000000e+00 0.0000000000000000e+00 0.0000000000000000e+00  0.0000000000000000e+00 0.0000000000000000e+00 0.0000000000000000e+00  0.0000000000000000e+00 0.0000000000000000e+00 0.0000000000000000e+00  0.0000000000000000e+00 0.0000000000000000e+00 0.0000000000000000e+00  0.0000000000000000e+00 0.0000000000000000e+00 0.0000000000000000e+00  0.0000000000000000e+00 0.0000000000000000e+00 0.0000000000000000e+00  0.0000000000000000e+00 0.0000000000000000e+00 0.0000000000000000e+00  0.0000000000000000e+00 0.0000000000000000e+00 0.0000000000000000e+00  0.0000000000000000e+00 0.0000000000000000e+00 0.0000000000000000e+00  0.0000000000000000e+00 0.0000000000000000e+00 0.0000000000000000e+00  0.0000000000000000e+00 0.0000000000000000e+00 0.0000000000000000e+00  0.0000000000000000e+00 0.0000000000000000e+00 0.0000000000000000e+00  0.0000000000000000e+00 0.0000000000000000e+00 0.0000000000000000e+00  0.0000000000000000e+00 0.0000000000000000e+00 0.0000000000000000e+00  0.0000000000000000e+00 0.0000000000000000e+00 0.0000000000000000e+00  0.0000000000000000e+00 0.0000000000000000e+00 0.0000000000000000e+00  0.0000000000000000e+00 0.0000000000000000e+00 0.0000000000000000e+00  0.0000000000000000e+00 0.0000000000000000e+00 0.0000000000000000e+00  0.0000000000000000e+00 0.0000000000000000e+00 0.0000000000000000e+00  0.0000000000000000e+00 0.0000000000000000e+00 0.0000000000000000e+00  0.0000000000000000e+00 0.0000000000000000e+00 0.0000000000000000e+00  0.0000000000000000e+00 0.0000000000000000e+00 0.0000000000000000e+00  0.0000000000000000e+00 0.0000000000000000e+00 0.0000000000000000e+00  0.0000000000000000e+00 0.0000000000000000e+00 0.0000000000000000e+00  0.0000000000000000e+00 0.0000000000000000e+00 0.0000000000000000e+00  0.0000000000000000e+00 0.0000000000000000e+00 0.0000000000000000e+00  0.0000000000000000e+00 0.0000000000000000e+00 0.0000000000000000e+00  0.0000000000000000e+00 0.0000000000000000e+00 0.0000000000000000e+00  0.0000000000000000e+00 0.0000000000000000e+00 0.0000000000000000e+00  0.0000000000000000e+00 0.0000000000000000e+00 0.0000000000000000e+00  0.0000000000000000e+00 0.0000000000000000e+00 0.0000000000000000e+00  0.0000000000000000e+00 0.0000000000000000e+00 0.0000000000000000e+00  -5.8589255624218937e-06 5.8113112904322348e-06 0.0000000000000000e+00  -1.2401486539039580e-05 1.2487192143647118e-05 0.0000000000000000e+00  -1.8164477659601458e-05 2.3128134016962800e-05 0.0000000000000000e+00  -2.4277395435532905e-05 3.7983363941566498e-05 0.0000000000000000e+00  -2.9348347114700242e-05 5.6259003535376532e-05 0.0000000000000000e+00  -3.4913032197261997e-05 7.8271664379337024e-05 0.0000000000000000e+00  -3.9362007355803521e-05 1.0296830149274561e-04 0.0000000000000000e+00  -4.3568824466328007e-05 1.3113025602899268e-04 0.0000000000000000e+00  -4.8235816676979137e-05 1.6185534726650646e-04 0.0000000000000000e+00  -5.1750112178137430e-05 1.9516248424458163e-04 0.0000000000000000e+00  -5.5841247834962591e-05 2.3097674455455070e-04 0.0000000000000000e+00  -5.8873956350907588e-05 2.6896820322357676e-04 0.0000000000000000e+00  -6.2267186962398381e-05 3.0903313597500291e-04 0.0000000000000000e+00  -6.4915471315427195e-05 3.5070296472666687e-04 0.0000000000000000e+00  -6.7365395211789404e-05 3.9427791253690038e-04 0.0000000000000000e+00  -6.9993484963430652e-05 4.3922932592142393e-04 0.0000000000000000e+00  -7.1938618580985887e-05 4.8550613412561765e-04 0.0000000000000000e+00  -7.4096387972909743e-05 5.3305066891060158e-04 0.0000000000000000e+00  -7.5669518941873980e-05 5.8160122083837065e-04 0.0000000000000000e+00  -7.7373491714890260e-05 6.3109946044742388e-04 0.0000000000000000e+00  -7.8680395628630834e-05 6.8139455967656398e-04 0.0000000000000000e+00  -7.9993907831686837e-05 7.3244421069879192e-04 0.0000000000000000e+00  -8.1021950760551122e-05 7.8399520299730701e-04 0.0000000000000000e+00  -8.1930653744623848e-05 8.3615488234659323e-04 0.0000000000000000e+00  -8.2845019506035646e-05 8.8870426563092831e-04 0.0000000000000000e+00  -8.3558610811682038e-05 9.4165630412208572e-04 0.0000000000000000e+00  -8.4209409340909916e-05 9.9496003786098998e-04 0.0000000000000000e+00  -8.4745039995053292e-05 1.0484914758221665e-03 0.0000000000000000e+00  -8.5221036534898387e-05 1.1022800595351767e-03 0.0000000000000000e+00  -8.5609223369930123e-05 1.1562150705510153e-03 0.0000000000000000e+00  -8.5945152197576825e-05 1.2103167877750756e-03 0.0000000000000000e+00  -8.6213436774236485e-05 1.2644954093978058e-03 0.0000000000000000e+00  -8.6439198435319111e-05 1.3187699235459249e-03 0.0000000000000000e+00  -8.6613642004259615e-05 1.3730706568984992e-03 0.0000000000000000e+00  -8.6752564168252126e-05 1.4274191740432651e-03 0.0000000000000000e+00  -8.6860744877401600e-05 1.4817674179305363e-03 0.0000000000000000e+00  -8.6945483567780533e-05 1.5361295415181710e-03 0.0000000000000000e+00  -8.7012722589945263e-05 1.5904805174755665e-03 0.0000000000000000e+00  -8.7065127378517789e-05 1.6448298168816229e-03 0.0000000000000000e+00  -8.7110730492868002e-05 1.6991687923057610e-03 0.0000000000000000e+00  -8.7150576912993144e-05 1.7535009773077853e-03 0.0000000000000000e+00  -8.7190759522569767e-05 1.8078292259540594e-03 0.0000000000000000e+00  -8.7227059363710992e-05 1.8621600732318065e-03 0.0000000000000000e+00  -8.7265880482089404e-05 1.9164948629332456e-03 0.0000000000000000e+00  -8.7306120120760731e-05 1.9708429156723101e-03 0.0000000000000000e+00  -8.7340760037530268e-05 2.0252000492886712e-03 0.0000000000000000e+00  -5.1002264379572492e-05 2.0795819027345790e-03 0.0000000000000000e+00  2.1803894281055293e-05 2.0796403203629144e-03 0.0000000000000000e+00  5.8268413763721329e-05 2.0252681644515403e-03 0.0000000000000000e+00  5.8286179005739001e-05 1.9708934814605273e-03 0.0000000000000000e+00  5.8311623276712771e-05 1.9165338963136273e-03 0.0000000000000000e+00  5.8339183379879083e-05 1.8621795134694877e-03 0.0000000000000000e+00  5.8372359160459175e-05 1.8078269846282166e-03 0.0000000000000000e+00  5.8417178947115433e-05 1.7534722790797565e-03 0.0000000000000000e+00  5.8468699830083203e-05 1.6991112399697931e-03 0.0000000000000000e+00  5.8528507052713150e-05 1.6447429701735420e-03 0.0000000000000000e+00  5.8594187378161573e-05 1.5903628704683095e-03 0.0000000000000000e+00  5.8664950723677714e-05 1.5359719358295119e-03 0.0000000000000000e+00  5.8734867933490348e-05 1.4815744632849009e-03 0.0000000000000000e+00  5.8809599313978875e-05 1.4271775171379112e-03 0.0000000000000000e+00  5.8869721435868193e-05 1.3727909755394329e-03 0.0000000000000000e+00  5.8933844126624814e-05 1.3184333109102933e-03 0.0000000000000000e+00  5.8959839931890793e-05 1.2641181105149315e-03 0.0000000000000000e+00  5.8994711439429014e-05 1.2098784600799242e-03 0.0000000000000000e+00  5.8961610529073315e-05 1.1557329118007224e-03 0.0000000000000000e+00  5.8948550104089775e-05 1.1017283733336966e-03 0.0000000000000000e+00  5.8831258184894843e-05 1.0478903802420153e-03 0.0000000000000000e+00  5.8751240916915731e-05 9.9427858603289379e-04 0.0000000000000000e+00  5.8517447070462542e-05 9.4092334653141313e-04 0.0000000000000000e+00  5.8343001248980716e-05 8.8789994616246515e-04 0.0000000000000000e+00  5.7967009654202638e-05 8.3525577429775203e-04 0.0000000000000000e+00  5.7637152900170617e-05 7.8302128576065197e-04 0.0000000000000000e+00  5.7240969998805352e-05 7.3139716245413712e-04 0.0000000000000000e+00  5.6606287019935352e-05 6.8024745653218481e-04 0.0000000000000000e+00  5.5971137337661253e-05 6.2988905255564442e-04 0.0000000000000000e+00  5.5108896789714952e-05 5.8027376133404579e-04 0.0000000000000000e+00  5.4206212803671104e-05 5.3164621822004239e-04 0.0000000000000000e+00  5.3040298030416793e-05 4.8401472343748662e-04 0.0000000000000000e+00  5.1827564068557254e-05 4.3758254502942448e-04 0.0000000000000000e+00  5.0141163431466405e-05 3.9262985598750058e-04 0.0000000000000000e+00  4.8640388369500224e-05 3.4893478859756547e-04 0.0000000000000000e+00  4.6978762868262250e-05 3.0719872507210035e-04 0.0000000000000000e+00  4.4701749328750848e-05 2.6690136512637613e-04 0.0000000000000000e+00  4.2487363345497815e-05 2.2888096629433775e-04 0.0000000000000000e+00  3.9819200118590298e-05 1.9295344039755457e-04 0.0000000000000000e+00  3.7165777194956321e-05 1.5943226253948409e-04 0.0000000000000000e+00  3.3732933924581938e-05 1.2876313279344012e-04 0.0000000000000000e+00  3.0732846188567610e-05 1.0045444110073674e-04 0.0000000000000000e+00  2.7546256333875133e-05 7.5668063132736406e-05 0.0000000000000000e+00  2.3347837245195636e-05 5.3460971229817449e-05 0.0000000000000000e+00  1.9463487156220359e-05 3.5016454724889970e-05 0.0000000000000000e+00  1.4646701524785365e-05 2.0274683133204833e-05 0.0000000000000000e+00  1.0277351315564949e-05 9.5594197312985639e-06 0.0000000000000000e+00  4.8790260355363140e-06 3.0011482110760881e-06 0.0000000000000000e+00  -5.9983460888381210e-07 4.7583486748141596e-06 0.0000000000000000e+00  -1.5481244474284495e-05 1.9979221214258833e-03 0.0000000000000000e+00  -1.5972344902071474e-05 1.8940415744508514e-03 0.0000000000000000e+00  -1.5176442174966479e-05 1.7243742368328987e-03 0.0000000000000000e+00  -2.0058382876599433e-06 2.6117975026770752e-05 0.0000000000000000e+00  -1.4253927284445285e-05 1.6176066927970473e-03 0.0000000000000000e+00  -2.9308785524917216e-06 6.1402999250381257e-05 0.0000000000000000e+00  -1.4114265768329552e-05 1.5088558177883261e-03 0.0000000000000000e+00  -4.6506296241945701e-06 1.4441696497495115e-04 0.0000000000000000e+00  -6.3089371032290753e-06 2.1021102851484546e-04 0.0000000000000000e+00  -1.3931219018229254e-05 1.4000920718431240e-03 0.0000000000000000e+00  -8.0355427554259675e-06 4.1668168030440246e-04 0.0000000000000000e+00  -1.3403141671006002e-05 1.1829354361113616e-03 0.0000000000000000e+00  -6.6418580489332094e-06 2.8319726089025315e-04 0.0000000000000000e+00  -9.6935658304803081e-06 5.0767011768925114e-04 0.0000000000000000e+00  -1.3047321933443085e-05 1.0749372557999697e-03 0.0000000000000000e+00  -1.3696105882423040e-05 1.2913992986603642e-03 0.0000000000000000e+00  -1.0490397325039273e-05 6.0501876873889256e-04 0.0000000000000000e+00  -1.2619090094974477e-05 9.6771859689641479e-04 0.0000000000000000e+00  -1.0288567636628946e-05 7.0168420872896656e-04 0.0000000000000000e+00  -1.3024607885178905e-05 8.6384585269652094e-04 0.0000000000000000e+00  -1.1632306532690576e-05 7.7898694080079931e-04 0.0000000000000000e+00  -8.1744716120978189e-06 3.4527783701033681e-04 0.0000000000000000e+00  -1.4295772585666784e-05 1.8125847360853382e-03 0.0000000000000000e+00  -4.1957675219399846e-06 9.8088515780056089e-05 0.0000000000000000e+00  9.8361291442922539e-06 1.9456113039903362e-03 0.0000000000000000e+00  3.6965816388727175e-06 1.3140875846072908e-05 0.0000000000000000e+00  6.9866660385417362e-06 1.5632163167479739e-03 0.0000000000000000e+00  6.8621796974436704e-06 1.6719560620216127e-03 0.0000000000000000e+00  -1.1122877449300145e-05 4.3580845731023719e-05 0.0000000000000000e+00  -1.8639419007386363e-05 1.7598215032423102e-04 0.0000000000000000e+00  7.5346361112152303e-06 1.2370763662668414e-03 0.0000000000000000e+00  7.1415869065281395e-06 1.4544425199433319e-03 0.0000000000000000e+00  -2.7213700621309343e-05 4.6093737733665175e-04 0.0000000000000000e+00  7.7570234799790394e-06 1.1288007020456570e-03 0.0000000000000000e+00  -2.1462747821559352e-05 2.4777341824467296e-04 0.0000000000000000e+00  -2.8916679800086989e-05 5.5614826530087232e-04 0.0000000000000000e+00  7.9863093090714700e-06 1.0211385891931253e-03 0.0000000000000000e+00  7.3265219071989155e-06 1.3456892222642471e-03 0.0000000000000000e+00  -3.4644930638718651e-05 6.5477879507431494e-04 0.0000000000000000e+00  8.2183340277894013e-06 9.1443812843291063e-04 0.0000000000000000e+00  -1.0397936305175856e-06 1.3948272369698674e-06 0.0000000000000000e+00  7.4104426640051650e-07 6.5327938557122994e-07 0.0000000000000000e+00  -3.2277274997817096e-05 2.0406771816488685e-03 0.0000000000000000e+00  -6.8681403245040664e-06 1.4318954628412660e-05 0.0000000000000000e+00  1.3178777216761757e-05 8.2082300924233025e-04 0.0000000000000000e