<?xml version="1.0"?>
<VTKFile type="UnstructuredGrid"  version="0.1"  >
<UnstructuredGrid>
<Piece  NumberOfPoints="1419" NumberOfCells="2698">
<Points>
<DataArray  type="Float64"  NumberOfComponents="3"  format="ascii">0 0 0  0 0.41 0  2.5 0 0  2.5 0.41 0  0.6 0.19 0  0.6 0.21 0  0.25 0.2 0  0.15 0.2 0  0.2489897948556636 0.21 0  0.2489897948556636 0.19 0  0.6 0.2 0  0 0.3807142857143437 0  0 0.3514285714286952 0  0 0.3221428571430699 0  0 0.29285714285744 0  0 0.2635714285718054 0  0 0.2342857142861561 0  0 0.2050000000005308 0  0 0.175714285714732 0  0 0.1464285714289574 0  0 0.1171428571431897 0  0 0.08785714285737878 0  0 0.05857142857161107 0  0 0.02928571428580012 0  0.03015443760436003 0 0  0.06140001986583606 0 0  0.09377624077125973 0 0  0.1273239957535082 0 0  0.1620856860351972 0 0  0.1981052433264291 0 0  0.235428184091502 0 0  0.2741016576309132 0 0  0.3141745521465447 0 0  0.3556974926295285 0 0  0.3987229542472677 0 0  0.4433053055141081 0 0  0.4895008759286886 0 0  0.5373680609405097 0 0  0.5869673343216626 0 0  0.6383613676634521 0 0  0.6916151138468254 0 0  0.7467958595648856 0 0  0.8039733463919316 0 0  0.8632198139502143 0 0  0.9246101326867038 0 0  0.9882218810934433 0 0  1.054135445558498 0 0  1.122434100542598 0 0  1.193204177141305 0 0  1.266535089879536 0 0  1.342519516046404 0 0  1.421253448503939 0 0  1.502836389106271 0 0  1.587371439758838 0 0  1.674965418777374 0 0  1.765729001825544 0 0  1.859776908880082 0 0  1.957227977487062 0 0  2.058205329869943 0 0  2.162836591189951 0 0  2.271253957290865 0 0  2.383594446803425 0 0  2.5 0.1024999999997612 0  2.5 0.2049999999994743 0  2.5 0.3074999999997183 0  2.383594446803656 0.41 0  2.271253957291315 0.41 0  2.162836591190598 0.41 0  2.058205329870775 0.41 0  1.957227977488067 0.41 0  1.859776908881246 0.41 0  1.765729001826854 0.41 0  1.674965418778818 0.41 0  1.58737143976041 0.41 0  1.502836389107956 0.41 0  1.421253448505726 0.41 0  1.342519516048286 0.41 0  1.266535089881505 0.41 0  1.193204177143353 0.41 0  1.122434100544716 0.41 0  1.05413544556068 0.41 0  0.9882218810956305 0.41 0  0.9246101326886647 0.41 0  0.8632198139519631 0.41 0  0.8039733463934788 0.41 0  0.7467958595662458 0.41 0  0.6916151138480078 0.41 0  0.6383613676644679 0.41 0  0.5869673343225223 0.41 0  0.5373680609412221 0.41 0  0.4895008759292634 0.41 0  0.4433053055145528 0.41 0  0.3987229542475914 0.41 0  0.3556974926297398 0.41 0  0.3141745521466497 0.41 0  0.2741016576310038 0.41 0  0.2354281840915826 0.41 0  0.1981052433265003 0.41 0  0.1620856860352591 0.41 0  0.1273239957535623 0.41 0  0.09377624077128965 0.41 0  0.06140001986584975 0.41 0  0.03015443760436654 0.41 0  0.2497468076502589 0.2050254481002335 0  0.2497468076502614 0.1949745518997913 0  0.2469965252529372 0.1829317073451959 0  0.2439893735792749 0.1762316384219906 0  0.2400332147834255 0.1700443375285386 0  0.2352133972704371 0.1645032867342007 0  0.2296339016332438 0.1597280261969788 0  0.2234150974217223 0.1558215752574715 0  0.2166911463437691 0.1528682099456123 0  0.2096071079204251 0.1509316448471593 0  0.2023158100364996 0.1500536585536553 0  0.194974551899914 0.1502531923497262 0  0.1877417105387872 0.1515259415822739 0  0.1807733240461124 0.153844448527136 0  0.1742197252835808 0.15715869474974 0  0.1682222986673531 0.1613971801805478 0  0.162910430003803 0.1664684656256651 0  0.1583987151779087 0.1722631454351573 0  0.1547844879126891 0.178656207771761 0  0.1521457199348551 0.1855097315605723 0  0.1505393388476355 0.1926758619366523 0  0.1505393388476328 0.2073241380633295 0  0.1521457199348437 0.2144902684393899 0  0.1547844879126531 0.221343792228163 0  0.1583987151778488 0.2277368545647528 0  0.1629104300036858 0.2335315343742052 0  0.1682222986671726 0.2386028198193036 0  0.1742197252833576 0.2428413052501257 0  0.1807733240458683 0.2461555514727623 0  0.1877417105384929 0.2484740584176516 0  0.1949745518995776 0.2497468076502398 0  0.202315810036185 0.2499463414463592 0  0.2096071079201568 0.2490683551528932 0  0.2166911463435495 0.2471317900544655 0  0.2234150974215506 0.2441784247426195 0  0.2296339016331197 0.2402719738031125 0  0.2352133972703547 0.2354967132658811 0  0.2400332147833751 0.2299556624715287 0  0.2439893735792577 0.2237683615780412 0  0.246996525252926 0.2170682926548348 0  0.25645809709277 0.21 0  0.2639263993298655 0.21 0  0.271394701566961 0.21 0  0.2788630038040554 0.21 0  0.2863313060411479 0.21 0  0.2937996082782405 0.21 0  0.301267910515333 0.21 0  0.3087362127524279 0.21 0  0.3162045149895234 0.21 0  0.3236728172265972 0.21 0  0.3311411194636928 0.21 0  0.3386094217007701 0.21 0  0.3460777239378666 0.21 0  0.3535460261749672 0.21 0  0.3610143284120516 0.21 0  0.3684826306491596 0.21 0  0.3759509328862226 0.21 0  0.383419235123329 0.21 0  0.3908875373604028 0.21 0  0.3983558395975142 0.21 0  0.4058241418345938 0.21 0  0.4132924440716992 0.21 0  0.4207607463087888 0.21 0  0.4282290485459029 0.21 0  0.4356973507830418 0.21 0  0.4431656530201649 0.21 0  0.4506339552573136 0.21 0  0.4581022574944306 0.21 0  0.4655705597315852 0.21 0  0.4730388619686996 0.21 0  0.480507164205851 0.21 0  0.4879754664429498 0.21 0  0.4954437686800938 0.21 0  0.502912070917267 0.21 0  0.5103803731544119 0.21 0  0.5178486753915261 0.21 0  0.5253169776286404 0.21 0  0.5327852798657868 0.21 0  0.5402535821029386 0.21 0  0.54772188434007 0.21 0  0.5551901865771842 0.21 0  0.5626584888143201 0.21 0  0.5701267910514778 0.21 0  0.5775950932886138 0.21 0  0.5850633955257281 0.21 0  0.5925316977628483 0.21 0  0.6 0.2050000000000054 0  0.6 0.1950000000000217 0  0.5925316977628897 0.19 0  0.5850633955257988 0.19 0  0.5775950932887378 0.19 0  0.5701267910515998 0.19 0  0.5626584888145268 0.19 0  0.5551901865773963 0.19 0  0.547721884340339 0.19 0  0.5402535821032429 0.19 0  0.5327852798661811 0.19 0  0.5253169776290537 0.19 0  0.5178486753919799 0.19 0  0.5103803731549078 0.19 0  0.502912070917822 0.19 0  0.4954437686807294 0.19 0  0.4879754664436223 0.19 0  0.4805071642065402 0.19 0  0.4730388619694271 0.19 0  0.4655705597323621 0.19 0  0.4581022574952563 0.19 0  0.4506339552581777 0.19 0  0.4431656530210671 0.19 0  0.4356973507839815 0.19 0  0.4282290485468779 0.19 0  0.4207607463097617 0.19 0  0.4132924440726327 0.19 0  0.4058241418354857 0.19 0  0.3983558395983636 0.19 0  0.3908875373612097 0.19 0  0.3834192351240934 0.19 0  0.3759509328869369 0.19 0  0.3684826306498175 0.19 0  0.361014328412667 0.19 0  0.3535460261755617 0.19 0  0.3460777239384295 0.19 0  0.3386094217012945 0.19 0  0.3311411194641595 0.19 0  0.3236728172270245 0.19 0  0.3162045149898895 0.19 0  0.3087362127527544 0.19 0  0.3012679105156187 0.19 0  0.2937996082784807 0.19 0  0.2863313060413428 0.19 0  0.2788630038042048 0.19 0  0.2713947015670686 0.19 0  0.2639263993299336 0.19 0  0.2564580970927985 0.19 0  0.2607803159922026 0.2000727136295815 0  0.5887803774232762 0.2001272386983733 0  0.5745072403740523 0.2002044435018727 0  0.5511891430099709 0.2001122610077113 0  0.2751288526855082 0.20000000000002 0  0.5365194309847112 0.1999999999999436 0  0.2894621222999649 0.1998691686390484 0  0.5215828265105155 0.1999999999999228 0  0.3127789816668748 0.1998657885438805 0  0.3274069683451451 0.2000000000000796 0  0.5066462220363641 0.199999999999908 0  0.3650630746574081 0.199866017807523 0  0.476773013087985 0.1999999999998713 0  0.3417402379596385 0.1998691686391011 0  0.3796850840047755 0.200000000000134 0  0.4618364086138087 0.1999999999998546 0  0.4917096175621762 0.1999999999998808 0  0.3946216884789568 0.2000000000001512 0  0.446899804139621 0.1999999999998389 0  0.4089549580935208 0.1998691686391595 0  0.4322718174608562 0.200127451265745 0  0.4201487168029707 0.1999966199048527 0  0.3528922713220932 0.2000185703532356 0  0.5633122436674589 0.1999814296467508 0  0.3006558810093873 0.1999966199048318 0  0.5815926498168407 0.1966545283159175 0  0.2677053789419034 0.1964246479135325 0  0.5290511287476175 0.1970915826863981 0  0.5439877332217911 0.197091582686394 0  0.2825131256993216 0.2035478995978015 0  0.3199386661080599 0.202908417313604 0  0.4842413153250809 0.1970915826863873 0  0.5141145242734466 0.1970915826863843 0  0.3722167817676917 0.2029084173136195 0  0.4693047108508938 0.1970915826863783 0  0.3348752705822316 0.202908417313609 0  0.3871533862418661 0.2029084173136212 0  0.4543681063767183 0.1970915826863795 0  0.4991779197992749 0.1970915826863902 0  0.4020059614928624 0.203547899597858 0  0.4394315019025246 0.1970915826863714 0  0.2550657455369551 0.2034088125358657 0  0.2548908499171161 0.1966940311614271 0  0.5946539510196798 0.2024302972968126 0  0.267698176732111 0.2039977513680092 0  0.4261685417851465 0.196409292431739 0  0.3590076176283495 0.196411355804271 0  0.5571672426447437 0.2036011176410121 0  0.3066757059912147 0.1964092924317024 0  0.594380730180568 0.1966558399668133 0  0.4842413153245942 0.2040749161535287 0  0.4693047108503577 0.2040749161535231 0  0.3871533862424271 0.1959250838464788 0  0.372246743208829 0.1959123236376545 0  0.5141145242731028 0.2040749161535395 0  0.4543681063761134 0.2040749161535186 0  0.4019979587101454 0.1959834479682427 0  0.4394608940728603 0.2040870543693135 0  0.5439623148931173 0.2040856076781014 0  0.5290511287473298 0.2040749161535501 0  0.4991779197988497 0.2040749161535382 0  0.3347912413592433 0.1959225448935183 0  0.3199680582793816 0.1959123018030061 0  0.2825051229162361 0.1959834479681729 0  0.3590471196690275 0.2036304442587945 0  0.5571594006495384 0.1963685282145804 0  0.3067669986803285 0.203627750582736 0  0.4262598344738712 0.2036568242185335 0  0.5814408164431408 0.2041285596160068 0  0.5688286748170428 0.1961819304477386 0  0.4145905603063645 0.2038180695522843 0  0.3473758401724931 0.2038180695522752 0  0.2950977245128307 0.2038180695522663 0  0.5688286748170693 0.203818069552238 0  0.2950977245127906 0.1961819304477774 0  0.3473758401723931 0.1961819304478349 0  0.4145905603061963 0.1961819304479011 0  0.2601812407614425 0.2056861609747042
[...]
<PointData  Vectors="f_40-1"> 
<DataArray  type="Float64"  Name="f_40-1"  NumberOfComponents="3" format="ascii">0.0000000000000000e+00 0.0000000000000000e+00 0.0000000000000000e+00  0.0000000000000000e+00 0.0000000000000000e+00 0.0000000000000000e+00  0.0000000000000000e+00 0.0000000000000000e+00 0.0000000000000000e+00  0.0000000000000000e+00 0.0000000000000000e+00 0.0000000000000000e+00  5.8308038744130020e-05 2.0803610696018254e-03 0.0000000000000000e+00  -8.7374815289326956e-05 2.0802354548468535e-03 0.0000000000000000e+00  0.0000000000000000e+00 0.0000000000000000e+00 0.0000000000000000e+00  0.0000000000000000e+00 0.0000000000000000e+00 0.0000000000000000e+00  0.0000000000000000e+00 0.0000000000000000e+00 0.0000000000000000e+00  0.0000000000000000e+00 0.0000000000000000e+00 0.0000000000000000e+00  -1.4604833239040861e-05 2.0802905872596067e-03 0.0000000000000000e+00  0.0000000000000000e+00 0.0000000000000000e+00 0.0000000000000000e+00  0.0000000000000000e+00 0.0000000000000000e+00 0.0000000000000000e+00  0.0000000000000000e+00 0.0000000000000000e+00 0.0000000000000000e+00  0.0000000000000000e+00 0.0000000000000000e+00 0.0000000000000000e+00  0.0000000000000000e+00 0.0000000000000000e+00 0.0000000000000000e+00  0.0000000000000000e+00 0.0000000000000000e+00 0.0000000000000000e+00  0.0000000000000000e+00 0.0000000000000000e+00 0.0000000000000000e+00  0.0000000000000000e+00 0.0000000000000000e+00 0.0000000000000000e+00  0.0000000000000000e+00 0.0000000000000000e+00 0.0000000000000000e+00  0.0000000000000000e+00 0.0000000000000000e+00 0.0000000000000000e+00  0.0000000000000000e+00 0.0000000000000000e+00 0.0000000000000000e+00  0.0000000000000000e+00 0.0000000000000000e+00 0.0000000000000000e+00  0.0000000000000000e+00 0.0000000000000000e+00 0.0000000000000000e+00  0.0000000000000000e+00 0.0000000000000000e+00 0.0000000000000000e+00  0.0000000000000000e+00 0.0000000000000000e+00 0.0000000000000000e+00  0.0000000000000000e+00 0.0000000000000000e+00 0.0000000000000000e+00  0.0000000000000000e+00 0.0000000000000000e+00 0.0000000000000000e+00  0.0000000000000000e+00 0.0000000000000000e+00 0.0000000000000000e+00  0.0000000000000000e+00 0.0000000000000000e+00 0.0000000000000000e+00  0.0000000000000000e+00 0.0000000000000000e+00 0.0000000000000000e+00  0.0000000000000000e+00 0.0000000000000000e+00 0.0000000000000000e+00  0.0000000000000000e+00 0.0000000000000000e+00 0.0000000000000000e+00  0.0000000000000000e+00 0.0000000000000000e+00 0.0000000000000000e+00  0.0000000000000000e+00 0.0000000000000000e+00 0.0000000000000000e+00  0.0000000000000000e+00 0.0000000000000000e+00 0.0000000000000000e+00  0.0000000000000000e+00 0.0000000000000000e+00 0.0000000000000000e+00  0.0000000000000000e+00 0.0000000000000000e+00 0.0000000000000000e+00  0.0000000000000000e+00 0.0000000000000000e+00 0.0000000000000000e+00  0.0000000000000000e+00 0.0000000000000000e+00 0.0000000000000000e+00  0.0000000000000000e+00 0.0000000000000000e+00 0.0000000000000000e+00  0.0000000000000000e+00 0.0000000000000000e+00 0.0000000000000000e+00  0.0000000000000000e+00 0.0000000000000000e+00 0.0000000000000000e+00  0.0000000000000000e+00 0.0000000000000000e+00 0.0000000000000000e+00  0.0000000000000000e+00 0.0000000000000000e+00 0.0000000000000000e+00  0.0000000000000000e+00 0.0000000000000000e+00 0.0000000000000000e+00  0.0000000000000000e+00 0.0000000000000000e+00 0.0000000000000000e+00  0.0000000000000000e+00 0.0000000000000000e+00 0.0000000000000000e+00  0.0000000000000000e+00 0.0000000000000000e+00 0.0000000000000000e+00  0.0000000000000000e+00 0.0000000000000000e+00 0.0000000000000000e+00  0.0000000000000000e+00 0.0000000000000000e+00 0.0000000000000000e+00  0.0000000000000000e+00 0.0000000000000000e+00 0.0000000000000000e+00  0.0000000000000000e+00 0.0000000000000000e+00 0.0000000000000000e+00  0.0000000000000000e+00 0.0000000000000000e+00 0.0000000000000000e+00  0.0000000000000000e+00 0.0000000000000000e+00 0.0000000000000000e+00  0.0000000000000000e+00 0.0000000000000000e+00 0.0000000000000000e+00  0.0000000000000000e+00 0.0000000000000000e+00 0.0000000000000000e+00  0.0000000000000000e+00 0.0000000000000000e+00 0.0000000000000000e+00  0.0000000000000000e+00 0.0000000000000000e+00 0.0000000000000000e+00  0.0000000000000000e+00 0.0000000000000000e+00 0.0000000000000000e+00  0.0000000000000000e+00 0.0000000000000000e+00 0.0000000000000000e+00  0.0000000000000000e+00 0.0000000000000000e+00 0.0000000000000000e+00  0.0000000000000000e+00 0.0000000000000000e+00 0.0000000000000000e+00  0.0000000000000000e+00 0.0000000000000000e+00 0.0000000000000000e+00  0.0000000000000000e+00 0.0000000000000000e+00 0.0000000000000000e+00  0.0000000000000000e+00 0.0000000000000000e+00 0.0000000000000000e+00  0.0000000000000000e+00 0.0000000000000000e+00 0.0000000000000000e+00  0.0000000000000000e+00 0.0000000000000000e+00 0.0000000000000000e+00  0.0000000000000000e+00 0.0000000000000000e+00 0.0000000000000000e+00  0.0000000000000000e+00 0.0000000000000000e+00 0.0000000000000000e+00  0.0000000000000000e+00 0.0000000000000000e+00 0.0000000000000000e+00  0.0000000000000000e+00 0.0000000000000000e+00 0.0000000000000000e+00  0.0000000000000000e+00 0.0000000000000000e+00 0.0000000000000000e+00  0.0000000000000000e+00 0.0000000000000000e+00 0.0000000000000000e+00  0.0000000000000000e+00 0.0000000000000000e+00 0.0000000000000000e+00  0.0000000000000000e+00 0.0000000000000000e+00 0.0000000000000000e+00  0.0000000000000000e+00 0.0000000000000000e+00 0.0000000000000000e+00  0.0000000000000000e+00 0.0000000000000000e+00 0.0000000000000000e+00  0.0000000000000000e+00 0.0000000000000000e+00 0.0000000000000000e+00  0.0000000000000000e+00 0.0000000000000000e+00 0.0000000000000000e+00  0.0000000000000000e+00 0.0000000000000000e+00 0.0000000000000000e+00  0.0000000000000000e+00 0.0000000000000000e+00 0.0000000000000000e+00  0.0000000000000000e+00 0.0000000000000000e+00 0.0000000000000000e+00  0.0000000000000000e+00 0.0000000000000000e+00 0.0000000000000000e+00  0.0000000000000000e+00 0.0000000000000000e+00 0.0000000000000000e+00  0.0000000000000000e+00 0.0000000000000000e+00 0.0000000000000000e+00  0.0000000000000000e+00 0.0000000000000000e+00 0.0000000000000000e+00  0.0000000000000000e+00 0.0000000000000000e+00 0.0000000000000000e+00  0.0000000000000000e+00 0.0000000000000000e+00 0.0000000000000000e+00  0.0000000000000000e+00 0.0000000000000000e+00 0.0000000000000000e+00  0.0000000000000000e+00 0.0000000000000000e+00 0.0000000000000000e+00  0.0000000000000000e+00 0.0000000000000000e+00 0.0000000000000000e+00  0.0000000000000000e+00 0.0000000000000000e+00 0.0000000000000000e+00  0.0000000000000000e+00 0.0000000000000000e+00 0.0000000000000000e+00  0.0000000000000000e+00 0.0000000000000000e+00 0.0000000000000000e+00  0.0000000000000000e+00 0.0000000000000000e+00 0.0000000000000000e+00  0.0000000000000000e+00 0.0000000000000000e+00 0.0000000000000000e+00  0.0000000000000000e+00 0.0000000000000000e+00 0.0000000000000000e+00  0.0000000000000000e+00 0.0000000000000000e+00 0.0000000000000000e+00  0.0000000000000000e+00 0.0000000000000000e+00 0.0000000000000000e+00  0.0000000000000000e+00 0.0000000000000000e+00 0.0000000000000000e+00  0.0000000000000000e+00 0.0000000000000000e+00 0.0000000000000000e+00  0.0000000000000000e+00 0.0000000000000000e+00 0.0000000000000000e+00  0.0000000000000000e+00 0.0000000000000000e+00 0.0000000000000000e+00  0.0000000000000000e+00 0.0000000000000000e+00 0.0000000000000000e+00  0.0000000000000000e+00 0.0000000000000000e+00 0.0000000000000000e+00  0.0000000000000000e+00 0.0000000000000000e+00 0.0000000000000000e+00  0.0000000000000000e+00 0.0000000000000000e+00 0.0000000000000000e+00  0.0000000000000000e+00 0.0000000000000000e+00 0.0000000000000000e+00  0.0000000000000000e+00 0.0000000000000000e+00 0.0000000000000000e+00  0.0000000000000000e+00 0.0000000000000000e+00 0.0000000000000000e+00  0.0000000000000000e+00 0.0000000000000000e+00 0.0000000000000000e+00  0.0000000000000000e+00 0.0000000000000000e+00 0.0000000000000000e+00  0.0000000000000000e+00 0.0000000000000000e+00 0.0000000000000000e+00  0.0000000000000000e+00 0.0000000000000000e+00 0.0000000000000000e+00  0.0000000000000000e+00 0.0000000000000000e+00 0.0000000000000000e+00  0.0000000000000000e+00 0.0000000000000000e+00 0.0000000000000000e+00  0.0000000000000000e+00 0.0000000000000000e+00 0.0000000000000000e+00  0.0000000000000000e+00 0.0000000000000000e+00 0.0000000000000000e+00  0.0000000000000000e+00 0.0000000000000000e+00 0.0000000000000000e+00  0.0000000000000000e+00 0.0000000000000000e+00 0.0000000000000000e+00  0.0000000000000000e+00 0.0000000000000000e+00 0.0000000000000000e+00  0.0000000000000000e+00 0.0000000000000000e+00 0.0000000000000000e+00  0.0000000000000000e+00 0.0000000000000000e+00 0.0000000000000000e+00  0.0000000000000000e+00 0.0000000000000000e+00 0.0000000000000000e+00  0.0000000000000000e+00 0.0000000000000000e+00 0.0000000000000000e+00  0.0000000000000000e+00 0.0000000000000000e+00 0.0000000000000000e+00  0.0000000000000000e+00 0.0000000000000000e+00 0.0000000000000000e+00  0.0000000000000000e+00 0.0000000000000000e+00 0.0000000000000000e+00  0.0000000000000000e+00 0.0000000000000000e+00 0.0000000000000000e+00  0.0000000000000000e+00 0.0000000000000000e+00 0.0000000000000000e+00  0.0000000000000000e+00 0.0000000000000000e+00 0.0000000000000000e+00  0.0000000000000000e+00 0.0000000000000000e+00 0.0000000000000000e+00  0.0000000000000000e+00 0.0000000000000000e+00 0.0000000000000000e+00  0.0000000000000000e+00 0.0000000000000000e+00 0.0000000000000000e+00  0.0000000000000000e+00 0.0000000000000000e+00 0.0000000000000000e+00  0.0000000000000000e+00 0.0000000000000000e+00 0.0000000000000000e+00  0.0000000000000000e+00 0.0000000000000000e+00 0.0000000000000000e+00  0.0000000000000000e+00 0.0000000000000000e+00 0.0000000000000000e+00  0.0000000000000000e+00 0.0000000000000000e+00 0.0000000000000000e+00  0.0000000000000000e+00 0.0000000000000000e+00 0.0000000000000000e+00  0.0000000000000000e+00 0.0000000000000000e+00 0.0000000000000000e+00  0.0000000000000000e+00 0.0000000000000000e+00 0.0000000000000000e+00  -5.8599336506707555e-06 5.8126788824394184e-06 0.0000000000000000e+00  -1.2403693892273877e-05 1.2490150157720360e-05 0.0000000000000000e+00  -1.8167723845459236e-05 2.3133714183415054e-05 0.0000000000000000e+00  -2.4281819719565751e-05 3.7992656417680748e-05 0.0000000000000000e+00  -2.9353713801994961e-05 5.6272953104829556e-05 0.0000000000000000e+00  -3.4919533296702624e-05 7.8291304582612210e-05 0.0000000000000000e+00  -3.9369364384320923e-05 1.0299440962752130e-04 0.0000000000000000e+00  -4.3577015354362739e-05 1.3116385885127534e-04 0.0000000000000000e+00  -4.8245027471236315e-05 1.6189722668528503e-04 0.0000000000000000e+00  -5.1760033719622139e-05 1.9521346719610953e-04 0.0000000000000000e+00  -5.5852120141202528e-05 2.3103763970608836e-04 0.0000000000000000e+00  -5.8885472661986383e-05 2.6903976940746786e-04 0.0000000000000000e+00  -6.2279530910215873e-05 3.0911610238213393e-04 0.0000000000000000e+00  -6.4928415678345612e-05 3.5079792925891962e-04 0.0000000000000000e+00  -6.7378917566554019e-05 3.9438561479656010e-04 0.0000000000000000e+00  -7.0007706210087556e-05 4.3935032201800512e-04 0.0000000000000000e+00  -7.1953308111660948e-05 4.8564100466313103e-04 0.0000000000000000e+00  -7.4111694986213255e-05 5.3319997207482508e-04 0.0000000000000000e+00  -7.5685221429315169e-05 5.8176546353676446e-04 0.0000000000000000e+00  -7.7389707024264236e-05 6.3127910979557931e-04 0.0000000000000000e+00  -7.8696966506440209e-05 6.8159007254643960e-04 0.0000000000000000e+00  -8.0010895434772704e-05 7.3265601849997178e-04 0.0000000000000000e+00  -8.1039221536347394e-05 7.8422362425229267e-04 0.0000000000000000e+00  -8.1948181562513161e-05 8.3640032370308761e-04 0.0000000000000000e+00  -8.2862847145333328e-05 8.8896699732691413e-04 0.0000000000000000e+00  -8.3576644397731587e-05 9.4193664489633153e-04 0.0000000000000000e+00  -8.4227643259806659e-05 9.9525825568985639e-04 0.0000000000000000e+00  -8.4763418984583073e-05 1.0488077959617422e-03 0.0000000000000000e+00  -8.5239551002553075e-05 1.1026147077519114e-03 0.0000000000000000e+00  -8.5627826281085734e-05 1.1565682237395826e-03 0.0000000000000000e+00  -8.5963832263137778e-05 1.2106886249350188e-03 0.0000000000000000e+00  -8.6232154170514758e-05 1.2648860653865068e-03 0.0000000000000000e+00  -8.6457941442432396e-05 1.3191795351117999e-03 0.0000000000000000e+00  -8.6632377904371729e-05 1.3734993227605536e-03 0.0000000000000000e+00  -8.6771281573860853e-05 1.4278669945704285e-03 0.0000000000000000e+00  -8.6879417687718742e-05 1.4822344618502382e-03 0.0000000000000000e+00  -8.6964101497663860e-05 1.5366158790988782e-03 0.0000000000000000e+00  -8.7031265764326183e-05 1.5909861935602002e-03 0.0000000000000000e+00  -8.7083587157885185e-05 1.6453548775725601e-03 0.0000000000000000e+00  -8.7129092494012976e-05 1.6997132643251877e-03 0.0000000000000000e+00  -8.7168835420523575e-05 1.7540648902830830e-03 0.0000000000000000e+00  -8.7208903295231686e-05 1.8084125926090110e-03 0.0000000000000000e+00  -8.7245082311450891e-05 1.8627629093776426e-03 0.0000000000000000e+00  -8.7283781262724718e-05 1.9171171756948604e-03 0.0000000000000000e+00  -8.7323892850772297e-05 1.9714847120678963e-03 0.0000000000000000e+00  -8.7358402818205061e-05 2.0258613344005640e-03 0.0000000000000000e+00  -5.1006722733581755e-05 2.0802625869864215e-03 0.0000000000000000e+00  2.1825534105422557e-05 2.0803208195897291e-03 0.0000000000000000e+00  5.8302964752244264e-05 2.0259290810926262e-03 0.0000000000000000e+00  5.8320587577473056e-05 1.9715349097221765e-03 0.0000000000000000e+00  5.8345887590786877e-05 1.9171558408371682e-03 0.0000000000000000e+00  5.8373296890041616e-05 1.8627819806698567e-03 0.0000000000000000e+00  5.8406320352024662e-05 1.8084099818608047e-03 0.0000000000000000e+00  5.8450981796068873e-05 1.7540358216620847e-03 0.0000000000000000e+00  5.8502331528222182e-05 1.6996553430085471e-03 0.0000000000000000e+00  5.8561966519888887e-05 1.6452676597718484e-03 0.0000000000000000e+00  5.8627451077579883e-05 1.5908681753636243e-03 0.0000000000000000e+00  5.8698020970881328e-05 1.5364579004352589e-03 0.0000000000000000e+00  5.8767710209845573e-05 1.4820411340304852e-03 0.0000000000000000e+00  5.8842219425156081e-05 1.4276249618968152e-03 0.0000000000000000e+00  5.8902071725525184e-05 1.3732192649260407e-03 0.0000000000000000e+00  5.8965935952941562e-05 1.3188425425031871e-03 0.0000000000000000e+00  5.8991610282330325e-05 1.2645083851757374e-03 0.0000000000000000e+00  5.9026179308022051e-05 1.2102499112520021e-03 0.0000000000000000e+00  5.8992695536031128e-05 1.1560856766657526e-03 0.0000000000000000e+00  5.8979281073548461e-05 1.1020626270121577e-03 0.0000000000000000e+00  5.8861535443545199e-05 1.0482063020582125e-03 0.0000000000000000e+00  5.8781105273791317e-05 9.9457639759732122e-04 0.0000000000000000e+00  5.8546775354098693e-05 9.4120327619758948e-04 0.0000000000000000e+00  5.8371847470198673e-05 8.8816226964292763e-04 0.0000000000000000e+00  5.7995235457644026e-05 8.3550078060387731e-04 0.0000000000000000e+00  5.7664803302817340e-05 7.8324926919046806e-04 0.0000000000000000e+00  5.7268008664462473e-05 7.3160852773427188e-04 0.0000000000000000e+00  5.6632585281646664e-05 6.8044250448284652e-04 0.0000000000000000e+00  5.5996715842505265e-05 6.3006824459821019e-04 0.0000000000000000e+00  5.5133654893378143e-05 5.8043751058259720e-04 0.0000000000000000e+00  5.4230153715146712e-05 5.3179502668842464e-04 0.0000000000000000e+00  5.3063322240115068e-05 4.8414908025081046e-04 0.0000000000000000e+00  5.1849675451597226e-05 4.3770299222133043e-04 0.0000000000000000e+00  5.0162194093369474e-05 3.9273702886270247e-04 0.0000000000000000e+00  4.8660438051743477e-05 3.4902920063107978e-04 0.0000000000000000e+00  4.6997790388336788e-05 3.0728113397166039e-04 0.0000000000000000e+00  4.4719551255036881e-05 2.6697230999509500e-04 0.0000000000000000e+00  4.2503991896284586e-05 2.2894125304696752e-04 0.0000000000000000e+00  3.9834526501809142e-05 1.9300379126003164e-04 0.0000000000000000e+00  3.7179831299495737e-05 1.5947346284526598e-04 0.0000000000000000e+00  3.3745501508283967e-05 1.2879608892433863e-04 0.0000000000000000e+00  3.0744082776086511e-05 1.0047987449855630e-04 0.0000000000000000e+00  2.7556128229200419e-05 7.5687017860010463e-05 0.0000000000000000e+00  2.3356079198746992e-05 5.3474192949376945e-05 0.0000000000000000e+00  1.9470218774928964e-05 3.5024992112521485e-05 0.0000000000000000e+00  1.4651702786543710e-05 2.0279546514639377e-05 0.0000000000000000e+00  1.0280771100788415e-05 9.5616584905245847e-06 0.0000000000000000e+00  4.8806428079816344e-06 3.0018306854491321e-06 0.0000000000000000e+00  -5.9930902569312859e-07 4.7594095217007849e-06 0.0000000000000000e+00  -1.5473190212129307e-05 1.9985734320618030e-03 0.0000000000000000e+00  -1.5964752632701223e-05 1.8946556460319453e-03 0.0000000000000000e+00  -1.5169034952596291e-05 1.7249275326270076e-03 0.0000000000000000e+00  -2.0048039512209997e-06 2.6124250771480298e-05 0.0000000000000000e+00  -1.4246496960171710e-05 1.6181218450871291e-03 0.0000000000000000e+00  -2.9292447022667696e-06 6.1418212937975114e-05 0.0000000000000000e+00  -1.4107109667047420e-05 1.5093322750948501e-03 0.0000000000000000e+00  -4.6481498216946532e-06 1.4445404959439610e-04 0.0000000000000000e+00  -6.3061435680020076e-06 2.1026606424792661e-04 0.0000000000000000e+00  -1.3924338824619463e-05 1.4005300591050636e-03 0.0000000000000000e+00  -8.0314346246524840e-06 4.1679584678033332e-04 0.0000000000000000e+00  -1.3396822585842224e-05 1.1832976139796436e-03 0.0000000000000000e+00  -6.6384392885625036e-06 2.8327274102665518e-04 0.0000000000000000e+00  -9.6893232974670140e-06 5.0781154509111845e-04 0.0000000000000000e+00  -1.3041291229986251e-05 1.0752623834896454e-03 0.0000000000000000e+00  -1.3689504209798198e-05 1.2917991486036092e-03 0.0000000000000000e+00  -1.0485794056318115e-05 6.0519011657548995e-04 0.0000000000000000e+00  -1.2613354152426753e-05 9.6800747601355486e-04 0.0000000000000000e+00  -1.0283351286616425e-05 7.0188599980158719e-04 0.0000000000000000e+00  -1.3019466803191587e-05 8.6410020419735989e-04 0.0000000000000000e+00  -1.1627121983115914e-05 7.7921359495345158e-04 0.0000000000000000e+00  -8.1709633236453640e-06 3.4537113524398737e-04 0.0000000000000000e+00  -1.4287803285541787e-05 1.8131696138488104e-03 0.0000000000000000e+00  -4.1938336124675249e-06 9.8113288021972633e-05 0.0000000000000000e+00  9.8531112041085864e-06 1.9462437956273145e-03 0.0000000000000000e+00  3.6986050157667174e-06 1.3143958295605427e-05 0.0000000000000000e+00  7.0014832360391215e-06 1.5637120498532455e-03 0.0000000000000000e+00  6.8773011499181143e-06 1.6724905683658468e-03 0.0000000000000000e+00  -1.1123752536577997e-05 4.3591518190049772e-05 0.0000000000000000e+00  -1.8640396560144305e-05 1.7602780061676599e-04 0.0000000000000000e+00  7.5484117518547236e-06 1.2374572698946476e-03 0.0000000000000000e+00  7.1560819933688170e-06 1.4548996604458306e-03 0.0000000000000000e+00  -2.7215035385633659e-05 4.6106474006133834e-04 0.0000000000000000e+00  7.7703896897594653e-06 1.1291442261507391e-03 0.0000000000000000e+00  -2.1463839663373215e-05 2.4783892604065243e-04 0.0000000000000000e+00  -2.8918043464931432e-05 5.5630452426172342e-04 0.0000000000000000e+00  7.9992250142694131e-06 1.0214454423840432e-03 0.0000000000000000e+00  7.3406717790661644e-06 1.3461080462347150e-03 0.0000000000000000e+00  -3.4647649293906613e-05 6.5496576130212960e-04 0.0000000000000000e+00  8.2307564615160882e-06 9.1470920995534823e-04 0.0000000000000000e+00  -1.0397289300916247e-06 1.3951137209138965e-06 0.0000000000000000e+00  7.4153962951620082e-07 6.5339674589845347e-07 0.0000000000000000e+00  -3.2275123676927808e-05 2.0413438643501016e-03 0.0000000000000000e+00  -6.8687685478385903e-06 1.4322330091134522e-05 0.0000000000000000e+00  1.3192271698317795e-05 8.2106324553480898e-04 0.0000000000000000e