<?xml version="1.0"?>
<VTKFile type="UnstructuredGrid"  version="0.1"  >
<UnstructuredGrid>
<Piece  NumberOfPoints="1419" NumberOfCells="2698">
<Points>
<DataArray  type="Float64"  NumberOfComponents="3"  format="ascii">0 0 0  0 0.41 0  2.5 0 0  2.5 0.41 0  0.6 0.19 0  0.6 0.21 0  0.25 0.2 0  0.15 0.2 0  0.2489897948556636 0.21 0  0.2489897948556636 0.19 0  0.6 0.2 0  0 0.3807142857143437 0  0 0.3514285714286952 0  0 0.3221428571430699 0  0 0.29285714285744 0  0 0.2635714285718054 0  0 0.2342857142861561 0  0 0.2050000000005308 0  0 0.175714285714732 0  0 0.1464285714289574 0  0 0.1171428571431897 0  0 0.08785714285737878 0  0 0.05857142857161107 0  0 0.02928571428580012 0  0.03015443760436003 0 0  0.06140001986583606 0 0  0.09377624077125973 0 0  0.1273239957535082 0 0  0.1620856860351972 0 0  0.1981052433264291 0 0  0.235428184091502 0 0  0.2741016576309132 0 0  0.3141745521465447 0 0  0.3556974926295285 0 0  0.3987229542472677 0 0  0.4433053055141081 0 0  0.4895008759286886 0 0  0.5373680609405097 0 0  0.5869673343216626 0 0  0.6383613676634521 0 0  0.6916151138468254 0 0  0.7467958595648856 0 0  0.8039733463919316 0 0  0.8632198139502143 0 0  0.9246101326867038 0 0  0.9882218810934433 0 0  1.054135445558498 0 0  1.122434100542598 0 0  1.193204177141305 0 0  1.266535089879536 0 0  1.342519516046404 0 0  1.421253448503939 0 0  1.502836389106271 0 0  1.587371439758838 0 0  1.674965418777374 0 0  1.765729001825544 0 0  1.859776908880082 0 0  1.957227977487062 0 0  2.058205329869943 0 0  2.162836591189951 0 0  2.271253957290865 0 0  2.383594446803425 0 0  2.5 0.1024999999997612 0  2.5 0.2049999999994743 0  2.5 0.3074999999997183 0  2.383594446803656 0.41 0  2.271253957291315 0.41 0  2.162836591190598 0.41 0  2.058205329870775 0.41 0  1.957227977488067 0.41 0  1.859776908881246 0.41 0  1.765729001826854 0.41 0  1.674965418778818 0.41 0  1.58737143976041 0.41 0  1.502836389107956 0.41 0  1.421253448505726 0.41 0  1.342519516048286 0.41 0  1.266535089881505 0.41 0  1.193204177143353 0.41 0  1.122434100544716 0.41 0  1.05413544556068 0.41 0  0.9882218810956305 0.41 0  0.9246101326886647 0.41 0  0.8632198139519631 0.41 0  0.8039733463934788 0.41 0  0.7467958595662458 0.41 0  0.6916151138480078 0.41 0  0.6383613676644679 0.41 0  0.5869673343225223 0.41 0  0.5373680609412221 0.41 0  0.4895008759292634 0.41 0  0.4433053055145528 0.41 0  0.3987229542475914 0.41 0  0.3556974926297398 0.41 0  0.3141745521466497 0.41 0  0.2741016576310038 0.41 0  0.2354281840915826 0.41 0  0.1981052433265003 0.41 0  0.1620856860352591 0.41 0  0.1273239957535623 0.41 0  0.09377624077128965 0.41 0  0.06140001986584975 0.41 0  0.03015443760436654 0.41 0  0.2497468076502589 0.2050254481002335 0  0.2497468076502614 0.1949745518997913 0  0.2469965252529372 0.1829317073451959 0  0.2439893735792749 0.1762316384219906 0  0.2400332147834255 0.1700443375285386 0  0.2352133972704371 0.1645032867342007 0  0.2296339016332438 0.1597280261969788 0  0.2234150974217223 0.1558215752574715 0  0.2166911463437691 0.1528682099456123 0  0.2096071079204251 0.1509316448471593 0  0.2023158100364996 0.1500536585536553 0  0.194974551899914 0.1502531923497262 0  0.1877417105387872 0.1515259415822739 0  0.1807733240461124 0.153844448527136 0  0.1742197252835808 0.15715869474974 0  0.1682222986673531 0.1613971801805478 0  0.162910430003803 0.1664684656256651 0  0.1583987151779087 0.1722631454351573 0  0.1547844879126891 0.178656207771761 0  0.1521457199348551 0.1855097315605723 0  0.1505393388476355 0.1926758619366523 0  0.1505393388476328 0.2073241380633295 0  0.1521457199348437 0.2144902684393899 0  0.1547844879126531 0.221343792228163 0  0.1583987151778488 0.2277368545647528 0  0.1629104300036858 0.2335315343742052 0  0.1682222986671726 0.2386028198193036 0  0.1742197252833576 0.2428413052501257 0  0.1807733240458683 0.2461555514727623 0  0.1877417105384929 0.2484740584176516 0  0.1949745518995776 0.2497468076502398 0  0.202315810036185 0.2499463414463592 0  0.2096071079201568 0.2490683551528932 0  0.2166911463435495 0.2471317900544655 0  0.2234150974215506 0.2441784247426195 0  0.2296339016331197 0.2402719738031125 0  0.2352133972703547 0.2354967132658811 0  0.2400332147833751 0.2299556624715287 0  0.2439893735792577 0.2237683615780412 0  0.246996525252926 0.2170682926548348 0  0.25645809709277 0.21 0  0.2639263993298655 0.21 0  0.271394701566961 0.21 0  0.2788630038040554 0.21 0  0.2863313060411479 0.21 0  0.2937996082782405 0.21 0  0.301267910515333 0.21 0  0.3087362127524279 0.21 0  0.3162045149895234 0.21 0  0.3236728172265972 0.21 0  0.3311411194636928 0.21 0  0.3386094217007701 0.21 0  0.3460777239378666 0.21 0  0.3535460261749672 0.21 0  0.3610143284120516 0.21 0  0.3684826306491596 0.21 0  0.3759509328862226 0.21 0  0.383419235123329 0.21 0  0.3908875373604028 0.21 0  0.3983558395975142 0.21 0  0.4058241418345938 0.21 0  0.4132924440716992 0.21 0  0.4207607463087888 0.21 0  0.4282290485459029 0.21 0  0.4356973507830418 0.21 0  0.4431656530201649 0.21 0  0.4506339552573136 0.21 0  0.4581022574944306 0.21 0  0.4655705597315852 0.21 0  0.4730388619686996 0.21 0  0.480507164205851 0.21 0  0.4879754664429498 0.21 0  0.4954437686800938 0.21 0  0.502912070917267 0.21 0  0.5103803731544119 0.21 0  0.5178486753915261 0.21 0  0.5253169776286404 0.21 0  0.5327852798657868 0.21 0  0.5402535821029386 0.21 0  0.54772188434007 0.21 0  0.5551901865771842 0.21 0  0.5626584888143201 0.21 0  0.5701267910514778 0.21 0  0.5775950932886138 0.21 0  0.5850633955257281 0.21 0  0.5925316977628483 0.21 0  0.6 0.2050000000000054 0  0.6 0.1950000000000217 0  0.5925316977628897 0.19 0  0.5850633955257988 0.19 0  0.5775950932887378 0.19 0  0.5701267910515998 0.19 0  0.5626584888145268 0.19 0  0.5551901865773963 0.19 0  0.547721884340339 0.19 0  0.5402535821032429 0.19 0  0.5327852798661811 0.19 0  0.5253169776290537 0.19 0  0.5178486753919799 0.19 0  0.5103803731549078 0.19 0  0.502912070917822 0.19 0  0.4954437686807294 0.19 0  0.4879754664436223 0.19 0  0.4805071642065402 0.19 0  0.4730388619694271 0.19 0  0.4655705597323621 0.19 0  0.4581022574952563 0.19 0  0.4506339552581777 0.19 0  0.4431656530210671 0.19 0  0.4356973507839815 0.19 0  0.4282290485468779 0.19 0  0.4207607463097617 0.19 0  0.4132924440726327 0.19 0  0.4058241418354857 0.19 0  0.3983558395983636 0.19 0  0.3908875373612097 0.19 0  0.3834192351240934 0.19 0  0.3759509328869369 0.19 0  0.3684826306498175 0.19 0  0.361014328412667 0.19 0  0.3535460261755617 0.19 0  0.3460777239384295 0.19 0  0.3386094217012945 0.19 0  0.3311411194641595 0.19 0  0.3236728172270245 0.19 0  0.3162045149898895 0.19 0  0.3087362127527544 0.19 0  0.3012679105156187 0.19 0  0.2937996082784807 0.19 0  0.2863313060413428 0.19 0  0.2788630038042048 0.19 0  0.2713947015670686 0.19 0  0.2639263993299336 0.19 0  0.2564580970927985 0.19 0  0.2607803159922026 0.2000727136295815 0  0.5887803774232762 0.2001272386983733 0  0.5745072403740523 0.2002044435018727 0  0.5511891430099709 0.2001122610077113 0  0.2751288526855082 0.20000000000002 0  0.5365194309847112 0.1999999999999436 0  0.2894621222999649 0.1998691686390484 0  0.5215828265105155 0.1999999999999228 0  0.3127789816668748 0.1998657885438805 0  0.3274069683451451 0.2000000000000796 0  0.5066462220363641 0.199999999999908 0  0.3650630746574081 0.199866017807523 0  0.476773013087985 0.1999999999998713 0  0.3417402379596385 0.1998691686391011 0  0.3796850840047755 0.200000000000134 0  0.4618364086138087 0.1999999999998546 0  0.4917096175621762 0.1999999999998808 0  0.3946216884789568 0.2000000000001512 0  0.446899804139621 0.1999999999998389 0  0.4089549580935208 0.1998691686391595 0  0.4322718174608562 0.200127451265745 0  0.4201487168029707 0.1999966199048527 0  0.3528922713220932 0.2000185703532356 0  0.5633122436674589 0.1999814296467508 0  0.3006558810093873 0.1999966199048318 0  0.5815926498168407 0.1966545283159175 0  0.2677053789419034 0.1964246479135325 0  0.5290511287476175 0.1970915826863981 0  0.5439877332217911 0.197091582686394 0  0.2825131256993216 0.2035478995978015 0  0.3199386661080599 0.202908417313604 0  0.4842413153250809 0.1970915826863873 0  0.5141145242734466 0.1970915826863843 0  0.3722167817676917 0.2029084173136195 0  0.4693047108508938 0.1970915826863783 0  0.3348752705822316 0.202908417313609 0  0.3871533862418661 0.2029084173136212 0  0.4543681063767183 0.1970915826863795 0  0.4991779197992749 0.1970915826863902 0  0.4020059614928624 0.203547899597858 0  0.4394315019025246 0.1970915826863714 0  0.2550657455369551 0.2034088125358657 0  0.2548908499171161 0.1966940311614271 0  0.5946539510196798 0.2024302972968126 0  0.267698176732111 0.2039977513680092 0  0.4261685417851465 0.196409292431739 0  0.3590076176283495 0.196411355804271 0  0.5571672426447437 0.2036011176410121 0  0.3066757059912147 0.1964092924317024 0  0.594380730180568 0.1966558399668133 0  0.4842413153245942 0.2040749161535287 0  0.4693047108503577 0.2040749161535231 0  0.3871533862424271 0.1959250838464788 0  0.372246743208829 0.1959123236376545 0  0.5141145242731028 0.2040749161535395 0  0.4543681063761134 0.2040749161535186 0  0.4019979587101454 0.1959834479682427 0  0.4394608940728603 0.2040870543693135 0  0.5439623148931173 0.2040856076781014 0  0.5290511287473298 0.2040749161535501 0  0.4991779197988497 0.2040749161535382 0  0.3347912413592433 0.1959225448935183 0  0.3199680582793816 0.1959123018030061 0  0.2825051229162361 0.1959834479681729 0  0.3590471196690275 0.2036304442587945 0  0.5571594006495384 0.1963685282145804 0  0.3067669986803285 0.203627750582736 0  0.4262598344738712 0.2036568242185335 0  0.5814408164431408 0.2041285596160068 0  0.5688286748170428 0.1961819304477386 0  0.4145905603063645 0.2038180695522843 0  0.3473758401724931 0.2038180695522752 0  0.2950977245128307 0.2038180695522663 0  0.5688286748170693 0.203818069552238 0  0.2950977245127906 0.1961819304477774 0  0.3473758401723931 0.1961819304478349 0  0.4145905603061963 0.1961819304479011 0  0.2601812407614425 0.2056861609747042
[...]
<PointData  Vectors="f_40-1"> 
<DataArray  type="Float64"  Name="f_40-1"  NumberOfComponents="3" format="ascii">0.0000000000000000e+00 0.0000000000000000e+00 0.0000000000000000e+00  0.0000000000000000e+00 0.0000000000000000e+00 0.0000000000000000e+00  0.0000000000000000e+00 0.0000000000000000e+00 0.0000000000000000e+00  0.0000000000000000e+00 0.0000000000000000e+00 0.0000000000000000e+00  5.8307127429015822e-05 2.0803345676470106e-03 0.0000000000000000e+00  -8.7373766870565387e-05 2.0802089610251978e-03 0.0000000000000000e+00  0.0000000000000000e+00 0.0000000000000000e+00 0.0000000000000000e+00  0.0000000000000000e+00 0.0000000000000000e+00 0.0000000000000000e+00  0.0000000000000000e+00 0.0000000000000000e+00 0.0000000000000000e+00  0.0000000000000000e+00 0.0000000000000000e+00 0.0000000000000000e+00  -1.4604764695725108e-05 2.0802640894132867e-03 0.0000000000000000e+00  0.0000000000000000e+00 0.0000000000000000e+00 0.0000000000000000e+00  0.0000000000000000e+00 0.0000000000000000e+00 0.0000000000000000e+00  0.0000000000000000e+00 0.0000000000000000e+00 0.0000000000000000e+00  0.0000000000000000e+00 0.0000000000000000e+00 0.0000000000000000e+00  0.0000000000000000e+00 0.0000000000000000e+00 0.0000000000000000e+00  0.0000000000000000e+00 0.0000000000000000e+00 0.0000000000000000e+00  0.0000000000000000e+00 0.0000000000000000e+00 0.0000000000000000e+00  0.0000000000000000e+00 0.0000000000000000e+00 0.0000000000000000e+00  0.0000000000000000e+00 0.0000000000000000e+00 0.0000000000000000e+00  0.0000000000000000e+00 0.0000000000000000e+00 0.0000000000000000e+00  0.0000000000000000e+00 0.0000000000000000e+00 0.0000000000000000e+00  0.0000000000000000e+00 0.0000000000000000e+00 0.0000000000000000e+00  0.0000000000000000e+00 0.0000000000000000e+00 0.0000000000000000e+00  0.0000000000000000e+00 0.0000000000000000e+00 0.0000000000000000e+00  0.0000000000000000e+00 0.0000000000000000e+00 0.0000000000000000e+00  0.0000000000000000e+00 0.0000000000000000e+00 0.0000000000000000e+00  0.0000000000000000e+00 0.0000000000000000e+00 0.0000000000000000e+00  0.0000000000000000e+00 0.0000000000000000e+00 0.0000000000000000e+00  0.0000000000000000e+00 0.0000000000000000e+00 0.0000000000000000e+00  0.0000000000000000e+00 0.0000000000000000e+00 0.0000000000000000e+00  0.0000000000000000e+00 0.0000000000000000e+00 0.0000000000000000e+00  0.0000000000000000e+00 0.0000000000000000e+00 0.0000000000000000e+00  0.0000000000000000e+00 0.0000000000000000e+00 0.0000000000000000e+00  0.0000000000000000e+00 0.0000000000000000e+00 0.0000000000000000e+00  0.0000000000000000e+00 0.0000000000000000e+00 0.0000000000000000e+00  0.0000000000000000e+00 0.0000000000000000e+00 0.0000000000000000e+00  0.0000000000000000e+00 0.0000000000000000e+00 0.0000000000000000e+00  0.0000000000000000e+00 0.0000000000000000e+00 0.0000000000000000e+00  0.0000000000000000e+00 0.0000000000000000e+00 0.0000000000000000e+00  0.0000000000000000e+00 0.0000000000000000e+00 0.0000000000000000e+00  0.0000000000000000e+00 0.0000000000000000e+00 0.0000000000000000e+00  0.0000000000000000e+00 0.0000000000000000e+00 0.0000000000000000e+00  0.0000000000000000e+00 0.0000000000000000e+00 0.0000000000000000e+00  0.0000000000000000e+00 0.0000000000000000e+00 0.0000000000000000e+00  0.0000000000000000e+00 0.0000000000000000e+00 0.0000000000000000e+00  0.0000000000000000e+00 0.0000000000000000e+00 0.0000000000000000e+00  0.0000000000000000e+00 0.0000000000000000e+00 0.0000000000000000e+00  0.0000000000000000e+00 0.0000000000000000e+00 0.0000000000000000e+00  0.0000000000000000e+00 0.0000000000000000e+00 0.0000000000000000e+00  0.0000000000000000e+00 0.0000000000000000e+00 0.0000000000000000e+00  0.0000000000000000e+00 0.0000000000000000e+00 0.0000000000000000e+00  0.0000000000000000e+00 0.0000000000000000e+00 0.0000000000000000e+00  0.0000000000000000e+00 0.0000000000000000e+00 0.0000000000000000e+00  0.0000000000000000e+00 0.0000000000000000e+00 0.0000000000000000e+00  0.0000000000000000e+00 0.0000000000000000e+00 0.0000000000000000e+00  0.0000000000000000e+00 0.0000000000000000e+00 0.0000000000000000e+00  0.0000000000000000e+00 0.0000000000000000e+00 0.0000000000000000e+00  0.0000000000000000e+00 0.0000000000000000e+00 0.0000000000000000e+00  0.0000000000000000e+00 0.0000000000000000e+00 0.0000000000000000e+00  0.0000000000000000e+00 0.0000000000000000e+00 0.0000000000000000e+00  0.0000000000000000e+00 0.0000000000000000e+00 0.0000000000000000e+00  0.0000000000000000e+00 0.0000000000000000e+00 0.0000000000000000e+00  0.0000000000000000e+00 0.0000000000000000e+00 0.0000000000000000e+00  0.0000000000000000e+00 0.0000000000000000e+00 0.0000000000000000e+00  0.0000000000000000e+00 0.0000000000000000e+00 0.0000000000000000e+00  0.0000000000000000e+00 0.0000000000000000e+00 0.0000000000000000e+00  0.0000000000000000e+00 0.0000000000000000e+00 0.0000000000000000e+00  0.0000000000000000e+00 0.0000000000000000e+00 0.0000000000000000e+00  0.0000000000000000e+00 0.0000000000000000e+00 0.0000000000000000e+00  0.0000000000000000e+00 0.0000000000000000e+00 0.0000000000000000e+00  0.0000000000000000e+00 0.0000000000000000e+00 0.0000000000000000e+00  0.0000000000000000e+00 0.0000000000000000e+00 0.0000000000000000e+00  0.0000000000000000e+00 0.0000000000000000e+00 0.0000000000000000e+00  0.0000000000000000e+00 0.0000000000000000e+00 0.0000000000000000e+00  0.0000000000000000e+00 0.0000000000000000e+00 0.0000000000000000e+00  0.0000000000000000e+00 0.0000000000000000e+00 0.0000000000000000e+00  0.0000000000000000e+00 0.0000000000000000e+00 0.0000000000000000e+00  0.0000000000000000e+00 0.0000000000000000e+00 0.0000000000000000e+00  0.0000000000000000e+00 0.0000000000000000e+00 0.0000000000000000e+00  0.0000000000000000e+00 0.0000000000000000e+00 0.0000000000000000e+00  0.0000000000000000e+00 0.0000000000000000e+00 0.0000000000000000e+00  0.0000000000000000e+00 0.0000000000000000e+00 0.0000000000000000e+00  0.0000000000000000e+00 0.0000000000000000e+00 0.0000000000000000e+00  0.0000000000000000e+00 0.0000000000000000e+00 0.0000000000000000e+00  0.0000000000000000e+00 0.0000000000000000e+00 0.0000000000000000e+00  0.0000000000000000e+00 0.0000000000000000e+00 0.0000000000000000e+00  0.0000000000000000e+00 0.0000000000000000e+00 0.0000000000000000e+00  0.0000000000000000e+00 0.0000000000000000e+00 0.0000000000000000e+00  0.0000000000000000e+00 0.0000000000000000e+00 0.0000000000000000e+00  0.0000000000000000e+00 0.0000000000000000e+00 0.0000000000000000e+00  0.0000000000000000e+00 0.0000000000000000e+00 0.0000000000000000e+00  0.0000000000000000e+00 0.0000000000000000e+00 0.0000000000000000e+00  0.0000000000000000e+00 0.0000000000000000e+00 0.0000000000000000e+00  0.0000000000000000e+00 0.0000000000000000e+00 0.0000000000000000e+00  0.0000000000000000e+00 0.0000000000000000e+00 0.0000000000000000e+00  0.0000000000000000e+00 0.0000000000000000e+00 0.0000000000000000e+00  0.0000000000000000e+00 0.0000000000000000e+00 0.0000000000000000e+00  0.0000000000000000e+00 0.0000000000000000e+00 0.0000000000000000e+00  0.0000000000000000e+00 0.0000000000000000e+00 0.0000000000000000e+00  0.0000000000000000e+00 0.0000000000000000e+00 0.0000000000000000e+00  0.0000000000000000e+00 0.0000000000000000e+00 0.0000000000000000e+00  0.0000000000000000e+00 0.0000000000000000e+00 0.0000000000000000e+00  0.0000000000000000e+00 0.0000000000000000e+00 0.0000000000000000e+00  0.0000000000000000e+00 0.0000000000000000e+00 0.0000000000000000e+00  0.0000000000000000e+00 0.0000000000000000e+00 0.0000000000000000e+00  0.0000000000000000e+00 0.0000000000000000e+00 0.0000000000000000e+00  0.0000000000000000e+00 0.0000000000000000e+00 0.0000000000000000e+00  0.0000000000000000e+00 0.0000000000000000e+00 0.0000000000000000e+00  0.0000000000000000e+00 0.0000000000000000e+00 0.0000000000000000e+00  0.0000000000000000e+00 0.0000000000000000e+00 0.0000000000000000e+00  0.0000000000000000e+00 0.0000000000000000e+00 0.0000000000000000e+00  0.0000000000000000e+00 0.0000000000000000e+00 0.0000000000000000e+00  0.0000000000000000e+00 0.0000000000000000e+00 0.0000000000000000e+00  0.0000000000000000e+00 0.0000000000000000e+00 0.0000000000000000e+00  0.0000000000000000e+00 0.0000000000000000e+00 0.0000000000000000e+00  0.0000000000000000e+00 0.0000000000000000e+00 0.0000000000000000e+00  0.0000000000000000e+00 0.0000000000000000e+00 0.0000000000000000e+00  0.0000000000000000e+00 0.0000000000000000e+00 0.0000000000000000e+00  0.0000000000000000e+00 0.0000000000000000e+00 0.0000000000000000e+00  0.0000000000000000e+00 0.0000000000000000e+00 0.0000000000000000e+00  0.0000000000000000e+00 0.0000000000000000e+00 0.0000000000000000e+00  0.0000000000000000e+00 0.0000000000000000e+00 0.0000000000000000e+00  0.0000000000000000e+00 0.0000000000000000e+00 0.0000000000000000e+00  0.0000000000000000e+00 0.0000000000000000e+00 0.0000000000000000e+00  0.0000000000000000e+00 0.0000000000000000e+00 0.0000000000000000e+00  0.0000000000000000e+00 0.0000000000000000e+00 0.0000000000000000e+00  0.0000000000000000e+00 0.0000000000000000e+00 0.0000000000000000e+00  0.0000000000000000e+00 0.0000000000000000e+00 0.0000000000000000e+00  0.0000000000000000e+00 0.0000000000000000e+00 0.0000000000000000e+00  0.0000000000000000e+00 0.0000000000000000e+00 0.0000000000000000e+00  0.0000000000000000e+00 0.0000000000000000e+00 0.0000000000000000e+00  0.0000000000000000e+00 0.0000000000000000e+00 0.0000000000000000e+00  0.0000000000000000e+00 0.0000000000000000e+00 0.0000000000000000e+00  0.0000000000000000e+00 0.0000000000000000e+00 0.0000000000000000e+00  0.0000000000000000e+00 0.0000000000000000e+00 0.0000000000000000e+00  0.0000000000000000e+00 0.0000000000000000e+00 0.0000000000000000e+00  0.0000000000000000e+00 0.0000000000000000e+00 0.0000000000000000e+00  0.0000000000000000e+00 0.0000000000000000e+00 0.0000000000000000e+00  0.0000000000000000e+00 0.0000000000000000e+00 0.0000000000000000e+00  0.0000000000000000e+00 0.0000000000000000e+00 0.0000000000000000e+00  0.0000000000000000e+00 0.0000000000000000e+00 0.0000000000000000e+00  0.0000000000000000e+00 0.0000000000000000e+00 0.0000000000000000e+00  -5.8598768542933924e-06 5.8126281194771515e-06 0.0000000000000000e+00  -1.2403572753891225e-05 1.2490027117990439e-05 0.0000000000000000e+00  -1.8167547055619748e-05 2.3133473272743763e-05 0.0000000000000000e+00  -2.4281582676515802e-05 3.7992249764922752e-05 0.0000000000000000e+00  -2.9353427612244454e-05 5.6272341068127645e-05 0.0000000000000000e+00  -3.4919190961498244e-05 7.8290444044204832e-05 0.0000000000000000e+00  -3.9368978093342091e-05 1.0299326887341098e-04 0.0000000000000000e+00  -4.3576586751217089e-05 1.3116239652376290e-04 0.0000000000000000e+00  -4.8244549884643402e-05 1.6189541183038393e-04 0.0000000000000000e+00  -5.1759519994481688e-05 1.9521126772695002e-04 0.0000000000000000e+00  -5.5851561714892764e-05 2.3103502453284568e-04 0.0000000000000000e+00  -5.8884881754254600e-05 2.6903671013346934e-04 0.0000000000000000e+00  -6.2278901295680764e-05 3.0911257196169768e-04 0.0000000000000000e+00  -6.4927756151827618e-05 3.5079390595269347e-04 0.0000000000000000e+00  -6.7378229380479025e-05 3.9438107207580330e-04 0.0000000000000000e+00  -7.0006985504248744e-05 4.3934524026455045e-04 0.0000000000000000e+00  -7.1952563381591085e-05 4.8563536376413464e-04 0.0000000000000000e+00  -7.4110921478415633e-05 5.3319375286321876e-04 0.0000000000000000e+00  -7.5684427008592089e-05 5.8175864906139191e-04 0.0000000000000000e+00  -7.7388888087304175e-05 6.3127168449340302e-04 0.0000000000000000e+00  -7.8696128512967270e-05 6.8158202159883678e-04 0.0000000000000000e+00  -8.0010036702481008e-05 7.3264732802520835e-04 0.0000000000000000e+00  -8.1038346514323046e-05 7.8421428422151740e-04 0.0000000000000000e+00  -8.1947291269870724e-05 8.3639032144881625e-04 0.0000000000000000e+00  -8.2861940434986211e-05 8.8895632456723723e-04 0.0000000000000000e+00  -8.3575724333808508e-05 9.4192529203251181e-04 0.0000000000000000e+00  -8.4226710159649839e-05 9.9524621472235294e-04 0.0000000000000000e+00  -8.4762474615665372e-05 1.0487950603692577e-03 0.0000000000000000e+00  -8.5238595763921228e-05 1.1026012709852635e-03 0.0000000000000000e+00  -8.5626861622714864e-05 1.1565540808359694e-03 0.0000000000000000e+00  -8.5962858595896408e-05 1.2106737708585879e-03 0.0000000000000000e+00  -8.6231172679177511e-05 1.2648704964724081e-03 0.0000000000000000e+00  -8.6456952517869660e-05 1.3191632476311371e-03 0.0000000000000000e+00  -8.6631382488326308e-05 1.3734823141168162e-03 0.0000000000000000e+00  -8.6770280020590290e-05 1.4278492621124653e-03 0.0000000000000000e+00  -8.6878410721500204e-05 1.4822160038345156e-03 0.0000000000000000e+00  -8.6963089422849118e-05 1.5365966937359002e-03 0.0000000000000000e+00  -8.7030249114979294e-05 1.5909662797607283e-03 0.0000000000000000e+00  -8.7082566179317206e-05 1.6453342342090962e-03 0.0000000000000000e+00  -8.7128067557666679e-05 1.6996918907846927e-03 0.0000000000000000e+00  -8.7167806690219155e-05 1.7540427858857457e-03 0.0000000000000000e+00  -8.7207871042127593e-05 1.8083897570904757e-03 0.0000000000000000e+00  -8.7244046686109385e-05 1.8627393424125822e-03 0.0000000000000000e+00  -8.7282742310245019e-05 1.9170928771537984e-03 0.0000000000000000e+00  -8.7322850700885415e-05 1.9714596818341361e-03 0.0000000000000000e+00  -8.7357357518214263e-05 2.0258355724007281e-03 0.0000000000000000e+00  -5.1006164277548805e-05 2.0802360911625476e-03 0.0000000000000000e+00  2.1825112740670673e-05 2.0802943197005984e-03 0.0000000000000000e+00  5.8302050432717293e-05 2.0259033109473082e-03 0.0000000000000000e+00  5.8319670291980891e-05 1.9715098713391655e-03 0.0000000000000000e+00  5.8344967383793469e-05 1.9171315341490573e-03 0.0000000000000000e+00  5.8372373903222548e-05 1.8627584055701579e-03 0.0000000000000000e+00  5.8405394635415587e-05 1.8083871382158488e-03 0.0000000000000000e+00  5.8450053500525541e-05 1.7540137091588608e-03 0.0000000000000000e+00  5.8501400963187973e-05 1.6996339613270179e-03 0.0000000000000000e+00  5.8561033739449538e-05 1.6452470083163674e-03 0.0000000000000000e+00  5.8626516672680311e-05 1.5908482534710683e-03 0.0000000000000000e+00  5.8697084918357188e-05 1.5364387070256314e-03 0.0000000000000000e+00  5.8766773409832786e-05 1.4820226679710157e-03 0.0000000000000000e+00  5.8841281771434589e-05 1.4276072214655332e-03 0.0000000000000000e+00  5.8901134503837468e-05 1.3732022483262014e-03 0.0000000000000000e+00  5.8964998917965807e-05 1.3188262471683569e-03 0.0000000000000000e+00  5.8990675190031675e-05 1.2644928084462465e-03 0.0000000000000000e+00  5.9025245713476080e-05 1.2102350495019258e-03 0.0000000000000000e+00  5.8991765751698011e-05 1.1560715261577181e-03 0.0000000000000000e+00  5.8978354386816432e-05 1.1020491828358362e-03 0.0000000000000000e+00  5.8860614815643467e-05 1.0481935591723347e-03 0.0000000000000000e+00  5.8780189650235176e-05 9.9456434959328799e-04 0.0000000000000000e+00  5.8545868513697534e-05 9.4119191645001567e-04 0.0000000000000000e+00  5.8370947963672483e-05 8.8815158993029602e-04 0.0000000000000000e+00  5.7994347691245458e-05 8.3549077223945721e-04 0.0000000000000000e+00  5.7663926089272631e-05 7.8323992315877254e-04 0.0000000000000000e+00  5.7267143362684509e-05 7.3159983143019399e-04 0.0000000000000000e+00  5.6631736192740586e-05 6.8043444845454970e-04 0.0000000000000000e+00  5.5995882627945959e-05 6.3006081398595719e-04 0.0000000000000000e+00  5.5132841153047036e-05 5.8043069203762105e-04 0.0000000000000000e+00  5.4229359689903376e-05 5.3178880346401824e-04 0.0000000000000000e+00  5.3062551664858964e-05 4.8414343604999242e-04 0.0000000000000000e+00  5.1848928585748722e-05 4.3769790841566964e-04 0.0000000000000000e+00  5.0161477319828007e-05 3.9273248345355157e-04 0.0000000000000000e+00  4.8659748244369665e-05 3.4902517548265167e-04 0.0000000000000000e+00  4.6997129511591925e-05 3.0727760190664899e-04 0.0000000000000000e+00  4.4718927195346259e-05 2.6696925148469135e-04 0.0000000000000000e+00  4.2503403398862602e-05 2.2893863816781084e-04 0.0000000000000000e+00  3.9833979057306971e-05 1.9300159305981539e-04 0.0000000000000000e+00  3.7179324431160008e-05 1.5947165110091990e-04 0.0000000000000000e+00  3.3745044455933743e-05 1.2879462847412642e-04 0.0000000000000000e+00  3.0743670035731956e-05 1.0047873674059215e-04 0.0000000000000000e+00  2.7555761936291539e-05 7.5686160761278198e-05 0.0000000000000000e+00  2.3355770979769572e-05 5.3473586123865617e-05 0.0000000000000000e+00  1.9469964717299633e-05 3.5024591700434535e-05 0.0000000000000000e+00  1.4651513111810850e-05 2.0279309981858626e-05 0.0000000000000000e+00  1.0280640097422674e-05 9.5615406523211698e-06 0.0000000000000000e+00  4.8805808725851960e-06 3.0017856033224356e-06 0.0000000000000000e+00  -5.9931280854870128e-07 4.7593585571375802e-06 0.0000000000000000e+00  -1.5473113798490036e-05 1.9985480336605992e-03 0.0000000000000000e+00  -1.5964674498892701e-05 1.8946316461317067e-03 0.0000000000000000e+00  -1.5168975393480108e-05 1.7249058161963589e-03 0.0000000000000000e+00  -2.0048121750718623e-06 2.6123963655307807e-05 0.0000000000000000e+00  -1.4246454356061974e-05 1.6181015631961644e-03 0.0000000000000000e+00  -2.9292601531187128e-06 6.1417530587658904e-05 0.0000000000000000e+00  -1.4107073136835417e-05 1.5093134505670123e-03 0.0000000000000000e+00  -4.6481712312193207e-06 1.4445242377178840e-04 0.0000000000000000e+00  -6.3061596291190436e-06 2.1026367991936747e-04 0.0000000000000000e+00  -1.3924308326249151e-05 1.4005126863486914e-03 0.0000000000000000e+00  -8.0314583451794677e-06 4.1679102712715264e-04 0.0000000000000000e+00  -1.3396803898166082e-05 1.1832831151227477e-03 0.0000000000000000e+00  -6.6384634443061635e-06 2.8326950493209885e-04 0.0000000000000000e+00  -9.6893349015042370e-06 5.0780562708388683e-04 0.0000000000000000e+00  -1.3041278220318677e-05 1.0752492981876856e-03 0.0000000000000000e+00  -1.3689479673588734e-05 1.2917832190184205e-03 0.0000000000000000e+00  -1.0485802414335036e-05 6.0518300625013184e-04 0.0000000000000000e+00  -1.2613346624829657e-05 9.6799578142542613e-04 0.0000000000000000e+00  -1.0283367068154362e-05 7.0187768834750958e-04 0.0000000000000000e+00  -1.3019452857531475e-05 8.6408984313402480e-04 0.0000000000000000e+00  -1.1627123579030978e-05 7.7920431101753662e-04 0.0000000000000000e+00  -8.1709774248756115e-06 3.4536716645988750e-04 0.0000000000000000e+00  -1.4287751573050332e-05 1.8131467104036188e-03 0.0000000000000000e+00  -4.1938473456784764e-06 9.8112190719047053e-05 0.0000000000000000e+00  9.8528444738193602e-06 1.9462191000732766e-03 0.0000000000000000e+00  3.6985430684558458e-06 1.3143809822883671e-05 0.0000000000000000e+00  7.0012393241386922e-06 1.5636924958929558e-03 0.0000000000000000e+00  6.8770625850937266e-06 1.6724695551724065e-03 0.0000000000000000e+00  -1.1123667331940250e-05 4.3591040713442976e-05 0.0000000000000000e+00  -1.8640263161171404e-05 1.7602581545202419e-04 0.0000000000000000e+00  7.5481553913828518e-06 1.2374420560190590e-03 0.0000000000000000e+00  7.1558332175629490e-06 1.4548815613264405e-03 0.0000000000000000e+00  -2.7214831298082187e-05 4.6105939099796213e-04 0.0000000000000000e+00  7.7701310263393367e-06 1.1291304349810990e-03 0.0000000000000000e+00  -2.1463684877868225e-05 2.4783610793153164e-04 0.0000000000000000e+00  -2.8917822881440638e-05 5.5629801734369700e-04 0.0000000000000000e+00  7.9989653455951600e-06 1.0214330540384050e-03 0.0000000000000000e+00  7.3404187881862414e-06 1.3460913949494436e-03 0.0000000000000000e+00  -3.4647360165381916e-05 6.5495803789548349e-04 0.0000000000000000e+00  8.2304972071122919e-06 9.1469819840242798e-04 0.0000000000000000e+00  -1.0397208772243047e-06 1.3951021994921656e-06 0.0000000000000000e+00  7.4152805905532252e-07 6.5338738586395978e-07 0.0000000000000000e+00  -3.2274819204098772e-05 2.0413178913412174e-03 0.0000000000000000e+00  -6.8687126112234330e-06 1.4322179391046569e-05 0.0000000000000000e+00  1.3191953853544606e-05 8.2105342845323608e-04 0.0000000000000000e