<?xml version="1.0"?>
<VTKFile type="UnstructuredGrid"  version="0.1"  >
<UnstructuredGrid>
<Piece  NumberOfPoints="1419" NumberOfCells="2698">
<Points>
<DataArray  type="Float64"  NumberOfComponents="3"  format="ascii">0 0 0  0 0.41 0  2.5 0 0  2.5 0.41 0  0.6 0.19 0  0.6 0.21 0  0.25 0.2 0  0.15 0.2 0  0.2489897948556636 0.21 0  0.2489897948556636 0.19 0  0.6 0.2 0  0 0.3807142857143437 0  0 0.3514285714286952 0  0 0.3221428571430699 0  0 0.29285714285744 0  0 0.2635714285718054 0  0 0.2342857142861561 0  0 0.2050000000005308 0  0 0.175714285714732 0  0 0.1464285714289574 0  0 0.1171428571431897 0  0 0.08785714285737878 0  0 0.05857142857161107 0  0 0.02928571428580012 0  0.03015443760436003 0 0  0.06140001986583606 0 0  0.09377624077125973 0 0  0.1273239957535082 0 0  0.1620856860351972 0 0  0.1981052433264291 0 0  0.235428184091502 0 0  0.2741016576309132 0 0  0.3141745521465447 0 0  0.3556974926295285 0 0  0.3987229542472677 0 0  0.4433053055141081 0 0  0.4895008759286886 0 0  0.5373680609405097 0 0  0.5869673343216626 0 0  0.6383613676634521 0 0  0.6916151138468254 0 0  0.7467958595648856 0 0  0.8039733463919316 0 0  0.8632198139502143 0 0  0.9246101326867038 0 0  0.9882218810934433 0 0  1.054135445558498 0 0  1.122434100542598 0 0  1.193204177141305 0 0  1.266535089879536 0 0  1.342519516046404 0 0  1.421253448503939 0 0  1.502836389106271 0 0  1.587371439758838 0 0  1.674965418777374 0 0  1.765729001825544 0 0  1.859776908880082 0 0  1.957227977487062 0 0  2.058205329869943 0 0  2.162836591189951 0 0  2.271253957290865 0 0  2.383594446803425 0 0  2.5 0.1024999999997612 0  2.5 0.2049999999994743 0  2.5 0.3074999999997183 0  2.383594446803656 0.41 0  2.271253957291315 0.41 0  2.162836591190598 0.41 0  2.058205329870775 0.41 0  1.957227977488067 0.41 0  1.859776908881246 0.41 0  1.765729001826854 0.41 0  1.674965418778818 0.41 0  1.58737143976041 0.41 0  1.502836389107956 0.41 0  1.421253448505726 0.41 0  1.342519516048286 0.41 0  1.266535089881505 0.41 0  1.193204177143353 0.41 0  1.122434100544716 0.41 0  1.05413544556068 0.41 0  0.9882218810956305 0.41 0  0.9246101326886647 0.41 0  0.8632198139519631 0.41 0  0.8039733463934788 0.41 0  0.7467958595662458 0.41 0  0.6916151138480078 0.41 0  0.6383613676644679 0.41 0  0.5869673343225223 0.41 0  0.5373680609412221 0.41 0  0.4895008759292634 0.41 0  0.4433053055145528 0.41 0  0.3987229542475914 0.41 0  0.3556974926297398 0.41 0  0.3141745521466497 0.41 0  0.2741016576310038 0.41 0  0.2354281840915826 0.41 0  0.1981052433265003 0.41 0  0.1620856860352591 0.41 0  0.1273239957535623 0.41 0  0.09377624077128965 0.41 0  0.06140001986584975 0.41 0  0.03015443760436654 0.41 0  0.2497468076502589 0.2050254481002335 0  0.2497468076502614 0.1949745518997913 0  0.2469965252529372 0.1829317073451959 0  0.2439893735792749 0.1762316384219906 0  0.2400332147834255 0.1700443375285386 0  0.2352133972704371 0.1645032867342007 0  0.2296339016332438 0.1597280261969788 0  0.2234150974217223 0.1558215752574715 0  0.2166911463437691 0.1528682099456123 0  0.2096071079204251 0.1509316448471593 0  0.2023158100364996 0.1500536585536553 0  0.194974551899914 0.1502531923497262 0  0.1877417105387872 0.1515259415822739 0  0.1807733240461124 0.153844448527136 0  0.1742197252835808 0.15715869474974 0  0.1682222986673531 0.1613971801805478 0  0.162910430003803 0.1664684656256651 0  0.1583987151779087 0.1722631454351573 0  0.1547844879126891 0.178656207771761 0  0.1521457199348551 0.1855097315605723 0  0.1505393388476355 0.1926758619366523 0  0.1505393388476328 0.2073241380633295 0  0.1521457199348437 0.2144902684393899 0  0.1547844879126531 0.221343792228163 0  0.1583987151778488 0.2277368545647528 0  0.1629104300036858 0.2335315343742052 0  0.1682222986671726 0.2386028198193036 0  0.1742197252833576 0.2428413052501257 0  0.1807733240458683 0.2461555514727623 0  0.1877417105384929 0.2484740584176516 0  0.1949745518995776 0.2497468076502398 0  0.202315810036185 0.2499463414463592 0  0.2096071079201568 0.2490683551528932 0  0.2166911463435495 0.2471317900544655 0  0.2234150974215506 0.2441784247426195 0  0.2296339016331197 0.2402719738031125 0  0.2352133972703547 0.2354967132658811 0  0.2400332147833751 0.2299556624715287 0  0.2439893735792577 0.2237683615780412 0  0.246996525252926 0.2170682926548348 0  0.25645809709277 0.21 0  0.2639263993298655 0.21 0  0.271394701566961 0.21 0  0.2788630038040554 0.21 0  0.2863313060411479 0.21 0  0.2937996082782405 0.21 0  0.301267910515333 0.21 0  0.3087362127524279 0.21 0  0.3162045149895234 0.21 0  0.3236728172265972 0.21 0  0.3311411194636928 0.21 0  0.3386094217007701 0.21 0  0.3460777239378666 0.21 0  0.3535460261749672 0.21 0  0.3610143284120516 0.21 0  0.3684826306491596 0.21 0  0.3759509328862226 0.21 0  0.383419235123329 0.21 0  0.3908875373604028 0.21 0  0.3983558395975142 0.21 0  0.4058241418345938 0.21 0  0.4132924440716992 0.21 0  0.4207607463087888 0.21 0  0.4282290485459029 0.21 0  0.4356973507830418 0.21 0  0.4431656530201649 0.21 0  0.4506339552573136 0.21 0  0.4581022574944306 0.21 0  0.4655705597315852 0.21 0  0.4730388619686996 0.21 0  0.480507164205851 0.21 0  0.4879754664429498 0.21 0  0.4954437686800938 0.21 0  0.502912070917267 0.21 0  0.5103803731544119 0.21 0  0.5178486753915261 0.21 0  0.5253169776286404 0.21 0  0.5327852798657868 0.21 0  0.5402535821029386 0.21 0  0.54772188434007 0.21 0  0.5551901865771842 0.21 0  0.5626584888143201 0.21 0  0.5701267910514778 0.21 0  0.5775950932886138 0.21 0  0.5850633955257281 0.21 0  0.5925316977628483 0.21 0  0.6 0.2050000000000054 0  0.6 0.1950000000000217 0  0.5925316977628897 0.19 0  0.5850633955257988 0.19 0  0.5775950932887378 0.19 0  0.5701267910515998 0.19 0  0.5626584888145268 0.19 0  0.5551901865773963 0.19 0  0.547721884340339 0.19 0  0.5402535821032429 0.19 0  0.5327852798661811 0.19 0  0.5253169776290537 0.19 0  0.5178486753919799 0.19 0  0.5103803731549078 0.19 0  0.502912070917822 0.19 0  0.4954437686807294 0.19 0  0.4879754664436223 0.19 0  0.4805071642065402 0.19 0  0.4730388619694271 0.19 0  0.4655705597323621 0.19 0  0.4581022574952563 0.19 0  0.4506339552581777 0.19 0  0.4431656530210671 0.19 0  0.4356973507839815 0.19 0  0.4282290485468779 0.19 0  0.4207607463097617 0.19 0  0.4132924440726327 0.19 0  0.4058241418354857 0.19 0  0.3983558395983636 0.19 0  0.3908875373612097 0.19 0  0.3834192351240934 0.19 0  0.3759509328869369 0.19 0  0.3684826306498175 0.19 0  0.361014328412667 0.19 0  0.3535460261755617 0.19 0  0.3460777239384295 0.19 0  0.3386094217012945 0.19 0  0.3311411194641595 0.19 0  0.3236728172270245 0.19 0  0.3162045149898895 0.19 0  0.3087362127527544 0.19 0  0.3012679105156187 0.19 0  0.2937996082784807 0.19 0  0.2863313060413428 0.19 0  0.2788630038042048 0.19 0  0.2713947015670686 0.19 0  0.2639263993299336 0.19 0  0.2564580970927985 0.19 0  0.2607803159922026 0.2000727136295815 0  0.5887803774232762 0.2001272386983733 0  0.5745072403740523 0.2002044435018727 0  0.5511891430099709 0.2001122610077113 0  0.2751288526855082 0.20000000000002 0  0.5365194309847112 0.1999999999999436 0  0.2894621222999649 0.1998691686390484 0  0.5215828265105155 0.1999999999999228 0  0.3127789816668748 0.1998657885438805 0  0.3274069683451451 0.2000000000000796 0  0.5066462220363641 0.199999999999908 0  0.3650630746574081 0.199866017807523 0  0.476773013087985 0.1999999999998713 0  0.3417402379596385 0.1998691686391011 0  0.3796850840047755 0.200000000000134 0  0.4618364086138087 0.1999999999998546 0  0.4917096175621762 0.1999999999998808 0  0.3946216884789568 0.2000000000001512 0  0.446899804139621 0.1999999999998389 0  0.4089549580935208 0.1998691686391595 0  0.4322718174608562 0.200127451265745 0  0.4201487168029707 0.1999966199048527 0  0.3528922713220932 0.2000185703532356 0  0.5633122436674589 0.1999814296467508 0  0.3006558810093873 0.1999966199048318 0  0.5815926498168407 0.1966545283159175 0  0.2677053789419034 0.1964246479135325 0  0.5290511287476175 0.1970915826863981 0  0.5439877332217911 0.197091582686394 0  0.2825131256993216 0.2035478995978015 0  0.3199386661080599 0.202908417313604 0  0.4842413153250809 0.1970915826863873 0  0.5141145242734466 0.1970915826863843 0  0.3722167817676917 0.2029084173136195 0  0.4693047108508938 0.1970915826863783 0  0.3348752705822316 0.202908417313609 0  0.3871533862418661 0.2029084173136212 0  0.4543681063767183 0.1970915826863795 0  0.4991779197992749 0.1970915826863902 0  0.4020059614928624 0.203547899597858 0  0.4394315019025246 0.1970915826863714 0  0.2550657455369551 0.2034088125358657 0  0.2548908499171161 0.1966940311614271 0  0.5946539510196798 0.2024302972968126 0  0.267698176732111 0.2039977513680092 0  0.4261685417851465 0.196409292431739 0  0.3590076176283495 0.196411355804271 0  0.5571672426447437 0.2036011176410121 0  0.3066757059912147 0.1964092924317024 0  0.594380730180568 0.1966558399668133 0  0.4842413153245942 0.2040749161535287 0  0.4693047108503577 0.2040749161535231 0  0.3871533862424271 0.1959250838464788 0  0.372246743208829 0.1959123236376545 0  0.5141145242731028 0.2040749161535395 0  0.4543681063761134 0.2040749161535186 0  0.4019979587101454 0.1959834479682427 0  0.4394608940728603 0.2040870543693135 0  0.5439623148931173 0.2040856076781014 0  0.5290511287473298 0.2040749161535501 0  0.4991779197988497 0.2040749161535382 0  0.3347912413592433 0.1959225448935183 0  0.3199680582793816 0.1959123018030061 0  0.2825051229162361 0.1959834479681729 0  0.3590471196690275 0.2036304442587945 0  0.5571594006495384 0.1963685282145804 0  0.3067669986803285 0.203627750582736 0  0.4262598344738712 0.2036568242185335 0  0.5814408164431408 0.2041285596160068 0  0.5688286748170428 0.1961819304477386 0  0.4145905603063645 0.2038180695522843 0  0.3473758401724931 0.2038180695522752 0  0.2950977245128307 0.2038180695522663 0  0.5688286748170693 0.203818069552238 0  0.2950977245127906 0.1961819304477774 0  0.3473758401723931 0.1961819304478349 0  0.4145905603061963 0.1961819304479011 0  0.2601812407614425 0.2056861609747042
[...]
<PointData  Scalars="f_40-2"> 
<DataArray  type="Float64"  Name="f_40-2"  format="ascii">1.9230282001947323e+03  1.8290644178332307e+03  0.0000000000000000e+00  0.0000000000000000e+00  -4.4142488551686995e+02  -4.3988797577464612e+02  0.0000000000000000e+00  6.0526572119670782e+03  -1.0695435837461428e+03  -1.0624977122927726e+03  -4.3314149202022281e+02  1.8398717961574687e+03  1.9064927729094040e+03  2.0431641821321598e+03  2.2367955364108825e+03  2.4390523848355892e+03  2.6177896551853191e+03  2.6874878745196193e+03  2.6569221192813588e+03  2.5168584391414010e+03  2.3278047781151581e+03  2.1469386812517541e+03  2.0126934930540858e+03  1.9413780254011660e+03  1.9248379439409669e+03  1.8910080414990132e+03  1.8352074783307689e+03  1.6458132175097930e+03  1.4917632319676138e+03  1.2115806720634571e+03  9.4097218572015151e+02  4.8415162681628135e+02  9.1477691910609821e+01  -2.4688909273616694e+01  -3.4158953953889596e+02  -3.3339707471320037e+02  -4.8278717997828198e+02  -3.4359998630956818e+02  -3.3867690523704391e+02  -3.4054565495143089e+02  -3.8496993579417409e+02  -2.3811614860915873e+02  -2.1267375930117819e+02  -1.5669434005919328e+02  -9.7033162636323780e+01  2.8406670774494984e+01  -7.2241005985360360e+01  1.4497438740862049e+02  1.8711317664900022e+02  5.2400562500675005e+02  2.5541693709396986e+02  4.7786793504491845e+02  1.9983542659261127e+02  3.2827919652720522e+02  3.4443677714610436e+02  2.4448249625194347e+02  1.9458202607087975e+02  6.0495739007600469e+02  7.5888519451190450e+02  -4.5787169563117902e+02  3.3737623615796639e+02  -6.3425961830744946e+01  0.0000000000000000e+00  0.0000000000000000e+00  0.0000000000000000e+00  -4.2014665674148785e+02  -1.7110577936579210e+02  8.2081405096720607e+02  -7.5969199703757440e+00  8.7644855891485250e+01  4.5785507442389689e+02  3.8006368563490889e+02  4.2143926819854549e+01  2.0999162388033892e+02  1.8494862868504791e+02  5.3511404071420827e+02  3.5983203796748171e+02  4.6712568100459112e+02  2.9307666433875283e+02  9.1569279856855573e+01  -1.2649269958118585e+02  1.8682527013166400e+01  5.9147923733004902e+01  -2.6519352089823769e+02  -1.9618410171449540e+02  -2.4995392770409720e+02  -2.5119221108848413e+02  -3.9040617837750352e+02  -3.1606045004815002e+02  -3.8316988801892859e+02  -3.7019660914189313e+02  -2.0634471654217836e+02  -2.0452415422480098e+02  -8.1286431486312793e+01  2.0668491429386279e+02  4.9201585512540231e+02  8.4765446691665204e+02  1.1433313734602229e+03  1.3731087480016208e+03  1.6159066689411145e+03  1.7116003238179135e+03  1.8001437809648548e+03  1.8261431738082006e+03  0.0000000000000000e+00  0.0000000000000000e+00  -1.0657431344976480e+03  -1.0783672903711617e+03  -1.1030495880949418e+03  -1.1300580882912993e+03  -1.1441454733708597e+03  -1.1106018273337083e+03  -9.8841354871089061e+02  -7.2922229963928555e+02  -3.4214692421456596e+02  1.8287591751708317e+02  8.3297525179876402e+02  1.5780304012979541e+03  2.3485943555517520e+03  3.1737993964660568e+03  3.8952395984891677e+03  4.6370286044703062e+03  5.1911481212665685e+03  5.6822897641990503e+03  5.9434607127847412e+03  5.9425695821740383e+03  5.6549764979979354e+03  5.2991241078835019e+03  4.6667941319353904e+03  3.9287427228990350e+03  3.1984413007583653e+03  2.3469097334223857e+03  1.5599462308808831e+03  8.4106206683013909e+02  1.7688234089537301e+02  -3.5765567679269890e+02  -7.3976613053823201e+02  -9.9540993269563910e+02  -1.1169065805381999e+03  -1.1518093440965165e+03  -1.1351921491346798e+03  -1.1096104293935443e+03  -1.0849652371902182e+03  -1.0726567328494186e+03  -1.0682279259293293e+03  -1.0623318187426157e+03  -1.0529278401402953e+03  -1.0411634896506546e+03  -1.0279524291702467e+03  -1.0134809504600557e+03  -9.9777058277506069e+02  -9.8220984863856881e+02  -9.6563367611614240e+02  -9.5027382693315826e+02  -9.3392053145895409e+02  -9.1868160519763080e+02  -9.0264927609773474e+02  -8.8754133870318094e+02  -8.7165121885818894e+02  -8.5731072294047021e+02  -8.4221073174974731e+02  -8.2790532839371758e+02  -8.1310711729619061e+02  -7.9787478498156497e+02  -7.8109771409446444e+02  -7.6396508514435982e+02  -7.4785984992214014e+02  -7.3003621394979564e+02  -7.1440824305191836e+02  -6.9733237527679148e+02  -6.8209141176614730e+02  -6.6663233599136061e+02  -6.5174729696886277e+02  -6.3868167276939960e+02  -6.2497459260334506e+02  -6.1226610478303189e+02  -5.9894609424335295e+02  -5.8507724943350468e+02  -5.7218431571698954e+02  -5.5960298355494308e+02  -5.4685576225065608e+02  -5.3485232859446535e+02  -5.2269157900132541e+02  -5.1181844592934328e+02  -5.0049566110285883e+02  -4.8917412437602121e+02  -4.7904401548317884e+02  -4.6853092917482132e+02  -4.5862142603872525e+02  -4.4923047845892671e+02  -4.3449556934135421e+02  -4.3591360015781993e+02  -4.5276323943001398e+02  -4.6261475492168751e+02  -4.7118705283557335e+02  -4.7972627044029480e+02  -4.8887080944020215e+02  -4.9870928739545519e+02  -5.0920886784351615e+02  -5.1888851342165981e+02  -5.2994296247939019e+02  -5.4092848113945695e+02  -5.5332203521697022e+02  -5.6541835081406441e+02  -5.7839548335166046e+02  -5.9062323102788764e+02  -6.0402145719089003e+02  -6.1678942813920082e+02  -6.3094705886383974e+02  -6.4476718502946505e+02  -6.5932623035127688e+02  -6.7288979584055687e+02  -6.8766657187131341e+02  -7.0195525977043246e+02  -7.1748279839511702e+02  -7.3230711362304316e+02  -7.4814191911151852e+02  -7.6288402598677055e+02  -7.7897386011864160e+02  -7.9421816468192105e+02  -8.1067126437683044e+02  -8.2638246953806799e+02  -8.4302092186035645e+02  -8.5851720478904224e+02  -8.7529300364963285e+02  -8.9130046567454644e+02  -9.0813641674742610e+02  -9.2402427418748971e+02  -9.4101629424082353e+02  -9.5663730360068143e+02  -9.7325073538916922e+02  -9.8864495505929472e+02  -1.0039597822357539e+03  -1.0180845121965581e+03  -1.0316792938398828e+03  -1.0444573682478144e+03  -1.0547132677509451e+03  -1.0610454749455384e+03  0.0000000000000000e+00  0.0000000000000000e+00  0.0000000000000000e+00  0.0000000000000000e+00  0.0000000000000000e+00  0.0000000000000000e+00  0.0000000000000000e+00  0.0000000000000000e+00  0.0000000000000000e+00  0.0000000000000000e+00  0.0000000000000000e+00  0.0000000000000000e+00  0.0000000000000000e+00  0.0000000000000000e+00  0.0000000000000000e+00  0.0000000000000000e+00  0.0000000000000000e+00  0.0000000000000000e+00  0.0000000000000000e+00  0.0000000000000000e+00  0.0000000000000000e+00  0.0000000000000000e+00  0.0000000000000000e+00  0.0000000000000000e+00  0.0000000000000000e+00  0.0000000000000000e+00  0.0000000000000000e+00  0.0000000000000000e+00  0.0000000000000000e+00  0.0000000000000000e+00  0.0000000000000000e+00  0.0000000000000000e+00  0.0000000000000000e+00  0.0000000000000000e+00  0.0000000000000000e+00  0.0000000000000000e+00  0.0000000000000000e+00  0.0000000000000000e+00  0.0000000000000000e+00  0.0000000000000000e+00  0.0000000000000000e+00  0.0000000000000000e+00  0.0000000000000000e+00  0.0000000000000000e+00  0.0000000000000000e+00  0.0000000000000000e+00  0.0000000000000000e+00  0.0000000000000000e+00  0.0000000000000000e+00  0.0000000000000000e+00  0.0000000000000000e+00  0.0000000000000000e+00  0.0000000000000000e+00  0.0000000000000000e+00  0.0000000000000000e+00  0.0000000000000000e+00  0.0000000000000000e+00  0.0000000000000000e+00  0.0000000000000000e+00  0.0000000000000000e+00  0.0000000000000000e+00  0.0000000000000000e+00  0.0000000000000000e+00  0.0000000000000000e+00  0.0000000000000000e+00  0.0000000000000000e+00  0.0000000000000000e+00  0.0000000000000000e+00  0.0000000000000000e+00  0.0000000000000000e+00  0.0000000000000000e+00  0.0000000000000000e+00  0.0000000000000000e+00  0.0000000000000000e+00  0.0000000000000000e+00  0.0000000000000000e+00  0.0000000000000000e+00  0.0000000000000000e+00  0.0000000000000000e+00  0.0000000000000000e+00  0.0000000000000000e+00  0.0000000000000000e+00  0.0000000000000000e+00  0.0000000000000000e+00  0.0000000000000000e+00  0.0000000000000000e+00  0.0000000000000000e+00  0.0000000000000000e+00  0.0000000000000000e+00  0.0000000000000000e+00  0.0000000000000000e+00  0.0000000000000000e+00  0.0000000000000000e+00  0.0000000000000000e+00  0.0000000000000000e+00  0.0000000000000000e+00  0.0000000000000000e+00  0.0000000000000000e+00  0.0000000000000000e+00  0.0000000000000000e+00  0.0000000000000000e+00  0.0000000000000000e+00  0.0000000000000000e+00  0.0000000000000000e+00  0.0000000000000000e+00  0.0000000000000000e+00  0.0000000000000000e+00  0.0000000000000000e+00  0.0000000000000000e+00  0.0000000000000000e+00  0.0000000000000000e+00  0.0000000000000000e+00  0.0000000000000000e+00  0.0000000000000000e+00  0.0000000000000000e+00  0.0000000000000000e+00  0.0000000000000000e+00  0.0000000000000000e+00  0.0000000000000000e+00  0.0000000000000000e+00  0.0000000000000000e+00  0.0000000000000000e+00  0.0000000000000000e+00  -5.6605085443260373e+02  -5.7909943636984451e+02  -2.3572731448007633e+02  -5.6277322760562231e+02  -5.2160219049687430e+02  -6.4073573334896560e+02  -4.2136874185611555e+02  -5.6520869758603442e+02  2.0514495798561688e+03  -4.4954226443402075e+02  2.3696762355925994e+03  1.4991972720369408e+03  3.0816783533330528e+02  1.3802950155388892e+03  3.0495668922750460e+03  3.8155350612804227e+02  -1.0371049116137599e+03  -1.0453894683444894e+03  3.2841172230065185e+03  -9.5498472214002345e+02  -9.4466190517139069e+02  -8.6062101655577248e+02  -2.6939727135075890e+02  -8.4489924389341104e+02  -7.7080831553961173e+02  -6.6268032429083291e+02  -7.5483098637551768e+02  -6.6325623508449939e+02  -5.8123852220505069e+02  -5.2188430068447610e+02  -5.1365288172455269e+02  2.5524963412750894e+03  -4.5939657427474629e+02  2.6382522968512803e+03  -4.7005898315750187e+02  -3.6919837336329749e+02  -9.1293378089824159e+02  -9.5134724156228947e+02  -3.9260968683962159e+02  -3.9490542977483796e+02  -5.8936993316473684e+02  3.9571959733330464e+03  5.3732381518669354e+02  1.0861722327560933e+03  5.9348096136871185e+01  1.9294777109336785e+03  3.6106896784457895e+03  3.5934301510781524e+03  3.5610895074320791e+02  -7.0937958227180957e+02  -1.0052352636289015e+03  -4.0812870562824872e+02  -9.9588505785717643e+02  -9.1260170594790316e+02  -8.2266497651080442e+02  2.0143626983388961e+03  -1.0965381114322833e+01  -9.0104357723702958e+02  -5.0987506658359376e+02  -8.0328459272500663e+02  -5.3826150921337421e+02  -2.9120912600915847e+02  -7.1075264001895698e+02  3.0240589279946266e+03  4.3473603890311063e+02  -6.2591803702688185e+02  -5.4866867116374806e+02  -7.1437565872861171e+02  -4.8806945445954517e+02  -6.3146838428487968e+02  -5.5543930195375390e+02  -4.4668194370820663e+02  4.4540986674011683e+03  -3.9154750733785158e+02  3.9603355165850797e+02  -4.1208695974685560e+02  -6.3172793812256896e+02  3.0328707845859467e+03  -4.7523455573034994e+02  2.3698461537727812e+03  2.8836548799354573e+03  1.8231291182189918e+03  -1.0681259982222400e+03  -1.0905695503172781e+03  -1.0609121303293580e+03  -1.0848285792048205e+03  -6.1351184303300943e+02  -4.4581253837295742e+02  -9.5855157629969028e+02  -7.5835784597885117e+02  2.6028588788007087e+03  -9.4953376079017448e+02  1.5922298298901012e+03  3.0193313415306369e+02  -8.6434348983003656e+02  -2.4965189933002532e+02  -4.1947927119733168e+02  -5.0786946420486129e+02  2.0371329042064626e+03  -8.5162874524234837e+02  -7.5657778512708524e+02  1.8562238299160974e+03  3.1709248956016575e+02  1.0692109968000204e+03  4.5981322868231546e+03  -6.6764510202852205e+02  8.6624056362205658e+02  -5.8583068343483774e+02  -6.7486456380339902e+01  -5.6508806779126053e+02  -4.3627286840732509e+01  -2.2710188402556600e+01  -5.1625490286288971e+02  3.1350824368559176e+02  2.8798600675423677e+03  -6.7677976523617372e+02  8.9320647979489468e+02  -4.3777454956162012e+02  -1.0407317102862683e+03  -9.5238117359843136e+02  -4.2012579171921612e+02  -3.2864315124501871e+02  -1.0303816238215063e+03  1.9693162274329015e+03  -5.9284093804084478e+02  -2.9271450137985500e+01  3.1424625887621391e+02  -4.2099168421188955e+02  1.1550361814064433e+02  2.5314354776412438e+03  -1.1090586311021598e+03  -5.3013618711535617e+02  1.9584348998624617e+02  2.0523050797954184e+02  -7.9210190726482210e+02  -7.2305946810392072e+02  -7.0629695680017380e+02  9.6777527970224401e+02  -3.3921001960883524e+02  -4.7016006058064119e+02  -9.9963748919360626e+02  -3.6026839542937910e+02  1.9543139960848771e+03  1.8591609617836768e+03  -4.9608399325837854e+02  -1.6833395799485174e+02  -9.8455417129946784e+02  -2.9356243317781792e+02  4.2400244426723475e+03  -8.7254610385677086e+02  -4.2610021750083234e+02  -3.6586238547513648e+02  -9.0463510124733864e+02  2.0086960383015430e+03  3.2316472831070450e+03  -4.2723298755341648e+02  3.9777857520165219e+02  3.9012782768193398e+02  -7.7811426292398403e+02  -9.2761609745893406e+02  -8.9580980528709381e+02  4.2637397409638443e+03  -8.9524433496827805e+02  -8.8302032699265044e+02  -9.1775498336758631e+02  -8.3394802284001264e+02  -9.9004270342092025e+02  -8.1985216244164872e+02  -7.8754499206582886e+02  3.0245295959903753e+01  1.9989181725968788e+01  -4.0940001469167470e+02  2.7152744646235833e+03  -9.8096501619286926e+02  -8.8460185385163106e+02  -6.9489993486839262e+02  -7.2543783441291680e+02  -2.0920584816920299e+02  -6.3919403692469177e+02  -6.1158771900409397e+02  3.6943427932002905e+03  -2.9155472950768217e+02  -5.3591471890439323e+02  -5.6020754355502925e+02  4.9144897294610610e+03  8.5685287078338388e+02  -7.9163433430782527e+02  -4.9357778075043274e+02  -3.2452077590505610e+02  -2.4812440824402384e+02  1.3203599060164852e+03  2.5886945481355724e+02  2.9648630576623628e+02  2.0510100623085982e+03  8.6094186452451129e+02  6.8556663091632561e+02  -6.1905386012267343e+02  -6.4674808146392604e+02  2.9075821458948622e+03  -7.0578571398115253e+02  -5.6511015510495963e+02  2.2925556295147644e+03  -1.1117233830127605e+03  -5.6180872978509717e+02  -2.5808731818597795e+02  -4.4645842368575023e+02  -4.3061889033195575e+02  2.0346931226178883e+03  1.2794389140880073e+03  -6.2220370300769093e+02  -4.6881778355558180e+02  -2.6686893877260542e+02  2.8888838042618900e+03  -2.4922104750129228e+02  1.8204992439591051e+03  -5.5040078670335231e+02  -3.4304242928155725e+02  -3.5812614699920590e+02  -4.2489814024164752e+02  -8.6342557962214141e+02  1.9708389136427306e+03  -1.0231989783047546e+03  3.6021732633064776e+03  -1.0594042448571106e+03  3.1160726934102019e+02  3.2476214232184390e+02  -1.0132677816456271e+03  -3.6468221607826473e+02  1.6003412263802463e+03  -4.7623029510580426e+02  3.1018757855367107e+02  3.5416537950625468e+02  -4.4858788443005875e+02  -8.4400156842041611e+02  -1.0857533899547593e+03  2.8109167661652091e+03  -3.3524454931802802e+02  -1.0789840098143943e+03  -4.2734331016667994e+02  -1.7594763072365186e+02  -1.0630079644998955e+03  -2.1389691132281538e+02  1.8859252705146666e+03  -3.3379215641370922e+02  1.3294911284267969e+03  6.1542320185035703e+02  -4.6604742162654367e+02  -3.6783652377599645e+02  -7.2889330383266110e+02  -3.1482201064004477e+02  2.4055347657451225e+03  -7.7105766279393265e+02  -1.1310775969916335e+03  -1.0451125311692638e+03  -7.2928114455516902e+02  3.2793178235728387e+03  -3.9447044239090508e+02  1.9978524073106480e+03  4.7557661183523505e+00  -6.1227718332715995e+02  -5.9340117365802587e+02  -5.6116040456553515e+02  2.6321991328343447e+03  -8.1024564015282340e+02  5.0014187766091000e+03  -4.2883576103679900e+02  -4.1828575778553909e+02  2.6097542623305907e+02  3.2320968770807212e+02  -9.5828477948290788e+02  -7.5665677691682811e+02  3.5843750645912564e+02  3.3926472715826321e+02  4.9608169683618125e+03  -9.4915467521153869e+02  -6.2966621154942641e+02  5.3904441315345348e+00  -5.7675328576655090e+02  -1.0532250605111626e+03  -8.6459432916068340e+02  2.2775980081974603e+03  -6.6290806944169151e+02  -1.0453456365132849e+03  2.2477630177989386e+03  -8.5118762703348523e+02  1.3743231098935091e+03  -6.9009109847903994e+02  3.8739539285229521e+03  1.9505575056715059e+03  -7.5601733156368107e+02  3.0547867570496683e+03  3.2956356188760624e+03  -1.0656056311201198e+03  -6.6680441178391834e+02  -8.1376522471058774e+02  -5.8522818738117007e+02  2.7190005272698654e+03  -4.9904816487251009e+02  -5.3481795681316885e+02  -8.2232197482875927e+02  2.5657520460341476e+02  3.3889951241698213e+02  2.4807848456878881e+02  -5.1484149045191464e+02  1.7291593153728800e+03  -1.0496650108528197e+03  -4.3950103334770807e+02  2.4105413670654866e+03  -3.7688724485879453e+02  1.9802526024166300e+03  -3.5464577866153252e+02  -5.4591212773301447e+02  -4.5156168722426651e+02  -5.1379956484511331e+02  1.7769634272987735e+03  -5.0214351695312462e+02  -9.8556031762560679e+01  3.0294946142091680e+03  2.4051873340734801e+02  1.1154782787814985e+02  -7.3883612183832895e+02  -2.5235793564493889e+01  2.4218021028594121e+03  -4.8060289467409524e+02  -2.4574827991896473e+02  2.6774231337283800e+03  -2.2345718133055487e+02  1.3422598403420359e+03  -7.8953016495136217e+02  1.8331767069614311e+03  -9.7676203167937069e+02  -9.8283634772091347e+01  -3.1022285475331068e+02  1.8622698366766738e+02  3.5251290763882898e+03  -1.3012589655427595e+02  -2.4769457526435906e+02  3.5779060111786646e+02  -4.2900183233197782e+02  1.6073508390898053e+03  -1.0286039855611862e+03  -1.0699659437583630e+03  1.0724703609492515e+03  -9.6816088266735312e+02  -1.0627884557668115e+03  1.3886007562919347e+03  -8.2688420875781219e+02  -2.4196358090808577e+01  -1.3208656966245763e+02  -4.8173892036474291e+02  1.5821789122421803e+03  -4.2589530501185925e+02  2.1744705012449635e+03  1.3368456486854707e+03  -1.0161736119935920e+03  -3.7871129936432902e+02  -6.3615780802382187e+02  -9.5984121110702702e+01  -1.1152386374282673e+03  -4.4868975725327641e+02  -9.3512251714340948e+02  -5.9248578526626079e+02  -1.1047452715748159e+03  2.0940323731975668e+03  2.5148675967678078e+03  2.4005179766429469e+03  4.0765392702749764e+03  2.7255710080699632e+03  3.5158833223086472e+03  1.6990391115861203e+02  -1.1346906555827363e+03  4.1655258508046172e+03  -9.1120899257688143e+02  -5.1199614294717128e+02  5.0519144886573904e+03  3.1262940425175357e+03  2.5045445923703151e+03  -4.8324851971939529e+02  -9.0006200170652858e+02  -2.1442320742165734e+01  -9.2583579791707723e+02  1.4571070707647035e+01  -9.4409665265762030e+01  -8.6728979438322892e+02  -8.0298886290682856e+02  5.2534723653264409e+03  3.3365163705774353e+02  3.1538721066721916e+02  3.3579159258450454e+03  -3.6355909076177386e+02  -8.8609678624279150e+02  -7.1003465145402436e+02  -5.0917862919542375e+02  4.0584082264853282e+03  2.7250073107493604e+03  -8.4768016890628655e+02  -6.2452479943323874e+02  -5.4757417825051755e+02  -4.6196111613664453e+02  -4.8250353219640465e+02  -9.1272107270738036e+02  -7.1656808523785378e+02  1.4931005179592462e+03  1.1842630385482573e+03  -4.3710015440363111e+02  -3.1312177776517562e+01  9.4630423053481582e+02  -4.0591990476127620e+02  2.1767206371216462e+03  -8.8881117829291759e+02  3.5137110539128198e+03  -8.7446686158954253e+02  -4.4687290997530511e+02  -6.5819736770244481e+02  -6.3233788940015381e+02  3.3874048993568977e+02  -4.3419052873253958e+02  -1.0959406835512357e+03  -8.3131517026992788e+02  -1.1285187434219122e+03  1.7495640626437954e+01  8.4204695033635346e+01  -1.0396874256224553e+03  2.9945370460980424e+01  2.3935638738094812e+02  6.4580426468243013e+02  2.6127976442585004e+03  -7.7527399577124936e+02  3.1877014346106598e+03  -1.0299921566381900e+03  7.7359760288392636e+01  -1.0580159564882204e+03  -2.9931582143171585e+02  -3.8683219343190660e+02  -4.1515484835169224e+02  6.0627156984157978e+02  2.9689502738238639e+03  -7.3471332901616950e+02  5.8705974213047762e+02  1.7081651078238192e+03  2.6200051411398999e+02  1.7022896545042979e+03  -4.4435521600269271e+02  -1.1210193526304301e+03  2.5521061973727055e+03  2.5942873390256477e+03  -1.0385755177613489e+03  3.1184176337249228e+03  -6.8808793705896221e+02  2.1739747352434274e+03  -1.0062595012690808e+03  1.659786766703643