<?xml version="1.0"?>
<VTKFile type="UnstructuredGrid"  version="0.1"  >
<UnstructuredGrid>
<Piece  NumberOfPoints="1419" NumberOfCells="2698">
<Points>
<DataArray  type="Float64"  NumberOfComponents="3"  format="ascii">0 0 0  0 0.41 0  2.5 0 0  2.5 0.41 0  0.6 0.19 0  0.6 0.21 0  0.25 0.2 0  0.15 0.2 0  0.2489897948556636 0.21 0  0.2489897948556636 0.19 0  0.6 0.2 0  0 0.3807142857143437 0  0 0.3514285714286952 0  0 0.3221428571430699 0  0 0.29285714285744 0  0 0.2635714285718054 0  0 0.2342857142861561 0  0 0.2050000000005308 0  0 0.175714285714732 0  0 0.1464285714289574 0  0 0.1171428571431897 0  0 0.08785714285737878 0  0 0.05857142857161107 0  0 0.02928571428580012 0  0.03015443760436003 0 0  0.06140001986583606 0 0  0.09377624077125973 0 0  0.1273239957535082 0 0  0.1620856860351972 0 0  0.1981052433264291 0 0  0.235428184091502 0 0  0.2741016576309132 0 0  0.3141745521465447 0 0  0.3556974926295285 0 0  0.3987229542472677 0 0  0.4433053055141081 0 0  0.4895008759286886 0 0  0.5373680609405097 0 0  0.5869673343216626 0 0  0.6383613676634521 0 0  0.6916151138468254 0 0  0.7467958595648856 0 0  0.8039733463919316 0 0  0.8632198139502143 0 0  0.9246101326867038 0 0  0.9882218810934433 0 0  1.054135445558498 0 0  1.122434100542598 0 0  1.193204177141305 0 0  1.266535089879536 0 0  1.342519516046404 0 0  1.421253448503939 0 0  1.502836389106271 0 0  1.587371439758838 0 0  1.674965418777374 0 0  1.765729001825544 0 0  1.859776908880082 0 0  1.957227977487062 0 0  2.058205329869943 0 0  2.162836591189951 0 0  2.271253957290865 0 0  2.383594446803425 0 0  2.5 0.1024999999997612 0  2.5 0.2049999999994743 0  2.5 0.3074999999997183 0  2.383594446803656 0.41 0  2.271253957291315 0.41 0  2.162836591190598 0.41 0  2.058205329870775 0.41 0  1.957227977488067 0.41 0  1.859776908881246 0.41 0  1.765729001826854 0.41 0  1.674965418778818 0.41 0  1.58737143976041 0.41 0  1.502836389107956 0.41 0  1.421253448505726 0.41 0  1.342519516048286 0.41 0  1.266535089881505 0.41 0  1.193204177143353 0.41 0  1.122434100544716 0.41 0  1.05413544556068 0.41 0  0.9882218810956305 0.41 0  0.9246101326886647 0.41 0  0.8632198139519631 0.41 0  0.8039733463934788 0.41 0  0.7467958595662458 0.41 0  0.6916151138480078 0.41 0  0.6383613676644679 0.41 0  0.5869673343225223 0.41 0  0.5373680609412221 0.41 0  0.4895008759292634 0.41 0  0.4433053055145528 0.41 0  0.3987229542475914 0.41 0  0.3556974926297398 0.41 0  0.3141745521466497 0.41 0  0.2741016576310038 0.41 0  0.2354281840915826 0.41 0  0.1981052433265003 0.41 0  0.1620856860352591 0.41 0  0.1273239957535623 0.41 0  0.09377624077128965 0.41 0  0.06140001986584975 0.41 0  0.03015443760436654 0.41 0  0.2497468076502589 0.2050254481002335 0  0.2497468076502614 0.1949745518997913 0  0.2469965252529372 0.1829317073451959 0  0.2439893735792749 0.1762316384219906 0  0.2400332147834255 0.1700443375285386 0  0.2352133972704371 0.1645032867342007 0  0.2296339016332438 0.1597280261969788 0  0.2234150974217223 0.1558215752574715 0  0.2166911463437691 0.1528682099456123 0  0.2096071079204251 0.1509316448471593 0  0.2023158100364996 0.1500536585536553 0  0.194974551899914 0.1502531923497262 0  0.1877417105387872 0.1515259415822739 0  0.1807733240461124 0.153844448527136 0  0.1742197252835808 0.15715869474974 0  0.1682222986673531 0.1613971801805478 0  0.162910430003803 0.1664684656256651 0  0.1583987151779087 0.1722631454351573 0  0.1547844879126891 0.178656207771761 0  0.1521457199348551 0.1855097315605723 0  0.1505393388476355 0.1926758619366523 0  0.1505393388476328 0.2073241380633295 0  0.1521457199348437 0.2144902684393899 0  0.1547844879126531 0.221343792228163 0  0.1583987151778488 0.2277368545647528 0  0.1629104300036858 0.2335315343742052 0  0.1682222986671726 0.2386028198193036 0  0.1742197252833576 0.2428413052501257 0  0.1807733240458683 0.2461555514727623 0  0.1877417105384929 0.2484740584176516 0  0.1949745518995776 0.2497468076502398 0  0.202315810036185 0.2499463414463592 0  0.2096071079201568 0.2490683551528932 0  0.2166911463435495 0.2471317900544655 0  0.2234150974215506 0.2441784247426195 0  0.2296339016331197 0.2402719738031125 0  0.2352133972703547 0.2354967132658811 0  0.2400332147833751 0.2299556624715287 0  0.2439893735792577 0.2237683615780412 0  0.246996525252926 0.2170682926548348 0  0.25645809709277 0.21 0  0.2639263993298655 0.21 0  0.271394701566961 0.21 0  0.2788630038040554 0.21 0  0.2863313060411479 0.21 0  0.2937996082782405 0.21 0  0.301267910515333 0.21 0  0.3087362127524279 0.21 0  0.3162045149895234 0.21 0  0.3236728172265972 0.21 0  0.3311411194636928 0.21 0  0.3386094217007701 0.21 0  0.3460777239378666 0.21 0  0.3535460261749672 0.21 0  0.3610143284120516 0.21 0  0.3684826306491596 0.21 0  0.3759509328862226 0.21 0  0.383419235123329 0.21 0  0.3908875373604028 0.21 0  0.3983558395975142 0.21 0  0.4058241418345938 0.21 0  0.4132924440716992 0.21 0  0.4207607463087888 0.21 0  0.4282290485459029 0.21 0  0.4356973507830418 0.21 0  0.4431656530201649 0.21 0  0.4506339552573136 0.21 0  0.4581022574944306 0.21 0  0.4655705597315852 0.21 0  0.4730388619686996 0.21 0  0.480507164205851 0.21 0  0.4879754664429498 0.21 0  0.4954437686800938 0.21 0  0.502912070917267 0.21 0  0.5103803731544119 0.21 0  0.5178486753915261 0.21 0  0.5253169776286404 0.21 0  0.5327852798657868 0.21 0  0.5402535821029386 0.21 0  0.54772188434007 0.21 0  0.5551901865771842 0.21 0  0.5626584888143201 0.21 0  0.5701267910514778 0.21 0  0.5775950932886138 0.21 0  0.5850633955257281 0.21 0  0.5925316977628483 0.21 0  0.6 0.2050000000000054 0  0.6 0.1950000000000217 0  0.5925316977628897 0.19 0  0.5850633955257988 0.19 0  0.5775950932887378 0.19 0  0.5701267910515998 0.19 0  0.5626584888145268 0.19 0  0.5551901865773963 0.19 0  0.547721884340339 0.19 0  0.5402535821032429 0.19 0  0.5327852798661811 0.19 0  0.5253169776290537 0.19 0  0.5178486753919799 0.19 0  0.5103803731549078 0.19 0  0.502912070917822 0.19 0  0.4954437686807294 0.19 0  0.4879754664436223 0.19 0  0.4805071642065402 0.19 0  0.4730388619694271 0.19 0  0.4655705597323621 0.19 0  0.4581022574952563 0.19 0  0.4506339552581777 0.19 0  0.4431656530210671 0.19 0  0.4356973507839815 0.19 0  0.4282290485468779 0.19 0  0.4207607463097617 0.19 0  0.4132924440726327 0.19 0  0.4058241418354857 0.19 0  0.3983558395983636 0.19 0  0.3908875373612097 0.19 0  0.3834192351240934 0.19 0  0.3759509328869369 0.19 0  0.3684826306498175 0.19 0  0.361014328412667 0.19 0  0.3535460261755617 0.19 0  0.3460777239384295 0.19 0  0.3386094217012945 0.19 0  0.3311411194641595 0.19 0  0.3236728172270245 0.19 0  0.3162045149898895 0.19 0  0.3087362127527544 0.19 0  0.3012679105156187 0.19 0  0.2937996082784807 0.19 0  0.2863313060413428 0.19 0  0.2788630038042048 0.19 0  0.2713947015670686 0.19 0  0.2639263993299336 0.19 0  0.2564580970927985 0.19 0  0.2607803159922026 0.2000727136295815 0  0.5887803774232762 0.2001272386983733 0  0.5745072403740523 0.2002044435018727 0  0.5511891430099709 0.2001122610077113 0  0.2751288526855082 0.20000000000002 0  0.5365194309847112 0.1999999999999436 0  0.2894621222999649 0.1998691686390484 0  0.5215828265105155 0.1999999999999228 0  0.3127789816668748 0.1998657885438805 0  0.3274069683451451 0.2000000000000796 0  0.5066462220363641 0.199999999999908 0  0.3650630746574081 0.199866017807523 0  0.476773013087985 0.1999999999998713 0  0.3417402379596385 0.1998691686391011 0  0.3796850840047755 0.200000000000134 0  0.4618364086138087 0.1999999999998546 0  0.4917096175621762 0.1999999999998808 0  0.3946216884789568 0.2000000000001512 0  0.446899804139621 0.1999999999998389 0  0.4089549580935208 0.1998691686391595 0  0.4322718174608562 0.200127451265745 0  0.4201487168029707 0.1999966199048527 0  0.3528922713220932 0.2000185703532356 0  0.5633122436674589 0.1999814296467508 0  0.3006558810093873 0.1999966199048318 0  0.5815926498168407 0.1966545283159175 0  0.2677053789419034 0.1964246479135325 0  0.5290511287476175 0.1970915826863981 0  0.5439877332217911 0.197091582686394 0  0.2825131256993216 0.2035478995978015 0  0.3199386661080599 0.202908417313604 0  0.4842413153250809 0.1970915826863873 0  0.5141145242734466 0.1970915826863843 0  0.3722167817676917 0.2029084173136195 0  0.4693047108508938 0.1970915826863783 0  0.3348752705822316 0.202908417313609 0  0.3871533862418661 0.2029084173136212 0  0.4543681063767183 0.1970915826863795 0  0.4991779197992749 0.1970915826863902 0  0.4020059614928624 0.203547899597858 0  0.4394315019025246 0.1970915826863714 0  0.2550657455369551 0.2034088125358657 0  0.2548908499171161 0.1966940311614271 0  0.5946539510196798 0.2024302972968126 0  0.267698176732111 0.2039977513680092 0  0.4261685417851465 0.196409292431739 0  0.3590076176283495 0.196411355804271 0  0.5571672426447437 0.2036011176410121 0  0.3066757059912147 0.1964092924317024 0  0.594380730180568 0.1966558399668133 0  0.4842413153245942 0.2040749161535287 0  0.4693047108503577 0.2040749161535231 0  0.3871533862424271 0.1959250838464788 0  0.372246743208829 0.1959123236376545 0  0.5141145242731028 0.2040749161535395 0  0.4543681063761134 0.2040749161535186 0  0.4019979587101454 0.1959834479682427 0  0.4394608940728603 0.2040870543693135 0  0.5439623148931173 0.2040856076781014 0  0.5290511287473298 0.2040749161535501 0  0.4991779197988497 0.2040749161535382 0  0.3347912413592433 0.1959225448935183 0  0.3199680582793816 0.1959123018030061 0  0.2825051229162361 0.1959834479681729 0  0.3590471196690275 0.2036304442587945 0  0.5571594006495384 0.1963685282145804 0  0.3067669986803285 0.203627750582736 0  0.4262598344738712 0.2036568242185335 0  0.5814408164431408 0.2041285596160068 0  0.5688286748170428 0.1961819304477386 0  0.4145905603063645 0.2038180695522843 0  0.3473758401724931 0.2038180695522752 0  0.2950977245128307 0.2038180695522663 0  0.5688286748170693 0.203818069552238 0  0.2950977245127906 0.1961819304477774 0  0.3473758401723931 0.1961819304478349 0  0.4145905603061963 0.1961819304479011 0  0.2601812407614425 0.2056861609747042
[...]
<PointData  Vectors="f_40-0"> 
<DataArray  type="Float64"  Name="f_40-0"  NumberOfComponents="3" format="ascii">0.0000000000000000e+00 0.0000000000000000e+00 0.0000000000000000e+00  0.0000000000000000e+00 0.0000000000000000e+00 0.0000000000000000e+00  0.0000000000000000e+00 0.0000000000000000e+00 0.0000000000000000e+00  0.0000000000000000e+00 0.0000000000000000e+00 0.0000000000000000e+00  1.7705897284487007e-09 8.4650923492128207e-09 0.0000000000000000e+00  -2.0587020785840613e-09 5.2172440130882742e-09 0.0000000000000000e+00  0.0000000000000000e+00 0.0000000000000000e+00 0.0000000000000000e+00  0.0000000000000000e+00 0.0000000000000000e+00 0.0000000000000000e+00  0.0000000000000000e+00 0.0000000000000000e+00 0.0000000000000000e+00  0.0000000000000000e+00 0.0000000000000000e+00 0.0000000000000000e+00  -2.9178860264374549e-10 -8.0904671723483729e-09 0.0000000000000000e+00  7.9591836734548405e-01 0.0000000000000000e+00 0.0000000000000000e+00  1.4693877550994523e+00 0.0000000000000000e+00 0.0000000000000000e+00  2.0204081632617479e+00 0.0000000000000000e+00 0.0000000000000000e+00  2.4489795918330071e+00 0.0000000000000000e+00 0.0000000000000000e+00  2.7551020408131754e+00 0.0000000000000000e+00 0.0000000000000000e+00  2.9387755102022344e+00 0.0000000000000000e+00 0.0000000000000000e+00  3.0000000000000004e+00 0.0000000000000000e+00 0.0000000000000000e+00  2.9387755102059474e+00 0.0000000000000000e+00 0.0000000000000000e+00  2.7551020408195543e+00 0.0000000000000000e+00 0.0000000000000000e+00  2.4489795918409065e+00 0.0000000000000000e+00 0.0000000000000000e+00  2.0204081632692521e+00 0.0000000000000000e+00 0.0000000000000000e+00  1.4693877551058563e+00 0.0000000000000000e+00 0.0000000000000000e+00  7.9591836734909216e-01 0.0000000000000000e+00 0.0000000000000000e+00  0.0000000000000000e+00 0.0000000000000000e+00 0.0000000000000000e+00  0.0000000000000000e+00 0.0000000000000000e+00 0.0000000000000000e+00  0.0000000000000000e+00 0.0000000000000000e+00 0.0000000000000000e+00  0.0000000000000000e+00 0.0000000000000000e+00 0.0000000000000000e+00  0.0000000000000000e+00 0.0000000000000000e+00 0.0000000000000000e+00  0.0000000000000000e+00 0.0000000000000000e+00 0.0000000000000000e+00  0.0000000000000000e+00 0.0000000000000000e+00 0.0000000000000000e+00  0.0000000000000000e+00 0.0000000000000000e+00 0.0000000000000000e+00  0.0000000000000000e+00 0.0000000000000000e+00 0.0000000000000000e+00  0.0000000000000000e+00 0.0000000000000000e+00 0.0000000000000000e+00  0.0000000000000000e+00 0.0000000000000000e+00 0.0000000000000000e+00  0.0000000000000000e+00 0.0000000000000000e+00 0.0000000000000000e+00  0.0000000000000000e+00 0.0000000000000000e+00 0.0000000000000000e+00  0.0000000000000000e+00 0.0000000000000000e+00 0.0000000000000000e+00  0.0000000000000000e+00 0.0000000000000000e+00 0.0000000000000000e+00  0.0000000000000000e+00 0.0000000000000000e+00 0.0000000000000000e+00  0.0000000000000000e+00 0.0000000000000000e+00 0.0000000000000000e+00  0.0000000000000000e+00 0.0000000000000000e+00 0.0000000000000000e+00  0.0000000000000000e+00 0.0000000000000000e+00 0.0000000000000000e+00  0.0000000000000000e+00 0.0000000000000000e+00 0.0000000000000000e+00  0.0000000000000000e+00 0.0000000000000000e+00 0.0000000000000000e+00  0.0000000000000000e+00 0.0000000000000000e+00 0.0000000000000000e+00  0.0000000000000000e+00 0.0000000000000000e+00 0.0000000000000000e+00  0.0000000000000000e+00 0.0000000000000000e+00 0.0000000000000000e+00  0.0000000000000000e+00 0.0000000000000000e+00 0.0000000000000000e+00  0.0000000000000000e+00 0.0000000000000000e+00 0.0000000000000000e+00  0.0000000000000000e+00 0.0000000000000000e+00 0.0000000000000000e+00  0.0000000000000000e+00 0.0000000000000000e+00 0.0000000000000000e+00  0.0000000000000000e+00 0.0000000000000000e+00 0.0000000000000000e+00  0.0000000000000000e+00 0.0000000000000000e+00 0.0000000000000000e+00  0.0000000000000000e+00 0.0000000000000000e+00 0.0000000000000000e+00  0.0000000000000000e+00 0.0000000000000000e+00 0.0000000000000000e+00  0.0000000000000000e+00 0.0000000000000000e+00 0.0000000000000000e+00  0.0000000000000000e+00 0.0000000000000000e+00 0.0000000000000000e+00  0.0000000000000000e+00 0.0000000000000000e+00 0.0000000000000000e+00  0.0000000000000000e+00 0.0000000000000000e+00 0.0000000000000000e+00  0.0000000000000000e+00 0.0000000000000000e+00 0.0000000000000000e+00  0.0000000000000000e+00 0.0000000000000000e+00 0.0000000000000000e+00  2.6635562401232082e+00 1.8859160997617527e-02 0.0000000000000000e+00  2.3248135865626964e+00 1.8906303176946051e-02 0.0000000000000000e+00  2.8346241558915253e+00 7.1599999579849749e-02 0.0000000000000000e+00  0.0000000000000000e+00 0.0000000000000000e+00 0.0000000000000000e+00  0.0000000000000000e+00 0.0000000000000000e+00 0.0000000000000000e+00  0.0000000000000000e+00 0.0000000000000000e+00 0.0000000000000000e+00  0.0000000000000000e+00 0.0000000000000000e+00 0.0000000000000000e+00  0.0000000000000000e+00 0.0000000000000000e+00 0.0000000000000000e+00  0.0000000000000000e+00 0.0000000000000000e+00 0.0000000000000000e+00  0.0000000000000000e+00 0.0000000000000000e+00 0.0000000000000000e+00  0.0000000000000000e+00 0.0000000000000000e+00 0.0000000000000000e+00  0.0000000000000000e+00 0.0000000000000000e+00 0.0000000000000000e+00  0.0000000000000000e+00 0.0000000000000000e+00 0.0000000000000000e+00  0.0000000000000000e+00 0.0000000000000000e+00 0.0000000000000000e+00  0.0000000000000000e+00 0.0000000000000000e+00 0.0000000000000000e+00  0.0000000000000000e+00 0.0000000000000000e+00 0.0000000000000000e+00  0.0000000000000000e+00 0.0000000000000000e+00 0.0000000000000000e+00  0.0000000000000000e+00 0.0000000000000000e+00 0.0000000000000000e+00  0.0000000000000000e+00 0.0000000000000000e+00 0.0000000000000000e+00  0.0000000000000000e+00 0.0000000000000000e+00 0.0000000000000000e+00  0.0000000000000000e+00 0.0000000000000000e+00 0.0000000000000000e+00  0.0000000000000000e+00 0.0000000000000000e+00 0.0000000000000000e+00  0.0000000000000000e+00 0.0000000000000000e+00 0.0000000000000000e+00  0.0000000000000000e+00 0.0000000000000000e+00 0.0000000000000000e+00  0.0000000000000000e+00 0.0000000000000000e+00 0.0000000000000000e+00  0.0000000000000000e+00 0.0000000000000000e+00 0.0000000000000000e+00  0.0000000000000000e+00 0.0000000000000000e+00 0.0000000000000000e+00  0.0000000000000000e+00 0.0000000000000000e+00 0.0000000000000000e+00  0.0000000000000000e+00 0.0000000000000000e+00 0.0000000000000000e+00  0.0000000000000000e+00 0.0000000000000000e+00 0.0000000000000000e+00  0.0000000000000000e+00 0.0000000000000000e+00 0.0000000000000000e+00  0.0000000000000000e+00 0.0000000000000000e+00 0.0000000000000000e+00  0.0000000000000000e+00 0.0000000000000000e+00 0.0000000000000000e+00  0.0000000000000000e+00 0.0000000000000000e+00 0.0000000000000000e+00  0.0000000000000000e+00 0.0000000000000000e+00 0.0000000000000000e+00  0.0000000000000000e+00 0.0000000000000000e+00 0.0000000000000000e+00  0.0000000000000000e+00 0.0000000000000000e+00 0.0000000000000000e+00  0.0000000000000000e+00 0.0000000000000000e+00 0.0000000000000000e+00  0.0000000000000000e+00 0.0000000000000000e+00 0.0000000000000000e+00  0.0000000000000000e+00 0.0000000000000000e+00 0.0000000000000000e+00  0.0000000000000000e+00 0.0000000000000000e+00 0.0000000000000000e+00  0.0000000000000000e+00 0.0000000000000000e+00 0.0000000000000000e+00  0.0000000000000000e+00 0.0000000000000000e+00 0.0000000000000000e+00  0.0000000000000000e+00 0.0000000000000000e+00 0.0000000000000000e+00  0.0000000000000000e+00 0.0000000000000000e+00 0.0000000000000000e+00  0.0000000000000000e+00 0.0000000000000000e+00 0.0000000000000000e+00  0.0000000000000000e+00 0.0000000000000000e+00 0.0000000000000000e+00  0.0000000000000000e+00 0.0000000000000000e+00 0.0000000000000000e+00  0.0000000000000000e+00 0.0000000000000000e+00 0.0000000000000000e+00  0.0000000000000000e+00 0.0000000000000000e+00 0.0000000000000000e+00  0.0000000000000000e+00 0.0000000000000000e+00 0.0000000000000000e+00  0.0000000000000000e+00 0.0000000000000000e+00 0.0000000000000000e+00  0.0000000000000000e+00 0.0000000000000000e+00 0.0000000000000000e+00  0.0000000000000000e+00 0.0000000000000000e+00 0.0000000000000000e+00  0.0000000000000000e+00 0.0000000000000000e+00 0.0000000000000000e+00  0.0000000000000000e+00 0.0000000000000000e+00 0.0000000000000000e+00  0.0000000000000000e+00 0.0000000000000000e+00 0.0000000000000000e+00  0.0000000000000000e+00 0.0000000000000000e+00 0.0000000000000000e+00  0.0000000000000000e+00 0.0000000000000000e+00 0.0000000000000000e+00  0.0000000000000000e+00 0.0000000000000000e+00 0.0000000000000000e+00  0.0000000000000000e+00 0.0000000000000000e+00 0.0000000000000000e+00  0.0000000000000000e+00 0.0000000000000000e+00 0.0000000000000000e+00  0.0000000000000000e+00 0.0000000000000000e+00 0.0000000000000000e+00  0.0000000000000000e+00 0.0000000000000000e+00 0.0000000000000000e+00  0.0000000000000000e+00 0.0000000000000000e+00 0.0000000000000000e+00  0.0000000000000000e+00 0.0000000000000000e+00 0.0000000000000000e+00  0.0000000000000000e+00 0.0000000000000000e+00 0.0000000000000000e+00  0.0000000000000000e+00 0.0000000000000000e+00 0.0000000000000000e+00  0.0000000000000000e+00 0.0000000000000000e+00 0.0000000000000000e+00  0.0000000000000000e+00 0.0000000000000000e+00 0.0000000000000000e+00  0.0000000000000000e+00 0.0000000000000000e+00 0.0000000000000000e+00  0.0000000000000000e+00 0.0000000000000000e+00 0.0000000000000000e+00  0.0000000000000000e+00 0.0000000000000000e+00 0.0000000000000000e+00  0.0000000000000000e+00 0.0000000000000000e+00 0.0000000000000000e+00  0.0000000000000000e+00 0.0000000000000000e+00 0.0000000000000000e+00  0.0000000000000000e+00 0.0000000000000000e+00 0.0000000000000000e+00  0.0000000000000000e+00 0.0000000000000000e+00 0.0000000000000000e+00  0.0000000000000000e+00 0.0000000000000000e+00 0.0000000000000000e+00  0.0000000000000000e+00 0.0000000000000000e+00 0.0000000000000000e+00  0.0000000000000000e+00 0.0000000000000000e+00 0.0000000000000000e+00  0.0000000000000000e+00 0.0000000000000000e+00 0.0000000000000000e+00  3.0374668940516797e-11 -1.2699510141440749e-10 0.0000000000000000e+00  2.4029610346953616e-11 -1.7711085454482268e-10 0.0000000000000000e+00  3.8382447440680075e-11 -2.4107762977143779e-10 0.0000000000000000e+00  3.7902004472001058e-11 -2.9153244583971029e-10 0.0000000000000000e+00  5.6343640242870209e-11 -3.6069414282507818e-10 0.0000000000000000e+00  4.9054147127777327e-11 -4.6433855086159368e-10 0.0000000000000000e+00  7.6583782334227736e-11 -4.7006304778984565e-10 0.0000000000000000e+00  7.6734095820253629e-11 -6.4189330738015574e-10 0.0000000000000000e+00  7.7974211689663216e-11 -7.2732134390021242e-10 0.0000000000000000e+00  9.6785828290642036e-11 -8.5211306347097326e-10 0.0000000000000000e+00  9.1975585161964128e-11 -9.8165472875025934e-10 0.0000000000000000e+00  1.1008913513117063e-10 -1.1227697275430789e-09 0.0000000000000000e+00  9.8266554686530829e-11 -1.2694409858180230e-09 0.0000000000000000e+00  1.2934579043329614e-10 -1.4333686269191436e-09 0.0000000000000000e+00  1.1673958528820455e-10 -1.5864490116934105e-09 0.0000000000000000e+00  1.2399145785041750e-10 -1.7772536186781764e-09 0.0000000000000000e+00  1.3269503351486181e-10 -1.9493204894685252e-09 0.0000000000000000e+00  1.3173968318343922e-10 -2.1469945213855694e-09 0.0000000000000000e+00  1.3954447139750709e-10 -2.3399515824942411e-09 0.0000000000000000e+00  1.3668236645796541e-10 -2.5404805632454840e-09 0.0000000000000000e+00  1.4287945514353331e-10 -2.7488470465144449e-09 0.0000000000000000e+00  1.3426958492487756e-10 -2.9163866824645890e-09 0.0000000000000000e+00  1.6057380013986297e-10 -3.2930582643328129e-09 0.0000000000000000e+00  1.3905394463474821e-10 -3.3588442020443711e-09 0.0000000000000000e+00  1.4346738726753272e-10 -3.6308166326624671e-09 0.0000000000000000e+00  1.4398230930369299e-10 -3.8434896689945027e-09 0.0000000000000000e+00  1.4313018240753422e-10 -4.0941393110409296e-09 0.0000000000000000e+00  1.4238522028264104e-10 -4.3218627632297884e-09 0.0000000000000000e+00  1.4075246687458827e-10 -4.5635467032110488e-09 0.0000000000000000e+00  1.3896165184209391e-10 -4.8096454857736549e-09 0.0000000000000000e+00  1.3645734635846424e-10 -5.0471372525544507e-09 0.0000000000000000e+00  1.3378108325271899e-10 -5.2930509979502154e-09 0.0000000000000000e+00  1.3050803223793018e-10 -5.5465722401886496e-09 0.0000000000000000e+00  1.2666712195417251e-10 -5.7744370324065835e-09 0.0000000000000000e+00  1.2274800689215491e-10 -6.0275601588092095e-09 0.0000000000000000e+00  1.1802404426143452e-10 -6.2641003399363672e-09 0.0000000000000000e+00  1.1306705611588144e-10 -6.5076077107469821e-09 0.0000000000000000e+00  1.0750403855863764e-10 -6.7437292032520006e-09 0.0000000000000000e+00  1.0079541763865961e-10 -6.9601054382056366e-09 0.0000000000000000e+00  9.4431403789385185e-11 -7.1876543485323147e-09 0.0000000000000000e+00  7.9822241639067485e-11 -7.2916932155397987e-09 0.0000000000000000e+00  1.0223758809563086e-10 -8.1041992643063244e-09 0.0000000000000000e+00  5.7458956633291900e-11 -7.6109314497580579e-09 0.0000000000000000e+00  4.5676680654880100e-11 -7.8036210598474354e-09 0.0000000000000000e+00  3.4392833856119291e-11 -8.1492545169573671e-09 0.0000000000000000e+00  1.0220343650744579e-10 -7.6447885353882941e-09 0.0000000000000000e+00  -1.0194366714314732e-10 -8.4705930509021665e-09 0.0000000000000000e+00  -4.4983168858863788e-10 -7.8824507701753616e-09 0.0000000000000000e+00  -6.5039770068439677e-10 -7.8351581465420048e-09 0.0000000000000000e+00  -5.7006207656381063e-10 -7.9993818764975558e-09 0.0000000000000000e+00  -5.9778003390701454e-10 -7.9736409742214825e-09 0.0000000000000000e+00  -5.8744612682772771e-10 -7.5705709545362454e-09 0.0000000000000000e+00  -6.1259338617453261e-10 -8.0778697173217918e-09 0.0000000000000000e+00  -5.8810572572617414e-10 -7.2713255058541538e-09 0.0000000000000000e+00  -5.9393220757150418e-10 -7.2653474004125778e-09 0.0000000000000000e+00  -5.8850343823636150e-10 -7.0080765633884089e-09 0.0000000000000000e+00  -5.8407553281700282e-10 -6.7780985184362184e-09 0.0000000000000000e+00  -5.7903342739112445e-10 -6.5398322748405047e-09 0.0000000000000000e+00  -5.7342041619002262e-10 -6.3005230218641072e-09 0.0000000000000000e+00  -5.6731149162490698e-10 -6.0544325069149203e-09 0.0000000000000000e+00  -5.6076375680351524e-10 -5.8077375223845468e-09 0.0000000000000000e+00  -5.5371691633760816e-10 -5.5596729998708463e-09 0.0000000000000000e+00  -5.4644741889378851e-10 -5.3123269458596259e-09 0.0000000000000000e+00  -5.3827136744172883e-10 -5.0648854734585651e-09 0.0000000000000000e+00  -5.3034951628078066e-10 -4.8210337328440704e-09 0.0000000000000000e+00  -5.2092599678523456e-10 -4.5763833469136573e-09 0.0000000000000000e+00  -5.1229299333694872e-10 -4.3332107900953973e-09 0.0000000000000000e+00  -5.0145609042194235e-10 -4.0925483940971595e-09 0.0000000000000000e+00  -4.9211415488267050e-10 -3.8539032731692966e-09 0.0000000000000000e+00  -4.8052616297859699e-10 -3.6281611218250078e-09 0.0000000000000000e+00  -4.6436726309937649e-10 -3.3477130945102483e-09 0.0000000000000000e+00  -4.6695437414967981e-10 -3.2653614229027270e-09 0.0000000000000000e+00  -4.3631285531592531e-10 -2.8970936698883484e-09 0.0000000000000000e+00  -4.2882889310032895e-10 -2.7062613142563794e-09 0.0000000000000000e+00  -4.1285940063261033e-10 -2.5090015978570526e-09 0.0000000000000000e+00  -3.9949631931823511e-10 -2.2957988128595416e-09 0.0000000000000000e+00  -3.8229517628505763e-10 -2.1144395298519617e-09 0.0000000000000000e+00  -3.6814823819856920e-10 -1.9149411896641359e-09 0.0000000000000000e+00  -3.4865272512341046e-10 -1.7464111494811335e-09 0.0000000000000000e+00  -3.3199018122620901e-10 -1.5581895428727213e-09 0.0000000000000000e+00  -3.2861775613374691e-10 -1.4125102939269733e-09 0.0000000000000000e+00  -2.8932588432221740e-10 -1.2416809802028613e-09 0.0000000000000000e+00  -2.8001994763031957e-10 -1.1059514858504178e-09 0.0000000000000000e+00  -2.5546080010924255e-10 -9.6171188014031142e-10 0.0000000000000000e+00  -2.3934806398161345e-10 -8.3589611641928512e-10 0.0000000000000000e+00  -2.1182120486239932e-10 -7.1744137031001257e-10 0.0000000000000000e+00  -1.9695941740997408e-10 -6.1959770169493092e-10 0.0000000000000000e+00  -1.8165123381362720e-10 -4.4959335384070446e-10 0.0000000000000000e+00  -1.4160530111527722e-10 -4.3884817925765849e-10 0.0000000000000000e+00  -1.3086633328650125e-10 -3.4836195660368752e-10 0.0000000000000000e+00  -9.8705811017499503e-11 -2.8109665313769475e-10 0.0000000000000000e+00  -8.4669253116203384e-11 -2.1420372866566631e-10 0.0000000000000000e+00  -5.1548156406132802e-11 -1.5581519805186853e-10 0.0000000000000000e+00  -4.0218126797484294e-11 -1.2800080958588657e-10 0.0000000000000000e+00  -1.3512232430266164e-11 -4.4501129155420006e-11 0.0000000000000000e+00  -2.5774745585467697e-10 -9.3565759194782070e-09 0.0000000000000000e+00  -2.5504549990018264e-10 -8.7371896947165278e-09 0.0000000000000000e+00  -2.4124115443680432e-10 -7.9426344893117128e-09 0.0000000000000000e+00  -2.7116144918113989e-11 -1.3314157358894126e-10 0.0000000000000000e+00  -2.3510998937519180e-10 -7.4267517092562035e-09 0.0000000000000000e+00  -4.2348565454464040e-11 -2.7092653358797368e-10 0.0000000000000000e+00  -2.2457865440376180e-10 -6.8829489385065477e-09 0.0000000000000000e+00  -6.5061944338027826e-11 -5.9030583156331887e-10 0.0000000000000000e+00  -7.5945727273924558e-11 -8.4982222274803506e-10 0.0000000000000000e+00  -2.1405935155489832e-10 -6.3381421888315671e-09 0.0000000000000000e+00  -1.1182990170473374e-10 -1.7018066364442755e-09 0.0000000000000000e+00  -1.9290608201685118e-10 -5.2585097611177816e-09 0.0000000000000000e+00  -9.1570400060571527e-11 -1.1454429997729226e-09 0.0000000000000000e+00  -1.1999856811031128e-10 -2.0948544612435189e-09 0.0000000000000000e+00  -1.8221525802301659e-10 -4.7290911849084378e-09 0.0000000000000000e+00  -2.0350395750130870e-10 -5.7959553042159692e-09 0.0000000000000000e+00  -1.3186375972655223e-10 -2.5248976135055548e-09 0.0000000000000000e+00  -1.7144481616166185e-10 -4.2103127165793015e-09 0.0000000000000000e+00  -1.4738110243778290e-10 -2.9579236607492302e-09 0.0000000000000000e+00  -1.5640526644140177e-10 -3.7118822965716454e-09 0.0000000000000000e+00  -1.5016557469969210e-10 -3.3888627011647384e-09 0.0000000000000000e+00  -9.6714841489193533e-11 -1.4029593426689798e-09 0.0000000000000000e+00  -2.5255358601753304e-10 -8.6906713087216875e-09 0.0000000000000000e+00  -5.1269334301732977e-11 -3.7057615118063296e-10 0.0000000000000000e+00  -4.1119224250348095e-10 -9.6209291987376392e-09 0.0000000000000000e+00  -4.0515386287851620e-11 -1.6508522500778319e-11 0.0000000000000000e+00  -3.4593033673381183e-10 -7.5030207706174357e-09 0.0000000000000000e+00  -3.5730938873132906e-10 -8.0922276138142441e-09 0.0000000000000000e+00  1.7546841309681648e-12 -1.3266749438076324e-10 0.0000000000000000e+00  -9.0188850997022983e-12 -6.7270562749752679e-10 0.0000000000000000e+00  -3.1067867634632800e-10 -5.7612522718227695e-09 0.0000000000000000e+00  -3.3436203442372435e-10 -6.9145844061686796e-09 0.0000000000000000e+00  -2.4549395972143716e-11 -1.9267678864441771e-09 0.0000000000000000e+00  -2.9826782037053406e-10 -5.1970416235380077e-09 0.0000000000000000e+00  -1.2677108255076827e-11 -9.7818599924371464e-10 0.0000000000000000e+00  -3.0249853224037531e-11 -2.3664836288742222e-09 0.0000000000000000e+00  -2.8533884020791482e-10 -4.6444553361110118e-09 0.0000000000000000e+00  -3.2266813491709665e-10 -6.3341882712655532e-09 0.0000000000000000e+00  -1.6904956053701343e-11 -2.8309671205352162e-09 0.0000000000000000e+00  -2.7163720235731946e-10 -4.1039597980159696e-09 0.0000000000000000e+00  -6.1877208228281229e-12 2.0851686684448402e-12 0.0000000000000000e+00  -9.2088577696915784e-12 8.5381081464975691e-12 0.0000000000000000e+00  -2.4898630527937748e-10 -9.8952022570960212e-09 0.0000000000