<?xml version="1.0"?>
<VTKFile type="UnstructuredGrid"  version="0.1"  >
<UnstructuredGrid>
<Piece  NumberOfPoints="1419" NumberOfCells="2698">
<Points>
<DataArray  type="Float64"  NumberOfComponents="3"  format="ascii">0 0 0  0 0.41 0  2.5 0 0  2.5 0.41 0  0.6 0.19 0  0.6 0.21 0  0.25 0.2 0  0.15 0.2 0  0.2489897948556636 0.21 0  0.2489897948556636 0.19 0  0.6 0.2 0  0 0.3807142857143437 0  0 0.3514285714286952 0  0 0.3221428571430699 0  0 0.29285714285744 0  0 0.2635714285718054 0  0 0.2342857142861561 0  0 0.2050000000005308 0  0 0.175714285714732 0  0 0.1464285714289574 0  0 0.1171428571431897 0  0 0.08785714285737878 0  0 0.05857142857161107 0  0 0.02928571428580012 0  0.03015443760436003 0 0  0.06140001986583606 0 0  0.09377624077125973 0 0  0.1273239957535082 0 0  0.1620856860351972 0 0  0.1981052433264291 0 0  0.235428184091502 0 0  0.2741016576309132 0 0  0.3141745521465447 0 0  0.3556974926295285 0 0  0.3987229542472677 0 0  0.4433053055141081 0 0  0.4895008759286886 0 0  0.5373680609405097 0 0  0.5869673343216626 0 0  0.6383613676634521 0 0  0.6916151138468254 0 0  0.7467958595648856 0 0  0.8039733463919316 0 0  0.8632198139502143 0 0  0.9246101326867038 0 0  0.9882218810934433 0 0  1.054135445558498 0 0  1.122434100542598 0 0  1.193204177141305 0 0  1.266535089879536 0 0  1.342519516046404 0 0  1.421253448503939 0 0  1.502836389106271 0 0  1.587371439758838 0 0  1.674965418777374 0 0  1.765729001825544 0 0  1.859776908880082 0 0  1.957227977487062 0 0  2.058205329869943 0 0  2.162836591189951 0 0  2.271253957290865 0 0  2.383594446803425 0 0  2.5 0.1024999999997612 0  2.5 0.2049999999994743 0  2.5 0.3074999999997183 0  2.383594446803656 0.41 0  2.271253957291315 0.41 0  2.162836591190598 0.41 0  2.058205329870775 0.41 0  1.957227977488067 0.41 0  1.859776908881246 0.41 0  1.765729001826854 0.41 0  1.674965418778818 0.41 0  1.58737143976041 0.41 0  1.502836389107956 0.41 0  1.421253448505726 0.41 0  1.342519516048286 0.41 0  1.266535089881505 0.41 0  1.193204177143353 0.41 0  1.122434100544716 0.41 0  1.05413544556068 0.41 0  0.9882218810956305 0.41 0  0.9246101326886647 0.41 0  0.8632198139519631 0.41 0  0.8039733463934788 0.41 0  0.7467958595662458 0.41 0  0.6916151138480078 0.41 0  0.6383613676644679 0.41 0  0.5869673343225223 0.41 0  0.5373680609412221 0.41 0  0.4895008759292634 0.41 0  0.4433053055145528 0.41 0  0.3987229542475914 0.41 0  0.3556974926297398 0.41 0  0.3141745521466497 0.41 0  0.2741016576310038 0.41 0  0.2354281840915826 0.41 0  0.1981052433265003 0.41 0  0.1620856860352591 0.41 0  0.1273239957535623 0.41 0  0.09377624077128965 0.41 0  0.06140001986584975 0.41 0  0.03015443760436654 0.41 0  0.2497468076502589 0.2050254481002335 0  0.2497468076502614 0.1949745518997913 0  0.2469965252529372 0.1829317073451959 0  0.2439893735792749 0.1762316384219906 0  0.2400332147834255 0.1700443375285386 0  0.2352133972704371 0.1645032867342007 0  0.2296339016332438 0.1597280261969788 0  0.2234150974217223 0.1558215752574715 0  0.2166911463437691 0.1528682099456123 0  0.2096071079204251 0.1509316448471593 0  0.2023158100364996 0.1500536585536553 0  0.194974551899914 0.1502531923497262 0  0.1877417105387872 0.1515259415822739 0  0.1807733240461124 0.153844448527136 0  0.1742197252835808 0.15715869474974 0  0.1682222986673531 0.1613971801805478 0  0.162910430003803 0.1664684656256651 0  0.1583987151779087 0.1722631454351573 0  0.1547844879126891 0.178656207771761 0  0.1521457199348551 0.1855097315605723 0  0.1505393388476355 0.1926758619366523 0  0.1505393388476328 0.2073241380633295 0  0.1521457199348437 0.2144902684393899 0  0.1547844879126531 0.221343792228163 0  0.1583987151778488 0.2277368545647528 0  0.1629104300036858 0.2335315343742052 0  0.1682222986671726 0.2386028198193036 0  0.1742197252833576 0.2428413052501257 0  0.1807733240458683 0.2461555514727623 0  0.1877417105384929 0.2484740584176516 0  0.1949745518995776 0.2497468076502398 0  0.202315810036185 0.2499463414463592 0  0.2096071079201568 0.2490683551528932 0  0.2166911463435495 0.2471317900544655 0  0.2234150974215506 0.2441784247426195 0  0.2296339016331197 0.2402719738031125 0  0.2352133972703547 0.2354967132658811 0  0.2400332147833751 0.2299556624715287 0  0.2439893735792577 0.2237683615780412 0  0.246996525252926 0.2170682926548348 0  0.25645809709277 0.21 0  0.2639263993298655 0.21 0  0.271394701566961 0.21 0  0.2788630038040554 0.21 0  0.2863313060411479 0.21 0  0.2937996082782405 0.21 0  0.301267910515333 0.21 0  0.3087362127524279 0.21 0  0.3162045149895234 0.21 0  0.3236728172265972 0.21 0  0.3311411194636928 0.21 0  0.3386094217007701 0.21 0  0.3460777239378666 0.21 0  0.3535460261749672 0.21 0  0.3610143284120516 0.21 0  0.3684826306491596 0.21 0  0.3759509328862226 0.21 0  0.383419235123329 0.21 0  0.3908875373604028 0.21 0  0.3983558395975142 0.21 0  0.4058241418345938 0.21 0  0.4132924440716992 0.21 0  0.4207607463087888 0.21 0  0.4282290485459029 0.21 0  0.4356973507830418 0.21 0  0.4431656530201649 0.21 0  0.4506339552573136 0.21 0  0.4581022574944306 0.21 0  0.4655705597315852 0.21 0  0.4730388619686996 0.21 0  0.480507164205851 0.21 0  0.4879754664429498 0.21 0  0.4954437686800938 0.21 0  0.502912070917267 0.21 0  0.5103803731544119 0.21 0  0.5178486753915261 0.21 0  0.5253169776286404 0.21 0  0.5327852798657868 0.21 0  0.5402535821029386 0.21 0  0.54772188434007 0.21 0  0.5551901865771842 0.21 0  0.5626584888143201 0.21 0  0.5701267910514778 0.21 0  0.5775950932886138 0.21 0  0.5850633955257281 0.21 0  0.5925316977628483 0.21 0  0.6 0.2050000000000054 0  0.6 0.1950000000000217 0  0.5925316977628897 0.19 0  0.5850633955257988 0.19 0  0.5775950932887378 0.19 0  0.5701267910515998 0.19 0  0.5626584888145268 0.19 0  0.5551901865773963 0.19 0  0.547721884340339 0.19 0  0.5402535821032429 0.19 0  0.5327852798661811 0.19 0  0.5253169776290537 0.19 0  0.5178486753919799 0.19 0  0.5103803731549078 0.19 0  0.502912070917822 0.19 0  0.4954437686807294 0.19 0  0.4879754664436223 0.19 0  0.4805071642065402 0.19 0  0.4730388619694271 0.19 0  0.4655705597323621 0.19 0  0.4581022574952563 0.19 0  0.4506339552581777 0.19 0  0.4431656530210671 0.19 0  0.4356973507839815 0.19 0  0.4282290485468779 0.19 0  0.4207607463097617 0.19 0  0.4132924440726327 0.19 0  0.4058241418354857 0.19 0  0.3983558395983636 0.19 0  0.3908875373612097 0.19 0  0.3834192351240934 0.19 0  0.3759509328869369 0.19 0  0.3684826306498175 0.19 0  0.361014328412667 0.19 0  0.3535460261755617 0.19 0  0.3460777239384295 0.19 0  0.3386094217012945 0.19 0  0.3311411194641595 0.19 0  0.3236728172270245 0.19 0  0.3162045149898895 0.19 0  0.3087362127527544 0.19 0  0.3012679105156187 0.19 0  0.2937996082784807 0.19 0  0.2863313060413428 0.19 0  0.2788630038042048 0.19 0  0.2713947015670686 0.19 0  0.2639263993299336 0.19 0  0.2564580970927985 0.19 0  0.2607803159922026 0.2000727136295815 0  0.5887803774232762 0.2001272386983733 0  0.5745072403740523 0.2002044435018727 0  0.5511891430099709 0.2001122610077113 0  0.2751288526855082 0.20000000000002 0  0.5365194309847112 0.1999999999999436 0  0.2894621222999649 0.1998691686390484 0  0.5215828265105155 0.1999999999999228 0  0.3127789816668748 0.1998657885438805 0  0.3274069683451451 0.2000000000000796 0  0.5066462220363641 0.199999999999908 0  0.3650630746574081 0.199866017807523 0  0.476773013087985 0.1999999999998713 0  0.3417402379596385 0.1998691686391011 0  0.3796850840047755 0.200000000000134 0  0.4618364086138087 0.1999999999998546 0  0.4917096175621762 0.1999999999998808 0  0.3946216884789568 0.2000000000001512 0  0.446899804139621 0.1999999999998389 0  0.4089549580935208 0.1998691686391595 0  0.4322718174608562 0.200127451265745 0  0.4201487168029707 0.1999966199048527 0  0.3528922713220932 0.2000185703532356 0  0.5633122436674589 0.1999814296467508 0  0.3006558810093873 0.1999966199048318 0  0.5815926498168407 0.1966545283159175 0  0.2677053789419034 0.1964246479135325 0  0.5290511287476175 0.1970915826863981 0  0.5439877332217911 0.197091582686394 0  0.2825131256993216 0.2035478995978015 0  0.3199386661080599 0.202908417313604 0  0.4842413153250809 0.1970915826863873 0  0.5141145242734466 0.1970915826863843 0  0.3722167817676917 0.2029084173136195 0  0.4693047108508938 0.1970915826863783 0  0.3348752705822316 0.202908417313609 0  0.3871533862418661 0.2029084173136212 0  0.4543681063767183 0.1970915826863795 0  0.4991779197992749 0.1970915826863902 0  0.4020059614928624 0.203547899597858 0  0.4394315019025246 0.1970915826863714 0  0.2550657455369551 0.2034088125358657 0  0.2548908499171161 0.1966940311614271 0  0.5946539510196798 0.2024302972968126 0  0.267698176732111 0.2039977513680092 0  0.4261685417851465 0.196409292431739 0  0.3590076176283495 0.196411355804271 0  0.5571672426447437 0.2036011176410121 0  0.3066757059912147 0.1964092924317024 0  0.594380730180568 0.1966558399668133 0  0.4842413153245942 0.2040749161535287 0  0.4693047108503577 0.2040749161535231 0  0.3871533862424271 0.1959250838464788 0  0.372246743208829 0.1959123236376545 0  0.5141145242731028 0.2040749161535395 0  0.4543681063761134 0.2040749161535186 0  0.4019979587101454 0.1959834479682427 0  0.4394608940728603 0.2040870543693135 0  0.5439623148931173 0.2040856076781014 0  0.5290511287473298 0.2040749161535501 0  0.4991779197988497 0.2040749161535382 0  0.3347912413592433 0.1959225448935183 0  0.3199680582793816 0.1959123018030061 0  0.2825051229162361 0.1959834479681729 0  0.3590471196690275 0.2036304442587945 0  0.5571594006495384 0.1963685282145804 0  0.3067669986803285 0.203627750582736 0  0.4262598344738712 0.2036568242185335 0  0.5814408164431408 0.2041285596160068 0  0.5688286748170428 0.1961819304477386 0  0.4145905603063645 0.2038180695522843 0  0.3473758401724931 0.2038180695522752 0  0.2950977245128307 0.2038180695522663 0  0.5688286748170693 0.203818069552238 0  0.2950977245127906 0.1961819304477774 0  0.3473758401723931 0.1961819304478349 0  0.4145905603061963 0.1961819304479011 0  0.2601812407614425 0.2056861609747042
[...]
<PointData  Vectors="f_40-0"> 
<DataArray  type="Float64"  Name="f_40-0"  NumberOfComponents="3" format="ascii">0.0000000000000000e+00 0.0000000000000000e+00 0.0000000000000000e+00  0.0000000000000000e+00 0.0000000000000000e+00 0.0000000000000000e+00  0.0000000000000000e+00 0.0000000000000000e+00 0.0000000000000000e+00  0.0000000000000000e+00 0.0000000000000000e+00 0.0000000000000000e+00  -3.2831681804139563e-07 -9.7163569426621711e-06 0.0000000000000000e+00  3.7057553918572991e-07 -9.7169427669152636e-06 0.0000000000000000e+00  0.0000000000000000e+00 0.0000000000000000e+00 0.0000000000000000e+00  0.0000000000000000e+00 0.0000000000000000e+00 0.0000000000000000e+00  0.0000000000000000e+00 0.0000000000000000e+00 0.0000000000000000e+00  0.0000000000000000e+00 0.0000000000000000e+00 0.0000000000000000e+00  2.0982265207776183e-08 -9.7316119963045236e-06 0.0000000000000000e+00  7.9591836734548405e-01 0.0000000000000000e+00 0.0000000000000000e+00  1.4693877550994523e+00 0.0000000000000000e+00 0.0000000000000000e+00  2.0204081632617479e+00 0.0000000000000000e+00 0.0000000000000000e+00  2.4489795918330071e+00 0.0000000000000000e+00 0.0000000000000000e+00  2.7551020408131754e+00 0.0000000000000000e+00 0.0000000000000000e+00  2.9387755102022344e+00 0.0000000000000000e+00 0.0000000000000000e+00  3.0000000000000004e+00 0.0000000000000000e+00 0.0000000000000000e+00  2.9387755102059474e+00 0.0000000000000000e+00 0.0000000000000000e+00  2.7551020408195543e+00 0.0000000000000000e+00 0.0000000000000000e+00  2.4489795918409065e+00 0.0000000000000000e+00 0.0000000000000000e+00  2.0204081632692521e+00 0.0000000000000000e+00 0.0000000000000000e+00  1.4693877551058563e+00 0.0000000000000000e+00 0.0000000000000000e+00  7.9591836734909216e-01 0.0000000000000000e+00 0.0000000000000000e+00  0.0000000000000000e+00 0.0000000000000000e+00 0.0000000000000000e+00  0.0000000000000000e+00 0.0000000000000000e+00 0.0000000000000000e+00  0.0000000000000000e+00 0.0000000000000000e+00 0.0000000000000000e+00  0.0000000000000000e+00 0.0000000000000000e+00 0.0000000000000000e+00  0.0000000000000000e+00 0.0000000000000000e+00 0.0000000000000000e+00  0.0000000000000000e+00 0.0000000000000000e+00 0.0000000000000000e+00  0.0000000000000000e+00 0.0000000000000000e+00 0.0000000000000000e+00  0.0000000000000000e+00 0.0000000000000000e+00 0.0000000000000000e+00  0.0000000000000000e+00 0.0000000000000000e+00 0.0000000000000000e+00  0.0000000000000000e+00 0.0000000000000000e+00 0.0000000000000000e+00  0.0000000000000000e+00 0.0000000000000000e+00 0.0000000000000000e+00  0.0000000000000000e+00 0.0000000000000000e+00 0.0000000000000000e+00  0.0000000000000000e+00 0.0000000000000000e+00 0.0000000000000000e+00  0.0000000000000000e+00 0.0000000000000000e+00 0.0000000000000000e+00  0.0000000000000000e+00 0.0000000000000000e+00 0.0000000000000000e+00  0.0000000000000000e+00 0.0000000000000000e+00 0.0000000000000000e+00  0.0000000000000000e+00 0.0000000000000000e+00 0.0000000000000000e+00  0.0000000000000000e+00 0.0000000000000000e+00 0.0000000000000000e+00  0.0000000000000000e+00 0.0000000000000000e+00 0.0000000000000000e+00  0.0000000000000000e+00 0.0000000000000000e+00 0.0000000000000000e+00  0.0000000000000000e+00 0.0000000000000000e+00 0.0000000000000000e+00  0.0000000000000000e+00 0.0000000000000000e+00 0.0000000000000000e+00  0.0000000000000000e+00 0.0000000000000000e+00 0.0000000000000000e+00  0.0000000000000000e+00 0.0000000000000000e+00 0.0000000000000000e+00  0.0000000000000000e+00 0.0000000000000000e+00 0.0000000000000000e+00  0.0000000000000000e+00 0.0000000000000000e+00 0.0000000000000000e+00  0.0000000000000000e+00 0.0000000000000000e+00 0.0000000000000000e+00  0.0000000000000000e+00 0.0000000000000000e+00 0.0000000000000000e+00  0.0000000000000000e+00 0.0000000000000000e+00 0.0000000000000000e+00  0.0000000000000000e+00 0.0000000000000000e+00 0.0000000000000000e+00  0.0000000000000000e+00 0.0000000000000000e+00 0.0000000000000000e+00  0.0000000000000000e+00 0.0000000000000000e+00 0.0000000000000000e+00  0.0000000000000000e+00 0.0000000000000000e+00 0.0000000000000000e+00  0.0000000000000000e+00 0.0000000000000000e+00 0.0000000000000000e+00  0.0000000000000000e+00 0.0000000000000000e+00 0.0000000000000000e+00  0.0000000000000000e+00 0.0000000000000000e+00 0.0000000000000000e+00  0.0000000000000000e+00 0.0000000000000000e+00 0.0000000000000000e+00  0.0000000000000000e+00 0.0000000000000000e+00 0.0000000000000000e+00  2.6653849589369085e+00 1.7211788686749090e-02 0.0000000000000000e+00  2.3236477743483550e+00 1.7942481430025591e-02 0.0000000000000000e+00  2.8334731144741685e+00 7.0575181431589626e-02 0.0000000000000000e+00  0.0000000000000000e+00 0.0000000000000000e+00 0.0000000000000000e+00  0.0000000000000000e+00 0.0000000000000000e+00 0.0000000000000000e+00  0.0000000000000000e+00 0.0000000000000000e+00 0.0000000000000000e+00  0.0000000000000000e+00 0.0000000000000000e+00 0.0000000000000000e+00  0.0000000000000000e+00 0.0000000000000000e+00 0.0000000000000000e+00  0.0000000000000000e+00 0.0000000000000000e+00 0.0000000000000000e+00  0.0000000000000000e+00 0.0000000000000000e+00 0.0000000000000000e+00  0.0000000000000000e+00 0.0000000000000000e+00 0.0000000000000000e+00  0.0000000000000000e+00 0.0000000000000000e+00 0.0000000000000000e+00  0.0000000000000000e+00 0.0000000000000000e+00 0.0000000000000000e+00  0.0000000000000000e+00 0.0000000000000000e+00 0.0000000000000000e+00  0.0000000000000000e+00 0.0000000000000000e+00 0.0000000000000000e+00  0.0000000000000000e+00 0.0000000000000000e+00 0.0000000000000000e+00  0.0000000000000000e+00 0.0000000000000000e+00 0.0000000000000000e+00  0.0000000000000000e+00 0.0000000000000000e+00 0.0000000000000000e+00  0.0000000000000000e+00 0.0000000000000000e+00 0.0000000000000000e+00  0.0000000000000000e+00 0.0000000000000000e+00 0.0000000000000000e+00  0.0000000000000000e+00 0.0000000000000000e+00 0.0000000000000000e+00  0.0000000000000000e+00 0.0000000000000000e+00 0.0000000000000000e+00  0.0000000000000000e+00 0.0000000000000000e+00 0.0000000000000000e+00  0.0000000000000000e+00 0.0000000000000000e+00 0.0000000000000000e+00  0.0000000000000000e+00 0.0000000000000000e+00 0.0000000000000000e+00  0.0000000000000000e+00 0.0000000000000000e+00 0.0000000000000000e+00  0.0000000000000000e+00 0.0000000000000000e+00 0.0000000000000000e+00  0.0000000000000000e+00 0.0000000000000000e+00 0.0000000000000000e+00  0.0000000000000000e+00 0.0000000000000000e+00 0.0000000000000000e+00  0.0000000000000000e+00 0.0000000000000000e+00 0.0000000000000000e+00  0.0000000000000000e+00 0.0000000000000000e+00 0.0000000000000000e+00  0.0000000000000000e+00 0.0000000000000000e+00 0.0000000000000000e+00  0.0000000000000000e+00 0.0000000000000000e+00 0.0000000000000000e+00  0.0000000000000000e+00 0.0000000000000000e+00 0.0000000000000000e+00  0.0000000000000000e+00 0.0000000000000000e+00 0.0000000000000000e+00  0.0000000000000000e+00 0.0000000000000000e+00 0.0000000000000000e+00  0.0000000000000000e+00 0.0000000000000000e+00 0.0000000000000000e+00  0.0000000000000000e+00 0.0000000000000000e+00 0.0000000000000000e+00  0.0000000000000000e+00 0.0000000000000000e+00 0.0000000000000000e+00  0.0000000000000000e+00 0.0000000000000000e+00 0.0000000000000000e+00  0.0000000000000000e+00 0.0000000000000000e+00 0.0000000000000000e+00  0.0000000000000000e+00 0.0000000000000000e+00 0.0000000000000000e+00  0.0000000000000000e+00 0.0000000000000000e+00 0.0000000000000000e+00  0.0000000000000000e+00 0.0000000000000000e+00 0.0000000000000000e+00  0.0000000000000000e+00 0.0000000000000000e+00 0.0000000000000000e+00  0.0000000000000000e+00 0.0000000000000000e+00 0.0000000000000000e+00  0.0000000000000000e+00 0.0000000000000000e+00 0.0000000000000000e+00  0.0000000000000000e+00 0.0000000000000000e+00 0.0000000000000000e+00  0.0000000000000000e+00 0.0000000000000000e+00 0.0000000000000000e+00  0.0000000000000000e+00 0.0000000000000000e+00 0.0000000000000000e+00  0.0000000000000000e+00 0.0000000000000000e+00 0.0000000000000000e+00  0.0000000000000000e+00 0.0000000000000000e+00 0.0000000000000000e+00  0.0000000000000000e+00 0.0000000000000000e+00 0.0000000000000000e+00  0.0000000000000000e+00 0.0000000000000000e+00 0.0000000000000000e+00  0.0000000000000000e+00 0.0000000000000000e+00 0.0000000000000000e+00  0.0000000000000000e+00 0.0000000000000000e+00 0.0000000000000000e+00  0.0000000000000000e+00 0.0000000000000000e+00 0.0000000000000000e+00  0.0000000000000000e+00 0.0000000000000000e+00 0.0000000000000000e+00  0.0000000000000000e+00 0.0000000000000000e+00 0.0000000000000000e+00  0.0000000000000000e+00 0.0000000000000000e+00 0.0000000000000000e+00  0.0000000000000000e+00 0.0000000000000000e+00 0.0000000000000000e+00  0.0000000000000000e+00 0.0000000000000000e+00 0.0000000000000000e+00  0.0000000000000000e+00 0.0000000000000000e+00 0.0000000000000000e+00  0.0000000000000000e+00 0.0000000000000000e+00 0.0000000000000000e+00  0.0000000000000000e+00 0.0000000000000000e+00 0.0000000000000000e+00  0.0000000000000000e+00 0.0000000000000000e+00 0.0000000000000000e+00  0.0000000000000000e+00 0.0000000000000000e+00 0.0000000000000000e+00  0.0000000000000000e+00 0.0000000000000000e+00 0.0000000000000000e+00  0.0000000000000000e+00 0.0000000000000000e+00 0.0000000000000000e+00  0.0000000000000000e+00 0.0000000000000000e+00 0.0000000000000000e+00  0.0000000000000000e+00 0.0000000000000000e+00 0.0000000000000000e+00  0.0000000000000000e+00 0.0000000000000000e+00 0.0000000000000000e+00  0.0000000000000000e+00 0.0000000000000000e+00 0.0000000000000000e+00  0.0000000000000000e+00 0.0000000000000000e+00 0.0000000000000000e+00  0.0000000000000000e+00 0.0000000000000000e+00 0.0000000000000000e+00  0.0000000000000000e+00 0.0000000000000000e+00 0.0000000000000000e+00  0.0000000000000000e+00 0.0000000000000000e+00 0.0000000000000000e+00  0.0000000000000000e+00 0.0000000000000000e+00 0.0000000000000000e+00  0.0000000000000000e+00 0.0000000000000000e+00 0.0000000000000000e+00  0.0000000000000000e+00 0.0000000000000000e+00 0.0000000000000000e+00  0.0000000000000000e+00 0.0000000000000000e+00 0.0000000000000000e+00  2.2841578136958585e-08 -2.0876528039129829e-08 0.0000000000000000e+00  4.8392910776311910e-08 -5.0241105086974021e-08 0.0000000000000000e+00  7.0269163570537108e-08 -9.7543084083389443e-08 0.0000000000000000e+00  9.3678297148070788e-08 -1.6360767599420614e-07 0.0000000000000000e+00  1.1258522922308915e-07 -2.4492204662763930e-07 0.0000000000000000e+00  1.3389744525822019e-07 -3.4278645586798904e-07 0.0000000000000000e+00  1.5044508634616192e-07 -4.5251680238655839e-07 0.0000000000000000e+00  1.6616524819105019e-07 -5.7788570150467093e-07 0.0000000000000000e+00  1.8418102252021341e-07 -7.1461510805363388e-07 0.0000000000000000e+00  1.9731525994508641e-07 -8.6309025627233968e-07 0.0000000000000000e+00  2.1336220729109307e-07 -1.0228397706599511e-06 0.0000000000000000e+00  2.2489667360034353e-07 -1.1926999114638770e-06 0.0000000000000000e+00  2.3845112148244245e-07 -1.3721224836623737e-06 0.0000000000000000e+00  2.4884780063768438e-07 -1.5591324279245649e-06 0.0000000000000000e+00  2.5865287034358789e-07 -1.7552763423549058e-06 0.0000000000000000e+00  2.6968618819049868e-07 -1.9581350243853101e-06 0.0000000000000000e+00  2.7773648074162450e-07 -2.1677256127738291e-06 0.0000000000000000e+00  2.8726620076205626e-07 -2.3837299171091797e-06 0.0000000000000000e+00  2.9412160180575219e-07 -2.6052622299470954e-06 0.0000000000000000e+00  3.0206114984433004e-07 -2.8318661003393974e-06 0.0000000000000000e+00  3.0817737220023488e-07 -3.0631976610611130e-06 0.0000000000000000e+00  3.1474017130850852e-07 -3.2988824794206454e-06 0.0000000000000000e+00  3.1989236800102158e-07 -3.5378960311153495e-06 0.0000000000000000e+00  3.2463222640956705e-07 -3.7805069620154140e-06 0.0000000000000000e+00  3.2970868206486069e-07 -4.0258466047464534e-06 0.0000000000000000e+00  3.3380410268870400e-07 -4.2740127052096617e-06 0.0000000000000000e+00  3.3776973252205692e-07 -4.5246053418182352e-06 0.0000000000000000e+00  3.4118200842036537e-07 -4.7770776546383478e-06 0.0000000000000000e+00  3.4445081255975704e-07 -5.0314782812767954e-06 0.0000000000000000e+00  3.4727816554645212e-07 -5.2872985360855867e-06 0.0000000000000000e+00  3.4996822211793643e-07 -5.5445493256202163e-06 0.0000000000000000e+00  3.5230699833479451e-07 -5.8028298034056487e-06 0.0000000000000000e+00  3.5452188097658337e-07 -6.0621595909916184e-06 0.0000000000000000e+00  3.5646342360778238e-07 -6.3221706662506306e-06 0.0000000000000000e+00  3.5829775051068645e-07 -6.5829315770662538e-06 0.0000000000000000e+00  3.5992676423001829e-07 -6.8441385329343424e-06 0.0000000000000000e+00  3.6146548853832788e-07 -7.1058287944744755e-06 0.0000000000000000e+00  3.6285513146549704e-07 -7.3677905277758958e-06 0.0000000000000000e+00  3.6417131634684180e-07 -7.6300234559637116e-06 0.0000000000000000e+00  3.6538648134526843e-07 -7.8924151861951740e-06 0.0000000000000000e+00  3.6654170092672511e-07 -8.1548454303083396e-06 0.0000000000000000e+00  3.6766382883657147e-07 -8.4180389043737527e-06 0.0000000000000000e+00  3.6867651309667467e-07 -8.6799855900293517e-06 0.0000000000000000e+00  3.6970292034429109e-07 -8.9426354672490715e-06 0.0000000000000000e+00  3.7069884725987109e-07 -9.2054427351724937e-06 0.0000000000000000e+00  3.7175869381566701e-07 -9.4673920814363140e-06 0.0000000000000000e+00  1.9685859096402574e-07 -9.7313254707696173e-06 0.0000000000000000e+00  -1.5486331337306984e-07 -9.7320699429129990e-06 0.0000000000000000e+00  -3.3175870799200388e-07 -9.4702511266209689e-06 0.0000000000000000e+00  -3.3268489122633074e-07 -9.2079582249198590e-06 0.0000000000000000e+00  -3.3370596667863085e-07 -8.9454680651276282e-06 0.0000000000000000e+00  -3.3465886779522103e-07 -8.6826042713212258e-06 0.0000000000000000e+00  -3.3562709720328124e-07 -8.4206690440429323e-06 0.0000000000000000e+00  -3.3650408581687627e-07 -8.1574760269265985e-06 0.0000000000000000e+00  -3.3733194170395486e-07 -7.8951521119445254e-06 0.0000000000000000e+00  -3.3812479551165935e-07 -7.6327177368054095e-06 0.0000000000000000e+00  -3.3876321468874950e-07 -7.3704717669676372e-06 0.0000000000000000e+00  -3.3939771800653673e-07 -7.1084946903444330e-06 0.0000000000000000e+00  -3.3978802694681167e-07 -6.8468081735506105e-06 0.0000000000000000e+00  -3.4019671314361685e-07 -6.5855719950997816e-06 0.0000000000000000e+00  -3.4024863692621689e-07 -6.3248130215336084e-06 0.0000000000000000e+00  -3.4035572025441021e-07 -6.0647519277737770e-06 0.0000000000000000e+00  -3.3996439327191349e-07 -5.8054167583336924e-06 0.0000000000000000e+00  -3.3968137396797981e-07 -5.5470918605776438e-06 0.0000000000000000e+00  -3.3872716054281475e-07 -5.2898134727148622e-06 0.0000000000000000e+00  -3.3795420480004944e-07 -5.0339339516076007e-06 0.0000000000000000e+00  -3.3630146842457981e-07 -4.7794950830124020e-06 0.0000000000000000e+00  -3.3492649359859864e-07 -4.5269272323468586e-06 0.0000000000000000e+00  -3.3240165688896093e-07 -4.2762973726065690e-06 0.0000000000000000e+00  -3.3027034128295879e-07 -4.0281329792123333e-06 0.0000000000000000e+00  -3.2675274424459144e-07 -3.7825208986933325e-06 0.0000000000000000e+00  -3.2356967441525405e-07 -3.5398522543894094e-06 0.0000000000000000e+00  -3.1987805104057658e-07 -3.3007860685332014e-06 0.0000000000000000e+00  -3.1480839464813240e-07 -3.0648320283393671e-06 0.0000000000000000e+00  -3.0975529227005243e-07 -2.8335787992722183e-06 0.0000000000000000e+00  -3.0347089068813894e-07 -2.6065478621672985e-06 0.0000000000000000e+00  -2.9701431035599985e-07 -2.3850040363408662e-06 0.0000000000000000e+00  -2.8923416177693585e-07 -2.1687452646478213e-06 0.0000000000000000e+00  -2.8125949950399445e-07 -1.9587302508288605e-06 0.0000000000000000e+00  -2.7099572085786636e-07 -1.7560764502968892e-06 0.0000000000000000e+00  -2.6170622349912749e-07 -1.5596433364626076e-06 0.0000000000000000e+00  -2.5157631736900097e-07 -1.3725532335674977e-06 0.0000000000000000e+00  -2.3860281988779460e-07 -1.1922795997386250e-06 0.0000000000000000e+00  -2.2588203765333450e-07 -1.0225795320563419e-06 0.0000000000000000e+00  -2.1104443795639034e-07 -8.6246378468304040e-07 0.0000000000000000e+00  -1.9619841424970466e-07 -7.1331860758263337e-07 0.0000000000000000e+00  -1.7776092483540781e-07 -5.7701985021283243e-07 0.0000000000000000e+00  -1.6119558194411851e-07 -4.5123699645195647e-07 0.0000000000000000e+00  -1.4361589960738616e-07 -3.4133237291264399e-07 0.0000000000000000e+00  -1.2148396330546301e-07 -2.4280171294856440e-07 0.0000000000000000e+00  -1.0057380828325067e-07 -1.6108125700687594e-07 0.0000000000000000e+00  -7.5483739266214404e-08 -9.5723943147962821e-08 0.0000000000000000e+00  -5.2367541116815265e-08 -4.8111538759266536e-08 0.0000000000000000e+00  -2.4909534149757589e-08 -1.8582578478582965e-08 0.0000000000000000e+00  -1.5334248457198511e-09 -2.1204088831713633e-08 0.0000000000000000e+00  2.3985114832078054e-08 -9.3385941767819959e-06 0.0000000000000000e+00  2.4788857311448339e-08 -8.8363381901289636e-06 0.0000000000000000e+00  1.8436210181638871e-08 -8.0161719118981445e-06 0.0000000000000000e+00  -3.3220914070794187e-09 -1.1612820916021227e-07 0.0000000000000000e+00  1.2538771776840332e-08 -7.5006207734867260e-06 0.0000000000000000e+00  -6.2066592542300117e-09 -2.7284675112740231e-07 0.0000000000000000e+00  1.0552772341841896e-08 -6.9764865412323939e-06 0.0000000000000000e+00  -8.5935830952559440e-09 -6.4166089907885090e-07 0.0000000000000000e+00  -6.5999784889001429e-09 -9.3454369655106737e-07 0.0000000000000000e+00  8.5775254019660595e-09 -6.4538129527456689e-06 0.0000000000000000e+00  -9.7396239075326995e-09 -1.8600362503393711e-06 0.0000000000000000e+00  4.6999655432135022e-09 -5.4165307189679803e-06 0.0000000000000000e+00  -9.7731214956238886e-09 -1.2605275169517064e-06 0.0000000000000000e+00  -5.3147453116392599e-09 -2.2717669549371401e-06 0.0000000000000000e+00  2.8296644053855286e-09 -4.9044539693282232e-06 0.0000000000000000e+00  6.6220246804932457e-09 -5.9334555575973595e-06 0.0000000000000000e+00  -4.2473253801189789e-09 -2.7155665723864594e-06 0.0000000000000000e+00  1.0203074415148938e-09 -4.3989740186785404e-06 0.0000000000000000e+00  -7.1232717785590444e-09 -3.1597806709705538e-06 0.0000000000000000e+00  3.5416733961456494e-09 -3.9123430023088974e-06 0.0000000000000000e+00  -2.0136763952186898e-09 -3.5176042875059167e-06 0.0000000000000000e+00  -6.0239858759803545e-09 -1.5387488488666396e-06 0.0000000000000000e+00  1.5455060686181031e-08 -8.4428967068549483e-06 0.0000000000000000e+00  -5.5624289657030221e-09 -4.3566161605361413e-07 0.0000000000000000e+00  -9.9155730249989232e-08 -9.0867167583974590e-06 0.0000000000000000e+00  -2.4691613666642385e-08 -6.0484391468190093e-08 0.0000000000000000e+00  -9.0435719864638146e-08 -7.2391785367800675e-06 0.0000000000000000e+00  -8.8634521889309469e-08 -7.7638307970564352e-06 0.0000000000000000e+00  3.3517204117587576e-08 -1.9173631850922886e-07 0.0000000000000000e+00  5.1061545379855943e-08 -7.8067254472728528e-07 0.0000000000000000e+00  -9.4814904665754187e-08 -5.6751898132933662e-06 0.0000000000000000e+00  -9.2101833476749122e-08 -6.7156543396387268e-06 0.0000000000000000e+00  7.5593241484282414e-08 -2.0588640112666408e-06 0.0000000000000000e+00  -9.5725551127787168e-08 -5.1604876031470517e-06 0.0000000000000000e+00  5.8678488600436280e-08 -1.1008415392178496e-06 0.0000000000000000e+00  8.1051047627065850e-08 -2.4913702977634440e-06 0.0000000000000000e+00  -9.6232997949473470e-08 -4.6514656904570006e-06 0.0000000000000000e+00  -9.3582435086445271e-08 -6.1939987003658880e-06 0.0000000000000000e+00  1.0573002820545911e-07 -2.9426819031987519e-06 0.0000000000000000e+00  -9.6283620306345098e-08 -4.1500498252090976e-06 0.0000000000000000e+00  3.2048209665813925e-09 -4.9649302788505090e-09 0.0000000000000000e+00  -4.6363732846112030e-09 -4.0764634332527111e-09 0.0000000000000000e+00  1.0570498742218217e-07 -9.5452361768487495e-06 0.0000000000000000e+00  2.222