<?xml version="1.0"?>
<VTKFile type="UnstructuredGrid"  version="0.1"  >
<UnstructuredGrid>
<Piece  NumberOfPoints="1419" NumberOfCells="2698">
<Points>
<DataArray  type="Float64"  NumberOfComponents="3"  format="ascii">0 0 0  0 0.41 0  2.5 0 0  2.5 0.41 0  0.6 0.19 0  0.6 0.21 0  0.25 0.2 0  0.15 0.2 0  0.2489897948556636 0.21 0  0.2489897948556636 0.19 0  0.6 0.2 0  0 0.3807142857143437 0  0 0.3514285714286952 0  0 0.3221428571430699 0  0 0.29285714285744 0  0 0.2635714285718054 0  0 0.2342857142861561 0  0 0.2050000000005308 0  0 0.175714285714732 0  0 0.1464285714289574 0  0 0.1171428571431897 0  0 0.08785714285737878 0  0 0.05857142857161107 0  0 0.02928571428580012 0  0.03015443760436003 0 0  0.06140001986583606 0 0  0.09377624077125973 0 0  0.1273239957535082 0 0  0.1620856860351972 0 0  0.1981052433264291 0 0  0.235428184091502 0 0  0.2741016576309132 0 0  0.3141745521465447 0 0  0.3556974926295285 0 0  0.3987229542472677 0 0  0.4433053055141081 0 0  0.4895008759286886 0 0  0.5373680609405097 0 0  0.5869673343216626 0 0  0.6383613676634521 0 0  0.6916151138468254 0 0  0.7467958595648856 0 0  0.8039733463919316 0 0  0.8632198139502143 0 0  0.9246101326867038 0 0  0.9882218810934433 0 0  1.054135445558498 0 0  1.122434100542598 0 0  1.193204177141305 0 0  1.266535089879536 0 0  1.342519516046404 0 0  1.421253448503939 0 0  1.502836389106271 0 0  1.587371439758838 0 0  1.674965418777374 0 0  1.765729001825544 0 0  1.859776908880082 0 0  1.957227977487062 0 0  2.058205329869943 0 0  2.162836591189951 0 0  2.271253957290865 0 0  2.383594446803425 0 0  2.5 0.1024999999997612 0  2.5 0.2049999999994743 0  2.5 0.3074999999997183 0  2.383594446803656 0.41 0  2.271253957291315 0.41 0  2.162836591190598 0.41 0  2.058205329870775 0.41 0  1.957227977488067 0.41 0  1.859776908881246 0.41 0  1.765729001826854 0.41 0  1.674965418778818 0.41 0  1.58737143976041 0.41 0  1.502836389107956 0.41 0  1.421253448505726 0.41 0  1.342519516048286 0.41 0  1.266535089881505 0.41 0  1.193204177143353 0.41 0  1.122434100544716 0.41 0  1.05413544556068 0.41 0  0.9882218810956305 0.41 0  0.9246101326886647 0.41 0  0.8632198139519631 0.41 0  0.8039733463934788 0.41 0  0.7467958595662458 0.41 0  0.6916151138480078 0.41 0  0.6383613676644679 0.41 0  0.5869673343225223 0.41 0  0.5373680609412221 0.41 0  0.4895008759292634 0.41 0  0.4433053055145528 0.41 0  0.3987229542475914 0.41 0  0.3556974926297398 0.41 0  0.3141745521466497 0.41 0  0.2741016576310038 0.41 0  0.2354281840915826 0.41 0  0.1981052433265003 0.41 0  0.1620856860352591 0.41 0  0.1273239957535623 0.41 0  0.09377624077128965 0.41 0  0.06140001986584975 0.41 0  0.03015443760436654 0.41 0  0.2497468076502589 0.2050254481002335 0  0.2497468076502614 0.1949745518997913 0  0.2469965252529372 0.1829317073451959 0  0.2439893735792749 0.1762316384219906 0  0.2400332147834255 0.1700443375285386 0  0.2352133972704371 0.1645032867342007 0  0.2296339016332438 0.1597280261969788 0  0.2234150974217223 0.1558215752574715 0  0.2166911463437691 0.1528682099456123 0  0.2096071079204251 0.1509316448471593 0  0.2023158100364996 0.1500536585536553 0  0.194974551899914 0.1502531923497262 0  0.1877417105387872 0.1515259415822739 0  0.1807733240461124 0.153844448527136 0  0.1742197252835808 0.15715869474974 0  0.1682222986673531 0.1613971801805478 0  0.162910430003803 0.1664684656256651 0  0.1583987151779087 0.1722631454351573 0  0.1547844879126891 0.178656207771761 0  0.1521457199348551 0.1855097315605723 0  0.1505393388476355 0.1926758619366523 0  0.1505393388476328 0.2073241380633295 0  0.1521457199348437 0.2144902684393899 0  0.1547844879126531 0.221343792228163 0  0.1583987151778488 0.2277368545647528 0  0.1629104300036858 0.2335315343742052 0  0.1682222986671726 0.2386028198193036 0  0.1742197252833576 0.2428413052501257 0  0.1807733240458683 0.2461555514727623 0  0.1877417105384929 0.2484740584176516 0  0.1949745518995776 0.2497468076502398 0  0.202315810036185 0.2499463414463592 0  0.2096071079201568 0.2490683551528932 0  0.2166911463435495 0.2471317900544655 0  0.2234150974215506 0.2441784247426195 0  0.2296339016331197 0.2402719738031125 0  0.2352133972703547 0.2354967132658811 0  0.2400332147833751 0.2299556624715287 0  0.2439893735792577 0.2237683615780412 0  0.246996525252926 0.2170682926548348 0  0.25645809709277 0.21 0  0.2639263993298655 0.21 0  0.271394701566961 0.21 0  0.2788630038040554 0.21 0  0.2863313060411479 0.21 0  0.2937996082782405 0.21 0  0.301267910515333 0.21 0  0.3087362127524279 0.21 0  0.3162045149895234 0.21 0  0.3236728172265972 0.21 0  0.3311411194636928 0.21 0  0.3386094217007701 0.21 0  0.3460777239378666 0.21 0  0.3535460261749672 0.21 0  0.3610143284120516 0.21 0  0.3684826306491596 0.21 0  0.3759509328862226 0.21 0  0.383419235123329 0.21 0  0.3908875373604028 0.21 0  0.3983558395975142 0.21 0  0.4058241418345938 0.21 0  0.4132924440716992 0.21 0  0.4207607463087888 0.21 0  0.4282290485459029 0.21 0  0.4356973507830418 0.21 0  0.4431656530201649 0.21 0  0.4506339552573136 0.21 0  0.4581022574944306 0.21 0  0.4655705597315852 0.21 0  0.4730388619686996 0.21 0  0.480507164205851 0.21 0  0.4879754664429498 0.21 0  0.4954437686800938 0.21 0  0.502912070917267 0.21 0  0.5103803731544119 0.21 0  0.5178486753915261 0.21 0  0.5253169776286404 0.21 0  0.5327852798657868 0.21 0  0.5402535821029386 0.21 0  0.54772188434007 0.21 0  0.5551901865771842 0.21 0  0.5626584888143201 0.21 0  0.5701267910514778 0.21 0  0.5775950932886138 0.21 0  0.5850633955257281 0.21 0  0.5925316977628483 0.21 0  0.6 0.2050000000000054 0  0.6 0.1950000000000217 0  0.5925316977628897 0.19 0  0.5850633955257988 0.19 0  0.5775950932887378 0.19 0  0.5701267910515998 0.19 0  0.5626584888145268 0.19 0  0.5551901865773963 0.19 0  0.547721884340339 0.19 0  0.5402535821032429 0.19 0  0.5327852798661811 0.19 0  0.5253169776290537 0.19 0  0.5178486753919799 0.19 0  0.5103803731549078 0.19 0  0.502912070917822 0.19 0  0.4954437686807294 0.19 0  0.4879754664436223 0.19 0  0.4805071642065402 0.19 0  0.4730388619694271 0.19 0  0.4655705597323621 0.19 0  0.4581022574952563 0.19 0  0.4506339552581777 0.19 0  0.4431656530210671 0.19 0  0.4356973507839815 0.19 0  0.4282290485468779 0.19 0  0.4207607463097617 0.19 0  0.4132924440726327 0.19 0  0.4058241418354857 0.19 0  0.3983558395983636 0.19 0  0.3908875373612097 0.19 0  0.3834192351240934 0.19 0  0.3759509328869369 0.19 0  0.3684826306498175 0.19 0  0.361014328412667 0.19 0  0.3535460261755617 0.19 0  0.3460777239384295 0.19 0  0.3386094217012945 0.19 0  0.3311411194641595 0.19 0  0.3236728172270245 0.19 0  0.3162045149898895 0.19 0  0.3087362127527544 0.19 0  0.3012679105156187 0.19 0  0.2937996082784807 0.19 0  0.2863313060413428 0.19 0  0.2788630038042048 0.19 0  0.2713947015670686 0.19 0  0.2639263993299336 0.19 0  0.2564580970927985 0.19 0  0.2607803159922026 0.2000727136295815 0  0.5887803774232762 0.2001272386983733 0  0.5745072403740523 0.2002044435018727 0  0.5511891430099709 0.2001122610077113 0  0.2751288526855082 0.20000000000002 0  0.5365194309847112 0.1999999999999436 0  0.2894621222999649 0.1998691686390484 0  0.5215828265105155 0.1999999999999228 0  0.3127789816668748 0.1998657885438805 0  0.3274069683451451 0.2000000000000796 0  0.5066462220363641 0.199999999999908 0  0.3650630746574081 0.199866017807523 0  0.476773013087985 0.1999999999998713 0  0.3417402379596385 0.1998691686391011 0  0.3796850840047755 0.200000000000134 0  0.4618364086138087 0.1999999999998546 0  0.4917096175621762 0.1999999999998808 0  0.3946216884789568 0.2000000000001512 0  0.446899804139621 0.1999999999998389 0  0.4089549580935208 0.1998691686391595 0  0.4322718174608562 0.200127451265745 0  0.4201487168029707 0.1999966199048527 0  0.3528922713220932 0.2000185703532356 0  0.5633122436674589 0.1999814296467508 0  0.3006558810093873 0.1999966199048318 0  0.5815926498168407 0.1966545283159175 0  0.2677053789419034 0.1964246479135325 0  0.5290511287476175 0.1970915826863981 0  0.5439877332217911 0.197091582686394 0  0.2825131256993216 0.2035478995978015 0  0.3199386661080599 0.202908417313604 0  0.4842413153250809 0.1970915826863873 0  0.5141145242734466 0.1970915826863843 0  0.3722167817676917 0.2029084173136195 0  0.4693047108508938 0.1970915826863783 0  0.3348752705822316 0.202908417313609 0  0.3871533862418661 0.2029084173136212 0  0.4543681063767183 0.1970915826863795 0  0.4991779197992749 0.1970915826863902 0  0.4020059614928624 0.203547899597858 0  0.4394315019025246 0.1970915826863714 0  0.2550657455369551 0.2034088125358657 0  0.2548908499171161 0.1966940311614271 0  0.5946539510196798 0.2024302972968126 0  0.267698176732111 0.2039977513680092 0  0.4261685417851465 0.196409292431739 0  0.3590076176283495 0.196411355804271 0  0.5571672426447437 0.2036011176410121 0  0.3066757059912147 0.1964092924317024 0  0.594380730180568 0.1966558399668133 0  0.4842413153245942 0.2040749161535287 0  0.4693047108503577 0.2040749161535231 0  0.3871533862424271 0.1959250838464788 0  0.372246743208829 0.1959123236376545 0  0.5141145242731028 0.2040749161535395 0  0.4543681063761134 0.2040749161535186 0  0.4019979587101454 0.1959834479682427 0  0.4394608940728603 0.2040870543693135 0  0.5439623148931173 0.2040856076781014 0  0.5290511287473298 0.2040749161535501 0  0.4991779197988497 0.2040749161535382 0  0.3347912413592433 0.1959225448935183 0  0.3199680582793816 0.1959123018030061 0  0.2825051229162361 0.1959834479681729 0  0.3590471196690275 0.2036304442587945 0  0.5571594006495384 0.1963685282145804 0  0.3067669986803285 0.203627750582736 0  0.4262598344738712 0.2036568242185335 0  0.5814408164431408 0.2041285596160068 0  0.5688286748170428 0.1961819304477386 0  0.4145905603063645 0.2038180695522843 0  0.3473758401724931 0.2038180695522752 0  0.2950977245128307 0.2038180695522663 0  0.5688286748170693 0.203818069552238 0  0.2950977245127906 0.1961819304477774 0  0.3473758401723931 0.1961819304478349 0  0.4145905603061963 0.1961819304479011 0  0.2601812407614425 0.2056861609747042
[...]
<PointData  Vectors="f_40-0"> 
<DataArray  type="Float64"  Name="f_40-0"  NumberOfComponents="3" format="ascii">0.0000000000000000e+00 0.0000000000000000e+00 0.0000000000000000e+00  0.0000000000000000e+00 0.0000000000000000e+00 0.0000000000000000e+00  0.0000000000000000e+00 0.0000000000000000e+00 0.0000000000000000e+00  0.0000000000000000e+00 0.0000000000000000e+00 0.0000000000000000e+00  -4.2733215345340862e-05 1.2057157571983603e-06 0.0000000000000000e+00  -4.2678425137544737e-05 -2.7398623586798797e-06 0.0000000000000000e+00  0.0000000000000000e+00 0.0000000000000000e+00 0.0000000000000000e+00  0.0000000000000000e+00 0.0000000000000000e+00 0.0000000000000000e+00  0.0000000000000000e+00 0.0000000000000000e+00 0.0000000000000000e+00  0.0000000000000000e+00 0.0000000000000000e+00 0.0000000000000000e+00  -4.2732217536148197e-05 -7.6487400394431236e-07 0.0000000000000000e+00  1.9735182426018443e-04 0.0000000000000000e+00 0.0000000000000000e+00  3.6434182940344150e-04 0.0000000000000000e+00 0.0000000000000000e+00  5.0097001542973225e-04 0.0000000000000000e+00 0.0000000000000000e+00  6.0723638233921458e-04 0.0000000000000000e+00 0.0000000000000000e+00  6.8314093013187478e-04 0.0000000000000000e+00 0.0000000000000000e+00  7.2868365880770863e-04 0.0000000000000000e+00 0.0000000000000000e+00  7.4386456836667014e-04 0.0000000000000000e+00 0.0000000000000000e+00  7.2868365880862933e-04 0.0000000000000000e+00 0.0000000000000000e+00  6.8314093013345642e-04 0.0000000000000000e+00 0.0000000000000000e+00  6.0723638234117330e-04 0.0000000000000000e+00 0.0000000000000000e+00  5.0097001543159296e-04 0.0000000000000000e+00 0.0000000000000000e+00  3.6434182940502937e-04 0.0000000000000000e+00 0.0000000000000000e+00  1.9735182426107903e-04 0.0000000000000000e+00 0.0000000000000000e+00  0.0000000000000000e+00 0.0000000000000000e+00 0.0000000000000000e+00  0.0000000000000000e+00 0.0000000000000000e+00 0.0000000000000000e+00  0.0000000000000000e+00 0.0000000000000000e+00 0.0000000000000000e+00  0.0000000000000000e+00 0.0000000000000000e+00 0.0000000000000000e+00  0.0000000000000000e+00 0.0000000000000000e+00 0.0000000000000000e+00  0.0000000000000000e+00 0.0000000000000000e+00 0.0000000000000000e+00  0.0000000000000000e+00 0.0000000000000000e+00 0.0000000000000000e+00  0.0000000000000000e+00 0.0000000000000000e+00 0.0000000000000000e+00  0.0000000000000000e+00 0.0000000000000000e+00 0.0000000000000000e+00  0.0000000000000000e+00 0.0000000000000000e+00 0.0000000000000000e+00  0.0000000000000000e+00 0.0000000000000000e+00 0.0000000000000000e+00  0.0000000000000000e+00 0.0000000000000000e+00 0.0000000000000000e+00  0.0000000000000000e+00 0.0000000000000000e+00 0.0000000000000000e+00  0.0000000000000000e+00 0.0000000000000000e+00 0.0000000000000000e+00  0.0000000000000000e+00 0.0000000000000000e+00 0.0000000000000000e+00  0.0000000000000000e+00 0.0000000000000000e+00 0.0000000000000000e+00  0.0000000000000000e+00 0.0000000000000000e+00 0.0000000000000000e+00  0.0000000000000000e+00 0.0000000000000000e+00 0.0000000000000000e+00  0.0000000000000000e+00 0.0000000000000000e+00 0.0000000000000000e+00  0.0000000000000000e+00 0.0000000000000000e+00 0.0000000000000000e+00  0.0000000000000000e+00 0.0000000000000000e+00 0.0000000000000000e+00  0.0000000000000000e+00 0.0000000000000000e+00 0.0000000000000000e+00  0.0000000000000000e+00 0.0000000000000000e+00 0.0000000000000000e+00  0.0000000000000000e+00 0.0000000000000000e+00 0.0000000000000000e+00  0.0000000000000000e+00 0.0000000000000000e+00 0.0000000000000000e+00  0.0000000000000000e+00 0.0000000000000000e+00 0.0000000000000000e+00  0.0000000000000000e+00 0.0000000000000000e+00 0.0000000000000000e+00  0.0000000000000000e+00 0.0000000000000000e+00 0.0000000000000000e+00  0.0000000000000000e+00 0.0000000000000000e+00 0.0000000000000000e+00  0.0000000000000000e+00 0.0000000000000000e+00 0.0000000000000000e+00  0.0000000000000000e+00 0.0000000000000000e+00 0.0000000000000000e+00  0.0000000000000000e+00 0.0000000000000000e+00 0.0000000000000000e+00  0.0000000000000000e+00 0.0000000000000000e+00 0.0000000000000000e+00  0.0000000000000000e+00 0.0000000000000000e+00 0.0000000000000000e+00  0.0000000000000000e+00 0.0000000000000000e+00 0.0000000000000000e+00  0.0000000000000000e+00 0.0000000000000000e+00 0.0000000000000000e+00  0.0000000000000000e+00 0.0000000000000000e+00 0.0000000000000000e+00  0.0000000000000000e+00 0.0000000000000000e+00 0.0000000000000000e+00  1.9793096269640317e-04 7.1603945241474288e-07 0.0000000000000000e+00  1.8055177239940552e-04 -2.8561822864502625e-07 0.0000000000000000e+00  1.9273827372536992e-04 -5.3074819810998573e-07 0.0000000000000000e+00  0.0000000000000000e+00 0.0000000000000000e+00 0.0000000000000000e+00  0.0000000000000000e+00 0.0000000000000000e+00 0.0000000000000000e+00  0.0000000000000000e+00 0.0000000000000000e+00 0.0000000000000000e+00  0.0000000000000000e+00 0.0000000000000000e+00 0.0000000000000000e+00  0.0000000000000000e+00 0.0000000000000000e+00 0.0000000000000000e+00  0.0000000000000000e+00 0.0000000000000000e+00 0.0000000000000000e+00  0.0000000000000000e+00 0.0000000000000000e+00 0.0000000000000000e+00  0.0000000000000000e+00 0.0000000000000000e+00 0.0000000000000000e+00  0.0000000000000000e+00 0.0000000000000000e+00 0.0000000000000000e+00  0.0000000000000000e+00 0.0000000000000000e+00 0.0000000000000000e+00  0.0000000000000000e+00 0.0000000000000000e+00 0.0000000000000000e+00  0.0000000000000000e+00 0.0000000000000000e+00 0.0000000000000000e+00  0.0000000000000000e+00 0.0000000000000000e+00 0.0000000000000000e+00  0.0000000000000000e+00 0.0000000000000000e+00 0.0000000000000000e+00  0.0000000000000000e+00 0.0000000000000000e+00 0.0000000000000000e+00  0.0000000000000000e+00 0.0000000000000000e+00 0.0000000000000000e+00  0.0000000000000000e+00 0.0000000000000000e+00 0.0000000000000000e+00  0.0000000000000000e+00 0.0000000000000000e+00 0.0000000000000000e+00  0.0000000000000000e+00 0.0000000000000000e+00 0.0000000000000000e+00  0.0000000000000000e+00 0.0000000000000000e+00 0.0000000000000000e+00  0.0000000000000000e+00 0.0000000000000000e+00 0.0000000000000000e+00  0.0000000000000000e+00 0.0000000000000000e+00 0.0000000000000000e+00  0.0000000000000000e+00 0.0000000000000000e+00 0.0000000000000000e+00  0.0000000000000000e+00 0.0000000000000000e+00 0.0000000000000000e+00  0.0000000000000000e+00 0.0000000000000000e+00 0.0000000000000000e+00  0.0000000000000000e+00 0.0000000000000000e+00 0.0000000000000000e+00  0.0000000000000000e+00 0.0000000000000000e+00 0.0000000000000000e+00  0.0000000000000000e+00 0.0000000000000000e+00 0.0000000000000000e+00  0.0000000000000000e+00 0.0000000000000000e+00 0.0000000000000000e+00  0.0000000000000000e+00 0.0000000000000000e+00 0.0000000000000000e+00  0.0000000000000000e+00 0.0000000000000000e+00 0.0000000000000000e+00  0.0000000000000000e+00 0.0000000000000000e+00 0.0000000000000000e+00  0.0000000000000000e+00 0.0000000000000000e+00 0.0000000000000000e+00  0.0000000000000000e+00 0.0000000000000000e+00 0.0000000000000000e+00  0.0000000000000000e+00 0.0000000000000000e+00 0.0000000000000000e+00  0.0000000000000000e+00 0.0000000000000000e+00 0.0000000000000000e+00  0.0000000000000000e+00 0.0000000000000000e+00 0.0000000000000000e+00  0.0000000000000000e+00 0.0000000000000000e+00 0.0000000000000000e+00  0.0000000000000000e+00 0.0000000000000000e+00 0.0000000000000000e+00  0.0000000000000000e+00 0.0000000000000000e+00 0.0000000000000000e+00  0.0000000000000000e+00 0.0000000000000000e+00 0.0000000000000000e+00  0.0000000000000000e+00 0.0000000000000000e+00 0.0000000000000000e+00  0.0000000000000000e+00 0.0000000000000000e+00 0.0000000000000000e+00  0.0000000000000000e+00 0.0000000000000000e+00 0.0000000000000000e+00  0.0000000000000000e+00 0.0000000000000000e+00 0.0000000000000000e+00  0.0000000000000000e+00 0.0000000000000000e+00 0.0000000000000000e+00  0.0000000000000000e+00 0.0000000000000000e+00 0.0000000000000000e+00  0.0000000000000000e+00 0.0000000000000000e+00 0.0000000000000000e+00  0.0000000000000000e+00 0.0000000000000000e+00 0.0000000000000000e+00  0.0000000000000000e+00 0.0000000000000000e+00 0.0000000000000000e+00  0.0000000000000000e+00 0.0000000000000000e+00 0.0000000000000000e+00  0.0000000000000000e+00 0.0000000000000000e+00 0.0000000000000000e+00  0.0000000000000000e+00 0.0000000000000000e+00 0.0000000000000000e+00  0.0000000000000000e+00 0.0000000000000000e+00 0.0000000000000000e+00  0.0000000000000000e+00 0.0000000000000000e+00 0.0000000000000000e+00  0.0000000000000000e+00 0.0000000000000000e+00 0.0000000000000000e+00  0.0000000000000000e+00 0.0000000000000000e+00 0.0000000000000000e+00  0.0000000000000000e+00 0.0000000000000000e+00 0.0000000000000000e+00  0.0000000000000000e+00 0.0000000000000000e+00 0.0000000000000000e+00  0.0000000000000000e+00 0.0000000000000000e+00 0.0000000000000000e+00  0.0000000000000000e+00 0.0000000000000000e+00 0.0000000000000000e+00  0.0000000000000000e+00 0.0000000000000000e+00 0.0000000000000000e+00  0.0000000000000000e+00 0.0000000000000000e+00 0.0000000000000000e+00  0.0000000000000000e+00 0.0000000000000000e+00 0.0000000000000000e+00  0.0000000000000000e+00 0.0000000000000000e+00 0.0000000000000000e+00  0.0000000000000000e+00 0.0000000000000000e+00 0.0000000000000000e+00  0.0000000000000000e+00 0.0000000000000000e+00 0.0000000000000000e+00  0.0000000000000000e+00 0.0000000000000000e+00 0.0000000000000000e+00  0.0000000000000000e+00 0.0000000000000000e+00 0.0000000000000000e+00  0.0000000000000000e+00 0.0000000000000000e+00 0.0000000000000000e+00  0.0000000000000000e+00 0.0000000000000000e+00 0.0000000000000000e+00  0.0000000000000000e+00 0.0000000000000000e+00 0.0000000000000000e+00  0.0000000000000000e+00 0.0000000000000000e+00 0.0000000000000000e+00  0.0000000000000000e+00 0.0000000000000000e+00 0.0000000000000000e+00  0.0000000000000000e+00 0.0000000000000000e+00 0.0000000000000000e+00  0.0000000000000000e+00 0.0000000000000000e+00 0.0000000000000000e+00  0.0000000000000000e+00 0.0000000000000000e+00 0.0000000000000000e+00  0.0000000000000000e+00 0.0000000000000000e+00 0.0000000000000000e+00  -8.1283196538563471e-07 -3.0516773524312926e-06 0.0000000000000000e+00  -1.5767471755964901e-06 -3.2920100056534857e-06 0.0000000000000000e+00  -2.2014556295116612e-06 -3.3727783322531810e-06 0.0000000000000000e+00  -2.7551700097070856e-06 -3.3558480227578468e-06 0.0000000000000000e+00  -3.2873723593165238e-06 -3.3449693320929939e-06 0.0000000000000000e+00  -3.8417564546835522e-06 -3.3611035756941730e-06 0.0000000000000000e+00  -4.4087237706983476e-06 -3.3768118483626489e-06 0.0000000000000000e+00  -4.9996436288009838e-06 -3.3930092949454425e-06 0.0000000000000000e+00  -5.6035722837844571e-06 -3.4106218640325910e-06 0.0000000000000000e+00  -6.2269674614164788e-06 -3.4226525028411907e-06 0.0000000000000000e+00  -6.8683527565442368e-06 -3.4399058670202598e-06 0.0000000000000000e+00  -7.5270326410544509e-06 -3.4471106902680216e-06 0.0000000000000000e+00  -8.2069138551427455e-06 -3.4545650605694884e-06 0.0000000000000000e+00  -8.8991526753522198e-06 -3.4597034521312350e-06 0.0000000000000000e+00  -9.6161458650638231e-06 -3.4591367923466369e-06 0.0000000000000000e+00  -1.0346813036682232e-05 -3.4589187142711589e-06 0.0000000000000000e+00  -1.1096386159289478e-05 -3.4485737796397866e-06 0.0000000000000000e+00  -1.1865191263558077e-05 -3.4435354422841065e-06 0.0000000000000000e+00  -1.2650419007624418e-05 -3.4252863646108951e-06 0.0000000000000000e+00  -1.3454162027979358e-05 -3.4137743238773889e-06 0.0000000000000000e+00  -1.4275220134001734e-05 -3.3900715547029322e-06 0.0000000000000000e+00  -1.5117995484781497e-05 -3.3680580309480459e-06 0.0000000000000000e+00  -1.5972210069841414e-05 -3.3440146570695848e-06 0.0000000000000000e+00  -1.6851687127176049e-05 -3.3154023832171249e-06 0.0000000000000000e+00  -1.7744236095973878e-05 -3.2895761782474378e-06 0.0000000000000000e+00  -1.8658148229426495e-05 -3.2541630146556128e-06 0.0000000000000000e+00  -1.9591502733929399e-05 -3.2293316813209194e-06 0.0000000000000000e+00  -2.0543720617042979e-05 -3.1916880703926027e-06 0.0000000000000000e+00  -2.1515979536116996e-05 -3.1646072860414869e-06 0.0000000000000000e+00  -2.2507307506307639e-05 -3.1265854774499829e-06 0.0000000000000000e+00  -2.3518792745378698e-05 -3.0991148924785502e-06 0.0000000000000000e+00  -2.4550810673925213e-05 -3.0614478870884656e-06 0.0000000000000000e+00  -2.5602194273966346e-05 -3.0358254145089168e-06 0.0000000000000000e+00  -2.6676137418283170e-05 -2.9982695640757746e-06 0.0000000000000000e+00  -2.7772979364539320e-05 -2.9742890207257578e-06 0.0000000000000000e+00  -2.8890546943131071e-05 -2.9395804905303120e-06 0.0000000000000000e+00  -3.0029080234338121e-05 -2.9177918077163920e-06 0.0000000000000000e+00  -3.1189336822736906e-05 -2.8857827765956049e-06 0.0000000000000000e+00  -3.2372748021757634e-05 -2.8669973289365761e-06 0.0000000000000000e+00  -3.3580241702777327e-05 -2.8385398464448485e-06 0.0000000000000000e+00  -3.4813603809391423e-05 -2.8188297344624758e-06 0.0000000000000000e+00  -3.6064568150857895e-05 -2.7962787433416735e-06 0.0000000000000000e+00  -3.7348149151466814e-05 -2.7759913877084363e-06 0.0000000000000000e+00  -3.8646331739829965e-05 -2.7570059848960424e-06 0.0000000000000000e+00  -3.9971749549372894e-05 -2.7335531497086715e-06 0.0000000000000000e+00  -4.1318993516531008e-05 -2.7196606770327640e-06 0.0000000000000000e+00  -4.2718869488565193e-05 -1.7535908961561216e-06 0.0000000000000000e+00  -4.2743388218095672e-05 2.2337662992535417e-07 0.0000000000000000e+00  -4.1370098331524081e-05 1.2304434675810766e-06 0.0000000000000000e+00  -4.0019106792917233e-05 1.2808268510698577e-06 0.0000000000000000e+00  -3.8690165938939493e-05 1.3376586421190338e-06 0.0000000000000000e+00  -3.7387765419836270e-05 1.3889606409694664e-06 0.0000000000000000e+00  -3.6101130047111879e-05 1.4394990579860726e-06 0.0000000000000000e+00  -3.4847155009635214e-05 1.4884043726766133e-06 0.0000000000000000e+00  -3.3610133249909830e-05 1.5331473335479679e-06 0.0000000000000000e+00  -3.2399180777287514e-05 1.5811303721493190e-06 0.0000000000000000e+00  -3.1209887792829973e-05 1.6183556467763094e-06 0.0000000000000000e+00  -3.0044205911138003e-05 1.6638392687296928e-06 0.0000000000000000e+00  -2.8901123371085002e-05 1.6970877472044201e-06 0.0000000000000000e+00  -2.7781422542661217e-05 1.7384319086179199e-06 0.0000000000000000e+00  -2.6683457685640274e-05 1.7681454427351297e-06 0.0000000000000000e+00  -2.5607085915990919e-05 1.8063174360081310e-06 0.0000000000000000e+00  -2.4551335284337992e-05 1.8333701021283821e-06 0.0000000000000000e+00  -2.3517177549386962e-05 1.8690348289370187e-06 0.0000000000000000e+00  -2.2504256387993322e-05 1.8942590243936946e-06 0.0000000000000000e+00  -2.1512684248354974e-05 1.9283283099200035e-06 0.0000000000000000e+00  -2.0541729041387161e-05 1.9523607826684343e-06 0.0000000000000000e+00  -1.9590490952674023e-05 1.9856836811493365e-06 0.0000000000000000e+00  -1.8659159198769986e-05 2.0102220722497374e-06 0.0000000000000000e+00  -1.7747287028769680e-05 2.0438830087314153e-06 0.0000000000000000e+00  -1.6857875880276864e-05 2.0735023076263433e-06 0.0000000000000000e+00  -1.5982839538836088e-05 2.1065164931990075e-06 0.0000000000000000e+00  -1.5134056112473843e-05 2.1410264320464891e-06 0.0000000000000000e+00  -1.4297793401487725e-05 2.1754182221729631e-06 0.0000000000000000e+00  -1.3482995437209880e-05 2.2177690584112561e-06 0.0000000000000000e+00  -1.2686461432185779e-05 2.2530722242115330e-06 0.0000000000000000e+00  -1.1908853589765013e-05 2.3028789798926309e-06 0.0000000000000000e+00  -1.1150512570690802e-05 2.3443290720877710e-06 0.0000000000000000e+00  -1.0409865477273080e-05 2.3995953925708109e-06 0.0000000000000000e+00  -9.6898270108600335e-06 2.4513372585776299e-06 0.0000000000000000e+00  -8.9809705261152321e-06 2.5097221481036939e-06 0.0000000000000000e+00  -8.2959471653354898e-06 2.5702833761008075e-06 0.0000000000000000e+00  -7.6230609667489296e-06 2.6331654160816810e-06 0.0000000000000000e+00  -6.9696204102456669e-06 2.7017198050943273e-06 0.0000000000000000e+00  -6.3328625444819360e-06 2.7638166812124765e-06 0.0000000000000000e+00  -5.7120261966599923e-06 2.8354571007984963e-06 0.0000000000000000e+00  -5.1085882402423753e-06 2.9024146699867283e-06 0.0000000000000000e+00  -4.5156150948248207e-06 2.9708170268471813e-06 0.0000000000000000e+00  -3.9436358741126598e-06 3.0370344860377415e-06 0.0000000000000000e+00  -3.3794554223421885e-06 3.0992177622852542e-06 0.0000000000000000e+00  -2.8357118863336644e-06 3.1818190521814949e-06 0.0000000000000000e+00  -2.2614457879766055e-06 3.2547505119774657e-06 0.0000000000000000e+00  -1.6237223003605186e-06 3.2184549984498043e-06 0.0000000000000000e+00  -8.4809240213942496e-07 3.0014609823021927e-06 0.0000000000000000e+00  -1.8429557194104734e-06 -4.1835583365609808e-08 0.0000000000000000e+00  -4.0670221879978632e-05 -7.5948422191748781e-07 0.0000000000000000e+00  -3.8118295225245756e-05 -7.4361111694777200e-07 0.0000000000000000e+00  -3.4156981761443839e-05 -6.8172865551128290e-07 0.0000000000000000e+00  -2.5249761780866029e-06 -6.9750444209240916e-08 0.0000000000000000e+00  -3.1784185692617572e-05 -6.3669099948623994e-07 0.0000000000000000e+00  -3.5592052333549466e-06 -9.4178139190617286e-08 0.0000000000000000e+00  -2.9457530788460354e-05 -6.2290959640753516e-07 0.0000000000000000e+00  -5.3744861785909635e-06 -2.2625746513470950e-07 0.0000000000000000e+00  -6.5940656008377180e-06 -3.5048082632676184e-07 0.0000000000000000e+00  -2.7220310290666845e-05 -6.1608358878134214e-07 0.0000000000000000e+00  -1.0038490777962084e-05 -4.8119737488787640e-07 0.0000000000000000e+00  -2.3004472082612140e-05 -6.1520726073558165e-07 0.0000000000000000e+00  -7.8515853503572047e-06 -3.8392678226453876e-07 0.0000000000000000e+00  -1.1499144148123823e-05 -5.6391253006114079e-07 0.0000000000000000e+00  -2.1021167791181066e-05 -6.1919465777881348e-07 0.0000000000000000e+00  -2.5070034801784530e-05 -6.1333451499349422e-07 0.0000000000000000e+00  -1.3061773296085707e-05 -5.9396248702473741e-07 0.0000000000000000e+00  -1.9117983893314183e-05 -6.2247935250307640e-07 0.0000000000000000e+00  -1.4629592100179989e-05 -5.7528263848043162e-07 0.0000000000000000e+00  -1.7328566575939252e-05 -6.5712456202569927e-07 0.0000000000000000e+00  -1.5906460649505736e-05 -6.1855293006760480e-07 0.0000000000000000e+00  -8.8789636415883565e-06 -4.7927115013733810e-07 0.0000000000000000e+00  -3.6192449974671939e-05 -6.7517874175820913e-07 0.0000000000000000e+00  -4.4148955626054114e-06 -1.9778171353368635e-07 0.0000000000000000e+00  -3.9382713424796958e-05 -4.1856542518190824e-08 0.0000000000000000e+00  -2.0952426691576489e-06 1.1948002204916752e-06 0.0000000000000000e+00  -3.0613861693662082e-05 3.1713529652957589e-08 0.0000000000000000e+00  -3.2987367411702903e-05 -5.3273976486894073e-09 0.0000000000000000e+00  -3.0356286386442280e-06 -1.2517741416964239e-06 0.0000000000000000e+00  -5.9491101602562706e-06 -1.2130689597681543e-06 0.0000000000000000e+00  -2.4028432154683879e-05 1.0329021940930467e-07 0.0000000000000000e+00  -2.8331100192200033e-05 6.0891315387826135e-08 0.0000000000000000e+00  -1.0737552604687828e-05 -1.3904014469256759e-06 0.0000000000000000e+00  -2.2003850431587953e-05 1.1828701207669072e-07 0.0000000000000000e+00  -7.2282338348868793e-06 -1.2783349189374896e-06 0.0000000000000000e+00  -1.2267113600547005e-05 -1.4111466394661932e-06 0.0000000000000000e+00  -2.0061086554523731e-05 1.3223812693718688e-07 0.0000000000000000e+00  -2.6136977888568164e-05 8.4450092810033352e-08 0.0000000000000000e+00  -1.3858356269121655e-05 -1.5978183742182320e-06 0.0000000000000000e+00  -1.8197287334919799e-05 1.4751485471297202e-07 0.0000000000000000e+00  -1.2398357339535106e-06 -7.2907556600884929e-07 0.0000000000000000e+00  -1.2125160054183701e-06 6.4176955298171280e-07 0.0000000000000000e+00  -4.1741105333371554e-05 -1.2300966912413850e-06 0.0000000000000