<?xml version="1.0"?>
<VTKFile type="UnstructuredGrid"  version="0.1"  >
<UnstructuredGrid>
<Piece  NumberOfPoints="1419" NumberOfCells="2698">
<Points>
<DataArray  type="Float64"  NumberOfComponents="3"  format="ascii">0 0 0  0 0.41 0  2.5 0 0  2.5 0.41 0  0.6 0.19 0  0.6 0.21 0  0.25 0.2 0  0.15 0.2 0  0.2489897948556636 0.21 0  0.2489897948556636 0.19 0  0.6 0.2 0  0 0.3807142857143437 0  0 0.3514285714286952 0  0 0.3221428571430699 0  0 0.29285714285744 0  0 0.2635714285718054 0  0 0.2342857142861561 0  0 0.2050000000005308 0  0 0.175714285714732 0  0 0.1464285714289574 0  0 0.1171428571431897 0  0 0.08785714285737878 0  0 0.05857142857161107 0  0 0.02928571428580012 0  0.03015443760436003 0 0  0.06140001986583606 0 0  0.09377624077125973 0 0  0.1273239957535082 0 0  0.1620856860351972 0 0  0.1981052433264291 0 0  0.235428184091502 0 0  0.2741016576309132 0 0  0.3141745521465447 0 0  0.3556974926295285 0 0  0.3987229542472677 0 0  0.4433053055141081 0 0  0.4895008759286886 0 0  0.5373680609405097 0 0  0.5869673343216626 0 0  0.6383613676634521 0 0  0.6916151138468254 0 0  0.7467958595648856 0 0  0.8039733463919316 0 0  0.8632198139502143 0 0  0.9246101326867038 0 0  0.9882218810934433 0 0  1.054135445558498 0 0  1.122434100542598 0 0  1.193204177141305 0 0  1.266535089879536 0 0  1.342519516046404 0 0  1.421253448503939 0 0  1.502836389106271 0 0  1.587371439758838 0 0  1.674965418777374 0 0  1.765729001825544 0 0  1.859776908880082 0 0  1.957227977487062 0 0  2.058205329869943 0 0  2.162836591189951 0 0  2.271253957290865 0 0  2.383594446803425 0 0  2.5 0.1024999999997612 0  2.5 0.2049999999994743 0  2.5 0.3074999999997183 0  2.383594446803656 0.41 0  2.271253957291315 0.41 0  2.162836591190598 0.41 0  2.058205329870775 0.41 0  1.957227977488067 0.41 0  1.859776908881246 0.41 0  1.765729001826854 0.41 0  1.674965418778818 0.41 0  1.58737143976041 0.41 0  1.502836389107956 0.41 0  1.421253448505726 0.41 0  1.342519516048286 0.41 0  1.266535089881505 0.41 0  1.193204177143353 0.41 0  1.122434100544716 0.41 0  1.05413544556068 0.41 0  0.9882218810956305 0.41 0  0.9246101326886647 0.41 0  0.8632198139519631 0.41 0  0.8039733463934788 0.41 0  0.7467958595662458 0.41 0  0.6916151138480078 0.41 0  0.6383613676644679 0.41 0  0.5869673343225223 0.41 0  0.5373680609412221 0.41 0  0.4895008759292634 0.41 0  0.4433053055145528 0.41 0  0.3987229542475914 0.41 0  0.3556974926297398 0.41 0  0.3141745521466497 0.41 0  0.2741016576310038 0.41 0  0.2354281840915826 0.41 0  0.1981052433265003 0.41 0  0.1620856860352591 0.41 0  0.1273239957535623 0.41 0  0.09377624077128965 0.41 0  0.06140001986584975 0.41 0  0.03015443760436654 0.41 0  0.2497468076502589 0.2050254481002335 0  0.2497468076502614 0.1949745518997913 0  0.2469965252529372 0.1829317073451959 0  0.2439893735792749 0.1762316384219906 0  0.2400332147834255 0.1700443375285386 0  0.2352133972704371 0.1645032867342007 0  0.2296339016332438 0.1597280261969788 0  0.2234150974217223 0.1558215752574715 0  0.2166911463437691 0.1528682099456123 0  0.2096071079204251 0.1509316448471593 0  0.2023158100364996 0.1500536585536553 0  0.194974551899914 0.1502531923497262 0  0.1877417105387872 0.1515259415822739 0  0.1807733240461124 0.153844448527136 0  0.1742197252835808 0.15715869474974 0  0.1682222986673531 0.1613971801805478 0  0.162910430003803 0.1664684656256651 0  0.1583987151779087 0.1722631454351573 0  0.1547844879126891 0.178656207771761 0  0.1521457199348551 0.1855097315605723 0  0.1505393388476355 0.1926758619366523 0  0.1505393388476328 0.2073241380633295 0  0.1521457199348437 0.2144902684393899 0  0.1547844879126531 0.221343792228163 0  0.1583987151778488 0.2277368545647528 0  0.1629104300036858 0.2335315343742052 0  0.1682222986671726 0.2386028198193036 0  0.1742197252833576 0.2428413052501257 0  0.1807733240458683 0.2461555514727623 0  0.1877417105384929 0.2484740584176516 0  0.1949745518995776 0.2497468076502398 0  0.202315810036185 0.2499463414463592 0  0.2096071079201568 0.2490683551528932 0  0.2166911463435495 0.2471317900544655 0  0.2234150974215506 0.2441784247426195 0  0.2296339016331197 0.2402719738031125 0  0.2352133972703547 0.2354967132658811 0  0.2400332147833751 0.2299556624715287 0  0.2439893735792577 0.2237683615780412 0  0.246996525252926 0.2170682926548348 0  0.25645809709277 0.21 0  0.2639263993298655 0.21 0  0.271394701566961 0.21 0  0.2788630038040554 0.21 0  0.2863313060411479 0.21 0  0.2937996082782405 0.21 0  0.301267910515333 0.21 0  0.3087362127524279 0.21 0  0.3162045149895234 0.21 0  0.3236728172265972 0.21 0  0.3311411194636928 0.21 0  0.3386094217007701 0.21 0  0.3460777239378666 0.21 0  0.3535460261749672 0.21 0  0.3610143284120516 0.21 0  0.3684826306491596 0.21 0  0.3759509328862226 0.21 0  0.383419235123329 0.21 0  0.3908875373604028 0.21 0  0.3983558395975142 0.21 0  0.4058241418345938 0.21 0  0.4132924440716992 0.21 0  0.4207607463087888 0.21 0  0.4282290485459029 0.21 0  0.4356973507830418 0.21 0  0.4431656530201649 0.21 0  0.4506339552573136 0.21 0  0.4581022574944306 0.21 0  0.4655705597315852 0.21 0  0.4730388619686996 0.21 0  0.480507164205851 0.21 0  0.4879754664429498 0.21 0  0.4954437686800938 0.21 0  0.502912070917267 0.21 0  0.5103803731544119 0.21 0  0.5178486753915261 0.21 0  0.5253169776286404 0.21 0  0.5327852798657868 0.21 0  0.5402535821029386 0.21 0  0.54772188434007 0.21 0  0.5551901865771842 0.21 0  0.5626584888143201 0.21 0  0.5701267910514778 0.21 0  0.5775950932886138 0.21 0  0.5850633955257281 0.21 0  0.5925316977628483 0.21 0  0.6 0.2050000000000054 0  0.6 0.1950000000000217 0  0.5925316977628897 0.19 0  0.5850633955257988 0.19 0  0.5775950932887378 0.19 0  0.5701267910515998 0.19 0  0.5626584888145268 0.19 0  0.5551901865773963 0.19 0  0.547721884340339 0.19 0  0.5402535821032429 0.19 0  0.5327852798661811 0.19 0  0.5253169776290537 0.19 0  0.5178486753919799 0.19 0  0.5103803731549078 0.19 0  0.502912070917822 0.19 0  0.4954437686807294 0.19 0  0.4879754664436223 0.19 0  0.4805071642065402 0.19 0  0.4730388619694271 0.19 0  0.4655705597323621 0.19 0  0.4581022574952563 0.19 0  0.4506339552581777 0.19 0  0.4431656530210671 0.19 0  0.4356973507839815 0.19 0  0.4282290485468779 0.19 0  0.4207607463097617 0.19 0  0.4132924440726327 0.19 0  0.4058241418354857 0.19 0  0.3983558395983636 0.19 0  0.3908875373612097 0.19 0  0.3834192351240934 0.19 0  0.3759509328869369 0.19 0  0.3684826306498175 0.19 0  0.361014328412667 0.19 0  0.3535460261755617 0.19 0  0.3460777239384295 0.19 0  0.3386094217012945 0.19 0  0.3311411194641595 0.19 0  0.3236728172270245 0.19 0  0.3162045149898895 0.19 0  0.3087362127527544 0.19 0  0.3012679105156187 0.19 0  0.2937996082784807 0.19 0  0.2863313060413428 0.19 0  0.2788630038042048 0.19 0  0.2713947015670686 0.19 0  0.2639263993299336 0.19 0  0.2564580970927985 0.19 0  0.2607803159922026 0.2000727136295815 0  0.5887803774232762 0.2001272386983733 0  0.5745072403740523 0.2002044435018727 0  0.5511891430099709 0.2001122610077113 0  0.2751288526855082 0.20000000000002 0  0.5365194309847112 0.1999999999999436 0  0.2894621222999649 0.1998691686390484 0  0.5215828265105155 0.1999999999999228 0  0.3127789816668748 0.1998657885438805 0  0.3274069683451451 0.2000000000000796 0  0.5066462220363641 0.199999999999908 0  0.3650630746574081 0.199866017807523 0  0.476773013087985 0.1999999999998713 0  0.3417402379596385 0.1998691686391011 0  0.3796850840047755 0.200000000000134 0  0.4618364086138087 0.1999999999998546 0  0.4917096175621762 0.1999999999998808 0  0.3946216884789568 0.2000000000001512 0  0.446899804139621 0.1999999999998389 0  0.4089549580935208 0.1998691686391595 0  0.4322718174608562 0.200127451265745 0  0.4201487168029707 0.1999966199048527 0  0.3528922713220932 0.2000185703532356 0  0.5633122436674589 0.1999814296467508 0  0.3006558810093873 0.1999966199048318 0  0.5815926498168407 0.1966545283159175 0  0.2677053789419034 0.1964246479135325 0  0.5290511287476175 0.1970915826863981 0  0.5439877332217911 0.197091582686394 0  0.2825131256993216 0.2035478995978015 0  0.3199386661080599 0.202908417313604 0  0.4842413153250809 0.1970915826863873 0  0.5141145242734466 0.1970915826863843 0  0.3722167817676917 0.2029084173136195 0  0.4693047108508938 0.1970915826863783 0  0.3348752705822316 0.202908417313609 0  0.3871533862418661 0.2029084173136212 0  0.4543681063767183 0.1970915826863795 0  0.4991779197992749 0.1970915826863902 0  0.4020059614928624 0.203547899597858 0  0.4394315019025246 0.1970915826863714 0  0.2550657455369551 0.2034088125358657 0  0.2548908499171161 0.1966940311614271 0  0.5946539510196798 0.2024302972968126 0  0.267698176732111 0.2039977513680092 0  0.4261685417851465 0.196409292431739 0  0.3590076176283495 0.196411355804271 0  0.5571672426447437 0.2036011176410121 0  0.3066757059912147 0.1964092924317024 0  0.594380730180568 0.1966558399668133 0  0.4842413153245942 0.2040749161535287 0  0.4693047108503577 0.2040749161535231 0  0.3871533862424271 0.1959250838464788 0  0.372246743208829 0.1959123236376545 0  0.5141145242731028 0.2040749161535395 0  0.4543681063761134 0.2040749161535186 0  0.4019979587101454 0.1959834479682427 0  0.4394608940728603 0.2040870543693135 0  0.5439623148931173 0.2040856076781014 0  0.5290511287473298 0.2040749161535501 0  0.4991779197988497 0.2040749161535382 0  0.3347912413592433 0.1959225448935183 0  0.3199680582793816 0.1959123018030061 0  0.2825051229162361 0.1959834479681729 0  0.3590471196690275 0.2036304442587945 0  0.5571594006495384 0.1963685282145804 0  0.3067669986803285 0.203627750582736 0  0.4262598344738712 0.2036568242185335 0  0.5814408164431408 0.2041285596160068 0  0.5688286748170428 0.1961819304477386 0  0.4145905603063645 0.2038180695522843 0  0.3473758401724931 0.2038180695522752 0  0.2950977245128307 0.2038180695522663 0  0.5688286748170693 0.203818069552238 0  0.2950977245127906 0.1961819304477774 0  0.3473758401723931 0.1961819304478349 0  0.4145905603061963 0.1961819304479011 0  0.2601812407614425 0.2056861609747042
[...]
<PointData  Vectors="f_40-0"> 
<DataArray  type="Float64"  Name="f_40-0"  NumberOfComponents="3" format="ascii">0.0000000000000000e+00 0.0000000000000000e+00 0.0000000000000000e+00  0.0000000000000000e+00 0.0000000000000000e+00 0.0000000000000000e+00  0.0000000000000000e+00 0.0000000000000000e+00 0.0000000000000000e+00  0.0000000000000000e+00 0.0000000000000000e+00 0.0000000000000000e+00  -3.5507878165928278e-05 -1.1679906803206646e-03 0.0000000000000000e+00  4.9915356754580195e-05 -1.1673780992433578e-03 0.0000000000000000e+00  0.0000000000000000e+00 0.0000000000000000e+00 0.0000000000000000e+00  0.0000000000000000e+00 0.0000000000000000e+00 0.0000000000000000e+00  0.0000000000000000e+00 0.0000000000000000e+00 0.0000000000000000e+00  0.0000000000000000e+00 0.0000000000000000e+00 0.0000000000000000e+00  7.2073309567743758e-06 -1.1676992500248898e-03 0.0000000000000000e+00  7.9591836734548405e-01 0.0000000000000000e+00 0.0000000000000000e+00  1.4693877550994523e+00 0.0000000000000000e+00 0.0000000000000000e+00  2.0204081632617479e+00 0.0000000000000000e+00 0.0000000000000000e+00  2.4489795918330071e+00 0.0000000000000000e+00 0.0000000000000000e+00  2.7551020408131754e+00 0.0000000000000000e+00 0.0000000000000000e+00  2.9387755102022344e+00 0.0000000000000000e+00 0.0000000000000000e+00  3.0000000000000004e+00 0.0000000000000000e+00 0.0000000000000000e+00  2.9387755102059474e+00 0.0000000000000000e+00 0.0000000000000000e+00  2.7551020408195543e+00 0.0000000000000000e+00 0.0000000000000000e+00  2.4489795918409065e+00 0.0000000000000000e+00 0.0000000000000000e+00  2.0204081632692521e+00 0.0000000000000000e+00 0.0000000000000000e+00  1.4693877551058563e+00 0.0000000000000000e+00 0.0000000000000000e+00  7.9591836734909216e-01 0.0000000000000000e+00 0.0000000000000000e+00  0.0000000000000000e+00 0.0000000000000000e+00 0.0000000000000000e+00  0.0000000000000000e+00 0.0000000000000000e+00 0.0000000000000000e+00  0.0000000000000000e+00 0.0000000000000000e+00 0.0000000000000000e+00  0.0000000000000000e+00 0.0000000000000000e+00 0.0000000000000000e+00  0.0000000000000000e+00 0.0000000000000000e+00 0.0000000000000000e+00  0.0000000000000000e+00 0.0000000000000000e+00 0.0000000000000000e+00  0.0000000000000000e+00 0.0000000000000000e+00 0.0000000000000000e+00  0.0000000000000000e+00 0.0000000000000000e+00 0.0000000000000000e+00  0.0000000000000000e+00 0.0000000000000000e+00 0.0000000000000000e+00  0.0000000000000000e+00 0.0000000000000000e+00 0.0000000000000000e+00  0.0000000000000000e+00 0.0000000000000000e+00 0.0000000000000000e+00  0.0000000000000000e+00 0.0000000000000000e+00 0.0000000000000000e+00  0.0000000000000000e+00 0.0000000000000000e+00 0.0000000000000000e+00  0.0000000000000000e+00 0.0000000000000000e+00 0.0000000000000000e+00  0.0000000000000000e+00 0.0000000000000000e+00 0.0000000000000000e+00  0.0000000000000000e+00 0.0000000000000000e+00 0.0000000000000000e+00  0.0000000000000000e+00 0.0000000000000000e+00 0.0000000000000000e+00  0.0000000000000000e+00 0.0000000000000000e+00 0.0000000000000000e+00  0.0000000000000000e+00 0.0000000000000000e+00 0.0000000000000000e+00  0.0000000000000000e+00 0.0000000000000000e+00 0.0000000000000000e+00  0.0000000000000000e+00 0.0000000000000000e+00 0.0000000000000000e+00  0.0000000000000000e+00 0.0000000000000000e+00 0.0000000000000000e+00  0.0000000000000000e+00 0.0000000000000000e+00 0.0000000000000000e+00  0.0000000000000000e+00 0.0000000000000000e+00 0.0000000000000000e+00  0.0000000000000000e+00 0.0000000000000000e+00 0.0000000000000000e+00  0.0000000000000000e+00 0.0000000000000000e+00 0.0000000000000000e+00  0.0000000000000000e+00 0.0000000000000000e+00 0.0000000000000000e+00  0.0000000000000000e+00 0.0000000000000000e+00 0.0000000000000000e+00  0.0000000000000000e+00 0.0000000000000000e+00 0.0000000000000000e+00  0.0000000000000000e+00 0.0000000000000000e+00 0.0000000000000000e+00  0.0000000000000000e+00 0.0000000000000000e+00 0.0000000000000000e+00  0.0000000000000000e+00 0.0000000000000000e+00 0.0000000000000000e+00  0.0000000000000000e+00 0.0000000000000000e+00 0.0000000000000000e+00  0.0000000000000000e+00 0.0000000000000000e+00 0.0000000000000000e+00  0.0000000000000000e+00 0.0000000000000000e+00 0.0000000000000000e+00  0.0000000000000000e+00 0.0000000000000000e+00 0.0000000000000000e+00  0.0000000000000000e+00 0.0000000000000000e+00 0.0000000000000000e+00  0.0000000000000000e+00 0.0000000000000000e+00 0.0000000000000000e+00  2.5842209460496517e+00 3.7657418606725484e-03 0.0000000000000000e+00  2.5097200772598982e+00 9.7692071923002072e-03 0.0000000000000000e+00  2.7406803335597294e+00 5.4590429800386038e-02 0.0000000000000000e+00  0.0000000000000000e+00 0.0000000000000000e+00 0.0000000000000000e+00  0.0000000000000000e+00 0.0000000000000000e+00 0.0000000000000000e+00  0.0000000000000000e+00 0.0000000000000000e+00 0.0000000000000000e+00  0.0000000000000000e+00 0.0000000000000000e+00 0.0000000000000000e+00  0.0000000000000000e+00 0.0000000000000000e+00 0.0000000000000000e+00  0.0000000000000000e+00 0.0000000000000000e+00 0.0000000000000000e+00  0.0000000000000000e+00 0.0000000000000000e+00 0.0000000000000000e+00  0.0000000000000000e+00 0.0000000000000000e+00 0.0000000000000000e+00  0.0000000000000000e+00 0.0000000000000000e+00 0.0000000000000000e+00  0.0000000000000000e+00 0.0000000000000000e+00 0.0000000000000000e+00  0.0000000000000000e+00 0.0000000000000000e+00 0.0000000000000000e+00  0.0000000000000000e+00 0.0000000000000000e+00 0.0000000000000000e+00  0.0000000000000000e+00 0.0000000000000000e+00 0.0000000000000000e+00  0.0000000000000000e+00 0.0000000000000000e+00 0.0000000000000000e+00  0.0000000000000000e+00 0.0000000000000000e+00 0.0000000000000000e+00  0.0000000000000000e+00 0.0000000000000000e+00 0.0000000000000000e+00  0.0000000000000000e+00 0.0000000000000000e+00 0.0000000000000000e+00  0.0000000000000000e+00 0.0000000000000000e+00 0.0000000000000000e+00  0.0000000000000000e+00 0.0000000000000000e+00 0.0000000000000000e+00  0.0000000000000000e+00 0.0000000000000000e+00 0.0000000000000000e+00  0.0000000000000000e+00 0.0000000000000000e+00 0.0000000000000000e+00  0.0000000000000000e+00 0.0000000000000000e+00 0.0000000000000000e+00  0.0000000000000000e+00 0.0000000000000000e+00 0.0000000000000000e+00  0.0000000000000000e+00 0.0000000000000000e+00 0.0000000000000000e+00  0.0000000000000000e+00 0.0000000000000000e+00 0.0000000000000000e+00  0.0000000000000000e+00 0.0000000000000000e+00 0.0000000000000000e+00  0.0000000000000000e+00 0.0000000000000000e+00 0.0000000000000000e+00  0.0000000000000000e+00 0.0000000000000000e+00 0.0000000000000000e+00  0.0000000000000000e+00 0.0000000000000000e+00 0.0000000000000000e+00  0.0000000000000000e+00 0.0000000000000000e+00 0.0000000000000000e+00  0.0000000000000000e+00 0.0000000000000000e+00 0.0000000000000000e+00  0.0000000000000000e+00 0.0000000000000000e+00 0.0000000000000000e+00  0.0000000000000000e+00 0.0000000000000000e+00 0.0000000000000000e+00  0.0000000000000000e+00 0.0000000000000000e+00 0.0000000000000000e+00  0.0000000000000000e+00 0.0000000000000000e+00 0.0000000000000000e+00  0.0000000000000000e+00 0.0000000000000000e+00 0.0000000000000000e+00  0.0000000000000000e+00 0.0000000000000000e+00 0.0000000000000000e+00  0.0000000000000000e+00 0.0000000000000000e+00 0.0000000000000000e+00  0.0000000000000000e+00 0.0000000000000000e+00 0.0000000000000000e+00  0.0000000000000000e+00 0.0000000000000000e+00 0.0000000000000000e+00  0.0000000000000000e+00 0.0000000000000000e+00 0.0000000000000000e+00  0.0000000000000000e+00 0.0000000000000000e+00 0.0000000000000000e+00  0.0000000000000000e+00 0.0000000000000000e+00 0.0000000000000000e+00  0.0000000000000000e+00 0.0000000000000000e+00 0.0000000000000000e+00  0.0000000000000000e+00 0.0000000000000000e+00 0.0000000000000000e+00  0.0000000000000000e+00 0.0000000000000000e+00 0.0000000000000000e+00  0.0000000000000000e+00 0.0000000000000000e+00 0.0000000000000000e+00  0.0000000000000000e+00 0.0000000000000000e+00 0.0000000000000000e+00  0.0000000000000000e+00 0.0000000000000000e+00 0.0000000000000000e+00  0.0000000000000000e+00 0.0000000000000000e+00 0.0000000000000000e+00  0.0000000000000000e+00 0.0000000000000000e+00 0.0000000000000000e+00  0.0000000000000000e+00 0.0000000000000000e+00 0.0000000000000000e+00  0.0000000000000000e+00 0.0000000000000000e+00 0.0000000000000000e+00  0.0000000000000000e+00 0.0000000000000000e+00 0.0000000000000000e+00  0.0000000000000000e+00 0.0000000000000000e+00 0.0000000000000000e+00  0.0000000000000000e+00 0.0000000000000000e+00 0.0000000000000000e+00  0.0000000000000000e+00 0.0000000000000000e+00 0.0000000000000000e+00  0.0000000000000000e+00 0.0000000000000000e+00 0.0000000000000000e+00  0.0000000000000000e+00 0.0000000000000000e+00 0.0000000000000000e+00  0.0000000000000000e+00 0.0000000000000000e+00 0.0000000000000000e+00  0.0000000000000000e+00 0.0000000000000000e+00 0.0000000000000000e+00  0.0000000000000000e+00 0.0000000000000000e+00 0.0000000000000000e+00  0.0000000000000000e+00 0.0000000000000000e+00 0.0000000000000000e+00  0.0000000000000000e+00 0.0000000000000000e+00 0.0000000000000000e+00  0.0000000000000000e+00 0.0000000000000000e+00 0.0000000000000000e+00  0.0000000000000000e+00 0.0000000000000000e+00 0.0000000000000000e+00  0.0000000000000000e+00 0.0000000000000000e+00 0.0000000000000000e+00  0.0000000000000000e+00 0.0000000000000000e+00 0.0000000000000000e+00  0.0000000000000000e+00 0.0000000000000000e+00 0.0000000000000000e+00  0.0000000000000000e+00 0.0000000000000000e+00 0.0000000000000000e+00  0.0000000000000000e+00 0.0000000000000000e+00 0.0000000000000000e+00  0.0000000000000000e+00 0.0000000000000000e+00 0.0000000000000000e+00  0.0000000000000000e+00 0.0000000000000000e+00 0.0000000000000000e+00  0.0000000000000000e+00 0.0000000000000000e+00 0.0000000000000000e+00  0.0000000000000000e+00 0.0000000000000000e+00 0.0000000000000000e+00  0.0000000000000000e+00 0.0000000000000000e+00 0.0000000000000000e+00  0.0000000000000000e+00 0.0000000000000000e+00 0.0000000000000000e+00  0.0000000000000000e+00 0.0000000000000000e+00 0.0000000000000000e+00  2.6793590966151149e-06 -2.2465561854942848e-06 0.0000000000000000e+00  5.6929531696668667e-06 -5.5549884435094368e-06 0.0000000000000000e+00  8.2973644519750690e-06 -1.0934957474876727e-05 0.0000000000000000e+00  1.1097225232009271e-05 -1.8487166080956501e-05 0.0000000000000000e+00  1.3386225795389820e-05 -2.7821274894510895e-05 0.0000000000000000e+00  1.5979534291091293e-05 -3.9090754937214556e-05 0.0000000000000000e+00  1.8020390474016416e-05 -5.1776318639535513e-05 0.0000000000000000e+00  1.9980859487341153e-05 -6.6302796712725486e-05 0.0000000000000000e+00  2.2230121159977347e-05 -8.2200677463311705e-05 0.0000000000000000e+00  2.3904302649179074e-05 -9.9513613317837117e-05 0.0000000000000000e+00  2.5948355669723998e-05 -1.1819360464959306e-04 0.0000000000000000e+00  2.7450991143193905e-05 -1.3811384139540868e-04 0.0000000000000000e+00  2.9218522397404432e-05 -1.5921166716048222e-04 0.0000000000000000e+00  3.0599392622961937e-05 -1.8125125103638916e-04 0.0000000000000000e+00  3.1921477421609043e-05 -2.0443487705468159e-04 0.0000000000000000e+00  3.3404607360023549e-05 -2.2846006842395828e-04 0.0000000000000000e+00  3.4519269034290789e-05 -2.5334347429305953e-04 0.0000000000000000e+00  3.5831673277941696e-05 -2.7904184946182635e-04 0.0000000000000000e+00  3.6806960827828826e-05 -3.0545495006689628e-04 0.0000000000000000e+00  3.7929959295485044e-05 -3.3252287918344959e-04 0.0000000000000000e+00  3.8820555837031998e-05 -3.6020852717566899e-04 0.0000000000000000e+00  3.9777011005987783e-05 -3.8847061381730571e-04 0.0000000000000000e+00  4.0546713508354140e-05 -4.1714613786802892e-04 0.0000000000000000e+00  4.1271602858097893e-05 -4.4634050288548904e-04 0.0000000000000000e+00  4.2040604951453369e-05 -4.7587210316775094e-04 0.0000000000000000e+00  4.2681906503015915e-05 -5.0579116126501969e-04 0.0000000000000000e+00  4.3307866501373688e-05 -5.3603189722976929e-04 0.0000000000000000e+00  4.3860691971327321e-05 -5.6653073115187254e-04 0.0000000000000000e+00  4.4395374090985536e-05 -5.9728911973219701e-04 0.0000000000000000e+00  4.4870930328063707e-05 -6.2824054050713033e-04 0.0000000000000000e+00  4.5328449685242213e-05 -6.5938808020360332e-04 0.0000000000000000e+00  4.5738396530664466e-05 -6.9067518625630202e-04 0.0000000000000000e+00  4.6131678447401018e-05 -7.2210449662812122e-04 0.0000000000000000e+00  4.6487733941577907e-05 -7.5363010910305453e-04 0.0000000000000000e+00  4.6829091220895585e-05 -7.8525441095969909e-04 0.0000000000000000e+00  4.7142525985557813e-05 -8.1694143900166646e-04 0.0000000000000000e+00  4.7443758013465818e-05 -8.4869302902029113e-04 0.0000000000000000e+00  4.7724953715712096e-05 -8.8048238413608376e-04 0.0000000000000000e+00  4.7996667431412824e-05 -9.1231100584129355e-04 0.0000000000000000e+00  4.8255023651039614e-05 -9.4416007868277263e-04 0.0000000000000000e+00  4.8507311174007983e-05 -9.7603164730433332e-04 0.0000000000000000e+00  4.8750460723371332e-05 -1.0079122196611646e-03 0.0000000000000000e+00  4.8988440495046152e-05 -1.0398016076637732e-03 0.0000000000000000e+00  4.9224998522890757e-05 -1.0716956491093554e-03 0.0000000000000000e+00  4.9457727448622496e-05 -1.1035935355627555e-03 0.0000000000000000e+00  4.9688824652170521e-05 -1.1354923651103158e-03 0.0000000000000000e+00  2.8562936871713694e-05 -1.1675461458325977e-03 0.0000000000000000e+00  -1.4149663217709300e-05 -1.1678531760320157e-03 0.0000000000000000e+00  -3.5736288935393641e-05 -1.1361051503072652e-03 0.0000000000000000e+00  -3.5962023321963215e-05 -1.1042056801001791e-03 0.0000000000000000e+00  -3.6186517364597590e-05 -1.0723086034688716e-03 0.0000000000000000e+00  -3.6406081319036605e-05 -1.0404140636127480e-03 0.0000000000000000e+00  -3.6623777958197094e-05 -1.0085243260286633e-03 0.0000000000000000e+00  -3.6836186236412249e-05 -9.7664284182908258e-04 0.0000000000000000e+00  -3.7037918924074493e-05 -9.4477222010507899e-04 0.0000000000000000e+00  -3.7237199939565016e-05 -9.1292117184005816e-04 0.0000000000000000e+00  -3.7415350634012852e-05 -8.8109205204893709e-04 0.0000000000000000e+00  -3.7593461308458830e-05 -8.4930044444668886e-04 0.0000000000000000e+00  -3.7738401312611679e-05 -8.1754809232509708e-04 0.0000000000000000e+00  -3.7885984446085239e-05 -7.8585770216917192e-04 0.0000000000000000e+00  -3.7984858042362436e-05 -7.5423198613659139e-04 0.0000000000000000e+00  -3.8091229785774323e-05 -7.2270147248959917e-04 0.0000000000000000e+00  -3.8129513132659261e-05 -6.9126971472463245e-04 0.0000000000000000e+00  -3.8182659315587723e-05 -6.5997593213150939e-04 0.0000000000000000e+00  -3.8144383288192817e-05 -6.2882448132784243e-04 0.0000000000000000e+00  -3.8131284546061712e-05 -5.9786386703352811e-04 0.0000000000000000e+00  -3.7999159881060444e-05 -5.6709933410610265e-04 0.0000000000000000e+00  -3.7905733570160742e-05 -5.3658834781133470e-04 0.0000000000000000e+00  -3.7658104749258622e-05 -5.0633968036253982e-04 0.0000000000000000e+00  -3.7465127649470612e-05 -4.7642141289676380e-04 0.0000000000000000e+00  -3.7089398409308254e-05 -4.4685315926435982e-04 0.0000000000000000e+00  -3.6758026332365571e-05 -4.1765204345557173e-04 0.0000000000000000e+00  -3.6366358237051470e-05 -3.8896714335385314e-04 0.0000000000000000e+00  -3.5792902918234150e-05 -3.6067112641399165e-04 0.0000000000000000e+00  -3.5227392431433588e-05 -3.3299253537568476e-04 0.0000000000000000e+00  -3.4505897288055546e-05 -3.0586924024341951e-04 0.0000000000000000e+00  -3.3768118825024242e-05 -2.7945108267202640e-04 0.0000000000000000e+00  -3.2866099181480737e-05 -2.5371872171174950e-04 0.0000000000000000e+00  -3.1946528197360865e-05 -2.2877890941389603e-04 0.0000000000000000e+00  -3.0745837012085718e-05 -2.0477701363167078e-04 0.0000000000000000e+00  -2.9673115926286659e-05 -1.8155382365928145e-04 0.0000000000000000e+00  -2.8508093471858931e-05 -1.5950261938945187e-04 0.0000000000000000e+00  -2.6994572240516399e-05 -1.3829597884902715e-04 0.0000000000000000e+00  -2.5526028996546303e-05 -1.1839307675021979e-04 0.0000000000000000e+00  -2.3808637258106049e-05 -9.9666035350064189e-05 0.0000000000000000e+00  -2.2103259837052589e-05 -8.2268818082896326e-05 0.0000000000000000e+00  -1.9978766485618134e-05 -6.6421649564327056e-05 0.0000000000000000e+00  -1.8089964588602544e-05 -5.1842826970954744e-05 0.0000000000000000e+00  -1.6096441229434110e-05 -3.9134928280046413e-05 0.0000000000000000e+00  -1.3574490280704816e-05 -2.7783245426776739e-05 0.0000000000000000e+00  -1.1215946174165183e-05 -1.8401519303106812e-05 0.0000000000000000e+00  -8.3865968470808565e-06 -1.0933148000037148e-05 0.0000000000000000e+00  -5.8069364488737072e-06 -5.5093568849741023e-06 0.0000000000000000e+00  -2.7469306950757472e-06 -2.1639508294259078e-06 0.0000000000000000e+00  -2.4778523218774584e-08 -2.3580923942614165e-06 0.0000000000000000e+00  7.4063508702468549e-06 -1.1197719832843039e-03 0.0000000000000000e+00  7.2987371792907572e-06 -1.0588051942777188e-03 0.0000000000000000e+00  6.1929543487481866e-06 -9.5924546511402711e-04 0.0000000000000000e+00  -8.5972532489140174e-08 -1.3152598283699674e-05 0.0000000000000000e+00  5.2675758044828648e-06 -8.9667669021481705e-04 0.0000000000000000e+00  -2.6272960443594273e-07 -3.1127287719430565e-05 0.0000000000000000e+00  4.8133966241452670e-06 -8.3307874788127623e-04 0.0000000000000000e+00  -2.7913670116105203e-07 -7.3802449203265821e-05 0.0000000000000000e+00  1.2378879526719934e-07 -1.0794990686191649e-04 0.0000000000000000e+00  4.3608272671274452e-06 -7.6967833180269110e-04 0.0000000000000000e+00  2.1491162992711032e-07 -2.1692063529159619e-04 0.0000000000000000e+00  3.4661673294124279e-06 -6.4397397841456350e-04 0.0000000000000000e+00  -7.6802626918981523e-08 -1.4616853231005008e-04 0.0000000000000000e+00  9.2794785666873463e-07 -2.6580037667997178e-04 0.0000000000000000e+00  3.0287393004434901e-06 -5.8201660983557687e-04 0.0000000000000000e+00  3.9110817304704126e-06 -7.0659224757938541e-04 0.0000000000000000e+00  1.2519770304251961e-06 -3.1871050984563342e-04 0.0000000000000000e+00  2.6002361003529148e-06 -5.2095543958721041e-04 0.0000000000000000e+00  1.0993755757899893e-06 -3.7186999212285489e-04 0.0000000000000000e+00  2.6999282009276722e-06 -4.6228939921599311e-04 0.0000000000000000e+00  1.8644344376643372e-06 -4.1480807992302346e-04 0.0000000000000000e+00  5.0172752611688346e-07 -1.7894149700612284e-04 0.0000000000000000e+00  6.0046645418032976e-06 -1.0110054342245412e-03 0.0000000000000000e+00  -6.4516398971231596e-08 -4.9923315057772503e-05 0.0000000000000000e+00  -7.6453309148222001e-06 -1.0891777442985564e-03 0.0000000000000000e+00  -2.6077645544988946e-06 -6.8588249113544212e-06 0.0000000000000000e+00  -7.3320449190337655e-06 -8.6495212270589102e-04 0.0000000000000000e+00  -6.9030903671593772e-06 -9.2861414794309595e-04 0.0000000000000000e+00  4.2318623203176668e-06 -2.1782101910367504e-05 0.0000000000000000e+00  6.7650144667504409e-06 -8.9961241700633332e-05 0.0000000000000000e+00  -8.4791536322230810e-06 -6.7531353501098157e-04 0.0000000000000000e+00  -7.7426819636774878e-06 -8.0144232988891737e-04 0.0000000000000000e+00  1.0436595095239447e-05 -2.4046183109603048e-04 0.0000000000000000e+00  -8.7863850919778136e-06 -6.1300216039092946e-04 0.0000000000000000e+00  7.8698444492062553e-06 -1.2739464591567904e-04 0.0000000000000000e+00  1.1320498065497845e-05 -2.9191555962796784e-04 0.0000000000000000e+00  -9.0390320677644910e-06 -5.5146371396580767e-04 0.0000000000000000e+00  -8.1279361133843240e-06 -7.3818456124000891e-04 0.0000000000000000e+00  1.4507755404768816e-05 -3.4581470805701949e-04 0.0000000000000000e+00  -9.2305765401389534e-06 -4.9095545956676361e-04 0.0000000000000000e+00  4.4848081909543304e-07 -5.2049662332233306e-07 0.0000000000000000e+00  -4.4899209375733546e-07 -4.5980615282497642e-07 0.0000000000000000e+00  1.7423378671951335e-05 -1.1447911961824995e-03 0.0000000000000000e+00  2.7598958835