<?xml version="1.0"?>
<VTKFile type="UnstructuredGrid"  version="0.1"  >
<UnstructuredGrid>
<Piece  NumberOfPoints="1419" NumberOfCells="2698">
<Points>
<DataArray  type="Float64"  NumberOfComponents="3"  format="ascii">0 0 0  0 0.41 0  2.5 0 0  2.5 0.41 0  0.6 0.19 0  0.6 0.21 0  0.25 0.2 0  0.15 0.2 0  0.2489897948556636 0.21 0  0.2489897948556636 0.19 0  0.6 0.2 0  0 0.3807142857143437 0  0 0.3514285714286952 0  0 0.3221428571430699 0  0 0.29285714285744 0  0 0.2635714285718054 0  0 0.2342857142861561 0  0 0.2050000000005308 0  0 0.175714285714732 0  0 0.1464285714289574 0  0 0.1171428571431897 0  0 0.08785714285737878 0  0 0.05857142857161107 0  0 0.02928571428580012 0  0.03015443760436003 0 0  0.06140001986583606 0 0  0.09377624077125973 0 0  0.1273239957535082 0 0  0.1620856860351972 0 0  0.1981052433264291 0 0  0.235428184091502 0 0  0.2741016576309132 0 0  0.3141745521465447 0 0  0.3556974926295285 0 0  0.3987229542472677 0 0  0.4433053055141081 0 0  0.4895008759286886 0 0  0.5373680609405097 0 0  0.5869673343216626 0 0  0.6383613676634521 0 0  0.6916151138468254 0 0  0.7467958595648856 0 0  0.8039733463919316 0 0  0.8632198139502143 0 0  0.9246101326867038 0 0  0.9882218810934433 0 0  1.054135445558498 0 0  1.122434100542598 0 0  1.193204177141305 0 0  1.266535089879536 0 0  1.342519516046404 0 0  1.421253448503939 0 0  1.502836389106271 0 0  1.587371439758838 0 0  1.674965418777374 0 0  1.765729001825544 0 0  1.859776908880082 0 0  1.957227977487062 0 0  2.058205329869943 0 0  2.162836591189951 0 0  2.271253957290865 0 0  2.383594446803425 0 0  2.5 0.1024999999997612 0  2.5 0.2049999999994743 0  2.5 0.3074999999997183 0  2.383594446803656 0.41 0  2.271253957291315 0.41 0  2.162836591190598 0.41 0  2.058205329870775 0.41 0  1.957227977488067 0.41 0  1.859776908881246 0.41 0  1.765729001826854 0.41 0  1.674965418778818 0.41 0  1.58737143976041 0.41 0  1.502836389107956 0.41 0  1.421253448505726 0.41 0  1.342519516048286 0.41 0  1.266535089881505 0.41 0  1.193204177143353 0.41 0  1.122434100544716 0.41 0  1.05413544556068 0.41 0  0.9882218810956305 0.41 0  0.9246101326886647 0.41 0  0.8632198139519631 0.41 0  0.8039733463934788 0.41 0  0.7467958595662458 0.41 0  0.6916151138480078 0.41 0  0.6383613676644679 0.41 0  0.5869673343225223 0.41 0  0.5373680609412221 0.41 0  0.4895008759292634 0.41 0  0.4433053055145528 0.41 0  0.3987229542475914 0.41 0  0.3556974926297398 0.41 0  0.3141745521466497 0.41 0  0.2741016576310038 0.41 0  0.2354281840915826 0.41 0  0.1981052433265003 0.41 0  0.1620856860352591 0.41 0  0.1273239957535623 0.41 0  0.09377624077128965 0.41 0  0.06140001986584975 0.41 0  0.03015443760436654 0.41 0  0.2497468076502589 0.2050254481002335 0  0.2497468076502614 0.1949745518997913 0  0.2469965252529372 0.1829317073451959 0  0.2439893735792749 0.1762316384219906 0  0.2400332147834255 0.1700443375285386 0  0.2352133972704371 0.1645032867342007 0  0.2296339016332438 0.1597280261969788 0  0.2234150974217223 0.1558215752574715 0  0.2166911463437691 0.1528682099456123 0  0.2096071079204251 0.1509316448471593 0  0.2023158100364996 0.1500536585536553 0  0.194974551899914 0.1502531923497262 0  0.1877417105387872 0.1515259415822739 0  0.1807733240461124 0.153844448527136 0  0.1742197252835808 0.15715869474974 0  0.1682222986673531 0.1613971801805478 0  0.162910430003803 0.1664684656256651 0  0.1583987151779087 0.1722631454351573 0  0.1547844879126891 0.178656207771761 0  0.1521457199348551 0.1855097315605723 0  0.1505393388476355 0.1926758619366523 0  0.1505393388476328 0.2073241380633295 0  0.1521457199348437 0.2144902684393899 0  0.1547844879126531 0.221343792228163 0  0.1583987151778488 0.2277368545647528 0  0.1629104300036858 0.2335315343742052 0  0.1682222986671726 0.2386028198193036 0  0.1742197252833576 0.2428413052501257 0  0.1807733240458683 0.2461555514727623 0  0.1877417105384929 0.2484740584176516 0  0.1949745518995776 0.2497468076502398 0  0.202315810036185 0.2499463414463592 0  0.2096071079201568 0.2490683551528932 0  0.2166911463435495 0.2471317900544655 0  0.2234150974215506 0.2441784247426195 0  0.2296339016331197 0.2402719738031125 0  0.2352133972703547 0.2354967132658811 0  0.2400332147833751 0.2299556624715287 0  0.2439893735792577 0.2237683615780412 0  0.246996525252926 0.2170682926548348 0  0.25645809709277 0.21 0  0.2639263993298655 0.21 0  0.271394701566961 0.21 0  0.2788630038040554 0.21 0  0.2863313060411479 0.21 0  0.2937996082782405 0.21 0  0.301267910515333 0.21 0  0.3087362127524279 0.21 0  0.3162045149895234 0.21 0  0.3236728172265972 0.21 0  0.3311411194636928 0.21 0  0.3386094217007701 0.21 0  0.3460777239378666 0.21 0  0.3535460261749672 0.21 0  0.3610143284120516 0.21 0  0.3684826306491596 0.21 0  0.3759509328862226 0.21 0  0.383419235123329 0.21 0  0.3908875373604028 0.21 0  0.3983558395975142 0.21 0  0.4058241418345938 0.21 0  0.4132924440716992 0.21 0  0.4207607463087888 0.21 0  0.4282290485459029 0.21 0  0.4356973507830418 0.21 0  0.4431656530201649 0.21 0  0.4506339552573136 0.21 0  0.4581022574944306 0.21 0  0.4655705597315852 0.21 0  0.4730388619686996 0.21 0  0.480507164205851 0.21 0  0.4879754664429498 0.21 0  0.4954437686800938 0.21 0  0.502912070917267 0.21 0  0.5103803731544119 0.21 0  0.5178486753915261 0.21 0  0.5253169776286404 0.21 0  0.5327852798657868 0.21 0  0.5402535821029386 0.21 0  0.54772188434007 0.21 0  0.5551901865771842 0.21 0  0.5626584888143201 0.21 0  0.5701267910514778 0.21 0  0.5775950932886138 0.21 0  0.5850633955257281 0.21 0  0.5925316977628483 0.21 0  0.6 0.2050000000000054 0  0.6 0.1950000000000217 0  0.5925316977628897 0.19 0  0.5850633955257988 0.19 0  0.5775950932887378 0.19 0  0.5701267910515998 0.19 0  0.5626584888145268 0.19 0  0.5551901865773963 0.19 0  0.547721884340339 0.19 0  0.5402535821032429 0.19 0  0.5327852798661811 0.19 0  0.5253169776290537 0.19 0  0.5178486753919799 0.19 0  0.5103803731549078 0.19 0  0.502912070917822 0.19 0  0.4954437686807294 0.19 0  0.4879754664436223 0.19 0  0.4805071642065402 0.19 0  0.4730388619694271 0.19 0  0.4655705597323621 0.19 0  0.4581022574952563 0.19 0  0.4506339552581777 0.19 0  0.4431656530210671 0.19 0  0.4356973507839815 0.19 0  0.4282290485468779 0.19 0  0.4207607463097617 0.19 0  0.4132924440726327 0.19 0  0.4058241418354857 0.19 0  0.3983558395983636 0.19 0  0.3908875373612097 0.19 0  0.3834192351240934 0.19 0  0.3759509328869369 0.19 0  0.3684826306498175 0.19 0  0.361014328412667 0.19 0  0.3535460261755617 0.19 0  0.3460777239384295 0.19 0  0.3386094217012945 0.19 0  0.3311411194641595 0.19 0  0.3236728172270245 0.19 0  0.3162045149898895 0.19 0  0.3087362127527544 0.19 0  0.3012679105156187 0.19 0  0.2937996082784807 0.19 0  0.2863313060413428 0.19 0  0.2788630038042048 0.19 0  0.2713947015670686 0.19 0  0.2639263993299336 0.19 0  0.2564580970927985 0.19 0  0.2607803159922026 0.2000727136295815 0  0.5887803774232762 0.2001272386983733 0  0.5745072403740523 0.2002044435018727 0  0.5511891430099709 0.2001122610077113 0  0.2751288526855082 0.20000000000002 0  0.5365194309847112 0.1999999999999436 0  0.2894621222999649 0.1998691686390484 0  0.5215828265105155 0.1999999999999228 0  0.3127789816668748 0.1998657885438805 0  0.3274069683451451 0.2000000000000796 0  0.5066462220363641 0.199999999999908 0  0.3650630746574081 0.199866017807523 0  0.476773013087985 0.1999999999998713 0  0.3417402379596385 0.1998691686391011 0  0.3796850840047755 0.200000000000134 0  0.4618364086138087 0.1999999999998546 0  0.4917096175621762 0.1999999999998808 0  0.3946216884789568 0.2000000000001512 0  0.446899804139621 0.1999999999998389 0  0.4089549580935208 0.1998691686391595 0  0.4322718174608562 0.200127451265745 0  0.4201487168029707 0.1999966199048527 0  0.3528922713220932 0.2000185703532356 0  0.5633122436674589 0.1999814296467508 0  0.3006558810093873 0.1999966199048318 0  0.5815926498168407 0.1966545283159175 0  0.2677053789419034 0.1964246479135325 0  0.5290511287476175 0.1970915826863981 0  0.5439877332217911 0.197091582686394 0  0.2825131256993216 0.2035478995978015 0  0.3199386661080599 0.202908417313604 0  0.4842413153250809 0.1970915826863873 0  0.5141145242734466 0.1970915826863843 0  0.3722167817676917 0.2029084173136195 0  0.4693047108508938 0.1970915826863783 0  0.3348752705822316 0.202908417313609 0  0.3871533862418661 0.2029084173136212 0  0.4543681063767183 0.1970915826863795 0  0.4991779197992749 0.1970915826863902 0  0.4020059614928624 0.203547899597858 0  0.4394315019025246 0.1970915826863714 0  0.2550657455369551 0.2034088125358657 0  0.2548908499171161 0.1966940311614271 0  0.5946539510196798 0.2024302972968126 0  0.267698176732111 0.2039977513680092 0  0.4261685417851465 0.196409292431739 0  0.3590076176283495 0.196411355804271 0  0.5571672426447437 0.2036011176410121 0  0.3066757059912147 0.1964092924317024 0  0.594380730180568 0.1966558399668133 0  0.4842413153245942 0.2040749161535287 0  0.4693047108503577 0.2040749161535231 0  0.3871533862424271 0.1959250838464788 0  0.372246743208829 0.1959123236376545 0  0.5141145242731028 0.2040749161535395 0  0.4543681063761134 0.2040749161535186 0  0.4019979587101454 0.1959834479682427 0  0.4394608940728603 0.2040870543693135 0  0.5439623148931173 0.2040856076781014 0  0.5290511287473298 0.2040749161535501 0  0.4991779197988497 0.2040749161535382 0  0.3347912413592433 0.1959225448935183 0  0.3199680582793816 0.1959123018030061 0  0.2825051229162361 0.1959834479681729 0  0.3590471196690275 0.2036304442587945 0  0.5571594006495384 0.1963685282145804 0  0.3067669986803285 0.203627750582736 0  0.4262598344738712 0.2036568242185335 0  0.5814408164431408 0.2041285596160068 0  0.5688286748170428 0.1961819304477386 0  0.4145905603063645 0.2038180695522843 0  0.3473758401724931 0.2038180695522752 0  0.2950977245128307 0.2038180695522663 0  0.5688286748170693 0.203818069552238 0  0.2950977245127906 0.1961819304477774 0  0.3473758401723931 0.1961819304478349 0  0.4145905603061963 0.1961819304479011 0  0.2601812407614425 0.2056861609747042
[...]
<PointData  Vectors="f_40-0"> 
<DataArray  type="Float64"  Name="f_40-0"  NumberOfComponents="3" format="ascii">0.0000000000000000e+00 0.0000000000000000e+00 0.0000000000000000e+00  0.0000000000000000e+00 0.0000000000000000e+00 0.0000000000000000e+00  0.0000000000000000e+00 0.0000000000000000e+00 0.0000000000000000e+00  0.0000000000000000e+00 0.0000000000000000e+00 0.0000000000000000e+00  -1.4651329060584097e-05 -4.4189756280809956e-04 0.0000000000000000e+00  1.8074269423193374e-05 -4.4172936944445119e-04 0.0000000000000000e+00  0.0000000000000000e+00 0.0000000000000000e+00 0.0000000000000000e+00  0.0000000000000000e+00 0.0000000000000000e+00 0.0000000000000000e+00  0.0000000000000000e+00 0.0000000000000000e+00 0.0000000000000000e+00  0.0000000000000000e+00 0.0000000000000000e+00 0.0000000000000000e+00  1.7129548134859541e-06 -4.4182675849784053e-04 0.0000000000000000e+00  7.9591836734548405e-01 0.0000000000000000e+00 0.0000000000000000e+00  1.4693877550994523e+00 0.0000000000000000e+00 0.0000000000000000e+00  2.0204081632617479e+00 0.0000000000000000e+00 0.0000000000000000e+00  2.4489795918330071e+00 0.0000000000000000e+00 0.0000000000000000e+00  2.7551020408131754e+00 0.0000000000000000e+00 0.0000000000000000e+00  2.9387755102022344e+00 0.0000000000000000e+00 0.0000000000000000e+00  3.0000000000000004e+00 0.0000000000000000e+00 0.0000000000000000e+00  2.9387755102059474e+00 0.0000000000000000e+00 0.0000000000000000e+00  2.7551020408195543e+00 0.0000000000000000e+00 0.0000000000000000e+00  2.4489795918409065e+00 0.0000000000000000e+00 0.0000000000000000e+00  2.0204081632692521e+00 0.0000000000000000e+00 0.0000000000000000e+00  1.4693877551058563e+00 0.0000000000000000e+00 0.0000000000000000e+00  7.9591836734909216e-01 0.0000000000000000e+00 0.0000000000000000e+00  0.0000000000000000e+00 0.0000000000000000e+00 0.0000000000000000e+00  0.0000000000000000e+00 0.0000000000000000e+00 0.0000000000000000e+00  0.0000000000000000e+00 0.0000000000000000e+00 0.0000000000000000e+00  0.0000000000000000e+00 0.0000000000000000e+00 0.0000000000000000e+00  0.0000000000000000e+00 0.0000000000000000e+00 0.0000000000000000e+00  0.0000000000000000e+00 0.0000000000000000e+00 0.0000000000000000e+00  0.0000000000000000e+00 0.0000000000000000e+00 0.0000000000000000e+00  0.0000000000000000e+00 0.0000000000000000e+00 0.0000000000000000e+00  0.0000000000000000e+00 0.0000000000000000e+00 0.0000000000000000e+00  0.0000000000000000e+00 0.0000000000000000e+00 0.0000000000000000e+00  0.0000000000000000e+00 0.0000000000000000e+00 0.0000000000000000e+00  0.0000000000000000e+00 0.0000000000000000e+00 0.0000000000000000e+00  0.0000000000000000e+00 0.0000000000000000e+00 0.0000000000000000e+00  0.0000000000000000e+00 0.0000000000000000e+00 0.0000000000000000e+00  0.0000000000000000e+00 0.0000000000000000e+00 0.0000000000000000e+00  0.0000000000000000e+00 0.0000000000000000e+00 0.0000000000000000e+00  0.0000000000000000e+00 0.0000000000000000e+00 0.0000000000000000e+00  0.0000000000000000e+00 0.0000000000000000e+00 0.0000000000000000e+00  0.0000000000000000e+00 0.0000000000000000e+00 0.0000000000000000e+00  0.0000000000000000e+00 0.0000000000000000e+00 0.0000000000000000e+00  0.0000000000000000e+00 0.0000000000000000e+00 0.0000000000000000e+00  0.0000000000000000e+00 0.0000000000000000e+00 0.0000000000000000e+00  0.0000000000000000e+00 0.0000000000000000e+00 0.0000000000000000e+00  0.0000000000000000e+00 0.0000000000000000e+00 0.0000000000000000e+00  0.0000000000000000e+00 0.0000000000000000e+00 0.0000000000000000e+00  0.0000000000000000e+00 0.0000000000000000e+00 0.0000000000000000e+00  0.0000000000000000e+00 0.0000000000000000e+00 0.0000000000000000e+00  0.0000000000000000e+00 0.0000000000000000e+00 0.0000000000000000e+00  0.0000000000000000e+00 0.0000000000000000e+00 0.0000000000000000e+00  0.0000000000000000e+00 0.0000000000000000e+00 0.0000000000000000e+00  0.0000000000000000e+00 0.0000000000000000e+00 0.0000000000000000e+00  0.0000000000000000e+00 0.0000000000000000e+00 0.0000000000000000e+00  0.0000000000000000e+00 0.0000000000000000e+00 0.0000000000000000e+00  0.0000000000000000e+00 0.0000000000000000e+00 0.0000000000000000e+00  0.0000000000000000e+00 0.0000000000000000e+00 0.0000000000000000e+00  0.0000000000000000e+00 0.0000000000000000e+00 0.0000000000000000e+00  0.0000000000000000e+00 0.0000000000000000e+00 0.0000000000000000e+00  0.0000000000000000e+00 0.0000000000000000e+00 0.0000000000000000e+00  2.6150848433452012e+00 6.7793772901797011e-03 0.0000000000000000e+00  2.4413227009594838e+00 1.2152476861795663e-02 0.0000000000000000e+00  2.7722090413914682e+00 5.8204586801247529e-02 0.0000000000000000e+00  0.0000000000000000e+00 0.0000000000000000e+00 0.0000000000000000e+00  0.0000000000000000e+00 0.0000000000000000e+00 0.0000000000000000e+00  0.0000000000000000e+00 0.0000000000000000e+00 0.0000000000000000e+00  0.0000000000000000e+00 0.0000000000000000e+00 0.0000000000000000e+00  0.0000000000000000e+00 0.0000000000000000e+00 0.0000000000000000e+00  0.0000000000000000e+00 0.0000000000000000e+00 0.0000000000000000e+00  0.0000000000000000e+00 0.0000000000000000e+00 0.0000000000000000e+00  0.0000000000000000e+00 0.0000000000000000e+00 0.0000000000000000e+00  0.0000000000000000e+00 0.0000000000000000e+00 0.0000000000000000e+00  0.0000000000000000e+00 0.0000000000000000e+00 0.0000000000000000e+00  0.0000000000000000e+00 0.0000000000000000e+00 0.0000000000000000e+00  0.0000000000000000e+00 0.0000000000000000e+00 0.0000000000000000e+00  0.0000000000000000e+00 0.0000000000000000e+00 0.0000000000000000e+00  0.0000000000000000e+00 0.0000000000000000e+00 0.0000000000000000e+00  0.0000000000000000e+00 0.0000000000000000e+00 0.0000000000000000e+00  0.0000000000000000e+00 0.0000000000000000e+00 0.0000000000000000e+00  0.0000000000000000e+00 0.0000000000000000e+00 0.0000000000000000e+00  0.0000000000000000e+00 0.0000000000000000e+00 0.0000000000000000e+00  0.0000000000000000e+00 0.0000000000000000e+00 0.0000000000000000e+00  0.0000000000000000e+00 0.0000000000000000e+00 0.0000000000000000e+00  0.0000000000000000e+00 0.0000000000000000e+00 0.0000000000000000e+00  0.0000000000000000e+00 0.0000000000000000e+00 0.0000000000000000e+00  0.0000000000000000e+00 0.0000000000000000e+00 0.0000000000000000e+00  0.0000000000000000e+00 0.0000000000000000e+00 0.0000000000000000e+00  0.0000000000000000e+00 0.0000000000000000e+00 0.0000000000000000e+00  0.0000000000000000e+00 0.0000000000000000e+00 0.0000000000000000e+00  0.0000000000000000e+00 0.0000000000000000e+00 0.0000000000000000e+00  0.0000000000000000e+00 0.0000000000000000e+00 0.0000000000000000e+00  0.0000000000000000e+00 0.0000000000000000e+00 0.0000000000000000e+00  0.0000000000000000e+00 0.0000000000000000e+00 0.0000000000000000e+00  0.0000000000000000e+00 0.0000000000000000e+00 0.0000000000000000e+00  0.0000000000000000e+00 0.0000000000000000e+00 0.0000000000000000e+00  0.0000000000000000e+00 0.0000000000000000e+00 0.0000000000000000e+00  0.0000000000000000e+00 0.0000000000000000e+00 0.0000000000000000e+00  0.0000000000000000e+00 0.0000000000000000e+00 0.0000000000000000e+00  0.0000000000000000e+00 0.0000000000000000e+00 0.0000000000000000e+00  0.0000000000000000e+00 0.0000000000000000e+00 0.0000000000000000e+00  0.0000000000000000e+00 0.0000000000000000e+00 0.0000000000000000e+00  0.0000000000000000e+00 0.0000000000000000e+00 0.0000000000000000e+00  0.0000000000000000e+00 0.0000000000000000e+00 0.0000000000000000e+00  0.0000000000000000e+00 0.0000000000000000e+00 0.0000000000000000e+00  0.0000000000000000e+00 0.0000000000000000e+00 0.0000000000000000e+00  0.0000000000000000e+00 0.0000000000000000e+00 0.0000000000000000e+00  0.0000000000000000e+00 0.0000000000000000e+00 0.0000000000000000e+00  0.0000000000000000e+00 0.0000000000000000e+00 0.0000000000000000e+00  0.0000000000000000e+00 0.0000000000000000e+00 0.0000000000000000e+00  0.0000000000000000e+00 0.0000000000000000e+00 0.0000000000000000e+00  0.0000000000000000e+00 0.0000000000000000e+00 0.0000000000000000e+00  0.0000000000000000e+00 0.0000000000000000e+00 0.0000000000000000e+00  0.0000000000000000e+00 0.0000000000000000e+00 0.0000000000000000e+00  0.0000000000000000e+00 0.0000000000000000e+00 0.0000000000000000e+00  0.0000000000000000e+00 0.0000000000000000e+00 0.0000000000000000e+00  0.0000000000000000e+00 0.0000000000000000e+00 0.0000000000000000e+00  0.0000000000000000e+00 0.0000000000000000e+00 0.0000000000000000e+00  0.0000000000000000e+00 0.0000000000000000e+00 0.0000000000000000e+00  0.0000000000000000e+00 0.0000000000000000e+00 0.0000000000000000e+00  0.0000000000000000e+00 0.0000000000000000e+00 0.0000000000000000e+00  0.0000000000000000e+00 0.0000000000000000e+00 0.0000000000000000e+00  0.0000000000000000e+00 0.0000000000000000e+00 0.0000000000000000e+00  0.0000000000000000e+00 0.0000000000000000e+00 0.0000000000000000e+00  0.0000000000000000e+00 0.0000000000000000e+00 0.0000000000000000e+00  0.0000000000000000e+00 0.0000000000000000e+00 0.0000000000000000e+00  0.0000000000000000e+00 0.0000000000000000e+00 0.0000000000000000e+00  0.0000000000000000e+00 0.0000000000000000e+00 0.0000000000000000e+00  0.0000000000000000e+00 0.0000000000000000e+00 0.0000000000000000e+00  0.0000000000000000e+00 0.0000000000000000e+00 0.0000000000000000e+00  0.0000000000000000e+00 0.0000000000000000e+00 0.0000000000000000e+00  0.0000000000000000e+00 0.0000000000000000e+00 0.0000000000000000e+00  0.0000000000000000e+00 0.0000000000000000e+00 0.0000000000000000e+00  0.0000000000000000e+00 0.0000000000000000e+00 0.0000000000000000e+00  0.0000000000000000e+00 0.0000000000000000e+00 0.0000000000000000e+00  0.0000000000000000e+00 0.0000000000000000e+00 0.0000000000000000e+00  0.0000000000000000e+00 0.0000000000000000e+00 0.0000000000000000e+00  0.0000000000000000e+00 0.0000000000000000e+00 0.0000000000000000e+00  0.0000000000000000e+00 0.0000000000000000e+00 0.0000000000000000e+00  0.0000000000000000e+00 0.0000000000000000e+00 0.0000000000000000e+00  0.0000000000000000e+00 0.0000000000000000e+00 0.0000000000000000e+00  0.0000000000000000e+00 0.0000000000000000e+00 0.0000000000000000e+00  9.4134860295087538e-07 -8.1062010472814117e-07 0.0000000000000000e+00  2.0098747397264904e-06 -1.9871076892058572e-06 0.0000000000000000e+00  2.9384370111018856e-06 -3.9145546744500475e-06 0.0000000000000000e+00  3.9455371884885402e-06 -6.6308637377243635e-06 0.0000000000000000e+00  4.7715945193399663e-06 -1.0003864447014668e-05 0.0000000000000000e+00  5.7165858055279308e-06 -1.4091691580243998e-05 0.0000000000000000e+00  6.4609880989408701e-06 -1.8707435815471330e-05 0.0000000000000000e+00  7.1799505316032205e-06 -2.4013324688831884e-05 0.0000000000000000e+00  8.0123011522208269e-06 -2.9837065244604748e-05 0.0000000000000000e+00  8.6312724214509244e-06 -3.6199324452180133e-05 0.0000000000000000e+00  9.3956194925867883e-06 -4.3084133250281499e-05 0.0000000000000000e+00  9.9555584939277036e-06 -5.0447996127238543e-05 0.0000000000000000e+00  1.0621732896666135e-05 -5.8268658487931939e-05 0.0000000000000000e+00  1.1140090766567600e-05 -6.6457416978870070e-05 0.0000000000000000e+00  1.1637877421304284e-05 -7.5095920895170611e-05 0.0000000000000000e+00  1.2201757570132018e-05 -8.4067667917193795e-05 0.0000000000000000e+00  1.2621824714451314e-05 -9.3381385546163848e-05 0.0000000000000000e+00  1.3122997288184381e-05 -1.0302129981806405e-04 0.0000000000000000e+00  1.3490510622632659e-05 -1.1294996326921051e-04 0.0000000000000000e+00  1.3919387620244330e-05 -1.2314381690167893e-04 0.0000000000000000e+00  1.4255226282922060e-05 -1.3359016536043327e-04 0.0000000000000000e+00  1.4619451306340943e-05 -1.4427293402608979e-04 0.0000000000000000e+00  1.4907751935746483e-05 -1.5512663308371686e-04 0.0000000000000000e+00  1.5178294422721838e-05 -1.6619534533618288e-04 0.0000000000000000e+00  1.5467895551365961e-05 -1.7740488882130389e-04 0.0000000000000000e+00  1.5704958340107440e-05 -1.8877671989176031e-04 0.0000000000000000e+00  1.5936034341288258e-05 -2.0028376040925341e-04 0.0000000000000000e+00  1.6136691712330466e-05 -2.1190007399396631e-04 0.0000000000000000e+00  1.6329929960559435e-05 -2.2362621624013324e-04 0.0000000000000000e+00  1.6498272912503401e-05 -2.3543452592452642e-04 0.0000000000000000e+00  1.6659050424942987e-05 -2.4732622748646253e-04 0.0000000000000000e+00  1.6799610364447925e-05 -2.5927750893934827e-04 0.0000000000000000e+00  1.6933068535253961e-05 -2.7128944849245088e-04 0.0000000000000000e+00  1.7050643868231204e-05 -2.8334254505598750e-04 0.0000000000000000e+00  1.7161939678172209e-05 -2.9543779853231992e-04 0.0000000000000000e+00  1.7261310922390444e-05 -3.0755988918084012e-04 0.0000000000000000e+00  1.7355529451687342e-05 -3.1970960026971165e-04 0.0000000000000000e+00  1.7441256218468047e-05 -3.3187561369369284e-04 0.0000000000000000e+00  1.7523124263246724e-05 -3.4405853189222195e-04 0.0000000000000000e+00  1.7599413971595819e-05 -3.5625055321714057e-04 0.0000000000000000e+00  1.7673501259908728e-05 -3.6845264457319751e-04 0.0000000000000000e+00  1.7743723824265173e-05 -3.8065954688657589e-04 0.0000000000000000e+00  1.7811922795646862e-05 -3.9287060005870463e-04 0.0000000000000000e+00  1.7879927304732763e-05 -4.0508484097051024e-04 0.0000000000000000e+00  1.7946149909500605e-05 -4.1730221015849400e-04 0.0000000000000000e+00  1.8011776040556683e-05 -4.2952100066258753e-04 0.0000000000000000e+00  9.8943330762493398e-06 -4.4178472680161219e-04 0.0000000000000000e+00  -6.4689694138475040e-06 -4.4186962287709496e-04 0.0000000000000000e+00  -1.4713851791244077e-05 -4.2969057427834416e-04 0.0000000000000000e+00  -1.4774062722869631e-05 -4.1747143858476165e-04 0.0000000000000000e+00  -1.4833938369897143e-05 -4.0525469652088548e-04 0.0000000000000000e+00  -1.4891417197528809e-05 -3.9304017819629549e-04 0.0000000000000000e+00  -1.4948511758422558e-05 -3.8082911285860929e-04 0.0000000000000000e+00  -1.5003458893644325e-05 -3.6862191543290431e-04 0.0000000000000000e+00  -1.5053881939711089e-05 -3.5642043325518632e-04 0.0000000000000000e+00  -1.5103678142702523e-05 -3.4422767737774950e-04 0.0000000000000000e+00  -1.5144433949304812e-05 -3.3204468680188471e-04 0.0000000000000000e+00  -1.5185467214973876e-05 -3.1987786990562950e-04 0.0000000000000000e+00  -1.5212357801421522e-05 -3.0772800303782987e-04 0.0000000000000000e+00  -1.5240561058309143e-05 -2.9560467109858663e-04 0.0000000000000000e+00  -1.5247993045889560e-05 -2.8350907139828213e-04 0.0000000000000000e+00  -1.5258779939967486e-05 -2.7145414795184741e-04 0.0000000000000000e+00  -1.5240620074968226e-05 -2.5944151553692051e-04 0.0000000000000000e+00  -1.5229004638535283e-05 -2.4748778912037073e-04 0.0000000000000000e+00  -1.5178690738464503e-05 -2.3559491591532632e-04 0.0000000000000000e+00  -1.5139434302536420e-05 -2.2378325393756796e-04 0.0000000000000000e+00  -1.5050172189182820e-05 -2.1205514294326714e-04 0.0000000000000000e+00  -1.4977879387967711e-05 -2.0043439995069611e-04 0.0000000000000000e+00  -1.4841399391561204e-05 -1.8892479812202510e-04 0.0000000000000000e+00  -1.4728813919272519e-05 -1.7755406415573578e-04 0.0000000000000000e+00  -1.4541119924661669e-05 -1.6633022086257989e-04 0.0000000000000000e+00  -1.4373202990803170e-05 -1.5525960674027064e-04 0.0000000000000000e+00  -1.4181903725629619e-05 -1.4440300709025363e-04 0.0000000000000000e+00  -1.3917262362863579e-05 -1.3370752407441234e-04 0.0000000000000000e+00  -1.3658248777308965e-05 -1.2326514405923433e-04 0.0000000000000000e+00  -1.3337959671344309e-05 -1.1305026069607242e-04 0.0000000000000000e+00  -1.3013728863882364e-05 -1.0312070659578259e-04 0.0000000000000000e+00  -1.2626233916508248e-05 -9.3468843217806485e-05 0.0000000000000000e+00  -1.2234760891725318e-05 -8.4133985268589943e-05 0.0000000000000000e+00  -1.1735605942965190e-05 -7.5173197039592833e-05 0.0000000000000000e+00  -1.1290184702678420e-05 -6.6520444204418006e-05 0.0000000000000000e+00  -1.0812379909339475e-05 -5.8328424467706976e-05 0.0000000000000000e+00  -1.0202134835055608e-05 -5.0467289284582579e-05 0.0000000000000000e+00  -9.6145820361907483e-06 -4.3111428972176074e-05 0.0000000000000000e+00  -8.9360598836813899e-06 -3.6210497747114183e-05 0.0000000000000000e+00  -8.2672357223896758e-06 -2.9817459901902202e-05 0.0000000000000000e+00  -7.4458591143630636e-06 -2.4014565935482147e-05 0.0000000000000000e+00  -6.7183517528567758e-06 -1.8690060578190487e-05 0.0000000000000000e+00  -5.9573993598877623e-06 -1.4067029669137452e-05 0.0000000000000000e+00  -5.0052441400779723e-06 -9.9499509797246796e-06 0.0000000000000000e+00  -4.1209990182770294e-06 -6.5603207708085881e-06 0.0000000000000000e+00  -3.0710176051124950e-06 -3.8750894668750165e-06 0.0000000000000000e+00  -2.1185537237204497e-06 -1.9331581569479499e-06 0.0000000000000000e+00  -9.9914964828158127e-07 -7.4651627515315661e-07 0.0000000000000000e+00  -3.8444057080330883e-08 -8.2378251188527673e-07 0.0000000000000000e+00  1.8260601678920523e-06 -4.2346718394561342e-04 0.0000000000000000e+00  1.8316797419259744e-06 -4.0011591469078805e-04 0.0000000000000000e+00  1.4850064224727917e-06 -3.6199327840912118e-04 0.0000000000000000e+00  -8.9229741164565094e-08 -4.6838132487675471e-06 0.0000000000000000e+00  1.1791694273047316e-06 -3.3804092478992325e-04 0.0000000000000000e+00  -1.8464463360222265e-07 -1.1171802461457035e-05 0.0000000000000000e+00  1.0546479931882706e-06 -3.1370097637546386e-04 0.0000000000000000e+00  -2.4510198880655970e-07 -2.6724566923924611e-05 0.0000000000000000e+00  -1.3282512954949271e-07 -3.9271051373134205e-05 0.0000000000000000e+00  9.3072961906460576e-07 -2.8944579132338886e-04 0.0000000000000000e+00  -1.9925314326214503e-07 -7.9716109901784363e-05 0.0000000000000000e+00  6.8667786547637990e-07 -2.4140429792975934e-04 0.0000000000000000e+00  -2.4384746398297111e-07 -5.3393218865520713e-05 0.0000000000000000e+00  2.6051757397578527e-08 -9.8012031044548371e-05 0.0000000000000000e+00  5.6826137278579361e-07 -2.1776544536488175e-04 0.0000000000000000e+00  8.0782939816577032e-07 -2.6532506858589972e-04 0.0000000000000000e+00  1.0419611781176803e-07 -1.1789961965856933e-04 0.0000000000000000e+00  4.5300266228912365e-07 -1.9450732279914994e-04 0.0000000000000000e+00  3.1426403996658537e-09 -1.3795510993073749e-04 0.0000000000000000e+00  5.3706999720404200e-07 -1.7220867848261626e-04 0.0000000000000000e+00  2.5797998572195533e-07 -1.5420414659166962e-04 0.0000000000000000e+00  -5.8848942554601719e-08 -6.5563852459651949e-05 0.0000000000000000e+00  1.3729466601806271e-06 -3.8181111821172374e-04 0.0000000000000000e+00  -1.3814270754972911e-07 -1.8004008386380304e-05 0.0000000000000000e+00  -3.9157484282654461e-06 -4.1173738343959422e-04 0.0000000000000000e+00  -9.8181484908866724e-07 -2.4214972132273229e-06 0.0000000000000000e+00  -3.6180005639173548e-06 -3.2588960358344022e-04 0.0000000000000000e+00  -3.5045678740243861e-06 -3.5025732489605567e-04 0.0000000000000000e+00  1.4587816686551564e-06 -7.8005201940210491e-06 0.0000000000000000e+00  2.3281949584879894e-06 -3.2660371168006455e-05 0.0000000000000000e+00  -3.8999382601429377e-06 -2.5336473295704072e-04 0.0000000000000000e+00  -3.7237937222255349e-06 -3.0158756057132820e-04 0.0000000000000000e+00  3.6067902045881746e-06 -8.8527256410097474e-05 0.0000000000000000e+00  -3.9627093025007670e-06 -2.2957505956309118e-04 0.0000000000000000e+00  2.7124393492590942e-06 -4.6455132224347887e-05 0.0000000000000000e+00  3.9104855648193136e-06 -1.0782780052191358e-04 0.0000000000000000e+00  -4.0031850274390723e-06 -2.0611452506648327e-04 0.0000000000000000e+00  -3.8189624856246135e-06 -2.7739344818285142e-04 0.0000000000000000e+00  5.0825252920707780e-06 -1.2812885404846601e-04 0.0000000000000000e+00  -4.0191961386817884e-06 -1.8309034995350808e-04 0.0000000000000000e+00  1.4480102558595970e-07 -1.8050241407305564e-07 0.0000000000000000e+00  -1.7685194359960396e-07 -1.5159286217001140e-07 0.0000000000000000e+00  5.6441351655290562e-06 -4.3305949688894813e-04 0.0000000000000000e+00  9.5085774