<?xml version="1.0"?>
<VTKFile type="UnstructuredGrid"  version="0.1"  >
<UnstructuredGrid>
<Piece  NumberOfPoints="1419" NumberOfCells="2698">
<Points>
<DataArray  type="Float64"  NumberOfComponents="3"  format="ascii">0 0 0  0 0.41 0  2.5 0 0  2.5 0.41 0  0.6 0.19 0  0.6 0.21 0  0.25 0.2 0  0.15 0.2 0  0.2489897948556636 0.21 0  0.2489897948556636 0.19 0  0.6 0.2 0  0 0.3807142857143437 0  0 0.3514285714286952 0  0 0.3221428571430699 0  0 0.29285714285744 0  0 0.2635714285718054 0  0 0.2342857142861561 0  0 0.2050000000005308 0  0 0.175714285714732 0  0 0.1464285714289574 0  0 0.1171428571431897 0  0 0.08785714285737878 0  0 0.05857142857161107 0  0 0.02928571428580012 0  0.03015443760436003 0 0  0.06140001986583606 0 0  0.09377624077125973 0 0  0.1273239957535082 0 0  0.1620856860351972 0 0  0.1981052433264291 0 0  0.235428184091502 0 0  0.2741016576309132 0 0  0.3141745521465447 0 0  0.3556974926295285 0 0  0.3987229542472677 0 0  0.4433053055141081 0 0  0.4895008759286886 0 0  0.5373680609405097 0 0  0.5869673343216626 0 0  0.6383613676634521 0 0  0.6916151138468254 0 0  0.7467958595648856 0 0  0.8039733463919316 0 0  0.8632198139502143 0 0  0.9246101326867038 0 0  0.9882218810934433 0 0  1.054135445558498 0 0  1.122434100542598 0 0  1.193204177141305 0 0  1.266535089879536 0 0  1.342519516046404 0 0  1.421253448503939 0 0  1.502836389106271 0 0  1.587371439758838 0 0  1.674965418777374 0 0  1.765729001825544 0 0  1.859776908880082 0 0  1.957227977487062 0 0  2.058205329869943 0 0  2.162836591189951 0 0  2.271253957290865 0 0  2.383594446803425 0 0  2.5 0.1024999999997612 0  2.5 0.2049999999994743 0  2.5 0.3074999999997183 0  2.383594446803656 0.41 0  2.271253957291315 0.41 0  2.162836591190598 0.41 0  2.058205329870775 0.41 0  1.957227977488067 0.41 0  1.859776908881246 0.41 0  1.765729001826854 0.41 0  1.674965418778818 0.41 0  1.58737143976041 0.41 0  1.502836389107956 0.41 0  1.421253448505726 0.41 0  1.342519516048286 0.41 0  1.266535089881505 0.41 0  1.193204177143353 0.41 0  1.122434100544716 0.41 0  1.05413544556068 0.41 0  0.9882218810956305 0.41 0  0.9246101326886647 0.41 0  0.8632198139519631 0.41 0  0.8039733463934788 0.41 0  0.7467958595662458 0.41 0  0.6916151138480078 0.41 0  0.6383613676644679 0.41 0  0.5869673343225223 0.41 0  0.5373680609412221 0.41 0  0.4895008759292634 0.41 0  0.4433053055145528 0.41 0  0.3987229542475914 0.41 0  0.3556974926297398 0.41 0  0.3141745521466497 0.41 0  0.2741016576310038 0.41 0  0.2354281840915826 0.41 0  0.1981052433265003 0.41 0  0.1620856860352591 0.41 0  0.1273239957535623 0.41 0  0.09377624077128965 0.41 0  0.06140001986584975 0.41 0  0.03015443760436654 0.41 0  0.2497468076502589 0.2050254481002335 0  0.2497468076502614 0.1949745518997913 0  0.2469965252529372 0.1829317073451959 0  0.2439893735792749 0.1762316384219906 0  0.2400332147834255 0.1700443375285386 0  0.2352133972704371 0.1645032867342007 0  0.2296339016332438 0.1597280261969788 0  0.2234150974217223 0.1558215752574715 0  0.2166911463437691 0.1528682099456123 0  0.2096071079204251 0.1509316448471593 0  0.2023158100364996 0.1500536585536553 0  0.194974551899914 0.1502531923497262 0  0.1877417105387872 0.1515259415822739 0  0.1807733240461124 0.153844448527136 0  0.1742197252835808 0.15715869474974 0  0.1682222986673531 0.1613971801805478 0  0.162910430003803 0.1664684656256651 0  0.1583987151779087 0.1722631454351573 0  0.1547844879126891 0.178656207771761 0  0.1521457199348551 0.1855097315605723 0  0.1505393388476355 0.1926758619366523 0  0.1505393388476328 0.2073241380633295 0  0.1521457199348437 0.2144902684393899 0  0.1547844879126531 0.221343792228163 0  0.1583987151778488 0.2277368545647528 0  0.1629104300036858 0.2335315343742052 0  0.1682222986671726 0.2386028198193036 0  0.1742197252833576 0.2428413052501257 0  0.1807733240458683 0.2461555514727623 0  0.1877417105384929 0.2484740584176516 0  0.1949745518995776 0.2497468076502398 0  0.202315810036185 0.2499463414463592 0  0.2096071079201568 0.2490683551528932 0  0.2166911463435495 0.2471317900544655 0  0.2234150974215506 0.2441784247426195 0  0.2296339016331197 0.2402719738031125 0  0.2352133972703547 0.2354967132658811 0  0.2400332147833751 0.2299556624715287 0  0.2439893735792577 0.2237683615780412 0  0.246996525252926 0.2170682926548348 0  0.25645809709277 0.21 0  0.2639263993298655 0.21 0  0.271394701566961 0.21 0  0.2788630038040554 0.21 0  0.2863313060411479 0.21 0  0.2937996082782405 0.21 0  0.301267910515333 0.21 0  0.3087362127524279 0.21 0  0.3162045149895234 0.21 0  0.3236728172265972 0.21 0  0.3311411194636928 0.21 0  0.3386094217007701 0.21 0  0.3460777239378666 0.21 0  0.3535460261749672 0.21 0  0.3610143284120516 0.21 0  0.3684826306491596 0.21 0  0.3759509328862226 0.21 0  0.383419235123329 0.21 0  0.3908875373604028 0.21 0  0.3983558395975142 0.21 0  0.4058241418345938 0.21 0  0.4132924440716992 0.21 0  0.4207607463087888 0.21 0  0.4282290485459029 0.21 0  0.4356973507830418 0.21 0  0.4431656530201649 0.21 0  0.4506339552573136 0.21 0  0.4581022574944306 0.21 0  0.4655705597315852 0.21 0  0.4730388619686996 0.21 0  0.480507164205851 0.21 0  0.4879754664429498 0.21 0  0.4954437686800938 0.21 0  0.502912070917267 0.21 0  0.5103803731544119 0.21 0  0.5178486753915261 0.21 0  0.5253169776286404 0.21 0  0.5327852798657868 0.21 0  0.5402535821029386 0.21 0  0.54772188434007 0.21 0  0.5551901865771842 0.21 0  0.5626584888143201 0.21 0  0.5701267910514778 0.21 0  0.5775950932886138 0.21 0  0.5850633955257281 0.21 0  0.5925316977628483 0.21 0  0.6 0.2050000000000054 0  0.6 0.1950000000000217 0  0.5925316977628897 0.19 0  0.5850633955257988 0.19 0  0.5775950932887378 0.19 0  0.5701267910515998 0.19 0  0.5626584888145268 0.19 0  0.5551901865773963 0.19 0  0.547721884340339 0.19 0  0.5402535821032429 0.19 0  0.5327852798661811 0.19 0  0.5253169776290537 0.19 0  0.5178486753919799 0.19 0  0.5103803731549078 0.19 0  0.502912070917822 0.19 0  0.4954437686807294 0.19 0  0.4879754664436223 0.19 0  0.4805071642065402 0.19 0  0.4730388619694271 0.19 0  0.4655705597323621 0.19 0  0.4581022574952563 0.19 0  0.4506339552581777 0.19 0  0.4431656530210671 0.19 0  0.4356973507839815 0.19 0  0.4282290485468779 0.19 0  0.4207607463097617 0.19 0  0.4132924440726327 0.19 0  0.4058241418354857 0.19 0  0.3983558395983636 0.19 0  0.3908875373612097 0.19 0  0.3834192351240934 0.19 0  0.3759509328869369 0.19 0  0.3684826306498175 0.19 0  0.361014328412667 0.19 0  0.3535460261755617 0.19 0  0.3460777239384295 0.19 0  0.3386094217012945 0.19 0  0.3311411194641595 0.19 0  0.3236728172270245 0.19 0  0.3162045149898895 0.19 0  0.3087362127527544 0.19 0  0.3012679105156187 0.19 0  0.2937996082784807 0.19 0  0.2863313060413428 0.19 0  0.2788630038042048 0.19 0  0.2713947015670686 0.19 0  0.2639263993299336 0.19 0  0.2564580970927985 0.19 0  0.2607803159922026 0.2000727136295815 0  0.5887803774232762 0.2001272386983733 0  0.5745072403740523 0.2002044435018727 0  0.5511891430099709 0.2001122610077113 0  0.2751288526855082 0.20000000000002 0  0.5365194309847112 0.1999999999999436 0  0.2894621222999649 0.1998691686390484 0  0.5215828265105155 0.1999999999999228 0  0.3127789816668748 0.1998657885438805 0  0.3274069683451451 0.2000000000000796 0  0.5066462220363641 0.199999999999908 0  0.3650630746574081 0.199866017807523 0  0.476773013087985 0.1999999999998713 0  0.3417402379596385 0.1998691686391011 0  0.3796850840047755 0.200000000000134 0  0.4618364086138087 0.1999999999998546 0  0.4917096175621762 0.1999999999998808 0  0.3946216884789568 0.2000000000001512 0  0.446899804139621 0.1999999999998389 0  0.4089549580935208 0.1998691686391595 0  0.4322718174608562 0.200127451265745 0  0.4201487168029707 0.1999966199048527 0  0.3528922713220932 0.2000185703532356 0  0.5633122436674589 0.1999814296467508 0  0.3006558810093873 0.1999966199048318 0  0.5815926498168407 0.1966545283159175 0  0.2677053789419034 0.1964246479135325 0  0.5290511287476175 0.1970915826863981 0  0.5439877332217911 0.197091582686394 0  0.2825131256993216 0.2035478995978015 0  0.3199386661080599 0.202908417313604 0  0.4842413153250809 0.1970915826863873 0  0.5141145242734466 0.1970915826863843 0  0.3722167817676917 0.2029084173136195 0  0.4693047108508938 0.1970915826863783 0  0.3348752705822316 0.202908417313609 0  0.3871533862418661 0.2029084173136212 0  0.4543681063767183 0.1970915826863795 0  0.4991779197992749 0.1970915826863902 0  0.4020059614928624 0.203547899597858 0  0.4394315019025246 0.1970915826863714 0  0.2550657455369551 0.2034088125358657 0  0.2548908499171161 0.1966940311614271 0  0.5946539510196798 0.2024302972968126 0  0.267698176732111 0.2039977513680092 0  0.4261685417851465 0.196409292431739 0  0.3590076176283495 0.196411355804271 0  0.5571672426447437 0.2036011176410121 0  0.3066757059912147 0.1964092924317024 0  0.594380730180568 0.1966558399668133 0  0.4842413153245942 0.2040749161535287 0  0.4693047108503577 0.2040749161535231 0  0.3871533862424271 0.1959250838464788 0  0.372246743208829 0.1959123236376545 0  0.5141145242731028 0.2040749161535395 0  0.4543681063761134 0.2040749161535186 0  0.4019979587101454 0.1959834479682427 0  0.4394608940728603 0.2040870543693135 0  0.5439623148931173 0.2040856076781014 0  0.5290511287473298 0.2040749161535501 0  0.4991779197988497 0.2040749161535382 0  0.3347912413592433 0.1959225448935183 0  0.3199680582793816 0.1959123018030061 0  0.2825051229162361 0.1959834479681729 0  0.3590471196690275 0.2036304442587945 0  0.5571594006495384 0.1963685282145804 0  0.3067669986803285 0.203627750582736 0  0.4262598344738712 0.2036568242185335 0  0.5814408164431408 0.2041285596160068 0  0.5688286748170428 0.1961819304477386 0  0.4145905603063645 0.2038180695522843 0  0.3473758401724931 0.2038180695522752 0  0.2950977245128307 0.2038180695522663 0  0.5688286748170693 0.203818069552238 0  0.2950977245127906 0.1961819304477774 0  0.3473758401723931 0.1961819304478349 0  0.4145905603061963 0.1961819304479011 0  0.2601812407614425 0.2056861609747042
[...]
<PointData  Vectors="f_40-0"> 
<DataArray  type="Float64"  Name="f_40-0"  NumberOfComponents="3" format="ascii">0.0000000000000000e+00 0.0000000000000000e+00 0.0000000000000000e+00  0.0000000000000000e+00 0.0000000000000000e+00 0.0000000000000000e+00  0.0000000000000000e+00 0.0000000000000000e+00 0.0000000000000000e+00  0.0000000000000000e+00 0.0000000000000000e+00 0.0000000000000000e+00  -5.2644920962684355e-05 -1.5575260186322581e-03 0.0000000000000000e+00  8.0194224013179573e-05 -1.5602193600784808e-03 0.0000000000000000e+00  0.0000000000000000e+00 0.0000000000000000e+00 0.0000000000000000e+00  0.0000000000000000e+00 0.0000000000000000e+00 0.0000000000000000e+00  0.0000000000000000e+00 0.0000000000000000e+00 0.0000000000000000e+00  0.0000000000000000e+00 0.0000000000000000e+00 0.0000000000000000e+00  1.3249549844262551e-05 -1.5588461948263031e-03 0.0000000000000000e+00  2.9902103318186457e-01 0.0000000000000000e+00 0.0000000000000000e+00  5.5203883048963276e-01 0.0000000000000000e+00 0.0000000000000000e+00  7.5905339192324506e-01 0.0000000000000000e+00 0.0000000000000000e+00  9.2006471748294127e-01 0.0000000000000000e+00 0.0000000000000000e+00  1.0350728071687008e+00 0.0000000000000000e+00 0.0000000000000000e+00  1.1040776609805161e+00 0.0000000000000000e+00 0.0000000000000000e+00  1.1270792789183186e+00 0.0000000000000000e+00 0.0000000000000000e+00  1.1040776609819112e+00 0.0000000000000000e+00 0.0000000000000000e+00  1.0350728071710971e+00 0.0000000000000000e+00 0.0000000000000000e+00  9.2006471748590901e-01 0.0000000000000000e+00 0.0000000000000000e+00  7.5905339192606447e-01 0.0000000000000000e+00 0.0000000000000000e+00  5.5203883049203850e-01 0.0000000000000000e+00 0.0000000000000000e+00  2.9902103318322010e-01 0.0000000000000000e+00 0.0000000000000000e+00  0.0000000000000000e+00 0.0000000000000000e+00 0.0000000000000000e+00  0.0000000000000000e+00 0.0000000000000000e+00 0.0000000000000000e+00  0.0000000000000000e+00 0.0000000000000000e+00 0.0000000000000000e+00  0.0000000000000000e+00 0.0000000000000000e+00 0.0000000000000000e+00  0.0000000000000000e+00 0.0000000000000000e+00 0.0000000000000000e+00  0.0000000000000000e+00 0.0000000000000000e+00 0.0000000000000000e+00  0.0000000000000000e+00 0.0000000000000000e+00 0.0000000000000000e+00  0.0000000000000000e+00 0.0000000000000000e+00 0.0000000000000000e+00  0.0000000000000000e+00 0.0000000000000000e+00 0.0000000000000000e+00  0.0000000000000000e+00 0.0000000000000000e+00 0.0000000000000000e+00  0.0000000000000000e+00 0.0000000000000000e+00 0.0000000000000000e+00  0.0000000000000000e+00 0.0000000000000000e+00 0.0000000000000000e+00  0.0000000000000000e+00 0.0000000000000000e+00 0.0000000000000000e+00  0.0000000000000000e+00 0.0000000000000000e+00 0.0000000000000000e+00  0.0000000000000000e+00 0.0000000000000000e+00 0.0000000000000000e+00  0.0000000000000000e+00 0.0000000000000000e+00 0.0000000000000000e+00  0.0000000000000000e+00 0.0000000000000000e+00 0.0000000000000000e+00  0.0000000000000000e+00 0.0000000000000000e+00 0.0000000000000000e+00  0.0000000000000000e+00 0.0000000000000000e+00 0.0000000000000000e+00  0.0000000000000000e+00 0.0000000000000000e+00 0.0000000000000000e+00  0.0000000000000000e+00 0.0000000000000000e+00 0.0000000000000000e+00  0.0000000000000000e+00 0.0000000000000000e+00 0.0000000000000000e+00  0.0000000000000000e+00 0.0000000000000000e+00 0.0000000000000000e+00  0.0000000000000000e+00 0.0000000000000000e+00 0.0000000000000000e+00  0.0000000000000000e+00 0.0000000000000000e+00 0.0000000000000000e+00  0.0000000000000000e+00 0.0000000000000000e+00 0.0000000000000000e+00  0.0000000000000000e+00 0.0000000000000000e+00 0.0000000000000000e+00  0.0000000000000000e+00 0.0000000000000000e+00 0.0000000000000000e+00  0.0000000000000000e+00 0.0000000000000000e+00 0.0000000000000000e+00  0.0000000000000000e+00 0.0000000000000000e+00 0.0000000000000000e+00  0.0000000000000000e+00 0.0000000000000000e+00 0.0000000000000000e+00  0.0000000000000000e+00 0.0000000000000000e+00 0.0000000000000000e+00  0.0000000000000000e+00 0.0000000000000000e+00 0.0000000000000000e+00  0.0000000000000000e+00 0.0000000000000000e+00 0.0000000000000000e+00  0.0000000000000000e+00 0.0000000000000000e+00 0.0000000000000000e+00  0.0000000000000000e+00 0.0000000000000000e+00 0.0000000000000000e+00  0.0000000000000000e+00 0.0000000000000000e+00 0.0000000000000000e+00  0.0000000000000000e+00 0.0000000000000000e+00 0.0000000000000000e+00  1.0191801254540716e+00 -3.1189242089156952e-02 0.0000000000000000e+00  7.6221994175477170e-01 1.2463817510917618e-02 0.0000000000000000e+00  1.0208731859166678e+00 3.9146622688994048e-02 0.0000000000000000e+00  0.0000000000000000e+00 0.0000000000000000e+00 0.0000000000000000e+00  0.0000000000000000e+00 0.0000000000000000e+00 0.0000000000000000e+00  0.0000000000000000e+00 0.0000000000000000e+00 0.0000000000000000e+00  0.0000000000000000e+00 0.0000000000000000e+00 0.0000000000000000e+00  0.0000000000000000e+00 0.0000000000000000e+00 0.0000000000000000e+00  0.0000000000000000e+00 0.0000000000000000e+00 0.0000000000000000e+00  0.0000000000000000e+00 0.0000000000000000e+00 0.0000000000000000e+00  0.0000000000000000e+00 0.0000000000000000e+00 0.0000000000000000e+00  0.0000000000000000e+00 0.0000000000000000e+00 0.0000000000000000e+00  0.0000000000000000e+00 0.0000000000000000e+00 0.0000000000000000e+00  0.0000000000000000e+00 0.0000000000000000e+00 0.0000000000000000e+00  0.0000000000000000e+00 0.0000000000000000e+00 0.0000000000000000e+00  0.0000000000000000e+00 0.0000000000000000e+00 0.0000000000000000e+00  0.0000000000000000e+00 0.0000000000000000e+00 0.0000000000000000e+00  0.0000000000000000e+00 0.0000000000000000e+00 0.0000000000000000e+00  0.0000000000000000e+00 0.0000000000000000e+00 0.0000000000000000e+00  0.0000000000000000e+00 0.0000000000000000e+00 0.0000000000000000e+00  0.0000000000000000e+00 0.0000000000000000e+00 0.0000000000000000e+00  0.0000000000000000e+00 0.0000000000000000e+00 0.0000000000000000e+00  0.0000000000000000e+00 0.0000000000000000e+00 0.0000000000000000e+00  0.0000000000000000e+00 0.0000000000000000e+00 0.0000000000000000e+00  0.0000000000000000e+00 0.0000000000000000e+00 0.0000000000000000e+00  0.0000000000000000e+00 0.0000000000000000e+00 0.0000000000000000e+00  0.0000000000000000e+00 0.0000000000000000e+00 0.0000000000000000e+00  0.0000000000000000e+00 0.0000000000000000e+00 0.0000000000000000e+00  0.0000000000000000e+00 0.0000000000000000e+00 0.0000000000000000e+00  0.0000000000000000e+00 0.0000000000000000e+00 0.0000000000000000e+00  0.0000000000000000e+00 0.0000000000000000e+00 0.0000000000000000e+00  0.0000000000000000e+00 0.0000000000000000e+00 0.0000000000000000e+00  0.0000000000000000e+00 0.0000000000000000e+00 0.0000000000000000e+00  0.0000000000000000e+00 0.0000000000000000e+00 0.0000000000000000e+00  0.0000000000000000e+00 0.0000000000000000e+00 0.0000000000000000e+00  0.0000000000000000e+00 0.0000000000000000e+00 0.0000000000000000e+00  0.0000000000000000e+00 0.0000000000000000e+00 0.0000000000000000e+00  0.0000000000000000e+00 0.0000000000000000e+00 0.0000000000000000e+00  0.0000000000000000e+00 0.0000000000000000e+00 0.0000000000000000e+00  0.0000000000000000e+00 0.0000000000000000e+00 0.0000000000000000e+00  0.0000000000000000e+00 0.0000000000000000e+00 0.0000000000000000e+00  0.0000000000000000e+00 0.0000000000000000e+00 0.0000000000000000e+00  0.0000000000000000e+00 0.0000000000000000e+00 0.0000000000000000e+00  0.0000000000000000e+00 0.0000000000000000e+00 0.0000000000000000e+00  0.0000000000000000e+00 0.0000000000000000e+00 0.0000000000000000e+00  0.0000000000000000e+00 0.0000000000000000e+00 0.0000000000000000e+00  0.0000000000000000e+00 0.0000000000000000e+00 0.0000000000000000e+00  0.0000000000000000e+00 0.0000000000000000e+00 0.0000000000000000e+00  0.0000000000000000e+00 0.0000000000000000e+00 0.0000000000000000e+00  0.0000000000000000e+00 0.0000000000000000e+00 0.0000000000000000e+00  0.0000000000000000e+00 0.0000000000000000e+00 0.0000000000000000e+00  0.0000000000000000e+00 0.0000000000000000e+00 0.0000000000000000e+00  0.0000000000000000e+00 0.0000000000000000e+00 0.0000000000000000e+00  0.0000000000000000e+00 0.0000000000000000e+00 0.0000000000000000e+00  0.0000000000000000e+00 0.0000000000000000e+00 0.0000000000000000e+00  0.0000000000000000e+00 0.0000000000000000e+00 0.0000000000000000e+00  0.0000000000000000e+00 0.0000000000000000e+00 0.0000000000000000e+00  0.0000000000000000e+00 0.0000000000000000e+00 0.0000000000000000e+00  0.0000000000000000e+00 0.0000000000000000e+00 0.0000000000000000e+00  0.0000000000000000e+00 0.0000000000000000e+00 0.0000000000000000e+00  0.0000000000000000e+00 0.0000000000000000e+00 0.0000000000000000e+00  0.0000000000000000e+00 0.0000000000000000e+00 0.0000000000000000e+00  0.0000000000000000e+00 0.0000000000000000e+00 0.0000000000000000e+00  0.0000000000000000e+00 0.0000000000000000e+00 0.0000000000000000e+00  0.0000000000000000e+00 0.0000000000000000e+00 0.0000000000000000e+00  0.0000000000000000e+00 0.0000000000000000e+00 0.0000000000000000e+00  0.0000000000000000e+00 0.0000000000000000e+00 0.0000000000000000e+00  0.0000000000000000e+00 0.0000000000000000e+00 0.0000000000000000e+00  0.0000000000000000e+00 0.0000000000000000e+00 0.0000000000000000e+00  0.0000000000000000e+00 0.0000000000000000e+00 0.0000000000000000e+00  0.0000000000000000e+00 0.0000000000000000e+00 0.0000000000000000e+00  0.0000000000000000e+00 0.0000000000000000e+00 0.0000000000000000e+00  0.0000000000000000e+00 0.0000000000000000e+00 0.0000000000000000e+00  0.0000000000000000e+00 0.0000000000000000e+00 0.0000000000000000e+00  0.0000000000000000e+00 0.0000000000000000e+00 0.0000000000000000e+00  0.0000000000000000e+00 0.0000000000000000e+00 0.0000000000000000e+00  0.0000000000000000e+00 0.0000000000000000e+00 0.0000000000000000e+00  0.0000000000000000e+00 0.0000000000000000e+00 0.0000000000000000e+00  0.0000000000000000e+00 0.0000000000000000e+00 0.0000000000000000e+00  0.0000000000000000e+00 0.0000000000000000e+00 0.0000000000000000e+00  0.0000000000000000e+00 0.0000000000000000e+00 0.0000000000000000e+00  -1.7476564499819683e-07 1.6758596728313017e-07 0.0000000000000000e+00  1.0484890681062392e-07 -3.1870138218783723e-07 0.0000000000000000e+00  5.6098364728945136e-07 -1.9928033531962029e-06 0.0000000000000000e+00  1.5281263797802515e-06 -4.9313194817341010e-06 0.0000000000000000e+00  2.4979985691341538e-06 -9.4336722744047352e-06 0.0000000000000000e+00  4.1809685316065278e-06 -1.5655897926923972e-05 0.0000000000000000e+00  5.6293343268912615e-06 -2.3447690813219509e-05 0.0000000000000000e+00  7.3808553715560296e-06 -3.3466083156873675e-05 0.0000000000000000e+00  9.8572442448563201e-06 -4.5335095396333443e-05 0.0000000000000000e+00  1.1935275905243891e-05 -5.9407821254066768e-05 0.0000000000000000e+00  1.4969232278073146e-05 -7.5599703855775332e-05 0.0000000000000000e+00  1.7439797753539596e-05 -9.4136176008452206e-05 0.0000000000000000e+00  2.0779438221874867e-05 -1.1486327252989613e-04 0.0000000000000000e+00  2.3617556679714540e-05 -1.3750890292121539e-04 0.0000000000000000e+00  2.6652607150551916e-05 -1.6263048600756967e-04 0.0000000000000000e+00  3.0267823090685443e-05 -1.8962469086883905e-04 0.0000000000000000e+00  3.3292088499602597e-05 -2.1870733112675921e-04 0.0000000000000000e+00  3.7008982882605507e-05 -2.4969986720569721e-04 0.0000000000000000e+00  4.0044676176188634e-05 -2.8259454452862098e-04 0.0000000000000000e+00  4.3617937583422263e-05 -3.1713444954867823e-04 0.0000000000000000e+00  4.6679924143073059e-05 -3.5339440404421181e-04 0.0000000000000000e+00  5.0036900181151957e-05 -3.9121714877898351e-04 0.0000000000000000e+00  5.2899839658652587e-05 -4.3019936328469186e-04 0.0000000000000000e+00  5.5694822631968213e-05 -4.7067417685503710e-04 0.0000000000000000e+00  5.8637525679168700e-05 -5.1212732652211319e-04 0.0000000000000000e+00  6.1206098527622174e-05 -5.5472259826050592e-04 0.0000000000000000e+00  6.3715930395482143e-05 -5.9829779091679822e-04 0.0000000000000000e+00  6.5975615297680690e-05 -6.4264948227798417e-04 0.0000000000000000e+00  6.8146316594655271e-05 -6.8784065131792613e-04 0.0000000000000000e+00  7.0077129271176148e-05 -7.3362045350221314e-04 0.0000000000000000e+00  7.1900454260066208e-05 -7.8007970250051439e-04 0.0000000000000000e+00  7.3499363326143106e-05 -8.2697299166525754e-04 0.0000000000000000e+00  7.4980084593971954e-05 -8.7440611307365416e-04 0.0000000000000000e+00  7.6253942009656535e-05 -9.2214099348132629e-04 0.0000000000000000e+00  7.7398078568735021e-05 -9.7030587349763487e-04 0.0000000000000000e+00  7.8357175662069779e-05 -1.0186677918502252e-03 0.0000000000000000e+00  7.9187291323166246e-05 -1.0673545370100722e-03 0.0000000000000000e+00  7.9849630366296705e-05 -1.1161545287522183e-03 0.0000000000000000e+00  8.0381499231521318e-05 -1.1651987847478879e-03 0.0000000000000000e+00  8.0759543674728098e-05 -1.2142933981722564e-03 0.0000000000000000e+00  8.1001157405824275e-05 -1.2635498815266198e-03 0.0000000000000000e+00  8.1120835897048325e-05 -1.3128387165747396e-03 0.0000000000000000e+00  8.1103011634665358e-05 -1.3622066252894113e-03 0.0000000000000000e+00  8.1013818653538289e-05 -1.4116060623545847e-03 0.0000000000000000e+00  8.0777073536771849e-05 -1.4609949230423738e-03 0.0000000000000000e+00  8.0464174846299651e-05 -1.5104678727389579e-03 0.0000000000000000e+00  4.6530078108960248e-05 -1.5595297057300031e-03 0.0000000000000000e+00  -1.9858820773455002e-05 -1.5581760780363065e-03 0.0000000000000000e+00  -5.2318249041240656e-05 -1.5080382423987313e-03 0.0000000000000000e+00  -5.1928075701004623e-05 -1.4583580761210544e-03 0.0000000000000000e+00  -5.1603770148099333e-05 -1.4086483372442655e-03 0.0000000000000000e+00  -5.1371560851924215e-05 -1.3590138605249619e-03 0.0000000000000000e+00  -5.1204856453371642e-05 -1.3094143096711614e-03 0.0000000000000000e+00  -5.1134226348348005e-05 -1.2598858351202539e-03 0.0000000000000000e+00  -5.1090469392100086e-05 -1.2104433111130386e-03 0.0000000000000000e+00  -5.1161217789029995e-05 -1.1610709723889696e-03 0.0000000000000000e+00  -5.1238921988738211e-05 -1.1118837105378932e-03 0.0000000000000000e+00  -5.1429082345729287e-05 -1.0628078662152643e-03 0.0000000000000000e+00  -5.1586698299280254e-05 -1.0139840373876736e-03 0.0000000000000000e+00  -5.1868752393865607e-05 -9.6535906552881507e-04 0.0000000000000000e+00  -5.2071539664782334e-05 -9.1707637713931128e-04 0.0000000000000000e+00  -5.2409239046489959e-05 -8.6910078816632944e-04 0.0000000000000000e+00  -5.2608190833927662e-05 -8.2156661341780128e-04 0.0000000000000000e+00  -5.2961460505531619e-05 -7.7447134222222158e-04 0.0000000000000000e+00  -5.3106802666022233e-05 -7.2793959756407899e-04 0.0000000000000000e+00  -5.3424159989495924e-05 -6.8200581264839960e-04 0.0000000000000000e+00  -5.3447134069416964e-05 -6.3678269636256572e-04 0.0000000000000000e+00  -5.3661727414753222e-05 -5.9234330553950521e-04 0.0000000000000000e+00  -5.3475390662163608e-05 -5.4878444894613783e-04 0.0000000000000000e+00  -5.3505150913532956e-05 -5.0622992237095074e-04 0.0000000000000000e+00  -5.3052047215931942e-05 -4.6477678689546944e-04 0.0000000000000000e+00  -5.2757959439595910e-05 -4.2442967001296989e-04 0.0000000000000000e+00  -5.2304696254648539e-05 -3.8560751811474636e-04 0.0000000000000000e+00  -5.1361738149142814e-05 -3.4793007182999490e-04 0.0000000000000000e+00  -5.0449879844287682e-05 -3.1201351182770271e-04 0.0000000000000000e+00  -4.9127066931083396e-05 -2.7761762700568351e-04 0.0000000000000000e+00  -4.7760643444282478e-05 -2.4515149899540049e-04 0.0000000000000000e+00  -4.5976171874564536e-05 -2.1443457568516816e-04 0.0000000000000000e+00  -4.4137679348661196e-05 -1.8575274386024881e-04 0.0000000000000000e+00  -4.1658026371411219e-05 -1.5926740224665240e-04 0.0000000000000000e+00  -3.9496376959270719e-05 -1.3458985325961808e-04 0.0000000000000000e+00  -3.7122594004705932e-05 -1.1241081199200239e-04 0.0000000000000000e+00  -3.4110985094004284e-05 -9.1997306182255650e-05 0.0000000000000000e+00  -3.1244214738691511e-05 -7.4056989084472200e-05 0.0000000000000000e+00  -2.8027244336596072e-05 -5.8185408907019186e-05 0.0000000000000000e+00  -2.4941609846054804e-05 -4.4485412288011049e-05 0.0000000000000000e+00  -2.1425662676324915e-05 -3.3062025611055170e-05 0.0000000000000000e+00  -1.8393866005061507e-05 -2.3313942291125731e-05 0.0000000000000000e+00  -1.5409983536642996e-05 -1.5772720550150298e-05 0.0000000000000000e+00  -1.2094681098417105e-05 -9.6808730942304607e-06 0.0000000000000000e+00  -9.2409386509035378e-06 -5.3456423648750215e-06 0.0000000000000000e+00  -6.3419282428064829e-06 -2.5462280504585546e-06 0.0000000000000000e+00  -3.9424244302033350e-06 -9.0435945162640209e-07 0.0000000000000000e+00  -1.6921099743896867e-06 -3.6755003146775032e-07 0.0000000000000000e+00  -1.3972218379360255e-06 3.5067371206872886e-07 0.0000000000000000e+00  1.4869550163610952e-05 -1.4843450804871983e-03 0.0000000000000000e+00  1.6030148102904808e-05 -1.3896436431632506e-03 0.0000000000000000e+00  1.5522545752329797e-05 -1.2352196997733912e-03 0.0000000000000000e+00  -3.3348161755703405e-06 -2.6554419976735803e-06 0.0000000000000000e+00  1.4338802348710740e-05 -1.1384534525283832e-03 0.0000000000000000e+00  -5.1837565248818236e-06 -1.0795809386021165e-05 0.0000000000000000e+00  1.3513429107132662e-05 -1.0405214771190053e-03 0.0000000000000000e+00  -7.4764129709416833e-06 -3.7964389066897410e-05 0.0000000000000000e+00  -7.9935564673252214e-06 -6.5170260814852748e-05 0.0000000000000000e+00  1.2309491951175665e-05 -9.4346628025252085e-04 0.0000000000000000e+00  -7.6716581951499365e-06 -1.7380869489517424e-04 0.0000000000000000e+00  8.8675402033797245e-06 -7.5357554246355252e-04 0.0000000000000000e+00  -8.5321562662047598e-06 -9.9945783587840670e-05 0.0000000000000000e+00  -5.8131851778409568e-06 -2.3053944951005446e-04 0.0000000000000000e+00  6.7133667240080967e-06 -6.6174144810903846e-04 0.0000000000000000e+00  1.0749969928396907e-05 -8.4766592484218552e-04 0.0000000000000000e+00  -3.9575520461658439e-06 -2.9601787366272087e-04 0.0000000000000000e+00  4.3531029967349317e-06 -5.7281774208048754e-04 0.0000000000000000e+00  -2.5076084542571557e-06 -3.6525590225920700e-04 0.0000000000000000e+00  2.6474670307074433e-06 -4.8930838057638110e-04 0.0000000000000000e+00  -7.5033710368296863e-08 -4.2343336892652184e-04 0.0000000000000000e+00  -7.7910102333952508e-06 -1.3298896053310472e-04 0.0000000000000000e+00  1.4683610723534044e-05 -1.3154188406615803e-03 0.0000000000000000e+00  -6.2292776317475943e-06 -2.1791190877399392e-05 0.0000000000000000e+00  -7.7768603121930651e-06 -1.4361728528697357e-03 0.0000000000000000e+00  -3.3905447638414089e-06 -7.8678834547198634e-07 0.0000000000000000e+00  -5.0474164317248130e-06 -1.0887760701807931e-03 0.0000000000000000e+00  -4.5367462449815525e-06 -1.1870828516656285e-03 0.0000000000000000e+00  -2.0156645206325825e-06 -6.2234915063754788e-06 0.0000000000000000e+00  -2.2013791077510941e-06 -5.0576785476947440e-05 0.0000000000000000e+00  -8.3901737477481066e-06 -7.9962227959241817e-04 0.0000000000000000e+00  -5.8813335604193928e-06 -9.9118848769011512e-04 0.0000000000000000e+00  4.6252628207949817e-06 -2.0137642826095078e-04 0.0000000000000000e+00  -9.9619675239578965e-06 -7.0656245854331550e-04 0.0000000000000000e+00  -1.0941634194016724e-06 -8.2732073100117099e-05 0.0000000000000000e+00  7.6926922770891459e-06 -2.6322512760992194e-04 0.0000000000000000e+00  -1.1647831233517855e-05 -6.1608712633492426e-04 0.0000000000000000e+00  -7.0107575919244432e-06 -8.9466429312766210e-04 0.0000000000000000e+00  1.4079731170072874e-05 -3.3208305497825589e-04 0.0000000000000000e+00  -1.3363514382082131e-05 -5.2890436670637627e-04 0.0000000000000000e+00  -4.7674134177108470e-07 4.2240111231059129e-07 0.0000000000000000e+00  -7.6576612682131510e-07 2.7606392897784560e-07 0.0000000000000000e+00  2.9771816161978123e-05 -1.5236287644839323e-03 0.0000000000000000e+00  -1.