<?xml version="1.0"?>
<VTKFile type="UnstructuredGrid"  version="0.1"  >
<UnstructuredGrid>
<Piece  NumberOfPoints="1419" NumberOfCells="2698">
<Points>
<DataArray  type="Float64"  NumberOfComponents="3"  format="ascii">0 0 0  0 0.41 0  2.5 0 0  2.5 0.41 0  0.6 0.19 0  0.6 0.21 0  0.25 0.2 0  0.15 0.2 0  0.2489897948556636 0.21 0  0.2489897948556636 0.19 0  0.6 0.2 0  0 0.3807142857143437 0  0 0.3514285714286952 0  0 0.3221428571430699 0  0 0.29285714285744 0  0 0.2635714285718054 0  0 0.2342857142861561 0  0 0.2050000000005308 0  0 0.175714285714732 0  0 0.1464285714289574 0  0 0.1171428571431897 0  0 0.08785714285737878 0  0 0.05857142857161107 0  0 0.02928571428580012 0  0.03015443760436003 0 0  0.06140001986583606 0 0  0.09377624077125973 0 0  0.1273239957535082 0 0  0.1620856860351972 0 0  0.1981052433264291 0 0  0.235428184091502 0 0  0.2741016576309132 0 0  0.3141745521465447 0 0  0.3556974926295285 0 0  0.3987229542472677 0 0  0.4433053055141081 0 0  0.4895008759286886 0 0  0.5373680609405097 0 0  0.5869673343216626 0 0  0.6383613676634521 0 0  0.6916151138468254 0 0  0.7467958595648856 0 0  0.8039733463919316 0 0  0.8632198139502143 0 0  0.9246101326867038 0 0  0.9882218810934433 0 0  1.054135445558498 0 0  1.122434100542598 0 0  1.193204177141305 0 0  1.266535089879536 0 0  1.342519516046404 0 0  1.421253448503939 0 0  1.502836389106271 0 0  1.587371439758838 0 0  1.674965418777374 0 0  1.765729001825544 0 0  1.859776908880082 0 0  1.957227977487062 0 0  2.058205329869943 0 0  2.162836591189951 0 0  2.271253957290865 0 0  2.383594446803425 0 0  2.5 0.1024999999997612 0  2.5 0.2049999999994743 0  2.5 0.3074999999997183 0  2.383594446803656 0.41 0  2.271253957291315 0.41 0  2.162836591190598 0.41 0  2.058205329870775 0.41 0  1.957227977488067 0.41 0  1.859776908881246 0.41 0  1.765729001826854 0.41 0  1.674965418778818 0.41 0  1.58737143976041 0.41 0  1.502836389107956 0.41 0  1.421253448505726 0.41 0  1.342519516048286 0.41 0  1.266535089881505 0.41 0  1.193204177143353 0.41 0  1.122434100544716 0.41 0  1.05413544556068 0.41 0  0.9882218810956305 0.41 0  0.9246101326886647 0.41 0  0.8632198139519631 0.41 0  0.8039733463934788 0.41 0  0.7467958595662458 0.41 0  0.6916151138480078 0.41 0  0.6383613676644679 0.41 0  0.5869673343225223 0.41 0  0.5373680609412221 0.41 0  0.4895008759292634 0.41 0  0.4433053055145528 0.41 0  0.3987229542475914 0.41 0  0.3556974926297398 0.41 0  0.3141745521466497 0.41 0  0.2741016576310038 0.41 0  0.2354281840915826 0.41 0  0.1981052433265003 0.41 0  0.1620856860352591 0.41 0  0.1273239957535623 0.41 0  0.09377624077128965 0.41 0  0.06140001986584975 0.41 0  0.03015443760436654 0.41 0  0.2497468076502589 0.2050254481002335 0  0.2497468076502614 0.1949745518997913 0  0.2469965252529372 0.1829317073451959 0  0.2439893735792749 0.1762316384219906 0  0.2400332147834255 0.1700443375285386 0  0.2352133972704371 0.1645032867342007 0  0.2296339016332438 0.1597280261969788 0  0.2234150974217223 0.1558215752574715 0  0.2166911463437691 0.1528682099456123 0  0.2096071079204251 0.1509316448471593 0  0.2023158100364996 0.1500536585536553 0  0.194974551899914 0.1502531923497262 0  0.1877417105387872 0.1515259415822739 0  0.1807733240461124 0.153844448527136 0  0.1742197252835808 0.15715869474974 0  0.1682222986673531 0.1613971801805478 0  0.162910430003803 0.1664684656256651 0  0.1583987151779087 0.1722631454351573 0  0.1547844879126891 0.178656207771761 0  0.1521457199348551 0.1855097315605723 0  0.1505393388476355 0.1926758619366523 0  0.1505393388476328 0.2073241380633295 0  0.1521457199348437 0.2144902684393899 0  0.1547844879126531 0.221343792228163 0  0.1583987151778488 0.2277368545647528 0  0.1629104300036858 0.2335315343742052 0  0.1682222986671726 0.2386028198193036 0  0.1742197252833576 0.2428413052501257 0  0.1807733240458683 0.2461555514727623 0  0.1877417105384929 0.2484740584176516 0  0.1949745518995776 0.2497468076502398 0  0.202315810036185 0.2499463414463592 0  0.2096071079201568 0.2490683551528932 0  0.2166911463435495 0.2471317900544655 0  0.2234150974215506 0.2441784247426195 0  0.2296339016331197 0.2402719738031125 0  0.2352133972703547 0.2354967132658811 0  0.2400332147833751 0.2299556624715287 0  0.2439893735792577 0.2237683615780412 0  0.246996525252926 0.2170682926548348 0  0.25645809709277 0.21 0  0.2639263993298655 0.21 0  0.271394701566961 0.21 0  0.2788630038040554 0.21 0  0.2863313060411479 0.21 0  0.2937996082782405 0.21 0  0.301267910515333 0.21 0  0.3087362127524279 0.21 0  0.3162045149895234 0.21 0  0.3236728172265972 0.21 0  0.3311411194636928 0.21 0  0.3386094217007701 0.21 0  0.3460777239378666 0.21 0  0.3535460261749672 0.21 0  0.3610143284120516 0.21 0  0.3684826306491596 0.21 0  0.3759509328862226 0.21 0  0.383419235123329 0.21 0  0.3908875373604028 0.21 0  0.3983558395975142 0.21 0  0.4058241418345938 0.21 0  0.4132924440716992 0.21 0  0.4207607463087888 0.21 0  0.4282290485459029 0.21 0  0.4356973507830418 0.21 0  0.4431656530201649 0.21 0  0.4506339552573136 0.21 0  0.4581022574944306 0.21 0  0.4655705597315852 0.21 0  0.4730388619686996 0.21 0  0.480507164205851 0.21 0  0.4879754664429498 0.21 0  0.4954437686800938 0.21 0  0.502912070917267 0.21 0  0.5103803731544119 0.21 0  0.5178486753915261 0.21 0  0.5253169776286404 0.21 0  0.5327852798657868 0.21 0  0.5402535821029386 0.21 0  0.54772188434007 0.21 0  0.5551901865771842 0.21 0  0.5626584888143201 0.21 0  0.5701267910514778 0.21 0  0.5775950932886138 0.21 0  0.5850633955257281 0.21 0  0.5925316977628483 0.21 0  0.6 0.2050000000000054 0  0.6 0.1950000000000217 0  0.5925316977628897 0.19 0  0.5850633955257988 0.19 0  0.5775950932887378 0.19 0  0.5701267910515998 0.19 0  0.5626584888145268 0.19 0  0.5551901865773963 0.19 0  0.547721884340339 0.19 0  0.5402535821032429 0.19 0  0.5327852798661811 0.19 0  0.5253169776290537 0.19 0  0.5178486753919799 0.19 0  0.5103803731549078 0.19 0  0.502912070917822 0.19 0  0.4954437686807294 0.19 0  0.4879754664436223 0.19 0  0.4805071642065402 0.19 0  0.4730388619694271 0.19 0  0.4655705597323621 0.19 0  0.4581022574952563 0.19 0  0.4506339552581777 0.19 0  0.4431656530210671 0.19 0  0.4356973507839815 0.19 0  0.4282290485468779 0.19 0  0.4207607463097617 0.19 0  0.4132924440726327 0.19 0  0.4058241418354857 0.19 0  0.3983558395983636 0.19 0  0.3908875373612097 0.19 0  0.3834192351240934 0.19 0  0.3759509328869369 0.19 0  0.3684826306498175 0.19 0  0.361014328412667 0.19 0  0.3535460261755617 0.19 0  0.3460777239384295 0.19 0  0.3386094217012945 0.19 0  0.3311411194641595 0.19 0  0.3236728172270245 0.19 0  0.3162045149898895 0.19 0  0.3087362127527544 0.19 0  0.3012679105156187 0.19 0  0.2937996082784807 0.19 0  0.2863313060413428 0.19 0  0.2788630038042048 0.19 0  0.2713947015670686 0.19 0  0.2639263993299336 0.19 0  0.2564580970927985 0.19 0  0.2607803159922026 0.2000727136295815 0  0.5887803774232762 0.2001272386983733 0  0.5745072403740523 0.2002044435018727 0  0.5511891430099709 0.2001122610077113 0  0.2751288526855082 0.20000000000002 0  0.5365194309847112 0.1999999999999436 0  0.2894621222999649 0.1998691686390484 0  0.5215828265105155 0.1999999999999228 0  0.3127789816668748 0.1998657885438805 0  0.3274069683451451 0.2000000000000796 0  0.5066462220363641 0.199999999999908 0  0.3650630746574081 0.199866017807523 0  0.476773013087985 0.1999999999998713 0  0.3417402379596385 0.1998691686391011 0  0.3796850840047755 0.200000000000134 0  0.4618364086138087 0.1999999999998546 0  0.4917096175621762 0.1999999999998808 0  0.3946216884789568 0.2000000000001512 0  0.446899804139621 0.1999999999998389 0  0.4089549580935208 0.1998691686391595 0  0.4322718174608562 0.200127451265745 0  0.4201487168029707 0.1999966199048527 0  0.3528922713220932 0.2000185703532356 0  0.5633122436674589 0.1999814296467508 0  0.3006558810093873 0.1999966199048318 0  0.5815926498168407 0.1966545283159175 0  0.2677053789419034 0.1964246479135325 0  0.5290511287476175 0.1970915826863981 0  0.5439877332217911 0.197091582686394 0  0.2825131256993216 0.2035478995978015 0  0.3199386661080599 0.202908417313604 0  0.4842413153250809 0.1970915826863873 0  0.5141145242734466 0.1970915826863843 0  0.3722167817676917 0.2029084173136195 0  0.4693047108508938 0.1970915826863783 0  0.3348752705822316 0.202908417313609 0  0.3871533862418661 0.2029084173136212 0  0.4543681063767183 0.1970915826863795 0  0.4991779197992749 0.1970915826863902 0  0.4020059614928624 0.203547899597858 0  0.4394315019025246 0.1970915826863714 0  0.2550657455369551 0.2034088125358657 0  0.2548908499171161 0.1966940311614271 0  0.5946539510196798 0.2024302972968126 0  0.267698176732111 0.2039977513680092 0  0.4261685417851465 0.196409292431739 0  0.3590076176283495 0.196411355804271 0  0.5571672426447437 0.2036011176410121 0  0.3066757059912147 0.1964092924317024 0  0.594380730180568 0.1966558399668133 0  0.4842413153245942 0.2040749161535287 0  0.4693047108503577 0.2040749161535231 0  0.3871533862424271 0.1959250838464788 0  0.372246743208829 0.1959123236376545 0  0.5141145242731028 0.2040749161535395 0  0.4543681063761134 0.2040749161535186 0  0.4019979587101454 0.1959834479682427 0  0.4394608940728603 0.2040870543693135 0  0.5439623148931173 0.2040856076781014 0  0.5290511287473298 0.2040749161535501 0  0.4991779197988497 0.2040749161535382 0  0.3347912413592433 0.1959225448935183 0  0.3199680582793816 0.1959123018030061 0  0.2825051229162361 0.1959834479681729 0  0.3590471196690275 0.2036304442587945 0  0.5571594006495384 0.1963685282145804 0  0.3067669986803285 0.203627750582736 0  0.4262598344738712 0.2036568242185335 0  0.5814408164431408 0.2041285596160068 0  0.5688286748170428 0.1961819304477386 0  0.4145905603063645 0.2038180695522843 0  0.3473758401724931 0.2038180695522752 0  0.2950977245128307 0.2038180695522663 0  0.5688286748170693 0.203818069552238 0  0.2950977245127906 0.1961819304477774 0  0.3473758401723931 0.1961819304478349 0  0.4145905603061963 0.1961819304479011 0  0.2601812407614425 0.2056861609747042
[...]
<PointData  Vectors="f_40-0"> 
<DataArray  type="Float64"  Name="f_40-0"  NumberOfComponents="3" format="ascii">0.0000000000000000e+00 0.0000000000000000e+00 0.0000000000000000e+00  0.0000000000000000e+00 0.0000000000000000e+00 0.0000000000000000e+00  0.0000000000000000e+00 0.0000000000000000e+00 0.0000000000000000e+00  0.0000000000000000e+00 0.0000000000000000e+00 0.0000000000000000e+00  -2.9355843409198390e-05 -9.9796624246522304e-05 0.0000000000000000e+00  -2.0973624606730108e-05 -1.0566402029824633e-04 0.0000000000000000e+00  0.0000000000000000e+00 0.0000000000000000e+00 0.0000000000000000e+00  0.0000000000000000e+00 0.0000000000000000e+00 0.0000000000000000e+00  0.0000000000000000e+00 0.0000000000000000e+00 0.0000000000000000e+00  0.0000000000000000e+00 0.0000000000000000e+00 0.0000000000000000e+00  -2.5495056219573331e-05 -1.0272964008282951e-04 0.0000000000000000e+00  1.4949768678712701e-02 0.0000000000000000e+00 0.0000000000000000e+00  2.7599572945317584e-02 0.0000000000000000e+00 0.0000000000000000e+00  3.7949412799811691e-02 0.0000000000000000e+00 0.0000000000000000e+00  4.5999288242206983e-02 0.0000000000000000e+00 0.0000000000000000e+00  5.1749199272502440e-02 0.0000000000000000e+00 0.0000000000000000e+00  5.5199145890697701e-02 0.0000000000000000e+00 0.0000000000000000e+00  5.6349128096789332e-02 0.0000000000000000e+00 0.0000000000000000e+00  5.5199145890767451e-02 0.0000000000000000e+00 0.0000000000000000e+00  5.1749199272622261e-02 0.0000000000000000e+00 0.0000000000000000e+00  4.5999288242355357e-02 0.0000000000000000e+00 0.0000000000000000e+00  3.7949412799952641e-02 0.0000000000000000e+00 0.0000000000000000e+00  2.7599572945437866e-02 0.0000000000000000e+00 0.0000000000000000e+00  1.4949768678780475e-02 0.0000000000000000e+00 0.0000000000000000e+00  0.0000000000000000e+00 0.0000000000000000e+00 0.0000000000000000e+00  0.0000000000000000e+00 0.0000000000000000e+00 0.0000000000000000e+00  0.0000000000000000e+00 0.0000000000000000e+00 0.0000000000000000e+00  0.0000000000000000e+00 0.0000000000000000e+00 0.0000000000000000e+00  0.0000000000000000e+00 0.0000000000000000e+00 0.0000000000000000e+00  0.0000000000000000e+00 0.0000000000000000e+00 0.0000000000000000e+00  0.0000000000000000e+00 0.0000000000000000e+00 0.0000000000000000e+00  0.0000000000000000e+00 0.0000000000000000e+00 0.0000000000000000e+00  0.0000000000000000e+00 0.0000000000000000e+00 0.0000000000000000e+00  0.0000000000000000e+00 0.0000000000000000e+00 0.0000000000000000e+00  0.0000000000000000e+00 0.0000000000000000e+00 0.0000000000000000e+00  0.0000000000000000e+00 0.0000000000000000e+00 0.0000000000000000e+00  0.0000000000000000e+00 0.0000000000000000e+00 0.0000000000000000e+00  0.0000000000000000e+00 0.0000000000000000e+00 0.0000000000000000e+00  0.0000000000000000e+00 0.0000000000000000e+00 0.0000000000000000e+00  0.0000000000000000e+00 0.0000000000000000e+00 0.0000000000000000e+00  0.0000000000000000e+00 0.0000000000000000e+00 0.0000000000000000e+00  0.0000000000000000e+00 0.0000000000000000e+00 0.0000000000000000e+00  0.0000000000000000e+00 0.0000000000000000e+00 0.0000000000000000e+00  0.0000000000000000e+00 0.0000000000000000e+00 0.0000000000000000e+00  0.0000000000000000e+00 0.0000000000000000e+00 0.0000000000000000e+00  0.0000000000000000e+00 0.0000000000000000e+00 0.0000000000000000e+00  0.0000000000000000e+00 0.0000000000000000e+00 0.0000000000000000e+00  0.0000000000000000e+00 0.0000000000000000e+00 0.0000000000000000e+00  0.0000000000000000e+00 0.0000000000000000e+00 0.0000000000000000e+00  0.0000000000000000e+00 0.0000000000000000e+00 0.0000000000000000e+00  0.0000000000000000e+00 0.0000000000000000e+00 0.0000000000000000e+00  0.0000000000000000e+00 0.0000000000000000e+00 0.0000000000000000e+00  0.0000000000000000e+00 0.0000000000000000e+00 0.0000000000000000e+00  0.0000000000000000e+00 0.0000000000000000e+00 0.0000000000000000e+00  0.0000000000000000e+00 0.0000000000000000e+00 0.0000000000000000e+00  0.0000000000000000e+00 0.0000000000000000e+00 0.0000000000000000e+00  0.0000000000000000e+00 0.0000000000000000e+00 0.0000000000000000e+00  0.0000000000000000e+00 0.0000000000000000e+00 0.0000000000000000e+00  0.0000000000000000e+00 0.0000000000000000e+00 0.0000000000000000e+00  0.0000000000000000e+00 0.0000000000000000e+00 0.0000000000000000e+00  0.0000000000000000e+00 0.0000000000000000e+00 0.0000000000000000e+00  0.0000000000000000e+00 0.0000000000000000e+00 0.0000000000000000e+00  4.1431916657384396e-02 6.1779853601400187e-04 0.0000000000000000e+00  3.4557482243303295e-02 -1.4670214306639450e-04 0.0000000000000000e+00  4.0972885015191335e-02 -6.7598610321374490e-04 0.0000000000000000e+00  0.0000000000000000e+00 0.0000000000000000e+00 0.0000000000000000e+00  0.0000000000000000e+00 0.0000000000000000e+00 0.0000000000000000e+00  0.0000000000000000e+00 0.0000000000000000e+00 0.0000000000000000e+00  0.0000000000000000e+00 0.0000000000000000e+00 0.0000000000000000e+00  0.0000000000000000e+00 0.0000000000000000e+00 0.0000000000000000e+00  0.0000000000000000e+00 0.0000000000000000e+00 0.0000000000000000e+00  0.0000000000000000e+00 0.0000000000000000e+00 0.0000000000000000e+00  0.0000000000000000e+00 0.0000000000000000e+00 0.0000000000000000e+00  0.0000000000000000e+00 0.0000000000000000e+00 0.0000000000000000e+00  0.0000000000000000e+00 0.0000000000000000e+00 0.0000000000000000e+00  0.0000000000000000e+00 0.0000000000000000e+00 0.0000000000000000e+00  0.0000000000000000e+00 0.0000000000000000e+00 0.0000000000000000e+00  0.0000000000000000e+00 0.0000000000000000e+00 0.0000000000000000e+00  0.0000000000000000e+00 0.0000000000000000e+00 0.0000000000000000e+00  0.0000000000000000e+00 0.0000000000000000e+00 0.0000000000000000e+00  0.0000000000000000e+00 0.0000000000000000e+00 0.0000000000000000e+00  0.0000000000000000e+00 0.0000000000000000e+00 0.0000000000000000e+00  0.0000000000000000e+00 0.0000000000000000e+00 0.0000000000000000e+00  0.0000000000000000e+00 0.0000000000000000e+00 0.0000000000000000e+00  0.0000000000000000e+00 0.0000000000000000e+00 0.0000000000000000e+00  0.0000000000000000e+00 0.0000000000000000e+00 0.0000000000000000e+00  0.0000000000000000e+00 0.0000000000000000e+00 0.0000000000000000e+00  0.0000000000000000e+00 0.0000000000000000e+00 0.0000000000000000e+00  0.0000000000000000e+00 0.0000000000000000e+00 0.0000000000000000e+00  0.0000000000000000e+00 0.0000000000000000e+00 0.0000000000000000e+00  0.0000000000000000e+00 0.0000000000000000e+00 0.0000000000000000e+00  0.0000000000000000e+00 0.0000000000000000e+00 0.0000000000000000e+00  0.0000000000000000e+00 0.0000000000000000e+00 0.0000000000000000e+00  0.0000000000000000e+00 0.0000000000000000e+00 0.0000000000000000e+00  0.0000000000000000e+00 0.0000000000000000e+00 0.0000000000000000e+00  0.0000000000000000e+00 0.0000000000000000e+00 0.0000000000000000e+00  0.0000000000000000e+00 0.0000000000000000e+00 0.0000000000000000e+00  0.0000000000000000e+00 0.0000000000000000e+00 0.0000000000000000e+00  0.0000000000000000e+00 0.0000000000000000e+00 0.0000000000000000e+00  0.0000000000000000e+00 0.0000000000000000e+00 0.0000000000000000e+00  0.0000000000000000e+00 0.0000000000000000e+00 0.0000000000000000e+00  0.0000000000000000e+00 0.0000000000000000e+00 0.0000000000000000e+00  0.0000000000000000e+00 0.0000000000000000e+00 0.0000000000000000e+00  0.0000000000000000e+00 0.0000000000000000e+00 0.0000000000000000e+00  0.0000000000000000e+00 0.0000000000000000e+00 0.0000000000000000e+00  0.0000000000000000e+00 0.0000000000000000e+00 0.0000000000000000e+00  0.0000000000000000e+00 0.0000000000000000e+00 0.0000000000000000e+00  0.0000000000000000e+00 0.0000000000000000e+00 0.0000000000000000e+00  0.0000000000000000e+00 0.0000000000000000e+00 0.0000000000000000e+00  0.0000000000000000e+00 0.0000000000000000e+00 0.0000000000000000e+00  0.0000000000000000e+00 0.0000000000000000e+00 0.0000000000000000e+00  0.0000000000000000e+00 0.0000000000000000e+00 0.0000000000000000e+00  0.0000000000000000e+00 0.0000000000000000e+00 0.0000000000000000e+00  0.0000000000000000e+00 0.0000000000000000e+00 0.0000000000000000e+00  0.0000000000000000e+00 0.0000000000000000e+00 0.0000000000000000e+00  0.0000000000000000e+00 0.0000000000000000e+00 0.0000000000000000e+00  0.0000000000000000e+00 0.0000000000000000e+00 0.0000000000000000e+00  0.0000000000000000e+00 0.0000000000000000e+00 0.0000000000000000e+00  0.0000000000000000e+00 0.0000000000000000e+00 0.0000000000000000e+00  0.0000000000000000e+00 0.0000000000000000e+00 0.0000000000000000e+00  0.0000000000000000e+00 0.0000000000000000e+00 0.0000000000000000e+00  0.0000000000000000e+00 0.0000000000000000e+00 0.0000000000000000e+00  0.0000000000000000e+00 0.0000000000000000e+00 0.0000000000000000e+00  0.0000000000000000e+00 0.0000000000000000e+00 0.0000000000000000e+00  0.0000000000000000e+00 0.0000000000000000e+00 0.0000000000000000e+00  0.0000000000000000e+00 0.0000000000000000e+00 0.0000000000000000e+00  0.0000000000000000e+00 0.0000000000000000e+00 0.0000000000000000e+00  0.0000000000000000e+00 0.0000000000000000e+00 0.0000000000000000e+00  0.0000000000000000e+00 0.0000000000000000e+00 0.0000000000000000e+00  0.0000000000000000e+00 0.0000000000000000e+00 0.0000000000000000e+00  0.0000000000000000e+00 0.0000000000000000e+00 0.0000000000000000e+00  0.0000000000000000e+00 0.0000000000000000e+00 0.0000000000000000e+00  0.0000000000000000e+00 0.0000000000000000e+00 0.0000000000000000e+00  0.0000000000000000e+00 0.0000000000000000e+00 0.0000000000000000e+00  0.0000000000000000e+00 0.0000000000000000e+00 0.0000000000000000e+00  0.0000000000000000e+00 0.0000000000000000e+00 0.0000000000000000e+00  0.0000000000000000e+00 0.0000000000000000e+00 0.0000000000000000e+00  0.0000000000000000e+00 0.0000000000000000e+00 0.0000000000000000e+00  0.0000000000000000e+00 0.0000000000000000e+00 0.0000000000000000e+00  0.0000000000000000e+00 0.0000000000000000e+00 0.0000000000000000e+00  0.0000000000000000e+00 0.0000000000000000e+00 0.0000000000000000e+00  0.0000000000000000e+00 0.0000000000000000e+00 0.0000000000000000e+00  0.0000000000000000e+00 0.0000000000000000e+00 0.0000000000000000e+00  7.3530696951327791e-08 -5.2481325397661525e-06 0.0000000000000000e+00  3.1919650725749186e-07 -5.8369079085562917e-06 0.0000000000000000e+00  7.9835548522771479e-07 -6.2727390184676003e-06 0.0000000000000000e+00  1.4090273043528177e-06 -6.6954169902757383e-06 0.0000000000000000e+00  2.0124000339912412e-06 -7.2417106317168607e-06 0.0000000000000000e+00  2.5914042076853839e-06 -7.9781954041665097e-06 0.0000000000000000e+00  3.1001040533232807e-06 -8.8189589594215239e-06 0.0000000000000000e+00  3.5516476307899351e-06 -9.8038770778970850e-06 0.0000000000000000e+00  3.9960128651367441e-06 -1.0906997434336478e-05 0.0000000000000000e+00  4.3428712684542366e-06 -1.2112431609362925e-05 0.0000000000000000e+00  4.6789273327028356e-06 -1.3462084034551488e-05 0.0000000000000000e+00  4.9213729204553480e-06 -1.4895893974333058e-05 0.0000000000000000e+00  5.1368427604409728e-06 -1.6453490072096046e-05 0.0000000000000000e+00  5.2804005304474810e-06 -1.8101013377921507e-05 0.0000000000000000e+00  5.3611409707066453e-06 -1.9854777093864009e-05 0.0000000000000000e+00  5.4234914445470881e-06 -2.1705929614148178e-05 0.0000000000000000e+00  5.3935032479368842e-06 -2.3623343229264299e-05 0.0000000000000000e+00  5.3373290386698872e-06 -2.5660949176206005e-05 0.0000000000000000e+00  5.1961064378699287e-06 -2.7744936302191192e-05 0.0000000000000000e+00  5.0254192071463725e-06 -2.9939098992721419e-05 0.0000000000000000e+00  4.7778970094046557e-06 -3.2176551742273158e-05 0.0000000000000000e+00  4.4830167247708544e-06 -3.4505297533423188e-05 0.0000000000000000e+00  4.1294505939266818e-06 -3.6888474344258510e-05 0.0000000000000000e+00  3.7118818160014943e-06 -3.9336816788463441e-05 0.0000000000000000e+00  3.2655526728662817e-06 -4.1848098025061568e-05 0.0000000000000000e+00  2.7426150860872242e-06 -4.4393873042176848e-05 0.0000000000000000e+00  2.1674118397989643e-06 -4.7026379100527873e-05 0.0000000000000000e+00  1.5319217495189531e-06 -4.9669262313623170e-05 0.0000000000000000e+00  8.4379845152555754e-07 -5.2391029382576762e-05 0.0000000000000000e+00  9.6928290245165718e-08 -5.5121041655164564e-05 0.0000000000000000e+00  -7.0273919715787387e-07 -5.7921630443534193e-05 0.0000000000000000e+00  -1.5619820803672174e-06 -6.0723923290502986e-05 0.0000000000000000e+00  -2.4722735789658345e-06 -6.3592285596616259e-05 0.0000000000000000e+00  -3.4432582252081644e-06 -6.6452535319070125e-05 0.0000000000000000e+00  -4.4696860960403003e-06 -6.9376665816988872e-05 0.0000000000000000e+00  -5.5529332226412508e-06 -7.2289370667982241e-05 0.0000000000000000e+00  -6.6891515966314635e-06 -7.5257338614405966e-05 0.0000000000000000e+00  -7.8826849903053256e-06 -7.8210596816450520e-05 0.0000000000000000e+00  -9.1320518452276180e-06 -8.1213955084865046e-05 0.0000000000000000e+00  -1.0441059660223961e-05 -8.4198423783153950e-05 0.0000000000000000e+00  -1.1813067019064049e-05 -8.7216651542689795e-05 0.0000000000000000e+00  -1.3230063263193311e-05 -9.0231639283921871e-05 0.0000000000000000e+00  -1.4714817311304954e-05 -9.3260370808223318e-05 0.0000000000000000e+00  -1.6232277555959291e-05 -9.6293048650688019e-05 0.0000000000000000e+00  -1.7815805434799068e-05 -9.9312231567750083e-05 0.0000000000000000e+00  -1.9419991444190263e-05 -1.0238034221545089e-04 0.0000000000000000e+00  -2.3354696084103366e-05 -1.0419600143468000e-04 0.0000000000000000e+00  -2.7529894313364812e-05 -1.0126723830117486e-04 0.0000000000000000e+00  -2.7786866115178731e-05 -9.6827985228297057e-05 0.0000000000000000e+00  -2.6158619956808698e-05 -9.3647959679875491e-05 0.0000000000000000e+00  -2.4556122658886459e-05 -9.0444245933212926e-05 0.0000000000000000e+00  -2.3013045120069615e-05 -8.7267569997041364e-05 0.0000000000000000e+00  -2.1505313837931644e-05 -8.4097844269255504e-05 0.0000000000000000e+00  -2.0064110540512521e-05 -8.0938844505096838e-05 0.0000000000000000e+00  -1.8659965606932482e-05 -7.7797904768168630e-05 0.0000000000000000e+00  -1.7318768451806927e-05 -7.4651287316800764e-05 0.0000000000000000e+00  -1.6023034136668741e-05 -7.1548284092632896e-05 0.0000000000000000e+00  -1.4783583742425664e-05 -6.8430015112524995e-05 0.0000000000000000e+00  -1.3587501784711234e-05 -6.5362702843172241e-05 0.0000000000000000e+00  -1.2449105136162814e-05 -6.2285510022648373e-05 0.0000000000000000e+00  -1.1351699982793932e-05 -5.9263996721186101e-05 0.0000000000000000e+00  -1.0311914818091028e-05 -5.6238220819636169e-05 0.0000000000000000e+00  -9.3100846207407114e-06 -5.3272766308568495e-05 0.0000000000000000e+00  -8.3678385198944391e-06 -5.0308352311517877e-05 0.0000000000000000e+00  -7.4618899217352456e-06 -4.7409713145433121e-05 0.0000000000000000e+00  -6.6172387280421702e-06 -4.4518252830312665e-05 0.0000000000000000e+00  -5.8057233480438159e-06 -4.1699687166958469e-05 0.0000000000000000e+00  -5.0567016037099341e-06 -3.8895492012339548e-05 0.0000000000000000e+00  -4.3376775051334407e-06 -3.6169803626962494e-05 0.0000000000000000e+00  -3.6832365068233836e-06 -3.3466945554184912e-05 0.0000000000000000e+00  -3.0643530589528274e-06 -3.0838670206823163e-05 0.0000000000000000e+00  -2.4963637163139367e-06 -2.8256624471592578e-05 0.0000000000000000e+00  -1.9864906115551419e-06 -2.5748794966704320e-05 0.0000000000000000e+00  -1.4911984283411432e-06 -2.3299227241265205e-05 0.0000000000000000e+00  -1.0633706376639076e-06 -2.0910125810778860e-05 0.0000000000000000e+00  -6.7141261850758150e-07 -1.8621754895270267e-05 0.0000000000000000e+00  -3.3456775052669552e-07 -1.6380108198935037e-05 0.0000000000000000e+00  -3.5901655644283216e-08 -1.4252299683163913e-05 0.0000000000000000e+00  2.0904802691945765e-07 -1.2176326170614638e-05 0.0000000000000000e+00  4.1963445025496555e-07 -1.0222862507196176e-05 0.0000000000000000e+00  5.7717269098500857e-07 -8.3366538886148186e-06 0.0000000000000000e+00  6.8023300401875113e-07 -6.5716439254751159e-06 0.0000000000000000e+00  7.7727114111652313e-07 -4.8898531910939805e-06 0.0000000000000000e+00  8.0610901558053508e-07 -3.3170946161283419e-06 0.0000000000000000e+00  8.0242284279428354e-07 -1.8796406680807539e-06 0.0000000000000000e+00  7.4438427259171756e-07 -5.3045080477646472e-07 0.0000000000000000e+00  6.6123955857551171e-07 6.6891508684196965e-07 0.0000000000000000e+00  5.2083419990833370e-07 1.7697034768343739e-06 0.0000000000000000e+00  3.2967649700365645e-07 2.7178264485032598e-06 0.0000000000000000e+00  1.4510016222420594e-07 3.5533210788780174e-06 0.0000000000000000e+00  -1.1316121508854938e-07 4.2860511643622775e-06 0.0000000000000000e+00  -3.1266526088742574e-07 4.8569892983240623e-06 0.0000000000000000e+00  -4.3840069702490615e-07 5.1229952691625935e-06 0.0000000000000000e+00  -2.9681596484716985e-07 4.9371906979485612e-06 0.0000000000000000e+00  -1.0664202312453879e-06 -1.8137197192567825e-07 0.0000000000000000e+00  -2.2865502962828892e-05 -9.8063132957956276e-05 0.0000000000000000e+00  -1.9708886924786596e-05 -9.2136995844462719e-05 0.0000000000000000e+00  -1.5178965069521677e-05 -8.2454265195844038e-05 0.0000000000000000e+00  3.9396956029584814e-07 -8.4824866703730801e-07 0.0000000000000000e+00  -1.2629427845028820e-05 -7.6393286288164669e-05 0.0000000000000000e+00  1.2101817312223150e-06 -1.9942012877780514e-06 0.0000000000000000e+00  -1.0192349228532167e-05 -7.0318802553513053e-05 0.0000000000000000e+00  2.2008383784705148e-06 -5.0249229744935742e-06 0.0000000000000000e+00  2.6216028727897382e-06 -7.6052849130967893e-06 0.0000000000000000e+00  -7.9674219769504373e-06 -6.4325519736082613e-05 0.0000000000000000e+00  2.7872012183009082e-06 -1.5933560635789632e-05 0.0000000000000000e+00  -4.1476299613586368e-06 -5.2661590360892431e-05 0.0000000000000000e+00  2.8207146788698105e-06 -1.0421057145410676e-05 0.0000000000000000e+00  2.5525674494862913e-06 -1.9914570173048013e-05 0.0000000000000000e+00  -2.5502165512615258e-06 -4.7036457469588254e-05 0.0000000000000000e+00  -5.9528662206087322e-06 -5.8432294719167899e-05 0.0000000000000000e+00  2.0858323187629862e-06 -2.4244091701613476e-05 0.0000000000000000e+00  -1.1603498738744888e-06 -4.1583305790165872e-05 0.0000000000000000e+00  1.4098677237696827e-06 -2.8625799437134782e-05 0.0000000000000000e+00  5.0472541922004536e-08 -3.6487589216709567e-05 0.0000000000000000e+00  8.0028679768979478e-07 -3.2338135809086675e-05 0.0000000000000000e+00  2.8819346992234093e-06 -1.3026871679622699e-05 0.0000000000000000e+00  -1.7561232463134191e-05 -8.7425473184654461e-05 0.0000000000000000e+00  1.7369977958644465e-06 -3.3827619040156069e-06 0.0000000000000000e+00  -2.2703748631704699e-05 -9.4076736752157883e-05 0.0000000000000000e+00  -3.8049958384998393e-07 1.6436661596031387e-06 0.0000000000000000e+00  -1.2564747593610229e-05 -7.2368078521303523e-05 0.0000000000000000e+00  -1.5119908047761223e-05 -7.8512957603593558e-05 0.0000000000000000e+00  1.1370459702784470e-06 -3.3545783435175925e-06 0.0000000000000000e+00  2.9332377600262016e-06 -7.7751045784328014e-06 0.0000000000000000e+00  -6.1450029420267479e-06 -5.4438020273913431e-05 0.0000000000000000e+00  -1.0218102790796234e-05 -6.6293853346263861e-05 0.0000000000000000e+00  3.4865646051498529e-06 -1.9253356812041031e-05 0.0000000000000000e+00  -4.4150615006365867e-06 -4.8699634829899541e-05 0.0000000000000000e+00  3.3399805579241471e-06 -1.0531979560785858e-05 0.0000000000000000e+00  3.1814035331685165e-06 -2.3385718226135450e-05 0.0000000000000000e+00  -2.8882232778513784e-06 -4.3120273631822178e-05 0.0000000000000000e+00  -8.0790273227785443e-06 -6.0310126672883646e-05 0.0000000000000000e+00  2.8748917220556433e-06 -2.8096820097614231e-05 0.0000000000000000e+00  -1.5624006909509482e-06 -3.7726633521910080e-05 0.0000000000000000e+00  -1.0840936974362747e-06 -1.2587089736113104e-06 0.0000000000000000e+00  -1.1242592923568515e-06 1.0797105775168749e-06 0.0000000000000000e+00  -2.3249250915564995e-05 -1.0116659850866265e-04 0.0000000000000000e+00  -1.28