<?xml version="1.0"?>
<VTKFile type="UnstructuredGrid"  version="0.1"  >
<UnstructuredGrid>
<Piece  NumberOfPoints="1419" NumberOfCells="2698">
<Points>
<DataArray  type="Float64"  NumberOfComponents="3"  format="ascii">0 0 0  0 0.41 0  2.5 0 0  2.5 0.41 0  0.6 0.19 0  0.6 0.21 0  0.25 0.2 0  0.15 0.2 0  0.2489897948556636 0.21 0  0.2489897948556636 0.19 0  0.6 0.2 0  0 0.3807142857143437 0  0 0.3514285714286952 0  0 0.3221428571430699 0  0 0.29285714285744 0  0 0.2635714285718054 0  0 0.2342857142861561 0  0 0.2050000000005308 0  0 0.175714285714732 0  0 0.1464285714289574 0  0 0.1171428571431897 0  0 0.08785714285737878 0  0 0.05857142857161107 0  0 0.02928571428580012 0  0.03015443760436003 0 0  0.06140001986583606 0 0  0.09377624077125973 0 0  0.1273239957535082 0 0  0.1620856860351972 0 0  0.1981052433264291 0 0  0.235428184091502 0 0  0.2741016576309132 0 0  0.3141745521465447 0 0  0.3556974926295285 0 0  0.3987229542472677 0 0  0.4433053055141081 0 0  0.4895008759286886 0 0  0.5373680609405097 0 0  0.5869673343216626 0 0  0.6383613676634521 0 0  0.6916151138468254 0 0  0.7467958595648856 0 0  0.8039733463919316 0 0  0.8632198139502143 0 0  0.9246101326867038 0 0  0.9882218810934433 0 0  1.054135445558498 0 0  1.122434100542598 0 0  1.193204177141305 0 0  1.266535089879536 0 0  1.342519516046404 0 0  1.421253448503939 0 0  1.502836389106271 0 0  1.587371439758838 0 0  1.674965418777374 0 0  1.765729001825544 0 0  1.859776908880082 0 0  1.957227977487062 0 0  2.058205329869943 0 0  2.162836591189951 0 0  2.271253957290865 0 0  2.383594446803425 0 0  2.5 0.1024999999997612 0  2.5 0.2049999999994743 0  2.5 0.3074999999997183 0  2.383594446803656 0.41 0  2.271253957291315 0.41 0  2.162836591190598 0.41 0  2.058205329870775 0.41 0  1.957227977488067 0.41 0  1.859776908881246 0.41 0  1.765729001826854 0.41 0  1.674965418778818 0.41 0  1.58737143976041 0.41 0  1.502836389107956 0.41 0  1.421253448505726 0.41 0  1.342519516048286 0.41 0  1.266535089881505 0.41 0  1.193204177143353 0.41 0  1.122434100544716 0.41 0  1.05413544556068 0.41 0  0.9882218810956305 0.41 0  0.9246101326886647 0.41 0  0.8632198139519631 0.41 0  0.8039733463934788 0.41 0  0.7467958595662458 0.41 0  0.6916151138480078 0.41 0  0.6383613676644679 0.41 0  0.5869673343225223 0.41 0  0.5373680609412221 0.41 0  0.4895008759292634 0.41 0  0.4433053055145528 0.41 0  0.3987229542475914 0.41 0  0.3556974926297398 0.41 0  0.3141745521466497 0.41 0  0.2741016576310038 0.41 0  0.2354281840915826 0.41 0  0.1981052433265003 0.41 0  0.1620856860352591 0.41 0  0.1273239957535623 0.41 0  0.09377624077128965 0.41 0  0.06140001986584975 0.41 0  0.03015443760436654 0.41 0  0.2497468076502589 0.2050254481002335 0  0.2497468076502614 0.1949745518997913 0  0.2469965252529372 0.1829317073451959 0  0.2439893735792749 0.1762316384219906 0  0.2400332147834255 0.1700443375285386 0  0.2352133972704371 0.1645032867342007 0  0.2296339016332438 0.1597280261969788 0  0.2234150974217223 0.1558215752574715 0  0.2166911463437691 0.1528682099456123 0  0.2096071079204251 0.1509316448471593 0  0.2023158100364996 0.1500536585536553 0  0.194974551899914 0.1502531923497262 0  0.1877417105387872 0.1515259415822739 0  0.1807733240461124 0.153844448527136 0  0.1742197252835808 0.15715869474974 0  0.1682222986673531 0.1613971801805478 0  0.162910430003803 0.1664684656256651 0  0.1583987151779087 0.1722631454351573 0  0.1547844879126891 0.178656207771761 0  0.1521457199348551 0.1855097315605723 0  0.1505393388476355 0.1926758619366523 0  0.1505393388476328 0.2073241380633295 0  0.1521457199348437 0.2144902684393899 0  0.1547844879126531 0.221343792228163 0  0.1583987151778488 0.2277368545647528 0  0.1629104300036858 0.2335315343742052 0  0.1682222986671726 0.2386028198193036 0  0.1742197252833576 0.2428413052501257 0  0.1807733240458683 0.2461555514727623 0  0.1877417105384929 0.2484740584176516 0  0.1949745518995776 0.2497468076502398 0  0.202315810036185 0.2499463414463592 0  0.2096071079201568 0.2490683551528932 0  0.2166911463435495 0.2471317900544655 0  0.2234150974215506 0.2441784247426195 0  0.2296339016331197 0.2402719738031125 0  0.2352133972703547 0.2354967132658811 0  0.2400332147833751 0.2299556624715287 0  0.2439893735792577 0.2237683615780412 0  0.246996525252926 0.2170682926548348 0  0.25645809709277 0.21 0  0.2639263993298655 0.21 0  0.271394701566961 0.21 0  0.2788630038040554 0.21 0  0.2863313060411479 0.21 0  0.2937996082782405 0.21 0  0.301267910515333 0.21 0  0.3087362127524279 0.21 0  0.3162045149895234 0.21 0  0.3236728172265972 0.21 0  0.3311411194636928 0.21 0  0.3386094217007701 0.21 0  0.3460777239378666 0.21 0  0.3535460261749672 0.21 0  0.3610143284120516 0.21 0  0.3684826306491596 0.21 0  0.3759509328862226 0.21 0  0.383419235123329 0.21 0  0.3908875373604028 0.21 0  0.3983558395975142 0.21 0  0.4058241418345938 0.21 0  0.4132924440716992 0.21 0  0.4207607463087888 0.21 0  0.4282290485459029 0.21 0  0.4356973507830418 0.21 0  0.4431656530201649 0.21 0  0.4506339552573136 0.21 0  0.4581022574944306 0.21 0  0.4655705597315852 0.21 0  0.4730388619686996 0.21 0  0.480507164205851 0.21 0  0.4879754664429498 0.21 0  0.4954437686800938 0.21 0  0.502912070917267 0.21 0  0.5103803731544119 0.21 0  0.5178486753915261 0.21 0  0.5253169776286404 0.21 0  0.5327852798657868 0.21 0  0.5402535821029386 0.21 0  0.54772188434007 0.21 0  0.5551901865771842 0.21 0  0.5626584888143201 0.21 0  0.5701267910514778 0.21 0  0.5775950932886138 0.21 0  0.5850633955257281 0.21 0  0.5925316977628483 0.21 0  0.6 0.2050000000000054 0  0.6 0.1950000000000217 0  0.5925316977628897 0.19 0  0.5850633955257988 0.19 0  0.5775950932887378 0.19 0  0.5701267910515998 0.19 0  0.5626584888145268 0.19 0  0.5551901865773963 0.19 0  0.547721884340339 0.19 0  0.5402535821032429 0.19 0  0.5327852798661811 0.19 0  0.5253169776290537 0.19 0  0.5178486753919799 0.19 0  0.5103803731549078 0.19 0  0.502912070917822 0.19 0  0.4954437686807294 0.19 0  0.4879754664436223 0.19 0  0.4805071642065402 0.19 0  0.4730388619694271 0.19 0  0.4655705597323621 0.19 0  0.4581022574952563 0.19 0  0.4506339552581777 0.19 0  0.4431656530210671 0.19 0  0.4356973507839815 0.19 0  0.4282290485468779 0.19 0  0.4207607463097617 0.19 0  0.4132924440726327 0.19 0  0.4058241418354857 0.19 0  0.3983558395983636 0.19 0  0.3908875373612097 0.19 0  0.3834192351240934 0.19 0  0.3759509328869369 0.19 0  0.3684826306498175 0.19 0  0.361014328412667 0.19 0  0.3535460261755617 0.19 0  0.3460777239384295 0.19 0  0.3386094217012945 0.19 0  0.3311411194641595 0.19 0  0.3236728172270245 0.19 0  0.3162045149898895 0.19 0  0.3087362127527544 0.19 0  0.3012679105156187 0.19 0  0.2937996082784807 0.19 0  0.2863313060413428 0.19 0  0.2788630038042048 0.19 0  0.2713947015670686 0.19 0  0.2639263993299336 0.19 0  0.2564580970927985 0.19 0  0.2607803159922026 0.2000727136295815 0  0.5887803774232762 0.2001272386983733 0  0.5745072403740523 0.2002044435018727 0  0.5511891430099709 0.2001122610077113 0  0.2751288526855082 0.20000000000002 0  0.5365194309847112 0.1999999999999436 0  0.2894621222999649 0.1998691686390484 0  0.5215828265105155 0.1999999999999228 0  0.3127789816668748 0.1998657885438805 0  0.3274069683451451 0.2000000000000796 0  0.5066462220363641 0.199999999999908 0  0.3650630746574081 0.199866017807523 0  0.476773013087985 0.1999999999998713 0  0.3417402379596385 0.1998691686391011 0  0.3796850840047755 0.200000000000134 0  0.4618364086138087 0.1999999999998546 0  0.4917096175621762 0.1999999999998808 0  0.3946216884789568 0.2000000000001512 0  0.446899804139621 0.1999999999998389 0  0.4089549580935208 0.1998691686391595 0  0.4322718174608562 0.200127451265745 0  0.4201487168029707 0.1999966199048527 0  0.3528922713220932 0.2000185703532356 0  0.5633122436674589 0.1999814296467508 0  0.3006558810093873 0.1999966199048318 0  0.5815926498168407 0.1966545283159175 0  0.2677053789419034 0.1964246479135325 0  0.5290511287476175 0.1970915826863981 0  0.5439877332217911 0.197091582686394 0  0.2825131256993216 0.2035478995978015 0  0.3199386661080599 0.202908417313604 0  0.4842413153250809 0.1970915826863873 0  0.5141145242734466 0.1970915826863843 0  0.3722167817676917 0.2029084173136195 0  0.4693047108508938 0.1970915826863783 0  0.3348752705822316 0.202908417313609 0  0.3871533862418661 0.2029084173136212 0  0.4543681063767183 0.1970915826863795 0  0.4991779197992749 0.1970915826863902 0  0.4020059614928624 0.203547899597858 0  0.4394315019025246 0.1970915826863714 0  0.2550657455369551 0.2034088125358657 0  0.2548908499171161 0.1966940311614271 0  0.5946539510196798 0.2024302972968126 0  0.267698176732111 0.2039977513680092 0  0.4261685417851465 0.196409292431739 0  0.3590076176283495 0.196411355804271 0  0.5571672426447437 0.2036011176410121 0  0.3066757059912147 0.1964092924317024 0  0.594380730180568 0.1966558399668133 0  0.4842413153245942 0.2040749161535287 0  0.4693047108503577 0.2040749161535231 0  0.3871533862424271 0.1959250838464788 0  0.372246743208829 0.1959123236376545 0  0.5141145242731028 0.2040749161535395 0  0.4543681063761134 0.2040749161535186 0  0.4019979587101454 0.1959834479682427 0  0.4394608940728603 0.2040870543693135 0  0.5439623148931173 0.2040856076781014 0  0.5290511287473298 0.2040749161535501 0  0.4991779197988497 0.2040749161535382 0  0.3347912413592433 0.1959225448935183 0  0.3199680582793816 0.1959123018030061 0  0.2825051229162361 0.1959834479681729 0  0.3590471196690275 0.2036304442587945 0  0.5571594006495384 0.1963685282145804 0  0.3067669986803285 0.203627750582736 0  0.4262598344738712 0.2036568242185335 0  0.5814408164431408 0.2041285596160068 0  0.5688286748170428 0.1961819304477386 0  0.4145905603063645 0.2038180695522843 0  0.3473758401724931 0.2038180695522752 0  0.2950977245128307 0.2038180695522663 0  0.5688286748170693 0.203818069552238 0  0.2950977245127906 0.1961819304477774 0  0.3473758401723931 0.1961819304478349 0  0.4145905603061963 0.1961819304479011 0  0.2601812407614425 0.2056861609747042
[...]
<PointData  Vectors="f_40-0"> 
<DataArray  type="Float64"  Name="f_40-0"  NumberOfComponents="3" format="ascii">0.0000000000000000e+00 0.0000000000000000e+00 0.0000000000000000e+00  0.0000000000000000e+00 0.0000000000000000e+00 0.0000000000000000e+00  0.0000000000000000e+00 0.0000000000000000e+00 0.0000000000000000e+00  0.0000000000000000e+00 0.0000000000000000e+00 0.0000000000000000e+00  1.5069803089100582e-08 6.6847655487272738e-07 0.0000000000000000e+00  -3.6180208470641162e-08 6.6453845737572053e-07 0.0000000000000000e+00  0.0000000000000000e+00 0.0000000000000000e+00 0.0000000000000000e+00  0.0000000000000000e+00 0.0000000000000000e+00 0.0000000000000000e+00  0.0000000000000000e+00 0.0000000000000000e+00 0.0000000000000000e+00  0.0000000000000000e+00 0.0000000000000000e+00 0.0000000000000000e+00  -1.0703425823798832e-08 6.5157732262826651e-07 0.0000000000000000e+00  7.9591836734548405e-01 0.0000000000000000e+00 0.0000000000000000e+00  1.4693877550994523e+00 0.0000000000000000e+00 0.0000000000000000e+00  2.0204081632617479e+00 0.0000000000000000e+00 0.0000000000000000e+00  2.4489795918330071e+00 0.0000000000000000e+00 0.0000000000000000e+00  2.7551020408131754e+00 0.0000000000000000e+00 0.0000000000000000e+00  2.9387755102022344e+00 0.0000000000000000e+00 0.0000000000000000e+00  3.0000000000000004e+00 0.0000000000000000e+00 0.0000000000000000e+00  2.9387755102059474e+00 0.0000000000000000e+00 0.0000000000000000e+00  2.7551020408195543e+00 0.0000000000000000e+00 0.0000000000000000e+00  2.4489795918409065e+00 0.0000000000000000e+00 0.0000000000000000e+00  2.0204081632692521e+00 0.0000000000000000e+00 0.0000000000000000e+00  1.4693877551058563e+00 0.0000000000000000e+00 0.0000000000000000e+00  7.9591836734909216e-01 0.0000000000000000e+00 0.0000000000000000e+00  0.0000000000000000e+00 0.0000000000000000e+00 0.0000000000000000e+00  0.0000000000000000e+00 0.0000000000000000e+00 0.0000000000000000e+00  0.0000000000000000e+00 0.0000000000000000e+00 0.0000000000000000e+00  0.0000000000000000e+00 0.0000000000000000e+00 0.0000000000000000e+00  0.0000000000000000e+00 0.0000000000000000e+00 0.0000000000000000e+00  0.0000000000000000e+00 0.0000000000000000e+00 0.0000000000000000e+00  0.0000000000000000e+00 0.0000000000000000e+00 0.0000000000000000e+00  0.0000000000000000e+00 0.0000000000000000e+00 0.0000000000000000e+00  0.0000000000000000e+00 0.0000000000000000e+00 0.0000000000000000e+00  0.0000000000000000e+00 0.0000000000000000e+00 0.0000000000000000e+00  0.0000000000000000e+00 0.0000000000000000e+00 0.0000000000000000e+00  0.0000000000000000e+00 0.0000000000000000e+00 0.0000000000000000e+00  0.0000000000000000e+00 0.0000000000000000e+00 0.0000000000000000e+00  0.0000000000000000e+00 0.0000000000000000e+00 0.0000000000000000e+00  0.0000000000000000e+00 0.0000000000000000e+00 0.0000000000000000e+00  0.0000000000000000e+00 0.0000000000000000e+00 0.0000000000000000e+00  0.0000000000000000e+00 0.0000000000000000e+00 0.0000000000000000e+00  0.0000000000000000e+00 0.0000000000000000e+00 0.0000000000000000e+00  0.0000000000000000e+00 0.0000000000000000e+00 0.0000000000000000e+00  0.0000000000000000e+00 0.0000000000000000e+00 0.0000000000000000e+00  0.0000000000000000e+00 0.0000000000000000e+00 0.0000000000000000e+00  0.0000000000000000e+00 0.0000000000000000e+00 0.0000000000000000e+00  0.0000000000000000e+00 0.0000000000000000e+00 0.0000000000000000e+00  0.0000000000000000e+00 0.0000000000000000e+00 0.0000000000000000e+00  0.0000000000000000e+00 0.0000000000000000e+00 0.0000000000000000e+00  0.0000000000000000e+00 0.0000000000000000e+00 0.0000000000000000e+00  0.0000000000000000e+00 0.0000000000000000e+00 0.0000000000000000e+00  0.0000000000000000e+00 0.0000000000000000e+00 0.0000000000000000e+00  0.0000000000000000e+00 0.0000000000000000e+00 0.0000000000000000e+00  0.0000000000000000e+00 0.0000000000000000e+00 0.0000000000000000e+00  0.0000000000000000e+00 0.0000000000000000e+00 0.0000000000000000e+00  0.0000000000000000e+00 0.0000000000000000e+00 0.0000000000000000e+00  0.0000000000000000e+00 0.0000000000000000e+00 0.0000000000000000e+00  0.0000000000000000e+00 0.0000000000000000e+00 0.0000000000000000e+00  0.0000000000000000e+00 0.0000000000000000e+00 0.0000000000000000e+00  0.0000000000000000e+00 0.0000000000000000e+00 0.0000000000000000e+00  0.0000000000000000e+00 0.0000000000000000e+00 0.0000000000000000e+00  0.0000000000000000e+00 0.0000000000000000e+00 0.0000000000000000e+00  2.6638041716533709e+00 1.8632271009947774e-02 0.0000000000000000e+00  2.3246547337655423e+00 1.8772313148660767e-02 0.0000000000000000e+00  2.8344662668804856e+00 7.1454844481967178e-02 0.0000000000000000e+00  0.0000000000000000e+00 0.0000000000000000e+00 0.0000000000000000e+00  0.0000000000000000e+00 0.0000000000000000e+00 0.0000000000000000e+00  0.0000000000000000e+00 0.0000000000000000e+00 0.0000000000000000e+00  0.0000000000000000e+00 0.0000000000000000e+00 0.0000000000000000e+00  0.0000000000000000e+00 0.0000000000000000e+00 0.0000000000000000e+00  0.0000000000000000e+00 0.0000000000000000e+00 0.0000000000000000e+00  0.0000000000000000e+00 0.0000000000000000e+00 0.0000000000000000e+00  0.0000000000000000e+00 0.0000000000000000e+00 0.0000000000000000e+00  0.0000000000000000e+00 0.0000000000000000e+00 0.0000000000000000e+00  0.0000000000000000e+00 0.0000000000000000e+00 0.0000000000000000e+00  0.0000000000000000e+00 0.0000000000000000e+00 0.0000000000000000e+00  0.0000000000000000e+00 0.0000000000000000e+00 0.0000000000000000e+00  0.0000000000000000e+00 0.0000000000000000e+00 0.0000000000000000e+00  0.0000000000000000e+00 0.0000000000000000e+00 0.0000000000000000e+00  0.0000000000000000e+00 0.0000000000000000e+00 0.0000000000000000e+00  0.0000000000000000e+00 0.0000000000000000e+00 0.0000000000000000e+00  0.0000000000000000e+00 0.0000000000000000e+00 0.0000000000000000e+00  0.0000000000000000e+00 0.0000000000000000e+00 0.0000000000000000e+00  0.0000000000000000e+00 0.0000000000000000e+00 0.0000000000000000e+00  0.0000000000000000e+00 0.0000000000000000e+00 0.0000000000000000e+00  0.0000000000000000e+00 0.0000000000000000e+00 0.0000000000000000e+00  0.0000000000000000e+00 0.0000000000000000e+00 0.0000000000000000e+00  0.0000000000000000e+00 0.0000000000000000e+00 0.0000000000000000e+00  0.0000000000000000e+00 0.0000000000000000e+00 0.0000000000000000e+00  0.0000000000000000e+00 0.0000000000000000e+00 0.0000000000000000e+00  0.0000000000000000e+00 0.0000000000000000e+00 0.0000000000000000e+00  0.0000000000000000e+00 0.0000000000000000e+00 0.0000000000000000e+00  0.0000000000000000e+00 0.0000000000000000e+00 0.0000000000000000e+00  0.0000000000000000e+00 0.0000000000000000e+00 0.0000000000000000e+00  0.0000000000000000e+00 0.0000000000000000e+00 0.0000000000000000e+00  0.0000000000000000e+00 0.0000000000000000e+00 0.0000000000000000e+00  0.0000000000000000e+00 0.0000000000000000e+00 0.0000000000000000e+00  0.0000000000000000e+00 0.0000000000000000e+00 0.0000000000000000e+00  0.0000000000000000e+00 0.0000000000000000e+00 0.0000000000000000e+00  0.0000000000000000e+00 0.0000000000000000e+00 0.0000000000000000e+00  0.0000000000000000e+00 0.0000000000000000e+00 0.0000000000000000e+00  0.0000000000000000e+00 0.0000000000000000e+00 0.0000000000000000e+00  0.0000000000000000e+00 0.0000000000000000e+00 0.0000000000000000e+00  0.0000000000000000e+00 0.0000000000000000e+00 0.0000000000000000e+00  0.0000000000000000e+00 0.0000000000000000e+00 0.0000000000000000e+00  0.0000000000000000e+00 0.0000000000000000e+00 0.0000000000000000e+00  0.0000000000000000e+00 0.0000000000000000e+00 0.0000000000000000e+00  0.0000000000000000e+00 0.0000000000000000e+00 0.0000000000000000e+00  0.0000000000000000e+00 0.0000000000000000e+00 0.0000000000000000e+00  0.0000000000000000e+00 0.0000000000000000e+00 0.0000000000000000e+00  0.0000000000000000e+00 0.0000000000000000e+00 0.0000000000000000e+00  0.0000000000000000e+00 0.0000000000000000e+00 0.0000000000000000e+00  0.0000000000000000e+00 0.0000000000000000e+00 0.0000000000000000e+00  0.0000000000000000e+00 0.0000000000000000e+00 0.0000000000000000e+00  0.0000000000000000e+00 0.0000000000000000e+00 0.0000000000000000e+00  0.0000000000000000e+00 0.0000000000000000e+00 0.0000000000000000e+00  0.0000000000000000e+00 0.0000000000000000e+00 0.0000000000000000e+00  0.0000000000000000e+00 0.0000000000000000e+00 0.0000000000000000e+00  0.0000000000000000e+00 0.0000000000000000e+00 0.0000000000000000e+00  0.0000000000000000e+00 0.0000000000000000e+00 0.0000000000000000e+00  0.0000000000000000e+00 0.0000000000000000e+00 0.0000000000000000e+00  0.0000000000000000e+00 0.0000000000000000e+00 0.0000000000000000e+00  0.0000000000000000e+00 0.0000000000000000e+00 0.0000000000000000e+00  0.0000000000000000e+00 0.0000000000000000e+00 0.0000000000000000e+00  0.0000000000000000e+00 0.0000000000000000e+00 0.0000000000000000e+00  0.0000000000000000e+00 0.0000000000000000e+00 0.0000000000000000e+00  0.0000000000000000e+00 0.0000000000000000e+00 0.0000000000000000e+00  0.0000000000000000e+00 0.0000000000000000e+00 0.0000000000000000e+00  0.0000000000000000e+00 0.0000000000000000e+00 0.0000000000000000e+00  0.0000000000000000e+00 0.0000000000000000e+00 0.0000000000000000e+00  0.0000000000000000e+00 0.0000000000000000e+00 0.0000000000000000e+00  0.0000000000000000e+00 0.0000000000000000e+00 0.0000000000000000e+00  0.0000000000000000e+00 0.0000000000000000e+00 0.0000000000000000e+00  0.0000000000000000e+00 0.0000000000000000e+00 0.0000000000000000e+00  0.0000000000000000e+00 0.0000000000000000e+00 0.0000000000000000e+00  0.0000000000000000e+00 0.0000000000000000e+00 0.0000000000000000e+00  0.0000000000000000e+00 0.0000000000000000e+00 0.0000000000000000e+00  0.0000000000000000e+00 0.0000000000000000e+00 0.0000000000000000e+00  0.0000000000000000e+00 0.0000000000000000e+00 0.0000000000000000e+00  0.0000000000000000e+00 0.0000000000000000e+00 0.0000000000000000e+00  0.0000000000000000e+00 0.0000000000000000e+00 0.0000000000000000e+00  0.0000000000000000e+00 0.0000000000000000e+00 0.0000000000000000e+00  0.0000000000000000e+00 0.0000000000000000e+00 0.0000000000000000e+00  -1.7353150815440180e-09 1.0560504795158427e-09 0.0000000000000000e+00  -3.6978196297988609e-09 2.9918742871600745e-09 0.0000000000000000e+00  -5.3773493925087782e-09 6.1504073096832273e-09 0.0000000000000000e+00  -7.1705787279609661e-09 1.0615545896626152e-08 0.0000000000000000e+00  -8.6326599069813045e-09 1.6101854748290638e-08 0.0000000000000000e+00  -1.0286321393597869e-08 2.2680418330591751e-08 0.0000000000000000e+00  -1.1576881486962565e-08 3.0173724837401330e-08 0.0000000000000000e+00  -1.2839605206191719e-08 3.8556938678203987e-08 0.0000000000000000e+00  -1.4257069431767367e-08 4.7807350842262992e-08 0.0000000000000000e+00  -1.5322078758190720e-08 5.7816136257736565e-08 0.0000000000000000e+00  -1.6609803213691316e-08 6.8587839889426936e-08 0.0000000000000000e+00  -1.7564962435713817e-08 8.0034709162055592e-08 0.0000000000000000e+00  -1.8688208624338240e-08 9.2125479709406150e-08 0.0000000000000000e+00  -1.9550251611149634e-08 1.0471253326323285e-07 0.0000000000000000e+00  -2.0417734361625741e-08 1.1792999225112576e-07 0.0000000000000000e+00  -2.1345882951813517e-08 1.3156126110502482e-07 0.0000000000000000e+00  -2.2069647197433674e-08 1.4566657775829505e-07 0.0000000000000000e+00  -2.2901928043488285e-08 1.6017664561010703e-07 0.0000000000000000e+00  -2.3543728015702705e-08 1.7506235475339282e-07 0.0000000000000000e+00  -2.4267940424899305e-08 1.9027980066130466e-07 0.0000000000000000e+00  -2.4859173928615028e-08 2.0580351321534755e-07 0.0000000000000000e+00  -2.5493934075348628e-08 2.2165976431723624e-07 0.0000000000000000e+00  -2.5996761770635513e-08 2.3751253103672434e-07 0.0000000000000000e+00  -2.6521803685284830e-08 2.5393259865017587e-07 0.0000000000000000e+00  -2.7039580164676464e-08 2.7031085657715260e-07 0.0000000000000000e+00  -2.7495787371348477e-08 2.8693464173423430e-07 0.0000000000000000e+00  -2.7943400765911519e-08 3.0367384570193222e-07 0.0000000000000000e+00  -2.8353910768721699e-08 3.2055574801812925e-07 0.0000000000000000e+00  -2.8754698482832743e-08 3.3754429032623002e-07 0.0000000000000000e+00  -2.9126592503841633e-08 3.5461519767546428e-07 0.0000000000000000e+00  -2.9489327629515520e-08 3.7178319661903636e-07 0.0000000000000000e+00  -2.9829586989522646e-08 3.8900343454896821e-07 0.0000000000000000e+00  -3.0161811864813424e-08 4.0627820287770396e-07 0.0000000000000000e+00  -3.0477423959992051e-08 4.2361900737724743e-07 0.0000000000000000e+00  -3.0785922725087358e-08 4.4097616458961945e-07 0.0000000000000000e+00  -3.1082761518792779e-08 4.5837500514879112e-07 0.0000000000000000e+00  -3.1374077117927092e-08 4.7579288106256103e-07 0.0000000000000000e+00  -3.1657356004460176e-08 4.9323228430159275e-07 0.0000000000000000e+00  -3.1937453684150463e-08 5.1070631613757560e-07 0.0000000000000000e+00  -3.2211680026961881e-08 5.2817597339893098e-07 0.0000000000000000e+00  -3.2491302601124890e-08 5.4577671330626874e-07 0.0000000000000000e+00  -3.2730474841001412e-08 5.6267113654414576e-07 0.0000000000000000e+00  -3.3034851503477423e-08 5.8087371604459392e-07 0.0000000000000000e+00  -3.3305337890693172e-08 5.9839083943340016e-07 0.0000000000000000e+00  -3.3574105719221695e-08 6.1575511493975353e-07 0.0000000000000000e+00  -3.3763173796300956e-08 6.3396906279573726e-07 0.0000000000000000e+00  -2.2368942129081480e-08 6.5102461267032802e-07 0.0000000000000000e+00  9.9407473732500076e-10 6.5195791655875543e-07 0.0000000000000000e+00  1.2906809591479128e-08 6.3446854110408758e-07 0.0000000000000000e+00  1.3244679250252848e-08 6.1659473967092604e-07 0.0000000000000000e+00  1.3473995666207016e-08 5.9891061577492775e-07 0.0000000000000000e+00  1.3740045877206109e-08 5.8160386495872410e-07 0.0000000000000000e+00  1.3969642952025499e-08 5.6338727718871946e-07 0.0000000000000000e+00  1.4246798562027106e-08 5.4648674472931672e-07 0.0000000000000000e+00  1.4489722558017393e-08 5.2878844226623307e-07 0.0000000000000000e+00  1.4742365582449335e-08 5.1134794039892872e-07 0.0000000000000000e+00  1.4985680982861122e-08 4.9388764882829089e-07 0.0000000000000000e+00  1.5228890306879436e-08 4.7644970491725637e-07 0.0000000000000000e+00  1.5458888860013033e-08 4.5902765136033809e-07 0.0000000000000000e+00  1.5689616940053318e-08 4.4163720006486947e-07 0.0000000000000000e+00  1.5899779555655141e-08 4.2427342415705161e-07 0.0000000000000000e+00  1.6112619192790771e-08 4.0695092910118392e-07 0.0000000000000000e+00  1.6295299435137723e-08 3.8966930372081623e-07 0.0000000000000000e+00  1.6484128416206455e-08 3.7244781069260431e-07 0.0000000000000000e+00  1.6630612232998336e-08 3.5528489631168924e-07 0.0000000000000000e+00  1.6788369317284023e-08 3.3820858795233139e-07 0.0000000000000000e+00  1.6888881589899978e-08 3.2121923590862663e-07 0.0000000000000000e+00  1.7007508036935925e-08 3.0434488159665478e-07 0.0000000000000000e+00  1.7049546785656240e-08 2.8759056855020020e-07 0.0000000000000000e+00  1.7117379765678399e-08 2.7098078162900596e-07 0.0000000000000000e+00  1.7098226933512389e-08 2.5459381007700732e-07 0.0000000000000000e+00  1.7079102036036656e-08 2.3818757462355993e-07 0.0000000000000000e+00  1.7060213461621211e-08 2.2232235556986859e-07 0.0000000000000000e+00  1.6924044954028165e-08 2.0647305114856365e-07 0.0000000000000000e+00  1.6795924278344406e-08 1.9094271043738211e-07 0.0000000000000000e+00  1.6581253589433912e-08 1.7571013500415328e-07 0.0000000000000000e+00  1.6357498357286321e-08 1.6081127401359261e-07 0.0000000000000000e+00  1.6040050711739018e-08 1.4628584746112822e-07 0.0000000000000000e+00  1.5713826239482560e-08 1.3214808443270730e-07 0.0000000000000000e+00  1.5228400484481370e-08 1.1852781816266809e-07 0.0000000000000000e+00  1.4793601961890934e-08 1.0528288575316410e-07 0.0000000000000000e+00  1.4339051530664191e-08 9.2697750453543097e-08 0.0000000000000000e+00  1.3658559978806404e-08 8.0537432586230756e-08 0.0000000000000000e+00  1.3010269966450140e-08 6.9104794800544976e-08 0.0000000000000000e+00  1.2207980383781044e-08 5.8304112909013928e-08 0.0000000000000000e+00  1.1416367305372411e-08 4.8242904193800569e-08 0.0000000000000000e+00  1.0365445263177374e-08 3.9035124398589053e-08 0.0000000000000000e+00  9.4421126294646951e-09 3.0621730905522585e-08 0.0000000000000000e+00  8.4753064104368454e-09 2.3121922786719121e-08 0.0000000000000000e+00  7.1658180117162997e-09 1.6483855650001104e-08 0.0000000000000000e+00  5.9617439632006439e-09 1.0971082176723516e-08 0.0000000000000000e+00  4.4552787033676371e-09 6.5762322455487129e-09 0.0000000000000000e+00  3.1096950595090655e-09 3.3761457551789560e-09 0.0000000000000000e+00  1.4525677677829286e-09 1.3673854420656140e-09 0.0000000000000000e+00  -2.7930851872939455e-10 1.4000187112660509e-09 0.0000000000000000e+00  -1.0584481841342640e-08 6.2370254652283466e-07 0.0000000000000000e+00  -1.0273070293587643e-08 5.9047204847237792e-07 0.0000000000000000e+00  -9.2376237407896000e-09 5.3597704683650739e-07 0.0000000000000000e+00  -5.1424611377634936e-10 7.7972106105078900e-09 0.0000000000000000e+00  -8.4606509598261885e-09 5.0172988516806922e-07 0.0000000000000000e+00  -6.9843144181381181e-10 1.8367153773828016e-08 0.0000000000000000e+00  -7.9362539293116733e-09 4.6691451451850498e-07 0.0000000000000000e+00  -1.1544878278169780e-09 4.3230743286278064e-08 0.0000000000000000e+00  -1.6752679471431921e-09 6.2956953623124182e-08 0.0000000000000000e+00  -7.4124564937221164e-09 4.3217699325564719e-07 0.0000000000000000e+00  -2.4589981298421434e-09 1.2521501407930139e-07 0.0000000000000000e+00  -6.3689295040188972e-09 3.6315012571176596e-07 0.0000000000000000e+00  -1.8407051591352341e-09 8.4902911904021070e-08 0.0000000000000000e+00  -3.1417077829167645e-09 1.5286246314299334e-07 0.0000000000000000e+00  -5.8512262030258836e-09 3.2901882807152288e-07 0.0000000000000000e+00  -6.8897480116010095e-09 3.9756591850846874e-07 0.0000000000000000e+00  -3.6072190869113855e-09 1.8263784392324993e-07 0.0000000000000000e+00  -5.3373300247771499e-09 2.9528637989222463e-07 0.0000000000000000e+00  -3.7928408879182382e-09 2.1241689757165310e-07 0.0000000000000000e+00  -5.1205937963350584e-09 2.6277211859352480e-07 0.0000000000000000e+00  -4.4281486159145416e-09 2.3629057199554851e-07 0.0000000000000000e+00  -2.3862357984920656e-09 1.0361206508398475e-07 0.0000000000000000e+00  -9.3562680483609662e-09 5.6397895457214345e-07 0.0000000000000000e+00  -1.0376431971704998e-09 2.9385507115111646e-08 0.0000000000000000e+00  -2.2559591131496702e-09 6.0651336272189232e-07 0.0000000000000000e+00  1.1157372351895581e-09 4.2141608409522593e-09 0.0000000000000000e+00  -1.4345009025163211e-09 4.8406897847311773e-07 0.0000000000000000e+00  -1.9503444808929173e-09 5.1886221125039517e-07 0.0000000000000000e+00  -3.1893133180528168e-09 1.2875550619184905e-08 0.0000000000000000e+00  -5.3516579360634640e-09 5.2561354111318265e-08 0.0000000000000000e+00  5.2010520513977365e-11 3.8019934704633190e-07 0.0000000000000000e+00  -9.2637090755344955e-10 4.4933216205923653e-07 0.0000000000000000e+00  -8.3650555098014123e-09 1.3845420857603549e-07 0.0000000000000000e+00  5.1301248662717219e-10 3.4594532046568025e-07 0.0000000000000000e+00  -6.2546902704264263e-09 7.4101192341836959e-08 0.0000000000000000e+00  -9.1191194683499494e-09 1.6746110430558693e-07 0.0000000000000000e+00  9.4776598657031733e-10 3.1202747115089808e-07 0.0000000000000000e+00  -4.2948927366602455e-10 4.1468831535733566e-07 0.0000000000000000e+00  -1.1157844653321129e-08 1.9768249796848020e-07 0.0000000000000000e+00  1.3523446494305754e-09 2.7857549276350301e-07 0.0000000000000000e+00  -4.3049314944181294e-10 2.8715694982246065e-10 0.0000000000000000e+00  1.0822171859073837e-10 3.3598742993167764e-10 0.0000000000000000e+00  -1.6238941413492201e-08 6.3701239378178998e-07 0.0000000000000000e+00  -2.0452931711180561e-09 4.0640351575118435e-09 0.0000000000000000e+00  3.1587874875064233e-09 2.4941438807215724e-07 0.000000000000