<?xml version="1.0"?>
<VTKFile type="UnstructuredGrid"  version="0.1"  >
<UnstructuredGrid>
<Piece  NumberOfPoints="1419" NumberOfCells="2698">
<Points>
<DataArray  type="Float64"  NumberOfComponents="3"  format="ascii">0 0 0  0 0.41 0  2.5 0 0  2.5 0.41 0  0.6 0.19 0  0.6 0.21 0  0.25 0.2 0  0.15 0.2 0  0.2489897948556636 0.21 0  0.2489897948556636 0.19 0  0.6 0.2 0  0 0.3807142857143437 0  0 0.3514285714286952 0  0 0.3221428571430699 0  0 0.29285714285744 0  0 0.2635714285718054 0  0 0.2342857142861561 0  0 0.2050000000005308 0  0 0.175714285714732 0  0 0.1464285714289574 0  0 0.1171428571431897 0  0 0.08785714285737878 0  0 0.05857142857161107 0  0 0.02928571428580012 0  0.03015443760436003 0 0  0.06140001986583606 0 0  0.09377624077125973 0 0  0.1273239957535082 0 0  0.1620856860351972 0 0  0.1981052433264291 0 0  0.235428184091502 0 0  0.2741016576309132 0 0  0.3141745521465447 0 0  0.3556974926295285 0 0  0.3987229542472677 0 0  0.4433053055141081 0 0  0.4895008759286886 0 0  0.5373680609405097 0 0  0.5869673343216626 0 0  0.6383613676634521 0 0  0.6916151138468254 0 0  0.7467958595648856 0 0  0.8039733463919316 0 0  0.8632198139502143 0 0  0.9246101326867038 0 0  0.9882218810934433 0 0  1.054135445558498 0 0  1.122434100542598 0 0  1.193204177141305 0 0  1.266535089879536 0 0  1.342519516046404 0 0  1.421253448503939 0 0  1.502836389106271 0 0  1.587371439758838 0 0  1.674965418777374 0 0  1.765729001825544 0 0  1.859776908880082 0 0  1.957227977487062 0 0  2.058205329869943 0 0  2.162836591189951 0 0  2.271253957290865 0 0  2.383594446803425 0 0  2.5 0.1024999999997612 0  2.5 0.2049999999994743 0  2.5 0.3074999999997183 0  2.383594446803656 0.41 0  2.271253957291315 0.41 0  2.162836591190598 0.41 0  2.058205329870775 0.41 0  1.957227977488067 0.41 0  1.859776908881246 0.41 0  1.765729001826854 0.41 0  1.674965418778818 0.41 0  1.58737143976041 0.41 0  1.502836389107956 0.41 0  1.421253448505726 0.41 0  1.342519516048286 0.41 0  1.266535089881505 0.41 0  1.193204177143353 0.41 0  1.122434100544716 0.41 0  1.05413544556068 0.41 0  0.9882218810956305 0.41 0  0.9246101326886647 0.41 0  0.8632198139519631 0.41 0  0.8039733463934788 0.41 0  0.7467958595662458 0.41 0  0.6916151138480078 0.41 0  0.6383613676644679 0.41 0  0.5869673343225223 0.41 0  0.5373680609412221 0.41 0  0.4895008759292634 0.41 0  0.4433053055145528 0.41 0  0.3987229542475914 0.41 0  0.3556974926297398 0.41 0  0.3141745521466497 0.41 0  0.2741016576310038 0.41 0  0.2354281840915826 0.41 0  0.1981052433265003 0.41 0  0.1620856860352591 0.41 0  0.1273239957535623 0.41 0  0.09377624077128965 0.41 0  0.06140001986584975 0.41 0  0.03015443760436654 0.41 0  0.2497468076502589 0.2050254481002335 0  0.2497468076502614 0.1949745518997913 0  0.2469965252529372 0.1829317073451959 0  0.2439893735792749 0.1762316384219906 0  0.2400332147834255 0.1700443375285386 0  0.2352133972704371 0.1645032867342007 0  0.2296339016332438 0.1597280261969788 0  0.2234150974217223 0.1558215752574715 0  0.2166911463437691 0.1528682099456123 0  0.2096071079204251 0.1509316448471593 0  0.2023158100364996 0.1500536585536553 0  0.194974551899914 0.1502531923497262 0  0.1877417105387872 0.1515259415822739 0  0.1807733240461124 0.153844448527136 0  0.1742197252835808 0.15715869474974 0  0.1682222986673531 0.1613971801805478 0  0.162910430003803 0.1664684656256651 0  0.1583987151779087 0.1722631454351573 0  0.1547844879126891 0.178656207771761 0  0.1521457199348551 0.1855097315605723 0  0.1505393388476355 0.1926758619366523 0  0.1505393388476328 0.2073241380633295 0  0.1521457199348437 0.2144902684393899 0  0.1547844879126531 0.221343792228163 0  0.1583987151778488 0.2277368545647528 0  0.1629104300036858 0.2335315343742052 0  0.1682222986671726 0.2386028198193036 0  0.1742197252833576 0.2428413052501257 0  0.1807733240458683 0.2461555514727623 0  0.1877417105384929 0.2484740584176516 0  0.1949745518995776 0.2497468076502398 0  0.202315810036185 0.2499463414463592 0  0.2096071079201568 0.2490683551528932 0  0.2166911463435495 0.2471317900544655 0  0.2234150974215506 0.2441784247426195 0  0.2296339016331197 0.2402719738031125 0  0.2352133972703547 0.2354967132658811 0  0.2400332147833751 0.2299556624715287 0  0.2439893735792577 0.2237683615780412 0  0.246996525252926 0.2170682926548348 0  0.25645809709277 0.21 0  0.2639263993298655 0.21 0  0.271394701566961 0.21 0  0.2788630038040554 0.21 0  0.2863313060411479 0.21 0  0.2937996082782405 0.21 0  0.301267910515333 0.21 0  0.3087362127524279 0.21 0  0.3162045149895234 0.21 0  0.3236728172265972 0.21 0  0.3311411194636928 0.21 0  0.3386094217007701 0.21 0  0.3460777239378666 0.21 0  0.3535460261749672 0.21 0  0.3610143284120516 0.21 0  0.3684826306491596 0.21 0  0.3759509328862226 0.21 0  0.383419235123329 0.21 0  0.3908875373604028 0.21 0  0.3983558395975142 0.21 0  0.4058241418345938 0.21 0  0.4132924440716992 0.21 0  0.4207607463087888 0.21 0  0.4282290485459029 0.21 0  0.4356973507830418 0.21 0  0.4431656530201649 0.21 0  0.4506339552573136 0.21 0  0.4581022574944306 0.21 0  0.4655705597315852 0.21 0  0.4730388619686996 0.21 0  0.480507164205851 0.21 0  0.4879754664429498 0.21 0  0.4954437686800938 0.21 0  0.502912070917267 0.21 0  0.5103803731544119 0.21 0  0.5178486753915261 0.21 0  0.5253169776286404 0.21 0  0.5327852798657868 0.21 0  0.5402535821029386 0.21 0  0.54772188434007 0.21 0  0.5551901865771842 0.21 0  0.5626584888143201 0.21 0  0.5701267910514778 0.21 0  0.5775950932886138 0.21 0  0.5850633955257281 0.21 0  0.5925316977628483 0.21 0  0.6 0.2050000000000054 0  0.6 0.1950000000000217 0  0.5925316977628897 0.19 0  0.5850633955257988 0.19 0  0.5775950932887378 0.19 0  0.5701267910515998 0.19 0  0.5626584888145268 0.19 0  0.5551901865773963 0.19 0  0.547721884340339 0.19 0  0.5402535821032429 0.19 0  0.5327852798661811 0.19 0  0.5253169776290537 0.19 0  0.5178486753919799 0.19 0  0.5103803731549078 0.19 0  0.502912070917822 0.19 0  0.4954437686807294 0.19 0  0.4879754664436223 0.19 0  0.4805071642065402 0.19 0  0.4730388619694271 0.19 0  0.4655705597323621 0.19 0  0.4581022574952563 0.19 0  0.4506339552581777 0.19 0  0.4431656530210671 0.19 0  0.4356973507839815 0.19 0  0.4282290485468779 0.19 0  0.4207607463097617 0.19 0  0.4132924440726327 0.19 0  0.4058241418354857 0.19 0  0.3983558395983636 0.19 0  0.3908875373612097 0.19 0  0.3834192351240934 0.19 0  0.3759509328869369 0.19 0  0.3684826306498175 0.19 0  0.361014328412667 0.19 0  0.3535460261755617 0.19 0  0.3460777239384295 0.19 0  0.3386094217012945 0.19 0  0.3311411194641595 0.19 0  0.3236728172270245 0.19 0  0.3162045149898895 0.19 0  0.3087362127527544 0.19 0  0.3012679105156187 0.19 0  0.2937996082784807 0.19 0  0.2863313060413428 0.19 0  0.2788630038042048 0.19 0  0.2713947015670686 0.19 0  0.2639263993299336 0.19 0  0.2564580970927985 0.19 0  0.2607803159922026 0.2000727136295815 0  0.5887803774232762 0.2001272386983733 0  0.5745072403740523 0.2002044435018727 0  0.5511891430099709 0.2001122610077113 0  0.2751288526855082 0.20000000000002 0  0.5365194309847112 0.1999999999999436 0  0.2894621222999649 0.1998691686390484 0  0.5215828265105155 0.1999999999999228 0  0.3127789816668748 0.1998657885438805 0  0.3274069683451451 0.2000000000000796 0  0.5066462220363641 0.199999999999908 0  0.3650630746574081 0.199866017807523 0  0.476773013087985 0.1999999999998713 0  0.3417402379596385 0.1998691686391011 0  0.3796850840047755 0.200000000000134 0  0.4618364086138087 0.1999999999998546 0  0.4917096175621762 0.1999999999998808 0  0.3946216884789568 0.2000000000001512 0  0.446899804139621 0.1999999999998389 0  0.4089549580935208 0.1998691686391595 0  0.4322718174608562 0.200127451265745 0  0.4201487168029707 0.1999966199048527 0  0.3528922713220932 0.2000185703532356 0  0.5633122436674589 0.1999814296467508 0  0.3006558810093873 0.1999966199048318 0  0.5815926498168407 0.1966545283159175 0  0.2677053789419034 0.1964246479135325 0  0.5290511287476175 0.1970915826863981 0  0.5439877332217911 0.197091582686394 0  0.2825131256993216 0.2035478995978015 0  0.3199386661080599 0.202908417313604 0  0.4842413153250809 0.1970915826863873 0  0.5141145242734466 0.1970915826863843 0  0.3722167817676917 0.2029084173136195 0  0.4693047108508938 0.1970915826863783 0  0.3348752705822316 0.202908417313609 0  0.3871533862418661 0.2029084173136212 0  0.4543681063767183 0.1970915826863795 0  0.4991779197992749 0.1970915826863902 0  0.4020059614928624 0.203547899597858 0  0.4394315019025246 0.1970915826863714 0  0.2550657455369551 0.2034088125358657 0  0.2548908499171161 0.1966940311614271 0  0.5946539510196798 0.2024302972968126 0  0.267698176732111 0.2039977513680092 0  0.4261685417851465 0.196409292431739 0  0.3590076176283495 0.196411355804271 0  0.5571672426447437 0.2036011176410121 0  0.3066757059912147 0.1964092924317024 0  0.594380730180568 0.1966558399668133 0  0.4842413153245942 0.2040749161535287 0  0.4693047108503577 0.2040749161535231 0  0.3871533862424271 0.1959250838464788 0  0.372246743208829 0.1959123236376545 0  0.5141145242731028 0.2040749161535395 0  0.4543681063761134 0.2040749161535186 0  0.4019979587101454 0.1959834479682427 0  0.4394608940728603 0.2040870543693135 0  0.5439623148931173 0.2040856076781014 0  0.5290511287473298 0.2040749161535501 0  0.4991779197988497 0.2040749161535382 0  0.3347912413592433 0.1959225448935183 0  0.3199680582793816 0.1959123018030061 0  0.2825051229162361 0.1959834479681729 0  0.3590471196690275 0.2036304442587945 0  0.5571594006495384 0.1963685282145804 0  0.3067669986803285 0.203627750582736 0  0.4262598344738712 0.2036568242185335 0  0.5814408164431408 0.2041285596160068 0  0.5688286748170428 0.1961819304477386 0  0.4145905603063645 0.2038180695522843 0  0.3473758401724931 0.2038180695522752 0  0.2950977245128307 0.2038180695522663 0  0.5688286748170693 0.203818069552238 0  0.2950977245127906 0.1961819304477774 0  0.3473758401723931 0.1961819304478349 0  0.4145905603061963 0.1961819304479011 0  0.2601812407614425 0.2056861609747042
[...]
<PointData  Vectors="f_40-0"> 
<DataArray  type="Float64"  Name="f_40-0"  NumberOfComponents="3" format="ascii">0.0000000000000000e+00 0.0000000000000000e+00 0.0000000000000000e+00  0.0000000000000000e+00 0.0000000000000000e+00 0.0000000000000000e+00  0.0000000000000000e+00 0.0000000000000000e+00 0.0000000000000000e+00  0.0000000000000000e+00 0.0000000000000000e+00 0.0000000000000000e+00  1.2510278261255178e-08 4.9924374785245428e-07 0.0000000000000000e+00  -2.7191681629502284e-08 4.9550961743274395e-07 0.0000000000000000e+00  0.0000000000000000e+00 0.0000000000000000e+00 0.0000000000000000e+00  0.0000000000000000e+00 0.0000000000000000e+00 0.0000000000000000e+00  0.0000000000000000e+00 0.0000000000000000e+00 0.0000000000000000e+00  0.0000000000000000e+00 0.0000000000000000e+00 0.0000000000000000e+00  -7.4887250057966701e-09 4.8244494753196816e-07 0.0000000000000000e+00  7.9591836734548405e-01 0.0000000000000000e+00 0.0000000000000000e+00  1.4693877550994523e+00 0.0000000000000000e+00 0.0000000000000000e+00  2.0204081632617479e+00 0.0000000000000000e+00 0.0000000000000000e+00  2.4489795918330071e+00 0.0000000000000000e+00 0.0000000000000000e+00  2.7551020408131754e+00 0.0000000000000000e+00 0.0000000000000000e+00  2.9387755102022344e+00 0.0000000000000000e+00 0.0000000000000000e+00  3.0000000000000004e+00 0.0000000000000000e+00 0.0000000000000000e+00  2.9387755102059474e+00 0.0000000000000000e+00 0.0000000000000000e+00  2.7551020408195543e+00 0.0000000000000000e+00 0.0000000000000000e+00  2.4489795918409065e+00 0.0000000000000000e+00 0.0000000000000000e+00  2.0204081632692521e+00 0.0000000000000000e+00 0.0000000000000000e+00  1.4693877551058563e+00 0.0000000000000000e+00 0.0000000000000000e+00  7.9591836734909216e-01 0.0000000000000000e+00 0.0000000000000000e+00  0.0000000000000000e+00 0.0000000000000000e+00 0.0000000000000000e+00  0.0000000000000000e+00 0.0000000000000000e+00 0.0000000000000000e+00  0.0000000000000000e+00 0.0000000000000000e+00 0.0000000000000000e+00  0.0000000000000000e+00 0.0000000000000000e+00 0.0000000000000000e+00  0.0000000000000000e+00 0.0000000000000000e+00 0.0000000000000000e+00  0.0000000000000000e+00 0.0000000000000000e+00 0.0000000000000000e+00  0.0000000000000000e+00 0.0000000000000000e+00 0.0000000000000000e+00  0.0000000000000000e+00 0.0000000000000000e+00 0.0000000000000000e+00  0.0000000000000000e+00 0.0000000000000000e+00 0.0000000000000000e+00  0.0000000000000000e+00 0.0000000000000000e+00 0.0000000000000000e+00  0.0000000000000000e+00 0.0000000000000000e+00 0.0000000000000000e+00  0.0000000000000000e+00 0.0000000000000000e+00 0.0000000000000000e+00  0.0000000000000000e+00 0.0000000000000000e+00 0.0000000000000000e+00  0.0000000000000000e+00 0.0000000000000000e+00 0.0000000000000000e+00  0.0000000000000000e+00 0.0000000000000000e+00 0.0000000000000000e+00  0.0000000000000000e+00 0.0000000000000000e+00 0.0000000000000000e+00  0.0000000000000000e+00 0.0000000000000000e+00 0.0000000000000000e+00  0.0000000000000000e+00 0.0000000000000000e+00 0.0000000000000000e+00  0.0000000000000000e+00 0.0000000000000000e+00 0.0000000000000000e+00  0.0000000000000000e+00 0.0000000000000000e+00 0.0000000000000000e+00  0.0000000000000000e+00 0.0000000000000000e+00 0.0000000000000000e+00  0.0000000000000000e+00 0.0000000000000000e+00 0.0000000000000000e+00  0.0000000000000000e+00 0.0000000000000000e+00 0.0000000000000000e+00  0.0000000000000000e+00 0.0000000000000000e+00 0.0000000000000000e+00  0.0000000000000000e+00 0.0000000000000000e+00 0.0000000000000000e+00  0.0000000000000000e+00 0.0000000000000000e+00 0.0000000000000000e+00  0.0000000000000000e+00 0.0000000000000000e+00 0.0000000000000000e+00  0.0000000000000000e+00 0.0000000000000000e+00 0.0000000000000000e+00  0.0000000000000000e+00 0.0000000000000000e+00 0.0000000000000000e+00  0.0000000000000000e+00 0.0000000000000000e+00 0.0000000000000000e+00  0.0000000000000000e+00 0.0000000000000000e+00 0.0000000000000000e+00  0.0000000000000000e+00 0.0000000000000000e+00 0.0000000000000000e+00  0.0000000000000000e+00 0.0000000000000000e+00 0.0000000000000000e+00  0.0000000000000000e+00 0.0000000000000000e+00 0.0000000000000000e+00  0.0000000000000000e+00 0.0000000000000000e+00 0.0000000000000000e+00  0.0000000000000000e+00 0.0000000000000000e+00 0.0000000000000000e+00  0.0000000000000000e+00 0.0000000000000000e+00 0.0000000000000000e+00  0.0000000000000000e+00 0.0000000000000000e+00 0.0000000000000000e+00  2.6637203081598750e+00 1.8710810887500366e-02 0.0000000000000000e+00  2.3247029380877291e+00 1.8818898454069113e-02 0.0000000000000000e+00  2.8345253158781305e+00 7.1505703551773589e-02 0.0000000000000000e+00  0.0000000000000000e+00 0.0000000000000000e+00 0.0000000000000000e+00  0.0000000000000000e+00 0.0000000000000000e+00 0.0000000000000000e+00  0.0000000000000000e+00 0.0000000000000000e+00 0.0000000000000000e+00  0.0000000000000000e+00 0.0000000000000000e+00 0.0000000000000000e+00  0.0000000000000000e+00 0.0000000000000000e+00 0.0000000000000000e+00  0.0000000000000000e+00 0.0000000000000000e+00 0.0000000000000000e+00  0.0000000000000000e+00 0.0000000000000000e+00 0.0000000000000000e+00  0.0000000000000000e+00 0.0000000000000000e+00 0.0000000000000000e+00  0.0000000000000000e+00 0.0000000000000000e+00 0.0000000000000000e+00  0.0000000000000000e+00 0.0000000000000000e+00 0.0000000000000000e+00  0.0000000000000000e+00 0.0000000000000000e+00 0.0000000000000000e+00  0.0000000000000000e+00 0.0000000000000000e+00 0.0000000000000000e+00  0.0000000000000000e+00 0.0000000000000000e+00 0.0000000000000000e+00  0.0000000000000000e+00 0.0000000000000000e+00 0.0000000000000000e+00  0.0000000000000000e+00 0.0000000000000000e+00 0.0000000000000000e+00  0.0000000000000000e+00 0.0000000000000000e+00 0.0000000000000000e+00  0.0000000000000000e+00 0.0000000000000000e+00 0.0000000000000000e+00  0.0000000000000000e+00 0.0000000000000000e+00 0.0000000000000000e+00  0.0000000000000000e+00 0.0000000000000000e+00 0.0000000000000000e+00  0.0000000000000000e+00 0.0000000000000000e+00 0.0000000000000000e+00  0.0000000000000000e+00 0.0000000000000000e+00 0.0000000000000000e+00  0.0000000000000000e+00 0.0000000000000000e+00 0.0000000000000000e+00  0.0000000000000000e+00 0.0000000000000000e+00 0.0000000000000000e+00  0.0000000000000000e+00 0.0000000000000000e+00 0.0000000000000000e+00  0.0000000000000000e+00 0.0000000000000000e+00 0.0000000000000000e+00  0.0000000000000000e+00 0.0000000000000000e+00 0.0000000000000000e+00  0.0000000000000000e+00 0.0000000000000000e+00 0.0000000000000000e+00  0.0000000000000000e+00 0.0000000000000000e+00 0.0000000000000000e+00  0.0000000000000000e+00 0.0000000000000000e+00 0.0000000000000000e+00  0.0000000000000000e+00 0.0000000000000000e+00 0.0000000000000000e+00  0.0000000000000000e+00 0.0000000000000000e+00 0.0000000000000000e+00  0.0000000000000000e+00 0.0000000000000000e+00 0.0000000000000000e+00  0.0000000000000000e+00 0.0000000000000000e+00 0.0000000000000000e+00  0.0000000000000000e+00 0.0000000000000000e+00 0.0000000000000000e+00  0.0000000000000000e+00 0.0000000000000000e+00 0.0000000000000000e+00  0.0000000000000000e+00 0.0000000000000000e+00 0.0000000000000000e+00  0.0000000000000000e+00 0.0000000000000000e+00 0.0000000000000000e+00  0.0000000000000000e+00 0.0000000000000000e+00 0.0000000000000000e+00  0.0000000000000000e+00 0.0000000000000000e+00 0.0000000000000000e+00  0.0000000000000000e+00 0.0000000000000000e+00 0.0000000000000000e+00  0.0000000000000000e+00 0.0000000000000000e+00 0.0000000000000000e+00  0.0000000000000000e+00 0.0000000000000000e+00 0.0000000000000000e+00  0.0000000000000000e+00 0.0000000000000000e+00 0.0000000000000000e+00  0.0000000000000000e+00 0.0000000000000000e+00 0.0000000000000000e+00  0.0000000000000000e+00 0.0000000000000000e+00 0.0000000000000000e+00  0.0000000000000000e+00 0.0000000000000000e+00 0.0000000000000000e+00  0.0000000000000000e+00 0.0000000000000000e+00 0.0000000000000000e+00  0.0000000000000000e+00 0.0000000000000000e+00 0.0000000000000000e+00  0.0000000000000000e+00 0.0000000000000000e+00 0.0000000000000000e+00  0.0000000000000000e+00 0.0000000000000000e+00 0.0000000000000000e+00  0.0000000000000000e+00 0.0000000000000000e+00 0.0000000000000000e+00  0.0000000000000000e+00 0.0000000000000000e+00 0.0000000000000000e+00  0.0000000000000000e+00 0.0000000000000000e+00 0.0000000000000000e+00  0.0000000000000000e+00 0.0000000000000000e+00 0.0000000000000000e+00  0.0000000000000000e+00 0.0000000000000000e+00 0.0000000000000000e+00  0.0000000000000000e+00 0.0000000000000000e+00 0.0000000000000000e+00  0.0000000000000000e+00 0.0000000000000000e+00 0.0000000000000000e+00  0.0000000000000000e+00 0.0000000000000000e+00 0.0000000000000000e+00  0.0000000000000000e+00 0.0000000000000000e+00 0.0000000000000000e+00  0.0000000000000000e+00 0.0000000000000000e+00 0.0000000000000000e+00  0.0000000000000000e+00 0.0000000000000000e+00 0.0000000000000000e+00  0.0000000000000000e+00 0.0000000000000000e+00 0.0000000000000000e+00  0.0000000000000000e+00 0.0000000000000000e+00 0.0000000000000000e+00  0.0000000000000000e+00 0.0000000000000000e+00 0.0000000000000000e+00  0.0000000000000000e+00 0.0000000000000000e+00 0.0000000000000000e+00  0.0000000000000000e+00 0.0000000000000000e+00 0.0000000000000000e+00  0.0000000000000000e+00 0.0000000000000000e+00 0.0000000000000000e+00  0.0000000000000000e+00 0.0000000000000000e+00 0.0000000000000000e+00  0.0000000000000000e+00 0.0000000000000000e+00 0.0000000000000000e+00  0.0000000000000000e+00 0.0000000000000000e+00 0.0000000000000000e+00  0.0000000000000000e+00 0.0000000000000000e+00 0.0000000000000000e+00  0.0000000000000000e+00 0.0000000000000000e+00 0.0000000000000000e+00  0.0000000000000000e+00 0.0000000000000000e+00 0.0000000000000000e+00  0.0000000000000000e+00 0.0000000000000000e+00 0.0000000000000000e+00  0.0000000000000000e+00 0.0000000000000000e+00 0.0000000000000000e+00  0.0000000000000000e+00 0.0000000000000000e+00 0.0000000000000000e+00  0.0000000000000000e+00 0.0000000000000000e+00 0.0000000000000000e+00  0.0000000000000000e+00 0.0000000000000000e+00 0.0000000000000000e+00  -1.1957191010524912e-09 6.9428534351742334e-10 0.0000000000000000e+00  -2.5702108850190645e-09 2.0216883498149665e-09 0.0000000000000000e+00  -3.7478729465323868e-09 4.2106040395696205e-09 0.0000000000000000e+00  -5.0193095537239675e-09 7.3299066709116480e-09 0.0000000000000000e+00  -6.0559569226916281e-09 1.1178725856844810e-08 0.0000000000000000e+00  -7.2464108728214758e-09 1.5805562694156271e-08 0.0000000000000000e+00  -8.1697914320699936e-09 2.1125544846160964e-08 0.0000000000000000e+00  -9.0865820017347447e-09 2.7053425194270868e-08 0.0000000000000000e+00  -1.0123560956040496e-08 3.3644677262521385e-08 0.0000000000000000e+00  -1.0900821865895150e-08 4.0791725826230659e-08 0.0000000000000000e+00  -1.1857029053207912e-08 4.8509381435840677e-08 0.0000000000000000e+00  -1.2562118653408698e-08 5.6737261524326657e-08 0.0000000000000000e+00  -1.3408274188111333e-08 6.5455349790170363e-08 0.0000000000000000e+00  -1.4048409451161931e-08 7.4552428049134312e-08 0.0000000000000000e+00  -1.4707035882148725e-08 8.4141998012027569e-08 0.0000000000000000e+00  -1.5413231311788260e-08 9.4048216221051074e-08 0.0000000000000000e+00  -1.5962436398522438e-08 1.0433430483019313e-07 0.0000000000000000e+00  -1.6604114646505693e-08 1.1493799264016927e-07 0.0000000000000000e+00  -1.7094697726863521e-08 1.2584704827875790e-07 0.0000000000000000e+00  -1.7657675002393133e-08 1.3702424162697098e-07 0.0000000000000000e+00  -1.8113356466484949e-08 1.4845329439605238e-07 0.0000000000000000e+00  -1.8611053885701766e-08 1.6016563697868125e-07 0.0000000000000000e+00  -1.8994962090262587e-08 1.7184234730889632e-07 0.0000000000000000e+00  -1.9407440721392121e-08 1.8404791175438020e-07 0.0000000000000000e+00  -1.9812072517251253e-08 1.9618867381746328e-07 0.0000000000000000e+00  -2.0166632887019672e-08 2.0855096469523133e-07 0.0000000000000000e+00  -2.0515720397407345e-08 2.2100980496921334e-07 0.0000000000000000e+00  -2.0833770548781624e-08 2.3359920152340369e-07 0.0000000000000000e+00  -2.1144798117187386e-08 2.4628281950744327e-07 0.0000000000000000e+00  -2.1431051226713862e-08 2.5904210737230612e-07 0.0000000000000000e+00  -2.1710256963023650e-08 2.7189143177895335e-07 0.0000000000000000e+00  -2.1969662483510658e-08 2.8478997322577018e-07 0.0000000000000000e+00  -2.2222579505147290e-08 2.9773974974510080e-07 0.0000000000000000e+00  -2.2460521129094529e-08 3.1075486379821204e-07 0.0000000000000000e+00  -2.2692376732556533e-08 3.2378541021735341e-07 0.0000000000000000e+00  -2.2913416431908835e-08 3.3685823137243547e-07 0.0000000000000000e+00  -2.3129598003074455e-08 3.4995056624808443e-07 0.0000000000000000e+00  -2.3338075345561124e-08 3.6306561960345700e-07 0.0000000000000000e+00  -2.3543763713977259e-08 3.7621642086969997e-07 0.0000000000000000e+00  -2.3743589417348081e-08 3.8936415272842294e-07 0.0000000000000000e+00  -2.3949133925339192e-08 4.0264443703136384e-07 0.0000000000000000e+00  -2.4113918858247843e-08 4.1521945238250907e-07 0.0000000000000000e+00  -2.4343842847693704e-08 4.2910417306505223e-07 0.0000000000000000e+00  -2.4540146894403239e-08 4.4230437724926028e-07 0.0000000000000000e+00  -2.4734380015247725e-08 4.5535298139633209e-07 0.0000000000000000e+00  -2.4848947414363680e-08 4.6925245356909386e-07 0.0000000000000000e+00  -1.6266753258537461e-08 4.8194337545648808e-07 0.0000000000000000e+00  1.3211822409423871e-09 4.8277463878315244e-07 0.0000000000000000e+00  1.0269897684987415e-08 4.6954803079020092e-07 0.0000000000000000e+00  1.0530431046986162e-08 4.5598886168351736e-07 0.0000000000000000e+00  1.0682404344024224e-08 4.4262045737012406e-07 0.0000000000000000e+00  1.0870619836458288e-08 4.2963056718898121e-07 0.0000000000000000e+00  1.1022622422114693e-08 4.1573179160283871e-07 0.0000000000000000e+00  1.1222132981863247e-08 4.0315064082493645e-07 0.0000000000000000e+00  1.1387038771539402e-08 3.8977284044968736e-07 0.0000000000000000e+00  1.1562114524319075e-08 3.7665420928048437e-07 0.0000000000000000e+00  1.1727569911252829e-08 3.6351712568047505e-07 0.0000000000000000e+00  1.1893522111333184e-08 3.5040353740288760e-07 0.0000000000000000e+00  1.2046384287892186e-08 3.3730701335422490e-07 0.0000000000000000e+00  1.2200703410456808e-08 3.2424265715091607e-07 0.0000000000000000e+00  1.2335360588919555e-08 3.1120547032926307e-07 0.0000000000000000e+00  1.2473522391903404e-08 2.9820886856457900e-07 0.0000000000000000e+00  1.2583696428642427e-08 2.8525230411996838e-07 0.0000000000000000e+00  1.2700851742306850e-08 2.7235288787403256e-07 0.0000000000000000e+00  1.2779740992617019e-08 2.5950881396955278e-07 0.0000000000000000e+00  1.2870491743680487e-08 2.4674473676199669e-07 0.0000000000000000e+00  1.2910750638515197e-08 2.3406064035621554e-07 0.0000000000000000e+00  1.2969249828191184e-08 2.2147975061866364e-07 0.0000000000000000e+00  1.2961680216583530e-08 2.0900630139594237e-07 0.0000000000000000e+00  1.2979101503529509e-08 1.9665814563392312e-07 0.0000000000000000e+00  1.2924429970996674e-08 1.8451138287868018e-07 0.0000000000000000e+00  1.2869546276940987e-08 1.7232036780889937e-07 0.0000000000000000e+00  1.2822658052061183e-08 1.6063215190504533e-07 0.0000000000000000e+00  1.2676237582106216e-08 1.4892986809544028e-07 0.0000000000000000e+00  1.2541773961568911e-08 1.3749363696144841e-07 0.0000000000000000e+00  1.2339226596243205e-08 1.2630696880607531e-07 0.0000000000000000e+00  1.2133954953955205e-08 1.1538522618670169e-07 0.0000000000000000e+00  1.1856741128414119e-08 1.0477029882391660e-07 0.0000000000000000e+00  1.1577865955692993e-08 9.4458057096311093e-08 0.0000000000000000e+00  1.1178215137634920e-08 8.4560466941709440e-08 0.0000000000000000e+00  1.0819534852865380e-08 7.4948063368494902e-08 0.0000000000000000e+00  1.0458474507338143e-08 6.5854195706504948e-08 0.0000000000000000e+00  9.9211095466387344e-09 5.7080815619146823e-08 0.0000000000000000e+00  9.4185587599938810e-09 4.8864630821001371e-08 0.0000000000000000e+00  8.8033846471623078e-09 4.1124913339241964e-08 0.0000000000000000e+00  8.2052662900162214e-09 3.3937283641894937e-08 0.0000000000000000e+00  7.4188754261347451e-09 2.7381225876533041e-08 0.0000000000000000e+00  6.7326578256656094e-09 2.1430622300785688e-08 0.0000000000000000e+00  6.0278530495005440e-09 1.6107322068990708e-08 0.0000000000000000e+00  5.0721498671634547e-09 1.1433924187927626e-08 0.0000000000000000e+00  4.2071874303140281e-09 7.5657709428397248e-09 0.0000000000000000e+00  3.1285605292652162e-09 4.5011465666467861e-09 0.0000000000000000e+00  2.1775886821171610e-09 2.2815027078785844e-09 0.0000000000000000e+00  1.0083708080166705e-09 8.9740577413747138e-10 0.0000000000000000e+00  -1.8763497969599312e-10 9.4152551271605727e-10 0.0000000000000000e+00  -7.4103704871591365e-09 4.6105165761118736e-07 0.0000000000000000e+00  -7.1995557918199503e-09 4.3606961408519012e-07 0.0000000000000000e+00  -6.4546471530246171e-09 3.9505753225528502e-07 0.0000000000000000e+00  -3.4480762238227114e-10 5.3803380267015749e-09 0.0000000000000000e+00  -5.8919950317744673e-09 3.6929873068490523e-07 0.0000000000000000e+00  -4.6558757616471315e-10 1.2786399381365647e-08 0.0000000000000000e+00  -5.5197761057864904e-09 3.4313250683960268e-07 0.0000000000000000e+00  -7.7143346362865058e-10 3.0382994624511211e-08 0.0000000000000000e+00  -1.1313732421142366e-09 4.4463371733914359e-08 0.0000000000000000e+00  -5.1482211017091183e-09 3.1704795023686993e-07 0.0000000000000000e+00  -1.6605892354670735e-09 8.9397918943949979e-08 0.0000000000000000e+00  -4.4089553143694778e-09 2.6532049887367918e-07 0.0000000000000000e+00  -1.2372663068300680e-09 6.0224709158047231e-08 0.0000000000000000e+00  -2.1422307668490869e-09 1.0954580153660225e-07 0.0000000000000000e+00  -4.0429348729305717e-09 2.3981674520279836e-07 0.0000000000000000e+00  -4.7777018701353536e-09 2.9109004551503674e-07 0.0000000000000000e+00  -2.4663655961357214e-09 1.3135420435804069e-07 0.0000000000000000e+00  -3.6801408913433298e-09 2.1467516889684741e-07 0.0000000000000000e+00  -2.5854870331953314e-09 1.5326711198396347e-07 0.0000000000000000e+00  -3.5380708891973159e-09 1.9051544438586819e-07 0.0000000000000000e+00  -3.0401084431479961e-09 1.7088272229952655e-07 0.0000000000000000e+00  -1.6200784225947033e-09 7.3735509208760546e-08 0.0000000000000000e+00  -6.5255716574182376e-09 4.1604647487431275e-07 0.0000000000000000e+00  -6.9739778196977101e-10 2.0575028049269239e-08 0.0000000000000000e+00  -1.1613777328104020e-09 4.4798005233863498e-07 0.0000000000000000e+00  7.9035533543164202e-10 2.9065516612739979e-09 0.0000000000000000e+00  -6.2568994959767354e-10 3.5593220298529311e-07 0.0000000000000000e+00  -9.8851645951074186e-10 3.8207885910689956e-07 0.0000000000000000e+00  -2.2205986172829036e-09 8.9553826736192608e-09 0.0000000000000000e+00  -3.7620976873215883e-09 3.7048180830268266e-08 0.0000000000000000e+00  4.0609980598924539e-10 2.7801806996078919e-07 0.0000000000000000e+00  -2.7024283840424682e-10 3.2984664357594440e-07 0.0000000000000000e+00  -5.9542501992657435e-09 9.9029121977183710e-08 0.0000000000000000e+00  7.1964476033323820e-10 2.5240248356266140e-07 0.0000000000000000e+00  -4.4132650776022400e-09 5.2466758998912034e-08 0.0000000000000000e+00  -6.5085988799090891e-09 1.2021514143746028e-07 0.0000000000000000e+00  1.0111096062929869e-09 2.2709618150333210e-07 0.0000000000000000e+00  7.4809384966418159e-11 3.0385639207195329e-07 0.0000000000000000e+00  -8.0095205579742383e-09 1.4239809422476509e-07 0.0000000000000000e+00  1.2780413021657998e-09 2.0220732841155412e-07 0.0000000000000000e+00  -2.9679462221968367e-10 1.9174521282127719e-10 0.0000000000000000e+00  7.9545421609514199e-11 2.2510925988329505e-10 0.0000000000000000e+00  -1.1674946737724718e-08 4.7099226753866370e-07 0.0000000000000000e+00  -1.4186119996024995e-09 2.8055896453535229e-09 0.0000000000000000e+00  2.5841325894063891e-09 1.8057765473228199e-07 0.0000000000000