<?xml version="1.0"?>
<VTKFile type="UnstructuredGrid"  version="0.1"  >
<UnstructuredGrid>
<Piece  NumberOfPoints="1419" NumberOfCells="2698">
<Points>
<DataArray  type="Float64"  NumberOfComponents="3"  format="ascii">0 0 0  0 0.41 0  2.5 0 0  2.5 0.41 0  0.6 0.19 0  0.6 0.21 0  0.25 0.2 0  0.15 0.2 0  0.2489897948556636 0.21 0  0.2489897948556636 0.19 0  0.6 0.2 0  0 0.3807142857143437 0  0 0.3514285714286952 0  0 0.3221428571430699 0  0 0.29285714285744 0  0 0.2635714285718054 0  0 0.2342857142861561 0  0 0.2050000000005308 0  0 0.175714285714732 0  0 0.1464285714289574 0  0 0.1171428571431897 0  0 0.08785714285737878 0  0 0.05857142857161107 0  0 0.02928571428580012 0  0.03015443760436003 0 0  0.06140001986583606 0 0  0.09377624077125973 0 0  0.1273239957535082 0 0  0.1620856860351972 0 0  0.1981052433264291 0 0  0.235428184091502 0 0  0.2741016576309132 0 0  0.3141745521465447 0 0  0.3556974926295285 0 0  0.3987229542472677 0 0  0.4433053055141081 0 0  0.4895008759286886 0 0  0.5373680609405097 0 0  0.5869673343216626 0 0  0.6383613676634521 0 0  0.6916151138468254 0 0  0.7467958595648856 0 0  0.8039733463919316 0 0  0.8632198139502143 0 0  0.9246101326867038 0 0  0.9882218810934433 0 0  1.054135445558498 0 0  1.122434100542598 0 0  1.193204177141305 0 0  1.266535089879536 0 0  1.342519516046404 0 0  1.421253448503939 0 0  1.502836389106271 0 0  1.587371439758838 0 0  1.674965418777374 0 0  1.765729001825544 0 0  1.859776908880082 0 0  1.957227977487062 0 0  2.058205329869943 0 0  2.162836591189951 0 0  2.271253957290865 0 0  2.383594446803425 0 0  2.5 0.1024999999997612 0  2.5 0.2049999999994743 0  2.5 0.3074999999997183 0  2.383594446803656 0.41 0  2.271253957291315 0.41 0  2.162836591190598 0.41 0  2.058205329870775 0.41 0  1.957227977488067 0.41 0  1.859776908881246 0.41 0  1.765729001826854 0.41 0  1.674965418778818 0.41 0  1.58737143976041 0.41 0  1.502836389107956 0.41 0  1.421253448505726 0.41 0  1.342519516048286 0.41 0  1.266535089881505 0.41 0  1.193204177143353 0.41 0  1.122434100544716 0.41 0  1.05413544556068 0.41 0  0.9882218810956305 0.41 0  0.9246101326886647 0.41 0  0.8632198139519631 0.41 0  0.8039733463934788 0.41 0  0.7467958595662458 0.41 0  0.6916151138480078 0.41 0  0.6383613676644679 0.41 0  0.5869673343225223 0.41 0  0.5373680609412221 0.41 0  0.4895008759292634 0.41 0  0.4433053055145528 0.41 0  0.3987229542475914 0.41 0  0.3556974926297398 0.41 0  0.3141745521466497 0.41 0  0.2741016576310038 0.41 0  0.2354281840915826 0.41 0  0.1981052433265003 0.41 0  0.1620856860352591 0.41 0  0.1273239957535623 0.41 0  0.09377624077128965 0.41 0  0.06140001986584975 0.41 0  0.03015443760436654 0.41 0  0.2497468076502589 0.2050254481002335 0  0.2497468076502614 0.1949745518997913 0  0.2469965252529372 0.1829317073451959 0  0.2439893735792749 0.1762316384219906 0  0.2400332147834255 0.1700443375285386 0  0.2352133972704371 0.1645032867342007 0  0.2296339016332438 0.1597280261969788 0  0.2234150974217223 0.1558215752574715 0  0.2166911463437691 0.1528682099456123 0  0.2096071079204251 0.1509316448471593 0  0.2023158100364996 0.1500536585536553 0  0.194974551899914 0.1502531923497262 0  0.1877417105387872 0.1515259415822739 0  0.1807733240461124 0.153844448527136 0  0.1742197252835808 0.15715869474974 0  0.1682222986673531 0.1613971801805478 0  0.162910430003803 0.1664684656256651 0  0.1583987151779087 0.1722631454351573 0  0.1547844879126891 0.178656207771761 0  0.1521457199348551 0.1855097315605723 0  0.1505393388476355 0.1926758619366523 0  0.1505393388476328 0.2073241380633295 0  0.1521457199348437 0.2144902684393899 0  0.1547844879126531 0.221343792228163 0  0.1583987151778488 0.2277368545647528 0  0.1629104300036858 0.2335315343742052 0  0.1682222986671726 0.2386028198193036 0  0.1742197252833576 0.2428413052501257 0  0.1807733240458683 0.2461555514727623 0  0.1877417105384929 0.2484740584176516 0  0.1949745518995776 0.2497468076502398 0  0.202315810036185 0.2499463414463592 0  0.2096071079201568 0.2490683551528932 0  0.2166911463435495 0.2471317900544655 0  0.2234150974215506 0.2441784247426195 0  0.2296339016331197 0.2402719738031125 0  0.2352133972703547 0.2354967132658811 0  0.2400332147833751 0.2299556624715287 0  0.2439893735792577 0.2237683615780412 0  0.246996525252926 0.2170682926548348 0  0.25645809709277 0.21 0  0.2639263993298655 0.21 0  0.271394701566961 0.21 0  0.2788630038040554 0.21 0  0.2863313060411479 0.21 0  0.2937996082782405 0.21 0  0.301267910515333 0.21 0  0.3087362127524279 0.21 0  0.3162045149895234 0.21 0  0.3236728172265972 0.21 0  0.3311411194636928 0.21 0  0.3386094217007701 0.21 0  0.3460777239378666 0.21 0  0.3535460261749672 0.21 0  0.3610143284120516 0.21 0  0.3684826306491596 0.21 0  0.3759509328862226 0.21 0  0.383419235123329 0.21 0  0.3908875373604028 0.21 0  0.3983558395975142 0.21 0  0.4058241418345938 0.21 0  0.4132924440716992 0.21 0  0.4207607463087888 0.21 0  0.4282290485459029 0.21 0  0.4356973507830418 0.21 0  0.4431656530201649 0.21 0  0.4506339552573136 0.21 0  0.4581022574944306 0.21 0  0.4655705597315852 0.21 0  0.4730388619686996 0.21 0  0.480507164205851 0.21 0  0.4879754664429498 0.21 0  0.4954437686800938 0.21 0  0.502912070917267 0.21 0  0.5103803731544119 0.21 0  0.5178486753915261 0.21 0  0.5253169776286404 0.21 0  0.5327852798657868 0.21 0  0.5402535821029386 0.21 0  0.54772188434007 0.21 0  0.5551901865771842 0.21 0  0.5626584888143201 0.21 0  0.5701267910514778 0.21 0  0.5775950932886138 0.21 0  0.5850633955257281 0.21 0  0.5925316977628483 0.21 0  0.6 0.2050000000000054 0  0.6 0.1950000000000217 0  0.5925316977628897 0.19 0  0.5850633955257988 0.19 0  0.5775950932887378 0.19 0  0.5701267910515998 0.19 0  0.5626584888145268 0.19 0  0.5551901865773963 0.19 0  0.547721884340339 0.19 0  0.5402535821032429 0.19 0  0.5327852798661811 0.19 0  0.5253169776290537 0.19 0  0.5178486753919799 0.19 0  0.5103803731549078 0.19 0  0.502912070917822 0.19 0  0.4954437686807294 0.19 0  0.4879754664436223 0.19 0  0.4805071642065402 0.19 0  0.4730388619694271 0.19 0  0.4655705597323621 0.19 0  0.4581022574952563 0.19 0  0.4506339552581777 0.19 0  0.4431656530210671 0.19 0  0.4356973507839815 0.19 0  0.4282290485468779 0.19 0  0.4207607463097617 0.19 0  0.4132924440726327 0.19 0  0.4058241418354857 0.19 0  0.3983558395983636 0.19 0  0.3908875373612097 0.19 0  0.3834192351240934 0.19 0  0.3759509328869369 0.19 0  0.3684826306498175 0.19 0  0.361014328412667 0.19 0  0.3535460261755617 0.19 0  0.3460777239384295 0.19 0  0.3386094217012945 0.19 0  0.3311411194641595 0.19 0  0.3236728172270245 0.19 0  0.3162045149898895 0.19 0  0.3087362127527544 0.19 0  0.3012679105156187 0.19 0  0.2937996082784807 0.19 0  0.2863313060413428 0.19 0  0.2788630038042048 0.19 0  0.2713947015670686 0.19 0  0.2639263993299336 0.19 0  0.2564580970927985 0.19 0  0.2607803159922026 0.2000727136295815 0  0.5887803774232762 0.2001272386983733 0  0.5745072403740523 0.2002044435018727 0  0.5511891430099709 0.2001122610077113 0  0.2751288526855082 0.20000000000002 0  0.5365194309847112 0.1999999999999436 0  0.2894621222999649 0.1998691686390484 0  0.5215828265105155 0.1999999999999228 0  0.3127789816668748 0.1998657885438805 0  0.3274069683451451 0.2000000000000796 0  0.5066462220363641 0.199999999999908 0  0.3650630746574081 0.199866017807523 0  0.476773013087985 0.1999999999998713 0  0.3417402379596385 0.1998691686391011 0  0.3796850840047755 0.200000000000134 0  0.4618364086138087 0.1999999999998546 0  0.4917096175621762 0.1999999999998808 0  0.3946216884789568 0.2000000000001512 0  0.446899804139621 0.1999999999998389 0  0.4089549580935208 0.1998691686391595 0  0.4322718174608562 0.200127451265745 0  0.4201487168029707 0.1999966199048527 0  0.3528922713220932 0.2000185703532356 0  0.5633122436674589 0.1999814296467508 0  0.3006558810093873 0.1999966199048318 0  0.5815926498168407 0.1966545283159175 0  0.2677053789419034 0.1964246479135325 0  0.5290511287476175 0.1970915826863981 0  0.5439877332217911 0.197091582686394 0  0.2825131256993216 0.2035478995978015 0  0.3199386661080599 0.202908417313604 0  0.4842413153250809 0.1970915826863873 0  0.5141145242734466 0.1970915826863843 0  0.3722167817676917 0.2029084173136195 0  0.4693047108508938 0.1970915826863783 0  0.3348752705822316 0.202908417313609 0  0.3871533862418661 0.2029084173136212 0  0.4543681063767183 0.1970915826863795 0  0.4991779197992749 0.1970915826863902 0  0.4020059614928624 0.203547899597858 0  0.4394315019025246 0.1970915826863714 0  0.2550657455369551 0.2034088125358657 0  0.2548908499171161 0.1966940311614271 0  0.5946539510196798 0.2024302972968126 0  0.267698176732111 0.2039977513680092 0  0.4261685417851465 0.196409292431739 0  0.3590076176283495 0.196411355804271 0  0.5571672426447437 0.2036011176410121 0  0.3066757059912147 0.1964092924317024 0  0.594380730180568 0.1966558399668133 0  0.4842413153245942 0.2040749161535287 0  0.4693047108503577 0.2040749161535231 0  0.3871533862424271 0.1959250838464788 0  0.372246743208829 0.1959123236376545 0  0.5141145242731028 0.2040749161535395 0  0.4543681063761134 0.2040749161535186 0  0.4019979587101454 0.1959834479682427 0  0.4394608940728603 0.2040870543693135 0  0.5439623148931173 0.2040856076781014 0  0.5290511287473298 0.2040749161535501 0  0.4991779197988497 0.2040749161535382 0  0.3347912413592433 0.1959225448935183 0  0.3199680582793816 0.1959123018030061 0  0.2825051229162361 0.1959834479681729 0  0.3590471196690275 0.2036304442587945 0  0.5571594006495384 0.1963685282145804 0  0.3067669986803285 0.203627750582736 0  0.4262598344738712 0.2036568242185335 0  0.5814408164431408 0.2041285596160068 0  0.5688286748170428 0.1961819304477386 0  0.4145905603063645 0.2038180695522843 0  0.3473758401724931 0.2038180695522752 0  0.2950977245128307 0.2038180695522663 0  0.5688286748170693 0.203818069552238 0  0.2950977245127906 0.1961819304477774 0  0.3473758401723931 0.1961819304478349 0  0.4145905603061963 0.1961819304479011 0  0.2601812407614425 0.2056861609747042
[...]
<PointData  Vectors="f_40-0"> 
<DataArray  type="Float64"  Name="f_40-0"  NumberOfComponents="3" format="ascii">0.0000000000000000e+00 0.0000000000000000e+00 0.0000000000000000e+00  0.0000000000000000e+00 0.0000000000000000e+00 0.0000000000000000e+00  0.0000000000000000e+00 0.0000000000000000e+00 0.0000000000000000e+00  0.0000000000000000e+00 0.0000000000000000e+00 0.0000000000000000e+00  -9.5369320352577627e-06 -5.3553960657195079e-04 0.0000000000000000e+00  3.1679347538893293e-05 -5.4084819566719308e-04 0.0000000000000000e+00  0.0000000000000000e+00 0.0000000000000000e+00 0.0000000000000000e+00  0.0000000000000000e+00 0.0000000000000000e+00 0.0000000000000000e+00  0.0000000000000000e+00 0.0000000000000000e+00 0.0000000000000000e+00  0.0000000000000000e+00 0.0000000000000000e+00 0.0000000000000000e+00  1.0563033441427853e-05 -5.3818922966029979e-04 0.0000000000000000e+00  8.1622740954961706e-02 0.0000000000000000e+00 0.0000000000000000e+00  1.5068813714763163e-01 0.0000000000000000e+00 0.0000000000000000e+00  2.0719618857799352e-01 0.0000000000000000e+00 0.0000000000000000e+00  2.5114689524611283e-01 0.0000000000000000e+00 0.0000000000000000e+00  2.8254025715198383e-01 0.0000000000000000e+00 0.0000000000000000e+00  3.0137627429560465e-01 0.0000000000000000e+00 0.0000000000000000e+00  3.0765494667695648e-01 0.0000000000000000e+00 0.0000000000000000e+00  3.0137627429598546e-01 0.0000000000000000e+00 0.0000000000000000e+00  2.8254025715263797e-01 0.0000000000000000e+00 0.0000000000000000e+00  2.5114689524692291e-01 0.0000000000000000e+00 0.0000000000000000e+00  2.0719618857876307e-01 0.0000000000000000e+00 0.0000000000000000e+00  1.5068813714828833e-01 0.0000000000000000e+00 0.0000000000000000e+00  8.1622740955331730e-02 0.0000000000000000e+00 0.0000000000000000e+00  0.0000000000000000e+00 0.0000000000000000e+00 0.0000000000000000e+00  0.0000000000000000e+00 0.0000000000000000e+00 0.0000000000000000e+00  0.0000000000000000e+00 0.0000000000000000e+00 0.0000000000000000e+00  0.0000000000000000e+00 0.0000000000000000e+00 0.0000000000000000e+00  0.0000000000000000e+00 0.0000000000000000e+00 0.0000000000000000e+00  0.0000000000000000e+00 0.0000000000000000e+00 0.0000000000000000e+00  0.0000000000000000e+00 0.0000000000000000e+00 0.0000000000000000e+00  0.0000000000000000e+00 0.0000000000000000e+00 0.0000000000000000e+00  0.0000000000000000e+00 0.0000000000000000e+00 0.0000000000000000e+00  0.0000000000000000e+00 0.0000000000000000e+00 0.0000000000000000e+00  0.0000000000000000e+00 0.0000000000000000e+00 0.0000000000000000e+00  0.0000000000000000e+00 0.0000000000000000e+00 0.0000000000000000e+00  0.0000000000000000e+00 0.0000000000000000e+00 0.0000000000000000e+00  0.0000000000000000e+00 0.0000000000000000e+00 0.0000000000000000e+00  0.0000000000000000e+00 0.0000000000000000e+00 0.0000000000000000e+00  0.0000000000000000e+00 0.0000000000000000e+00 0.0000000000000000e+00  0.0000000000000000e+00 0.0000000000000000e+00 0.0000000000000000e+00  0.0000000000000000e+00 0.0000000000000000e+00 0.0000000000000000e+00  0.0000000000000000e+00 0.0000000000000000e+00 0.0000000000000000e+00  0.0000000000000000e+00 0.0000000000000000e+00 0.0000000000000000e+00  0.0000000000000000e+00 0.0000000000000000e+00 0.0000000000000000e+00  0.0000000000000000e+00 0.0000000000000000e+00 0.0000000000000000e+00  0.0000000000000000e+00 0.0000000000000000e+00 0.0000000000000000e+00  0.0000000000000000e+00 0.0000000000000000e+00 0.0000000000000000e+00  0.0000000000000000e+00 0.0000000000000000e+00 0.0000000000000000e+00  0.0000000000000000e+00 0.0000000000000000e+00 0.0000000000000000e+00  0.0000000000000000e+00 0.0000000000000000e+00 0.0000000000000000e+00  0.0000000000000000e+00 0.0000000000000000e+00 0.0000000000000000e+00  0.0000000000000000e+00 0.0000000000000000e+00 0.0000000000000000e+00  0.0000000000000000e+00 0.0000000000000000e+00 0.0000000000000000e+00  0.0000000000000000e+00 0.0000000000000000e+00 0.0000000000000000e+00  0.0000000000000000e+00 0.0000000000000000e+00 0.0000000000000000e+00  0.0000000000000000e+00 0.0000000000000000e+00 0.0000000000000000e+00  0.0000000000000000e+00 0.0000000000000000e+00 0.0000000000000000e+00  0.0000000000000000e+00 0.0000000000000000e+00 0.0000000000000000e+00  0.0000000000000000e+00 0.0000000000000000e+00 0.0000000000000000e+00  0.0000000000000000e+00 0.0000000000000000e+00 0.0000000000000000e+00  0.0000000000000000e+00 0.0000000000000000e+00 0.0000000000000000e+00  2.6111753595179876e-01 1.5996798047951705e-03 0.0000000000000000e+00  1.9962652449356594e-01 -2.9851009715236302e-04 0.0000000000000000e+00  2.5994435482825801e-01 -2.3774095146827782e-03 0.0000000000000000e+00  0.0000000000000000e+00 0.0000000000000000e+00 0.0000000000000000e+00  0.0000000000000000e+00 0.0000000000000000e+00 0.0000000000000000e+00  0.0000000000000000e+00 0.0000000000000000e+00 0.0000000000000000e+00  0.0000000000000000e+00 0.0000000000000000e+00 0.0000000000000000e+00  0.0000000000000000e+00 0.0000000000000000e+00 0.0000000000000000e+00  0.0000000000000000e+00 0.0000000000000000e+00 0.0000000000000000e+00  0.0000000000000000e+00 0.0000000000000000e+00 0.0000000000000000e+00  0.0000000000000000e+00 0.0000000000000000e+00 0.0000000000000000e+00  0.0000000000000000e+00 0.0000000000000000e+00 0.0000000000000000e+00  0.0000000000000000e+00 0.0000000000000000e+00 0.0000000000000000e+00  0.0000000000000000e+00 0.0000000000000000e+00 0.0000000000000000e+00  0.0000000000000000e+00 0.0000000000000000e+00 0.0000000000000000e+00  0.0000000000000000e+00 0.0000000000000000e+00 0.0000000000000000e+00  0.0000000000000000e+00 0.0000000000000000e+00 0.0000000000000000e+00  0.0000000000000000e+00 0.0000000000000000e+00 0.0000000000000000e+00  0.0000000000000000e+00 0.0000000000000000e+00 0.0000000000000000e+00  0.0000000000000000e+00 0.0000000000000000e+00 0.0000000000000000e+00  0.0000000000000000e+00 0.0000000000000000e+00 0.0000000000000000e+00  0.0000000000000000e+00 0.0000000000000000e+00 0.0000000000000000e+00  0.0000000000000000e+00 0.0000000000000000e+00 0.0000000000000000e+00  0.0000000000000000e+00 0.0000000000000000e+00 0.0000000000000000e+00  0.0000000000000000e+00 0.0000000000000000e+00 0.0000000000000000e+00  0.0000000000000000e+00 0.0000000000000000e+00 0.0000000000000000e+00  0.0000000000000000e+00 0.0000000000000000e+00 0.0000000000000000e+00  0.0000000000000000e+00 0.0000000000000000e+00 0.0000000000000000e+00  0.0000000000000000e+00 0.0000000000000000e+00 0.0000000000000000e+00  0.0000000000000000e+00 0.0000000000000000e+00 0.0000000000000000e+00  0.0000000000000000e+00 0.0000000000000000e+00 0.0000000000000000e+00  0.0000000000000000e+00 0.0000000000000000e+00 0.0000000000000000e+00  0.0000000000000000e+00 0.0000000000000000e+00 0.0000000000000000e+00  0.0000000000000000e+00 0.0000000000000000e+00 0.0000000000000000e+00  0.0000000000000000e+00 0.0000000000000000e+00 0.0000000000000000e+00  0.0000000000000000e+00 0.0000000000000000e+00 0.0000000000000000e+00  0.0000000000000000e+00 0.0000000000000000e+00 0.0000000000000000e+00  0.0000000000000000e+00 0.0000000000000000e+00 0.0000000000000000e+00  0.0000000000000000e+00 0.0000000000000000e+00 0.0000000000000000e+00  0.0000000000000000e+00 0.0000000000000000e+00 0.0000000000000000e+00  0.0000000000000000e+00 0.0000000000000000e+00 0.0000000000000000e+00  0.0000000000000000e+00 0.0000000000000000e+00 0.0000000000000000e+00  0.0000000000000000e+00 0.0000000000000000e+00 0.0000000000000000e+00  0.0000000000000000e+00 0.0000000000000000e+00 0.0000000000000000e+00  0.0000000000000000e+00 0.0000000000000000e+00 0.0000000000000000e+00  0.0000000000000000e+00 0.0000000000000000e+00 0.0000000000000000e+00  0.0000000000000000e+00 0.0000000000000000e+00 0.0000000000000000e+00  0.0000000000000000e+00 0.0000000000000000e+00 0.0000000000000000e+00  0.0000000000000000e+00 0.0000000000000000e+00 0.0000000000000000e+00  0.0000000000000000e+00 0.0000000000000000e+00 0.0000000000000000e+00  0.0000000000000000e+00 0.0000000000000000e+00 0.0000000000000000e+00  0.0000000000000000e+00 0.0000000000000000e+00 0.0000000000000000e+00  0.0000000000000000e+00 0.0000000000000000e+00 0.0000000000000000e+00  0.0000000000000000e+00 0.0000000000000000e+00 0.0000000000000000e+00  0.0000000000000000e+00 0.0000000000000000e+00 0.0000000000000000e+00  0.0000000000000000e+00 0.0000000000000000e+00 0.0000000000000000e+00  0.0000000000000000e+00 0.0000000000000000e+00 0.0000000000000000e+00  0.0000000000000000e+00 0.0000000000000000e+00 0.0000000000000000e+00  0.0000000000000000e+00 0.0000000000000000e+00 0.0000000000000000e+00  0.0000000000000000e+00 0.0000000000000000e+00 0.0000000000000000e+00  0.0000000000000000e+00 0.0000000000000000e+00 0.0000000000000000e+00  0.0000000000000000e+00 0.0000000000000000e+00 0.0000000000000000e+00  0.0000000000000000e+00 0.0000000000000000e+00 0.0000000000000000e+00  0.0000000000000000e+00 0.0000000000000000e+00 0.0000000000000000e+00  0.0000000000000000e+00 0.0000000000000000e+00 0.0000000000000000e+00  0.0000000000000000e+00 0.0000000000000000e+00 0.0000000000000000e+00  0.0000000000000000e+00 0.0000000000000000e+00 0.0000000000000000e+00  0.0000000000000000e+00 0.0000000000000000e+00 0.0000000000000000e+00  0.0000000000000000e+00 0.0000000000000000e+00 0.0000000000000000e+00  0.0000000000000000e+00 0.0000000000000000e+00 0.0000000000000000e+00  0.0000000000000000e+00 0.0000000000000000e+00 0.0000000000000000e+00  0.0000000000000000e+00 0.0000000000000000e+00 0.0000000000000000e+00  0.0000000000000000e+00 0.0000000000000000e+00 0.0000000000000000e+00  0.0000000000000000e+00 0.0000000000000000e+00 0.0000000000000000e+00  0.0000000000000000e+00 0.0000000000000000e+00 0.0000000000000000e+00  0.0000000000000000e+00 0.0000000000000000e+00 0.0000000000000000e+00  0.0000000000000000e+00 0.0000000000000000e+00 0.0000000000000000e+00  0.0000000000000000e+00 0.0000000000000000e+00 0.0000000000000000e+00  0.0000000000000000e+00 0.0000000000000000e+00 0.0000000000000000e+00  0.0000000000000000e+00 0.0000000000000000e+00 0.0000000000000000e+00  0.0000000000000000e+00 0.0000000000000000e+00 0.0000000000000000e+00  1.9254422244434163e-06 -6.2412587769564461e-06 0.0000000000000000e+00  4.2123888429580439e-06 -7.9771077456473431e-06 0.0000000000000000e+00  6.6620529307227752e-06 -1.0268808417312983e-05 0.0000000000000000e+00  9.3483181014827913e-06 -1.3284631587919476e-05 0.0000000000000000e+00  1.1865630822054509e-05 -1.7052057383823915e-05 0.0000000000000000e+00  1.4481361103086779e-05 -2.1690689358993636e-05 0.0000000000000000e+00  1.6828149364164607e-05 -2.6936088331326578e-05 0.0000000000000000e+00  1.9083006952031930e-05 -3.2991295470562401e-05 0.0000000000000000e+00  2.1430795305201795e-05 -3.9671353558058685e-05 0.0000000000000000e+00  2.3449931665097733e-05 -4.6970337475169235e-05 0.0000000000000000e+00  2.5582489944016002e-05 -5.4941950462907016e-05 0.0000000000000000e+00  2.7396892168503273e-05 -6.3455735809410006e-05 0.0000000000000000e+00  2.9264868619788916e-05 -7.2557542637545876e-05 0.0000000000000000e+00  3.0895291384874286e-05 -8.2114444374121396e-05 0.0000000000000000e+00  3.2418523984564322e-05 -9.2225202732655078e-05 0.0000000000000000e+00  3.3971676420528222e-05 -1.0277360895098424e-04 0.0000000000000000e+00  3.5262253249948453e-05 -1.1372025986193224e-04 0.0000000000000000e+00  3.6586790049105766e-05 -1.2513305149762044e-04 0.0000000000000000e+00  3.7669081847447603e-05 -1.3686726356840640e-04 0.0000000000000000e+00  3.8764492039958640e-05 -1.4899853745898616e-04 0.0000000000000000e+00  3.9666726571056530e-05 -1.6141637815726803e-04 0.0000000000000000e+00  4.0528473537359534e-05 -1.7418036291681852e-04 0.0000000000000000e+00  4.1237651042570615e-05 -1.8717573735834965e-04 0.0000000000000000e+00  4.1845249314338343e-05 -2.0046311876519002e-04 0.0000000000000000e+00  4.2430928910540968e-05 -2.1396890864778886e-04 0.0000000000000000e+00  4.2861140203400581e-05 -2.2767759218625763e-04 0.0000000000000000e+00  4.3215004803726859e-05 -2.4163701085792435e-04 0.0000000000000000e+00  4.3456818859738004e-05 -2.5571895271314952e-04 0.0000000000000000e+00  4.3620434594254422e-05 -2.7002044671751069e-04 0.0000000000000000e+00  4.3679093814707474e-05 -2.8441578980302251e-04 0.0000000000000000e+00  4.3658249424166150e-05 -2.9899642529999406e-04 0.0000000000000000e+00  4.3535793699810196e-05 -3.1364042782232305e-04 0.0000000000000000e+00  4.3335869873479032e-05 -3.2844119766260661e-04 0.0000000000000000e+00  4.3036146670806677e-05 -3.4327613181615836e-04 0.0000000000000000e+00  4.2654626618726791e-05 -3.5824788279831369e-04 0.0000000000000000e+00  4.2181061322762509e-05 -3.7323347603571540e-04 0.0000000000000000e+00  4.1628101440542390e-05 -3.8832937417422934e-04 0.0000000000000000e+00  4.0985596940962177e-05 -4.0342171314670602e-04 0.0000000000000000e+00  4.0260888399353700e-05 -4.1860612113569823e-04 0.0000000000000000e+00  3.9445601725753208e-05 -4.3377175444247486e-04 0.0000000000000000e+00  3.8537323341970082e-05 -4.4899776042476322e-04 0.0000000000000000e+00  3.7559109925045375e-05 -4.6422166758836806e-04 0.0000000000000000e+00  3.6484404066171159e-05 -4.7946991451589210e-04 0.0000000000000000e+00  3.5359321977850941e-05 -4.9472468962320998e-04 0.0000000000000000e+00  3.4132445288380385e-05 -5.0995676290523312e-04 0.0000000000000000e+00  3.2868443660937149e-05 -5.2525865099570690e-04 0.0000000000000000e+00  2.0941649505262028e-05 -5.3951635159563615e-04 0.0000000000000000e+00  3.5304319540422507e-07 -5.3686938702346160e-04 0.0000000000000000e+00  -8.3250094168887902e-06 -5.2034966471217173e-04 0.0000000000000000e+00  -7.0249157078390875e-06 -5.0489033452685763e-04 0.0000000000000000e+00  -5.7669713330337730e-06 -4.8939450378299100e-04 0.0000000000000000e+00  -4.5961476459828639e-06 -4.7394436020592684e-04 0.0000000000000000e+00  -3.4773884980929881e-06 -4.5850648227565162e-04 0.0000000000000000e+00  -2.4484209718026976e-06 -4.4308998974785840e-04 0.0000000000000000e+00  -1.4680610785740031e-06 -4.2770697766836410e-04 0.0000000000000000e+00  -5.7627823468211258e-07 -4.1232355027188158e-04 0.0000000000000000e+00  2.6169142485804976e-07 -3.9701853283182051e-04 0.0000000000000000e+00  1.0205621164510129e-06 -3.8170778246461769e-04 0.0000000000000000e+00  1.7353835628391909e-06 -3.6649217233433094e-04 0.0000000000000000e+00  2.3677334149635005e-06 -3.5128929692966040e-04 0.0000000000000000e+00  2.9654142848726012e-06 -3.3620144721680553e-04 0.0000000000000000e+00  3.4781704138853825e-06 -3.2114984326178371e-04 0.0000000000000000e+00  3.9681887757304778e-06 -3.0623362330005788e-04 0.0000000000000000e+00  4.3669358550124817e-06 -2.9137808154886669e-04 0.0000000000000000e+00  4.7547403985085440e-06 -2.7668216601180949e-04 0.0000000000000000e+00  5.0439007857530596e-06 -2.6207519931279214e-04 0.0000000000000000e+00  5.3351280118340658e-06 -2.4765963873103725e-04 0.0000000000000000e+00  5.5200439637733148e-06 -2.3336731997907262e-04 0.0000000000000000e+00  5.7230909062786266e-06 -2.1929869311660606e-04 0.0000000000000000e+00  5.8100251584645394e-06 -2.0539150641245830e-04 0.0000000000000000e+00  5.9153494293549750e-06 -1.9173162247660639e-04 0.0000000000000000e+00  5.9268621861874262e-06 -1.7827729944241147e-04 0.0000000000000000e+00  5.8795478975726059e-06 -1.6512731063777662e-04 0.0000000000000000e+00  5.8752328957939135e-06 -1.5220669800080247e-04 0.0000000000000000e+00  5.7672321614855927e-06 -1.3960090931572757e-04 0.0000000000000000e+00  5.6610611718594993e-06 -1.2734449800234928e-04 0.0000000000000000e+00  5.4784852566959062e-06 -1.1540998240633650e-04 0.0000000000000000e+00  5.2961584784723028e-06 -1.0388595070940535e-04 0.0000000000000000e+00  5.0383791301443465e-06 -9.2718997116964357e-05 0.0000000000000000e+00  4.8244694844930468e-06 -8.2062154738874778e-05 0.0000000000000000e+00  4.4837222762665433e-06 -7.1776234692291790e-05 0.0000000000000000e+00  4.0942629239004030e-06 -6.2074746972844299e-05 0.0000000000000000e+00  3.8107839573870142e-06 -5.2788684084936176e-05 0.0000000000000000e+00  3.4050551340360615e-06 -4.4106709882639258e-05 0.0000000000000000e+00  3.0293959140434807e-06 -3.6025772780241912e-05 0.0000000000000000e+00  2.5649164838406408e-06 -2.8522422762818821e-05 0.0000000000000000e+00  2.1956125609402460e-06 -2.1759592018078589e-05 0.0000000000000000e+00  1.6616207846726207e-06 -1.5564058625971420e-05 0.0000000000000000e+00  1.0927788889162637e-06 -1.0210739968463843e-05 0.0000000000000000e+00  7.0488691218110653e-07 -5.4709183940944527e-06 0.0000000000000000e+00  1.7561679178873282e-07 -1.5438671044509244e-06 0.0000000000000000e+00  -1.3194641395923408e-07 1.5400602265198074e-06 0.0000000000000000e+00  -4.3914666280304036e-07 3.5960660499593145e-06 0.0000000000000000e+00  -2.7055597281137033e-07 4.4778809935205127e-06 0.0000000000000000e+00  4.0558909621252864e-07 -9.4485400684799154e-07 0.0000000000000000e+00  1.2975741545849821e-05 -5.1509955289634501e-04 0.0000000000000000e+00  1.5621272369045241e-05 -4.8575264130637670e-04 0.0000000000000000e+00  1.8713630095550641e-05 -4.3785761470862460e-04 0.0000000000000000e+00  3.9403980358601901e-06 -5.2440296338837429e-06 0.0000000000000000e+00  2.0151076301220121e-05 -4.0781147343946022e-04 0.0000000000000000e+00  6.8088634129097777e-06 -1.2535857892377945e-05 0.0000000000000000e+00  2.1561330929063879e-05 -3.7739699763915949e-04 0.0000000000000000e+00  1.1191464075028419e-05 -3.0415638795997496e-05 0.0000000000000000e+00  1.3797305262663407e-05 -4.5047983021382025e-05 0.0000000000000000e+00  2.2676462138395197e-05 -3.4719542605234164e-04 0.0000000000000000e+00  1.8844913573998973e-05 -9.2470279337001501e-05 0.0000000000000000e+00  2.4036050777010616e-05 -2.8776930363120384e-04 0.0000000000000000e+00  1.5846313645210661e-05 -6.1471068710504715e-05 0.0000000000000000e+00  2.0582151781431137e-05 -1.1423334556487035e-04 0.0000000000000000e+00  2.4285887431114635e-05 -2.5874639528379524e-04 0.0000000000000000e+00  2.3500404287676831e-05 -3.1728827675325377e-04 0.0000000000000000e+00  2.1894549396388040e-05 -1.3793485826242127e-04 0.0000000000000000e+00  2.4249604700658945e-05 -2.3034723219279900e-04 0.0000000000000000e+00  2.2671578961175497e-05 -1.6189597845248183e-04 0.0000000000000000e+00  2.4180501232895777e-05 -2.0332399757018026e-04 0.0000000000000000e+00  2.3452565912700922e-05 -1.8151608604282353e-04 0.0000000000000000e+00  1.7533934660385911e-05 -7.5852377849298919e-05 0.0000000000000000e+00  1.6803252206552946e-05 -4.6269192296551277e-04 0.0000000000000000e+00  9.0446108700604854e-06 -2.0439714368865784e-05 0.0000000000000000e+00  7.1367883642132614e-06 -4.9942038545037863e-04 0.0000000000000000e+00  1.2242674716683174e-06 -5.0804494640885363e-07 0.0000000000000000e+00  1.4981821668918373e-05 -3.9163986531055400e-04 0.0000000000000000e+00  1.3393621141947234e-05 -4.2218141442245115e-04 0.0000000000000000e+00  7.2566859819387990e-06 -1.0827503832037366e-05 0.0000000000000000e+00  1.5421672131805826e-05 -3.8972122371030158e-05 0.0000000000000000e+00  1.8072859241313109e-05 -3.0139214157460977e-04 0.0000000000000000e+00  1.6287700212724813e-05 -3.6127499805505150e-04 0.0000000000000000e+00  2.4109843634932494e-05 -1.0443340453668613e-04 0.0000000000000000e+00  1.8564672961900558e-05 -2.7206112591673346e-04 0.0000000000000000e+00  1.8287878985039064e-05 -5.4995982132984333e-05 0.0000000000000000e+00  2.5857236828273145e-05 -1.2733674968741949e-04 0.0000000000000000e+00  1.8794010561590837e-05 -2.4328898609616214e-04 0.0000000000000000e+00  1.7315532063589431e-05 -3.3116286618029304e-04 0.0000000000000000e+00  2.8354875317975731e-05 -1.5185476574601788e-04 0.0000000000000000e+00  1.8764278697609297e-05 -2.1520920429911561e-04 0.0000000000000000e+00  -2.5425246519275207e-07 -1.4916373516653542e-06 0.0000000000000000e+00  -6.2174419809630843e-07 1.0077440908891417e-06 0.0000000000000000e+00  1.6601806073817926e-05 -5.2776833213387213e-04 0.0000000000000000e+00  3.4305140171731890e-06 -5.1595306001043438e-06 0.0000000000000000