<?xml version="1.0"?>
<VTKFile type="UnstructuredGrid"  version="0.1"  >
<UnstructuredGrid>
<Piece  NumberOfPoints="1419" NumberOfCells="2698">
<Points>
<DataArray  type="Float64"  NumberOfComponents="3"  format="ascii">0 0 0  0 0.41 0  2.5 0 0  2.5 0.41 0  0.6 0.19 0  0.6 0.21 0  0.25 0.2 0  0.15 0.2 0  0.2489897948556636 0.21 0  0.2489897948556636 0.19 0  0.6 0.2 0  0 0.3807142857143437 0  0 0.3514285714286952 0  0 0.3221428571430699 0  0 0.29285714285744 0  0 0.2635714285718054 0  0 0.2342857142861561 0  0 0.2050000000005308 0  0 0.175714285714732 0  0 0.1464285714289574 0  0 0.1171428571431897 0  0 0.08785714285737878 0  0 0.05857142857161107 0  0 0.02928571428580012 0  0.03015443760436003 0 0  0.06140001986583606 0 0  0.09377624077125973 0 0  0.1273239957535082 0 0  0.1620856860351972 0 0  0.1981052433264291 0 0  0.235428184091502 0 0  0.2741016576309132 0 0  0.3141745521465447 0 0  0.3556974926295285 0 0  0.3987229542472677 0 0  0.4433053055141081 0 0  0.4895008759286886 0 0  0.5373680609405097 0 0  0.5869673343216626 0 0  0.6383613676634521 0 0  0.6916151138468254 0 0  0.7467958595648856 0 0  0.8039733463919316 0 0  0.8632198139502143 0 0  0.9246101326867038 0 0  0.9882218810934433 0 0  1.054135445558498 0 0  1.122434100542598 0 0  1.193204177141305 0 0  1.266535089879536 0 0  1.342519516046404 0 0  1.421253448503939 0 0  1.502836389106271 0 0  1.587371439758838 0 0  1.674965418777374 0 0  1.765729001825544 0 0  1.859776908880082 0 0  1.957227977487062 0 0  2.058205329869943 0 0  2.162836591189951 0 0  2.271253957290865 0 0  2.383594446803425 0 0  2.5 0.1024999999997612 0  2.5 0.2049999999994743 0  2.5 0.3074999999997183 0  2.383594446803656 0.41 0  2.271253957291315 0.41 0  2.162836591190598 0.41 0  2.058205329870775 0.41 0  1.957227977488067 0.41 0  1.859776908881246 0.41 0  1.765729001826854 0.41 0  1.674965418778818 0.41 0  1.58737143976041 0.41 0  1.502836389107956 0.41 0  1.421253448505726 0.41 0  1.342519516048286 0.41 0  1.266535089881505 0.41 0  1.193204177143353 0.41 0  1.122434100544716 0.41 0  1.05413544556068 0.41 0  0.9882218810956305 0.41 0  0.9246101326886647 0.41 0  0.8632198139519631 0.41 0  0.8039733463934788 0.41 0  0.7467958595662458 0.41 0  0.6916151138480078 0.41 0  0.6383613676644679 0.41 0  0.5869673343225223 0.41 0  0.5373680609412221 0.41 0  0.4895008759292634 0.41 0  0.4433053055145528 0.41 0  0.3987229542475914 0.41 0  0.3556974926297398 0.41 0  0.3141745521466497 0.41 0  0.2741016576310038 0.41 0  0.2354281840915826 0.41 0  0.1981052433265003 0.41 0  0.1620856860352591 0.41 0  0.1273239957535623 0.41 0  0.09377624077128965 0.41 0  0.06140001986584975 0.41 0  0.03015443760436654 0.41 0  0.2497468076502589 0.2050254481002335 0  0.2497468076502614 0.1949745518997913 0  0.2469965252529372 0.1829317073451959 0  0.2439893735792749 0.1762316384219906 0  0.2400332147834255 0.1700443375285386 0  0.2352133972704371 0.1645032867342007 0  0.2296339016332438 0.1597280261969788 0  0.2234150974217223 0.1558215752574715 0  0.2166911463437691 0.1528682099456123 0  0.2096071079204251 0.1509316448471593 0  0.2023158100364996 0.1500536585536553 0  0.194974551899914 0.1502531923497262 0  0.1877417105387872 0.1515259415822739 0  0.1807733240461124 0.153844448527136 0  0.1742197252835808 0.15715869474974 0  0.1682222986673531 0.1613971801805478 0  0.162910430003803 0.1664684656256651 0  0.1583987151779087 0.1722631454351573 0  0.1547844879126891 0.178656207771761 0  0.1521457199348551 0.1855097315605723 0  0.1505393388476355 0.1926758619366523 0  0.1505393388476328 0.2073241380633295 0  0.1521457199348437 0.2144902684393899 0  0.1547844879126531 0.221343792228163 0  0.1583987151778488 0.2277368545647528 0  0.1629104300036858 0.2335315343742052 0  0.1682222986671726 0.2386028198193036 0  0.1742197252833576 0.2428413052501257 0  0.1807733240458683 0.2461555514727623 0  0.1877417105384929 0.2484740584176516 0  0.1949745518995776 0.2497468076502398 0  0.202315810036185 0.2499463414463592 0  0.2096071079201568 0.2490683551528932 0  0.2166911463435495 0.2471317900544655 0  0.2234150974215506 0.2441784247426195 0  0.2296339016331197 0.2402719738031125 0  0.2352133972703547 0.2354967132658811 0  0.2400332147833751 0.2299556624715287 0  0.2439893735792577 0.2237683615780412 0  0.246996525252926 0.2170682926548348 0  0.25645809709277 0.21 0  0.2639263993298655 0.21 0  0.271394701566961 0.21 0  0.2788630038040554 0.21 0  0.2863313060411479 0.21 0  0.2937996082782405 0.21 0  0.301267910515333 0.21 0  0.3087362127524279 0.21 0  0.3162045149895234 0.21 0  0.3236728172265972 0.21 0  0.3311411194636928 0.21 0  0.3386094217007701 0.21 0  0.3460777239378666 0.21 0  0.3535460261749672 0.21 0  0.3610143284120516 0.21 0  0.3684826306491596 0.21 0  0.3759509328862226 0.21 0  0.383419235123329 0.21 0  0.3908875373604028 0.21 0  0.3983558395975142 0.21 0  0.4058241418345938 0.21 0  0.4132924440716992 0.21 0  0.4207607463087888 0.21 0  0.4282290485459029 0.21 0  0.4356973507830418 0.21 0  0.4431656530201649 0.21 0  0.4506339552573136 0.21 0  0.4581022574944306 0.21 0  0.4655705597315852 0.21 0  0.4730388619686996 0.21 0  0.480507164205851 0.21 0  0.4879754664429498 0.21 0  0.4954437686800938 0.21 0  0.502912070917267 0.21 0  0.5103803731544119 0.21 0  0.5178486753915261 0.21 0  0.5253169776286404 0.21 0  0.5327852798657868 0.21 0  0.5402535821029386 0.21 0  0.54772188434007 0.21 0  0.5551901865771842 0.21 0  0.5626584888143201 0.21 0  0.5701267910514778 0.21 0  0.5775950932886138 0.21 0  0.5850633955257281 0.21 0  0.5925316977628483 0.21 0  0.6 0.2050000000000054 0  0.6 0.1950000000000217 0  0.5925316977628897 0.19 0  0.5850633955257988 0.19 0  0.5775950932887378 0.19 0  0.5701267910515998 0.19 0  0.5626584888145268 0.19 0  0.5551901865773963 0.19 0  0.547721884340339 0.19 0  0.5402535821032429 0.19 0  0.5327852798661811 0.19 0  0.5253169776290537 0.19 0  0.5178486753919799 0.19 0  0.5103803731549078 0.19 0  0.502912070917822 0.19 0  0.4954437686807294 0.19 0  0.4879754664436223 0.19 0  0.4805071642065402 0.19 0  0.4730388619694271 0.19 0  0.4655705597323621 0.19 0  0.4581022574952563 0.19 0  0.4506339552581777 0.19 0  0.4431656530210671 0.19 0  0.4356973507839815 0.19 0  0.4282290485468779 0.19 0  0.4207607463097617 0.19 0  0.4132924440726327 0.19 0  0.4058241418354857 0.19 0  0.3983558395983636 0.19 0  0.3908875373612097 0.19 0  0.3834192351240934 0.19 0  0.3759509328869369 0.19 0  0.3684826306498175 0.19 0  0.361014328412667 0.19 0  0.3535460261755617 0.19 0  0.3460777239384295 0.19 0  0.3386094217012945 0.19 0  0.3311411194641595 0.19 0  0.3236728172270245 0.19 0  0.3162045149898895 0.19 0  0.3087362127527544 0.19 0  0.3012679105156187 0.19 0  0.2937996082784807 0.19 0  0.2863313060413428 0.19 0  0.2788630038042048 0.19 0  0.2713947015670686 0.19 0  0.2639263993299336 0.19 0  0.2564580970927985 0.19 0  0.2607803159922026 0.2000727136295815 0  0.5887803774232762 0.2001272386983733 0  0.5745072403740523 0.2002044435018727 0  0.5511891430099709 0.2001122610077113 0  0.2751288526855082 0.20000000000002 0  0.5365194309847112 0.1999999999999436 0  0.2894621222999649 0.1998691686390484 0  0.5215828265105155 0.1999999999999228 0  0.3127789816668748 0.1998657885438805 0  0.3274069683451451 0.2000000000000796 0  0.5066462220363641 0.199999999999908 0  0.3650630746574081 0.199866017807523 0  0.476773013087985 0.1999999999998713 0  0.3417402379596385 0.1998691686391011 0  0.3796850840047755 0.200000000000134 0  0.4618364086138087 0.1999999999998546 0  0.4917096175621762 0.1999999999998808 0  0.3946216884789568 0.2000000000001512 0  0.446899804139621 0.1999999999998389 0  0.4089549580935208 0.1998691686391595 0  0.4322718174608562 0.200127451265745 0  0.4201487168029707 0.1999966199048527 0  0.3528922713220932 0.2000185703532356 0  0.5633122436674589 0.1999814296467508 0  0.3006558810093873 0.1999966199048318 0  0.5815926498168407 0.1966545283159175 0  0.2677053789419034 0.1964246479135325 0  0.5290511287476175 0.1970915826863981 0  0.5439877332217911 0.197091582686394 0  0.2825131256993216 0.2035478995978015 0  0.3199386661080599 0.202908417313604 0  0.4842413153250809 0.1970915826863873 0  0.5141145242734466 0.1970915826863843 0  0.3722167817676917 0.2029084173136195 0  0.4693047108508938 0.1970915826863783 0  0.3348752705822316 0.202908417313609 0  0.3871533862418661 0.2029084173136212 0  0.4543681063767183 0.1970915826863795 0  0.4991779197992749 0.1970915826863902 0  0.4020059614928624 0.203547899597858 0  0.4394315019025246 0.1970915826863714 0  0.2550657455369551 0.2034088125358657 0  0.2548908499171161 0.1966940311614271 0  0.5946539510196798 0.2024302972968126 0  0.267698176732111 0.2039977513680092 0  0.4261685417851465 0.196409292431739 0  0.3590076176283495 0.196411355804271 0  0.5571672426447437 0.2036011176410121 0  0.3066757059912147 0.1964092924317024 0  0.594380730180568 0.1966558399668133 0  0.4842413153245942 0.2040749161535287 0  0.4693047108503577 0.2040749161535231 0  0.3871533862424271 0.1959250838464788 0  0.372246743208829 0.1959123236376545 0  0.5141145242731028 0.2040749161535395 0  0.4543681063761134 0.2040749161535186 0  0.4019979587101454 0.1959834479682427 0  0.4394608940728603 0.2040870543693135 0  0.5439623148931173 0.2040856076781014 0  0.5290511287473298 0.2040749161535501 0  0.4991779197988497 0.2040749161535382 0  0.3347912413592433 0.1959225448935183 0  0.3199680582793816 0.1959123018030061 0  0.2825051229162361 0.1959834479681729 0  0.3590471196690275 0.2036304442587945 0  0.5571594006495384 0.1963685282145804 0  0.3067669986803285 0.203627750582736 0  0.4262598344738712 0.2036568242185335 0  0.5814408164431408 0.2041285596160068 0  0.5688286748170428 0.1961819304477386 0  0.4145905603063645 0.2038180695522843 0  0.3473758401724931 0.2038180695522752 0  0.2950977245128307 0.2038180695522663 0  0.5688286748170693 0.203818069552238 0  0.2950977245127906 0.1961819304477774 0  0.3473758401723931 0.1961819304478349 0  0.4145905603061963 0.1961819304479011 0  0.2601812407614425 0.2056861609747042
[...]
<PointData  Vectors="f_40-0"> 
<DataArray  type="Float64"  Name="f_40-0"  NumberOfComponents="3" format="ascii">0.0000000000000000e+00 0.0000000000000000e+00 0.0000000000000000e+00  0.0000000000000000e+00 0.0000000000000000e+00 0.0000000000000000e+00  0.0000000000000000e+00 0.0000000000000000e+00 0.0000000000000000e+00  0.0000000000000000e+00 0.0000000000000000e+00 0.0000000000000000e+00  1.7089557884954619e-04 5.9997992895700208e-03 0.0000000000000000e+00  -2.6472844811765490e-04 6.0040382007004326e-03 0.0000000000000000e+00  0.0000000000000000e+00 0.0000000000000000e+00 0.0000000000000000e+00  0.0000000000000000e+00 0.0000000000000000e+00 0.0000000000000000e+00  0.0000000000000000e+00 0.0000000000000000e+00 0.0000000000000000e+00  0.0000000000000000e+00 0.0000000000000000e+00 0.0000000000000000e+00  -4.6391293827983900e-05 6.0018769211739320e-03 0.0000000000000000e+00  5.8970487148575279e-01 0.0000000000000000e+00 0.0000000000000000e+00  1.0886859165891543e+00 0.0000000000000000e+00 0.0000000000000000e+00  1.4969431353100875e+00 0.0000000000000000e+00 0.0000000000000000e+00  1.8144765276490247e+00 0.0000000000000000e+00 0.0000000000000000e+00  2.0412860936059252e+00 0.0000000000000000e+00 0.0000000000000000e+00  2.1773718331807750e+00 0.0000000000000000e+00 0.0000000000000000e+00  2.2227337463734385e+00 0.0000000000000000e+00 0.0000000000000000e+00  2.1773718331835261e+00 0.0000000000000000e+00 0.0000000000000000e+00  2.0412860936106512e+00 0.0000000000000000e+00 0.0000000000000000e+00  1.8144765276548775e+00 0.0000000000000000e+00 0.0000000000000000e+00  1.4969431353156475e+00 0.0000000000000000e+00 0.0000000000000000e+00  1.0886859165938989e+00 0.0000000000000000e+00 0.0000000000000000e+00  5.8970487148842610e-01 0.0000000000000000e+00 0.0000000000000000e+00  0.0000000000000000e+00 0.0000000000000000e+00 0.0000000000000000e+00  0.0000000000000000e+00 0.0000000000000000e+00 0.0000000000000000e+00  0.0000000000000000e+00 0.0000000000000000e+00 0.0000000000000000e+00  0.0000000000000000e+00 0.0000000000000000e+00 0.0000000000000000e+00  0.0000000000000000e+00 0.0000000000000000e+00 0.0000000000000000e+00  0.0000000000000000e+00 0.0000000000000000e+00 0.0000000000000000e+00  0.0000000000000000e+00 0.0000000000000000e+00 0.0000000000000000e+00  0.0000000000000000e+00 0.0000000000000000e+00 0.0000000000000000e+00  0.0000000000000000e+00 0.0000000000000000e+00 0.0000000000000000e+00  0.0000000000000000e+00 0.0000000000000000e+00 0.0000000000000000e+00  0.0000000000000000e+00 0.0000000000000000e+00 0.0000000000000000e+00  0.0000000000000000e+00 0.0000000000000000e+00 0.0000000000000000e+00  0.0000000000000000e+00 0.0000000000000000e+00 0.0000000000000000e+00  0.0000000000000000e+00 0.0000000000000000e+00 0.0000000000000000e+00  0.0000000000000000e+00 0.0000000000000000e+00 0.0000000000000000e+00  0.0000000000000000e+00 0.0000000000000000e+00 0.0000000000000000e+00  0.0000000000000000e+00 0.0000000000000000e+00 0.0000000000000000e+00  0.0000000000000000e+00 0.0000000000000000e+00 0.0000000000000000e+00  0.0000000000000000e+00 0.0000000000000000e+00 0.0000000000000000e+00  0.0000000000000000e+00 0.0000000000000000e+00 0.0000000000000000e+00  0.0000000000000000e+00 0.0000000000000000e+00 0.0000000000000000e+00  0.0000000000000000e+00 0.0000000000000000e+00 0.0000000000000000e+00  0.0000000000000000e+00 0.0000000000000000e+00 0.0000000000000000e+00  0.0000000000000000e+00 0.0000000000000000e+00 0.0000000000000000e+00  0.0000000000000000e+00 0.0000000000000000e+00 0.0000000000000000e+00  0.0000000000000000e+00 0.0000000000000000e+00 0.0000000000000000e+00  0.0000000000000000e+00 0.0000000000000000e+00 0.0000000000000000e+00  0.0000000000000000e+00 0.0000000000000000e+00 0.0000000000000000e+00  0.0000000000000000e+00 0.0000000000000000e+00 0.0000000000000000e+00  0.0000000000000000e+00 0.0000000000000000e+00 0.0000000000000000e+00  0.0000000000000000e+00 0.0000000000000000e+00 0.0000000000000000e+00  0.0000000000000000e+00 0.0000000000000000e+00 0.0000000000000000e+00  0.0000000000000000e+00 0.0000000000000000e+00 0.0000000000000000e+00  0.0000000000000000e+00 0.0000000000000000e+00 0.0000000000000000e+00  0.0000000000000000e+00 0.0000000000000000e+00 0.0000000000000000e+00  0.0000000000000000e+00 0.0000000000000000e+00 0.0000000000000000e+00  0.0000000000000000e+00 0.0000000000000000e+00 0.0000000000000000e+00  0.0000000000000000e+00 0.0000000000000000e+00 0.0000000000000000e+00  2.0189653240364853e+00 -2.8219384748856904e-02 0.0000000000000000e+00  1.6867079147301716e+00 1.2315927520346040e-02 0.0000000000000000e+00  1.9873844290204503e+00 6.9520366192950628e-02 0.0000000000000000e+00  0.0000000000000000e+00 0.0000000000000000e+00 0.0000000000000000e+00  0.0000000000000000e+00 0.0000000000000000e+00 0.0000000000000000e+00  0.0000000000000000e+00 0.0000000000000000e+00 0.0000000000000000e+00  0.0000000000000000e+00 0.0000000000000000e+00 0.0000000000000000e+00  0.0000000000000000e+00 0.0000000000000000e+00 0.0000000000000000e+00  0.0000000000000000e+00 0.0000000000000000e+00 0.0000000000000000e+00  0.0000000000000000e+00 0.0000000000000000e+00 0.0000000000000000e+00  0.0000000000000000e+00 0.0000000000000000e+00 0.0000000000000000e+00  0.0000000000000000e+00 0.0000000000000000e+00 0.0000000000000000e+00  0.0000000000000000e+00 0.0000000000000000e+00 0.0000000000000000e+00  0.0000000000000000e+00 0.0000000000000000e+00 0.0000000000000000e+00  0.0000000000000000e+00 0.0000000000000000e+00 0.0000000000000000e+00  0.0000000000000000e+00 0.0000000000000000e+00 0.0000000000000000e+00  0.0000000000000000e+00 0.0000000000000000e+00 0.0000000000000000e+00  0.0000000000000000e+00 0.0000000000000000e+00 0.0000000000000000e+00  0.0000000000000000e+00 0.0000000000000000e+00 0.0000000000000000e+00  0.0000000000000000e+00 0.0000000000000000e+00 0.0000000000000000e+00  0.0000000000000000e+00 0.0000000000000000e+00 0.0000000000000000e+00  0.0000000000000000e+00 0.0000000000000000e+00 0.0000000000000000e+00  0.0000000000000000e+00 0.0000000000000000e+00 0.0000000000000000e+00  0.0000000000000000e+00 0.0000000000000000e+00 0.0000000000000000e+00  0.0000000000000000e+00 0.0000000000000000e+00 0.0000000000000000e+00  0.0000000000000000e+00 0.0000000000000000e+00 0.0000000000000000e+00  0.0000000000000000e+00 0.0000000000000000e+00 0.0000000000000000e+00  0.0000000000000000e+00 0.0000000000000000e+00 0.0000000000000000e+00  0.0000000000000000e+00 0.0000000000000000e+00 0.0000000000000000e+00  0.0000000000000000e+00 0.0000000000000000e+00 0.0000000000000000e+00  0.0000000000000000e+00 0.0000000000000000e+00 0.0000000000000000e+00  0.0000000000000000e+00 0.0000000000000000e+00 0.0000000000000000e+00  0.0000000000000000e+00 0.0000000000000000e+00 0.0000000000000000e+00  0.0000000000000000e+00 0.0000000000000000e+00 0.0000000000000000e+00  0.0000000000000000e+00 0.0000000000000000e+00 0.0000000000000000e+00  0.0000000000000000e+00 0.0000000000000000e+00 0.0000000000000000e+00  0.0000000000000000e+00 0.0000000000000000e+00 0.0000000000000000e+00  0.0000000000000000e+00 0.0000000000000000e+00 0.0000000000000000e+00  0.0000000000000000e+00 0.0000000000000000e+00 0.0000000000000000e+00  0.0000000000000000e+00 0.0000000000000000e+00 0.0000000000000000e+00  0.0000000000000000e+00 0.0000000000000000e+00 0.0000000000000000e+00  0.0000000000000000e+00 0.0000000000000000e+00 0.0000000000000000e+00  0.0000000000000000e+00 0.0000000000000000e+00 0.0000000000000000e+00  0.0000000000000000e+00 0.0000000000000000e+00 0.0000000000000000e+00  0.0000000000000000e+00 0.0000000000000000e+00 0.0000000000000000e+00  0.0000000000000000e+00 0.0000000000000000e+00 0.0000000000000000e+00  0.0000000000000000e+00 0.0000000000000000e+00 0.0000000000000000e+00  0.0000000000000000e+00 0.0000000000000000e+00 0.0000000000000000e+00  0.0000000000000000e+00 0.0000000000000000e+00 0.0000000000000000e+00  0.0000000000000000e+00 0.0000000000000000e+00 0.0000000000000000e+00  0.0000000000000000e+00 0.0000000000000000e+00 0.0000000000000000e+00  0.0000000000000000e+00 0.0000000000000000e+00 0.0000000000000000e+00  0.0000000000000000e+00 0.0000000000000000e+00 0.0000000000000000e+00  0.0000000000000000e+00 0.0000000000000000e+00 0.0000000000000000e+00  0.0000000000000000e+00 0.0000000000000000e+00 0.0000000000000000e+00  0.0000000000000000e+00 0.0000000000000000e+00 0.0000000000000000e+00  0.0000000000000000e+00 0.0000000000000000e+00 0.0000000000000000e+00  0.0000000000000000e+00 0.0000000000000000e+00 0.0000000000000000e+00  0.0000000000000000e+00 0.0000000000000000e+00 0.0000000000000000e+00  0.0000000000000000e+00 0.0000000000000000e+00 0.0000000000000000e+00  0.0000000000000000e+00 0.0000000000000000e+00 0.0000000000000000e+00  0.0000000000000000e+00 0.0000000000000000e+00 0.0000000000000000e+00  0.0000000000000000e+00 0.0000000000000000e+00 0.0000000000000000e+00  0.0000000000000000e+00 0.0000000000000000e+00 0.0000000000000000e+00  0.0000000000000000e+00 0.0000000000000000e+00 0.0000000000000000e+00  0.0000000000000000e+00 0.0000000000000000e+00 0.0000000000000000e+00  0.0000000000000000e+00 0.0000000000000000e+00 0.0000000000000000e+00  0.0000000000000000e+00 0.0000000000000000e+00 0.0000000000000000e+00  0.0000000000000000e+00 0.0000000000000000e+00 0.0000000000000000e+00  0.0000000000000000e+00 0.0000000000000000e+00 0.0000000000000000e+00  0.0000000000000000e+00 0.0000000000000000e+00 0.0000000000000000e+00  0.0000000000000000e+00 0.0000000000000000e+00 0.0000000000000000e+00  0.0000000000000000e+00 0.0000000000000000e+00 0.0000000000000000e+00  0.0000000000000000e+00 0.0000000000000000e+00 0.0000000000000000e+00  0.0000000000000000e+00 0.0000000000000000e+00 0.0000000000000000e+00  0.0000000000000000e+00 0.0000000000000000e+00 0.0000000000000000e+00  0.0000000000000000e+00 0.0000000000000000e+00 0.0000000000000000e+00  0.0000000000000000e+00 0.0000000000000000e+00 0.0000000000000000e+00  0.0000000000000000e+00 0.0000000000000000e+00 0.0000000000000000e+00  0.0000000000000000e+00 0.0000000000000000e+00 0.0000000000000000e+00  0.0000000000000000e+00 0.0000000000000000e+00 0.0000000000000000e+00  -1.5160411776767481e-05 1.6167300512644787e-05 0.0000000000000000e+00  -3.2273705357876160e-05 3.3672646456750841e-05 0.0000000000000000e+00  -4.7529567095800229e-05 6.1717073328389807e-05 0.0000000000000000e+00  -6.3909940331880857e-05 1.0095844544301820e-04 0.0000000000000000e+00  -7.7653805660118667e-05 1.4951853082469655e-04 0.0000000000000000e+00  -9.2935744416623983e-05 2.0824456527440493e-04 0.0000000000000000e+00  -1.0529093389586578e-04 2.7437676514984588e-04 0.0000000000000000e+00  -1.1715462026238037e-04 3.5015240092118493e-04 0.0000000000000000e+00  -1.3046717048871085e-04 4.3313223620218978e-04 0.0000000000000000e+00  -1.4069383547683504e-04 5.2349727238088406e-04 0.0000000000000000e+00  -1.5275943934614180e-04 6.2104514066035974e-04 0.0000000000000000e+00  -1.6190750043895756e-04 7.2502633666464303e-04 0.0000000000000000e+00  -1.7231860726631173e-04 8.3515420112987334e-04 0.0000000000000000e+00  -1.8063039454296978e-04 9.5013645436089512e-04 0.0000000000000000e+00  -1.8851194986022269e-04 1.0710017012255566e-03 0.0000000000000000e+00  -1.9710353463824900e-04 1.1961863479191548e-03 0.0000000000000000e+00  -2.0369085170545868e-04 1.3256759187183346e-03 0.0000000000000000e+00  -2.1114074277799866e-04 1.4593010780233791e-03 0.0000000000000000e+00  -2.1677816009059179e-04 1.5964103292793537e-03 0.0000000000000000e+00  -2.2301688834347900e-04 1.7367812483559733e-03 0.0000000000000000e+00  -2.2798769438992720e-04 1.8800863771444895e-03 0.0000000000000000e+00  -2.3313671196714323e-04 2.0261744226538945e-03 0.0000000000000000e+00  -2.3729553156955804e-04 2.1741897605436667e-03 0.0000000000000000e+00  -2.4111528811411535e-04 2.3246186125734404e-03 0.0000000000000000e+00  -2.4504512226865911e-04 2.4766178793832285e-03 0.0000000000000000e+00  -2.4825680514967830e-04 2.6303382307978278e-03 0.0000000000000000e+00  -2.5128731465319634e-04 2.7855504892261001e-03 0.0000000000000000e+00  -2.5388417032639568e-04 2.9418485389800532e-03 0.0000000000000000e+00  -2.5629322590632538e-04 3.0993338428419643e-03 0.0000000000000000e+00  -2.5833943647315797e-04 3.2575996734644321e-03 0.0000000000000000e+00  -2.6020515361639175e-04 3.4167524667869701e-03 0.0000000000000000e+00  -2.6176357614837790e-04 3.5764372943091955e-03 0.0000000000000000e+00  -2.6315530265009004e-04 3.7367684613161434e-03 0.0000000000000000e+00  -2.6428588363887952e-04 3.8974343737860806e-03 0.0000000000000000e+00  -2.6525040326059454e-04 4.0585718142771218e-03 0.0000000000000000e+00  -2.6600094693086522e-04 4.2199067057609573e-03 0.0000000000000000e+00  -2.6660359513697634e-04 4.3815689286131540e-03 0.0000000000000000e+00  -2.6702307170285732e-04 4.5433322197263714e-03 0.0000000000000000e+00  -2.6730042294028023e-04 4.7053287324648136e-03 0.0000000000000000e+00  -2.6741297904455389e-04 4.8673633688748278e-03 0.0000000000000000e+00  -2.6738213396843371e-04 5.0295508818050134e-03 0.0000000000000000e+00  -2.6722409392499272e-04 5.1917660508794383e-03 0.0000000000000000e+00  -2.6690972734918285e-04 5.3540676861913361e-03 0.0000000000000000e+00  -2.6652485104951750e-04 5.5164068354538603e-03 0.0000000000000000e+00  -2.6597570706943198e-04 5.6787507850476655e-03 0.0000000000000000e+00  -2.6533827219467235e-04 5.8412093127936243e-03 0.0000000000000000e+00  -1.5534802073452540e-04 6.0029526731352366e-03 0.0000000000000000e+00  6.2405024520283451e-05 6.0008213820597015e-03 0.0000000000000000e+00  1.7017552394782149e-04 5.8372735440830343e-03 0.0000000000000000e+00  1.6940244523049028e-04 5.6745332319444643e-03 0.0000000000000000e+00  1.6871382784736477e-04 5.5117851089858273e-03 0.0000000000000000e+00  1.6813745453376461e-04 5.3491370318171395e-03 0.0000000000000000e+00  1.6764533231930707e-04 5.1865395635091920e-03 0.0000000000000000e+00  1.6728112264785655e-04 5.0240271654192663e-03 0.0000000000000000e+00  1.6695901341636166e-04 4.8616038413381727e-03 0.0000000000000000e+00  1.6676912686512327e-04 4.6992526297770371e-03 0.0000000000000000e+00  1.6659957595512717e-04 4.5370787153125973e-03 0.0000000000000000e+00  1.6654814307025075e-04 4.3750126615885914e-03 0.0000000000000000e+00  1.6646570366289534e-04 4.2131897196868327e-03 0.0000000000000000e+00  1.6650582760537218e-04 4.0515722570462704e-03 0.0000000000000000e+00  1.6644623239051026e-04 3.8902992847540101e-03 0.0000000000000000e+00  1.6651525866564663e-04 3.7293736748511440e-03 0.0000000000000000e+00  1.6639176141577906e-04 3.5689267645007895e-03 0.0000000000000000e+00  1.6642200128544674e-04 3.4090132745663465e-03 0.0000000000000000e+00  1.6614861291612410e-04 3.2497647075453479e-03 0.0000000000000000e+00  1.6606529509803259e-04 3.0912921070778763e-03 0.0000000000000000e+00  1.6554014993954821e-04 2.9337302886905158e-03 0.0000000000000000e+00  1.6525800276632075e-04 2.7772464070666488e-03 0.0000000000000000e+00  1.6435669814801289e-04 2.6219823555838624e-03 0.0000000000000000e+00  1.6376824694768066e-04 2.4681719280425451e-03 0.0000000000000000e+00  1.6241102070943921e-04 2.3159965687558214e-03 0.0000000000000000e+00  1.6130231468969178e-04 2.1655031525637403e-03 0.0000000000000000e+00  1.5997917304443418e-04 2.0174330272611464e-03 0.0000000000000000e+00  1.5782344697249715e-04 1.8712126063511491e-03 0.0000000000000000e+00  1.5575624383453601e-04 1.7279412158461964e-03 0.0000000000000000e+00  1.5296683334995191e-04 1.5873797764443694e-03 0.0000000000000000e+00  1.5013408720820139e-04 1.4502731676411592e-03 0.0000000000000000e+00  1.4651498420810901e-04 1.3165826251716475e-03 0.0000000000000000e+00  1.4283936427692310e-04 1.1868633438466998e-03 0.0000000000000000e+00  1.3777026992237609e-04 1.0619158492681305e-03 0.0000000000000000e+00  1.3338061342480138e-04 9.4093459528009154e-04 0.0000000000000000e+00  1.2856915978476095e-04 8.2598613625859232e-04 0.0000000000000000e+00  1.2198571822669665e-04 7.1541869521913324e-04 0.0000000000000000e+00  1.1568583791800611e-04 6.1161604785062108e-04 0.0000000000000000e+00  1.0814041665213908e-04 5.1395276814022604e-04 0.0000000000000000e+00  1.0071245932254367e-04 4.2322835360106959e-04 0.0000000000000000e+00  9.1159778072261350e-05 3.4062613750559059e-04 0.0000000000000000e+00  8.2893139979053624e-05 2.6465187000770490e-04 0.0000000000000000e+00  7.4154524600862542e-05 1.9846814221952409e-04 0.0000000000000000e+00  6.2699340079482699e-05 1.3938932122108889e-04 0.0000000000000000e+00  5.2177237932007049e-05 9.0553803099294395e-05 0.0000000000000000e+00  3.9193195103833706e-05 5.1715102671881497e-05 0.0000000000000000e+00  2.7457991993359463e-05 2.3654519200448410e-05 0.0000000000000000e+00  1.3007799722151851e-05 6.6833771784033497e-06 0.0000000000000000e+00  -1.0882375570944306e-06 1.2203863467033664e-05 0.0000000000000000e+00  -5.0494793993172853e-05 5.7575564830018838e-03 0.0000000000000000e+00  -5.3489462136554267e-05 5.4469044991206266e-03 0.0000000000000000e+00  -5.2517004558907633e-05 4.9397850506719496e-03 0.0000000000000000e+00  -4.8309686564007523e-06 6.8219398302680462e-05 0.0000000000000000e+00  -5.0152892731140670e-05 4.6211252995821961e-03 0.0000000000000000e+00  -7.3513674466797595e-06 1.6167454940457462e-04 0.0000000000000000e+00  -4.9815492783690139e-05 4.2972323574245836e-03 0.0000000000000000e+00  -1.2407052134741180e-05 3.8411100342236387e-04 0.0000000000000000e+00  -1.7403102118197236e-05 5.6235445378327240e-04 0.0000000000000000e+00  -4.9066305135911378e-05 3.9741906259809778e-03 0.0000000000000000e+00  -2.4009409122172609e-05 1.1306043999806791e-03 0.0000000000000000e+00  -4.6423297725110345e-05 3.3327037925403643e-03 0.0000000000000000e+00  -1.8925477188697793e-05 7.6172722680657614e-04 0.0000000000000000e+00  -2.9545433931578860e-05 1.3850136430947487e-03 0.0000000000000000e+00  -4.4578888509822682e-05 3.0157592293783807e-03 0.0000000000000000e+00  -4.7927747343933575e-05 3.6524658142474209e-03 0.0000000000000000e+00  -3.2769938292863800e-05 1.6596799590564934e-03 0.0000000000000000e+00  -4.2410587772344714e-05 2.7027297783915154e-03 0.0000000000000000e+00  -3.3152025661624623e-05 1.9348096925130903e-03 0.0000000000000000e+00  -4.2611794775573888e-05 2.4013039405336766e-03 0.0000000000000000e+00  -3.7762525802631241e-05 2.1565762179616504e-03 0.0000000000000000e+00  -2.3722496085039229e-05 9.3274647389476612e-04 0.0000000000000000e+00  -4.9234428468332208e-05 5.2033267707325779e-03 0.0000000000000000e+00  -1.0912749955404217e-05 2.5966695347954269e-04 0.0000000000000000e+00  2.4359865933366138e-05 5.6003433766528580e-03 0.0000000000000000e+00  1.0238475953454348e-05 3.3666273055616298e-05 0.0000000000000000e+00  1.2982389902935808e-05 4.4581835631226363e-03 0.0000000000000000e+00  1.2977432590975438e-05 4.7824389026340152e-03 0.0000000000000000e+00  -2.9096060162513942e-05 1.1486167571268658e-04 0.0000000000000000e+00  -5.0586403920654011e-05 4.6998091533067714e-04 0.0000000000000000e+00  1.4918971433529946e-05 3.4912432179684504e-03 0.0000000000000000e+00  1.3340170050510568e-05 4.1346117894576623e-03 0.0000000000000000e+00  -7.8080241512380012e-05 1.2548235886070218e-03 0.0000000000000000e+00  1.6015390778960848e-05 3.1727448538846608e-03 0.0000000000000000e+00  -5.9161210495991987e-05 6.6535665758179574e-04 0.0000000000000000e+00  -8.4266244908304136e-05 1.5222811786262157e-03 0.0000000000000000e+00  1.7228250903876951e-05 2.8575919996741903e-03 0.0000000000000000e+00  1.4006195483359214e-05 3.8121132465612712e-03 0.0000000000000000e+00  -1.0199702734078431e-04 1.8020734127697806e-03 0.0000000000000000e+00  1.8505556847456204e-05 2.5470033336171378e-03 0.0000000000000000e+00  -2.3754770062885555e-06 3.7758734422908192e-06 0.0000000000000000e+00  2.3015877760695802e-06 1.3514207365359293e-06 0.0000000000000000e+00  -9.9961264688782462e-05 5.8859190719254854e-03 0.0000000000000000e+00  -1.7676661235009460e-05 3.7721716206158148e-05 0.0000000000000000e+00  3.3343388283885996e-05 2.2759820427681182e-03 0.0000000000000000