<?xml version="1.0"?>
<VTKFile type="UnstructuredGrid"  version="0.1"  >
<UnstructuredGrid>
<Piece  NumberOfPoints="1419" NumberOfCells="2698">
<Points>
<DataArray  type="Float64"  NumberOfComponents="3"  format="ascii">0 0 0  0 0.41 0  2.5 0 0  2.5 0.41 0  0.6 0.19 0  0.6 0.21 0  0.25 0.2 0  0.15 0.2 0  0.2489897948556636 0.21 0  0.2489897948556636 0.19 0  0.6 0.2 0  0 0.3807142857143437 0  0 0.3514285714286952 0  0 0.3221428571430699 0  0 0.29285714285744 0  0 0.2635714285718054 0  0 0.2342857142861561 0  0 0.2050000000005308 0  0 0.175714285714732 0  0 0.1464285714289574 0  0 0.1171428571431897 0  0 0.08785714285737878 0  0 0.05857142857161107 0  0 0.02928571428580012 0  0.03015443760436003 0 0  0.06140001986583606 0 0  0.09377624077125973 0 0  0.1273239957535082 0 0  0.1620856860351972 0 0  0.1981052433264291 0 0  0.235428184091502 0 0  0.2741016576309132 0 0  0.3141745521465447 0 0  0.3556974926295285 0 0  0.3987229542472677 0 0  0.4433053055141081 0 0  0.4895008759286886 0 0  0.5373680609405097 0 0  0.5869673343216626 0 0  0.6383613676634521 0 0  0.6916151138468254 0 0  0.7467958595648856 0 0  0.8039733463919316 0 0  0.8632198139502143 0 0  0.9246101326867038 0 0  0.9882218810934433 0 0  1.054135445558498 0 0  1.122434100542598 0 0  1.193204177141305 0 0  1.266535089879536 0 0  1.342519516046404 0 0  1.421253448503939 0 0  1.502836389106271 0 0  1.587371439758838 0 0  1.674965418777374 0 0  1.765729001825544 0 0  1.859776908880082 0 0  1.957227977487062 0 0  2.058205329869943 0 0  2.162836591189951 0 0  2.271253957290865 0 0  2.383594446803425 0 0  2.5 0.1024999999997612 0  2.5 0.2049999999994743 0  2.5 0.3074999999997183 0  2.383594446803656 0.41 0  2.271253957291315 0.41 0  2.162836591190598 0.41 0  2.058205329870775 0.41 0  1.957227977488067 0.41 0  1.859776908881246 0.41 0  1.765729001826854 0.41 0  1.674965418778818 0.41 0  1.58737143976041 0.41 0  1.502836389107956 0.41 0  1.421253448505726 0.41 0  1.342519516048286 0.41 0  1.266535089881505 0.41 0  1.193204177143353 0.41 0  1.122434100544716 0.41 0  1.05413544556068 0.41 0  0.9882218810956305 0.41 0  0.9246101326886647 0.41 0  0.8632198139519631 0.41 0  0.8039733463934788 0.41 0  0.7467958595662458 0.41 0  0.6916151138480078 0.41 0  0.6383613676644679 0.41 0  0.5869673343225223 0.41 0  0.5373680609412221 0.41 0  0.4895008759292634 0.41 0  0.4433053055145528 0.41 0  0.3987229542475914 0.41 0  0.3556974926297398 0.41 0  0.3141745521466497 0.41 0  0.2741016576310038 0.41 0  0.2354281840915826 0.41 0  0.1981052433265003 0.41 0  0.1620856860352591 0.41 0  0.1273239957535623 0.41 0  0.09377624077128965 0.41 0  0.06140001986584975 0.41 0  0.03015443760436654 0.41 0  0.2497468076502589 0.2050254481002335 0  0.2497468076502614 0.1949745518997913 0  0.2469965252529372 0.1829317073451959 0  0.2439893735792749 0.1762316384219906 0  0.2400332147834255 0.1700443375285386 0  0.2352133972704371 0.1645032867342007 0  0.2296339016332438 0.1597280261969788 0  0.2234150974217223 0.1558215752574715 0  0.2166911463437691 0.1528682099456123 0  0.2096071079204251 0.1509316448471593 0  0.2023158100364996 0.1500536585536553 0  0.194974551899914 0.1502531923497262 0  0.1877417105387872 0.1515259415822739 0  0.1807733240461124 0.153844448527136 0  0.1742197252835808 0.15715869474974 0  0.1682222986673531 0.1613971801805478 0  0.162910430003803 0.1664684656256651 0  0.1583987151779087 0.1722631454351573 0  0.1547844879126891 0.178656207771761 0  0.1521457199348551 0.1855097315605723 0  0.1505393388476355 0.1926758619366523 0  0.1505393388476328 0.2073241380633295 0  0.1521457199348437 0.2144902684393899 0  0.1547844879126531 0.221343792228163 0  0.1583987151778488 0.2277368545647528 0  0.1629104300036858 0.2335315343742052 0  0.1682222986671726 0.2386028198193036 0  0.1742197252833576 0.2428413052501257 0  0.1807733240458683 0.2461555514727623 0  0.1877417105384929 0.2484740584176516 0  0.1949745518995776 0.2497468076502398 0  0.202315810036185 0.2499463414463592 0  0.2096071079201568 0.2490683551528932 0  0.2166911463435495 0.2471317900544655 0  0.2234150974215506 0.2441784247426195 0  0.2296339016331197 0.2402719738031125 0  0.2352133972703547 0.2354967132658811 0  0.2400332147833751 0.2299556624715287 0  0.2439893735792577 0.2237683615780412 0  0.246996525252926 0.2170682926548348 0  0.25645809709277 0.21 0  0.2639263993298655 0.21 0  0.271394701566961 0.21 0  0.2788630038040554 0.21 0  0.2863313060411479 0.21 0  0.2937996082782405 0.21 0  0.301267910515333 0.21 0  0.3087362127524279 0.21 0  0.3162045149895234 0.21 0  0.3236728172265972 0.21 0  0.3311411194636928 0.21 0  0.3386094217007701 0.21 0  0.3460777239378666 0.21 0  0.3535460261749672 0.21 0  0.3610143284120516 0.21 0  0.3684826306491596 0.21 0  0.3759509328862226 0.21 0  0.383419235123329 0.21 0  0.3908875373604028 0.21 0  0.3983558395975142 0.21 0  0.4058241418345938 0.21 0  0.4132924440716992 0.21 0  0.4207607463087888 0.21 0  0.4282290485459029 0.21 0  0.4356973507830418 0.21 0  0.4431656530201649 0.21 0  0.4506339552573136 0.21 0  0.4581022574944306 0.21 0  0.4655705597315852 0.21 0  0.4730388619686996 0.21 0  0.480507164205851 0.21 0  0.4879754664429498 0.21 0  0.4954437686800938 0.21 0  0.502912070917267 0.21 0  0.5103803731544119 0.21 0  0.5178486753915261 0.21 0  0.5253169776286404 0.21 0  0.5327852798657868 0.21 0  0.5402535821029386 0.21 0  0.54772188434007 0.21 0  0.5551901865771842 0.21 0  0.5626584888143201 0.21 0  0.5701267910514778 0.21 0  0.5775950932886138 0.21 0  0.5850633955257281 0.21 0  0.5925316977628483 0.21 0  0.6 0.2050000000000054 0  0.6 0.1950000000000217 0  0.5925316977628897 0.19 0  0.5850633955257988 0.19 0  0.5775950932887378 0.19 0  0.5701267910515998 0.19 0  0.5626584888145268 0.19 0  0.5551901865773963 0.19 0  0.547721884340339 0.19 0  0.5402535821032429 0.19 0  0.5327852798661811 0.19 0  0.5253169776290537 0.19 0  0.5178486753919799 0.19 0  0.5103803731549078 0.19 0  0.502912070917822 0.19 0  0.4954437686807294 0.19 0  0.4879754664436223 0.19 0  0.4805071642065402 0.19 0  0.4730388619694271 0.19 0  0.4655705597323621 0.19 0  0.4581022574952563 0.19 0  0.4506339552581777 0.19 0  0.4431656530210671 0.19 0  0.4356973507839815 0.19 0  0.4282290485468779 0.19 0  0.4207607463097617 0.19 0  0.4132924440726327 0.19 0  0.4058241418354857 0.19 0  0.3983558395983636 0.19 0  0.3908875373612097 0.19 0  0.3834192351240934 0.19 0  0.3759509328869369 0.19 0  0.3684826306498175 0.19 0  0.361014328412667 0.19 0  0.3535460261755617 0.19 0  0.3460777239384295 0.19 0  0.3386094217012945 0.19 0  0.3311411194641595 0.19 0  0.3236728172270245 0.19 0  0.3162045149898895 0.19 0  0.3087362127527544 0.19 0  0.3012679105156187 0.19 0  0.2937996082784807 0.19 0  0.2863313060413428 0.19 0  0.2788630038042048 0.19 0  0.2713947015670686 0.19 0  0.2639263993299336 0.19 0  0.2564580970927985 0.19 0  0.2607803159922026 0.2000727136295815 0  0.5887803774232762 0.2001272386983733 0  0.5745072403740523 0.2002044435018727 0  0.5511891430099709 0.2001122610077113 0  0.2751288526855082 0.20000000000002 0  0.5365194309847112 0.1999999999999436 0  0.2894621222999649 0.1998691686390484 0  0.5215828265105155 0.1999999999999228 0  0.3127789816668748 0.1998657885438805 0  0.3274069683451451 0.2000000000000796 0  0.5066462220363641 0.199999999999908 0  0.3650630746574081 0.199866017807523 0  0.476773013087985 0.1999999999998713 0  0.3417402379596385 0.1998691686391011 0  0.3796850840047755 0.200000000000134 0  0.4618364086138087 0.1999999999998546 0  0.4917096175621762 0.1999999999998808 0  0.3946216884789568 0.2000000000001512 0  0.446899804139621 0.1999999999998389 0  0.4089549580935208 0.1998691686391595 0  0.4322718174608562 0.200127451265745 0  0.4201487168029707 0.1999966199048527 0  0.3528922713220932 0.2000185703532356 0  0.5633122436674589 0.1999814296467508 0  0.3006558810093873 0.1999966199048318 0  0.5815926498168407 0.1966545283159175 0  0.2677053789419034 0.1964246479135325 0  0.5290511287476175 0.1970915826863981 0  0.5439877332217911 0.197091582686394 0  0.2825131256993216 0.2035478995978015 0  0.3199386661080599 0.202908417313604 0  0.4842413153250809 0.1970915826863873 0  0.5141145242734466 0.1970915826863843 0  0.3722167817676917 0.2029084173136195 0  0.4693047108508938 0.1970915826863783 0  0.3348752705822316 0.202908417313609 0  0.3871533862418661 0.2029084173136212 0  0.4543681063767183 0.1970915826863795 0  0.4991779197992749 0.1970915826863902 0  0.4020059614928624 0.203547899597858 0  0.4394315019025246 0.1970915826863714 0  0.2550657455369551 0.2034088125358657 0  0.2548908499171161 0.1966940311614271 0  0.5946539510196798 0.2024302972968126 0  0.267698176732111 0.2039977513680092 0  0.4261685417851465 0.196409292431739 0  0.3590076176283495 0.196411355804271 0  0.5571672426447437 0.2036011176410121 0  0.3066757059912147 0.1964092924317024 0  0.594380730180568 0.1966558399668133 0  0.4842413153245942 0.2040749161535287 0  0.4693047108503577 0.2040749161535231 0  0.3871533862424271 0.1959250838464788 0  0.372246743208829 0.1959123236376545 0  0.5141145242731028 0.2040749161535395 0  0.4543681063761134 0.2040749161535186 0  0.4019979587101454 0.1959834479682427 0  0.4394608940728603 0.2040870543693135 0  0.5439623148931173 0.2040856076781014 0  0.5290511287473298 0.2040749161535501 0  0.4991779197988497 0.2040749161535382 0  0.3347912413592433 0.1959225448935183 0  0.3199680582793816 0.1959123018030061 0  0.2825051229162361 0.1959834479681729 0  0.3590471196690275 0.2036304442587945 0  0.5571594006495384 0.1963685282145804 0  0.3067669986803285 0.203627750582736 0  0.4262598344738712 0.2036568242185335 0  0.5814408164431408 0.2041285596160068 0  0.5688286748170428 0.1961819304477386 0  0.4145905603063645 0.2038180695522843 0  0.3473758401724931 0.2038180695522752 0  0.2950977245128307 0.2038180695522663 0  0.5688286748170693 0.203818069552238 0  0.2950977245127906 0.1961819304477774 0  0.3473758401723931 0.1961819304478349 0  0.4145905603061963 0.1961819304479011 0  0.2601812407614425 0.2056861609747042
[...]
<PointData  Vectors="f_40-0"> 
<DataArray  type="Float64"  Name="f_40-0"  NumberOfComponents="3" format="ascii">0.0000000000000000e+00 0.0000000000000000e+00 0.0000000000000000e+00  0.0000000000000000e+00 0.0000000000000000e+00 0.0000000000000000e+00  0.0000000000000000e+00 0.0000000000000000e+00 0.0000000000000000e+00  0.0000000000000000e+00 0.0000000000000000e+00 0.0000000000000000e+00  1.5641132323369714e-06 5.7396599582217728e-05 0.0000000000000000e+00  -2.6907203473269062e-06 5.7352317847130705e-05 0.0000000000000000e+00  0.0000000000000000e+00 0.0000000000000000e+00 0.0000000000000000e+00  0.0000000000000000e+00 0.0000000000000000e+00 0.0000000000000000e+00  0.0000000000000000e+00 0.0000000000000000e+00 0.0000000000000000e+00  0.0000000000000000e+00 0.0000000000000000e+00 0.0000000000000000e+00  -5.6338631918594947e-07 5.7359444845512712e-05 0.0000000000000000e+00  7.9591836734548405e-01 0.0000000000000000e+00 0.0000000000000000e+00  1.4693877550994523e+00 0.0000000000000000e+00 0.0000000000000000e+00  2.0204081632617479e+00 0.0000000000000000e+00 0.0000000000000000e+00  2.4489795918330071e+00 0.0000000000000000e+00 0.0000000000000000e+00  2.7551020408131754e+00 0.0000000000000000e+00 0.0000000000000000e+00  2.9387755102022344e+00 0.0000000000000000e+00 0.0000000000000000e+00  3.0000000000000004e+00 0.0000000000000000e+00 0.0000000000000000e+00  2.9387755102059474e+00 0.0000000000000000e+00 0.0000000000000000e+00  2.7551020408195543e+00 0.0000000000000000e+00 0.0000000000000000e+00  2.4489795918409065e+00 0.0000000000000000e+00 0.0000000000000000e+00  2.0204081632692521e+00 0.0000000000000000e+00 0.0000000000000000e+00  1.4693877551058563e+00 0.0000000000000000e+00 0.0000000000000000e+00  7.9591836734909216e-01 0.0000000000000000e+00 0.0000000000000000e+00  0.0000000000000000e+00 0.0000000000000000e+00 0.0000000000000000e+00  0.0000000000000000e+00 0.0000000000000000e+00 0.0000000000000000e+00  0.0000000000000000e+00 0.0000000000000000e+00 0.0000000000000000e+00  0.0000000000000000e+00 0.0000000000000000e+00 0.0000000000000000e+00  0.0000000000000000e+00 0.0000000000000000e+00 0.0000000000000000e+00  0.0000000000000000e+00 0.0000000000000000e+00 0.0000000000000000e+00  0.0000000000000000e+00 0.0000000000000000e+00 0.0000000000000000e+00  0.0000000000000000e+00 0.0000000000000000e+00 0.0000000000000000e+00  0.0000000000000000e+00 0.0000000000000000e+00 0.0000000000000000e+00  0.0000000000000000e+00 0.0000000000000000e+00 0.0000000000000000e+00  0.0000000000000000e+00 0.0000000000000000e+00 0.0000000000000000e+00  0.0000000000000000e+00 0.0000000000000000e+00 0.0000000000000000e+00  0.0000000000000000e+00 0.0000000000000000e+00 0.0000000000000000e+00  0.0000000000000000e+00 0.0000000000000000e+00 0.0000000000000000e+00  0.0000000000000000e+00 0.0000000000000000e+00 0.0000000000000000e+00  0.0000000000000000e+00 0.0000000000000000e+00 0.0000000000000000e+00  0.0000000000000000e+00 0.0000000000000000e+00 0.0000000000000000e+00  0.0000000000000000e+00 0.0000000000000000e+00 0.0000000000000000e+00  0.0000000000000000e+00 0.0000000000000000e+00 0.0000000000000000e+00  0.0000000000000000e+00 0.0000000000000000e+00 0.0000000000000000e+00  0.0000000000000000e+00 0.0000000000000000e+00 0.0000000000000000e+00  0.0000000000000000e+00 0.0000000000000000e+00 0.0000000000000000e+00  0.0000000000000000e+00 0.0000000000000000e+00 0.0000000000000000e+00  0.0000000000000000e+00 0.0000000000000000e+00 0.0000000000000000e+00  0.0000000000000000e+00 0.0000000000000000e+00 0.0000000000000000e+00  0.0000000000000000e+00 0.0000000000000000e+00 0.0000000000000000e+00  0.0000000000000000e+00 0.0000000000000000e+00 0.0000000000000000e+00  0.0000000000000000e+00 0.0000000000000000e+00 0.0000000000000000e+00  0.0000000000000000e+00 0.0000000000000000e+00 0.0000000000000000e+00  0.0000000000000000e+00 0.0000000000000000e+00 0.0000000000000000e+00  0.0000000000000000e+00 0.0000000000000000e+00 0.0000000000000000e+00  0.0000000000000000e+00 0.0000000000000000e+00 0.0000000000000000e+00  0.0000000000000000e+00 0.0000000000000000e+00 0.0000000000000000e+00  0.0000000000000000e+00 0.0000000000000000e+00 0.0000000000000000e+00  0.0000000000000000e+00 0.0000000000000000e+00 0.0000000000000000e+00  0.0000000000000000e+00 0.0000000000000000e+00 0.0000000000000000e+00  0.0000000000000000e+00 0.0000000000000000e+00 0.0000000000000000e+00  0.0000000000000000e+00 0.0000000000000000e+00 0.0000000000000000e+00  2.6678425907647085e+00 1.4218049905041339e-02 0.0000000000000000e+00  2.3239481704659073e+00 1.6042194864433042e-02 0.0000000000000000e+00  2.8298608128779614e+00 6.8257384897750489e-02 0.0000000000000000e+00  0.0000000000000000e+00 0.0000000000000000e+00 0.0000000000000000e+00  0.0000000000000000e+00 0.0000000000000000e+00 0.0000000000000000e+00  0.0000000000000000e+00 0.0000000000000000e+00 0.0000000000000000e+00  0.0000000000000000e+00 0.0000000000000000e+00 0.0000000000000000e+00  0.0000000000000000e+00 0.0000000000000000e+00 0.0000000000000000e+00  0.0000000000000000e+00 0.0000000000000000e+00 0.0000000000000000e+00  0.0000000000000000e+00 0.0000000000000000e+00 0.0000000000000000e+00  0.0000000000000000e+00 0.0000000000000000e+00 0.0000000000000000e+00  0.0000000000000000e+00 0.0000000000000000e+00 0.0000000000000000e+00  0.0000000000000000e+00 0.0000000000000000e+00 0.0000000000000000e+00  0.0000000000000000e+00 0.0000000000000000e+00 0.0000000000000000e+00  0.0000000000000000e+00 0.0000000000000000e+00 0.0000000000000000e+00  0.0000000000000000e+00 0.0000000000000000e+00 0.0000000000000000e+00  0.0000000000000000e+00 0.0000000000000000e+00 0.0000000000000000e+00  0.0000000000000000e+00 0.0000000000000000e+00 0.0000000000000000e+00  0.0000000000000000e+00 0.0000000000000000e+00 0.0000000000000000e+00  0.0000000000000000e+00 0.0000000000000000e+00 0.0000000000000000e+00  0.0000000000000000e+00 0.0000000000000000e+00 0.0000000000000000e+00  0.0000000000000000e+00 0.0000000000000000e+00 0.0000000000000000e+00  0.0000000000000000e+00 0.0000000000000000e+00 0.0000000000000000e+00  0.0000000000000000e+00 0.0000000000000000e+00 0.0000000000000000e+00  0.0000000000000000e+00 0.0000000000000000e+00 0.0000000000000000e+00  0.0000000000000000e+00 0.0000000000000000e+00 0.0000000000000000e+00  0.0000000000000000e+00 0.0000000000000000e+00 0.0000000000000000e+00  0.0000000000000000e+00 0.0000000000000000e+00 0.0000000000000000e+00  0.0000000000000000e+00 0.0000000000000000e+00 0.0000000000000000e+00  0.0000000000000000e+00 0.0000000000000000e+00 0.0000000000000000e+00  0.0000000000000000e+00 0.0000000000000000e+00 0.0000000000000000e+00  0.0000000000000000e+00 0.0000000000000000e+00 0.0000000000000000e+00  0.0000000000000000e+00 0.0000000000000000e+00 0.0000000000000000e+00  0.0000000000000000e+00 0.0000000000000000e+00 0.0000000000000000e+00  0.0000000000000000e+00 0.0000000000000000e+00 0.0000000000000000e+00  0.0000000000000000e+00 0.0000000000000000e+00 0.0000000000000000e+00  0.0000000000000000e+00 0.0000000000000000e+00 0.0000000000000000e+00  0.0000000000000000e+00 0.0000000000000000e+00 0.0000000000000000e+00  0.0000000000000000e+00 0.0000000000000000e+00 0.0000000000000000e+00  0.0000000000000000e+00 0.0000000000000000e+00 0.0000000000000000e+00  0.0000000000000000e+00 0.0000000000000000e+00 0.0000000000000000e+00  0.0000000000000000e+00 0.0000000000000000e+00 0.0000000000000000e+00  0.0000000000000000e+00 0.0000000000000000e+00 0.0000000000000000e+00  0.0000000000000000e+00 0.0000000000000000e+00 0.0000000000000000e+00  0.0000000000000000e+00 0.0000000000000000e+00 0.0000000000000000e+00  0.0000000000000000e+00 0.0000000000000000e+00 0.0000000000000000e+00  0.0000000000000000e+00 0.0000000000000000e+00 0.0000000000000000e+00  0.0000000000000000e+00 0.0000000000000000e+00 0.0000000000000000e+00  0.0000000000000000e+00 0.0000000000000000e+00 0.0000000000000000e+00  0.0000000000000000e+00 0.0000000000000000e+00 0.0000000000000000e+00  0.0000000000000000e+00 0.0000000000000000e+00 0.0000000000000000e+00  0.0000000000000000e+00 0.0000000000000000e+00 0.0000000000000000e+00  0.0000000000000000e+00 0.0000000000000000e+00 0.0000000000000000e+00  0.0000000000000000e+00 0.0000000000000000e+00 0.0000000000000000e+00  0.0000000000000000e+00 0.0000000000000000e+00 0.0000000000000000e+00  0.0000000000000000e+00 0.0000000000000000e+00 0.0000000000000000e+00  0.0000000000000000e+00 0.0000000000000000e+00 0.0000000000000000e+00  0.0000000000000000e+00 0.0000000000000000e+00 0.0000000000000000e+00  0.0000000000000000e+00 0.0000000000000000e+00 0.0000000000000000e+00  0.0000000000000000e+00 0.0000000000000000e+00 0.0000000000000000e+00  0.0000000000000000e+00 0.0000000000000000e+00 0.0000000000000000e+00  0.0000000000000000e+00 0.0000000000000000e+00 0.0000000000000000e+00  0.0000000000000000e+00 0.0000000000000000e+00 0.0000000000000000e+00  0.0000000000000000e+00 0.0000000000000000e+00 0.0000000000000000e+00  0.0000000000000000e+00 0.0000000000000000e+00 0.0000000000000000e+00  0.0000000000000000e+00 0.0000000000000000e+00 0.0000000000000000e+00  0.0000000000000000e+00 0.0000000000000000e+00 0.0000000000000000e+00  0.0000000000000000e+00 0.0000000000000000e+00 0.0000000000000000e+00  0.0000000000000000e+00 0.0000000000000000e+00 0.0000000000000000e+00  0.0000000000000000e+00 0.0000000000000000e+00 0.0000000000000000e+00  0.0000000000000000e+00 0.0000000000000000e+00 0.0000000000000000e+00  0.0000000000000000e+00 0.0000000000000000e+00 0.0000000000000000e+00  0.0000000000000000e+00 0.0000000000000000e+00 0.0000000000000000e+00  0.0000000000000000e+00 0.0000000000000000e+00 0.0000000000000000e+00  0.0000000000000000e+00 0.0000000000000000e+00 0.0000000000000000e+00  0.0000000000000000e+00 0.0000000000000000e+00 0.0000000000000000e+00  0.0000000000000000e+00 0.0000000000000000e+00 0.0000000000000000e+00  0.0000000000000000e+00 0.0000000000000000e+00 0.0000000000000000e+00  0.0000000000000000e+00 0.0000000000000000e+00 0.0000000000000000e+00  0.0000000000000000e+00 0.0000000000000000e+00 0.0000000000000000e+00  0.0000000000000000e+00 0.0000000000000000e+00 0.0000000000000000e+00  -1.3125191692449147e-07 9.7812099153860826e-08 0.0000000000000000e+00  -2.7903406911773554e-07 2.5177690569433916e-07 0.0000000000000000e+00  -4.0785395295919618e-07 5.0428073752293621e-07 0.0000000000000000e+00  -5.4644491827184661e-07 8.6019638942648381e-07 0.0000000000000000e+00  -6.6109729016984411e-07 1.3015105992121487e-06 0.0000000000000000e+00  -7.9103900477302435e-07 1.8357009359658881e-06 0.0000000000000000e+00  -8.9473683014146093e-07 2.4384839139422873e-06 0.0000000000000000e+00  -9.9502178220939653e-07 3.1305095326136036e-06 0.0000000000000000e+00  -1.1098542645006486e-06 3.8896199317425993e-06 0.0000000000000000e+00  -1.1969526123361740e-06 4.7182397242715076e-06 0.0000000000000000e+00  -1.3027507537095909e-06 5.6142893342300637e-06 0.0000000000000000e+00  -1.3820809113086954e-06 6.5720370712982177e-06 0.0000000000000000e+00  -1.4750675616192315e-06 7.5885915359742242e-06 0.0000000000000000e+00  -1.5489393697218058e-06 8.6524663387396235e-06 0.0000000000000000e+00  -1.6201905384898946e-06 9.7741734481965300e-06 0.0000000000000000e+00  -1.6999045274809830e-06 1.0938649717964819e-05 0.0000000000000000e+00  -1.7611270079402129e-06 1.2147081233262954e-05 0.0000000000000000e+00  -1.8327962497442113e-06 1.3397385242739018e-05 0.0000000000000000e+00  -1.8872921874571831e-06 1.4684805233143270e-05 0.0000000000000000e+00  -1.9497193983330919e-06 1.6006300836440817e-05 0.0000000000000000e+00  -2.0002026509254030e-06 1.7360280499001145e-05 0.0000000000000000e+00  -2.0544090750335905e-06 1.8744745017009065e-05 0.0000000000000000e+00  -2.0988320231831310e-06 2.0151008319123088e-05 0.0000000000000000e+00  -2.1410739674276909e-06 2.1585380776377322e-05 0.0000000000000000e+00  -2.1858099536445704e-06 2.3037723478472636e-05 0.0000000000000000e+00  -2.2238254746623625e-06 2.4511188548730665e-05 0.0000000000000000e+00  -2.2611433762252452e-06 2.6002168067741425e-05 0.0000000000000000e+00  -2.2945800553670767e-06 2.7507473502189443e-05 0.0000000000000000e+00  -2.3271393252576636e-06 2.9027128500510537e-05 0.0000000000000000e+00  -2.3565139280992743e-06 3.0557658150735753e-05 0.0000000000000000e+00  -2.3849847425197923e-06 3.2099240668802614e-05 0.0000000000000000e+00  -2.4108548125473625e-06 3.3648851234296735e-05 0.0000000000000000e+00  -2.4358669218005186e-06 3.5206634063196771e-05 0.0000000000000000e+00  -2.4588144450466781e-06 3.6770133262356711e-05 0.0000000000000000e+00  -2.4809833313552764e-06 3.8339418380473515e-05 0.0000000000000000e+00  -2.5015626536613208e-06 3.9912544113857913e-05 0.0000000000000000e+00  -2.5214786750189851e-06 4.1489594358795120e-05 0.0000000000000000e+00  -2.5402284926950166e-06 4.3069048243621958e-05 0.0000000000000000e+00  -2.5584493010433888e-06 4.4651001121392194e-05 0.0000000000000000e+00  -2.5758579289105888e-06 4.6234305174349670e-05 0.0000000000000000e+00  -2.5929290257724372e-06 4.7819253632838714e-05 0.0000000000000000e+00  -2.6093670482513526e-06 4.9404106359716163e-05 0.0000000000000000e+00  -2.6255453265919125e-06 5.0991023368755187e-05 0.0000000000000000e+00  -2.6416049773155795e-06 5.2577579169967046e-05 0.0000000000000000e+00  -2.6573728427676394e-06 5.4164284301382199e-05 0.0000000000000000e+00  -2.6729648374476721e-06 5.5752040630128423e-05 0.0000000000000000e+00  -1.6258989175058734e-06 5.7348832002010487e-05 0.0000000000000000e+00  4.9912769791300179e-07 5.7369939984269823e-05 0.0000000000000000e+00  1.5769462840495835e-06 5.5792962933469002e-05 0.0000000000000000e+00  1.5921721143449188e-06 5.4205563749878092e-05 0.0000000000000000e+00  1.6071918058814624e-06 5.2618538495673606e-05 0.0000000000000000e+00  1.6219262068483696e-06 5.1032167202522568e-05 0.0000000000000000e+00  1.6365281552019029e-06 4.9445218297353669e-05 0.0000000000000000e+00  1.6508535460927924e-06 4.7860313715873082e-05 0.0000000000000000e+00  1.6644705280286489e-06 4.6275346588969838e-05 0.0000000000000000e+00  1.6779984286635081e-06 4.4691962243503908e-05 0.0000000000000000e+00  1.6902295511875630e-06 4.3110025012468258e-05 0.0000000000000000e+00  1.7025274218859383e-06 4.1530469867466479e-05 0.0000000000000000e+00  1.7128550202010342e-06 3.9953408871043768e-05 0.0000000000000000e+00  1.7234262791167639e-06 3.8380131920892628e-05 0.0000000000000000e+00  1.7311814636904846e-06 3.6810799067950325e-05 0.0000000000000000e+00  1.7394812204459490e-06 3.5247091635610263e-05 0.0000000000000000e+00  1.7439335929049603e-06 3.3689217872312594e-05 0.0000000000000000e+00  1.7493657586273586e-06 3.2139295285030794e-05 0.0000000000000000e+00  1.7497284210520413e-06 3.0597567996735893e-05 0.0000000000000000e+00  1.7516566807462586e-06 2.9066609775906989e-05 0.0000000000000000e+00  1.7470877519099693e-06 2.7546706268443940e-05 0.0000000000000000e+00  1.7448333324484176e-06 2.6040855183807759e-05 0.0000000000000000e+00  1.7342845082915218e-06 2.4549535745576461e-05 0.0000000000000000e+00  1.7269168652695693e-06 2.3076244130235539e-05 0.0000000000000000e+00  1.7098845476998433e-06 2.1622070953844404e-05 0.0000000000000000e+00  1.6954420052134338e-06 2.0187486442547340e-05 0.0000000000000000e+00  1.6780587114699071e-06 1.8780848422877166e-05 0.0000000000000000e+00  1.6512295159824879e-06 1.7394776596486686e-05 0.0000000000000000e+00  1.6251750745781963e-06 1.6041297049177988e-05 0.0000000000000000e+00  1.5912592473881698e-06 1.4717107244494928e-05 0.0000000000000000e+00  1.5568599586880481e-06 1.3429555717169935e-05 0.0000000000000000e+00  1.5143338746471902e-06 1.2177709952585572e-05 0.0000000000000000e+00  1.4713006303314482e-06 1.0966551464936690e-05 0.0000000000000000e+00  1.4144021597764887e-06 9.8034730865835043e-06 0.0000000000000000e+00  1.3643718294910646e-06 8.6799212082790291e-06 0.0000000000000000e+00  1.3101693775514557e-06 7.6156298057722289e-06 0.0000000000000000e+00  1.2388382946939278e-06 6.5938378898691803e-06 0.0000000000000000e+00  1.1703572189430160e-06 5.6371186324021378e-06 0.0000000000000000e+00  1.0900400834877400e-06 4.7389636749787652e-06 0.0000000000000000e+00  1.0108742646193420e-06 3.9063494787250504e-06 0.0000000000000000e+00  9.1180940344070628e-07 3.1499321039654119e-06 0.0000000000000000e+00  8.2476278338892610e-07 2.4554839618502362e-06 0.0000000000000000e+00  7.3324005458292072e-07 1.8517524863810992e-06 0.0000000000000000e+00  6.1669347776857886e-07 1.3137333960712164e-06 0.0000000000000000e+00  5.0874685593915522e-07 8.7035713282235135e-07 0.0000000000000000e+00  3.7905023309221144e-07 5.1866892870224002e-07 0.0000000000000000e+00  2.6207848607856574e-07 2.6372899427276038e-07 0.0000000000000000e+00  1.2329695348448488e-07 1.0698581427011072e-07 0.0000000000000000e+00  -8.8432046059343319e-09 1.0873446064610311e-07 0.0000000000000000e+00  -5.6726372153423041e-07 5.4973206349329954e-05 0.0000000000000000e+00  -5.5424862245888847e-07 5.1940364021081040e-05 0.0000000000000000e+00  -4.8658391165314245e-07 4.6988762685020341e-05 0.0000000000000000e+00  -1.5073886280264918e-08 6.1526998107727557e-07 0.0000000000000000e+00  -4.3258741366989159e-07 4.3878324573525611e-05 0.0000000000000000e+00  -1.6333548881050635e-08 1.4643934056510670e-06 0.0000000000000000e+00  -4.0186779593141885e-07 4.0718421257036068e-05 0.0000000000000000e+00  -3.0877170186765862e-08 3.4942154786985273e-06 0.0000000000000000e+00  -5.9578748520828383e-08 5.1281503186405118e-06 0.0000000000000000e+00  -3.7123268461846801e-07 3.7570799305941789e-05 0.0000000000000000e+00  -8.7281308164545485e-08 1.0383932225067838e-05 0.0000000000000000e+00  -3.1048520701274885e-07 3.1340545597030176e-05 0.0000000000000000e+00  -5.8955095148932461e-08 6.9650905909630845e-06 0.0000000000000000e+00  -1.3065248314224262e-07 1.2757523323599504e-05 0.0000000000000000e+00  -2.8059693290220867e-07 2.8276709939090441e-05 0.0000000000000000e+00  -3.4073911513514287e-07 3.4442032685805383e-05 0.0000000000000000e+00  -1.5523439168102112e-07 1.5336190791460932e-05 0.0000000000000000e+00  -2.5113321156032797e-07 2.5262953942813583e-05 0.0000000000000000e+00  -1.5601692257306874e-07 1.7935686243301649e-05 0.0000000000000000e+00  -2.4781628724630737e-07 2.2373736347390703e-05 0.0000000000000000e+00  -1.9988994315032180e-07 2.0041003600884954e-05 0.0000000000000000e+00  -9.3754385575307809e-08 8.5462585173027008e-06 0.0000000000000000e+00  -4.8380287705604053e-07 4.9562574291485526e-05 0.0000000000000000e+00  -3.3168180707799743e-08 2.3566385794998395e-06 0.0000000000000000e+00  1.8530707866212441e-07 5.3452513644308790e-05 0.0000000000000000e+00  1.0871294567507267e-07 3.2230731009638538e-07 0.0000000000000000e+00  1.9741384443536425e-07 4.2303052974420299e-05 0.0000000000000000e+00  1.6830494439476344e-07 4.5467033318233918e-05 0.0000000000000000e+00  -2.2451566100035913e-07 1.0199675053266192e-06 0.0000000000000000e+00  -3.7284793022121686e-07 4.2646702299779439e-06 0.0000000000000000e+00  2.7694570495368253e-07 3.2893678169470760e-05 0.0000000000000000e+00  2.2547734717782733e-07 3.9148735680653107e-05 0.0000000000000000e+00  -5.8801872257912560e-07 1.1524299698795092e-05 0.0000000000000000e+00  2.9942996491562240e-07 2.9809811111782925e-05 0.0000000000000000e+00  -4.3680655920780700e-07 6.0600133626942100e-06 0.0000000000000000e+00  -6.4157245450205067e-07 1.4027528270485104e-05 0.0000000000000000e+00  3.1907269226826363e-07 2.6769531321898243e-05 0.0000000000000000e+00  2.5213199444010625e-07 3.6009782623570327e-05 0.0000000000000000e+00  -8.0766219127532200e-07 1.6658561060544231e-05 0.0000000000000000e+00  3.3560337345086825e-07 2.3786336757440180e-05 0.0000000000000000e+00  -2.6669720233484715e-08 2.2020134171754294e-08 0.0000000000000000e+00  1.5714881250270791e-08 2.2069514760714257e-08 0.0000000000000000e+00  -1.0688340745263105e-06 5.6216352414037343e-05 0.0000000000000000e+00  -1.4434680715716019e-07 3.1776806028189269e-07 0.0000000000000000e+00  4.7792320365964862e-07 2.1199747457771531e-05 0.0000000000000000e