<?xml version="1.0"?>
<VTKFile type="UnstructuredGrid"  version="0.1"  >
<UnstructuredGrid>
<Piece  NumberOfPoints="1419" NumberOfCells="2698">
<Points>
<DataArray  type="Float64"  NumberOfComponents="3"  format="ascii">0 0 0  0 0.41 0  2.5 0 0  2.5 0.41 0  0.6 0.19 0  0.6 0.21 0  0.25 0.2 0  0.15 0.2 0  0.2489897948556636 0.21 0  0.2489897948556636 0.19 0  0.6 0.2 0  0 0.3807142857143437 0  0 0.3514285714286952 0  0 0.3221428571430699 0  0 0.29285714285744 0  0 0.2635714285718054 0  0 0.2342857142861561 0  0 0.2050000000005308 0  0 0.175714285714732 0  0 0.1464285714289574 0  0 0.1171428571431897 0  0 0.08785714285737878 0  0 0.05857142857161107 0  0 0.02928571428580012 0  0.03015443760436003 0 0  0.06140001986583606 0 0  0.09377624077125973 0 0  0.1273239957535082 0 0  0.1620856860351972 0 0  0.1981052433264291 0 0  0.235428184091502 0 0  0.2741016576309132 0 0  0.3141745521465447 0 0  0.3556974926295285 0 0  0.3987229542472677 0 0  0.4433053055141081 0 0  0.4895008759286886 0 0  0.5373680609405097 0 0  0.5869673343216626 0 0  0.6383613676634521 0 0  0.6916151138468254 0 0  0.7467958595648856 0 0  0.8039733463919316 0 0  0.8632198139502143 0 0  0.9246101326867038 0 0  0.9882218810934433 0 0  1.054135445558498 0 0  1.122434100542598 0 0  1.193204177141305 0 0  1.266535089879536 0 0  1.342519516046404 0 0  1.421253448503939 0 0  1.502836389106271 0 0  1.587371439758838 0 0  1.674965418777374 0 0  1.765729001825544 0 0  1.859776908880082 0 0  1.957227977487062 0 0  2.058205329869943 0 0  2.162836591189951 0 0  2.271253957290865 0 0  2.383594446803425 0 0  2.5 0.1024999999997612 0  2.5 0.2049999999994743 0  2.5 0.3074999999997183 0  2.383594446803656 0.41 0  2.271253957291315 0.41 0  2.162836591190598 0.41 0  2.058205329870775 0.41 0  1.957227977488067 0.41 0  1.859776908881246 0.41 0  1.765729001826854 0.41 0  1.674965418778818 0.41 0  1.58737143976041 0.41 0  1.502836389107956 0.41 0  1.421253448505726 0.41 0  1.342519516048286 0.41 0  1.266535089881505 0.41 0  1.193204177143353 0.41 0  1.122434100544716 0.41 0  1.05413544556068 0.41 0  0.9882218810956305 0.41 0  0.9246101326886647 0.41 0  0.8632198139519631 0.41 0  0.8039733463934788 0.41 0  0.7467958595662458 0.41 0  0.6916151138480078 0.41 0  0.6383613676644679 0.41 0  0.5869673343225223 0.41 0  0.5373680609412221 0.41 0  0.4895008759292634 0.41 0  0.4433053055145528 0.41 0  0.3987229542475914 0.41 0  0.3556974926297398 0.41 0  0.3141745521466497 0.41 0  0.2741016576310038 0.41 0  0.2354281840915826 0.41 0  0.1981052433265003 0.41 0  0.1620856860352591 0.41 0  0.1273239957535623 0.41 0  0.09377624077128965 0.41 0  0.06140001986584975 0.41 0  0.03015443760436654 0.41 0  0.2497468076502589 0.2050254481002335 0  0.2497468076502614 0.1949745518997913 0  0.2469965252529372 0.1829317073451959 0  0.2439893735792749 0.1762316384219906 0  0.2400332147834255 0.1700443375285386 0  0.2352133972704371 0.1645032867342007 0  0.2296339016332438 0.1597280261969788 0  0.2234150974217223 0.1558215752574715 0  0.2166911463437691 0.1528682099456123 0  0.2096071079204251 0.1509316448471593 0  0.2023158100364996 0.1500536585536553 0  0.194974551899914 0.1502531923497262 0  0.1877417105387872 0.1515259415822739 0  0.1807733240461124 0.153844448527136 0  0.1742197252835808 0.15715869474974 0  0.1682222986673531 0.1613971801805478 0  0.162910430003803 0.1664684656256651 0  0.1583987151779087 0.1722631454351573 0  0.1547844879126891 0.178656207771761 0  0.1521457199348551 0.1855097315605723 0  0.1505393388476355 0.1926758619366523 0  0.1505393388476328 0.2073241380633295 0  0.1521457199348437 0.2144902684393899 0  0.1547844879126531 0.221343792228163 0  0.1583987151778488 0.2277368545647528 0  0.1629104300036858 0.2335315343742052 0  0.1682222986671726 0.2386028198193036 0  0.1742197252833576 0.2428413052501257 0  0.1807733240458683 0.2461555514727623 0  0.1877417105384929 0.2484740584176516 0  0.1949745518995776 0.2497468076502398 0  0.202315810036185 0.2499463414463592 0  0.2096071079201568 0.2490683551528932 0  0.2166911463435495 0.2471317900544655 0  0.2234150974215506 0.2441784247426195 0  0.2296339016331197 0.2402719738031125 0  0.2352133972703547 0.2354967132658811 0  0.2400332147833751 0.2299556624715287 0  0.2439893735792577 0.2237683615780412 0  0.246996525252926 0.2170682926548348 0  0.25645809709277 0.21 0  0.2639263993298655 0.21 0  0.271394701566961 0.21 0  0.2788630038040554 0.21 0  0.2863313060411479 0.21 0  0.2937996082782405 0.21 0  0.301267910515333 0.21 0  0.3087362127524279 0.21 0  0.3162045149895234 0.21 0  0.3236728172265972 0.21 0  0.3311411194636928 0.21 0  0.3386094217007701 0.21 0  0.3460777239378666 0.21 0  0.3535460261749672 0.21 0  0.3610143284120516 0.21 0  0.3684826306491596 0.21 0  0.3759509328862226 0.21 0  0.383419235123329 0.21 0  0.3908875373604028 0.21 0  0.3983558395975142 0.21 0  0.4058241418345938 0.21 0  0.4132924440716992 0.21 0  0.4207607463087888 0.21 0  0.4282290485459029 0.21 0  0.4356973507830418 0.21 0  0.4431656530201649 0.21 0  0.4506339552573136 0.21 0  0.4581022574944306 0.21 0  0.4655705597315852 0.21 0  0.4730388619686996 0.21 0  0.480507164205851 0.21 0  0.4879754664429498 0.21 0  0.4954437686800938 0.21 0  0.502912070917267 0.21 0  0.5103803731544119 0.21 0  0.5178486753915261 0.21 0  0.5253169776286404 0.21 0  0.5327852798657868 0.21 0  0.5402535821029386 0.21 0  0.54772188434007 0.21 0  0.5551901865771842 0.21 0  0.5626584888143201 0.21 0  0.5701267910514778 0.21 0  0.5775950932886138 0.21 0  0.5850633955257281 0.21 0  0.5925316977628483 0.21 0  0.6 0.2050000000000054 0  0.6 0.1950000000000217 0  0.5925316977628897 0.19 0  0.5850633955257988 0.19 0  0.5775950932887378 0.19 0  0.5701267910515998 0.19 0  0.5626584888145268 0.19 0  0.5551901865773963 0.19 0  0.547721884340339 0.19 0  0.5402535821032429 0.19 0  0.5327852798661811 0.19 0  0.5253169776290537 0.19 0  0.5178486753919799 0.19 0  0.5103803731549078 0.19 0  0.502912070917822 0.19 0  0.4954437686807294 0.19 0  0.4879754664436223 0.19 0  0.4805071642065402 0.19 0  0.4730388619694271 0.19 0  0.4655705597323621 0.19 0  0.4581022574952563 0.19 0  0.4506339552581777 0.19 0  0.4431656530210671 0.19 0  0.4356973507839815 0.19 0  0.4282290485468779 0.19 0  0.4207607463097617 0.19 0  0.4132924440726327 0.19 0  0.4058241418354857 0.19 0  0.3983558395983636 0.19 0  0.3908875373612097 0.19 0  0.3834192351240934 0.19 0  0.3759509328869369 0.19 0  0.3684826306498175 0.19 0  0.361014328412667 0.19 0  0.3535460261755617 0.19 0  0.3460777239384295 0.19 0  0.3386094217012945 0.19 0  0.3311411194641595 0.19 0  0.3236728172270245 0.19 0  0.3162045149898895 0.19 0  0.3087362127527544 0.19 0  0.3012679105156187 0.19 0  0.2937996082784807 0.19 0  0.2863313060413428 0.19 0  0.2788630038042048 0.19 0  0.2713947015670686 0.19 0  0.2639263993299336 0.19 0  0.2564580970927985 0.19 0  0.2607803159922026 0.2000727136295815 0  0.5887803774232762 0.2001272386983733 0  0.5745072403740523 0.2002044435018727 0  0.5511891430099709 0.2001122610077113 0  0.2751288526855082 0.20000000000002 0  0.5365194309847112 0.1999999999999436 0  0.2894621222999649 0.1998691686390484 0  0.5215828265105155 0.1999999999999228 0  0.3127789816668748 0.1998657885438805 0  0.3274069683451451 0.2000000000000796 0  0.5066462220363641 0.199999999999908 0  0.3650630746574081 0.199866017807523 0  0.476773013087985 0.1999999999998713 0  0.3417402379596385 0.1998691686391011 0  0.3796850840047755 0.200000000000134 0  0.4618364086138087 0.1999999999998546 0  0.4917096175621762 0.1999999999998808 0  0.3946216884789568 0.2000000000001512 0  0.446899804139621 0.1999999999998389 0  0.4089549580935208 0.1998691686391595 0  0.4322718174608562 0.200127451265745 0  0.4201487168029707 0.1999966199048527 0  0.3528922713220932 0.2000185703532356 0  0.5633122436674589 0.1999814296467508 0  0.3006558810093873 0.1999966199048318 0  0.5815926498168407 0.1966545283159175 0  0.2677053789419034 0.1964246479135325 0  0.5290511287476175 0.1970915826863981 0  0.5439877332217911 0.197091582686394 0  0.2825131256993216 0.2035478995978015 0  0.3199386661080599 0.202908417313604 0  0.4842413153250809 0.1970915826863873 0  0.5141145242734466 0.1970915826863843 0  0.3722167817676917 0.2029084173136195 0  0.4693047108508938 0.1970915826863783 0  0.3348752705822316 0.202908417313609 0  0.3871533862418661 0.2029084173136212 0  0.4543681063767183 0.1970915826863795 0  0.4991779197992749 0.1970915826863902 0  0.4020059614928624 0.203547899597858 0  0.4394315019025246 0.1970915826863714 0  0.2550657455369551 0.2034088125358657 0  0.2548908499171161 0.1966940311614271 0  0.5946539510196798 0.2024302972968126 0  0.267698176732111 0.2039977513680092 0  0.4261685417851465 0.196409292431739 0  0.3590076176283495 0.196411355804271 0  0.5571672426447437 0.2036011176410121 0  0.3066757059912147 0.1964092924317024 0  0.594380730180568 0.1966558399668133 0  0.4842413153245942 0.2040749161535287 0  0.4693047108503577 0.2040749161535231 0  0.3871533862424271 0.1959250838464788 0  0.372246743208829 0.1959123236376545 0  0.5141145242731028 0.2040749161535395 0  0.4543681063761134 0.2040749161535186 0  0.4019979587101454 0.1959834479682427 0  0.4394608940728603 0.2040870543693135 0  0.5439623148931173 0.2040856076781014 0  0.5290511287473298 0.2040749161535501 0  0.4991779197988497 0.2040749161535382 0  0.3347912413592433 0.1959225448935183 0  0.3199680582793816 0.1959123018030061 0  0.2825051229162361 0.1959834479681729 0  0.3590471196690275 0.2036304442587945 0  0.5571594006495384 0.1963685282145804 0  0.3067669986803285 0.203627750582736 0  0.4262598344738712 0.2036568242185335 0  0.5814408164431408 0.2041285596160068 0  0.5688286748170428 0.1961819304477386 0  0.4145905603063645 0.2038180695522843 0  0.3473758401724931 0.2038180695522752 0  0.2950977245128307 0.2038180695522663 0  0.5688286748170693 0.203818069552238 0  0.2950977245127906 0.1961819304477774 0  0.3473758401723931 0.1961819304478349 0  0.4145905603061963 0.1961819304479011 0  0.2601812407614425 0.2056861609747042
[...]
<PointData  Vectors="f_40-0"> 
<DataArray  type="Float64"  Name="f_40-0"  NumberOfComponents="3" format="ascii">0.0000000000000000e+00 0.0000000000000000e+00 0.0000000000000000e+00  0.0000000000000000e+00 0.0000000000000000e+00 0.0000000000000000e+00  0.0000000000000000e+00 0.0000000000000000e+00 0.0000000000000000e+00  0.0000000000000000e+00 0.0000000000000000e+00 0.0000000000000000e+00  -3.6433150416813358e-05 -1.2023631716022159e-03 0.0000000000000000e+00  5.1464696970146833e-05 -1.2017258039021498e-03 0.0000000000000000e+00  0.0000000000000000e+00 0.0000000000000000e+00 0.0000000000000000e+00  0.0000000000000000e+00 0.0000000000000000e+00 0.0000000000000000e+00  0.0000000000000000e+00 0.0000000000000000e+00 0.0000000000000000e+00  0.0000000000000000e+00 0.0000000000000000e+00 0.0000000000000000e+00  7.5195199452145462e-06 -1.2020595483883385e-03 0.0000000000000000e+00  7.9591836734548405e-01 0.0000000000000000e+00 0.0000000000000000e+00  1.4693877550994523e+00 0.0000000000000000e+00 0.0000000000000000e+00  2.0204081632617479e+00 0.0000000000000000e+00 0.0000000000000000e+00  2.4489795918330071e+00 0.0000000000000000e+00 0.0000000000000000e+00  2.7551020408131754e+00 0.0000000000000000e+00 0.0000000000000000e+00  2.9387755102022344e+00 0.0000000000000000e+00 0.0000000000000000e+00  3.0000000000000004e+00 0.0000000000000000e+00 0.0000000000000000e+00  2.9387755102059474e+00 0.0000000000000000e+00 0.0000000000000000e+00  2.7551020408195543e+00 0.0000000000000000e+00 0.0000000000000000e+00  2.4489795918409065e+00 0.0000000000000000e+00 0.0000000000000000e+00  2.0204081632692521e+00 0.0000000000000000e+00 0.0000000000000000e+00  1.4693877551058563e+00 0.0000000000000000e+00 0.0000000000000000e+00  7.9591836734909216e-01 0.0000000000000000e+00 0.0000000000000000e+00  0.0000000000000000e+00 0.0000000000000000e+00 0.0000000000000000e+00  0.0000000000000000e+00 0.0000000000000000e+00 0.0000000000000000e+00  0.0000000000000000e+00 0.0000000000000000e+00 0.0000000000000000e+00  0.0000000000000000e+00 0.0000000000000000e+00 0.0000000000000000e+00  0.0000000000000000e+00 0.0000000000000000e+00 0.0000000000000000e+00  0.0000000000000000e+00 0.0000000000000000e+00 0.0000000000000000e+00  0.0000000000000000e+00 0.0000000000000000e+00 0.0000000000000000e+00  0.0000000000000000e+00 0.0000000000000000e+00 0.0000000000000000e+00  0.0000000000000000e+00 0.0000000000000000e+00 0.0000000000000000e+00  0.0000000000000000e+00 0.0000000000000000e+00 0.0000000000000000e+00  0.0000000000000000e+00 0.0000000000000000e+00 0.0000000000000000e+00  0.0000000000000000e+00 0.0000000000000000e+00 0.0000000000000000e+00  0.0000000000000000e+00 0.0000000000000000e+00 0.0000000000000000e+00  0.0000000000000000e+00 0.0000000000000000e+00 0.0000000000000000e+00  0.0000000000000000e+00 0.0000000000000000e+00 0.0000000000000000e+00  0.0000000000000000e+00 0.0000000000000000e+00 0.0000000000000000e+00  0.0000000000000000e+00 0.0000000000000000e+00 0.0000000000000000e+00  0.0000000000000000e+00 0.0000000000000000e+00 0.0000000000000000e+00  0.0000000000000000e+00 0.0000000000000000e+00 0.0000000000000000e+00  0.0000000000000000e+00 0.0000000000000000e+00 0.0000000000000000e+00  0.0000000000000000e+00 0.0000000000000000e+00 0.0000000000000000e+00  0.0000000000000000e+00 0.0000000000000000e+00 0.0000000000000000e+00  0.0000000000000000e+00 0.0000000000000000e+00 0.0000000000000000e+00  0.0000000000000000e+00 0.0000000000000000e+00 0.0000000000000000e+00  0.0000000000000000e+00 0.0000000000000000e+00 0.0000000000000000e+00  0.0000000000000000e+00 0.0000000000000000e+00 0.0000000000000000e+00  0.0000000000000000e+00 0.0000000000000000e+00 0.0000000000000000e+00  0.0000000000000000e+00 0.0000000000000000e+00 0.0000000000000000e+00  0.0000000000000000e+00 0.0000000000000000e+00 0.0000000000000000e+00  0.0000000000000000e+00 0.0000000000000000e+00 0.0000000000000000e+00  0.0000000000000000e+00 0.0000000000000000e+00 0.0000000000000000e+00  0.0000000000000000e+00 0.0000000000000000e+00 0.0000000000000000e+00  0.0000000000000000e+00 0.0000000000000000e+00 0.0000000000000000e+00  0.0000000000000000e+00 0.0000000000000000e+00 0.0000000000000000e+00  0.0000000000000000e+00 0.0000000000000000e+00 0.0000000000000000e+00  0.0000000000000000e+00 0.0000000000000000e+00 0.0000000000000000e+00  0.0000000000000000e+00 0.0000000000000000e+00 0.0000000000000000e+00  0.0000000000000000e+00 0.0000000000000000e+00 0.0000000000000000e+00  2.5828527747038619e+00 3.5145580635859647e-03 0.0000000000000000e+00  2.5134342714710889e+00 9.6041782731072483e-03 0.0000000000000000e+00  2.7387407881264916e+00 5.4493998805409484e-02 0.0000000000000000e+00  0.0000000000000000e+00 0.0000000000000000e+00 0.0000000000000000e+00  0.0000000000000000e+00 0.0000000000000000e+00 0.0000000000000000e+00  0.0000000000000000e+00 0.0000000000000000e+00 0.0000000000000000e+00  0.0000000000000000e+00 0.0000000000000000e+00 0.0000000000000000e+00  0.0000000000000000e+00 0.0000000000000000e+00 0.0000000000000000e+00  0.0000000000000000e+00 0.0000000000000000e+00 0.0000000000000000e+00  0.0000000000000000e+00 0.0000000000000000e+00 0.0000000000000000e+00  0.0000000000000000e+00 0.0000000000000000e+00 0.0000000000000000e+00  0.0000000000000000e+00 0.0000000000000000e+00 0.0000000000000000e+00  0.0000000000000000e+00 0.0000000000000000e+00 0.0000000000000000e+00  0.0000000000000000e+00 0.0000000000000000e+00 0.0000000000000000e+00  0.0000000000000000e+00 0.0000000000000000e+00 0.0000000000000000e+00  0.0000000000000000e+00 0.0000000000000000e+00 0.0000000000000000e+00  0.0000000000000000e+00 0.0000000000000000e+00 0.0000000000000000e+00  0.0000000000000000e+00 0.0000000000000000e+00 0.0000000000000000e+00  0.0000000000000000e+00 0.0000000000000000e+00 0.0000000000000000e+00  0.0000000000000000e+00 0.0000000000000000e+00 0.0000000000000000e+00  0.0000000000000000e+00 0.0000000000000000e+00 0.0000000000000000e+00  0.0000000000000000e+00 0.0000000000000000e+00 0.0000000000000000e+00  0.0000000000000000e+00 0.0000000000000000e+00 0.0000000000000000e+00  0.0000000000000000e+00 0.0000000000000000e+00 0.0000000000000000e+00  0.0000000000000000e+00 0.0000000000000000e+00 0.0000000000000000e+00  0.0000000000000000e+00 0.0000000000000000e+00 0.0000000000000000e+00  0.0000000000000000e+00 0.0000000000000000e+00 0.0000000000000000e+00  0.0000000000000000e+00 0.0000000000000000e+00 0.0000000000000000e+00  0.0000000000000000e+00 0.0000000000000000e+00 0.0000000000000000e+00  0.0000000000000000e+00 0.0000000000000000e+00 0.0000000000000000e+00  0.0000000000000000e+00 0.0000000000000000e+00 0.0000000000000000e+00  0.0000000000000000e+00 0.0000000000000000e+00 0.0000000000000000e+00  0.0000000000000000e+00 0.0000000000000000e+00 0.0000000000000000e+00  0.0000000000000000e+00 0.0000000000000000e+00 0.0000000000000000e+00  0.0000000000000000e+00 0.0000000000000000e+00 0.0000000000000000e+00  0.0000000000000000e+00 0.0000000000000000e+00 0.0000000000000000e+00  0.0000000000000000e+00 0.0000000000000000e+00 0.0000000000000000e+00  0.0000000000000000e+00 0.0000000000000000e+00 0.0000000000000000e+00  0.0000000000000000e+00 0.0000000000000000e+00 0.0000000000000000e+00  0.0000000000000000e+00 0.0000000000000000e+00 0.0000000000000000e+00  0.0000000000000000e+00 0.0000000000000000e+00 0.0000000000000000e+00  0.0000000000000000e+00 0.0000000000000000e+00 0.0000000000000000e+00  0.0000000000000000e+00 0.0000000000000000e+00 0.0000000000000000e+00  0.0000000000000000e+00 0.0000000000000000e+00 0.0000000000000000e+00  0.0000000000000000e+00 0.0000000000000000e+00 0.0000000000000000e+00  0.0000000000000000e+00 0.0000000000000000e+00 0.0000000000000000e+00  0.0000000000000000e+00 0.0000000000000000e+00 0.0000000000000000e+00  0.0000000000000000e+00 0.0000000000000000e+00 0.0000000000000000e+00  0.0000000000000000e+00 0.0000000000000000e+00 0.0000000000000000e+00  0.0000000000000000e+00 0.0000000000000000e+00 0.0000000000000000e+00  0.0000000000000000e+00 0.0000000000000000e+00 0.0000000000000000e+00  0.0000000000000000e+00 0.0000000000000000e+00 0.0000000000000000e+00  0.0000000000000000e+00 0.0000000000000000e+00 0.0000000000000000e+00  0.0000000000000000e+00 0.0000000000000000e+00 0.0000000000000000e+00  0.0000000000000000e+00 0.0000000000000000e+00 0.0000000000000000e+00  0.0000000000000000e+00 0.0000000000000000e+00 0.0000000000000000e+00  0.0000000000000000e+00 0.0000000000000000e+00 0.0000000000000000e+00  0.0000000000000000e+00 0.0000000000000000e+00 0.0000000000000000e+00  0.0000000000000000e+00 0.0000000000000000e+00 0.0000000000000000e+00  0.0000000000000000e+00 0.0000000000000000e+00 0.0000000000000000e+00  0.0000000000000000e+00 0.0000000000000000e+00 0.0000000000000000e+00  0.0000000000000000e+00 0.0000000000000000e+00 0.0000000000000000e+00  0.0000000000000000e+00 0.0000000000000000e+00 0.0000000000000000e+00  0.0000000000000000e+00 0.0000000000000000e+00 0.0000000000000000e+00  0.0000000000000000e+00 0.0000000000000000e+00 0.0000000000000000e+00  0.0000000000000000e+00 0.0000000000000000e+00 0.0000000000000000e+00  0.0000000000000000e+00 0.0000000000000000e+00 0.0000000000000000e+00  0.0000000000000000e+00 0.0000000000000000e+00 0.0000000000000000e+00  0.0000000000000000e+00 0.0000000000000000e+00 0.0000000000000000e+00  0.0000000000000000e+00 0.0000000000000000e+00 0.0000000000000000e+00  0.0000000000000000e+00 0.0000000000000000e+00 0.0000000000000000e+00  0.0000000000000000e+00 0.0000000000000000e+00 0.0000000000000000e+00  0.0000000000000000e+00 0.0000000000000000e+00 0.0000000000000000e+00  0.0000000000000000e+00 0.0000000000000000e+00 0.0000000000000000e+00  0.0000000000000000e+00 0.0000000000000000e+00 0.0000000000000000e+00  0.0000000000000000e+00 0.0000000000000000e+00 0.0000000000000000e+00  0.0000000000000000e+00 0.0000000000000000e+00 0.0000000000000000e+00  0.0000000000000000e+00 0.0000000000000000e+00 0.0000000000000000e+00  0.0000000000000000e+00 0.0000000000000000e+00 0.0000000000000000e+00  0.0000000000000000e+00 0.0000000000000000e+00 0.0000000000000000e+00  0.0000000000000000e+00 0.0000000000000000e+00 0.0000000000000000e+00  2.7654196293166075e-06 -2.3189081898169585e-06 0.0000000000000000e+00  5.8747689026722690e-06 -5.7334537079078611e-06 0.0000000000000000e+00  8.5612457822631635e-06 -1.1284056181098758e-05 0.0000000000000000e+00  1.1448413764835040e-05 -1.9074402088859062e-05 0.0000000000000000e+00  1.3808334367009424e-05 -2.8700934584492373e-05 0.0000000000000000e+00  1.6481056379370587e-05 -4.0321609098629230e-05 0.0000000000000000e+00  1.8584168702957457e-05 -5.3400782798614907e-05 0.0000000000000000e+00  2.0603994907562082e-05 -6.8375561859483074e-05 0.0000000000000000e+00  2.2920633476188075e-05 -8.4762024971093836e-05 0.0000000000000000e+00  2.4644892346384725e-05 -1.0260465472661125e-04 0.0000000000000000e+00  2.6749284128215721e-05 -1.2185375989991627e-04 0.0000000000000000e+00  2.8296391314445977e-05 -1.4237833727867268e-04 0.0000000000000000e+00  3.0115525923916161e-05 -1.6411370511200073e-04 0.0000000000000000e+00  3.1536891944113116e-05 -1.8681709788444616e-04 0.0000000000000000e+00  3.2897621602181173e-05 -2.1069614865732648e-04 0.0000000000000000e+00  3.4423596783148675e-05 -2.3543975465482202e-04 0.0000000000000000e+00  3.5570854160892536e-05 -2.6106482845336042e-04 0.0000000000000000e+00  3.6921026650960201e-05 -2.8752677930473085e-04 0.0000000000000000e+00  3.7924928749701804e-05 -3.1472243653521686e-04 0.0000000000000000e+00  3.9080352069301140e-05 -3.4259022804031676e-04 0.0000000000000000e+00  3.9997169327144174e-05 -3.7109188196227328e-04 0.0000000000000000e+00  4.0981491376728416e-05 -4.0018496152879342e-04 0.0000000000000000e+00  4.1774183007709366e-05 -4.2970214270579213e-04 0.0000000000000000e+00  4.2520892971774039e-05 -4.5975150231607068e-04 0.0000000000000000e+00  4.3312837333761269e-05 -4.9014669772839796e-04 0.0000000000000000e+00  4.3973814072160994e-05 -5.2093923541985645e-04 0.0000000000000000e+00  4.4619078121471769e-05 -5.5206163204441318e-04 0.0000000000000000e+00  4.5189369506862124e-05 -5.8344868014355386e-04 0.0000000000000000e+00  4.5741091487280006e-05 -6.1510188064586900e-04 0.0000000000000000e+00  4.6232220511363388e-05 -6.4695304501423390e-04 0.0000000000000000e+00  4.6704898270263679e-05 -6.7900534086084226e-04 0.0000000000000000e+00  4.7128830324553363e-05 -7.1120081632251311e-04 0.0000000000000000e+00  4.7535720562994015e-05 -7.4354217420412707e-04 0.0000000000000000e+00  4.7904458820928429e-05 -7.7598238398423464e-04 0.0000000000000000e+00  4.8258157451423133e-05 -8.0852390033657256e-04 0.0000000000000000e+00  4.8583226233200514e-05 -8.4112986770107021e-04 0.0000000000000000e+00  4.8895790860949868e-05 -8.7380217329856497e-04 0.0000000000000000e+00  4.9187783823507715e-05 -9.0651332408813053e-04 0.0000000000000000e+00  4.9470024792033009e-05 -9.3926486845522590e-04 0.0000000000000000e+00  4.9738518878240535e-05 -9.7203745453334274e-04 0.0000000000000000e+00  5.0000722640949246e-05 -1.0048331632599395e-03 0.0000000000000000e+00  5.0253508433391148e-05 -1.0376380765898512e-03 0.0000000000000000e+00  5.0500932629967247e-05 -1.0704519842634032e-03 0.0000000000000000e+00  5.0746834761021068e-05 -1.1032705651004616e-03 0.0000000000000000e+00  5.0988803081087579e-05 -1.1360929178447770e-03 0.0000000000000000e+00  5.1229076593043099e-05 -1.1689160632134094e-03 0.0000000000000000e+00  2.9493807291875412e-05 -1.2019002261389896e-03 0.0000000000000000e+00  -1.4456222366311569e-05 -1.2022196562794590e-03 0.0000000000000000e+00  -3.6671020391331021e-05 -1.1695536416494972e-03 0.0000000000000000e+00  -3.6906175464586439e-05 -1.1367298290247490e-03 0.0000000000000000e+00  -3.7140026405295058e-05 -1.1039082767953291e-03 0.0000000000000000e+00  -3.7368829011404709e-05 -1.0710891576709567e-03 0.0000000000000000e+00  -3.7595657107925691e-05 -1.0382748484699747e-03 0.0000000000000000e+00  -3.7817028764691747e-05 -1.0054689612419231e-03 0.0000000000000000e+00  -3.8027400473917490e-05 -9.7267417761028518e-04 0.0000000000000000e+00  -3.8235215805095035e-05 -9.3989951190886589e-04 0.0000000000000000e+00  -3.8421313845284454e-05 -9.0714740346841717e-04 0.0000000000000000e+00  -3.8607369434745821e-05 -8.7443388914886443e-04 0.0000000000000000e+00  -3.8759363186381671e-05 -8.4176074906862017e-04 0.0000000000000000e+00  -3.8914096300118874e-05 -8.0915127692664636e-04 0.0000000000000000e+00  -3.9018853724600675e-05 -7.7660824563599909e-04 0.0000000000000000e+00  -3.9131339154856247e-05 -7.4416294982335629e-04 0.0000000000000000e+00  -3.9173986748396675e-05 -7.1181900871970837e-04 0.0000000000000000e+00  -3.9231906811888618e-05 -6.7961661319610150e-04 0.0000000000000000e+00  -3.9196072290973055e-05 -6.4756020859117096e-04 0.0000000000000000e+00  -3.9186068735342844e-05 -6.1569951673137388e-04 0.0000000000000000e+00  -3.9054000936702033e-05 -5.8403989120149515e-04 0.0000000000000000e+00  -3.8961599113648613e-05 -5.5264025419267187e-04 0.0000000000000000e+00  -3.8711034113623163e-05 -5.2150957444981516e-04 0.0000000000000000e+00  -3.8516457685493334e-05 -4.9071769923375239e-04 0.0000000000000000e+00  -3.8134374129318391e-05 -4.6028472642533762e-04 0.0000000000000000e+00  -3.7797684521176752e-05 -4.3022827022865922e-04 0.0000000000000000e+00  -3.7399006835202711e-05 -4.0070128837329345e-04 0.0000000000000000e+00  -3.6813696951963238e-05 -3.7157316804830090e-04 0.0000000000000000e+00  -3.6236313939314456e-05 -3.4307854503769084e-04 0.0000000000000000e+00  -3.5498624471940763e-05 -3.1515366501295885e-04 0.0000000000000000e+00  -3.4743941068649876e-05 -2.8795258942365757e-04 0.0000000000000000e+00  -3.3820325993093269e-05 -2.6145543991124123e-04 0.0000000000000000e+00  -3.2878346414175671e-05 -2.3577217332814519e-04 0.0000000000000000e+00  -3.1647142649009057e-05 -2.1105217426597796e-04 0.0000000000000000e+00  -3.0547050822831740e-05 -1.8713220147045846e-04 0.0000000000000000e+00  -2.9351635220510562e-05 -1.6441660146068447e-04 0.0000000000000000e+00  -2.7797555899957243e-05 -1.4256901028077254e-04 0.0000000000000000e+00  -2.6289089037607547e-05 -1.2206198776707517e-04 0.0000000000000000e+00  -2.4524082208522207e-05 -1.0276412001530751e-04 0.0000000000000000e+00  -2.2770806576869185e-05 -8.4834490409308304e-05 0.0000000000000000e+00  -2.0585388247113092e-05 -6.8499892502941773e-05 0.0000000000000000e+00  -1.8641981036093402e-05 -5.3470983956136588e-05 0.0000000000000000e+00  -1.6590006847642677e-05 -4.0368579216337318e-05 0.0000000000000000e+00  -1.3993058626807727e-05 -2.8662961972572673e-05 0.0000000000000000e+00  -1.1563538850779148e-05 -1.8987139608940808e-05 0.0000000000000000e+00  -8.6478833631469726e-06 -1.1283048764569372e-05 0.0000000000000000e+00  -5.9887866066507687e-06 -5.6871347345237850e-06 0.0000000000000000e+00  -2.8333993062530651e-06 -2.2343118097804760e-06 0.0000000000000000e+00  -2.4154496436260245e-08 -2.4354661357175427e-06 0.0000000000000000e+00  7.7202647312502903e-06 -1.1527436868881051e-03 0.0000000000000000e+00  7.6044179626527788e-06 -1.0900099450279446e-03 0.0000000000000000e+00  6.4581825418547269e-06 -9.8756367681114847e-04 0.0000000000000000e+00  -8.5529405433141254e-08 -1.3573153645444102e-05 0.0000000000000000e+00  5.5006565022000384e-06 -9.2318061758479169e-04 0.0000000000000000e+00  -2.6581578676451954e-07 -3.2111934042171575e-05 0.0000000000000000e+00  5.0278723125112988e-06 -8.5773851036317558e-04 0.0000000000000000e+00  -2.7880565192953681e-07 -7.6108390979580373e-05 0.0000000000000000e+00  1.3930741025068244e-07 -1.1130097890926235e-04 0.0000000000000000e+00  4.5567398428034940e-06 -7.9249948844219175e-04 0.0000000000000000e+00  2.4221060530216081e-07 -2.2355905581290943e-04 0.0000000000000000e+00  3.6253137680274115e-06 -6.6314709652960256e-04 0.0000000000000000e+00  -6.4202223411458599e-08 -1.5067986156125124e-04 0.0000000000000000e+00  9.8057242158923486e-07 -2.7389571973940633e-04 0.0000000000000000e+00  3.1698492798918561e-06 -5.9938876895088882e-04 0.0000000000000000e+00  4.0885253759540659e-06 -7.2758327485012255e-04 0.0000000000000000e+00  1.3186225086904274e-06 -3.2837364921035732e-04 0.0000000000000000e+00  2.7236322144551119e-06 -5.3654941992401081e-04 0.0000000000000000e+00  1.1660417430867265e-06 -3.8310027671303583e-04 0.0000000000000000e+00  2.8212360605452623e-06 -4.7617065021718981e-04 0.0000000000000000e+00  1.9572367398602073e-06 -4.2729898728738824e-04 0.0000000000000000e+00  5.3447738976785978e-07 -1.8444070986442916e-04 0.0000000000000000e+00  6.2688123829079120e-06 -1.0408244776911901e-03 0.0000000000000000e+00  -5.9672796739292628e-08 -5.1492094752564567e-05 0.0000000000000000e+00  -7.7701707322213414e-06 -1.1212640586873060e-03 0.0000000000000000e+00  -2.6876706754031883e-06 -7.0799817613399281e-06 0.0000000000000000e+00  -7.4670423412840517e-06 -8.9053708452496835e-04 0.0000000000000000e+00  -7.0201815592424732e-06 -9.5604514933318003e-04 0.0000000000000000e+00  4.3681538719744115e-06 -2.2473907944712090e-05 0.0000000000000000e+00  6.9820201548952235e-06 -9.2762344428115535e-05 0.0000000000000000e+00  -8.6642230645351645e-06 -6.9539758969020351e-04 0.0000000000000000e+00  -7.8951006827062058e-06 -8.2518562095278212e-04 0.0000000000000000e+00  1.0770529421481569e-05 -2.4780225287769799e-04 0.0000000000000000e+00  -8.9861872203171540e-06 -6.3127617440649733e-04 0.0000000000000000e+00  8.1219164378788250e-06 -1.3133654266537704e-04 0.0000000000000000e+00  1.1683303300671477e-05 -3.0078497816993390e-04 0.0000000000000000e+00  -9.2521174271740675e-06 -5.6794739869783805e-04 0.0000000000000000e+00  -8.2971216591160736e-06 -7.6009311324940225e-04 0.0000000000000000e+00  1.4967581457942142e-05 -3.5627669494064012e-04 0.0000000000000000e+00  -9.4552765075031820e-06 -5.0567495037892683e-04 0.0000000000000000e+00  4.6337285982267280e-07 -5.3815857854521211e-07 0.0000000000000000e+00  -4.6251120619805077e-07 -4.7562207057321855e-07 0.0000000000000000e+00  1.8029628285699975e-05 -1.1784869550522103e-03 0.0000000000000000e+00  2.8490474264