<?xml version="1.0"?>
<VTKFile type="UnstructuredGrid"  version="0.1"  >
<UnstructuredGrid>
<Piece  NumberOfPoints="1419" NumberOfCells="2698">
<Points>
<DataArray  type="Float64"  NumberOfComponents="3"  format="ascii">0 0 0  0 0.41 0  2.5 0 0  2.5 0.41 0  0.6 0.19 0  0.6 0.21 0  0.25 0.2 0  0.15 0.2 0  0.2489897948556636 0.21 0  0.2489897948556636 0.19 0  0.6 0.2 0  0 0.3807142857143437 0  0 0.3514285714286952 0  0 0.3221428571430699 0  0 0.29285714285744 0  0 0.2635714285718054 0  0 0.2342857142861561 0  0 0.2050000000005308 0  0 0.175714285714732 0  0 0.1464285714289574 0  0 0.1171428571431897 0  0 0.08785714285737878 0  0 0.05857142857161107 0  0 0.02928571428580012 0  0.03015443760436003 0 0  0.06140001986583606 0 0  0.09377624077125973 0 0  0.1273239957535082 0 0  0.1620856860351972 0 0  0.1981052433264291 0 0  0.235428184091502 0 0  0.2741016576309132 0 0  0.3141745521465447 0 0  0.3556974926295285 0 0  0.3987229542472677 0 0  0.4433053055141081 0 0  0.4895008759286886 0 0  0.5373680609405097 0 0  0.5869673343216626 0 0  0.6383613676634521 0 0  0.6916151138468254 0 0  0.7467958595648856 0 0  0.8039733463919316 0 0  0.8632198139502143 0 0  0.9246101326867038 0 0  0.9882218810934433 0 0  1.054135445558498 0 0  1.122434100542598 0 0  1.193204177141305 0 0  1.266535089879536 0 0  1.342519516046404 0 0  1.421253448503939 0 0  1.502836389106271 0 0  1.587371439758838 0 0  1.674965418777374 0 0  1.765729001825544 0 0  1.859776908880082 0 0  1.957227977487062 0 0  2.058205329869943 0 0  2.162836591189951 0 0  2.271253957290865 0 0  2.383594446803425 0 0  2.5 0.1024999999997612 0  2.5 0.2049999999994743 0  2.5 0.3074999999997183 0  2.383594446803656 0.41 0  2.271253957291315 0.41 0  2.162836591190598 0.41 0  2.058205329870775 0.41 0  1.957227977488067 0.41 0  1.859776908881246 0.41 0  1.765729001826854 0.41 0  1.674965418778818 0.41 0  1.58737143976041 0.41 0  1.502836389107956 0.41 0  1.421253448505726 0.41 0  1.342519516048286 0.41 0  1.266535089881505 0.41 0  1.193204177143353 0.41 0  1.122434100544716 0.41 0  1.05413544556068 0.41 0  0.9882218810956305 0.41 0  0.9246101326886647 0.41 0  0.8632198139519631 0.41 0  0.8039733463934788 0.41 0  0.7467958595662458 0.41 0  0.6916151138480078 0.41 0  0.6383613676644679 0.41 0  0.5869673343225223 0.41 0  0.5373680609412221 0.41 0  0.4895008759292634 0.41 0  0.4433053055145528 0.41 0  0.3987229542475914 0.41 0  0.3556974926297398 0.41 0  0.3141745521466497 0.41 0  0.2741016576310038 0.41 0  0.2354281840915826 0.41 0  0.1981052433265003 0.41 0  0.1620856860352591 0.41 0  0.1273239957535623 0.41 0  0.09377624077128965 0.41 0  0.06140001986584975 0.41 0  0.03015443760436654 0.41 0  0.2497468076502589 0.2050254481002335 0  0.2497468076502614 0.1949745518997913 0  0.2469965252529372 0.1829317073451959 0  0.2439893735792749 0.1762316384219906 0  0.2400332147834255 0.1700443375285386 0  0.2352133972704371 0.1645032867342007 0  0.2296339016332438 0.1597280261969788 0  0.2234150974217223 0.1558215752574715 0  0.2166911463437691 0.1528682099456123 0  0.2096071079204251 0.1509316448471593 0  0.2023158100364996 0.1500536585536553 0  0.194974551899914 0.1502531923497262 0  0.1877417105387872 0.1515259415822739 0  0.1807733240461124 0.153844448527136 0  0.1742197252835808 0.15715869474974 0  0.1682222986673531 0.1613971801805478 0  0.162910430003803 0.1664684656256651 0  0.1583987151779087 0.1722631454351573 0  0.1547844879126891 0.178656207771761 0  0.1521457199348551 0.1855097315605723 0  0.1505393388476355 0.1926758619366523 0  0.1505393388476328 0.2073241380633295 0  0.1521457199348437 0.2144902684393899 0  0.1547844879126531 0.221343792228163 0  0.1583987151778488 0.2277368545647528 0  0.1629104300036858 0.2335315343742052 0  0.1682222986671726 0.2386028198193036 0  0.1742197252833576 0.2428413052501257 0  0.1807733240458683 0.2461555514727623 0  0.1877417105384929 0.2484740584176516 0  0.1949745518995776 0.2497468076502398 0  0.202315810036185 0.2499463414463592 0  0.2096071079201568 0.2490683551528932 0  0.2166911463435495 0.2471317900544655 0  0.2234150974215506 0.2441784247426195 0  0.2296339016331197 0.2402719738031125 0  0.2352133972703547 0.2354967132658811 0  0.2400332147833751 0.2299556624715287 0  0.2439893735792577 0.2237683615780412 0  0.246996525252926 0.2170682926548348 0  0.25645809709277 0.21 0  0.2639263993298655 0.21 0  0.271394701566961 0.21 0  0.2788630038040554 0.21 0  0.2863313060411479 0.21 0  0.2937996082782405 0.21 0  0.301267910515333 0.21 0  0.3087362127524279 0.21 0  0.3162045149895234 0.21 0  0.3236728172265972 0.21 0  0.3311411194636928 0.21 0  0.3386094217007701 0.21 0  0.3460777239378666 0.21 0  0.3535460261749672 0.21 0  0.3610143284120516 0.21 0  0.3684826306491596 0.21 0  0.3759509328862226 0.21 0  0.383419235123329 0.21 0  0.3908875373604028 0.21 0  0.3983558395975142 0.21 0  0.4058241418345938 0.21 0  0.4132924440716992 0.21 0  0.4207607463087888 0.21 0  0.4282290485459029 0.21 0  0.4356973507830418 0.21 0  0.4431656530201649 0.21 0  0.4506339552573136 0.21 0  0.4581022574944306 0.21 0  0.4655705597315852 0.21 0  0.4730388619686996 0.21 0  0.480507164205851 0.21 0  0.4879754664429498 0.21 0  0.4954437686800938 0.21 0  0.502912070917267 0.21 0  0.5103803731544119 0.21 0  0.5178486753915261 0.21 0  0.5253169776286404 0.21 0  0.5327852798657868 0.21 0  0.5402535821029386 0.21 0  0.54772188434007 0.21 0  0.5551901865771842 0.21 0  0.5626584888143201 0.21 0  0.5701267910514778 0.21 0  0.5775950932886138 0.21 0  0.5850633955257281 0.21 0  0.5925316977628483 0.21 0  0.6 0.2050000000000054 0  0.6 0.1950000000000217 0  0.5925316977628897 0.19 0  0.5850633955257988 0.19 0  0.5775950932887378 0.19 0  0.5701267910515998 0.19 0  0.5626584888145268 0.19 0  0.5551901865773963 0.19 0  0.547721884340339 0.19 0  0.5402535821032429 0.19 0  0.5327852798661811 0.19 0  0.5253169776290537 0.19 0  0.5178486753919799 0.19 0  0.5103803731549078 0.19 0  0.502912070917822 0.19 0  0.4954437686807294 0.19 0  0.4879754664436223 0.19 0  0.4805071642065402 0.19 0  0.4730388619694271 0.19 0  0.4655705597323621 0.19 0  0.4581022574952563 0.19 0  0.4506339552581777 0.19 0  0.4431656530210671 0.19 0  0.4356973507839815 0.19 0  0.4282290485468779 0.19 0  0.4207607463097617 0.19 0  0.4132924440726327 0.19 0  0.4058241418354857 0.19 0  0.3983558395983636 0.19 0  0.3908875373612097 0.19 0  0.3834192351240934 0.19 0  0.3759509328869369 0.19 0  0.3684826306498175 0.19 0  0.361014328412667 0.19 0  0.3535460261755617 0.19 0  0.3460777239384295 0.19 0  0.3386094217012945 0.19 0  0.3311411194641595 0.19 0  0.3236728172270245 0.19 0  0.3162045149898895 0.19 0  0.3087362127527544 0.19 0  0.3012679105156187 0.19 0  0.2937996082784807 0.19 0  0.2863313060413428 0.19 0  0.2788630038042048 0.19 0  0.2713947015670686 0.19 0  0.2639263993299336 0.19 0  0.2564580970927985 0.19 0  0.2607803159922026 0.2000727136295815 0  0.5887803774232762 0.2001272386983733 0  0.5745072403740523 0.2002044435018727 0  0.5511891430099709 0.2001122610077113 0  0.2751288526855082 0.20000000000002 0  0.5365194309847112 0.1999999999999436 0  0.2894621222999649 0.1998691686390484 0  0.5215828265105155 0.1999999999999228 0  0.3127789816668748 0.1998657885438805 0  0.3274069683451451 0.2000000000000796 0  0.5066462220363641 0.199999999999908 0  0.3650630746574081 0.199866017807523 0  0.476773013087985 0.1999999999998713 0  0.3417402379596385 0.1998691686391011 0  0.3796850840047755 0.200000000000134 0  0.4618364086138087 0.1999999999998546 0  0.4917096175621762 0.1999999999998808 0  0.3946216884789568 0.2000000000001512 0  0.446899804139621 0.1999999999998389 0  0.4089549580935208 0.1998691686391595 0  0.4322718174608562 0.200127451265745 0  0.4201487168029707 0.1999966199048527 0  0.3528922713220932 0.2000185703532356 0  0.5633122436674589 0.1999814296467508 0  0.3006558810093873 0.1999966199048318 0  0.5815926498168407 0.1966545283159175 0  0.2677053789419034 0.1964246479135325 0  0.5290511287476175 0.1970915826863981 0  0.5439877332217911 0.197091582686394 0  0.2825131256993216 0.2035478995978015 0  0.3199386661080599 0.202908417313604 0  0.4842413153250809 0.1970915826863873 0  0.5141145242734466 0.1970915826863843 0  0.3722167817676917 0.2029084173136195 0  0.4693047108508938 0.1970915826863783 0  0.3348752705822316 0.202908417313609 0  0.3871533862418661 0.2029084173136212 0  0.4543681063767183 0.1970915826863795 0  0.4991779197992749 0.1970915826863902 0  0.4020059614928624 0.203547899597858 0  0.4394315019025246 0.1970915826863714 0  0.2550657455369551 0.2034088125358657 0  0.2548908499171161 0.1966940311614271 0  0.5946539510196798 0.2024302972968126 0  0.267698176732111 0.2039977513680092 0  0.4261685417851465 0.196409292431739 0  0.3590076176283495 0.196411355804271 0  0.5571672426447437 0.2036011176410121 0  0.3066757059912147 0.1964092924317024 0  0.594380730180568 0.1966558399668133 0  0.4842413153245942 0.2040749161535287 0  0.4693047108503577 0.2040749161535231 0  0.3871533862424271 0.1959250838464788 0  0.372246743208829 0.1959123236376545 0  0.5141145242731028 0.2040749161535395 0  0.4543681063761134 0.2040749161535186 0  0.4019979587101454 0.1959834479682427 0  0.4394608940728603 0.2040870543693135 0  0.5439623148931173 0.2040856076781014 0  0.5290511287473298 0.2040749161535501 0  0.4991779197988497 0.2040749161535382 0  0.3347912413592433 0.1959225448935183 0  0.3199680582793816 0.1959123018030061 0  0.2825051229162361 0.1959834479681729 0  0.3590471196690275 0.2036304442587945 0  0.5571594006495384 0.1963685282145804 0  0.3067669986803285 0.203627750582736 0  0.4262598344738712 0.2036568242185335 0  0.5814408164431408 0.2041285596160068 0  0.5688286748170428 0.1961819304477386 0  0.4145905603063645 0.2038180695522843 0  0.3473758401724931 0.2038180695522752 0  0.2950977245128307 0.2038180695522663 0  0.5688286748170693 0.203818069552238 0  0.2950977245127906 0.1961819304477774 0  0.3473758401723931 0.1961819304478349 0  0.4145905603061963 0.1961819304479011 0  0.2601812407614425 0.2056861609747042
[...]
<PointData  Vectors="f_40-0"> 
<DataArray  type="Float64"  Name="f_40-0"  NumberOfComponents="3" format="ascii">0.0000000000000000e+00 0.0000000000000000e+00 0.0000000000000000e+00  0.0000000000000000e+00 0.0000000000000000e+00 0.0000000000000000e+00  0.0000000000000000e+00 0.0000000000000000e+00 0.0000000000000000e+00  0.0000000000000000e+00 0.0000000000000000e+00 0.0000000000000000e+00  -5.9988027035765366e-06 -1.5727899829305373e-04 0.0000000000000000e+00  5.7933339684135745e-06 -1.5726074890696419e-04 0.0000000000000000e+00  0.0000000000000000e+00 0.0000000000000000e+00 0.0000000000000000e+00  0.0000000000000000e+00 0.0000000000000000e+00 0.0000000000000000e+00  0.0000000000000000e+00 0.0000000000000000e+00 0.0000000000000000e+00  0.0000000000000000e+00 0.0000000000000000e+00 0.0000000000000000e+00  -1.0204389941230239e-07 -1.5728356606369554e-04 0.0000000000000000e+00  7.9591836734548405e-01 0.0000000000000000e+00 0.0000000000000000e+00  1.4693877550994523e+00 0.0000000000000000e+00 0.0000000000000000e+00  2.0204081632617479e+00 0.0000000000000000e+00 0.0000000000000000e+00  2.4489795918330071e+00 0.0000000000000000e+00 0.0000000000000000e+00  2.7551020408131754e+00 0.0000000000000000e+00 0.0000000000000000e+00  2.9387755102022344e+00 0.0000000000000000e+00 0.0000000000000000e+00  3.0000000000000004e+00 0.0000000000000000e+00 0.0000000000000000e+00  2.9387755102059474e+00 0.0000000000000000e+00 0.0000000000000000e+00  2.7551020408195543e+00 0.0000000000000000e+00 0.0000000000000000e+00  2.4489795918409065e+00 0.0000000000000000e+00 0.0000000000000000e+00  2.0204081632692521e+00 0.0000000000000000e+00 0.0000000000000000e+00  1.4693877551058563e+00 0.0000000000000000e+00 0.0000000000000000e+00  7.9591836734909216e-01 0.0000000000000000e+00 0.0000000000000000e+00  0.0000000000000000e+00 0.0000000000000000e+00 0.0000000000000000e+00  0.0000000000000000e+00 0.0000000000000000e+00 0.0000000000000000e+00  0.0000000000000000e+00 0.0000000000000000e+00 0.0000000000000000e+00  0.0000000000000000e+00 0.0000000000000000e+00 0.0000000000000000e+00  0.0000000000000000e+00 0.0000000000000000e+00 0.0000000000000000e+00  0.0000000000000000e+00 0.0000000000000000e+00 0.0000000000000000e+00  0.0000000000000000e+00 0.0000000000000000e+00 0.0000000000000000e+00  0.0000000000000000e+00 0.0000000000000000e+00 0.0000000000000000e+00  0.0000000000000000e+00 0.0000000000000000e+00 0.0000000000000000e+00  0.0000000000000000e+00 0.0000000000000000e+00 0.0000000000000000e+00  0.0000000000000000e+00 0.0000000000000000e+00 0.0000000000000000e+00  0.0000000000000000e+00 0.0000000000000000e+00 0.0000000000000000e+00  0.0000000000000000e+00 0.0000000000000000e+00 0.0000000000000000e+00  0.0000000000000000e+00 0.0000000000000000e+00 0.0000000000000000e+00  0.0000000000000000e+00 0.0000000000000000e+00 0.0000000000000000e+00  0.0000000000000000e+00 0.0000000000000000e+00 0.0000000000000000e+00  0.0000000000000000e+00 0.0000000000000000e+00 0.0000000000000000e+00  0.0000000000000000e+00 0.0000000000000000e+00 0.0000000000000000e+00  0.0000000000000000e+00 0.0000000000000000e+00 0.0000000000000000e+00  0.0000000000000000e+00 0.0000000000000000e+00 0.0000000000000000e+00  0.0000000000000000e+00 0.0000000000000000e+00 0.0000000000000000e+00  0.0000000000000000e+00 0.0000000000000000e+00 0.0000000000000000e+00  0.0000000000000000e+00 0.0000000000000000e+00 0.0000000000000000e+00  0.0000000000000000e+00 0.0000000000000000e+00 0.0000000000000000e+00  0.0000000000000000e+00 0.0000000000000000e+00 0.0000000000000000e+00  0.0000000000000000e+00 0.0000000000000000e+00 0.0000000000000000e+00  0.0000000000000000e+00 0.0000000000000000e+00 0.0000000000000000e+00  0.0000000000000000e+00 0.0000000000000000e+00 0.0000000000000000e+00  0.0000000000000000e+00 0.0000000000000000e+00 0.0000000000000000e+00  0.0000000000000000e+00 0.0000000000000000e+00 0.0000000000000000e+00  0.0000000000000000e+00 0.0000000000000000e+00 0.0000000000000000e+00  0.0000000000000000e+00 0.0000000000000000e+00 0.0000000000000000e+00  0.0000000000000000e+00 0.0000000000000000e+00 0.0000000000000000e+00  0.0000000000000000e+00 0.0000000000000000e+00 0.0000000000000000e+00  0.0000000000000000e+00 0.0000000000000000e+00 0.0000000000000000e+00  0.0000000000000000e+00 0.0000000000000000e+00 0.0000000000000000e+00  0.0000000000000000e+00 0.0000000000000000e+00 0.0000000000000000e+00  0.0000000000000000e+00 0.0000000000000000e+00 0.0000000000000000e+00  2.6290524882740254e+00 8.2611059141616417e-03 0.0000000000000000e+00  2.4135080512815854e+00 1.2871213004387400e-02 0.0000000000000000e+00  2.7840815762652862e+00 5.9803275990018542e-02 0.0000000000000000e+00  0.0000000000000000e+00 0.0000000000000000e+00 0.0000000000000000e+00  0.0000000000000000e+00 0.0000000000000000e+00 0.0000000000000000e+00  0.0000000000000000e+00 0.0000000000000000e+00 0.0000000000000000e+00  0.0000000000000000e+00 0.0000000000000000e+00 0.0000000000000000e+00  0.0000000000000000e+00 0.0000000000000000e+00 0.0000000000000000e+00  0.0000000000000000e+00 0.0000000000000000e+00 0.0000000000000000e+00  0.0000000000000000e+00 0.0000000000000000e+00 0.0000000000000000e+00  0.0000000000000000e+00 0.0000000000000000e+00 0.0000000000000000e+00  0.0000000000000000e+00 0.0000000000000000e+00 0.0000000000000000e+00  0.0000000000000000e+00 0.0000000000000000e+00 0.0000000000000000e+00  0.0000000000000000e+00 0.0000000000000000e+00 0.0000000000000000e+00  0.0000000000000000e+00 0.0000000000000000e+00 0.0000000000000000e+00  0.0000000000000000e+00 0.0000000000000000e+00 0.0000000000000000e+00  0.0000000000000000e+00 0.0000000000000000e+00 0.0000000000000000e+00  0.0000000000000000e+00 0.0000000000000000e+00 0.0000000000000000e+00  0.0000000000000000e+00 0.0000000000000000e+00 0.0000000000000000e+00  0.0000000000000000e+00 0.0000000000000000e+00 0.0000000000000000e+00  0.0000000000000000e+00 0.0000000000000000e+00 0.0000000000000000e+00  0.0000000000000000e+00 0.0000000000000000e+00 0.0000000000000000e+00  0.0000000000000000e+00 0.0000000000000000e+00 0.0000000000000000e+00  0.0000000000000000e+00 0.0000000000000000e+00 0.0000000000000000e+00  0.0000000000000000e+00 0.0000000000000000e+00 0.0000000000000000e+00  0.0000000000000000e+00 0.0000000000000000e+00 0.0000000000000000e+00  0.0000000000000000e+00 0.0000000000000000e+00 0.0000000000000000e+00  0.0000000000000000e+00 0.0000000000000000e+00 0.0000000000000000e+00  0.0000000000000000e+00 0.0000000000000000e+00 0.0000000000000000e+00  0.0000000000000000e+00 0.0000000000000000e+00 0.0000000000000000e+00  0.0000000000000000e+00 0.0000000000000000e+00 0.0000000000000000e+00  0.0000000000000000e+00 0.0000000000000000e+00 0.0000000000000000e+00  0.0000000000000000e+00 0.0000000000000000e+00 0.0000000000000000e+00  0.0000000000000000e+00 0.0000000000000000e+00 0.0000000000000000e+00  0.0000000000000000e+00 0.0000000000000000e+00 0.0000000000000000e+00  0.0000000000000000e+00 0.0000000000000000e+00 0.0000000000000000e+00  0.0000000000000000e+00 0.0000000000000000e+00 0.0000000000000000e+00  0.0000000000000000e+00 0.0000000000000000e+00 0.0000000000000000e+00  0.0000000000000000e+00 0.0000000000000000e+00 0.0000000000000000e+00  0.0000000000000000e+00 0.0000000000000000e+00 0.0000000000000000e+00  0.0000000000000000e+00 0.0000000000000000e+00 0.0000000000000000e+00  0.0000000000000000e+00 0.0000000000000000e+00 0.0000000000000000e+00  0.0000000000000000e+00 0.0000000000000000e+00 0.0000000000000000e+00  0.0000000000000000e+00 0.0000000000000000e+00 0.0000000000000000e+00  0.0000000000000000e+00 0.0000000000000000e+00 0.0000000000000000e+00  0.0000000000000000e+00 0.0000000000000000e+00 0.0000000000000000e+00  0.0000000000000000e+00 0.0000000000000000e+00 0.0000000000000000e+00  0.0000000000000000e+00 0.0000000000000000e+00 0.0000000000000000e+00  0.0000000000000000e+00 0.0000000000000000e+00 0.0000000000000000e+00  0.0000000000000000e+00 0.0000000000000000e+00 0.0000000000000000e+00  0.0000000000000000e+00 0.0000000000000000e+00 0.0000000000000000e+00  0.0000000000000000e+00 0.0000000000000000e+00 0.0000000000000000e+00  0.0000000000000000e+00 0.0000000000000000e+00 0.0000000000000000e+00  0.0000000000000000e+00 0.0000000000000000e+00 0.0000000000000000e+00  0.0000000000000000e+00 0.0000000000000000e+00 0.0000000000000000e+00  0.0000000000000000e+00 0.0000000000000000e+00 0.0000000000000000e+00  0.0000000000000000e+00 0.0000000000000000e+00 0.0000000000000000e+00  0.0000000000000000e+00 0.0000000000000000e+00 0.0000000000000000e+00  0.0000000000000000e+00 0.0000000000000000e+00 0.0000000000000000e+00  0.0000000000000000e+00 0.0000000000000000e+00 0.0000000000000000e+00  0.0000000000000000e+00 0.0000000000000000e+00 0.0000000000000000e+00  0.0000000000000000e+00 0.0000000000000000e+00 0.0000000000000000e+00  0.0000000000000000e+00 0.0000000000000000e+00 0.0000000000000000e+00  0.0000000000000000e+00 0.0000000000000000e+00 0.0000000000000000e+00  0.0000000000000000e+00 0.0000000000000000e+00 0.0000000000000000e+00  0.0000000000000000e+00 0.0000000000000000e+00 0.0000000000000000e+00  0.0000000000000000e+00 0.0000000000000000e+00 0.0000000000000000e+00  0.0000000000000000e+00 0.0000000000000000e+00 0.0000000000000000e+00  0.0000000000000000e+00 0.0000000000000000e+00 0.0000000000000000e+00  0.0000000000000000e+00 0.0000000000000000e+00 0.0000000000000000e+00  0.0000000000000000e+00 0.0000000000000000e+00 0.0000000000000000e+00  0.0000000000000000e+00 0.0000000000000000e+00 0.0000000000000000e+00  0.0000000000000000e+00 0.0000000000000000e+00 0.0000000000000000e+00  0.0000000000000000e+00 0.0000000000000000e+00 0.0000000000000000e+00  0.0000000000000000e+00 0.0000000000000000e+00 0.0000000000000000e+00  0.0000000000000000e+00 0.0000000000000000e+00 0.0000000000000000e+00  0.0000000000000000e+00 0.0000000000000000e+00 0.0000000000000000e+00  0.0000000000000000e+00 0.0000000000000000e+00 0.0000000000000000e+00  0.0000000000000000e+00 0.0000000000000000e+00 0.0000000000000000e+00  0.0000000000000000e+00 0.0000000000000000e+00 0.0000000000000000e+00  0.0000000000000000e+00 0.0000000000000000e+00 0.0000000000000000e+00  2.9263654550492954e-07 -2.7974027727836106e-07 0.0000000000000000e+00  6.3117871703296321e-07 -6.6334116294873036e-07 0.0000000000000000e+00  9.2764729458660277e-07 -1.2987306697064148e-06 0.0000000000000000e+00  1.2549646103153275e-06 -2.1994365164770214e-06 0.0000000000000000e+00  1.5238986852902383e-06 -3.3264838503456008e-06 0.0000000000000000e+00  1.8374578031934298e-06 -4.7006849290474588e-06 0.0000000000000000e+00  2.0835800574791058e-06 -6.2599307968542364e-06 0.0000000000000000e+00  2.3232512428437086e-06 -8.0630359473973404e-06 0.0000000000000000e+00  2.6056699905225491e-06 -1.0050867360887295e-05 0.0000000000000000e+00  2.8139682269995618e-06 -1.2232972934021357e-05 0.0000000000000000e+00  3.0770424716230037e-06 -1.4604561077932107e-05 0.0000000000000000e+00  3.2673510849189882e-06 -1.7152307071574647e-05 0.0000000000000000e+00  3.4986122089174905e-06 -1.9868780552313333e-05 0.0000000000000000e+00  3.6763754142665329e-06 -2.2722559896856468e-05 0.0000000000000000e+00  3.8476431892747132e-06 -2.5745091560617396e-05 0.0000000000000000e+00  4.0449632057729875e-06 -2.8893659673514316e-05 0.0000000000000000e+00  4.1888589265194456e-06 -3.2172434193376860e-05 0.0000000000000000e+00  4.3645679399242217e-06 -3.5575903764510689e-05 0.0000000000000000e+00  4.4897444624170613e-06 -3.9090752230537314e-05 0.0000000000000000e+00  4.6391823647338909e-06 -4.2708048398013419e-05 0.0000000000000000e+00  4.7530861323410031e-06 -4.6423639040646923e-05 0.0000000000000000e+00  4.8784568353116888e-06 -5.0231415166274867e-05 0.0000000000000000e+00  4.9744245195449571e-06 -5.4106339782372743e-05 0.0000000000000000e+00  5.0635828275938029e-06 -5.8065490989989592e-05 0.0000000000000000e+00  5.1603408345911215e-06 -6.2080238353616021e-05 0.0000000000000000e+00  5.2364915043321905e-06 -6.6158865742072879e-05 0.0000000000000000e+00  5.3102315628993960e-06 -7.0290838971461361e-05 0.0000000000000000e+00  5.3719000166245803e-06 -7.4465805677539142e-05 0.0000000000000000e+00  5.4304808161571176e-06 -7.8683998219315372e-05 0.0000000000000000e+00  5.4791015292662179e-06 -8.2934259778152849e-05 0.0000000000000000e+00  5.5245169379858669e-06 -8.7217042389887839e-05 0.0000000000000000e+00  5.5618201771873930e-06 -9.1522660172678889e-05 0.0000000000000000e+00  5.5960894017039603e-06 -9.5851517462563590e-05 0.0000000000000000e+00  5.6240241909618802e-06 -1.0019566218755505e-04 0.0000000000000000e+00  5.6492945839516049e-06 -1.0455551237746002e-04 0.0000000000000000e+00  5.6698910506906055e-06 -1.0892488049685121e-04 0.0000000000000000e+00  5.6883656609076449e-06 -1.1330408539957276e-04 0.0000000000000000e+00  5.7036273547275681e-06 -1.1768872406377948e-04 0.0000000000000000e+00  5.7174027812296327e-06 -1.2207901983313525e-04 0.0000000000000000e+00  5.7292048235698198e-06 -1.2647214536977902e-04 0.0000000000000000e+00  5.7402838921283614e-06 -1.3086838257292155e-04 0.0000000000000000e+00  5.7501676556853400e-06 -1.3526652443343110e-04 0.0000000000000000e+00  5.7594550413242632e-06 -1.3966521219520455e-04 0.0000000000000000e+00  5.7688792959604751e-06 -1.4406544799135576e-04 0.0000000000000000e+00  5.7778414183905873e-06 -1.4846719428443855e-04 0.0000000000000000e+00  5.7867984113951041e-06 -1.5286933499117331e-04 0.0000000000000000e+00  2.8464359744587889e-06 -1.5727881408640751e-04 0.0000000000000000e+00  -3.0507821052922826e-06 -1.5728883009750053e-04 0.0000000000000000e+00  -6.0069263199475888e-06 -1.5288993853533091e-04 0.0000000000000000e+00  -6.0128630149880770e-06 -1.4848751522132572e-04 0.0000000000000000e+00  -6.0188958262403524e-06 -1.4408625013233827e-04 0.0000000000000000e+00  -6.0241413528910995e-06 -1.3968577311811078e-04 0.0000000000000000e+00  -6.0294603225529383e-06 -1.3528709305816227e-04 0.0000000000000000e+00  -6.0341420074400615e-06 -1.3088885341347841e-04 0.0000000000000000e+00  -6.0373861439136201e-06 -1.2649287756599399e-04 0.0000000000000000e+00  -6.0404267013443392e-06 -1.2209947698936218e-04 0.0000000000000000e+00  -6.0403125829560068e-06 -1.1770913713181684e-04 0.0000000000000000e+00  -6.0401503732029123e-06 -1.1332419110068922e-04 0.0000000000000000e+00  -6.0347870170738935e-06 -1.0894492926877401e-04 0.0000000000000000e+00  -6.0296484233061972e-06 -1.0457507869644318e-04 0.0000000000000000e+00  -6.0165956747526823e-06 -1.0021512347859093e-04 0.0000000000000000e+00  -6.0044911936457716e-06 -9.5870272083333337e-05 0.0000000000000000e+00  -5.9811149418159376e-06 -9.1541193765810983e-05 0.0000000000000000e+00  -5.9599379768526615e-06 -8.7234656590360829e-05 0.0000000000000000e+00  -5.9235203122741847e-06 -8.2951476520151367e-05 0.0000000000000000e+00  -5.8911607162297101e-06 -7.8699944701416676e-05 0.0000000000000000e+00  -5.8390523280719406e-06 -7.4481047197532728e-05 0.0000000000000000e+00  -5.7934683966213205e-06 -7.0304383386598574e-05 0.0000000000000000e+00  -5.7225902831382651e-06 -6.6171483986209238e-05 0.0000000000000000e+00  -5.6611296248579451e-06 -6.2093341698045147e-05 0.0000000000000000e+00  -5.5702548347812923e-06 -5.8073071771284463e-05 0.0000000000000000e+00  -5.4873452107248191e-06 -5.4113253644380383e-05 0.0000000000000000e+00  -5.3955482838663192e-06 -5.0237306226439910e-05 0.0000000000000000e+00  -5.2754205563564568e-06 -4.6424705343341427e-05 0.0000000000000000e+00  -5.1580472275036254e-06 -4.2710784852329858e-05 0.0000000000000000e+00  -5.0175114153829244e-06 -3.9085551732863643e-05 0.0000000000000000e+00  -4.8762105085381281e-06 -3.5570493622356897e-05 0.0000000000000000e+00  -4.7114958434850991e-06 -3.2162710086675266e-05 0.0000000000000000e+00  -4.5462510993812366e-06 -2.8876070854492456e-05 0.0000000000000000e+00  -4.3415714642682806e-06 -2.5731888577399752e-05 0.0000000000000000e+00  -4.1583139969497645e-06 -2.2704152472554468e-05 0.0000000000000000e+00  -3.9643476625581047e-06 -1.9849278846364817e-05 0.0000000000000000e+00  -3.7225333845511867e-06 -1.7118096503510333e-05 0.0000000000000000e+00  -3.4912278762178239e-06 -1.4573404919482123e-05 0.0000000000000000e+00  -3.2286805494672346e-06 -1.2196272099300378e-05 0.0000000000000000e+00  -2.9718548110204164e-06 -1.0003201720935481e-05 0.0000000000000000e+00  -2.6631678866429115e-06 -8.0230407422414178e-06 0.0000000000000000e+00  -2.3901902981469193e-06 -6.2133870568996864e-06 0.0000000000000000e+00  -2.1080804397167462e-06 -4.6516618732896725e-06 0.0000000000000000e+00  -1.7617788247202491e-06 -3.2674273494718696e-06 0.0000000000000000e+00  -1.4426712738301582e-06 -2.1346086680244174e-06 0.0000000000000000e+00  -1.0702535778389539e-06 -1.2441584907729903e-06 0.0000000000000000e+00  -7.3395131674115540e-07 -6.0497275080903819e-07 0.0000000000000000e+00  -3.4499923764851179e-07 -2.2103957597893590e-07 0.0000000000000000e+00  -4.2379851399779522e-08 -2.6015049308286041e-07 0.0000000000000000e+00  -3.8489683968829328e-08 -1.5066891809455591e-04 0.0000000000000000e+00  -7.4009835454189978e-09 -1.4225601497381754e-04 0.0000000000000000e+00  -8.4652538125862057e-08 -1.2852173549866104e-04 0.0000000000000000e+00  -8.6783848405857090e-08 -1.5283232531214235e-06 0.0000000000000000e+00  -1.6485017724146226e-07 -1.1989078826388358e-04 0.0000000000000000e+00  -1.4809247055052661e-07 -3.6926437335202851e-06 0.0000000000000000e+00  -1.7917670098121762e-07 -1.1111845957380921e-04 0.0000000000000000e+00  -2.1657825016873463e-07 -8.9606031738056230e-06 0.0000000000000000e+00  -2.0791810295381595e-07 -1.3263308920976708e-05 0.0000000000000000e+00  -1.9331048208968769e-07 -1.0237533959563485e-04 0.0000000000000000e+00  -3.0806221250058424e-07 -2.7338275083958431e-05 0.0000000000000000e+00  -2.2021486952414570e-07 -8.5062610862419181e-05 0.0000000000000000e+00  -2.7564969751045156e-07 -1.8146747547068449e-05 0.0000000000000000e+00  -2.5859464835119237e-07 -3.3780043814062979e-05 0.0000000000000000e+00  -2.3231420336090758e-07 -7.6553193630785041e-05 0.0000000000000000e+00  -2.0708643986539258e-07 -9.3681178837833200e-05 0.0000000000000000e+00  -2.6130860576288147e-07 -4.0820437674534397e-05 0.0000000000000000e+00  -2.4324956022254033e-07 -6.8193141454394180e-05 0.0000000000000000e+00  -3.2656723599518575e-07 -4.7953099684051107e-05 0.0000000000000000e+00  -1.8334051388045277e-07 -6.0194952667982323e-05 0.0000000000000000e+00  -2.5851327751285953e-07 -5.3753371041746283e-05 0.0000000000000000e+00  -2.3402780685510162e-07 -2.2385769984719539e-05 0.0000000000000000e+00  -1.4981002068226914e-07 -1.3566143931688132e-04 0.0000000000000000e+00  -1.5536965689926644e-07 -5.9975164647230241e-06 0.0000000000000000e+00  -2.0929422702861435e-06 -1.4643602892936555e-04 0.0000000000000000e+00  -3.6860420013495542e-07 -7.7478844331982787e-07 0.0000000000000000e+00  -1.8785313942610891e-06 -1.1550589206352549e-04 0.0000000000000000e+00  -1.8679892043643304e-06 -1.2428728128603041e-04 0.0000000000000000e+00  4.1746851353454184e-07 -2.5725677924040286e-06 0.0000000000000000e+00  6.5248107994153078e-07 -1.0998216802908482e-05 0.0000000000000000e+00  -1.8875477137499038e-06 -8.9365629066591091e-05 0.0000000000000000e+00  -1.8862058883448479e-06 -1.0674640192509088e-04 0.0000000000000000e+00  1.0173341121328434e-06 -3.0442736131079125e-05 0.0000000000000000e+00  -1.8780564458519008e-06 -8.0797594804977589e-05 0.0000000000000000e+00  7.6167419006368970e-07 -1.5749611455382642e-05 0.0000000000000000e+00  1.1011109907200987e-06 -3.7257116982954098e-05 0.0000000000000000e+00  -1.8596611235295970e-06 -7.2357986494718106e-05 0.0000000000000000e+00  -1.8897166080158514e-06 -9.8025260225805759e-05 0.0000000000000000e+00  1.4937674387572738e-06 -4.4462938606426349e-05 0.0000000000000000e+00  -1.8316227312479498e-06 -6.4090138235946335e-05 0.0000000000000000e+00  3.1436239333559150e-08 -5.8429346757939002e-08 0.0000000000000000e+00  -7.4416805218851189e-08 -4.0860940693480729e-08 0.0000000000000000e+00  1.3254980193974935e-06 -1.5413027479365960e-04 0.00000000000000