<?xml version="1.0"?>
<VTKFile type="UnstructuredGrid"  version="0.1"  >
<UnstructuredGrid>
<Piece  NumberOfPoints="1419" NumberOfCells="2698">
<Points>
<DataArray  type="Float64"  NumberOfComponents="3"  format="ascii">0 0 0  0 0.41 0  2.5 0 0  2.5 0.41 0  0.6 0.19 0  0.6 0.21 0  0.25 0.2 0  0.15 0.2 0  0.2489897948556636 0.21 0  0.2489897948556636 0.19 0  0.6 0.2 0  0 0.3807142857143437 0  0 0.3514285714286952 0  0 0.3221428571430699 0  0 0.29285714285744 0  0 0.2635714285718054 0  0 0.2342857142861561 0  0 0.2050000000005308 0  0 0.175714285714732 0  0 0.1464285714289574 0  0 0.1171428571431897 0  0 0.08785714285737878 0  0 0.05857142857161107 0  0 0.02928571428580012 0  0.03015443760436003 0 0  0.06140001986583606 0 0  0.09377624077125973 0 0  0.1273239957535082 0 0  0.1620856860351972 0 0  0.1981052433264291 0 0  0.235428184091502 0 0  0.2741016576309132 0 0  0.3141745521465447 0 0  0.3556974926295285 0 0  0.3987229542472677 0 0  0.4433053055141081 0 0  0.4895008759286886 0 0  0.5373680609405097 0 0  0.5869673343216626 0 0  0.6383613676634521 0 0  0.6916151138468254 0 0  0.7467958595648856 0 0  0.8039733463919316 0 0  0.8632198139502143 0 0  0.9246101326867038 0 0  0.9882218810934433 0 0  1.054135445558498 0 0  1.122434100542598 0 0  1.193204177141305 0 0  1.266535089879536 0 0  1.342519516046404 0 0  1.421253448503939 0 0  1.502836389106271 0 0  1.587371439758838 0 0  1.674965418777374 0 0  1.765729001825544 0 0  1.859776908880082 0 0  1.957227977487062 0 0  2.058205329869943 0 0  2.162836591189951 0 0  2.271253957290865 0 0  2.383594446803425 0 0  2.5 0.1024999999997612 0  2.5 0.2049999999994743 0  2.5 0.3074999999997183 0  2.383594446803656 0.41 0  2.271253957291315 0.41 0  2.162836591190598 0.41 0  2.058205329870775 0.41 0  1.957227977488067 0.41 0  1.859776908881246 0.41 0  1.765729001826854 0.41 0  1.674965418778818 0.41 0  1.58737143976041 0.41 0  1.502836389107956 0.41 0  1.421253448505726 0.41 0  1.342519516048286 0.41 0  1.266535089881505 0.41 0  1.193204177143353 0.41 0  1.122434100544716 0.41 0  1.05413544556068 0.41 0  0.9882218810956305 0.41 0  0.9246101326886647 0.41 0  0.8632198139519631 0.41 0  0.8039733463934788 0.41 0  0.7467958595662458 0.41 0  0.6916151138480078 0.41 0  0.6383613676644679 0.41 0  0.5869673343225223 0.41 0  0.5373680609412221 0.41 0  0.4895008759292634 0.41 0  0.4433053055145528 0.41 0  0.3987229542475914 0.41 0  0.3556974926297398 0.41 0  0.3141745521466497 0.41 0  0.2741016576310038 0.41 0  0.2354281840915826 0.41 0  0.1981052433265003 0.41 0  0.1620856860352591 0.41 0  0.1273239957535623 0.41 0  0.09377624077128965 0.41 0  0.06140001986584975 0.41 0  0.03015443760436654 0.41 0  0.2497468076502589 0.2050254481002335 0  0.2497468076502614 0.1949745518997913 0  0.2469965252529372 0.1829317073451959 0  0.2439893735792749 0.1762316384219906 0  0.2400332147834255 0.1700443375285386 0  0.2352133972704371 0.1645032867342007 0  0.2296339016332438 0.1597280261969788 0  0.2234150974217223 0.1558215752574715 0  0.2166911463437691 0.1528682099456123 0  0.2096071079204251 0.1509316448471593 0  0.2023158100364996 0.1500536585536553 0  0.194974551899914 0.1502531923497262 0  0.1877417105387872 0.1515259415822739 0  0.1807733240461124 0.153844448527136 0  0.1742197252835808 0.15715869474974 0  0.1682222986673531 0.1613971801805478 0  0.162910430003803 0.1664684656256651 0  0.1583987151779087 0.1722631454351573 0  0.1547844879126891 0.178656207771761 0  0.1521457199348551 0.1855097315605723 0  0.1505393388476355 0.1926758619366523 0  0.1505393388476328 0.2073241380633295 0  0.1521457199348437 0.2144902684393899 0  0.1547844879126531 0.221343792228163 0  0.1583987151778488 0.2277368545647528 0  0.1629104300036858 0.2335315343742052 0  0.1682222986671726 0.2386028198193036 0  0.1742197252833576 0.2428413052501257 0  0.1807733240458683 0.2461555514727623 0  0.1877417105384929 0.2484740584176516 0  0.1949745518995776 0.2497468076502398 0  0.202315810036185 0.2499463414463592 0  0.2096071079201568 0.2490683551528932 0  0.2166911463435495 0.2471317900544655 0  0.2234150974215506 0.2441784247426195 0  0.2296339016331197 0.2402719738031125 0  0.2352133972703547 0.2354967132658811 0  0.2400332147833751 0.2299556624715287 0  0.2439893735792577 0.2237683615780412 0  0.246996525252926 0.2170682926548348 0  0.25645809709277 0.21 0  0.2639263993298655 0.21 0  0.271394701566961 0.21 0  0.2788630038040554 0.21 0  0.2863313060411479 0.21 0  0.2937996082782405 0.21 0  0.301267910515333 0.21 0  0.3087362127524279 0.21 0  0.3162045149895234 0.21 0  0.3236728172265972 0.21 0  0.3311411194636928 0.21 0  0.3386094217007701 0.21 0  0.3460777239378666 0.21 0  0.3535460261749672 0.21 0  0.3610143284120516 0.21 0  0.3684826306491596 0.21 0  0.3759509328862226 0.21 0  0.383419235123329 0.21 0  0.3908875373604028 0.21 0  0.3983558395975142 0.21 0  0.4058241418345938 0.21 0  0.4132924440716992 0.21 0  0.4207607463087888 0.21 0  0.4282290485459029 0.21 0  0.4356973507830418 0.21 0  0.4431656530201649 0.21 0  0.4506339552573136 0.21 0  0.4581022574944306 0.21 0  0.4655705597315852 0.21 0  0.4730388619686996 0.21 0  0.480507164205851 0.21 0  0.4879754664429498 0.21 0  0.4954437686800938 0.21 0  0.502912070917267 0.21 0  0.5103803731544119 0.21 0  0.5178486753915261 0.21 0  0.5253169776286404 0.21 0  0.5327852798657868 0.21 0  0.5402535821029386 0.21 0  0.54772188434007 0.21 0  0.5551901865771842 0.21 0  0.5626584888143201 0.21 0  0.5701267910514778 0.21 0  0.5775950932886138 0.21 0  0.5850633955257281 0.21 0  0.5925316977628483 0.21 0  0.6 0.2050000000000054 0  0.6 0.1950000000000217 0  0.5925316977628897 0.19 0  0.5850633955257988 0.19 0  0.5775950932887378 0.19 0  0.5701267910515998 0.19 0  0.5626584888145268 0.19 0  0.5551901865773963 0.19 0  0.547721884340339 0.19 0  0.5402535821032429 0.19 0  0.5327852798661811 0.19 0  0.5253169776290537 0.19 0  0.5178486753919799 0.19 0  0.5103803731549078 0.19 0  0.502912070917822 0.19 0  0.4954437686807294 0.19 0  0.4879754664436223 0.19 0  0.4805071642065402 0.19 0  0.4730388619694271 0.19 0  0.4655705597323621 0.19 0  0.4581022574952563 0.19 0  0.4506339552581777 0.19 0  0.4431656530210671 0.19 0  0.4356973507839815 0.19 0  0.4282290485468779 0.19 0  0.4207607463097617 0.19 0  0.4132924440726327 0.19 0  0.4058241418354857 0.19 0  0.3983558395983636 0.19 0  0.3908875373612097 0.19 0  0.3834192351240934 0.19 0  0.3759509328869369 0.19 0  0.3684826306498175 0.19 0  0.361014328412667 0.19 0  0.3535460261755617 0.19 0  0.3460777239384295 0.19 0  0.3386094217012945 0.19 0  0.3311411194641595 0.19 0  0.3236728172270245 0.19 0  0.3162045149898895 0.19 0  0.3087362127527544 0.19 0  0.3012679105156187 0.19 0  0.2937996082784807 0.19 0  0.2863313060413428 0.19 0  0.2788630038042048 0.19 0  0.2713947015670686 0.19 0  0.2639263993299336 0.19 0  0.2564580970927985 0.19 0  0.2607803159922026 0.2000727136295815 0  0.5887803774232762 0.2001272386983733 0  0.5745072403740523 0.2002044435018727 0  0.5511891430099709 0.2001122610077113 0  0.2751288526855082 0.20000000000002 0  0.5365194309847112 0.1999999999999436 0  0.2894621222999649 0.1998691686390484 0  0.5215828265105155 0.1999999999999228 0  0.3127789816668748 0.1998657885438805 0  0.3274069683451451 0.2000000000000796 0  0.5066462220363641 0.199999999999908 0  0.3650630746574081 0.199866017807523 0  0.476773013087985 0.1999999999998713 0  0.3417402379596385 0.1998691686391011 0  0.3796850840047755 0.200000000000134 0  0.4618364086138087 0.1999999999998546 0  0.4917096175621762 0.1999999999998808 0  0.3946216884789568 0.2000000000001512 0  0.446899804139621 0.1999999999998389 0  0.4089549580935208 0.1998691686391595 0  0.4322718174608562 0.200127451265745 0  0.4201487168029707 0.1999966199048527 0  0.3528922713220932 0.2000185703532356 0  0.5633122436674589 0.1999814296467508 0  0.3006558810093873 0.1999966199048318 0  0.5815926498168407 0.1966545283159175 0  0.2677053789419034 0.1964246479135325 0  0.5290511287476175 0.1970915826863981 0  0.5439877332217911 0.197091582686394 0  0.2825131256993216 0.2035478995978015 0  0.3199386661080599 0.202908417313604 0  0.4842413153250809 0.1970915826863873 0  0.5141145242734466 0.1970915826863843 0  0.3722167817676917 0.2029084173136195 0  0.4693047108508938 0.1970915826863783 0  0.3348752705822316 0.202908417313609 0  0.3871533862418661 0.2029084173136212 0  0.4543681063767183 0.1970915826863795 0  0.4991779197992749 0.1970915826863902 0  0.4020059614928624 0.203547899597858 0  0.4394315019025246 0.1970915826863714 0  0.2550657455369551 0.2034088125358657 0  0.2548908499171161 0.1966940311614271 0  0.5946539510196798 0.2024302972968126 0  0.267698176732111 0.2039977513680092 0  0.4261685417851465 0.196409292431739 0  0.3590076176283495 0.196411355804271 0  0.5571672426447437 0.2036011176410121 0  0.3066757059912147 0.1964092924317024 0  0.594380730180568 0.1966558399668133 0  0.4842413153245942 0.2040749161535287 0  0.4693047108503577 0.2040749161535231 0  0.3871533862424271 0.1959250838464788 0  0.372246743208829 0.1959123236376545 0  0.5141145242731028 0.2040749161535395 0  0.4543681063761134 0.2040749161535186 0  0.4019979587101454 0.1959834479682427 0  0.4394608940728603 0.2040870543693135 0  0.5439623148931173 0.2040856076781014 0  0.5290511287473298 0.2040749161535501 0  0.4991779197988497 0.2040749161535382 0  0.3347912413592433 0.1959225448935183 0  0.3199680582793816 0.1959123018030061 0  0.2825051229162361 0.1959834479681729 0  0.3590471196690275 0.2036304442587945 0  0.5571594006495384 0.1963685282145804 0  0.3067669986803285 0.203627750582736 0  0.4262598344738712 0.2036568242185335 0  0.5814408164431408 0.2041285596160068 0  0.5688286748170428 0.1961819304477386 0  0.4145905603063645 0.2038180695522843 0  0.3473758401724931 0.2038180695522752 0  0.2950977245128307 0.2038180695522663 0  0.5688286748170693 0.203818069552238 0  0.2950977245127906 0.1961819304477774 0  0.3473758401723931 0.1961819304478349 0  0.4145905603061963 0.1961819304479011 0  0.2601812407614425 0.2056861609747042
[...]
<PointData  Vectors="f_40-0"> 
<DataArray  type="Float64"  Name="f_40-0"  NumberOfComponents="3" format="ascii">0.0000000000000000e+00 0.0000000000000000e+00 0.0000000000000000e+00  0.0000000000000000e+00 0.0000000000000000e+00 0.0000000000000000e+00  0.0000000000000000e+00 0.0000000000000000e+00 0.0000000000000000e+00  0.0000000000000000e+00 0.0000000000000000e+00 0.0000000000000000e+00  5.4526893689793132e-11 -1.0061526887479458e-08 0.0000000000000000e+00  -2.5826903520438843e-09 -1.3371644925236648e-08 0.0000000000000000e+00  0.0000000000000000e+00 0.0000000000000000e+00 0.0000000000000000e+00  0.0000000000000000e+00 0.0000000000000000e+00 0.0000000000000000e+00  0.0000000000000000e+00 0.0000000000000000e+00 0.0000000000000000e+00  0.0000000000000000e+00 0.0000000000000000e+00 0.0000000000000000e+00  -1.4119084798841964e-09 -2.6648646897688934e-08 0.0000000000000000e+00  7.9591836734548405e-01 0.0000000000000000e+00 0.0000000000000000e+00  1.4693877550994523e+00 0.0000000000000000e+00 0.0000000000000000e+00  2.0204081632617479e+00 0.0000000000000000e+00 0.0000000000000000e+00  2.4489795918330071e+00 0.0000000000000000e+00 0.0000000000000000e+00  2.7551020408131754e+00 0.0000000000000000e+00 0.0000000000000000e+00  2.9387755102022344e+00 0.0000000000000000e+00 0.0000000000000000e+00  3.0000000000000004e+00 0.0000000000000000e+00 0.0000000000000000e+00  2.9387755102059474e+00 0.0000000000000000e+00 0.0000000000000000e+00  2.7551020408195543e+00 0.0000000000000000e+00 0.0000000000000000e+00  2.4489795918409065e+00 0.0000000000000000e+00 0.0000000000000000e+00  2.0204081632692521e+00 0.0000000000000000e+00 0.0000000000000000e+00  1.4693877551058563e+00 0.0000000000000000e+00 0.0000000000000000e+00  7.9591836734909216e-01 0.0000000000000000e+00 0.0000000000000000e+00  0.0000000000000000e+00 0.0000000000000000e+00 0.0000000000000000e+00  0.0000000000000000e+00 0.0000000000000000e+00 0.0000000000000000e+00  0.0000000000000000e+00 0.0000000000000000e+00 0.0000000000000000e+00  0.0000000000000000e+00 0.0000000000000000e+00 0.0000000000000000e+00  0.0000000000000000e+00 0.0000000000000000e+00 0.0000000000000000e+00  0.0000000000000000e+00 0.0000000000000000e+00 0.0000000000000000e+00  0.0000000000000000e+00 0.0000000000000000e+00 0.0000000000000000e+00  0.0000000000000000e+00 0.0000000000000000e+00 0.0000000000000000e+00  0.0000000000000000e+00 0.0000000000000000e+00 0.0000000000000000e+00  0.0000000000000000e+00 0.0000000000000000e+00 0.0000000000000000e+00  0.0000000000000000e+00 0.0000000000000000e+00 0.0000000000000000e+00  0.0000000000000000e+00 0.0000000000000000e+00 0.0000000000000000e+00  0.0000000000000000e+00 0.0000000000000000e+00 0.0000000000000000e+00  0.0000000000000000e+00 0.0000000000000000e+00 0.0000000000000000e+00  0.0000000000000000e+00 0.0000000000000000e+00 0.0000000000000000e+00  0.0000000000000000e+00 0.0000000000000000e+00 0.0000000000000000e+00  0.0000000000000000e+00 0.0000000000000000e+00 0.0000000000000000e+00  0.0000000000000000e+00 0.0000000000000000e+00 0.0000000000000000e+00  0.0000000000000000e+00 0.0000000000000000e+00 0.0000000000000000e+00  0.0000000000000000e+00 0.0000000000000000e+00 0.0000000000000000e+00  0.0000000000000000e+00 0.0000000000000000e+00 0.0000000000000000e+00  0.0000000000000000e+00 0.0000000000000000e+00 0.0000000000000000e+00  0.0000000000000000e+00 0.0000000000000000e+00 0.0000000000000000e+00  0.0000000000000000e+00 0.0000000000000000e+00 0.0000000000000000e+00  0.0000000000000000e+00 0.0000000000000000e+00 0.0000000000000000e+00  0.0000000000000000e+00 0.0000000000000000e+00 0.0000000000000000e+00  0.0000000000000000e+00 0.0000000000000000e+00 0.0000000000000000e+00  0.0000000000000000e+00 0.0000000000000000e+00 0.0000000000000000e+00  0.0000000000000000e+00 0.0000000000000000e+00 0.0000000000000000e+00  0.0000000000000000e+00 0.0000000000000000e+00 0.0000000000000000e+00  0.0000000000000000e+00 0.0000000000000000e+00 0.0000000000000000e+00  0.0000000000000000e+00 0.0000000000000000e+00 0.0000000000000000e+00  0.0000000000000000e+00 0.0000000000000000e+00 0.0000000000000000e+00  0.0000000000000000e+00 0.0000000000000000e+00 0.0000000000000000e+00  0.0000000000000000e+00 0.0000000000000000e+00 0.0000000000000000e+00  0.0000000000000000e+00 0.0000000000000000e+00 0.0000000000000000e+00  0.0000000000000000e+00 0.0000000000000000e+00 0.0000000000000000e+00  0.0000000000000000e+00 0.0000000000000000e+00 0.0000000000000000e+00  2.6636097844440005e+00 1.8811339679848941e-02 0.0000000000000000e+00  2.3247759674902655e+00 1.8878285769378160e-02 0.0000000000000000e+00  2.8345935358314680e+00 7.1569951973077764e-02 0.0000000000000000e+00  0.0000000000000000e+00 0.0000000000000000e+00 0.0000000000000000e+00  0.0000000000000000e+00 0.0000000000000000e+00 0.0000000000000000e+00  0.0000000000000000e+00 0.0000000000000000e+00 0.0000000000000000e+00  0.0000000000000000e+00 0.0000000000000000e+00 0.0000000000000000e+00  0.0000000000000000e+00 0.0000000000000000e+00 0.0000000000000000e+00  0.0000000000000000e+00 0.0000000000000000e+00 0.0000000000000000e+00  0.0000000000000000e+00 0.0000000000000000e+00 0.0000000000000000e+00  0.0000000000000000e+00 0.0000000000000000e+00 0.0000000000000000e+00  0.0000000000000000e+00 0.0000000000000000e+00 0.0000000000000000e+00  0.0000000000000000e+00 0.0000000000000000e+00 0.0000000000000000e+00  0.0000000000000000e+00 0.0000000000000000e+00 0.0000000000000000e+00  0.0000000000000000e+00 0.0000000000000000e+00 0.0000000000000000e+00  0.0000000000000000e+00 0.0000000000000000e+00 0.0000000000000000e+00  0.0000000000000000e+00 0.0000000000000000e+00 0.0000000000000000e+00  0.0000000000000000e+00 0.0000000000000000e+00 0.0000000000000000e+00  0.0000000000000000e+00 0.0000000000000000e+00 0.0000000000000000e+00  0.0000000000000000e+00 0.0000000000000000e+00 0.0000000000000000e+00  0.0000000000000000e+00 0.0000000000000000e+00 0.0000000000000000e+00  0.0000000000000000e+00 0.0000000000000000e+00 0.0000000000000000e+00  0.0000000000000000e+00 0.0000000000000000e+00 0.0000000000000000e+00  0.0000000000000000e+00 0.0000000000000000e+00 0.0000000000000000e+00  0.0000000000000000e+00 0.0000000000000000e+00 0.0000000000000000e+00  0.0000000000000000e+00 0.0000000000000000e+00 0.0000000000000000e+00  0.0000000000000000e+00 0.0000000000000000e+00 0.0000000000000000e+00  0.0000000000000000e+00 0.0000000000000000e+00 0.0000000000000000e+00  0.0000000000000000e+00 0.0000000000000000e+00 0.0000000000000000e+00  0.0000000000000000e+00 0.0000000000000000e+00 0.0000000000000000e+00  0.0000000000000000e+00 0.0000000000000000e+00 0.0000000000000000e+00  0.0000000000000000e+00 0.0000000000000000e+00 0.0000000000000000e+00  0.0000000000000000e+00 0.0000000000000000e+00 0.0000000000000000e+00  0.0000000000000000e+00 0.0000000000000000e+00 0.0000000000000000e+00  0.0000000000000000e+00 0.0000000000000000e+00 0.0000000000000000e+00  0.0000000000000000e+00 0.0000000000000000e+00 0.0000000000000000e+00  0.0000000000000000e+00 0.0000000000000000e+00 0.0000000000000000e+00  0.0000000000000000e+00 0.0000000000000000e+00 0.0000000000000000e+00  0.0000000000000000e+00 0.0000000000000000e+00 0.0000000000000000e+00  0.0000000000000000e+00 0.0000000000000000e+00 0.0000000000000000e+00  0.0000000000000000e+00 0.0000000000000000e+00 0.0000000000000000e+00  0.0000000000000000e+00 0.0000000000000000e+00 0.0000000000000000e+00  0.0000000000000000e+00 0.0000000000000000e+00 0.0000000000000000e+00  0.0000000000000000e+00 0.0000000000000000e+00 0.0000000000000000e+00  0.0000000000000000e+00 0.0000000000000000e+00 0.0000000000000000e+00  0.0000000000000000e+00 0.0000000000000000e+00 0.0000000000000000e+00  0.0000000000000000e+00 0.0000000000000000e+00 0.0000000000000000e+00  0.0000000000000000e+00 0.0000000000000000e+00 0.0000000000000000e+00  0.0000000000000000e+00 0.0000000000000000e+00 0.0000000000000000e+00  0.0000000000000000e+00 0.0000000000000000e+00 0.0000000000000000e+00  0.0000000000000000e+00 0.0000000000000000e+00 0.0000000000000000e+00  0.0000000000000000e+00 0.0000000000000000e+00 0.0000000000000000e+00  0.0000000000000000e+00 0.0000000000000000e+00 0.0000000000000000e+00  0.0000000000000000e+00 0.0000000000000000e+00 0.0000000000000000e+00  0.0000000000000000e+00 0.0000000000000000e+00 0.0000000000000000e+00  0.0000000000000000e+00 0.0000000000000000e+00 0.0000000000000000e+00  0.0000000000000000e+00 0.0000000000000000e+00 0.0000000000000000e+00  0.0000000000000000e+00 0.0000000000000000e+00 0.0000000000000000e+00  0.0000000000000000e+00 0.0000000000000000e+00 0.0000000000000000e+00  0.0000000000000000e+00 0.0000000000000000e+00 0.0000000000000000e+00  0.0000000000000000e+00 0.0000000000000000e+00 0.0000000000000000e+00  0.0000000000000000e+00 0.0000000000000000e+00 0.0000000000000000e+00  0.0000000000000000e+00 0.0000000000000000e+00 0.0000000000000000e+00  0.0000000000000000e+00 0.0000000000000000e+00 0.0000000000000000e+00  0.0000000000000000e+00 0.0000000000000000e+00 0.0000000000000000e+00  0.0000000000000000e+00 0.0000000000000000e+00 0.0000000000000000e+00  0.0000000000000000e+00 0.0000000000000000e+00 0.0000000000000000e+00  0.0000000000000000e+00 0.0000000000000000e+00 0.0000000000000000e+00  0.0000000000000000e+00 0.0000000000000000e+00 0.0000000000000000e+00  0.0000000000000000e+00 0.0000000000000000e+00 0.0000000000000000e+00  0.0000000000000000e+00 0.0000000000000000e+00 0.0000000000000000e+00  0.0000000000000000e+00 0.0000000000000000e+00 0.0000000000000000e+00  0.0000000000000000e+00 0.0000000000000000e+00 0.0000000000000000e+00  0.0000000000000000e+00 0.0000000000000000e+00 0.0000000000000000e+00  0.0000000000000000e+00 0.0000000000000000e+00 0.0000000000000000e+00  0.0000000000000000e+00 0.0000000000000000e+00 0.0000000000000000e+00  0.0000000000000000e+00 0.0000000000000000e+00 0.0000000000000000e+00  0.0000000000000000e+00 0.0000000000000000e+00 0.0000000000000000e+00  0.0000000000000000e+00 0.0000000000000000e+00 0.0000000000000000e+00  0.0000000000000000e+00 0.0000000000000000e+00 0.0000000000000000e+00  0.0000000000000000e+00 0.0000000000000000e+00 0.0000000000000000e+00  6.7319819865247592e-11 -2.1673028782370092e-10 0.0000000000000000e+00  1.0249983490300574e-10 -3.5225008012308405e-10 0.0000000000000000e+00  1.4753244321444882e-10 -5.4588203517947239e-10 0.0000000000000000e+00  1.8005857700908205e-10 -7.7222351013371351e-10 0.0000000000000000e+00  2.1890776786094264e-10 -1.0528660921773626e-09 0.0000000000000000e+00  2.3521685809326366e-10 -1.4062472405726469e-09 0.0000000000000000e+00  2.7405894875988778e-10 -1.6875121281568206e-09 0.0000000000000000e+00  2.8205976281067806e-10 -2.1670035134512694e-09 0.0000000000000000e+00  2.9398356496417213e-10 -2.5826081475310593e-09 0.0000000000000000e+00  3.1242072107632674e-10 -3.0590331760903739e-09 0.0000000000000000e+00  3.1075852786415073e-10 -3.5601438588791884e-09 0.0000000000000000e+00  3.2297668342450907e-10 -4.0887988099611652e-09 0.0000000000000000e+00  3.0687019670003709e-10 -4.6375023984883011e-09 0.0000000000000000e+00  3.2788263863044935e-10 -5.2138439981373269e-09 0.0000000000000000e+00  3.0334154770148659e-10 -5.7909247436031803e-09 0.0000000000000000e+00  2.9895034423587534e-10 -6.4133185879015843e-09 0.0000000000000000e+00  2.9168473464317452e-10 -7.0237106903714648e-09 0.0000000000000000e+00  2.7513983681075661e-10 -7.6655781966564666e-09 0.0000000000000000e+00  2.6425692391574486e-10 -8.3066609346466757e-09 0.0000000000000000e+00  2.4264810459045225e-10 -8.9587002837851703e-09 0.0000000000000000e+00  2.2829212704631923e-10 -9.6207512221804997e-09 0.0000000000000000e+00  1.9857729524999373e-10 -1.0243665500140338e-08 0.0000000000000000e+00  2.0283000732099935e-10 -1.1076374817442084e-08 0.0000000000000000e+00  1.5871462407410612e-10 -1.1598696299840398e-08 0.0000000000000000e+00  1.4013687991229058e-10 -1.2327196075394297e-08 0.0000000000000000e+00  1.1722630583684133e-10 -1.2996006962405212e-08 0.0000000000000000e+00  9.2656746455761604e-11 -1.3702351312461870e-08 0.0000000000000000e+00  6.8071444391121338e-11 -1.4384955493998216e-08 0.0000000000000000e+00  4.2410387725628091e-11 -1.5080784012078407e-08 0.0000000000000000e+00  1.6614983607904256e-11 -1.5780141308684817e-08 0.0000000000000000e+00  -9.9825325105918091e-12 -1.6470037940194504e-08 0.0000000000000000e+00  -3.6636655652243587e-11 -1.7167552021060993e-08 0.0000000000000000e+00  -6.3897925281742969e-11 -1.7871859543247255e-08 0.0000000000000000e+00  -9.1587282568758053e-11 -1.8549822495123580e-08 0.0000000000000000e+00  -1.1933174632175592e-10 -1.9252332354057376e-08 0.0000000000000000e+00  -1.4774575385921761e-10 -1.9937715142895376e-08 0.0000000000000000e+00  -1.7634196731843001e-10 -2.0629584272537049e-08 0.0000000000000000e+00  -2.0543547428332335e-10 -2.1313657545962787e-08 0.0000000000000000e+00  -2.3565639918141719e-10 -2.1977610067889795e-08 0.0000000000000000e+00  -2.6543763272395741e-10 -2.2652478125726649e-08 0.0000000000000000e+00  -3.0351255331807963e-10 -2.3203532739478368e-08 0.0000000000000000e+00  -3.0447783310752976e-10 -2.4462888803160819e-08 0.0000000000000000e+00  -3.7264924483043159e-10 -2.4416187701360527e-08 0.0000000000000000e+00  -4.0788977029228694e-10 -2.5055272397757949e-08 0.0000000000000000e+00  -4.4261733946154301e-10 -2.5847024418133775e-08 0.0000000000000000e+00  -3.9827557787265008e-10 -2.5788389505891285e-08 0.0000000000000000e+00  -9.2389303931893102e-10 -2.7044299572016867e-08 0.0000000000000000e+00  -1.8681052923510131e-09 -2.6425048545029553e-08 0.0000000000000000e+00  -2.3438086940981474e-09 -2.5916685652155778e-08 0.0000000000000000e+00  -2.2407349356686723e-09 -2.5635029987401064e-08 0.0000000000000000e+00  -2.2456817503971515e-09 -2.5163123345572374e-08 0.0000000000000000e+00  -2.2126606396590130e-09 -2.4313617249606732e-08 0.0000000000000000e+00  -2.2150718716478444e-09 -2.4374334836244435e-08 0.0000000000000000e+00  -2.1678747740390773e-09 -2.3120905981876902e-08 0.0000000000000000e+00  -2.1510822276593880e-09 -2.2667875639674651e-08 0.0000000000000000e+00  -2.1229938125599285e-09 -2.1963290883370246e-08 0.0000000000000000e+00  -2.0961097903392092e-09 -2.1285716710268782e-08 0.0000000000000000e+00  -2.0685354657667269e-09 -2.0599484953611507e-08 0.0000000000000000e+00  -2.0406563720672576e-09 -1.9911835906276500e-08 0.0000000000000000e+00  -2.0122124631430607e-09 -1.9216879834704853e-08 0.0000000000000000e+00  -1.9836242647783558e-09 -1.8520779530959205e-08 0.0000000000000000e+00  -1.9544052905910061e-09 -1.7822638752114945e-08 0.0000000000000000e+00  -1.9252901461540338e-09 -1.7124507037971059e-08 0.0000000000000000e+00  -1.8950862195116434e-09 -1.6425463622535244e-08 0.0000000000000000e+00  -1.8654290213914717e-09 -1.5729180603106791e-08 0.0000000000000000e+00  -1.8339848621042394e-09 -1.5031262175095850e-08 0.0000000000000000e+00  -1.8035484499596950e-09 -1.4333943138784636e-08 0.0000000000000000e+00  -1.7705304851484740e-09 -1.3638347436704144e-08 0.0000000000000000e+00  -1.7390230485153475e-09 -1.2943985301663179e-08 0.0000000000000000e+00  -1.7048407508716177e-09 -1.2262033369125876e-08 0.0000000000000000e+00  -1.6656858075771456e-09 -1.1524969299007305e-08 0.0000000000000000e+00  -1.6448211292243234e-09 -1.0985998890213622e-08 0.0000000000000000e+00  -1.5900969337565166e-09 -1.0161604659741589e-08 0.0000000000000000e+00  -1.5575715342915586e-09 -9.5152034708288519e-09 0.0000000000000000e+00  -1.5157275150109642e-09 -8.8642506794589792e-09 0.0000000000000000e+00  -1.4750289082909257e-09 -8.1991256615428876e-09 0.0000000000000000e+00  -1.4294409065692635e-09 -7.5695853661202962e-09 0.0000000000000000e+00  -1.3848588265399205e-09 -6.9255039504548519e-09 0.0000000000000000e+00  -1.3336851018397742e-09 -6.3181421162424992e-09 0.0000000000000000e+00  -1.2815290006972964e-09 -5.6984142145511952e-09 0.0000000000000000e+00  -1.2427001975346216e-09 -5.1283006348239691e-09 0.0000000000000000e+00  -1.1656414120100861e-09 -4.5449260002901823e-09 0.0000000000000000e+00  -1.1133321145004827e-09 -4.0057546830981209e-09 0.0000000000000000e+00  -1.0444422059500731e-09 -3.4742030132605067e-09 0.0000000000000000e+00  -9.7889963189067350e-10 -2.9760113423740713e-09 0.0000000000000000e+00  -9.0029832517822771e-10 -2.5046458566022661e-09 0.0000000000000000e+00  -8.2545986550919489e-10 -2.0773887707338946e-09 0.0000000000000000e+00  -7.5224552513271873e-10 -1.5988761724053069e-09 0.0000000000000000e+00  -6.5043470533106980e-10 -1.3122155644139734e-09 0.0000000000000000e+00  -5.6617216181319254e-10 -9.7043677420944345e-10 0.0000000000000000e+00  -4.6095568908907651e-10 -6.9019698732741841e-10 0.0000000000000000e+00  -3.6113381895624916e-10 -4.4863796738669710e-10 0.0000000000000000e+00  -2.4424267560023818e-10 -2.6166476011946873e-10 0.0000000000000000e+00  -1.3430940550394708e-10 -1.5269888130896325e-10 0.0000000000000000e+00  -6.3791915886682409e-11 -1.0924434610305161e-10 0.0000000000000000e+00  -1.3355284742511089e-09 -2.7245793553717681e-08 0.0000000000000000e+00  -1.2840438193402483e-09 -2.5774070216569419e-08 0.0000000000000000e+00  -1.2037288597947306e-09 -2.3584444301542608e-08 0.0000000000000000e+00  -1.2486959990181550e-10 -4.5796534655739443e-10 0.0000000000000000e+00  -1.1590927259393010e-09 -2.2189602137546919e-08 0.0000000000000000e+00  -1.9318447526403820e-10 -1.0054691140445532e-09 0.0000000000000000e+00  -1.1025654210006744e-09 -2.0749969377985495e-08 0.0000000000000000e+00  -2.9629893767709944e-10 -2.2413777388168904e-09 0.0000000000000000e+00  -3.4951211173493224e-10 -3.1954260080332158e-09 0.0000000000000000e+00  -1.0460873498280745e-09 -1.9307542727576267e-08 0.0000000000000000e+00  -5.1396001256952417e-10 -6.1015068650780564e-09 0.0000000000000000e+00  -9.3307204483969661e-10 -1.6424686104715774e-08 0.0000000000000000e+00  -4.1855405816563027e-10 -4.2359230107969041e-09 0.0000000000000000e+00  -5.6037855764605189e-10 -7.3555592700844572e-09 0.0000000000000000e+00  -8.7646994995420703e-10 -1.4988671099420033e-08 0.0000000000000000e+00  -9.8960058566675410e-10 -1.7865276822099434e-08 0.0000000000000000e+00  -6.1881158135280309e-10 -8.6834164653087791e-09 0.0000000000000000e+00  -8.1977166002372985e-10 -1.3559879880254430e-08 0.0000000000000000e+00  -6.8669430790895783e-10 -9.9876825403500717e-09 0.0000000000000000e+00  -7.5193438732924444e-10 -1.2168015853016785e-08 0.0000000000000000e+00  -7.1631789682017433e-10 -1.1103076661317454e-08 0.0000000000000000e+00  -4.5144307640462903e-10 -5.1094170909596987e-09 0.0000000000000000e+00  -1.2603009339098390e-09 -2.5057445203968634e-08 0.0000000000000000e+00  -2.3626195322149292e-10 -1.5162516326984443e-09 0.0000000000000000e+00  -1.6740263013475241e-09 -2.7070112456254876e-08 0.0000000000000000e+00  -1.7203775965069451e-10 -1.7821806173965039e-10 0.0000000000000000e+00  -1.4213692672438291e-09 -2.1809060089834299e-08 0.0000000000000000e+00  -1.4784958330210593e-09 -2.3293432871566354e-08 0.0000000000000000e+00  -2.4871235701648348e-11 -6.6869754053856311e-10 0.0000000000000000e+00  -1.2280305163419771e-10 -2.6658962292062338e-09 0.0000000000000000e+00  -1.2496945163321711e-09 -1.7370290732318226e-08 0.0000000000000000e+00  -1.3641898361906380e-09 -2.0323950070584693e-08 0.0000000000000000e+00  -2.7172505563684470e-10 -6.7549368114470750e-09 0.0000000000000000e+00  -1.1919756641804262e-09 -1.5901237015799177e-08 0.0000000000000000e+00  -1.6180077170733859e-10 -3.7162583320847350e-09 0.0000000000000000e+00  -3.2026167512584861e-10 -8.0839211420487912e-09 0.0000000000000000e+00  -1.1337075666376129e-09 -1.4440318746487140e-08 0.0000000000000000e+00  -1.3070310339325079e-09 -1.8844786382264353e-08 0.0000000000000000e+00  -3.1201019323601773e-10 -9.4491583969043675e-09 0.0000000000000000e+00  -1.0744425251547628e-09 -1.2988318945085328e-08 0.0000000000000000e+00  -2.3124353732978107e-11 -2.1495460620422718e-11 0.0000000000000000e+00  -4.6544162401997881e-11 3.3736952707444749e-13 0.0000000000000000e+00  -1.2075873439358591e-09 -2.8142076027815