<?xml version="1.0"?>
<VTKFile type="UnstructuredGrid"  version="0.1"  >
<UnstructuredGrid>
<Piece  NumberOfPoints="1419" NumberOfCells="2698">
<Points>
<DataArray  type="Float64"  NumberOfComponents="3"  format="ascii">0 0 0  0 0.41 0  2.5 0 0  2.5 0.41 0  0.6 0.19 0  0.6 0.21 0  0.25 0.2 0  0.15 0.2 0  0.2489897948556636 0.21 0  0.2489897948556636 0.19 0  0.6 0.2 0  0 0.3807142857143437 0  0 0.3514285714286952 0  0 0.3221428571430699 0  0 0.29285714285744 0  0 0.2635714285718054 0  0 0.2342857142861561 0  0 0.2050000000005308 0  0 0.175714285714732 0  0 0.1464285714289574 0  0 0.1171428571431897 0  0 0.08785714285737878 0  0 0.05857142857161107 0  0 0.02928571428580012 0  0.03015443760436003 0 0  0.06140001986583606 0 0  0.09377624077125973 0 0  0.1273239957535082 0 0  0.1620856860351972 0 0  0.1981052433264291 0 0  0.235428184091502 0 0  0.2741016576309132 0 0  0.3141745521465447 0 0  0.3556974926295285 0 0  0.3987229542472677 0 0  0.4433053055141081 0 0  0.4895008759286886 0 0  0.5373680609405097 0 0  0.5869673343216626 0 0  0.6383613676634521 0 0  0.6916151138468254 0 0  0.7467958595648856 0 0  0.8039733463919316 0 0  0.8632198139502143 0 0  0.9246101326867038 0 0  0.9882218810934433 0 0  1.054135445558498 0 0  1.122434100542598 0 0  1.193204177141305 0 0  1.266535089879536 0 0  1.342519516046404 0 0  1.421253448503939 0 0  1.502836389106271 0 0  1.587371439758838 0 0  1.674965418777374 0 0  1.765729001825544 0 0  1.859776908880082 0 0  1.957227977487062 0 0  2.058205329869943 0 0  2.162836591189951 0 0  2.271253957290865 0 0  2.383594446803425 0 0  2.5 0.1024999999997612 0  2.5 0.2049999999994743 0  2.5 0.3074999999997183 0  2.383594446803656 0.41 0  2.271253957291315 0.41 0  2.162836591190598 0.41 0  2.058205329870775 0.41 0  1.957227977488067 0.41 0  1.859776908881246 0.41 0  1.765729001826854 0.41 0  1.674965418778818 0.41 0  1.58737143976041 0.41 0  1.502836389107956 0.41 0  1.421253448505726 0.41 0  1.342519516048286 0.41 0  1.266535089881505 0.41 0  1.193204177143353 0.41 0  1.122434100544716 0.41 0  1.05413544556068 0.41 0  0.9882218810956305 0.41 0  0.9246101326886647 0.41 0  0.8632198139519631 0.41 0  0.8039733463934788 0.41 0  0.7467958595662458 0.41 0  0.6916151138480078 0.41 0  0.6383613676644679 0.41 0  0.5869673343225223 0.41 0  0.5373680609412221 0.41 0  0.4895008759292634 0.41 0  0.4433053055145528 0.41 0  0.3987229542475914 0.41 0  0.3556974926297398 0.41 0  0.3141745521466497 0.41 0  0.2741016576310038 0.41 0  0.2354281840915826 0.41 0  0.1981052433265003 0.41 0  0.1620856860352591 0.41 0  0.1273239957535623 0.41 0  0.09377624077128965 0.41 0  0.06140001986584975 0.41 0  0.03015443760436654 0.41 0  0.2497468076502589 0.2050254481002335 0  0.2497468076502614 0.1949745518997913 0  0.2469965252529372 0.1829317073451959 0  0.2439893735792749 0.1762316384219906 0  0.2400332147834255 0.1700443375285386 0  0.2352133972704371 0.1645032867342007 0  0.2296339016332438 0.1597280261969788 0  0.2234150974217223 0.1558215752574715 0  0.2166911463437691 0.1528682099456123 0  0.2096071079204251 0.1509316448471593 0  0.2023158100364996 0.1500536585536553 0  0.194974551899914 0.1502531923497262 0  0.1877417105387872 0.1515259415822739 0  0.1807733240461124 0.153844448527136 0  0.1742197252835808 0.15715869474974 0  0.1682222986673531 0.1613971801805478 0  0.162910430003803 0.1664684656256651 0  0.1583987151779087 0.1722631454351573 0  0.1547844879126891 0.178656207771761 0  0.1521457199348551 0.1855097315605723 0  0.1505393388476355 0.1926758619366523 0  0.1505393388476328 0.2073241380633295 0  0.1521457199348437 0.2144902684393899 0  0.1547844879126531 0.221343792228163 0  0.1583987151778488 0.2277368545647528 0  0.1629104300036858 0.2335315343742052 0  0.1682222986671726 0.2386028198193036 0  0.1742197252833576 0.2428413052501257 0  0.1807733240458683 0.2461555514727623 0  0.1877417105384929 0.2484740584176516 0  0.1949745518995776 0.2497468076502398 0  0.202315810036185 0.2499463414463592 0  0.2096071079201568 0.2490683551528932 0  0.2166911463435495 0.2471317900544655 0  0.2234150974215506 0.2441784247426195 0  0.2296339016331197 0.2402719738031125 0  0.2352133972703547 0.2354967132658811 0  0.2400332147833751 0.2299556624715287 0  0.2439893735792577 0.2237683615780412 0  0.246996525252926 0.2170682926548348 0  0.25645809709277 0.21 0  0.2639263993298655 0.21 0  0.271394701566961 0.21 0  0.2788630038040554 0.21 0  0.2863313060411479 0.21 0  0.2937996082782405 0.21 0  0.301267910515333 0.21 0  0.3087362127524279 0.21 0  0.3162045149895234 0.21 0  0.3236728172265972 0.21 0  0.3311411194636928 0.21 0  0.3386094217007701 0.21 0  0.3460777239378666 0.21 0  0.3535460261749672 0.21 0  0.3610143284120516 0.21 0  0.3684826306491596 0.21 0  0.3759509328862226 0.21 0  0.383419235123329 0.21 0  0.3908875373604028 0.21 0  0.3983558395975142 0.21 0  0.4058241418345938 0.21 0  0.4132924440716992 0.21 0  0.4207607463087888 0.21 0  0.4282290485459029 0.21 0  0.4356973507830418 0.21 0  0.4431656530201649 0.21 0  0.4506339552573136 0.21 0  0.4581022574944306 0.21 0  0.4655705597315852 0.21 0  0.4730388619686996 0.21 0  0.480507164205851 0.21 0  0.4879754664429498 0.21 0  0.4954437686800938 0.21 0  0.502912070917267 0.21 0  0.5103803731544119 0.21 0  0.5178486753915261 0.21 0  0.5253169776286404 0.21 0  0.5327852798657868 0.21 0  0.5402535821029386 0.21 0  0.54772188434007 0.21 0  0.5551901865771842 0.21 0  0.5626584888143201 0.21 0  0.5701267910514778 0.21 0  0.5775950932886138 0.21 0  0.5850633955257281 0.21 0  0.5925316977628483 0.21 0  0.6 0.2050000000000054 0  0.6 0.1950000000000217 0  0.5925316977628897 0.19 0  0.5850633955257988 0.19 0  0.5775950932887378 0.19 0  0.5701267910515998 0.19 0  0.5626584888145268 0.19 0  0.5551901865773963 0.19 0  0.547721884340339 0.19 0  0.5402535821032429 0.19 0  0.5327852798661811 0.19 0  0.5253169776290537 0.19 0  0.5178486753919799 0.19 0  0.5103803731549078 0.19 0  0.502912070917822 0.19 0  0.4954437686807294 0.19 0  0.4879754664436223 0.19 0  0.4805071642065402 0.19 0  0.4730388619694271 0.19 0  0.4655705597323621 0.19 0  0.4581022574952563 0.19 0  0.4506339552581777 0.19 0  0.4431656530210671 0.19 0  0.4356973507839815 0.19 0  0.4282290485468779 0.19 0  0.4207607463097617 0.19 0  0.4132924440726327 0.19 0  0.4058241418354857 0.19 0  0.3983558395983636 0.19 0  0.3908875373612097 0.19 0  0.3834192351240934 0.19 0  0.3759509328869369 0.19 0  0.3684826306498175 0.19 0  0.361014328412667 0.19 0  0.3535460261755617 0.19 0  0.3460777239384295 0.19 0  0.3386094217012945 0.19 0  0.3311411194641595 0.19 0  0.3236728172270245 0.19 0  0.3162045149898895 0.19 0  0.3087362127527544 0.19 0  0.3012679105156187 0.19 0  0.2937996082784807 0.19 0  0.2863313060413428 0.19 0  0.2788630038042048 0.19 0  0.2713947015670686 0.19 0  0.2639263993299336 0.19 0  0.2564580970927985 0.19 0  0.2607803159922026 0.2000727136295815 0  0.5887803774232762 0.2001272386983733 0  0.5745072403740523 0.2002044435018727 0  0.5511891430099709 0.2001122610077113 0  0.2751288526855082 0.20000000000002 0  0.5365194309847112 0.1999999999999436 0  0.2894621222999649 0.1998691686390484 0  0.5215828265105155 0.1999999999999228 0  0.3127789816668748 0.1998657885438805 0  0.3274069683451451 0.2000000000000796 0  0.5066462220363641 0.199999999999908 0  0.3650630746574081 0.199866017807523 0  0.476773013087985 0.1999999999998713 0  0.3417402379596385 0.1998691686391011 0  0.3796850840047755 0.200000000000134 0  0.4618364086138087 0.1999999999998546 0  0.4917096175621762 0.1999999999998808 0  0.3946216884789568 0.2000000000001512 0  0.446899804139621 0.1999999999998389 0  0.4089549580935208 0.1998691686391595 0  0.4322718174608562 0.200127451265745 0  0.4201487168029707 0.1999966199048527 0  0.3528922713220932 0.2000185703532356 0  0.5633122436674589 0.1999814296467508 0  0.3006558810093873 0.1999966199048318 0  0.5815926498168407 0.1966545283159175 0  0.2677053789419034 0.1964246479135325 0  0.5290511287476175 0.1970915826863981 0  0.5439877332217911 0.197091582686394 0  0.2825131256993216 0.2035478995978015 0  0.3199386661080599 0.202908417313604 0  0.4842413153250809 0.1970915826863873 0  0.5141145242734466 0.1970915826863843 0  0.3722167817676917 0.2029084173136195 0  0.4693047108508938 0.1970915826863783 0  0.3348752705822316 0.202908417313609 0  0.3871533862418661 0.2029084173136212 0  0.4543681063767183 0.1970915826863795 0  0.4991779197992749 0.1970915826863902 0  0.4020059614928624 0.203547899597858 0  0.4394315019025246 0.1970915826863714 0  0.2550657455369551 0.2034088125358657 0  0.2548908499171161 0.1966940311614271 0  0.5946539510196798 0.2024302972968126 0  0.267698176732111 0.2039977513680092 0  0.4261685417851465 0.196409292431739 0  0.3590076176283495 0.196411355804271 0  0.5571672426447437 0.2036011176410121 0  0.3066757059912147 0.1964092924317024 0  0.594380730180568 0.1966558399668133 0  0.4842413153245942 0.2040749161535287 0  0.4693047108503577 0.2040749161535231 0  0.3871533862424271 0.1959250838464788 0  0.372246743208829 0.1959123236376545 0  0.5141145242731028 0.2040749161535395 0  0.4543681063761134 0.2040749161535186 0  0.4019979587101454 0.1959834479682427 0  0.4394608940728603 0.2040870543693135 0  0.5439623148931173 0.2040856076781014 0  0.5290511287473298 0.2040749161535501 0  0.4991779197988497 0.2040749161535382 0  0.3347912413592433 0.1959225448935183 0  0.3199680582793816 0.1959123018030061 0  0.2825051229162361 0.1959834479681729 0  0.3590471196690275 0.2036304442587945 0  0.5571594006495384 0.1963685282145804 0  0.3067669986803285 0.203627750582736 0  0.4262598344738712 0.2036568242185335 0  0.5814408164431408 0.2041285596160068 0  0.5688286748170428 0.1961819304477386 0  0.4145905603063645 0.2038180695522843 0  0.3473758401724931 0.2038180695522752 0  0.2950977245128307 0.2038180695522663 0  0.5688286748170693 0.203818069552238 0  0.2950977245127906 0.1961819304477774 0  0.3473758401723931 0.1961819304478349 0  0.4145905603061963 0.1961819304479011 0  0.2601812407614425 0.2056861609747042
[...]
<PointData  Vectors="f_40-0"> 
<DataArray  type="Float64"  Name="f_40-0"  NumberOfComponents="3" format="ascii">0.0000000000000000e+00 0.0000000000000000e+00 0.0000000000000000e+00  0.0000000000000000e+00 0.0000000000000000e+00 0.0000000000000000e+00  0.0000000000000000e+00 0.0000000000000000e+00 0.0000000000000000e+00  0.0000000000000000e+00 0.0000000000000000e+00 0.0000000000000000e+00  2.4816369102180224e-06 9.0300903664110351e-05 0.0000000000000000e+00  -4.1631002623152965e-06 9.0236143044331488e-05 0.0000000000000000e+00  0.0000000000000000e+00 0.0000000000000000e+00 0.0000000000000000e+00  0.0000000000000000e+00 0.0000000000000000e+00 0.0000000000000000e+00  0.0000000000000000e+00 0.0000000000000000e+00 0.0000000000000000e+00  0.0000000000000000e+00 0.0000000000000000e+00 0.0000000000000000e+00  -8.4076093182184971e-07 9.0253597920252879e-05 0.0000000000000000e+00  7.9591836734548405e-01 0.0000000000000000e+00 0.0000000000000000e+00  1.4693877550994523e+00 0.0000000000000000e+00 0.0000000000000000e+00  2.0204081632617479e+00 0.0000000000000000e+00 0.0000000000000000e+00  2.4489795918330071e+00 0.0000000000000000e+00 0.0000000000000000e+00  2.7551020408131754e+00 0.0000000000000000e+00 0.0000000000000000e+00  2.9387755102022344e+00 0.0000000000000000e+00 0.0000000000000000e+00  3.0000000000000004e+00 0.0000000000000000e+00 0.0000000000000000e+00  2.9387755102059474e+00 0.0000000000000000e+00 0.0000000000000000e+00  2.7551020408195543e+00 0.0000000000000000e+00 0.0000000000000000e+00  2.4489795918409065e+00 0.0000000000000000e+00 0.0000000000000000e+00  2.0204081632692521e+00 0.0000000000000000e+00 0.0000000000000000e+00  1.4693877551058563e+00 0.0000000000000000e+00 0.0000000000000000e+00  7.9591836734909216e-01 0.0000000000000000e+00 0.0000000000000000e+00  0.0000000000000000e+00 0.0000000000000000e+00 0.0000000000000000e+00  0.0000000000000000e+00 0.0000000000000000e+00 0.0000000000000000e+00  0.0000000000000000e+00 0.0000000000000000e+00 0.0000000000000000e+00  0.0000000000000000e+00 0.0000000000000000e+00 0.0000000000000000e+00  0.0000000000000000e+00 0.0000000000000000e+00 0.0000000000000000e+00  0.0000000000000000e+00 0.0000000000000000e+00 0.0000000000000000e+00  0.0000000000000000e+00 0.0000000000000000e+00 0.0000000000000000e+00  0.0000000000000000e+00 0.0000000000000000e+00 0.0000000000000000e+00  0.0000000000000000e+00 0.0000000000000000e+00 0.0000000000000000e+00  0.0000000000000000e+00 0.0000000000000000e+00 0.0000000000000000e+00  0.0000000000000000e+00 0.0000000000000000e+00 0.0000000000000000e+00  0.0000000000000000e+00 0.0000000000000000e+00 0.0000000000000000e+00  0.0000000000000000e+00 0.0000000000000000e+00 0.0000000000000000e+00  0.0000000000000000e+00 0.0000000000000000e+00 0.0000000000000000e+00  0.0000000000000000e+00 0.0000000000000000e+00 0.0000000000000000e+00  0.0000000000000000e+00 0.0000000000000000e+00 0.0000000000000000e+00  0.0000000000000000e+00 0.0000000000000000e+00 0.0000000000000000e+00  0.0000000000000000e+00 0.0000000000000000e+00 0.0000000000000000e+00  0.0000000000000000e+00 0.0000000000000000e+00 0.0000000000000000e+00  0.0000000000000000e+00 0.0000000000000000e+00 0.0000000000000000e+00  0.0000000000000000e+00 0.0000000000000000e+00 0.0000000000000000e+00  0.0000000000000000e+00 0.0000000000000000e+00 0.0000000000000000e+00  0.0000000000000000e+00 0.0000000000000000e+00 0.0000000000000000e+00  0.0000000000000000e+00 0.0000000000000000e+00 0.0000000000000000e+00  0.0000000000000000e+00 0.0000000000000000e+00 0.0000000000000000e+00  0.0000000000000000e+00 0.0000000000000000e+00 0.0000000000000000e+00  0.0000000000000000e+00 0.0000000000000000e+00 0.0000000000000000e+00  0.0000000000000000e+00 0.0000000000000000e+00 0.0000000000000000e+00  0.0000000000000000e+00 0.0000000000000000e+00 0.0000000000000000e+00  0.0000000000000000e+00 0.0000000000000000e+00 0.0000000000000000e+00  0.0000000000000000e+00 0.0000000000000000e+00 0.0000000000000000e+00  0.0000000000000000e+00 0.0000000000000000e+00 0.0000000000000000e+00  0.0000000000000000e+00 0.0000000000000000e+00 0.0000000000000000e+00  0.0000000000000000e+00 0.0000000000000000e+00 0.0000000000000000e+00  0.0000000000000000e+00 0.0000000000000000e+00 0.0000000000000000e+00  0.0000000000000000e+00 0.0000000000000000e+00 0.0000000000000000e+00  0.0000000000000000e+00 0.0000000000000000e+00 0.0000000000000000e+00  0.0000000000000000e+00 0.0000000000000000e+00 0.0000000000000000e+00  2.6675119635599320e+00 1.3269073066265454e-02 0.0000000000000000e+00  2.3268120811589008e+00 1.5333674213746205e-02 0.0000000000000000e+00  2.8271474992995733e+00 6.7136944261851517e-02 0.0000000000000000e+00  0.0000000000000000e+00 0.0000000000000000e+00 0.0000000000000000e+00  0.0000000000000000e+00 0.0000000000000000e+00 0.0000000000000000e+00  0.0000000000000000e+00 0.0000000000000000e+00 0.0000000000000000e+00  0.0000000000000000e+00 0.0000000000000000e+00 0.0000000000000000e+00  0.0000000000000000e+00 0.0000000000000000e+00 0.0000000000000000e+00  0.0000000000000000e+00 0.0000000000000000e+00 0.0000000000000000e+00  0.0000000000000000e+00 0.0000000000000000e+00 0.0000000000000000e+00  0.0000000000000000e+00 0.0000000000000000e+00 0.0000000000000000e+00  0.0000000000000000e+00 0.0000000000000000e+00 0.0000000000000000e+00  0.0000000000000000e+00 0.0000000000000000e+00 0.0000000000000000e+00  0.0000000000000000e+00 0.0000000000000000e+00 0.0000000000000000e+00  0.0000000000000000e+00 0.0000000000000000e+00 0.0000000000000000e+00  0.0000000000000000e+00 0.0000000000000000e+00 0.0000000000000000e+00  0.0000000000000000e+00 0.0000000000000000e+00 0.0000000000000000e+00  0.0000000000000000e+00 0.0000000000000000e+00 0.0000000000000000e+00  0.0000000000000000e+00 0.0000000000000000e+00 0.0000000000000000e+00  0.0000000000000000e+00 0.0000000000000000e+00 0.0000000000000000e+00  0.0000000000000000e+00 0.0000000000000000e+00 0.0000000000000000e+00  0.0000000000000000e+00 0.0000000000000000e+00 0.0000000000000000e+00  0.0000000000000000e+00 0.0000000000000000e+00 0.0000000000000000e+00  0.0000000000000000e+00 0.0000000000000000e+00 0.0000000000000000e+00  0.0000000000000000e+00 0.0000000000000000e+00 0.0000000000000000e+00  0.0000000000000000e+00 0.0000000000000000e+00 0.0000000000000000e+00  0.0000000000000000e+00 0.0000000000000000e+00 0.0000000000000000e+00  0.0000000000000000e+00 0.0000000000000000e+00 0.0000000000000000e+00  0.0000000000000000e+00 0.0000000000000000e+00 0.0000000000000000e+00  0.0000000000000000e+00 0.0000000000000000e+00 0.0000000000000000e+00  0.0000000000000000e+00 0.0000000000000000e+00 0.0000000000000000e+00  0.0000000000000000e+00 0.0000000000000000e+00 0.0000000000000000e+00  0.0000000000000000e+00 0.0000000000000000e+00 0.0000000000000000e+00  0.0000000000000000e+00 0.0000000000000000e+00 0.0000000000000000e+00  0.0000000000000000e+00 0.0000000000000000e+00 0.0000000000000000e+00  0.0000000000000000e+00 0.0000000000000000e+00 0.0000000000000000e+00  0.0000000000000000e+00 0.0000000000000000e+00 0.0000000000000000e+00  0.0000000000000000e+00 0.0000000000000000e+00 0.0000000000000000e+00  0.0000000000000000e+00 0.0000000000000000e+00 0.0000000000000000e+00  0.0000000000000000e+00 0.0000000000000000e+00 0.0000000000000000e+00  0.0000000000000000e+00 0.0000000000000000e+00 0.0000000000000000e+00  0.0000000000000000e+00 0.0000000000000000e+00 0.0000000000000000e+00  0.0000000000000000e+00 0.0000000000000000e+00 0.0000000000000000e+00  0.0000000000000000e+00 0.0000000000000000e+00 0.0000000000000000e+00  0.0000000000000000e+00 0.0000000000000000e+00 0.0000000000000000e+00  0.0000000000000000e+00 0.0000000000000000e+00 0.0000000000000000e+00  0.0000000000000000e+00 0.0000000000000000e+00 0.0000000000000000e+00  0.0000000000000000e+00 0.0000000000000000e+00 0.0000000000000000e+00  0.0000000000000000e+00 0.0000000000000000e+00 0.0000000000000000e+00  0.0000000000000000e+00 0.0000000000000000e+00 0.0000000000000000e+00  0.0000000000000000e+00 0.0000000000000000e+00 0.0000000000000000e+00  0.0000000000000000e+00 0.0000000000000000e+00 0.0000000000000000e+00  0.0000000000000000e+00 0.0000000000000000e+00 0.0000000000000000e+00  0.0000000000000000e+00 0.0000000000000000e+00 0.0000000000000000e+00  0.0000000000000000e+00 0.0000000000000000e+00 0.0000000000000000e+00  0.0000000000000000e+00 0.0000000000000000e+00 0.0000000000000000e+00  0.0000000000000000e+00 0.0000000000000000e+00 0.0000000000000000e+00  0.0000000000000000e+00 0.0000000000000000e+00 0.0000000000000000e+00  0.0000000000000000e+00 0.0000000000000000e+00 0.0000000000000000e+00  0.0000000000000000e+00 0.0000000000000000e+00 0.0000000000000000e+00  0.0000000000000000e+00 0.0000000000000000e+00 0.0000000000000000e+00  0.0000000000000000e+00 0.0000000000000000e+00 0.0000000000000000e+00  0.0000000000000000e+00 0.0000000000000000e+00 0.0000000000000000e+00  0.0000000000000000e+00 0.0000000000000000e+00 0.0000000000000000e+00  0.0000000000000000e+00 0.0000000000000000e+00 0.0000000000000000e+00  0.0000000000000000e+00 0.0000000000000000e+00 0.0000000000000000e+00  0.0000000000000000e+00 0.0000000000000000e+00 0.0000000000000000e+00  0.0000000000000000e+00 0.0000000000000000e+00 0.0000000000000000e+00  0.0000000000000000e+00 0.0000000000000000e+00 0.0000000000000000e+00  0.0000000000000000e+00 0.0000000000000000e+00 0.0000000000000000e+00  0.0000000000000000e+00 0.0000000000000000e+00 0.0000000000000000e+00  0.0000000000000000e+00 0.0000000000000000e+00 0.0000000000000000e+00  0.0000000000000000e+00 0.0000000000000000e+00 0.0000000000000000e+00  0.0000000000000000e+00 0.0000000000000000e+00 0.0000000000000000e+00  0.0000000000000000e+00 0.0000000000000000e+00 0.0000000000000000e+00  0.0000000000000000e+00 0.0000000000000000e+00 0.0000000000000000e+00  0.0000000000000000e+00 0.0000000000000000e+00 0.0000000000000000e+00  0.0000000000000000e+00 0.0000000000000000e+00 0.0000000000000000e+00  0.0000000000000000e+00 0.0000000000000000e+00 0.0000000000000000e+00  0.0000000000000000e+00 0.0000000000000000e+00 0.0000000000000000e+00  0.0000000000000000e+00 0.0000000000000000e+00 0.0000000000000000e+00  -2.1168345634965495e-07 1.6109658096632479e-07 0.0000000000000000e+00  -4.4926414642692858e-07 4.1174875217138483e-07 0.0000000000000000e+00  -6.5553759342776467e-07 8.2093817851796536e-07 0.0000000000000000e+00  -8.7676511718668596e-07 1.3963704634440365e-06 0.0000000000000000e+00  -1.0590204986007750e-06 2.1081871569309083e-06 0.0000000000000000e+00  -1.2648912572928675e-06 2.9681894029599180e-06 0.0000000000000000e+00  -1.4285227307111094e-06 3.9369988031169335e-06 0.0000000000000000e+00  -1.5861758154103627e-06 5.0471572189240665e-06 0.0000000000000000e+00  -1.7662481996312415e-06 6.2630476883268499e-06 0.0000000000000000e+00  -1.9021494829466249e-06 7.5880875787471083e-06 0.0000000000000000e+00  -2.0668330353699860e-06 9.0187781101503131e-06 0.0000000000000000e+00  -2.1897418418939768e-06 1.0545563330509549e-05 0.0000000000000000e+00  -2.3334142574365730e-06 1.2163758272110644e-05 0.0000000000000000e+00  -2.4471222909452964e-06 1.3855183517486557e-05 0.0000000000000000e+00  -2.5564188008562154e-06 1.5635819079214574e-05 0.0000000000000000e+00  -2.6784210197218035e-06 1.7482204434719759e-05 0.0000000000000000e+00  -2.7717308934173160e-06 1.9395854744291851e-05 0.0000000000000000e+00  -2.8807141253903362e-06 2.1373477939627020e-05 0.0000000000000000e+00  -2.9632885038137399e-06 2.3407453960168872e-05 0.0000000000000000e+00  -3.0576649543729618e-06 2.5493130351468512e-05 0.0000000000000000e+00  -3.1337638545787665e-06 2.7627800687247365e-05 0.0000000000000000e+00  -3.2152583410912715e-06 2.9808349712236271e-05 0.0000000000000000e+00  -3.2819339479758386e-06 3.2021668810765312e-05 0.0000000000000000e+00  -3.3451835079906031e-06 3.4276869380759510e-05 0.0000000000000000e+00  -3.4120566892950248e-06 3.6558954269152154e-05 0.0000000000000000e+00  -3.4687909790907402e-06 3.8872391890123031e-05 0.0000000000000000e+00  -3.5244007584487480e-06 4.1211824809721379e-05 0.0000000000000000e+00  -3.5741869602226356e-06 4.3572380809232173e-05 0.0000000000000000e+00  -3.6226129987257003e-06 4.5954122747989684e-05 0.0000000000000000e+00  -3.6662961000376089e-06 4.8351832922731260e-05 0.0000000000000000e+00  -3.7086065587245836e-06 5.0765776849800267e-05 0.0000000000000000e+00  -3.7470684340627153e-06 5.3191461814917924e-05 0.0000000000000000e+00  -3.7842445811708139e-06 5.5629105615884310e-05 0.0000000000000000e+00  -3.8183795926913909e-06 5.8075061895126071e-05 0.0000000000000000e+00  -3.8513573135334797e-06 6.0529462181796811e-05 0.0000000000000000e+00  -3.8820026592636431e-06 6.2989423374666491e-05 0.0000000000000000e+00  -3.9116637008566385e-06 6.5455082514165994e-05 0.0000000000000000e+00  -3.9396157813352369e-06 6.7924197814522909e-05 0.0000000000000000e+00  -3.9667777361078277e-06 7.0396907259653806e-05 0.0000000000000000e+00  -3.9927499092612720e-06 7.2871536802729086e-05 0.0000000000000000e+00  -4.0181976380230741e-06 7.5348440540309701e-05 0.0000000000000000e+00  -4.0427461264123755e-06 7.7825472597573754e-05 0.0000000000000000e+00  -4.0668753786701303e-06 8.0304817504593529e-05 0.0000000000000000e+00  -4.0908192388665837e-06 8.2783883656720330e-05 0.0000000000000000e+00  -4.1143510994419036e-06 8.5263133492236959e-05 0.0000000000000000e+00  -4.1376600954691385e-06 8.7743423228758480e-05 0.0000000000000000e+00  -2.5007748437839664e-06 9.0237859326842008e-05 0.0000000000000000e+00  8.1923469290439347e-07 9.0269217740918245e-05 0.0000000000000000e+00  2.5022508312754596e-06 8.7804917714121670e-05 0.0000000000000000e+00  2.5251837596066569e-06 8.5324985657429128e-05 0.0000000000000000e+00  2.5478589316518003e-06 8.2845405143880450e-05 0.0000000000000000e+00  2.5701304099653768e-06 8.0366509332091269e-05 0.0000000000000000e+00  2.5922006822721835e-06 7.7887120671232956e-05 0.0000000000000000e+00  2.6138408820399589e-06 7.5410015651353977e-05 0.0000000000000000e+00  2.6344726330815342e-06 7.2933125658105016e-05 0.0000000000000000e+00  2.6549379429816311e-06 7.0458364270228397e-05 0.0000000000000000e+00  2.6735271850586241e-06 6.7985672328898901e-05 0.0000000000000000e+00  2.6921851202599252e-06 6.5516407179637515e-05 0.0000000000000000e+00  2.7079758550679366e-06 6.3050737177329421e-05 0.0000000000000000e+00  2.7240970368346740e-06 6.0590550381264788e-05 0.0000000000000000e+00  2.7361052908200599e-06 5.8136085089861949e-05 0.0000000000000000e+00  2.7488830828826789e-06 5.5689813262999602e-05 0.0000000000000000e+00  2.7560177156387992e-06 5.3252040224184238e-05 0.0000000000000000e+00  2.7645541143589801e-06 5.0825892364191603e-05 0.0000000000000000e+00  2.7656210316662283e-06 4.8411731706870944e-05 0.0000000000000000e+00  2.7689415702947557e-06 4.6013382664146655e-05 0.0000000000000000e+00  2.7626374558156246e-06 4.3631269999062783e-05 0.0000000000000000e+00  2.7596818332038377e-06 4.1269886724255438e-05 0.0000000000000000e+00  2.7443665218147478e-06 3.8929950896904639e-05 0.0000000000000000e+00  2.7336753504508031e-06 3.6616754218638671e-05 0.0000000000000000e+00  2.7084713806757709e-06 3.4331924515139012e-05 0.0000000000000000e+00  2.6870145876025834e-06 3.2076385924105684e-05 0.0000000000000000e+00  2.6609914855562643e-06 2.9862496239370847e-05 0.0000000000000000e+00  2.6206490266041561e-06 2.7679500359199840e-05 0.0000000000000000e+00  2.5812414129593832e-06 2.5545583203950767e-05 0.0000000000000000e+00  2.5297339955476016e-06 2.3455793319897633e-05 0.0000000000000000e+00  2.4772383061545297e-06 2.1421620799126674e-05 0.0000000000000000e+00  2.4120992956761693e-06 1.9441608930900724e-05 0.0000000000000000e+00  2.3458907391434944e-06 1.7523773246061759e-05 0.0000000000000000e+00  2.2580325744890692e-06 1.5679510817828944e-05 0.0000000000000000e+00  2.1804409256182739e-06 1.3896031726211180e-05 0.0000000000000000e+00  2.0960266672866480e-06 1.2203957882142811e-05 0.0000000000000000e+00  1.9847539127118089e-06 1.0577611209827051e-05 0.0000000000000000e+00  1.8773913581653012e-06 9.0524282845423158e-06 0.0000000000000000e+00  1.7510941783635545e-06 7.6184074376313118e-06 0.0000000000000000e+00  1.6260951555979490e-06 6.2870995028237950e-06 0.0000000000000000e+00  1.4691729455522245e-06 5.0754246830565094e-06 0.0000000000000000e+00  1.3307188256160837e-06 3.9614536077759475e-06 0.0000000000000000e+00  1.1845994275978051e-06 2.9911411135063059e-06 0.0000000000000000e+00  9.9819651593792275e-07 2.1250484918309976e-06 0.0000000000000000e+00  8.2473565693617838e-07 1.4098971206436078e-06 0.0000000000000000e+00  6.1572543739700491e-07 8.4121921707179613e-07 0.0000000000000000e+00  4.2639074006160829e-07 4.2821463151216828e-07 0.0000000000000000e+00  2.0108678492623409e-07 1.7330557945767034e-07 0.0000000000000000e+00  -1.2261148703203819e-08 1.7845275407992237e-07 0.0000000000000000e+00  -8.4826986898172829e-07 8.6526420043079452e-05 0.0000000000000000e+00  -8.2975569803819314e-07 8.1787628742429439e-05 0.0000000000000000e+00  -7.2698565887337763e-07 7.4049858173318820e-05 0.0000000000000000e+00  -2.0459865637566476e-08 9.9978140348532206e-07 0.0000000000000000e+00  -6.4444622743363206e-07 6.9188400054960854e-05 0.0000000000000000e+00  -2.0535565498775940e-08 2.3700765585987890e-06 0.0000000000000000e+00  -5.9830937439659085e-07 6.4248669441094314e-05 0.0000000000000000e+00  -4.0803089820667938e-08 5.6297708544750968e-06 0.0000000000000000e+00  -8.4749009130737676e-08 8.2427687366380498e-06 0.0000000000000000e+00  -5.5229053569546398e-07 5.9326696982229602e-05 0.0000000000000000e+00  -1.2394083224119129e-07 1.6603091634404847e-05 0.0000000000000000e+00  -4.6101200793372100e-07 4.9577374923264130e-05 0.0000000000000000e+00  -8.1887130510406045e-08 1.1171617948739025e-05 0.0000000000000000e+00  -1.9073436399385257e-07 2.0361801860610704e-05 0.0000000000000000e+00  -4.1608817432055947e-07 4.4777782529734609e-05 0.0000000000000000e+00  -5.0647577341269037e-07 5.4432131655305876e-05 0.0000000000000000e+00  -2.2762931250834651e-07 2.4435883484547259e-05 0.0000000000000000e+00  -3.7179449534825349e-07 4.0051890685340017e-05 0.0000000000000000e+00  -2.2705417141247977e-07 2.8534402693573201e-05 0.0000000000000000e+00  -3.6848112508531695e-07 3.5515743133852226e-05 0.0000000000000000e+00  -2.9469962679056309e-07 3.1848233861822401e-05 0.0000000000000000e+00  -1.3578171225168674e-07 1.3686118693937009e-05 0.0000000000000000e+00  -7.2110224549562011e-07 7.8072213773495278e-05 0.0000000000000000e+00  -4.6092865325090624e-08 3.8048797700040085e-06 0.0000000000000000e+00  3.2668584601644640e-07 8.4150271593475559e-05 0.0000000000000000e+00  1.7855947763775846e-07 5.2462279986391234e-07 0.0000000000000000e+00  3.3951526546034588e-07 6.6725785338136030e-05 0.0000000000000000e+00  2.9568907939988893e-07 7.1671388446585321e-05 0.0000000000000000e+00  -3.5684629343307569e-07 1.6539094504516059e-06 0.0000000000000000e+00  -5.8644777707221146e-07 6.8631265390295380e-06 0.0000000000000000e+00  4.5955066225499988e-07 5.2008584974015646e-05 0.0000000000000000e+00  3.8181089856517911e-07 6.1794101144764844e-05 0.0000000000000000e+00  -9.1591856200962672e-07 1.8410271003855934e-05 0.0000000000000000e+00  4.9360823235453075e-07 4.7179606814218540e-05 0.0000000000000000e+00  -6.8501328032212388e-07 9.7298021603232165e-06 0.0000000000000000e+00  -9.9698761147581102e-07 2.2369659571168819e-05 0.0000000000000000e+00  5.2342109391193368e-07 4.2414631407444644e-05 0.0000000000000000e+00  4.2203819257760881e-07 5.6884702144226814e-05 0.0000000000000000e+00  -1.2554047254218059e-06 2.6522099384886179e-05 0.0000000000000000e+00  5.4854323233057762e-07 3.7733876538300154e-05 0.0000000000000000e+00  -4.2023724364483470e-08 3.7044199772116832e-08 0.0000000000000000e+00  2.6537925918601009e-08 3.6503452382678360e-08 0.0000000000000000e+00  -1.6311131867799309e-06 8.8469146636030476e-05 0.0000000000000000e+00  -2.3035828146527233e-07 5.1843442062423958e-07 0.0000000000000000e+00  7.7172621829053451e-07 3.3670075873353656e-05 0.0000000000000000e