<?xml version="1.0"?>
<VTKFile type="UnstructuredGrid"  version="0.1"  >
<UnstructuredGrid>
<Piece  NumberOfPoints="1419" NumberOfCells="2698">
<Points>
<DataArray  type="Float64"  NumberOfComponents="3"  format="ascii">0 0 0  0 0.41 0  2.5 0 0  2.5 0.41 0  0.6 0.19 0  0.6 0.21 0  0.25 0.2 0  0.15 0.2 0  0.2489897948556636 0.21 0  0.2489897948556636 0.19 0  0.6 0.2 0  0 0.3807142857143437 0  0 0.3514285714286952 0  0 0.3221428571430699 0  0 0.29285714285744 0  0 0.2635714285718054 0  0 0.2342857142861561 0  0 0.2050000000005308 0  0 0.175714285714732 0  0 0.1464285714289574 0  0 0.1171428571431897 0  0 0.08785714285737878 0  0 0.05857142857161107 0  0 0.02928571428580012 0  0.03015443760436003 0 0  0.06140001986583606 0 0  0.09377624077125973 0 0  0.1273239957535082 0 0  0.1620856860351972 0 0  0.1981052433264291 0 0  0.235428184091502 0 0  0.2741016576309132 0 0  0.3141745521465447 0 0  0.3556974926295285 0 0  0.3987229542472677 0 0  0.4433053055141081 0 0  0.4895008759286886 0 0  0.5373680609405097 0 0  0.5869673343216626 0 0  0.6383613676634521 0 0  0.6916151138468254 0 0  0.7467958595648856 0 0  0.8039733463919316 0 0  0.8632198139502143 0 0  0.9246101326867038 0 0  0.9882218810934433 0 0  1.054135445558498 0 0  1.122434100542598 0 0  1.193204177141305 0 0  1.266535089879536 0 0  1.342519516046404 0 0  1.421253448503939 0 0  1.502836389106271 0 0  1.587371439758838 0 0  1.674965418777374 0 0  1.765729001825544 0 0  1.859776908880082 0 0  1.957227977487062 0 0  2.058205329869943 0 0  2.162836591189951 0 0  2.271253957290865 0 0  2.383594446803425 0 0  2.5 0.1024999999997612 0  2.5 0.2049999999994743 0  2.5 0.3074999999997183 0  2.383594446803656 0.41 0  2.271253957291315 0.41 0  2.162836591190598 0.41 0  2.058205329870775 0.41 0  1.957227977488067 0.41 0  1.859776908881246 0.41 0  1.765729001826854 0.41 0  1.674965418778818 0.41 0  1.58737143976041 0.41 0  1.502836389107956 0.41 0  1.421253448505726 0.41 0  1.342519516048286 0.41 0  1.266535089881505 0.41 0  1.193204177143353 0.41 0  1.122434100544716 0.41 0  1.05413544556068 0.41 0  0.9882218810956305 0.41 0  0.9246101326886647 0.41 0  0.8632198139519631 0.41 0  0.8039733463934788 0.41 0  0.7467958595662458 0.41 0  0.6916151138480078 0.41 0  0.6383613676644679 0.41 0  0.5869673343225223 0.41 0  0.5373680609412221 0.41 0  0.4895008759292634 0.41 0  0.4433053055145528 0.41 0  0.3987229542475914 0.41 0  0.3556974926297398 0.41 0  0.3141745521466497 0.41 0  0.2741016576310038 0.41 0  0.2354281840915826 0.41 0  0.1981052433265003 0.41 0  0.1620856860352591 0.41 0  0.1273239957535623 0.41 0  0.09377624077128965 0.41 0  0.06140001986584975 0.41 0  0.03015443760436654 0.41 0  0.2497468076502589 0.2050254481002335 0  0.2497468076502614 0.1949745518997913 0  0.2469965252529372 0.1829317073451959 0  0.2439893735792749 0.1762316384219906 0  0.2400332147834255 0.1700443375285386 0  0.2352133972704371 0.1645032867342007 0  0.2296339016332438 0.1597280261969788 0  0.2234150974217223 0.1558215752574715 0  0.2166911463437691 0.1528682099456123 0  0.2096071079204251 0.1509316448471593 0  0.2023158100364996 0.1500536585536553 0  0.194974551899914 0.1502531923497262 0  0.1877417105387872 0.1515259415822739 0  0.1807733240461124 0.153844448527136 0  0.1742197252835808 0.15715869474974 0  0.1682222986673531 0.1613971801805478 0  0.162910430003803 0.1664684656256651 0  0.1583987151779087 0.1722631454351573 0  0.1547844879126891 0.178656207771761 0  0.1521457199348551 0.1855097315605723 0  0.1505393388476355 0.1926758619366523 0  0.1505393388476328 0.2073241380633295 0  0.1521457199348437 0.2144902684393899 0  0.1547844879126531 0.221343792228163 0  0.1583987151778488 0.2277368545647528 0  0.1629104300036858 0.2335315343742052 0  0.1682222986671726 0.2386028198193036 0  0.1742197252833576 0.2428413052501257 0  0.1807733240458683 0.2461555514727623 0  0.1877417105384929 0.2484740584176516 0  0.1949745518995776 0.2497468076502398 0  0.202315810036185 0.2499463414463592 0  0.2096071079201568 0.2490683551528932 0  0.2166911463435495 0.2471317900544655 0  0.2234150974215506 0.2441784247426195 0  0.2296339016331197 0.2402719738031125 0  0.2352133972703547 0.2354967132658811 0  0.2400332147833751 0.2299556624715287 0  0.2439893735792577 0.2237683615780412 0  0.246996525252926 0.2170682926548348 0  0.25645809709277 0.21 0  0.2639263993298655 0.21 0  0.271394701566961 0.21 0  0.2788630038040554 0.21 0  0.2863313060411479 0.21 0  0.2937996082782405 0.21 0  0.301267910515333 0.21 0  0.3087362127524279 0.21 0  0.3162045149895234 0.21 0  0.3236728172265972 0.21 0  0.3311411194636928 0.21 0  0.3386094217007701 0.21 0  0.3460777239378666 0.21 0  0.3535460261749672 0.21 0  0.3610143284120516 0.21 0  0.3684826306491596 0.21 0  0.3759509328862226 0.21 0  0.383419235123329 0.21 0  0.3908875373604028 0.21 0  0.3983558395975142 0.21 0  0.4058241418345938 0.21 0  0.4132924440716992 0.21 0  0.4207607463087888 0.21 0  0.4282290485459029 0.21 0  0.4356973507830418 0.21 0  0.4431656530201649 0.21 0  0.4506339552573136 0.21 0  0.4581022574944306 0.21 0  0.4655705597315852 0.21 0  0.4730388619686996 0.21 0  0.480507164205851 0.21 0  0.4879754664429498 0.21 0  0.4954437686800938 0.21 0  0.502912070917267 0.21 0  0.5103803731544119 0.21 0  0.5178486753915261 0.21 0  0.5253169776286404 0.21 0  0.5327852798657868 0.21 0  0.5402535821029386 0.21 0  0.54772188434007 0.21 0  0.5551901865771842 0.21 0  0.5626584888143201 0.21 0  0.5701267910514778 0.21 0  0.5775950932886138 0.21 0  0.5850633955257281 0.21 0  0.5925316977628483 0.21 0  0.6 0.2050000000000054 0  0.6 0.1950000000000217 0  0.5925316977628897 0.19 0  0.5850633955257988 0.19 0  0.5775950932887378 0.19 0  0.5701267910515998 0.19 0  0.5626584888145268 0.19 0  0.5551901865773963 0.19 0  0.547721884340339 0.19 0  0.5402535821032429 0.19 0  0.5327852798661811 0.19 0  0.5253169776290537 0.19 0  0.5178486753919799 0.19 0  0.5103803731549078 0.19 0  0.502912070917822 0.19 0  0.4954437686807294 0.19 0  0.4879754664436223 0.19 0  0.4805071642065402 0.19 0  0.4730388619694271 0.19 0  0.4655705597323621 0.19 0  0.4581022574952563 0.19 0  0.4506339552581777 0.19 0  0.4431656530210671 0.19 0  0.4356973507839815 0.19 0  0.4282290485468779 0.19 0  0.4207607463097617 0.19 0  0.4132924440726327 0.19 0  0.4058241418354857 0.19 0  0.3983558395983636 0.19 0  0.3908875373612097 0.19 0  0.3834192351240934 0.19 0  0.3759509328869369 0.19 0  0.3684826306498175 0.19 0  0.361014328412667 0.19 0  0.3535460261755617 0.19 0  0.3460777239384295 0.19 0  0.3386094217012945 0.19 0  0.3311411194641595 0.19 0  0.3236728172270245 0.19 0  0.3162045149898895 0.19 0  0.3087362127527544 0.19 0  0.3012679105156187 0.19 0  0.2937996082784807 0.19 0  0.2863313060413428 0.19 0  0.2788630038042048 0.19 0  0.2713947015670686 0.19 0  0.2639263993299336 0.19 0  0.2564580970927985 0.19 0  0.2607803159922026 0.2000727136295815 0  0.5887803774232762 0.2001272386983733 0  0.5745072403740523 0.2002044435018727 0  0.5511891430099709 0.2001122610077113 0  0.2751288526855082 0.20000000000002 0  0.5365194309847112 0.1999999999999436 0  0.2894621222999649 0.1998691686390484 0  0.5215828265105155 0.1999999999999228 0  0.3127789816668748 0.1998657885438805 0  0.3274069683451451 0.2000000000000796 0  0.5066462220363641 0.199999999999908 0  0.3650630746574081 0.199866017807523 0  0.476773013087985 0.1999999999998713 0  0.3417402379596385 0.1998691686391011 0  0.3796850840047755 0.200000000000134 0  0.4618364086138087 0.1999999999998546 0  0.4917096175621762 0.1999999999998808 0  0.3946216884789568 0.2000000000001512 0  0.446899804139621 0.1999999999998389 0  0.4089549580935208 0.1998691686391595 0  0.4322718174608562 0.200127451265745 0  0.4201487168029707 0.1999966199048527 0  0.3528922713220932 0.2000185703532356 0  0.5633122436674589 0.1999814296467508 0  0.3006558810093873 0.1999966199048318 0  0.5815926498168407 0.1966545283159175 0  0.2677053789419034 0.1964246479135325 0  0.5290511287476175 0.1970915826863981 0  0.5439877332217911 0.197091582686394 0  0.2825131256993216 0.2035478995978015 0  0.3199386661080599 0.202908417313604 0  0.4842413153250809 0.1970915826863873 0  0.5141145242734466 0.1970915826863843 0  0.3722167817676917 0.2029084173136195 0  0.4693047108508938 0.1970915826863783 0  0.3348752705822316 0.202908417313609 0  0.3871533862418661 0.2029084173136212 0  0.4543681063767183 0.1970915826863795 0  0.4991779197992749 0.1970915826863902 0  0.4020059614928624 0.203547899597858 0  0.4394315019025246 0.1970915826863714 0  0.2550657455369551 0.2034088125358657 0  0.2548908499171161 0.1966940311614271 0  0.5946539510196798 0.2024302972968126 0  0.267698176732111 0.2039977513680092 0  0.4261685417851465 0.196409292431739 0  0.3590076176283495 0.196411355804271 0  0.5571672426447437 0.2036011176410121 0  0.3066757059912147 0.1964092924317024 0  0.594380730180568 0.1966558399668133 0  0.4842413153245942 0.2040749161535287 0  0.4693047108503577 0.2040749161535231 0  0.3871533862424271 0.1959250838464788 0  0.372246743208829 0.1959123236376545 0  0.5141145242731028 0.2040749161535395 0  0.4543681063761134 0.2040749161535186 0  0.4019979587101454 0.1959834479682427 0  0.4394608940728603 0.2040870543693135 0  0.5439623148931173 0.2040856076781014 0  0.5290511287473298 0.2040749161535501 0  0.4991779197988497 0.2040749161535382 0  0.3347912413592433 0.1959225448935183 0  0.3199680582793816 0.1959123018030061 0  0.2825051229162361 0.1959834479681729 0  0.3590471196690275 0.2036304442587945 0  0.5571594006495384 0.1963685282145804 0  0.3067669986803285 0.203627750582736 0  0.4262598344738712 0.2036568242185335 0  0.5814408164431408 0.2041285596160068 0  0.5688286748170428 0.1961819304477386 0  0.4145905603063645 0.2038180695522843 0  0.3473758401724931 0.2038180695522752 0  0.2950977245128307 0.2038180695522663 0  0.5688286748170693 0.203818069552238 0  0.2950977245127906 0.1961819304477774 0  0.3473758401723931 0.1961819304478349 0  0.4145905603061963 0.1961819304479011 0  0.2601812407614425 0.2056861609747042
[...]
<PointData  Vectors="f_40-0"> 
<DataArray  type="Float64"  Name="f_40-0"  NumberOfComponents="3" format="ascii">0.0000000000000000e+00 0.0000000000000000e+00 0.0000000000000000e+00  0.0000000000000000e+00 0.0000000000000000e+00 0.0000000000000000e+00  0.0000000000000000e+00 0.0000000000000000e+00 0.0000000000000000e+00  0.0000000000000000e+00 0.0000000000000000e+00 0.0000000000000000e+00  2.3767895092512970e-09 2.0599830342004109e-08 0.0000000000000000e+00  -2.3684693097497475e-09 1.7358411649907020e-08 0.0000000000000000e+00  0.0000000000000000e+00 0.0000000000000000e+00 0.0000000000000000e+00  0.0000000000000000e+00 0.0000000000000000e+00 0.0000000000000000e+00  0.0000000000000000e+00 0.0000000000000000e+00 0.0000000000000000e+00  0.0000000000000000e+00 0.0000000000000000e+00 0.0000000000000000e+00  -1.4354493896830982e-10 4.0474523092929275e-09 0.0000000000000000e+00  7.9591836734548405e-01 0.0000000000000000e+00 0.0000000000000000e+00  1.4693877550994523e+00 0.0000000000000000e+00 0.0000000000000000e+00  2.0204081632617479e+00 0.0000000000000000e+00 0.0000000000000000e+00  2.4489795918330071e+00 0.0000000000000000e+00 0.0000000000000000e+00  2.7551020408131754e+00 0.0000000000000000e+00 0.0000000000000000e+00  2.9387755102022344e+00 0.0000000000000000e+00 0.0000000000000000e+00  3.0000000000000004e+00 0.0000000000000000e+00 0.0000000000000000e+00  2.9387755102059474e+00 0.0000000000000000e+00 0.0000000000000000e+00  2.7551020408195543e+00 0.0000000000000000e+00 0.0000000000000000e+00  2.4489795918409065e+00 0.0000000000000000e+00 0.0000000000000000e+00  2.0204081632692521e+00 0.0000000000000000e+00 0.0000000000000000e+00  1.4693877551058563e+00 0.0000000000000000e+00 0.0000000000000000e+00  7.9591836734909216e-01 0.0000000000000000e+00 0.0000000000000000e+00  0.0000000000000000e+00 0.0000000000000000e+00 0.0000000000000000e+00  0.0000000000000000e+00 0.0000000000000000e+00 0.0000000000000000e+00  0.0000000000000000e+00 0.0000000000000000e+00 0.0000000000000000e+00  0.0000000000000000e+00 0.0000000000000000e+00 0.0000000000000000e+00  0.0000000000000000e+00 0.0000000000000000e+00 0.0000000000000000e+00  0.0000000000000000e+00 0.0000000000000000e+00 0.0000000000000000e+00  0.0000000000000000e+00 0.0000000000000000e+00 0.0000000000000000e+00  0.0000000000000000e+00 0.0000000000000000e+00 0.0000000000000000e+00  0.0000000000000000e+00 0.0000000000000000e+00 0.0000000000000000e+00  0.0000000000000000e+00 0.0000000000000000e+00 0.0000000000000000e+00  0.0000000000000000e+00 0.0000000000000000e+00 0.0000000000000000e+00  0.0000000000000000e+00 0.0000000000000000e+00 0.0000000000000000e+00  0.0000000000000000e+00 0.0000000000000000e+00 0.0000000000000000e+00  0.0000000000000000e+00 0.0000000000000000e+00 0.0000000000000000e+00  0.0000000000000000e+00 0.0000000000000000e+00 0.0000000000000000e+00  0.0000000000000000e+00 0.0000000000000000e+00 0.0000000000000000e+00  0.0000000000000000e+00 0.0000000000000000e+00 0.0000000000000000e+00  0.0000000000000000e+00 0.0000000000000000e+00 0.0000000000000000e+00  0.0000000000000000e+00 0.0000000000000000e+00 0.0000000000000000e+00  0.0000000000000000e+00 0.0000000000000000e+00 0.0000000000000000e+00  0.0000000000000000e+00 0.0000000000000000e+00 0.0000000000000000e+00  0.0000000000000000e+00 0.0000000000000000e+00 0.0000000000000000e+00  0.0000000000000000e+00 0.0000000000000000e+00 0.0000000000000000e+00  0.0000000000000000e+00 0.0000000000000000e+00 0.0000000000000000e+00  0.0000000000000000e+00 0.0000000000000000e+00 0.0000000000000000e+00  0.0000000000000000e+00 0.0000000000000000e+00 0.0000000000000000e+00  0.0000000000000000e+00 0.0000000000000000e+00 0.0000000000000000e+00  0.0000000000000000e+00 0.0000000000000000e+00 0.0000000000000000e+00  0.0000000000000000e+00 0.0000000000000000e+00 0.0000000000000000e+00  0.0000000000000000e+00 0.0000000000000000e+00 0.0000000000000000e+00  0.0000000000000000e+00 0.0000000000000000e+00 0.0000000000000000e+00  0.0000000000000000e+00 0.0000000000000000e+00 0.0000000000000000e+00  0.0000000000000000e+00 0.0000000000000000e+00 0.0000000000000000e+00  0.0000000000000000e+00 0.0000000000000000e+00 0.0000000000000000e+00  0.0000000000000000e+00 0.0000000000000000e+00 0.0000000000000000e+00  0.0000000000000000e+00 0.0000000000000000e+00 0.0000000000000000e+00  0.0000000000000000e+00 0.0000000000000000e+00 0.0000000000000000e+00  0.0000000000000000e+00 0.0000000000000000e+00 0.0000000000000000e+00  2.6635462901643043e+00 1.8868108131734816e-02 0.0000000000000000e+00  2.3248202588937508e+00 1.8911554860976475e-02 0.0000000000000000e+00  2.8346301531338578e+00 7.1605641629591585e-02 0.0000000000000000e+00  0.0000000000000000e+00 0.0000000000000000e+00 0.0000000000000000e+00  0.0000000000000000e+00 0.0000000000000000e+00 0.0000000000000000e+00  0.0000000000000000e+00 0.0000000000000000e+00 0.0000000000000000e+00  0.0000000000000000e+00 0.0000000000000000e+00 0.0000000000000000e+00  0.0000000000000000e+00 0.0000000000000000e+00 0.0000000000000000e+00  0.0000000000000000e+00 0.0000000000000000e+00 0.0000000000000000e+00  0.0000000000000000e+00 0.0000000000000000e+00 0.0000000000000000e+00  0.0000000000000000e+00 0.0000000000000000e+00 0.0000000000000000e+00  0.0000000000000000e+00 0.0000000000000000e+00 0.0000000000000000e+00  0.0000000000000000e+00 0.0000000000000000e+00 0.0000000000000000e+00  0.0000000000000000e+00 0.0000000000000000e+00 0.0000000000000000e+00  0.0000000000000000e+00 0.0000000000000000e+00 0.0000000000000000e+00  0.0000000000000000e+00 0.0000000000000000e+00 0.0000000000000000e+00  0.0000000000000000e+00 0.0000000000000000e+00 0.0000000000000000e+00  0.0000000000000000e+00 0.0000000000000000e+00 0.0000000000000000e+00  0.0000000000000000e+00 0.0000000000000000e+00 0.0000000000000000e+00  0.0000000000000000e+00 0.0000000000000000e+00 0.0000000000000000e+00  0.0000000000000000e+00 0.0000000000000000e+00 0.0000000000000000e+00  0.0000000000000000e+00 0.0000000000000000e+00 0.0000000000000000e+00  0.0000000000000000e+00 0.0000000000000000e+00 0.0000000000000000e+00  0.0000000000000000e+00 0.0000000000000000e+00 0.0000000000000000e+00  0.0000000000000000e+00 0.0000000000000000e+00 0.0000000000000000e+00  0.0000000000000000e+00 0.0000000000000000e+00 0.0000000000000000e+00  0.0000000000000000e+00 0.0000000000000000e+00 0.0000000000000000e+00  0.0000000000000000e+00 0.0000000000000000e+00 0.0000000000000000e+00  0.0000000000000000e+00 0.0000000000000000e+00 0.0000000000000000e+00  0.0000000000000000e+00 0.0000000000000000e+00 0.0000000000000000e+00  0.0000000000000000e+00 0.0000000000000000e+00 0.0000000000000000e+00  0.0000000000000000e+00 0.0000000000000000e+00 0.0000000000000000e+00  0.0000000000000000e+00 0.0000000000000000e+00 0.0000000000000000e+00  0.0000000000000000e+00 0.0000000000000000e+00 0.0000000000000000e+00  0.0000000000000000e+00 0.0000000000000000e+00 0.0000000000000000e+00  0.0000000000000000e+00 0.0000000000000000e+00 0.0000000000000000e+00  0.0000000000000000e+00 0.0000000000000000e+00 0.0000000000000000e+00  0.0000000000000000e+00 0.0000000000000000e+00 0.0000000000000000e+00  0.0000000000000000e+00 0.0000000000000000e+00 0.0000000000000000e+00  0.0000000000000000e+00 0.0000000000000000e+00 0.0000000000000000e+00  0.0000000000000000e+00 0.0000000000000000e+00 0.0000000000000000e+00  0.0000000000000000e+00 0.0000000000000000e+00 0.0000000000000000e+00  0.0000000000000000e+00 0.0000000000000000e+00 0.0000000000000000e+00  0.0000000000000000e+00 0.0000000000000000e+00 0.0000000000000000e+00  0.0000000000000000e+00 0.0000000000000000e+00 0.0000000000000000e+00  0.0000000000000000e+00 0.0000000000000000e+00 0.0000000000000000e+00  0.0000000000000000e+00 0.0000000000000000e+00 0.0000000000000000e+00  0.0000000000000000e+00 0.0000000000000000e+00 0.0000000000000000e+00  0.0000000000000000e+00 0.0000000000000000e+00 0.0000000000000000e+00  0.0000000000000000e+00 0.0000000000000000e+00 0.0000000000000000e+00  0.0000000000000000e+00 0.0000000000000000e+00 0.0000000000000000e+00  0.0000000000000000e+00 0.0000000000000000e+00 0.0000000000000000e+00  0.0000000000000000e+00 0.0000000000000000e+00 0.0000000000000000e+00  0.0000000000000000e+00 0.0000000000000000e+00 0.0000000000000000e+00  0.0000000000000000e+00 0.0000000000000000e+00 0.0000000000000000e+00  0.0000000000000000e+00 0.0000000000000000e+00 0.0000000000000000e+00  0.0000000000000000e+00 0.0000000000000000e+00 0.0000000000000000e+00  0.0000000000000000e+00 0.0000000000000000e+00 0.0000000000000000e+00  0.0000000000000000e+00 0.0000000000000000e+00 0.0000000000000000e+00  0.0000000000000000e+00 0.0000000000000000e+00 0.0000000000000000e+00  0.0000000000000000e+00 0.0000000000000000e+00 0.0000000000000000e+00  0.0000000000000000e+00 0.0000000000000000e+00 0.0000000000000000e+00  0.0000000000000000e+00 0.0000000000000000e+00 0.0000000000000000e+00  0.0000000000000000e+00 0.0000000000000000e+00 0.0000000000000000e+00  0.0000000000000000e+00 0.0000000000000000e+00 0.0000000000000000e+00  0.0000000000000000e+00 0.0000000000000000e+00 0.0000000000000000e+00  0.0000000000000000e+00 0.0000000000000000e+00 0.0000000000000000e+00  0.0000000000000000e+00 0.0000000000000000e+00 0.0000000000000000e+00  0.0000000000000000e+00 0.0000000000000000e+00 0.0000000000000000e+00  0.0000000000000000e+00 0.0000000000000000e+00 0.0000000000000000e+00  0.0000000000000000e+00 0.0000000000000000e+00 0.0000000000000000e+00  0.0000000000000000e+00 0.0000000000000000e+00 0.0000000000000000e+00  0.0000000000000000e+00 0.0000000000000000e+00 0.0000000000000000e+00  0.0000000000000000e+00 0.0000000000000000e+00 0.0000000000000000e+00  0.0000000000000000e+00 0.0000000000000000e+00 0.0000000000000000e+00  0.0000000000000000e+00 0.0000000000000000e+00 0.0000000000000000e+00  0.0000000000000000e+00 0.0000000000000000e+00 0.0000000000000000e+00  0.0000000000000000e+00 0.0000000000000000e+00 0.0000000000000000e+00  0.0000000000000000e+00 0.0000000000000000e+00 0.0000000000000000e+00  0.0000000000000000e+00 0.0000000000000000e+00 0.0000000000000000e+00  0.0000000000000000e+00 0.0000000000000000e+00 0.0000000000000000e+00  1.0464012491148253e-11 -1.0095288596503207e-10 0.0000000000000000e+00  -1.9196506464143567e-11 -1.2025272290121393e-10 0.0000000000000000e+00  -2.4842047313824913e-11 -1.3393155732424232e-10 0.0000000000000000e+00  -4.7678556272329426e-11 -1.1358631891157881e-10 0.0000000000000000e+00  -4.7003882353281425e-11 -9.4456445924965561e-11 0.0000000000000000e+00  -7.5344375428807593e-11 -9.0748999312764700e-11 0.0000000000000000e+00  -6.3617532710621177e-11 2.5007195990646700e-11 0.0000000000000000e+00  -7.8713231831157299e-11 -6.7235235897747330e-12 0.0000000000000000e+00  -9.5889740890208889e-11 6.1966477239166216e-11 0.0000000000000000e+00  -8.9820530896899145e-11 1.0600165701550011e-10 0.0000000000000000e+00  -1.1147784432973925e-10 1.5959136880702163e-10 0.0000000000000000e+00  -1.0469096799907726e-10 2.1487729940424271e-10 0.0000000000000000e+00  -1.3090804265914059e-10 2.7730472600922871e-10 0.0000000000000000e+00  -1.1018186016629373e-10 3.3277727624299942e-10 0.0000000000000000e+00  -1.3266590057599544e-10 4.1178267581606607e-10 0.0000000000000000e+00  -1.3726541907546625e-10 4.6253025355403075e-10 0.0000000000000000e+00  -1.3641461421282826e-10 5.4180565174416913e-10 0.0000000000000000e+00  -1.4764771035966572e-10 6.0487280497106800e-10 0.0000000000000000e+00  -1.4635680114074391e-10 6.8106919522615494e-10 0.0000000000000000e+00  -1.5759731778363475e-10 7.5748876354837021e-10 0.0000000000000000e+00  -1.5712707945909708e-10 8.3354019085722714e-10 0.0000000000000000e+00  -1.7242148071739525e-10 9.5750250434540539e-10 0.0000000000000000e+00  -1.5057778647184573e-10 8.7751587017060951e-10 0.0000000000000000e+00  -1.7610168606689572e-10 1.1149882263463977e-09 0.0000000000000000e+00  -1.7633543704664857e-10 1.1506152179237458e-09 0.0000000000000000e+00  -1.7894676580164824e-10 1.2506572576770976e-09 0.0000000000000000e+00  -1.8280042042286333e-10 1.3169856562968825e-09 0.0000000000000000e+00  -1.8563914429250605e-10 1.4098067728776187e-09 0.0000000000000000e+00  -1.8920106848308286e-10 1.4922324869470150e-09 0.0000000000000000e+00  -1.9216172121678020e-10 1.5730206822926356e-09 0.0000000000000000e+00  -1.9564220512921084e-10 1.6652322418519417e-09 0.0000000000000000e+00  -1.9866525335203687e-10 1.7510860238800212e-09 0.0000000000000000e+00  -2.0209766514565332e-10 1.8314806928916542e-09 0.0000000000000000e+00  -2.0557033502107117e-10 1.9390454550582831e-09 0.0000000000000000e+00  -2.0894337554993285e-10 2.0229137684026762e-09 0.0000000000000000e+00  -2.1271064713816992e-10 2.1244092698980260e-09 0.0000000000000000e+00  -2.1654849135249623e-10 2.2200049623465364e-09 0.0000000000000000e+00  -2.2069199571513053e-10 2.3236646902961197e-09 0.0000000000000000e+00  -2.2583016676925446e-10 2.4477779440405894e-09 0.0000000000000000e+00  -2.3041442723337899e-10 2.5611039269517717e-09 0.0000000000000000e+00  -2.4315050420932624e-10 2.7983943655908297e-09 0.0000000000000000e+00  -2.1869135496960833e-10 2.3274066756347243e-09 0.0000000000000000e+00  -2.6131586200317083e-10 3.1624106480150104e-09 0.0000000000000000e+00  -2.7093752482663239e-10 3.3115675088742637e-09 0.0000000000000000e+00  -2.7996561035109159e-10 3.3078647835538921e-09 0.0000000000000000e+00  -2.0986920441858948e-10 4.1543198418707210e-09 0.0000000000000000e+00  -1.8268663168907303e-10 3.6689339563188588e-09 0.0000000000000000e+00  -7.2623097998952061e-11 4.2538712167202119e-09 0.0000000000000000e+00  -4.6598169617452673e-11 3.9575516519525011e-09 0.0000000000000000e+00  3.1289577745584141e-11 3.4513386276153294e-09 0.0000000000000000e+00  1.1031477998708913e-12 3.1351447309245594e-09 0.0000000000000000e+00  8.8723384361818268e-12 3.1963588859169734e-09 0.0000000000000000e+00  -1.8868356241153460e-11 2.3473052907449061e-09 0.0000000000000000e+00  2.9275183073920356e-12 2.8123246099342492e-09 0.0000000000000000e+00  -5.7731038854115010e-12 2.4769953446966132e-09 0.0000000000000000e+00  -3.2398520628544781e-12 2.3933448916448677e-09 0.0000000000000000e+00  -2.0810002473954084e-12 2.2828383662264925e-09 0.0000000000000000e+00  -2.5054425634429732e-13 2.1813018877717022e-09 0.0000000000000000e+00  1.6010441516221315e-12 2.0814947731782049e-09 0.0000000000000000e+00  4.0215908231908180e-12 1.9895070095634358e-09 0.0000000000000000e+00  6.1632427188708282e-12 1.8992200441056144e-09 0.0000000000000000e+00  8.9713279181563122e-12 1.8117891164872646e-09 0.0000000000000000e+00  1.0999943013453051e-11 1.7252050899513543e-09 0.0000000000000000e+00  1.4228976162971989e-11 1.6407917926220205e-09 0.0000000000000000e+00  1.5935024769424412e-11 1.5549217803688646e-09 0.0000000000000000e+00  1.9585981577165266e-11 1.4725919392268431e-09 0.0000000000000000e+00  2.0849078611271640e-11 1.3915757369848250e-09 0.0000000000000000e+00  2.4954306118054173e-11 1.3115698238441708e-09 0.0000000000000000e+00  2.5574674255703136e-11 1.2331377684937466e-09 0.0000000000000000e+00  2.9257524447345081e-11 1.1462213246978241e-09 0.0000000000000000e+00  3.5282842588299413e-11 1.1186375556002067e-09 0.0000000000000000e+00  2.3228644321324228e-11 8.9766682748803715e-10 0.0000000000000000e+00  4.3787134584391999e-11 9.6919309437674430e-10 0.0000000000000000e+00  3.9049236981648697e-11 8.6813929274001159e-10 0.0000000000000000e+00  4.3060406858596299e-11 7.8108543841011264e-10 0.0000000000000000e+00  4.2743520296456183e-11 7.1675591074753521e-10 0.0000000000000000e+00  4.6272397304602378e-11 6.2892038900175287e-10 0.0000000000000000e+00  4.4979541858141527e-11 5.6733873667444556e-10 0.0000000000000000e+00  4.9031654998275422e-11 4.8392909319513813e-10 0.0000000000000000e+00  4.7298092712996967e-11 4.3092324801645005e-10 0.0000000000000000e+00  3.3878877743218156e-11 3.4411939255541674e-10 0.0000000000000000e+00  5.5573253807241759e-11 2.9545947001652009e-10 0.0000000000000000e+00  4.3664750399695026e-11 2.2097323409865885e-10 0.0000000000000000e+00  4.7775945996574065e-11 1.6903538575616373e-10 0.0000000000000000e+00  4.1050759634514262e-11 1.1128181772500945e-10 0.0000000000000000e+00  4.6105257547071607e-11 6.0076374295163519e-11 0.0000000000000000e+00  3.4492575110061404e-11 4.3655593377687911e-12 0.0000000000000000e+00  2.5980793910576994e-11 3.3778781103469263e-11 0.0000000000000000e+00  4.1412186205690076e-11 -7.7179367150239420e-11 0.0000000000000000e+00  2.2505851054357302e-11 -9.4812741833996044e-11 0.0000000000000000e+00  2.7031891284002885e-11 -1.1633549128243300e-10 0.0000000000000000e+00  9.0943710282679013e-12 -1.1952673735483228e-10 0.0000000000000000e+00  1.2806474414195928e-11 -1.1150308665567905e-10 0.0000000000000000e+00  -9.6821405696767483e-12 -1.1393167045806735e-10 0.0000000000000000e+00  -4.3715424960665312e-12 -2.3425945656545613e-11 0.0000000000000000e+00  -1.1888679530997475e-10 2.2675449416667452e-09 0.0000000000000000e+00  -1.2424226618676816e-10 2.2334077240661827e-09 0.0000000000000000e+00  -1.1359859357218487e-10 1.9611358377713101e-09 0.0000000000000000e+00  -9.0919063717169368e-12 -1.1825539076177455e-11 0.0000000000000000e+00  -1.0698881073640074e-10 1.8071998301677632e-09 0.0000000000000000e+00  -1.3785263347039796e-11 2.0054619942325542e-11 0.0000000000000000e+00  -1.0120835193895289e-10 1.6711572414562115e-09 0.0000000000000000e+00  -2.1816224048696430e-11 1.1060992227521930e-10 0.0000000000000000e+00  -2.7503173077673327e-11 1.8404873399239651e-10 0.0000000000000000e+00  -9.5461212370324858e-11 1.5395269601344560e-09 0.0000000000000000e+00  -4.0583465260569480e-11 4.1469859745240908e-10 0.0000000000000000e+00  -8.3977201020448445e-11 1.2837079900912252e-09 0.0000000000000000e+00  -3.2148031261900653e-11 2.6487191374091601e-10 0.0000000000000000e+00  -4.6696759128932229e-11 5.1548262169626325e-10 0.0000000000000000e+00  -7.8262764323343857e-11 1.1587082831187185e-09 0.0000000000000000e+00  -8.9709816385871746e-11 1.4103895880720599e-09 0.0000000000000000e+00  -5.2385727697056981e-11 6.2452696743890713e-10 0.0000000000000000e+00  -7.2559443831485882e-11 1.0356743468063538e-09 0.0000000000000000e+00  -5.7189338399844565e-11 7.3743310546468689e-10 0.0000000000000000e+00  -6.7912066015573321e-11 9.2098631261972923e-10 0.0000000000000000e+00  -6.0742694300196814e-11 7.5058802995598655e-10 0.0000000000000000e+00  -3.6028288474987455e-11 3.3338691040317312e-10 0.0000000000000000e+00  -1.1510002440959384e-10 1.7675123474932016e-09 0.0000000000000000e+00  -1.7644704394277327e-11 1.0018598748754464e-10 0.0000000000000000e+00  -1.1563500466397020e-10 1.6729557595349958e-09 0.0000000000000000e+00  -3.2301554930533791e-12 4.3831981361581589e-11 0.0000000000000000e+00  -8.7984268593918728e-11 1.3897976177381549e-09 0.0000000000000000e+00  -9.4156257691564692e-11 1.4816233053990882e-09 0.0000000000000000e+00  -1.6706497976417350e-11 7.2097667184474995e-11 0.0000000000000000e+00  -3.0109973878363380e-11 1.8722434712771636e-10 0.0000000000000000e+00  -7.0330325609055235e-11 1.1112162683676548e-09 0.0000000000000000e+00  -8.1876521535905627e-11 1.2999442545311803e-09 0.0000000000000000e+00  -5.2065520020138649e-11 4.2900434062666388e-10 0.0000000000000000e+00  -6.4780235004933158e-11 1.0158654571391398e-09 0.0000000000000000e+00  -3.5978975381915103e-11 2.4867202791662158e-10 0.0000000000000000e+00  -5.8122467874048625e-11 5.1131425487820189e-10 0.0000000000000000e+00  -5.9378670161774699e-11 9.1998152959974783e-10 0.0000000000000000e+00  -7.6025838867410499e-11 1.2062452792329746e-09 0.0000000000000000e+00  -6.8876239791785017e-11 5.9872101683429053e-10 0.0000000000000000e+00  -5.3898610954151571e-11 8.2622793069741968e-10 0.0000000000000000e+00  -5.4525675716245201e-12 7.7913641807064392e-12 0.0000000000000000e+00  -2.2262621653026143e-13 1.1249071698008427e-11 0.0000000000000000e+00  -2.1372356661016160e-10 1.9986599056267470e-09 0.0000000000000000e+00  -1.1408284933817183e-11 4.1700163183169472e-11 0.0000000000000000e+00  -4.6283805812330233e-11 7.442813