<?xml version="1.0"?>
<VTKFile type="UnstructuredGrid"  version="0.1"  >
<UnstructuredGrid>
<Piece  NumberOfPoints="1419" NumberOfCells="2698">
<Points>
<DataArray  type="Float64"  NumberOfComponents="3"  format="ascii">0 0 0  0 0.41 0  2.5 0 0  2.5 0.41 0  0.6 0.19 0  0.6 0.21 0  0.25 0.2 0  0.15 0.2 0  0.2489897948556636 0.21 0  0.2489897948556636 0.19 0  0.6 0.2 0  0 0.3807142857143437 0  0 0.3514285714286952 0  0 0.3221428571430699 0  0 0.29285714285744 0  0 0.2635714285718054 0  0 0.2342857142861561 0  0 0.2050000000005308 0  0 0.175714285714732 0  0 0.1464285714289574 0  0 0.1171428571431897 0  0 0.08785714285737878 0  0 0.05857142857161107 0  0 0.02928571428580012 0  0.03015443760436003 0 0  0.06140001986583606 0 0  0.09377624077125973 0 0  0.1273239957535082 0 0  0.1620856860351972 0 0  0.1981052433264291 0 0  0.235428184091502 0 0  0.2741016576309132 0 0  0.3141745521465447 0 0  0.3556974926295285 0 0  0.3987229542472677 0 0  0.4433053055141081 0 0  0.4895008759286886 0 0  0.5373680609405097 0 0  0.5869673343216626 0 0  0.6383613676634521 0 0  0.6916151138468254 0 0  0.7467958595648856 0 0  0.8039733463919316 0 0  0.8632198139502143 0 0  0.9246101326867038 0 0  0.9882218810934433 0 0  1.054135445558498 0 0  1.122434100542598 0 0  1.193204177141305 0 0  1.266535089879536 0 0  1.342519516046404 0 0  1.421253448503939 0 0  1.502836389106271 0 0  1.587371439758838 0 0  1.674965418777374 0 0  1.765729001825544 0 0  1.859776908880082 0 0  1.957227977487062 0 0  2.058205329869943 0 0  2.162836591189951 0 0  2.271253957290865 0 0  2.383594446803425 0 0  2.5 0.1024999999997612 0  2.5 0.2049999999994743 0  2.5 0.3074999999997183 0  2.383594446803656 0.41 0  2.271253957291315 0.41 0  2.162836591190598 0.41 0  2.058205329870775 0.41 0  1.957227977488067 0.41 0  1.859776908881246 0.41 0  1.765729001826854 0.41 0  1.674965418778818 0.41 0  1.58737143976041 0.41 0  1.502836389107956 0.41 0  1.421253448505726 0.41 0  1.342519516048286 0.41 0  1.266535089881505 0.41 0  1.193204177143353 0.41 0  1.122434100544716 0.41 0  1.05413544556068 0.41 0  0.9882218810956305 0.41 0  0.9246101326886647 0.41 0  0.8632198139519631 0.41 0  0.8039733463934788 0.41 0  0.7467958595662458 0.41 0  0.6916151138480078 0.41 0  0.6383613676644679 0.41 0  0.5869673343225223 0.41 0  0.5373680609412221 0.41 0  0.4895008759292634 0.41 0  0.4433053055145528 0.41 0  0.3987229542475914 0.41 0  0.3556974926297398 0.41 0  0.3141745521466497 0.41 0  0.2741016576310038 0.41 0  0.2354281840915826 0.41 0  0.1981052433265003 0.41 0  0.1620856860352591 0.41 0  0.1273239957535623 0.41 0  0.09377624077128965 0.41 0  0.06140001986584975 0.41 0  0.03015443760436654 0.41 0  0.2497468076502589 0.2050254481002335 0  0.2497468076502614 0.1949745518997913 0  0.2469965252529372 0.1829317073451959 0  0.2439893735792749 0.1762316384219906 0  0.2400332147834255 0.1700443375285386 0  0.2352133972704371 0.1645032867342007 0  0.2296339016332438 0.1597280261969788 0  0.2234150974217223 0.1558215752574715 0  0.2166911463437691 0.1528682099456123 0  0.2096071079204251 0.1509316448471593 0  0.2023158100364996 0.1500536585536553 0  0.194974551899914 0.1502531923497262 0  0.1877417105387872 0.1515259415822739 0  0.1807733240461124 0.153844448527136 0  0.1742197252835808 0.15715869474974 0  0.1682222986673531 0.1613971801805478 0  0.162910430003803 0.1664684656256651 0  0.1583987151779087 0.1722631454351573 0  0.1547844879126891 0.178656207771761 0  0.1521457199348551 0.1855097315605723 0  0.1505393388476355 0.1926758619366523 0  0.1505393388476328 0.2073241380633295 0  0.1521457199348437 0.2144902684393899 0  0.1547844879126531 0.221343792228163 0  0.1583987151778488 0.2277368545647528 0  0.1629104300036858 0.2335315343742052 0  0.1682222986671726 0.2386028198193036 0  0.1742197252833576 0.2428413052501257 0  0.1807733240458683 0.2461555514727623 0  0.1877417105384929 0.2484740584176516 0  0.1949745518995776 0.2497468076502398 0  0.202315810036185 0.2499463414463592 0  0.2096071079201568 0.2490683551528932 0  0.2166911463435495 0.2471317900544655 0  0.2234150974215506 0.2441784247426195 0  0.2296339016331197 0.2402719738031125 0  0.2352133972703547 0.2354967132658811 0  0.2400332147833751 0.2299556624715287 0  0.2439893735792577 0.2237683615780412 0  0.246996525252926 0.2170682926548348 0  0.25645809709277 0.21 0  0.2639263993298655 0.21 0  0.271394701566961 0.21 0  0.2788630038040554 0.21 0  0.2863313060411479 0.21 0  0.2937996082782405 0.21 0  0.301267910515333 0.21 0  0.3087362127524279 0.21 0  0.3162045149895234 0.21 0  0.3236728172265972 0.21 0  0.3311411194636928 0.21 0  0.3386094217007701 0.21 0  0.3460777239378666 0.21 0  0.3535460261749672 0.21 0  0.3610143284120516 0.21 0  0.3684826306491596 0.21 0  0.3759509328862226 0.21 0  0.383419235123329 0.21 0  0.3908875373604028 0.21 0  0.3983558395975142 0.21 0  0.4058241418345938 0.21 0  0.4132924440716992 0.21 0  0.4207607463087888 0.21 0  0.4282290485459029 0.21 0  0.4356973507830418 0.21 0  0.4431656530201649 0.21 0  0.4506339552573136 0.21 0  0.4581022574944306 0.21 0  0.4655705597315852 0.21 0  0.4730388619686996 0.21 0  0.480507164205851 0.21 0  0.4879754664429498 0.21 0  0.4954437686800938 0.21 0  0.502912070917267 0.21 0  0.5103803731544119 0.21 0  0.5178486753915261 0.21 0  0.5253169776286404 0.21 0  0.5327852798657868 0.21 0  0.5402535821029386 0.21 0  0.54772188434007 0.21 0  0.5551901865771842 0.21 0  0.5626584888143201 0.21 0  0.5701267910514778 0.21 0  0.5775950932886138 0.21 0  0.5850633955257281 0.21 0  0.5925316977628483 0.21 0  0.6 0.2050000000000054 0  0.6 0.1950000000000217 0  0.5925316977628897 0.19 0  0.5850633955257988 0.19 0  0.5775950932887378 0.19 0  0.5701267910515998 0.19 0  0.5626584888145268 0.19 0  0.5551901865773963 0.19 0  0.547721884340339 0.19 0  0.5402535821032429 0.19 0  0.5327852798661811 0.19 0  0.5253169776290537 0.19 0  0.5178486753919799 0.19 0  0.5103803731549078 0.19 0  0.502912070917822 0.19 0  0.4954437686807294 0.19 0  0.4879754664436223 0.19 0  0.4805071642065402 0.19 0  0.4730388619694271 0.19 0  0.4655705597323621 0.19 0  0.4581022574952563 0.19 0  0.4506339552581777 0.19 0  0.4431656530210671 0.19 0  0.4356973507839815 0.19 0  0.4282290485468779 0.19 0  0.4207607463097617 0.19 0  0.4132924440726327 0.19 0  0.4058241418354857 0.19 0  0.3983558395983636 0.19 0  0.3908875373612097 0.19 0  0.3834192351240934 0.19 0  0.3759509328869369 0.19 0  0.3684826306498175 0.19 0  0.361014328412667 0.19 0  0.3535460261755617 0.19 0  0.3460777239384295 0.19 0  0.3386094217012945 0.19 0  0.3311411194641595 0.19 0  0.3236728172270245 0.19 0  0.3162045149898895 0.19 0  0.3087362127527544 0.19 0  0.3012679105156187 0.19 0  0.2937996082784807 0.19 0  0.2863313060413428 0.19 0  0.2788630038042048 0.19 0  0.2713947015670686 0.19 0  0.2639263993299336 0.19 0  0.2564580970927985 0.19 0  0.2607803159922026 0.2000727136295815 0  0.5887803774232762 0.2001272386983733 0  0.5745072403740523 0.2002044435018727 0  0.5511891430099709 0.2001122610077113 0  0.2751288526855082 0.20000000000002 0  0.5365194309847112 0.1999999999999436 0  0.2894621222999649 0.1998691686390484 0  0.5215828265105155 0.1999999999999228 0  0.3127789816668748 0.1998657885438805 0  0.3274069683451451 0.2000000000000796 0  0.5066462220363641 0.199999999999908 0  0.3650630746574081 0.199866017807523 0  0.476773013087985 0.1999999999998713 0  0.3417402379596385 0.1998691686391011 0  0.3796850840047755 0.200000000000134 0  0.4618364086138087 0.1999999999998546 0  0.4917096175621762 0.1999999999998808 0  0.3946216884789568 0.2000000000001512 0  0.446899804139621 0.1999999999998389 0  0.4089549580935208 0.1998691686391595 0  0.4322718174608562 0.200127451265745 0  0.4201487168029707 0.1999966199048527 0  0.3528922713220932 0.2000185703532356 0  0.5633122436674589 0.1999814296467508 0  0.3006558810093873 0.1999966199048318 0  0.5815926498168407 0.1966545283159175 0  0.2677053789419034 0.1964246479135325 0  0.5290511287476175 0.1970915826863981 0  0.5439877332217911 0.197091582686394 0  0.2825131256993216 0.2035478995978015 0  0.3199386661080599 0.202908417313604 0  0.4842413153250809 0.1970915826863873 0  0.5141145242734466 0.1970915826863843 0  0.3722167817676917 0.2029084173136195 0  0.4693047108508938 0.1970915826863783 0  0.3348752705822316 0.202908417313609 0  0.3871533862418661 0.2029084173136212 0  0.4543681063767183 0.1970915826863795 0  0.4991779197992749 0.1970915826863902 0  0.4020059614928624 0.203547899597858 0  0.4394315019025246 0.1970915826863714 0  0.2550657455369551 0.2034088125358657 0  0.2548908499171161 0.1966940311614271 0  0.5946539510196798 0.2024302972968126 0  0.267698176732111 0.2039977513680092 0  0.4261685417851465 0.196409292431739 0  0.3590076176283495 0.196411355804271 0  0.5571672426447437 0.2036011176410121 0  0.3066757059912147 0.1964092924317024 0  0.594380730180568 0.1966558399668133 0  0.4842413153245942 0.2040749161535287 0  0.4693047108503577 0.2040749161535231 0  0.3871533862424271 0.1959250838464788 0  0.372246743208829 0.1959123236376545 0  0.5141145242731028 0.2040749161535395 0  0.4543681063761134 0.2040749161535186 0  0.4019979587101454 0.1959834479682427 0  0.4394608940728603 0.2040870543693135 0  0.5439623148931173 0.2040856076781014 0  0.5290511287473298 0.2040749161535501 0  0.4991779197988497 0.2040749161535382 0  0.3347912413592433 0.1959225448935183 0  0.3199680582793816 0.1959123018030061 0  0.2825051229162361 0.1959834479681729 0  0.3590471196690275 0.2036304442587945 0  0.5571594006495384 0.1963685282145804 0  0.3067669986803285 0.203627750582736 0  0.4262598344738712 0.2036568242185335 0  0.5814408164431408 0.2041285596160068 0  0.5688286748170428 0.1961819304477386 0  0.4145905603063645 0.2038180695522843 0  0.3473758401724931 0.2038180695522752 0  0.2950977245128307 0.2038180695522663 0  0.5688286748170693 0.203818069552238 0  0.2950977245127906 0.1961819304477774 0  0.3473758401723931 0.1961819304478349 0  0.4145905603061963 0.1961819304479011 0  0.2601812407614425 0.2056861609747042
[...]
<PointData  Vectors="f_40-0"> 
<DataArray  type="Float64"  Name="f_40-0"  NumberOfComponents="3" format="ascii">0.0000000000000000e+00 0.0000000000000000e+00 0.0000000000000000e+00  0.0000000000000000e+00 0.0000000000000000e+00 0.0000000000000000e+00  0.0000000000000000e+00 0.0000000000000000e+00 0.0000000000000000e+00  0.0000000000000000e+00 0.0000000000000000e+00 0.0000000000000000e+00  -4.0276338243641143e-05 -1.3530492761802348e-03 0.0000000000000000e+00  5.8276140151540407e-05 -1.3522951502013697e-03 0.0000000000000000e+00  0.0000000000000000e+00 0.0000000000000000e+00 0.0000000000000000e+00  0.0000000000000000e+00 0.0000000000000000e+00 0.0000000000000000e+00  0.0000000000000000e+00 0.0000000000000000e+00 0.0000000000000000e+00  0.0000000000000000e+00 0.0000000000000000e+00 0.0000000000000000e+00  9.0046340934784763e-06 -1.3526885635456397e-03 0.0000000000000000e+00  7.9591836734548405e-01 0.0000000000000000e+00 0.0000000000000000e+00  1.4693877550994523e+00 0.0000000000000000e+00 0.0000000000000000e+00  2.0204081632617479e+00 0.0000000000000000e+00 0.0000000000000000e+00  2.4489795918330071e+00 0.0000000000000000e+00 0.0000000000000000e+00  2.7551020408131754e+00 0.0000000000000000e+00 0.0000000000000000e+00  2.9387755102022344e+00 0.0000000000000000e+00 0.0000000000000000e+00  3.0000000000000004e+00 0.0000000000000000e+00 0.0000000000000000e+00  2.9387755102059474e+00 0.0000000000000000e+00 0.0000000000000000e+00  2.7551020408195543e+00 0.0000000000000000e+00 0.0000000000000000e+00  2.4489795918409065e+00 0.0000000000000000e+00 0.0000000000000000e+00  2.0204081632692521e+00 0.0000000000000000e+00 0.0000000000000000e+00  1.4693877551058563e+00 0.0000000000000000e+00 0.0000000000000000e+00  7.9591836734909216e-01 0.0000000000000000e+00 0.0000000000000000e+00  0.0000000000000000e+00 0.0000000000000000e+00 0.0000000000000000e+00  0.0000000000000000e+00 0.0000000000000000e+00 0.0000000000000000e+00  0.0000000000000000e+00 0.0000000000000000e+00 0.0000000000000000e+00  0.0000000000000000e+00 0.0000000000000000e+00 0.0000000000000000e+00  0.0000000000000000e+00 0.0000000000000000e+00 0.0000000000000000e+00  0.0000000000000000e+00 0.0000000000000000e+00 0.0000000000000000e+00  0.0000000000000000e+00 0.0000000000000000e+00 0.0000000000000000e+00  0.0000000000000000e+00 0.0000000000000000e+00 0.0000000000000000e+00  0.0000000000000000e+00 0.0000000000000000e+00 0.0000000000000000e+00  0.0000000000000000e+00 0.0000000000000000e+00 0.0000000000000000e+00  0.0000000000000000e+00 0.0000000000000000e+00 0.0000000000000000e+00  0.0000000000000000e+00 0.0000000000000000e+00 0.0000000000000000e+00  0.0000000000000000e+00 0.0000000000000000e+00 0.0000000000000000e+00  0.0000000000000000e+00 0.0000000000000000e+00 0.0000000000000000e+00  0.0000000000000000e+00 0.0000000000000000e+00 0.0000000000000000e+00  0.0000000000000000e+00 0.0000000000000000e+00 0.0000000000000000e+00  0.0000000000000000e+00 0.0000000000000000e+00 0.0000000000000000e+00  0.0000000000000000e+00 0.0000000000000000e+00 0.0000000000000000e+00  0.0000000000000000e+00 0.0000000000000000e+00 0.0000000000000000e+00  0.0000000000000000e+00 0.0000000000000000e+00 0.0000000000000000e+00  0.0000000000000000e+00 0.0000000000000000e+00 0.0000000000000000e+00  0.0000000000000000e+00 0.0000000000000000e+00 0.0000000000000000e+00  0.0000000000000000e+00 0.0000000000000000e+00 0.0000000000000000e+00  0.0000000000000000e+00 0.0000000000000000e+00 0.0000000000000000e+00  0.0000000000000000e+00 0.0000000000000000e+00 0.0000000000000000e+00  0.0000000000000000e+00 0.0000000000000000e+00 0.0000000000000000e+00  0.0000000000000000e+00 0.0000000000000000e+00 0.0000000000000000e+00  0.0000000000000000e+00 0.0000000000000000e+00 0.0000000000000000e+00  0.0000000000000000e+00 0.0000000000000000e+00 0.0000000000000000e+00  0.0000000000000000e+00 0.0000000000000000e+00 0.0000000000000000e+00  0.0000000000000000e+00 0.0000000000000000e+00 0.0000000000000000e+00  0.0000000000000000e+00 0.0000000000000000e+00 0.0000000000000000e+00  0.0000000000000000e+00 0.0000000000000000e+00 0.0000000000000000e+00  0.0000000000000000e+00 0.0000000000000000e+00 0.0000000000000000e+00  0.0000000000000000e+00 0.0000000000000000e+00 0.0000000000000000e+00  0.0000000000000000e+00 0.0000000000000000e+00 0.0000000000000000e+00  0.0000000000000000e+00 0.0000000000000000e+00 0.0000000000000000e+00  0.0000000000000000e+00 0.0000000000000000e+00 0.0000000000000000e+00  2.5772411207992625e+00 2.0532518623666588e-03 0.0000000000000000e+00  2.5309853041522228e+00 8.5668293999572251e-03 0.0000000000000000e+00  2.7288475171954487e+00 5.4151106831483789e-02 0.0000000000000000e+00  0.0000000000000000e+00 0.0000000000000000e+00 0.0000000000000000e+00  0.0000000000000000e+00 0.0000000000000000e+00 0.0000000000000000e+00  0.0000000000000000e+00 0.0000000000000000e+00 0.0000000000000000e+00  0.0000000000000000e+00 0.0000000000000000e+00 0.0000000000000000e+00  0.0000000000000000e+00 0.0000000000000000e+00 0.0000000000000000e+00  0.0000000000000000e+00 0.0000000000000000e+00 0.0000000000000000e+00  0.0000000000000000e+00 0.0000000000000000e+00 0.0000000000000000e+00  0.0000000000000000e+00 0.0000000000000000e+00 0.0000000000000000e+00  0.0000000000000000e+00 0.0000000000000000e+00 0.0000000000000000e+00  0.0000000000000000e+00 0.0000000000000000e+00 0.0000000000000000e+00  0.0000000000000000e+00 0.0000000000000000e+00 0.0000000000000000e+00  0.0000000000000000e+00 0.0000000000000000e+00 0.0000000000000000e+00  0.0000000000000000e+00 0.0000000000000000e+00 0.0000000000000000e+00  0.0000000000000000e+00 0.0000000000000000e+00 0.0000000000000000e+00  0.0000000000000000e+00 0.0000000000000000e+00 0.0000000000000000e+00  0.0000000000000000e+00 0.0000000000000000e+00 0.0000000000000000e+00  0.0000000000000000e+00 0.0000000000000000e+00 0.0000000000000000e+00  0.0000000000000000e+00 0.0000000000000000e+00 0.0000000000000000e+00  0.0000000000000000e+00 0.0000000000000000e+00 0.0000000000000000e+00  0.0000000000000000e+00 0.0000000000000000e+00 0.0000000000000000e+00  0.0000000000000000e+00 0.0000000000000000e+00 0.0000000000000000e+00  0.0000000000000000e+00 0.0000000000000000e+00 0.0000000000000000e+00  0.0000000000000000e+00 0.0000000000000000e+00 0.0000000000000000e+00  0.0000000000000000e+00 0.0000000000000000e+00 0.0000000000000000e+00  0.0000000000000000e+00 0.0000000000000000e+00 0.0000000000000000e+00  0.0000000000000000e+00 0.0000000000000000e+00 0.0000000000000000e+00  0.0000000000000000e+00 0.0000000000000000e+00 0.0000000000000000e+00  0.0000000000000000e+00 0.0000000000000000e+00 0.0000000000000000e+00  0.0000000000000000e+00 0.0000000000000000e+00 0.0000000000000000e+00  0.0000000000000000e+00 0.0000000000000000e+00 0.0000000000000000e+00  0.0000000000000000e+00 0.0000000000000000e+00 0.0000000000000000e+00  0.0000000000000000e+00 0.0000000000000000e+00 0.0000000000000000e+00  0.0000000000000000e+00 0.0000000000000000e+00 0.0000000000000000e+00  0.0000000000000000e+00 0.0000000000000000e+00 0.0000000000000000e+00  0.0000000000000000e+00 0.0000000000000000e+00 0.0000000000000000e+00  0.0000000000000000e+00 0.0000000000000000e+00 0.0000000000000000e+00  0.0000000000000000e+00 0.0000000000000000e+00 0.0000000000000000e+00  0.0000000000000000e+00 0.0000000000000000e+00 0.0000000000000000e+00  0.0000000000000000e+00 0.0000000000000000e+00 0.0000000000000000e+00  0.0000000000000000e+00 0.0000000000000000e+00 0.0000000000000000e+00  0.0000000000000000e+00 0.0000000000000000e+00 0.0000000000000000e+00  0.0000000000000000e+00 0.0000000000000000e+00 0.0000000000000000e+00  0.0000000000000000e+00 0.0000000000000000e+00 0.0000000000000000e+00  0.0000000000000000e+00 0.0000000000000000e+00 0.0000000000000000e+00  0.0000000000000000e+00 0.0000000000000000e+00 0.0000000000000000e+00  0.0000000000000000e+00 0.0000000000000000e+00 0.0000000000000000e+00  0.0000000000000000e+00 0.0000000000000000e+00 0.0000000000000000e+00  0.0000000000000000e+00 0.0000000000000000e+00 0.0000000000000000e+00  0.0000000000000000e+00 0.0000000000000000e+00 0.0000000000000000e+00  0.0000000000000000e+00 0.0000000000000000e+00 0.0000000000000000e+00  0.0000000000000000e+00 0.0000000000000000e+00 0.0000000000000000e+00  0.0000000000000000e+00 0.0000000000000000e+00 0.0000000000000000e+00  0.0000000000000000e+00 0.0000000000000000e+00 0.0000000000000000e+00  0.0000000000000000e+00 0.0000000000000000e+00 0.0000000000000000e+00  0.0000000000000000e+00 0.0000000000000000e+00 0.0000000000000000e+00  0.0000000000000000e+00 0.0000000000000000e+00 0.0000000000000000e+00  0.0000000000000000e+00 0.0000000000000000e+00 0.0000000000000000e+00  0.0000000000000000e+00 0.0000000000000000e+00 0.0000000000000000e+00  0.0000000000000000e+00 0.0000000000000000e+00 0.0000000000000000e+00  0.0000000000000000e+00 0.0000000000000000e+00 0.0000000000000000e+00  0.0000000000000000e+00 0.0000000000000000e+00 0.0000000000000000e+00  0.0000000000000000e+00 0.0000000000000000e+00 0.0000000000000000e+00  0.0000000000000000e+00 0.0000000000000000e+00 0.0000000000000000e+00  0.0000000000000000e+00 0.0000000000000000e+00 0.0000000000000000e+00  0.0000000000000000e+00 0.0000000000000000e+00 0.0000000000000000e+00  0.0000000000000000e+00 0.0000000000000000e+00 0.0000000000000000e+00  0.0000000000000000e+00 0.0000000000000000e+00 0.0000000000000000e+00  0.0000000000000000e+00 0.0000000000000000e+00 0.0000000000000000e+00  0.0000000000000000e+00 0.0000000000000000e+00 0.0000000000000000e+00  0.0000000000000000e+00 0.0000000000000000e+00 0.0000000000000000e+00  0.0000000000000000e+00 0.0000000000000000e+00 0.0000000000000000e+00  0.0000000000000000e+00 0.0000000000000000e+00 0.0000000000000000e+00  0.0000000000000000e+00 0.0000000000000000e+00 0.0000000000000000e+00  0.0000000000000000e+00 0.0000000000000000e+00 0.0000000000000000e+00  0.0000000000000000e+00 0.0000000000000000e+00 0.0000000000000000e+00  0.0000000000000000e+00 0.0000000000000000e+00 0.0000000000000000e+00  0.0000000000000000e+00 0.0000000000000000e+00 0.0000000000000000e+00  0.0000000000000000e+00 0.0000000000000000e+00 0.0000000000000000e+00  3.1634271504623022e-06 -2.6573503331854870e-06 0.0000000000000000e+00  6.7132881301277873e-06 -6.5650262196111802e-06 0.0000000000000000e+00  9.7753304555086266e-06 -1.2903814078445281e-05 0.0000000000000000e+00  1.3059880710272644e-05 -2.1790677613055076e-05 0.0000000000000000e+00  1.5740976634491078e-05 -3.2758959043858970e-05 0.0000000000000000e+00  1.8771050005471322e-05 -4.5986362246870348e-05 0.0000000000000000e+00  2.1153065043524219e-05 -6.0861895366047850e-05 0.0000000000000000e+00  2.3437329962089657e-05 -7.7876278340210063e-05 0.0000000000000000e+00  2.6052316219061573e-05 -9.6480198675250498e-05 0.0000000000000000e+00  2.7997237340544590e-05 -1.1672035554920756e-04 0.0000000000000000e+00  3.0365543089164258e-05 -1.3853881149973905e-04 0.0000000000000000e+00  3.2106480478694626e-05 -1.6178444958229128e-04 0.0000000000000000e+00  3.4148620739496052e-05 -1.8638310813024977e-04 0.0000000000000000e+00  3.5744562195463389e-05 -2.1206124386062753e-04 0.0000000000000000e+00  3.7271004563548713e-05 -2.3904810247192505e-04 0.0000000000000000e+00  3.8979171679810539e-05 -2.6699530439751426e-04 0.0000000000000000e+00  4.0265009393330170e-05 -2.9591988213320054e-04 0.0000000000000000e+00  4.1773994351655161e-05 -3.2577107765185850e-04 0.0000000000000000e+00  4.2898604036724449e-05 -3.5643243930631838e-04 0.0000000000000000e+00  4.4189182572691354e-05 -3.8783536821769858e-04 0.0000000000000000e+00  4.5215673528416260e-05 -4.1993570202869150e-04 0.0000000000000000e+00  4.6315248774506433e-05 -4.5268601532412472e-04 0.0000000000000000e+00  4.7203705714157205e-05 -4.8590140700059545e-04 0.0000000000000000e+00  4.8041107111534360e-05 -5.1969966796587238e-04 0.0000000000000000e+00  4.8927402253768232e-05 -5.5387595690635700e-04 0.0000000000000000e+00  4.9669880258351916e-05 -5.8848596094418656e-04 0.0000000000000000e+00  5.0394765288704483e-05 -6.2345565373224149e-04 0.0000000000000000e+00  5.1037557784491724e-05 -6.5871305230137786e-04 0.0000000000000000e+00  5.1659808682109451e-05 -6.9425987510117048e-04 0.0000000000000000e+00  5.2215957598173107e-05 -7.3002130846926247e-04 0.0000000000000000e+00  5.2751848833067783e-05 -7.6600084787678069e-04 0.0000000000000000e+00  5.3234736987241578e-05 -8.0213516342512406e-04 0.0000000000000000e+00  5.3699020498562661e-05 -8.3842721741608003e-04 0.0000000000000000e+00  5.4121899187702438e-05 -8.7482580753023601e-04 0.0000000000000000e+00  5.4528376220088595e-05 -9.1133367644260816e-04 0.0000000000000000e+00  5.4903847006868715e-05 -9.4791076837471146e-04 0.0000000000000000e+00  5.5265650128698293e-05 -9.8455914142656456e-04 0.0000000000000000e+00  5.5605148398953940e-05 -1.0212489054600581e-03 0.0000000000000000e+00  5.5933868854060132e-05 -1.0579817773115326e-03 0.0000000000000000e+00  5.6247663496325094e-05 -1.0947366758874489e-03 0.0000000000000000e+00  5.6554299325859672e-05 -1.1315156568337029e-03 0.0000000000000000e+00  5.6850876518040251e-05 -1.1683037133475903e-03 0.0000000000000000e+00  5.7141537596839828e-05 -1.2051002805410383e-03 0.0000000000000000e+00  5.7430273581546249e-05 -1.2419009246137653e-03 0.0000000000000000e+00  5.7715080044423467e-05 -1.2787043473197791e-03 0.0000000000000000e+00  5.7998094343777225e-05 -1.3155073734788174e-03 0.0000000000000000e+00  3.3642788610455029e-05 -1.3524998809482927e-03 0.0000000000000000e+00  -1.5635404761547039e-05 -1.3528777290086585e-03 0.0000000000000000e+00  -4.0559127580966844e-05 -1.3162617435334700e-03 0.0000000000000000e+00  -4.0839165449178852e-05 -1.2794578931797098e-03 0.0000000000000000e+00  -4.1117747945559667e-05 -1.2426552208020252e-03 0.0000000000000000e+00  -4.1391234777757264e-05 -1.2058538482987132e-03 0.0000000000000000e+00  -4.1662317047758763e-05 -1.1690566101382328e-03 0.0000000000000000e+00  -4.1927520236425201e-05 -1.1322673168899725e-03 0.0000000000000000e+00  -4.2180932324184773e-05 -1.0954890330901257e-03 0.0000000000000000e+00  -4.2431190884058025e-05 -1.0587316378042129e-03 0.0000000000000000e+00  -4.2658162710929105e-05 -1.0219978409263608e-03 0.0000000000000000e+00  -4.2884722146754821e-05 -9.8530522372462944e-04 0.0000000000000000e+00  -4.3074552256720221e-05 -9.4865563893899911e-04 0.0000000000000000e+00  -4.3267036586287193e-05 -9.1207441714760793e-04 0.0000000000000000e+00  -4.3405511989693434e-05 -8.7556452378187162e-04 0.0000000000000000e+00  -4.3552029399735060e-05 -8.3916002570256468e-04 0.0000000000000000e+00  -4.3622822876672838e-05 -8.0286471969347867e-04 0.0000000000000000e+00  -4.3709763023685018e-05 -7.6672240163662441e-04 0.0000000000000000e+00  -4.3694759434489536e-05 -7.3073780260520850e-04 0.0000000000000000e+00  -4.3707268317775422e-05 -6.9496534635807208e-04 0.0000000000000000e+00  -4.3586639890026165e-05 -6.5941076925671500e-04 0.0000000000000000e+00  -4.3508448588795962e-05 -6.2413881000597917e-04 0.0000000000000000e+00  -4.3257182545471844e-05 -5.8915916478160884e-04 0.0000000000000000e+00  -4.3066024951335252e-05 -5.5454892765792951e-04 0.0000000000000000e+00  -4.2668845939954850e-05 -5.2033015809992004e-04 0.0000000000000000e+00  -4.2320113059601653e-05 -4.8652301427510491e-04 0.0000000000000000e+00  -4.1902007708847008e-05 -4.5329570668653209e-04 0.0000000000000000e+00  -4.1277686936209072e-05 -4.2050543833913365e-04 0.0000000000000000e+00  -4.0659955021952401e-05 -3.8841152068708955e-04 0.0000000000000000e+00  -3.9863650587619348e-05 -3.5694397596377543e-04 0.0000000000000000e+00  -3.9046215461652919e-05 -3.2627522632477983e-04 0.0000000000000000e+00  -3.8039509242587287e-05 -2.9638315483822671e-04 0.0000000000000000e+00  -3.7009732073983557e-05 -2.6739244535804350e-04 0.0000000000000000e+00  -3.5655424857832329e-05 -2.3946941381558398e-04 0.0000000000000000e+00  -3.4444014779530495e-05 -2.1243537200232732e-04 0.0000000000000000e+00  -3.3122957850040541e-05 -1.8674200447834651e-04 0.0000000000000000e+00  -3.1398622528967957e-05 -1.6201582093010024e-04 0.0000000000000000e+00  -2.9720569764544752e-05 -1.3878814488035314e-04 0.0000000000000000e+00  -2.7750910106955541e-05 -1.1691272977236477e-04 0.0000000000000000e+00  -2.5789860679170840e-05 -9.6573150829711214e-05 0.0000000000000000e+00  -2.3337134984141581e-05 -7.8025513388401329e-05 0.0000000000000000e+00  -2.1152605221992216e-05 -6.0948655690119320e-05 0.0000000000000000e+00  -1.8840410446781962e-05 -4.6045466589396545e-05 0.0000000000000000e+00  -1.5907344017716131e-05 -3.2720329027356737e-05 0.0000000000000000e+00  -1.3157366476234099e-05 -2.1694749688165137e-05 0.0000000000000000e+00  -9.8494468161041796e-06 -1.2904810369958724e-05 0.0000000000000000e+00  -6.8271957569096675e-06 -6.5137839951747275e-06 0.0000000000000000e+00  -3.2332359614902454e-06 -2.5618233289208079e-06 0.0000000000000000e+00  -2.1431624649749080e-08 -2.7991049879489818e-06 0.0000000000000000e+00  9.2070364707882087e-06 -1.2973940495891679e-03 0.0000000000000000e+00  9.0485313629266954e-06 -1.2270514562446554e-03 0.0000000000000000e+00  7.7163954613605530e-06 -1.1121689531501703e-03 0.0000000000000000e+00  -8.3129295091998790e-08 -1.5523830116852980e-05 0.0000000000000000e+00  6.6129581748642668e-06 -1.0399628554186898e-03 0.0000000000000000e+00  -2.7873784972776960e-07 -3.6653217925168176e-05 0.0000000000000000e+00  6.0524824169062497e-06 -9.6656144054828308e-04 0.0000000000000000e+00  -2.7348631961501896e-07 -8.6672155708703255e-05 0.0000000000000000e+00  2.1573965276751586e-07 -1.2659621695244251e-04 0.0000000000000000e+00  5.4937900283676052e-06 -8.9337748586320426e-04 0.0000000000000000e+00  3.8078575217265984e-07 -2.5360056574480711e-04 0.0000000000000000e+00  4.3886588429849871e-06 -7.4822244810046829e-04 0.0000000000000000e+00  2.1299024191854511e-09 -1.7120126129806682e-04 0.0000000000000000e+00  1.2364585653380505e-06 -3.1041880144257373e-04 0.0000000000000000e+00  3.8477864268726323e-06 -6.7663761364037864e-04 0.0000000000000000e+00  4.9383744696147838e-06 -8.2054091628763618e-04 0.0000000000000000e+00  1.6418147537696956e-06 -3.7184069279811327e-04 0.0000000000000000e+00  3.3175721845573330e-06 -6.0605023979099957e-04 0.0000000000000000e+00  1.4949411270347759e-06 -4.3347972945049622e-04 0.0000000000000000e+00  3.3996815306213605e-06 -5.3818620870989188e-04 0.0000000000000000e+00  2.4056463467063104e-06 -4.8321903099049506e-04 0.0000000000000000e+00  6.9396235337261282e-07 -2.0939143045142273e-04 0.0000000000000000e+00  7.5284234764740088e-06 -1.1718970414399132e-03 0.0000000000000000e+00  -3.5329964832962335e-08 -5.8701569303987273e-05 0.0000000000000000e+00  -8.1766169549428858e-06 -1.2621037025414650e-03 0.0000000000000000e+00  -3.0552308057620046e-06 -8.1095121666540953e-06 0.0000000000000000e+00  -7.9473215022785692e-06 -1.0033553671037721e-03 0.0000000000000000e+00  -7.4143344201701954e-06 -1.0768269091968547e-03 0.0000000000000000e+00  4.9931216842115914e-06 -2.5672102795510433e-05 0.0000000000000000e+00  7.9684602532088925e-06 -1.0557021144593000e-04 0.0000000000000000e+00  -9.3901461689694858e-06 -7.8442562823902108e-04 0.0000000000000000e+00  -8.4598914437578510e-06 -9.3005077080930850e-04 0.0000000000000000e+00  1.2275272024161887e-05 -2.8096922770275764e-04 0.0000000000000000e+00  -9.7865986474684104e-06 -7.1244744727529845e-04 0.0000000000000000e+00  9.2646264004508335e-06 -1.4929541527890320e-04 0.0000000000000000e+00  1.3315512423977128e-05 -3.4073892700265193e-04 0.0000000000000000e+00  -1.0121228767471848e-05 -6.4132834444634529e-04 0.0000000000000000e+00  -8.9441157694423549e-06 -8.5702426349024835e-04 0.0000000000000000e+00  1.7027882568676119e-05 -4.0326889156836078e-04 0.0000000000000000e+00  -1.0386159924216002e-05 -5.7135744388148873e-04 0.0000000000000000e+00  5.3186768841036294e-07 -6.2288890254127457e-07 0.0000000000000000e+00  -5.2504449346773052e-07 -5.5132224856661490e-07 0.0000000000000000e+00  2.0778201066928186e-05 -1.3262535990393634e-03 0.0000000000000000e+00  3.25935627054