<?xml version="1.0"?>
<VTKFile type="UnstructuredGrid"  version="0.1"  >
<UnstructuredGrid>
<Piece  NumberOfPoints="1419" NumberOfCells="2698">
<Points>
<DataArray  type="Float64"  NumberOfComponents="3"  format="ascii">0 0 0  0 0.41 0  2.5 0 0  2.5 0.41 0  0.6 0.19 0  0.6 0.21 0  0.25 0.2 0  0.15 0.2 0  0.2489897948556636 0.21 0  0.2489897948556636 0.19 0  0.6 0.2 0  0 0.3807142857143437 0  0 0.3514285714286952 0  0 0.3221428571430699 0  0 0.29285714285744 0  0 0.2635714285718054 0  0 0.2342857142861561 0  0 0.2050000000005308 0  0 0.175714285714732 0  0 0.1464285714289574 0  0 0.1171428571431897 0  0 0.08785714285737878 0  0 0.05857142857161107 0  0 0.02928571428580012 0  0.03015443760436003 0 0  0.06140001986583606 0 0  0.09377624077125973 0 0  0.1273239957535082 0 0  0.1620856860351972 0 0  0.1981052433264291 0 0  0.235428184091502 0 0  0.2741016576309132 0 0  0.3141745521465447 0 0  0.3556974926295285 0 0  0.3987229542472677 0 0  0.4433053055141081 0 0  0.4895008759286886 0 0  0.5373680609405097 0 0  0.5869673343216626 0 0  0.6383613676634521 0 0  0.6916151138468254 0 0  0.7467958595648856 0 0  0.8039733463919316 0 0  0.8632198139502143 0 0  0.9246101326867038 0 0  0.9882218810934433 0 0  1.054135445558498 0 0  1.122434100542598 0 0  1.193204177141305 0 0  1.266535089879536 0 0  1.342519516046404 0 0  1.421253448503939 0 0  1.502836389106271 0 0  1.587371439758838 0 0  1.674965418777374 0 0  1.765729001825544 0 0  1.859776908880082 0 0  1.957227977487062 0 0  2.058205329869943 0 0  2.162836591189951 0 0  2.271253957290865 0 0  2.383594446803425 0 0  2.5 0.1024999999997612 0  2.5 0.2049999999994743 0  2.5 0.3074999999997183 0  2.383594446803656 0.41 0  2.271253957291315 0.41 0  2.162836591190598 0.41 0  2.058205329870775 0.41 0  1.957227977488067 0.41 0  1.859776908881246 0.41 0  1.765729001826854 0.41 0  1.674965418778818 0.41 0  1.58737143976041 0.41 0  1.502836389107956 0.41 0  1.421253448505726 0.41 0  1.342519516048286 0.41 0  1.266535089881505 0.41 0  1.193204177143353 0.41 0  1.122434100544716 0.41 0  1.05413544556068 0.41 0  0.9882218810956305 0.41 0  0.9246101326886647 0.41 0  0.8632198139519631 0.41 0  0.8039733463934788 0.41 0  0.7467958595662458 0.41 0  0.6916151138480078 0.41 0  0.6383613676644679 0.41 0  0.5869673343225223 0.41 0  0.5373680609412221 0.41 0  0.4895008759292634 0.41 0  0.4433053055145528 0.41 0  0.3987229542475914 0.41 0  0.3556974926297398 0.41 0  0.3141745521466497 0.41 0  0.2741016576310038 0.41 0  0.2354281840915826 0.41 0  0.1981052433265003 0.41 0  0.1620856860352591 0.41 0  0.1273239957535623 0.41 0  0.09377624077128965 0.41 0  0.06140001986584975 0.41 0  0.03015443760436654 0.41 0  0.2497468076502589 0.2050254481002335 0  0.2497468076502614 0.1949745518997913 0  0.2469965252529372 0.1829317073451959 0  0.2439893735792749 0.1762316384219906 0  0.2400332147834255 0.1700443375285386 0  0.2352133972704371 0.1645032867342007 0  0.2296339016332438 0.1597280261969788 0  0.2234150974217223 0.1558215752574715 0  0.2166911463437691 0.1528682099456123 0  0.2096071079204251 0.1509316448471593 0  0.2023158100364996 0.1500536585536553 0  0.194974551899914 0.1502531923497262 0  0.1877417105387872 0.1515259415822739 0  0.1807733240461124 0.153844448527136 0  0.1742197252835808 0.15715869474974 0  0.1682222986673531 0.1613971801805478 0  0.162910430003803 0.1664684656256651 0  0.1583987151779087 0.1722631454351573 0  0.1547844879126891 0.178656207771761 0  0.1521457199348551 0.1855097315605723 0  0.1505393388476355 0.1926758619366523 0  0.1505393388476328 0.2073241380633295 0  0.1521457199348437 0.2144902684393899 0  0.1547844879126531 0.221343792228163 0  0.1583987151778488 0.2277368545647528 0  0.1629104300036858 0.2335315343742052 0  0.1682222986671726 0.2386028198193036 0  0.1742197252833576 0.2428413052501257 0  0.1807733240458683 0.2461555514727623 0  0.1877417105384929 0.2484740584176516 0  0.1949745518995776 0.2497468076502398 0  0.202315810036185 0.2499463414463592 0  0.2096071079201568 0.2490683551528932 0  0.2166911463435495 0.2471317900544655 0  0.2234150974215506 0.2441784247426195 0  0.2296339016331197 0.2402719738031125 0  0.2352133972703547 0.2354967132658811 0  0.2400332147833751 0.2299556624715287 0  0.2439893735792577 0.2237683615780412 0  0.246996525252926 0.2170682926548348 0  0.25645809709277 0.21 0  0.2639263993298655 0.21 0  0.271394701566961 0.21 0  0.2788630038040554 0.21 0  0.2863313060411479 0.21 0  0.2937996082782405 0.21 0  0.301267910515333 0.21 0  0.3087362127524279 0.21 0  0.3162045149895234 0.21 0  0.3236728172265972 0.21 0  0.3311411194636928 0.21 0  0.3386094217007701 0.21 0  0.3460777239378666 0.21 0  0.3535460261749672 0.21 0  0.3610143284120516 0.21 0  0.3684826306491596 0.21 0  0.3759509328862226 0.21 0  0.383419235123329 0.21 0  0.3908875373604028 0.21 0  0.3983558395975142 0.21 0  0.4058241418345938 0.21 0  0.4132924440716992 0.21 0  0.4207607463087888 0.21 0  0.4282290485459029 0.21 0  0.4356973507830418 0.21 0  0.4431656530201649 0.21 0  0.4506339552573136 0.21 0  0.4581022574944306 0.21 0  0.4655705597315852 0.21 0  0.4730388619686996 0.21 0  0.480507164205851 0.21 0  0.4879754664429498 0.21 0  0.4954437686800938 0.21 0  0.502912070917267 0.21 0  0.5103803731544119 0.21 0  0.5178486753915261 0.21 0  0.5253169776286404 0.21 0  0.5327852798657868 0.21 0  0.5402535821029386 0.21 0  0.54772188434007 0.21 0  0.5551901865771842 0.21 0  0.5626584888143201 0.21 0  0.5701267910514778 0.21 0  0.5775950932886138 0.21 0  0.5850633955257281 0.21 0  0.5925316977628483 0.21 0  0.6 0.2050000000000054 0  0.6 0.1950000000000217 0  0.5925316977628897 0.19 0  0.5850633955257988 0.19 0  0.5775950932887378 0.19 0  0.5701267910515998 0.19 0  0.5626584888145268 0.19 0  0.5551901865773963 0.19 0  0.547721884340339 0.19 0  0.5402535821032429 0.19 0  0.5327852798661811 0.19 0  0.5253169776290537 0.19 0  0.5178486753919799 0.19 0  0.5103803731549078 0.19 0  0.502912070917822 0.19 0  0.4954437686807294 0.19 0  0.4879754664436223 0.19 0  0.4805071642065402 0.19 0  0.4730388619694271 0.19 0  0.4655705597323621 0.19 0  0.4581022574952563 0.19 0  0.4506339552581777 0.19 0  0.4431656530210671 0.19 0  0.4356973507839815 0.19 0  0.4282290485468779 0.19 0  0.4207607463097617 0.19 0  0.4132924440726327 0.19 0  0.4058241418354857 0.19 0  0.3983558395983636 0.19 0  0.3908875373612097 0.19 0  0.3834192351240934 0.19 0  0.3759509328869369 0.19 0  0.3684826306498175 0.19 0  0.361014328412667 0.19 0  0.3535460261755617 0.19 0  0.3460777239384295 0.19 0  0.3386094217012945 0.19 0  0.3311411194641595 0.19 0  0.3236728172270245 0.19 0  0.3162045149898895 0.19 0  0.3087362127527544 0.19 0  0.3012679105156187 0.19 0  0.2937996082784807 0.19 0  0.2863313060413428 0.19 0  0.2788630038042048 0.19 0  0.2713947015670686 0.19 0  0.2639263993299336 0.19 0  0.2564580970927985 0.19 0  0.2607803159922026 0.2000727136295815 0  0.5887803774232762 0.2001272386983733 0  0.5745072403740523 0.2002044435018727 0  0.5511891430099709 0.2001122610077113 0  0.2751288526855082 0.20000000000002 0  0.5365194309847112 0.1999999999999436 0  0.2894621222999649 0.1998691686390484 0  0.5215828265105155 0.1999999999999228 0  0.3127789816668748 0.1998657885438805 0  0.3274069683451451 0.2000000000000796 0  0.5066462220363641 0.199999999999908 0  0.3650630746574081 0.199866017807523 0  0.476773013087985 0.1999999999998713 0  0.3417402379596385 0.1998691686391011 0  0.3796850840047755 0.200000000000134 0  0.4618364086138087 0.1999999999998546 0  0.4917096175621762 0.1999999999998808 0  0.3946216884789568 0.2000000000001512 0  0.446899804139621 0.1999999999998389 0  0.4089549580935208 0.1998691686391595 0  0.4322718174608562 0.200127451265745 0  0.4201487168029707 0.1999966199048527 0  0.3528922713220932 0.2000185703532356 0  0.5633122436674589 0.1999814296467508 0  0.3006558810093873 0.1999966199048318 0  0.5815926498168407 0.1966545283159175 0  0.2677053789419034 0.1964246479135325 0  0.5290511287476175 0.1970915826863981 0  0.5439877332217911 0.197091582686394 0  0.2825131256993216 0.2035478995978015 0  0.3199386661080599 0.202908417313604 0  0.4842413153250809 0.1970915826863873 0  0.5141145242734466 0.1970915826863843 0  0.3722167817676917 0.2029084173136195 0  0.4693047108508938 0.1970915826863783 0  0.3348752705822316 0.202908417313609 0  0.3871533862418661 0.2029084173136212 0  0.4543681063767183 0.1970915826863795 0  0.4991779197992749 0.1970915826863902 0  0.4020059614928624 0.203547899597858 0  0.4394315019025246 0.1970915826863714 0  0.2550657455369551 0.2034088125358657 0  0.2548908499171161 0.1966940311614271 0  0.5946539510196798 0.2024302972968126 0  0.267698176732111 0.2039977513680092 0  0.4261685417851465 0.196409292431739 0  0.3590076176283495 0.196411355804271 0  0.5571672426447437 0.2036011176410121 0  0.3066757059912147 0.1964092924317024 0  0.594380730180568 0.1966558399668133 0  0.4842413153245942 0.2040749161535287 0  0.4693047108503577 0.2040749161535231 0  0.3871533862424271 0.1959250838464788 0  0.372246743208829 0.1959123236376545 0  0.5141145242731028 0.2040749161535395 0  0.4543681063761134 0.2040749161535186 0  0.4019979587101454 0.1959834479682427 0  0.4394608940728603 0.2040870543693135 0  0.5439623148931173 0.2040856076781014 0  0.5290511287473298 0.2040749161535501 0  0.4991779197988497 0.2040749161535382 0  0.3347912413592433 0.1959225448935183 0  0.3199680582793816 0.1959123018030061 0  0.2825051229162361 0.1959834479681729 0  0.3590471196690275 0.2036304442587945 0  0.5571594006495384 0.1963685282145804 0  0.3067669986803285 0.203627750582736 0  0.4262598344738712 0.2036568242185335 0  0.5814408164431408 0.2041285596160068 0  0.5688286748170428 0.1961819304477386 0  0.4145905603063645 0.2038180695522843 0  0.3473758401724931 0.2038180695522752 0  0.2950977245128307 0.2038180695522663 0  0.5688286748170693 0.203818069552238 0  0.2950977245127906 0.1961819304477774 0  0.3473758401723931 0.1961819304478349 0  0.4145905603061963 0.1961819304479011 0  0.2601812407614425 0.2056861609747042
[...]
<PointData  Vectors="f_40-0"> 
<DataArray  type="Float64"  Name="f_40-0"  NumberOfComponents="3" format="ascii">0.0000000000000000e+00 0.0000000000000000e+00 0.0000000000000000e+00  0.0000000000000000e+00 0.0000000000000000e+00 0.0000000000000000e+00  0.0000000000000000e+00 0.0000000000000000e+00 0.0000000000000000e+00  0.0000000000000000e+00 0.0000000000000000e+00 0.0000000000000000e+00  1.4410924820580567e-04 3.2560295654888776e-03 0.0000000000000000e+00  -1.1040044802806797e-04 3.2606216765956987e-03 0.0000000000000000e+00  0.0000000000000000e+00 0.0000000000000000e+00 0.0000000000000000e+00  0.0000000000000000e+00 0.0000000000000000e+00 0.0000000000000000e+00  0.0000000000000000e+00 0.0000000000000000e+00 0.0000000000000000e+00  0.0000000000000000e+00 0.0000000000000000e+00 0.0000000000000000e+00  1.7266236039418815e-05 3.2583021199802022e-03 0.0000000000000000e+00  7.5805672573167171e-01 0.0000000000000000e+00 0.0000000000000000e+00  1.3994893398124097e+00 0.0000000000000000e+00 0.0000000000000000e+00  1.9242978422420638e+00 0.0000000000000000e+00 0.0000000000000000e+00  2.3324822330212411e+00 0.0000000000000000e+00 0.0000000000000000e+00  2.6240425121498889e+00 0.0000000000000000e+00 0.0000000000000000e+00  2.7989786796279903e+00 0.0000000000000000e+00 0.0000000000000000e+00  2.8572907354553698e+00 0.0000000000000000e+00 0.0000000000000000e+00  2.7989786796315270e+00 0.0000000000000000e+00 0.0000000000000000e+00  2.6240425121559645e+00 0.0000000000000000e+00 0.0000000000000000e+00  2.3324822330287645e+00 0.0000000000000000e+00 0.0000000000000000e+00  1.9242978422492107e+00 0.0000000000000000e+00 0.0000000000000000e+00  1.3994893398185089e+00 0.0000000000000000e+00 0.0000000000000000e+00  7.5805672573510818e-01 0.0000000000000000e+00 0.0000000000000000e+00  0.0000000000000000e+00 0.0000000000000000e+00 0.0000000000000000e+00  0.0000000000000000e+00 0.0000000000000000e+00 0.0000000000000000e+00  0.0000000000000000e+00 0.0000000000000000e+00 0.0000000000000000e+00  0.0000000000000000e+00 0.0000000000000000e+00 0.0000000000000000e+00  0.0000000000000000e+00 0.0000000000000000e+00 0.0000000000000000e+00  0.0000000000000000e+00 0.0000000000000000e+00 0.0000000000000000e+00  0.0000000000000000e+00 0.0000000000000000e+00 0.0000000000000000e+00  0.0000000000000000e+00 0.0000000000000000e+00 0.0000000000000000e+00  0.0000000000000000e+00 0.0000000000000000e+00 0.0000000000000000e+00  0.0000000000000000e+00 0.0000000000000000e+00 0.0000000000000000e+00  0.0000000000000000e+00 0.0000000000000000e+00 0.0000000000000000e+00  0.0000000000000000e+00 0.0000000000000000e+00 0.0000000000000000e+00  0.0000000000000000e+00 0.0000000000000000e+00 0.0000000000000000e+00  0.0000000000000000e+00 0.0000000000000000e+00 0.0000000000000000e+00  0.0000000000000000e+00 0.0000000000000000e+00 0.0000000000000000e+00  0.0000000000000000e+00 0.0000000000000000e+00 0.0000000000000000e+00  0.0000000000000000e+00 0.0000000000000000e+00 0.0000000000000000e+00  0.0000000000000000e+00 0.0000000000000000e+00 0.0000000000000000e+00  0.0000000000000000e+00 0.0000000000000000e+00 0.0000000000000000e+00  0.0000000000000000e+00 0.0000000000000000e+00 0.0000000000000000e+00  0.0000000000000000e+00 0.0000000000000000e+00 0.0000000000000000e+00  0.0000000000000000e+00 0.0000000000000000e+00 0.0000000000000000e+00  0.0000000000000000e+00 0.0000000000000000e+00 0.0000000000000000e+00  0.0000000000000000e+00 0.0000000000000000e+00 0.0000000000000000e+00  0.0000000000000000e+00 0.0000000000000000e+00 0.0000000000000000e+00  0.0000000000000000e+00 0.0000000000000000e+00 0.0000000000000000e+00  0.0000000000000000e+00 0.0000000000000000e+00 0.0000000000000000e+00  0.0000000000000000e+00 0.0000000000000000e+00 0.0000000000000000e+00  0.0000000000000000e+00 0.0000000000000000e+00 0.0000000000000000e+00  0.0000000000000000e+00 0.0000000000000000e+00 0.0000000000000000e+00  0.0000000000000000e+00 0.0000000000000000e+00 0.0000000000000000e+00  0.0000000000000000e+00 0.0000000000000000e+00 0.0000000000000000e+00  0.0000000000000000e+00 0.0000000000000000e+00 0.0000000000000000e+00  0.0000000000000000e+00 0.0000000000000000e+00 0.0000000000000000e+00  0.0000000000000000e+00 0.0000000000000000e+00 0.0000000000000000e+00  0.0000000000000000e+00 0.0000000000000000e+00 0.0000000000000000e+00  0.0000000000000000e+00 0.0000000000000000e+00 0.0000000000000000e+00  0.0000000000000000e+00 0.0000000000000000e+00 0.0000000000000000e+00  2.5406937851793554e+00 -1.3137156305511632e-02 0.0000000000000000e+00  2.3669102819577450e+00 1.2745399129235523e-02 0.0000000000000000e+00  2.5147818307980292e+00 7.1304752812561309e-02 0.0000000000000000e+00  0.0000000000000000e+00 0.0000000000000000e+00 0.0000000000000000e+00  0.0000000000000000e+00 0.0000000000000000e+00 0.0000000000000000e+00  0.0000000000000000e+00 0.0000000000000000e+00 0.0000000000000000e+00  0.0000000000000000e+00 0.0000000000000000e+00 0.0000000000000000e+00  0.0000000000000000e+00 0.0000000000000000e+00 0.0000000000000000e+00  0.0000000000000000e+00 0.0000000000000000e+00 0.0000000000000000e+00  0.0000000000000000e+00 0.0000000000000000e+00 0.0000000000000000e+00  0.0000000000000000e+00 0.0000000000000000e+00 0.0000000000000000e+00  0.0000000000000000e+00 0.0000000000000000e+00 0.0000000000000000e+00  0.0000000000000000e+00 0.0000000000000000e+00 0.0000000000000000e+00  0.0000000000000000e+00 0.0000000000000000e+00 0.0000000000000000e+00  0.0000000000000000e+00 0.0000000000000000e+00 0.0000000000000000e+00  0.0000000000000000e+00 0.0000000000000000e+00 0.0000000000000000e+00  0.0000000000000000e+00 0.0000000000000000e+00 0.0000000000000000e+00  0.0000000000000000e+00 0.0000000000000000e+00 0.0000000000000000e+00  0.0000000000000000e+00 0.0000000000000000e+00 0.0000000000000000e+00  0.0000000000000000e+00 0.0000000000000000e+00 0.0000000000000000e+00  0.0000000000000000e+00 0.0000000000000000e+00 0.0000000000000000e+00  0.0000000000000000e+00 0.0000000000000000e+00 0.0000000000000000e+00  0.0000000000000000e+00 0.0000000000000000e+00 0.0000000000000000e+00  0.0000000000000000e+00 0.0000000000000000e+00 0.0000000000000000e+00  0.0000000000000000e+00 0.0000000000000000e+00 0.0000000000000000e+00  0.0000000000000000e+00 0.0000000000000000e+00 0.0000000000000000e+00  0.0000000000000000e+00 0.0000000000000000e+00 0.0000000000000000e+00  0.0000000000000000e+00 0.0000000000000000e+00 0.0000000000000000e+00  0.0000000000000000e+00 0.0000000000000000e+00 0.0000000000000000e+00  0.0000000000000000e+00 0.0000000000000000e+00 0.0000000000000000e+00  0.0000000000000000e+00 0.0000000000000000e+00 0.0000000000000000e+00  0.0000000000000000e+00 0.0000000000000000e+00 0.0000000000000000e+00  0.0000000000000000e+00 0.0000000000000000e+00 0.0000000000000000e+00  0.0000000000000000e+00 0.0000000000000000e+00 0.0000000000000000e+00  0.0000000000000000e+00 0.0000000000000000e+00 0.0000000000000000e+00  0.0000000000000000e+00 0.0000000000000000e+00 0.0000000000000000e+00  0.0000000000000000e+00 0.0000000000000000e+00 0.0000000000000000e+00  0.0000000000000000e+00 0.0000000000000000e+00 0.0000000000000000e+00  0.0000000000000000e+00 0.0000000000000000e+00 0.0000000000000000e+00  0.0000000000000000e+00 0.0000000000000000e+00 0.0000000000000000e+00  0.0000000000000000e+00 0.0000000000000000e+00 0.0000000000000000e+00  0.0000000000000000e+00 0.0000000000000000e+00 0.0000000000000000e+00  0.0000000000000000e+00 0.0000000000000000e+00 0.0000000000000000e+00  0.0000000000000000e+00 0.0000000000000000e+00 0.0000000000000000e+00  0.0000000000000000e+00 0.0000000000000000e+00 0.0000000000000000e+00  0.0000000000000000e+00 0.0000000000000000e+00 0.0000000000000000e+00  0.0000000000000000e+00 0.0000000000000000e+00 0.0000000000000000e+00  0.0000000000000000e+00 0.0000000000000000e+00 0.0000000000000000e+00  0.0000000000000000e+00 0.0000000000000000e+00 0.0000000000000000e+00  0.0000000000000000e+00 0.0000000000000000e+00 0.0000000000000000e+00  0.0000000000000000e+00 0.0000000000000000e+00 0.0000000000000000e+00  0.0000000000000000e+00 0.0000000000000000e+00 0.0000000000000000e+00  0.0000000000000000e+00 0.0000000000000000e+00 0.0000000000000000e+00  0.0000000000000000e+00 0.0000000000000000e+00 0.0000000000000000e+00  0.0000000000000000e+00 0.0000000000000000e+00 0.0000000000000000e+00  0.0000000000000000e+00 0.0000000000000000e+00 0.0000000000000000e+00  0.0000000000000000e+00 0.0000000000000000e+00 0.0000000000000000e+00  0.0000000000000000e+00 0.0000000000000000e+00 0.0000000000000000e+00  0.0000000000000000e+00 0.0000000000000000e+00 0.0000000000000000e+00  0.0000000000000000e+00 0.0000000000000000e+00 0.0000000000000000e+00  0.0000000000000000e+00 0.0000000000000000e+00 0.0000000000000000e+00  0.0000000000000000e+00 0.0000000000000000e+00 0.0000000000000000e+00  0.0000000000000000e+00 0.0000000000000000e+00 0.0000000000000000e+00  0.0000000000000000e+00 0.0000000000000000e+00 0.0000000000000000e+00  0.0000000000000000e+00 0.0000000000000000e+00 0.0000000000000000e+00  0.0000000000000000e+00 0.0000000000000000e+00 0.0000000000000000e+00  0.0000000000000000e+00 0.0000000000000000e+00 0.0000000000000000e+00  0.0000000000000000e+00 0.0000000000000000e+00 0.0000000000000000e+00  0.0000000000000000e+00 0.0000000000000000e+00 0.0000000000000000e+00  0.0000000000000000e+00 0.0000000000000000e+00 0.0000000000000000e+00  0.0000000000000000e+00 0.0000000000000000e+00 0.0000000000000000e+00  0.0000000000000000e+00 0.0000000000000000e+00 0.0000000000000000e+00  0.0000000000000000e+00 0.0000000000000000e+00 0.0000000000000000e+00  0.0000000000000000e+00 0.0000000000000000e+00 0.0000000000000000e+00  0.0000000000000000e+00 0.0000000000000000e+00 0.0000000000000000e+00  0.0000000000000000e+00 0.0000000000000000e+00 0.0000000000000000e+00  0.0000000000000000e+00 0.0000000000000000e+00 0.0000000000000000e+00  0.0000000000000000e+00 0.0000000000000000e+00 0.0000000000000000e+00  0.0000000000000000e+00 0.0000000000000000e+00 0.0000000000000000e+00  0.0000000000000000e+00 0.0000000000000000e+00 0.0000000000000000e+00  0.0000000000000000e+00 0.0000000000000000e+00 0.0000000000000000e+00  -4.7914319534084966e-06 8.7672743591877454e-06 0.0000000000000000e+00  -1.0626490131883652e-05 1.5602622210281874e-05 0.0000000000000000e+00  -1.6047436715442554e-05 2.6788090607888639e-05 0.0000000000000000e+00  -2.2264205956751486e-05 4.2675095612510321e-05 0.0000000000000000e+00  -2.7538969439152319e-05 6.2851779164522749e-05 0.0000000000000000e+00  -3.3772460582650715e-05 8.7762230073729739e-05 0.0000000000000000e+00  -3.8780212835068883e-05 1.1628517158992855e-04 0.0000000000000000e+00  -4.3740475091600166e-05 1.4963424536708613e-04 0.0000000000000000e+00  -4.9646153613793905e-05 1.8671305159509910e-04 0.0000000000000000e+00  -5.4116991602602751e-05 2.2779456233154729e-04 0.0000000000000000e+00  -5.9807508845661955e-05 2.7283309307825007e-04 0.0000000000000000e+00  -6.4021461112644679e-05 3.2164168092433168e-04 0.0000000000000000e+00  -6.9185707992890926e-05 3.7410944862158342e-04 0.0000000000000000e+00  -7.3226209812403569e-05 4.2961307024869149e-04 0.0000000000000000e+00  -7.7160681330269818e-05 4.8889645555486440e-04 0.0000000000000000e+00  -8.1728458455702601e-05 5.5105585172670593e-04 0.0000000000000000e+00  -8.5104418293694662e-05 6.1622156378126529e-04 0.0000000000000000e+00  -8.9252639246895589e-05 6.8431336351300765e-04 0.0000000000000000e+00  -9.2229288327318131e-05 7.5504985945557229e-04 0.0000000000000000e+00  -9.5809966710813400e-05 8.2825831234682452e-04 0.0000000000000000e+00  -9.8540939042093692e-05 9.0386297360405270e-04 0.0000000000000000e+00  -1.0157244546585514e-04 9.8176347510440967e-04 0.0000000000000000e+00  -1.0387589107619741e-04 1.0613585564578521e-03 0.0000000000000000e+00  -1.0600843670497129e-04 1.1431236670207004e-03 0.0000000000000000e+00  -1.0835148189076061e-04 1.2263512143707621e-03 0.0000000000000000e+00  -1.1015441800389284e-04 1.3112831352860995e-03 0.0000000000000000e+00  -1.1189380574551020e-04 1.3976933737914594e-03 0.0000000000000000e+00  -1.1329818037891252e-04 1.4853100816085273e-03 0.0000000000000000e+00  -1.1461156045548430e-04 1.5741880191263158e-03 0.0000000000000000e+00  -1.1562604294289702e-04 1.6640161766058438e-03 0.0000000000000000e+00  -1.1653521563193651e-04 1.7548531453544175e-03 0.0000000000000000e+00  -1.1717664404272355e-04 1.8464004538133927e-03 0.0000000000000000e+00  -1.1770510649660374e-04 1.9387204622235402e-03 0.0000000000000000e+00  -1.1799832632103777e-04 2.0315367265362426e-03 0.0000000000000000e+00  -1.1817005924088202e-04 2.1249239091739461e-03 0.0000000000000000e+00  -1.1814409320681912e-04 2.2186327159097199e-03 0.0000000000000000e+00  -1.1800425811924573e-04 2.3127360861217934e-03 0.0000000000000000e+00  -1.1769903334779723e-04 2.4070251251283839e-03 0.0000000000000000e+00  -1.1728565330283342e-04 2.5015751194305252e-03 0.0000000000000000e+00  -1.1673323806588684e-04 2.5962091342686799e-03 0.0000000000000000e+00  -1.1607584224163982e-04 2.6909950449039420e-03 0.0000000000000000e+00  -1.1531438322556024e-04 2.7858124115818276e-03 0.0000000000000000e+00  -1.1444552500048049e-04 2.8806954464078846e-03 0.0000000000000000e+00  -1.1352571267505396e-04 2.9755919804866802e-03 0.0000000000000000e+00  -1.1249762992528699e-04 3.0704769364913566e-03 0.0000000000000000e+00  -1.1142558845918212e-04 3.1654229739435961e-03 0.0000000000000000e+00  -4.6417043390137992e-05 3.2594545557411104e-03 0.0000000000000000e+00  8.0816496764062211e-05 3.2571574837289151e-03 0.0000000000000000e+00  1.4305049601395819e-04 3.1611193601926123e-03 0.0000000000000000e+00  1.4193569638747271e-04 3.0660150185038582e-03 0.0000000000000000e+00  1.4085606622168191e-04 2.9708933336330566e-03 0.0000000000000000e+00  1.3983186481088052e-04 2.8758212215846384e-03 0.0000000000000000e+00  1.3884031760508819e-04 2.7807722013091338e-03 0.0000000000000000e+00  1.3789989237274845e-04 2.6857859900926437e-03 0.0000000000000000e+00  1.3694851233660819e-04 2.5908733018498373e-03 0.0000000000000000e+00  1.3605140717935514e-04 2.4960602136448362e-03 0.0000000000000000e+00  1.3509311845358754e-04 2.4014138685221837e-03 0.0000000000000000e+00  1.3419319092026962e-04 2.3069530900990806e-03 0.0000000000000000e+00  1.3316618530179937e-04 2.2127595499861095e-03 0.0000000000000000e+00  1.3221297576978134e-04 2.1188871799108790e-03 0.0000000000000000e+00  1.3105282261170907e-04 2.0254175782694968e-03 0.0000000000000000e+00  1.2999337105361629e-04 1.9324441444763241e-03 0.0000000000000000e+00  1.2863614252148540e-04 1.8400468013261293e-03 0.0000000000000000e+00  1.2742250295553828e-04 1.7483528965330705e-03 0.0000000000000000e+00  1.2581368911793609e-04 1.6574410846007933e-03 0.0000000000000000e+00  1.2440444933097583e-04 1.5674683635603277e-03 0.0000000000000000e+00  1.2249633645958338e-04 1.4785122745721074e-03 0.0000000000000000e+00  1.2085603419166038e-04 1.3907490421445532e-03 0.0000000000000000e+00  1.1859495905344256e-04 1.3042623760456098e-03 0.0000000000000000e+00  1.1667457490347235e-04 1.2192510470714713e-03 0.0000000000000000e+00  1.1406377419549461e-04 1.1358214173824344e-03 0.0000000000000000e+00  1.1173436099063770e-04 1.0539701170625320e-03 0.0000000000000000e+00  1.0926497251476806e-04 9.7428712862560204e-04 0.0000000000000000e+00  1.0614429671647704e-04 8.9621418882075503e-04 0.0000000000000000e+00  1.0318630969539667e-04 8.2057775244385490e-04 0.0000000000000000e+00  9.9740134266686179e-05 7.4714728308201647e-04 0.0000000000000000e+00  9.6355305280816083e-05 6.7633787811804047e-04 0.0000000000000000e+00  9.2494308481911415e-05 6.0811918266339131e-04 0.0000000000000000e+00  8.8699248605499209e-05 5.4271008628144028e-04 0.0000000000000000e+00  8.4095498582316018e-05 4.8061269145769763e-04 0.0000000000000000e+00  8.0048984643121910e-05 4.2115842089550848e-04 0.0000000000000000e+00  7.5854969511113910e-05 3.6558019458671274e-04 0.0000000000000000e+00  7.0685296399544413e-05 3.1274650343787096e-04 0.0000000000000000e+00  6.5858848931317650e-05 2.6394337439453696e-04 0.0000000000000000e+00  6.0472610181174650e-05 2.1875480421907316e-04 0.0000000000000000e+00  5.5311564754949877e-05 1.7738838238502363e-04 0.0000000000000000e+00  4.9218872676766146e-05 1.4042164932841821e-04 0.0000000000000000e+00  4.3940241915259420e-05 1.0689067130888045e-04 0.0000000000000000e+00  3.8592769377122198e-05 7.8272148839391006e-05 0.0000000000000000e+00  3.2093838574722397e-05 5.3126576982198021e-05 0.0000000000000000e+00  2.6258380254212464e-05 3.2740615839183443e-05 0.0000000000000000e+00  1.9498309256162080e-05 1.6937463307443816e-05 0.0000000000000000e+00  1.3425988494349828e-05 5.8446254613914265e-06 0.0000000000000000e+00  6.3298383729080666e-06 -3.7665308985342589e-07 0.0000000000000000e+00  1.9379583879434700e-06 4.2209575759067046e-06 0.0000000000000000e+00  1.3807331188794068e-05 3.1155537353044554e-03 0.0000000000000000e+00  1.0712683047465568e-05 2.9339872426770650e-03 0.0000000000000000e+00  9.1004766629509713e-06 2.6375199472902285e-03 0.0000000000000000e+00  1.9677089770747465e-06 2.6255604027154180e-05 0.0000000000000000e+00  9.0915689529947635e-06 2.4513692051465630e-03 0.0000000000000000e+00  2.7446516215566733e-06 6.4920777818898017e-05 0.0000000000000000e+00  7.8511801944578165e-06 2.2625289807980849e-03 0.0000000000000000e+00  3.5483526175938782e-06 1.6183355592328986e-04 0.0000000000000000e+00  3.1333217934829815e-06 2.4291702497423437e-04 0.0000000000000000e+00  6.8207329966250964e-06 2.0748307588509840e-03 0.0000000000000000e+00  4.6668897008170248e-06 5.1596073983310937e-04 0.0000000000000000e+00  5.3112665891639510e-06 1.7054884190037547e-03 0.0000000000000000e+00  4.2289453162418431e-06 3.3637619864187177e-04 0.0000000000000000e+00  3.6426697947725527e-06 6.4412168420662570e-04 0.0000000000000000e+00  4.7888592538196394e-06 1.5255043960448456e-03 0.0000000000000000e+00  5.9811681688013416e-06 1.8888945236445230e-03 0.0000000000000000e+00  3.7326039144616775e-06 7.8585813536260877e-04 0.0000000000000000e+00  4.4035041882635617e-06 1.3499328155977561e-03 0.0000000000000000e+00  5.1966156938435038e-06 9.3097001802174711e-04 0.0000000000000000e+00  2.6996222400438511e-06 1.1833226082893665e-03 0.0000000000000000e+00  3.9937225182636764e-06 1.0501405839749285e-03 0.0000000000000000e+00  3.3072346897830932e-06 4.1880330077393059e-04 0.0000000000000000e+00  1.2155338871936550e-05 2.7915673240605380e-03 0.0000000000000000e+00  2.6513260830036306e-06 1.0705520626531661e-04 0.0000000000000000e+00  5.6872516682476819e-05 3.0233257292244728e-03 0.0000000000000000e+00  7.2552788320339636e-06 1.1408971171301198e-05 0.0000000000000000e+00  4.5154544314966697e-05 2.3560346461626806e-03 0.0000000000000000e+00  4.6653893025433985e-05 2.5452901990419231e-03 0.0000000000000000e+00  -7.3324819728888221e-06 4.6392216948668942e-05 0.0000000000000000e+00  -1.3009903949991691e-05 2.0133400757572478e-04 0.0000000000000000e+00  4.1223314695333555e-05 1.7959578785865797e-03 0.0000000000000000e+00  4.3779259890183405e-05 2.1676727554214925e-03 0.0000000000000000e+00  -2.1737181883165456e-05 5.7873755460415108e-04 0.0000000000000000e+00  3.9950597699897715e-05 1.6141326470837172e-03 0.0000000000000000e+00  -1.5599554854456801e-05 2.9157552979685767e-04 0.0000000000000000e+00  -2.3732805331586139e-05 7.1508904698760231e-04 0.0000000000000000e+00  3.8629768393729625e-05 1.4362148750226879e-03 0.0000000000000000e+00  4.2484715613848725e-05 1.9807479079813014e-03 0.0000000000000000e+00  -3.1938335901334225e-05 8.6121532410065986e-04 0.0000000000000000e+00  3.7248610016469331e-05 1.2632301930232028e-03 0.0000000000000000e+00  4.9834666436842464e-07 1.8327624386371030e-06 0.0000000000000000e+00  2.3428585727599348e-06 -3.2640780313106304e-07 0.0000000000000000e+00  -1.4541455063374820e-05 3.1907920232038798e-03 0.0000000000000000e+00  -4.1740627930501736e-06 1.5341544976938110e-05 0.0000000000000000e+00  4.3394587159029579e-05 1.1144406902431714e-03 0.0000000000000000e+00  3.2217621829580096e