<?xml version="1.0"?>
<VTKFile type="UnstructuredGrid"  version="0.1"  >
<UnstructuredGrid>
<Piece  NumberOfPoints="1419" NumberOfCells="2698">
<Points>
<DataArray  type="Float64"  NumberOfComponents="3"  format="ascii">0 0 0  0 0.41 0  2.5 0 0  2.5 0.41 0  0.6 0.19 0  0.6 0.21 0  0.25 0.2 0  0.15 0.2 0  0.2489897948556636 0.21 0  0.2489897948556636 0.19 0  0.6 0.2 0  0 0.3807142857143437 0  0 0.3514285714286952 0  0 0.3221428571430699 0  0 0.29285714285744 0  0 0.2635714285718054 0  0 0.2342857142861561 0  0 0.2050000000005308 0  0 0.175714285714732 0  0 0.1464285714289574 0  0 0.1171428571431897 0  0 0.08785714285737878 0  0 0.05857142857161107 0  0 0.02928571428580012 0  0.03015443760436003 0 0  0.06140001986583606 0 0  0.09377624077125973 0 0  0.1273239957535082 0 0  0.1620856860351972 0 0  0.1981052433264291 0 0  0.235428184091502 0 0  0.2741016576309132 0 0  0.3141745521465447 0 0  0.3556974926295285 0 0  0.3987229542472677 0 0  0.4433053055141081 0 0  0.4895008759286886 0 0  0.5373680609405097 0 0  0.5869673343216626 0 0  0.6383613676634521 0 0  0.6916151138468254 0 0  0.7467958595648856 0 0  0.8039733463919316 0 0  0.8632198139502143 0 0  0.9246101326867038 0 0  0.9882218810934433 0 0  1.054135445558498 0 0  1.122434100542598 0 0  1.193204177141305 0 0  1.266535089879536 0 0  1.342519516046404 0 0  1.421253448503939 0 0  1.502836389106271 0 0  1.587371439758838 0 0  1.674965418777374 0 0  1.765729001825544 0 0  1.859776908880082 0 0  1.957227977487062 0 0  2.058205329869943 0 0  2.162836591189951 0 0  2.271253957290865 0 0  2.383594446803425 0 0  2.5 0.1024999999997612 0  2.5 0.2049999999994743 0  2.5 0.3074999999997183 0  2.383594446803656 0.41 0  2.271253957291315 0.41 0  2.162836591190598 0.41 0  2.058205329870775 0.41 0  1.957227977488067 0.41 0  1.859776908881246 0.41 0  1.765729001826854 0.41 0  1.674965418778818 0.41 0  1.58737143976041 0.41 0  1.502836389107956 0.41 0  1.421253448505726 0.41 0  1.342519516048286 0.41 0  1.266535089881505 0.41 0  1.193204177143353 0.41 0  1.122434100544716 0.41 0  1.05413544556068 0.41 0  0.9882218810956305 0.41 0  0.9246101326886647 0.41 0  0.8632198139519631 0.41 0  0.8039733463934788 0.41 0  0.7467958595662458 0.41 0  0.6916151138480078 0.41 0  0.6383613676644679 0.41 0  0.5869673343225223 0.41 0  0.5373680609412221 0.41 0  0.4895008759292634 0.41 0  0.4433053055145528 0.41 0  0.3987229542475914 0.41 0  0.3556974926297398 0.41 0  0.3141745521466497 0.41 0  0.2741016576310038 0.41 0  0.2354281840915826 0.41 0  0.1981052433265003 0.41 0  0.1620856860352591 0.41 0  0.1273239957535623 0.41 0  0.09377624077128965 0.41 0  0.06140001986584975 0.41 0  0.03015443760436654 0.41 0  0.2497468076502589 0.2050254481002335 0  0.2497468076502614 0.1949745518997913 0  0.2469965252529372 0.1829317073451959 0  0.2439893735792749 0.1762316384219906 0  0.2400332147834255 0.1700443375285386 0  0.2352133972704371 0.1645032867342007 0  0.2296339016332438 0.1597280261969788 0  0.2234150974217223 0.1558215752574715 0  0.2166911463437691 0.1528682099456123 0  0.2096071079204251 0.1509316448471593 0  0.2023158100364996 0.1500536585536553 0  0.194974551899914 0.1502531923497262 0  0.1877417105387872 0.1515259415822739 0  0.1807733240461124 0.153844448527136 0  0.1742197252835808 0.15715869474974 0  0.1682222986673531 0.1613971801805478 0  0.162910430003803 0.1664684656256651 0  0.1583987151779087 0.1722631454351573 0  0.1547844879126891 0.178656207771761 0  0.1521457199348551 0.1855097315605723 0  0.1505393388476355 0.1926758619366523 0  0.1505393388476328 0.2073241380633295 0  0.1521457199348437 0.2144902684393899 0  0.1547844879126531 0.221343792228163 0  0.1583987151778488 0.2277368545647528 0  0.1629104300036858 0.2335315343742052 0  0.1682222986671726 0.2386028198193036 0  0.1742197252833576 0.2428413052501257 0  0.1807733240458683 0.2461555514727623 0  0.1877417105384929 0.2484740584176516 0  0.1949745518995776 0.2497468076502398 0  0.202315810036185 0.2499463414463592 0  0.2096071079201568 0.2490683551528932 0  0.2166911463435495 0.2471317900544655 0  0.2234150974215506 0.2441784247426195 0  0.2296339016331197 0.2402719738031125 0  0.2352133972703547 0.2354967132658811 0  0.2400332147833751 0.2299556624715287 0  0.2439893735792577 0.2237683615780412 0  0.246996525252926 0.2170682926548348 0  0.25645809709277 0.21 0  0.2639263993298655 0.21 0  0.271394701566961 0.21 0  0.2788630038040554 0.21 0  0.2863313060411479 0.21 0  0.2937996082782405 0.21 0  0.301267910515333 0.21 0  0.3087362127524279 0.21 0  0.3162045149895234 0.21 0  0.3236728172265972 0.21 0  0.3311411194636928 0.21 0  0.3386094217007701 0.21 0  0.3460777239378666 0.21 0  0.3535460261749672 0.21 0  0.3610143284120516 0.21 0  0.3684826306491596 0.21 0  0.3759509328862226 0.21 0  0.383419235123329 0.21 0  0.3908875373604028 0.21 0  0.3983558395975142 0.21 0  0.4058241418345938 0.21 0  0.4132924440716992 0.21 0  0.4207607463087888 0.21 0  0.4282290485459029 0.21 0  0.4356973507830418 0.21 0  0.4431656530201649 0.21 0  0.4506339552573136 0.21 0  0.4581022574944306 0.21 0  0.4655705597315852 0.21 0  0.4730388619686996 0.21 0  0.480507164205851 0.21 0  0.4879754664429498 0.21 0  0.4954437686800938 0.21 0  0.502912070917267 0.21 0  0.5103803731544119 0.21 0  0.5178486753915261 0.21 0  0.5253169776286404 0.21 0  0.5327852798657868 0.21 0  0.5402535821029386 0.21 0  0.54772188434007 0.21 0  0.5551901865771842 0.21 0  0.5626584888143201 0.21 0  0.5701267910514778 0.21 0  0.5775950932886138 0.21 0  0.5850633955257281 0.21 0  0.5925316977628483 0.21 0  0.6 0.2050000000000054 0  0.6 0.1950000000000217 0  0.5925316977628897 0.19 0  0.5850633955257988 0.19 0  0.5775950932887378 0.19 0  0.5701267910515998 0.19 0  0.5626584888145268 0.19 0  0.5551901865773963 0.19 0  0.547721884340339 0.19 0  0.5402535821032429 0.19 0  0.5327852798661811 0.19 0  0.5253169776290537 0.19 0  0.5178486753919799 0.19 0  0.5103803731549078 0.19 0  0.502912070917822 0.19 0  0.4954437686807294 0.19 0  0.4879754664436223 0.19 0  0.4805071642065402 0.19 0  0.4730388619694271 0.19 0  0.4655705597323621 0.19 0  0.4581022574952563 0.19 0  0.4506339552581777 0.19 0  0.4431656530210671 0.19 0  0.4356973507839815 0.19 0  0.4282290485468779 0.19 0  0.4207607463097617 0.19 0  0.4132924440726327 0.19 0  0.4058241418354857 0.19 0  0.3983558395983636 0.19 0  0.3908875373612097 0.19 0  0.3834192351240934 0.19 0  0.3759509328869369 0.19 0  0.3684826306498175 0.19 0  0.361014328412667 0.19 0  0.3535460261755617 0.19 0  0.3460777239384295 0.19 0  0.3386094217012945 0.19 0  0.3311411194641595 0.19 0  0.3236728172270245 0.19 0  0.3162045149898895 0.19 0  0.3087362127527544 0.19 0  0.3012679105156187 0.19 0  0.2937996082784807 0.19 0  0.2863313060413428 0.19 0  0.2788630038042048 0.19 0  0.2713947015670686 0.19 0  0.2639263993299336 0.19 0  0.2564580970927985 0.19 0  0.2607803159922026 0.2000727136295815 0  0.5887803774232762 0.2001272386983733 0  0.5745072403740523 0.2002044435018727 0  0.5511891430099709 0.2001122610077113 0  0.2751288526855082 0.20000000000002 0  0.5365194309847112 0.1999999999999436 0  0.2894621222999649 0.1998691686390484 0  0.5215828265105155 0.1999999999999228 0  0.3127789816668748 0.1998657885438805 0  0.3274069683451451 0.2000000000000796 0  0.5066462220363641 0.199999999999908 0  0.3650630746574081 0.199866017807523 0  0.476773013087985 0.1999999999998713 0  0.3417402379596385 0.1998691686391011 0  0.3796850840047755 0.200000000000134 0  0.4618364086138087 0.1999999999998546 0  0.4917096175621762 0.1999999999998808 0  0.3946216884789568 0.2000000000001512 0  0.446899804139621 0.1999999999998389 0  0.4089549580935208 0.1998691686391595 0  0.4322718174608562 0.200127451265745 0  0.4201487168029707 0.1999966199048527 0  0.3528922713220932 0.2000185703532356 0  0.5633122436674589 0.1999814296467508 0  0.3006558810093873 0.1999966199048318 0  0.5815926498168407 0.1966545283159175 0  0.2677053789419034 0.1964246479135325 0  0.5290511287476175 0.1970915826863981 0  0.5439877332217911 0.197091582686394 0  0.2825131256993216 0.2035478995978015 0  0.3199386661080599 0.202908417313604 0  0.4842413153250809 0.1970915826863873 0  0.5141145242734466 0.1970915826863843 0  0.3722167817676917 0.2029084173136195 0  0.4693047108508938 0.1970915826863783 0  0.3348752705822316 0.202908417313609 0  0.3871533862418661 0.2029084173136212 0  0.4543681063767183 0.1970915826863795 0  0.4991779197992749 0.1970915826863902 0  0.4020059614928624 0.203547899597858 0  0.4394315019025246 0.1970915826863714 0  0.2550657455369551 0.2034088125358657 0  0.2548908499171161 0.1966940311614271 0  0.5946539510196798 0.2024302972968126 0  0.267698176732111 0.2039977513680092 0  0.4261685417851465 0.196409292431739 0  0.3590076176283495 0.196411355804271 0  0.5571672426447437 0.2036011176410121 0  0.3066757059912147 0.1964092924317024 0  0.594380730180568 0.1966558399668133 0  0.4842413153245942 0.2040749161535287 0  0.4693047108503577 0.2040749161535231 0  0.3871533862424271 0.1959250838464788 0  0.372246743208829 0.1959123236376545 0  0.5141145242731028 0.2040749161535395 0  0.4543681063761134 0.2040749161535186 0  0.4019979587101454 0.1959834479682427 0  0.4394608940728603 0.2040870543693135 0  0.5439623148931173 0.2040856076781014 0  0.5290511287473298 0.2040749161535501 0  0.4991779197988497 0.2040749161535382 0  0.3347912413592433 0.1959225448935183 0  0.3199680582793816 0.1959123018030061 0  0.2825051229162361 0.1959834479681729 0  0.3590471196690275 0.2036304442587945 0  0.5571594006495384 0.1963685282145804 0  0.3067669986803285 0.203627750582736 0  0.4262598344738712 0.2036568242185335 0  0.5814408164431408 0.2041285596160068 0  0.5688286748170428 0.1961819304477386 0  0.4145905603063645 0.2038180695522843 0  0.3473758401724931 0.2038180695522752 0  0.2950977245128307 0.2038180695522663 0  0.5688286748170693 0.203818069552238 0  0.2950977245127906 0.1961819304477774 0  0.3473758401723931 0.1961819304478349 0  0.4145905603061963 0.1961819304479011 0  0.2601812407614425 0.2056861609747042
[...]
<PointData  Vectors="f_40-0"> 
<DataArray  type="Float64"  Name="f_40-0"  NumberOfComponents="3" format="ascii">0.0000000000000000e+00 0.0000000000000000e+00 0.0000000000000000e+00  0.0000000000000000e+00 0.0000000000000000e+00 0.0000000000000000e+00  0.0000000000000000e+00 0.0000000000000000e+00 0.0000000000000000e+00  0.0000000000000000e+00 0.0000000000000000e+00 0.0000000000000000e+00  2.3949208975055855e-06 8.7153178112590483e-05 0.0000000000000000e+00  -4.0230230223023486e-06 8.7090365636253636e-05 0.0000000000000000e+00  0.0000000000000000e+00 0.0000000000000000e+00 0.0000000000000000e+00  0.0000000000000000e+00 0.0000000000000000e+00 0.0000000000000000e+00  0.0000000000000000e+00 0.0000000000000000e+00 0.0000000000000000e+00  0.0000000000000000e+00 0.0000000000000000e+00 0.0000000000000000e+00  -8.1408653999540384e-07 8.7106834242444577e-05 0.0000000000000000e+00  7.9591836734548405e-01 0.0000000000000000e+00 0.0000000000000000e+00  1.4693877550994523e+00 0.0000000000000000e+00 0.0000000000000000e+00  2.0204081632617479e+00 0.0000000000000000e+00 0.0000000000000000e+00  2.4489795918330071e+00 0.0000000000000000e+00 0.0000000000000000e+00  2.7551020408131754e+00 0.0000000000000000e+00 0.0000000000000000e+00  2.9387755102022344e+00 0.0000000000000000e+00 0.0000000000000000e+00  3.0000000000000004e+00 0.0000000000000000e+00 0.0000000000000000e+00  2.9387755102059474e+00 0.0000000000000000e+00 0.0000000000000000e+00  2.7551020408195543e+00 0.0000000000000000e+00 0.0000000000000000e+00  2.4489795918409065e+00 0.0000000000000000e+00 0.0000000000000000e+00  2.0204081632692521e+00 0.0000000000000000e+00 0.0000000000000000e+00  1.4693877551058563e+00 0.0000000000000000e+00 0.0000000000000000e+00  7.9591836734909216e-01 0.0000000000000000e+00 0.0000000000000000e+00  0.0000000000000000e+00 0.0000000000000000e+00 0.0000000000000000e+00  0.0000000000000000e+00 0.0000000000000000e+00 0.0000000000000000e+00  0.0000000000000000e+00 0.0000000000000000e+00 0.0000000000000000e+00  0.0000000000000000e+00 0.0000000000000000e+00 0.0000000000000000e+00  0.0000000000000000e+00 0.0000000000000000e+00 0.0000000000000000e+00  0.0000000000000000e+00 0.0000000000000000e+00 0.0000000000000000e+00  0.0000000000000000e+00 0.0000000000000000e+00 0.0000000000000000e+00  0.0000000000000000e+00 0.0000000000000000e+00 0.0000000000000000e+00  0.0000000000000000e+00 0.0000000000000000e+00 0.0000000000000000e+00  0.0000000000000000e+00 0.0000000000000000e+00 0.0000000000000000e+00  0.0000000000000000e+00 0.0000000000000000e+00 0.0000000000000000e+00  0.0000000000000000e+00 0.0000000000000000e+00 0.0000000000000000e+00  0.0000000000000000e+00 0.0000000000000000e+00 0.0000000000000000e+00  0.0000000000000000e+00 0.0000000000000000e+00 0.0000000000000000e+00  0.0000000000000000e+00 0.0000000000000000e+00 0.0000000000000000e+00  0.0000000000000000e+00 0.0000000000000000e+00 0.0000000000000000e+00  0.0000000000000000e+00 0.0000000000000000e+00 0.0000000000000000e+00  0.0000000000000000e+00 0.0000000000000000e+00 0.0000000000000000e+00  0.0000000000000000e+00 0.0000000000000000e+00 0.0000000000000000e+00  0.0000000000000000e+00 0.0000000000000000e+00 0.0000000000000000e+00  0.0000000000000000e+00 0.0000000000000000e+00 0.0000000000000000e+00  0.0000000000000000e+00 0.0000000000000000e+00 0.0000000000000000e+00  0.0000000000000000e+00 0.0000000000000000e+00 0.0000000000000000e+00  0.0000000000000000e+00 0.0000000000000000e+00 0.0000000000000000e+00  0.0000000000000000e+00 0.0000000000000000e+00 0.0000000000000000e+00  0.0000000000000000e+00 0.0000000000000000e+00 0.0000000000000000e+00  0.0000000000000000e+00 0.0000000000000000e+00 0.0000000000000000e+00  0.0000000000000000e+00 0.0000000000000000e+00 0.0000000000000000e+00  0.0000000000000000e+00 0.0000000000000000e+00 0.0000000000000000e+00  0.0000000000000000e+00 0.0000000000000000e+00 0.0000000000000000e+00  0.0000000000000000e+00 0.0000000000000000e+00 0.0000000000000000e+00  0.0000000000000000e+00 0.0000000000000000e+00 0.0000000000000000e+00  0.0000000000000000e+00 0.0000000000000000e+00 0.0000000000000000e+00  0.0000000000000000e+00 0.0000000000000000e+00 0.0000000000000000e+00  0.0000000000000000e+00 0.0000000000000000e+00 0.0000000000000000e+00  0.0000000000000000e+00 0.0000000000000000e+00 0.0000000000000000e+00  0.0000000000000000e+00 0.0000000000000000e+00 0.0000000000000000e+00  0.0000000000000000e+00 0.0000000000000000e+00 0.0000000000000000e+00  2.6676013827996723e+00 1.3357515106434015e-02 0.0000000000000000e+00  2.3263978918480328e+00 1.5405418807136084e-02 0.0000000000000000e+00  2.8274842605162980e+00 6.7263362083400627e-02 0.0000000000000000e+00  0.0000000000000000e+00 0.0000000000000000e+00 0.0000000000000000e+00  0.0000000000000000e+00 0.0000000000000000e+00 0.0000000000000000e+00  0.0000000000000000e+00 0.0000000000000000e+00 0.0000000000000000e+00  0.0000000000000000e+00 0.0000000000000000e+00 0.0000000000000000e+00  0.0000000000000000e+00 0.0000000000000000e+00 0.0000000000000000e+00  0.0000000000000000e+00 0.0000000000000000e+00 0.0000000000000000e+00  0.0000000000000000e+00 0.0000000000000000e+00 0.0000000000000000e+00  0.0000000000000000e+00 0.0000000000000000e+00 0.0000000000000000e+00  0.0000000000000000e+00 0.0000000000000000e+00 0.0000000000000000e+00  0.0000000000000000e+00 0.0000000000000000e+00 0.0000000000000000e+00  0.0000000000000000e+00 0.0000000000000000e+00 0.0000000000000000e+00  0.0000000000000000e+00 0.0000000000000000e+00 0.0000000000000000e+00  0.0000000000000000e+00 0.0000000000000000e+00 0.0000000000000000e+00  0.0000000000000000e+00 0.0000000000000000e+00 0.0000000000000000e+00  0.0000000000000000e+00 0.0000000000000000e+00 0.0000000000000000e+00  0.0000000000000000e+00 0.0000000000000000e+00 0.0000000000000000e+00  0.0000000000000000e+00 0.0000000000000000e+00 0.0000000000000000e+00  0.0000000000000000e+00 0.0000000000000000e+00 0.0000000000000000e+00  0.0000000000000000e+00 0.0000000000000000e+00 0.0000000000000000e+00  0.0000000000000000e+00 0.0000000000000000e+00 0.0000000000000000e+00  0.0000000000000000e+00 0.0000000000000000e+00 0.0000000000000000e+00  0.0000000000000000e+00 0.0000000000000000e+00 0.0000000000000000e+00  0.0000000000000000e+00 0.0000000000000000e+00 0.0000000000000000e+00  0.0000000000000000e+00 0.0000000000000000e+00 0.0000000000000000e+00  0.0000000000000000e+00 0.0000000000000000e+00 0.0000000000000000e+00  0.0000000000000000e+00 0.0000000000000000e+00 0.0000000000000000e+00  0.0000000000000000e+00 0.0000000000000000e+00 0.0000000000000000e+00  0.0000000000000000e+00 0.0000000000000000e+00 0.0000000000000000e+00  0.0000000000000000e+00 0.0000000000000000e+00 0.0000000000000000e+00  0.0000000000000000e+00 0.0000000000000000e+00 0.0000000000000000e+00  0.0000000000000000e+00 0.0000000000000000e+00 0.0000000000000000e+00  0.0000000000000000e+00 0.0000000000000000e+00 0.0000000000000000e+00  0.0000000000000000e+00 0.0000000000000000e+00 0.0000000000000000e+00  0.0000000000000000e+00 0.0000000000000000e+00 0.0000000000000000e+00  0.0000000000000000e+00 0.0000000000000000e+00 0.0000000000000000e+00  0.0000000000000000e+00 0.0000000000000000e+00 0.0000000000000000e+00  0.0000000000000000e+00 0.0000000000000000e+00 0.0000000000000000e+00  0.0000000000000000e+00 0.0000000000000000e+00 0.0000000000000000e+00  0.0000000000000000e+00 0.0000000000000000e+00 0.0000000000000000e+00  0.0000000000000000e+00 0.0000000000000000e+00 0.0000000000000000e+00  0.0000000000000000e+00 0.0000000000000000e+00 0.0000000000000000e+00  0.0000000000000000e+00 0.0000000000000000e+00 0.0000000000000000e+00  0.0000000000000000e+00 0.0000000000000000e+00 0.0000000000000000e+00  0.0000000000000000e+00 0.0000000000000000e+00 0.0000000000000000e+00  0.0000000000000000e+00 0.0000000000000000e+00 0.0000000000000000e+00  0.0000000000000000e+00 0.0000000000000000e+00 0.0000000000000000e+00  0.0000000000000000e+00 0.0000000000000000e+00 0.0000000000000000e+00  0.0000000000000000e+00 0.0000000000000000e+00 0.0000000000000000e+00  0.0000000000000000e+00 0.0000000000000000e+00 0.0000000000000000e+00  0.0000000000000000e+00 0.0000000000000000e+00 0.0000000000000000e+00  0.0000000000000000e+00 0.0000000000000000e+00 0.0000000000000000e+00  0.0000000000000000e+00 0.0000000000000000e+00 0.0000000000000000e+00  0.0000000000000000e+00 0.0000000000000000e+00 0.0000000000000000e+00  0.0000000000000000e+00 0.0000000000000000e+00 0.0000000000000000e+00  0.0000000000000000e+00 0.0000000000000000e+00 0.0000000000000000e+00  0.0000000000000000e+00 0.0000000000000000e+00 0.0000000000000000e+00  0.0000000000000000e+00 0.0000000000000000e+00 0.0000000000000000e+00  0.0000000000000000e+00 0.0000000000000000e+00 0.0000000000000000e+00  0.0000000000000000e+00 0.0000000000000000e+00 0.0000000000000000e+00  0.0000000000000000e+00 0.0000000000000000e+00 0.0000000000000000e+00  0.0000000000000000e+00 0.0000000000000000e+00 0.0000000000000000e+00  0.0000000000000000e+00 0.0000000000000000e+00 0.0000000000000000e+00  0.0000000000000000e+00 0.0000000000000000e+00 0.0000000000000000e+00  0.0000000000000000e+00 0.0000000000000000e+00 0.0000000000000000e+00  0.0000000000000000e+00 0.0000000000000000e+00 0.0000000000000000e+00  0.0000000000000000e+00 0.0000000000000000e+00 0.0000000000000000e+00  0.0000000000000000e+00 0.0000000000000000e+00 0.0000000000000000e+00  0.0000000000000000e+00 0.0000000000000000e+00 0.0000000000000000e+00  0.0000000000000000e+00 0.0000000000000000e+00 0.0000000000000000e+00  0.0000000000000000e+00 0.0000000000000000e+00 0.0000000000000000e+00  0.0000000000000000e+00 0.0000000000000000e+00 0.0000000000000000e+00  0.0000000000000000e+00 0.0000000000000000e+00 0.0000000000000000e+00  0.0000000000000000e+00 0.0000000000000000e+00 0.0000000000000000e+00  0.0000000000000000e+00 0.0000000000000000e+00 0.0000000000000000e+00  0.0000000000000000e+00 0.0000000000000000e+00 0.0000000000000000e+00  0.0000000000000000e+00 0.0000000000000000e+00 0.0000000000000000e+00  0.0000000000000000e+00 0.0000000000000000e+00 0.0000000000000000e+00  0.0000000000000000e+00 0.0000000000000000e+00 0.0000000000000000e+00  -2.0378691994860919e-07 1.5486385471922579e-07 0.0000000000000000e+00  -4.3257417876548604e-07 3.9600586182123278e-07 0.0000000000000000e+00  -6.3128218655929148e-07 7.8982757022722326e-07 0.0000000000000000e+00  -8.4446001272436216e-07 1.3437614619064945e-06 0.0000000000000000e+00  -1.0201462894888287e-06 2.0291312100948932e-06 0.0000000000000000e+00  -1.2186621033433998e-06 2.8573228449574988e-06 0.0000000000000000e+00  -1.3765011999874635e-06 3.7904373400298322e-06 0.0000000000000000e+00  -1.5286259271005242e-06 4.8598796121369381e-06 0.0000000000000000e+00  -1.7024299328049066e-06 6.0313414653589676e-06 0.0000000000000000e+00  -1.8336556265600701e-06 7.3081599058402274e-06 0.0000000000000000e+00  -1.9927172255530762e-06 8.6869786633141300e-06 0.0000000000000000e+00  -2.1114763974618865e-06 1.0158626055138652e-05 0.0000000000000000e+00  -2.2503413328659725e-06 1.1718593534613550e-05 0.0000000000000000e+00  -2.3602798095381018e-06 1.3349347472399846e-05 0.0000000000000000e+00  -2.4659878985298819e-06 1.5066362112034373e-05 0.0000000000000000e+00  -2.5840166165113325e-06 1.6846975481739829e-05 0.0000000000000000e+00  -2.6743184230748455e-06 1.8692682947071610e-05 0.0000000000000000e+00  -2.7798196682353035e-06 2.0600310097480984e-05 0.0000000000000000e+00  -2.8597776330464794e-06 2.2562517080741213e-05 0.0000000000000000e+00  -2.9511914603611115e-06 2.4574801867495481e-05 0.0000000000000000e+00  -3.0249181548987499e-06 2.6634573821918177e-05 0.0000000000000000e+00  -3.1038981762861974e-06 2.8738823288901112e-05 0.0000000000000000e+00  -3.1685229631306097e-06 3.0874851779208611e-05 0.0000000000000000e+00  -3.2298412573266299e-06 3.3051522411888724e-05 0.0000000000000000e+00  -3.2946882300338901e-06 3.5254279966419979e-05 0.0000000000000000e+00  -3.3497090626824031e-06 3.7487481293519594e-05 0.0000000000000000e+00  -3.4036489655771640e-06 3.9745926903639698e-05 0.0000000000000000e+00  -3.4519418300840611e-06 4.2024901320059484e-05 0.0000000000000000e+00  -3.4989217091220671e-06 4.4324463394969543e-05 0.0000000000000000e+00  -3.5412985332064049e-06 4.6639554803828847e-05 0.0000000000000000e+00  -3.5823473090303640e-06 4.8970432868684311e-05 0.0000000000000000e+00  -3.6196580895637044e-06 5.1312737290597213e-05 0.0000000000000000e+00  -3.6557229433977958e-06 5.3666679195609969e-05 0.0000000000000000e+00  -3.6888320357256951e-06 5.6028718091762512e-05 0.0000000000000000e+00  -3.7208183714728767e-06 5.8398979927124890e-05 0.0000000000000000e+00  -3.7505362441529188e-06 6.0774663636834510e-05 0.0000000000000000e+00  -3.7792985064956141e-06 6.3155901535302806e-05 0.0000000000000000e+00  -3.8063976340672940e-06 6.5540513802776678e-05 0.0000000000000000e+00  -3.8327295565928551e-06 6.7928634646914588e-05 0.0000000000000000e+00  -3.8579028429557834e-06 7.0318634172106701e-05 0.0000000000000000e+00  -3.8825682392537783e-06 7.2710861910777112e-05 0.0000000000000000e+00  -3.9063550088214007e-06 7.5103203888970231e-05 0.0000000000000000e+00  -3.9297353705646127e-06 7.7497844235640320e-05 0.0000000000000000e+00  -3.9529364869763532e-06 7.9892202612760825e-05 0.0000000000000000e+00  -3.9757339640190225e-06 8.2286746322612683e-05 0.0000000000000000e+00  -3.9983118585849541e-06 8.4682334647583367e-05 0.0000000000000000e+00  -2.4173981894443391e-06 8.7091583892886308e-05 0.0000000000000000e+00  7.8920901212356133e-07 8.7121966886809856e-05 0.0000000000000000e+00  2.4147893919314350e-06 8.4741870030337766e-05 0.0000000000000000e+00  2.4369839322607263e-06 8.2346639427731603e-05 0.0000000000000000e+00  2.4589247807288693e-06 7.9951766358464136e-05 0.0000000000000000e+00  2.4804695181054937e-06 7.7557579538760666e-05 0.0000000000000000e+00  2.5018191709192495e-06 7.5162896518819085e-05 0.0000000000000000e+00  2.5227507998417421e-06 7.2770483226331246e-05 0.0000000000000000e+00  2.5426971265495492e-06 7.0378266704701465e-05 0.0000000000000000e+00  2.5624849690201217e-06 6.7988139451209586e-05 0.0000000000000000e+00  2.5804430487906309e-06 6.5600035772044840e-05 0.0000000000000000e+00  2.5984720146681634e-06 6.3215277622373099e-05 0.0000000000000000e+00  2.6137077527631888e-06 6.0834028549441363e-05 0.0000000000000000e+00  2.6292695386302037e-06 5.8458125442169945e-05 0.0000000000000000e+00  2.6408277809442238e-06 5.6087799785306220e-05 0.0000000000000000e+00  2.6531399445747310e-06 5.3725454474544408e-05 0.0000000000000000e+00  2.6599632068839120e-06 5.1371386324050353e-05 0.0000000000000000e+00  2.6681560902735631e-06 4.9028632102086662e-05 0.0000000000000000e+00  2.6690887693857318e-06 4.6697543314906571e-05 0.0000000000000000e+00  2.6722200898084984e-06 4.4381831745809793e-05 0.0000000000000000e+00  2.6660031855092629e-06 4.2081909527206763e-05 0.0000000000000000e+00  2.6630494703765335e-06 3.9802133264039699e-05 0.0000000000000000e+00  2.6480997707387799e-06 3.7543199187238741e-05 0.0000000000000000e+00  2.6376524936075667e-06 3.5310233232471225e-05 0.0000000000000000e+00  2.6131319827107727e-06 3.3104813024837816e-05 0.0000000000000000e+00  2.5922620126414610e-06 3.0927816176854729e-05 0.0000000000000000e+00  2.5669799302011529e-06 2.8791235239317774e-05 0.0000000000000000e+00  2.5278274428002420e-06 2.6684615762427505e-05 0.0000000000000000e+00  2.4896061464629254e-06 2.4625573936384562e-05 0.0000000000000000e+00  2.4396831010507272e-06 2.2609306858767386e-05 0.0000000000000000e+00  2.3888293337851041e-06 2.0646909205813734e-05 0.0000000000000000e+00  2.3257614690259261e-06 1.8736973070314895e-05 0.0000000000000000e+00  2.2616881947362631e-06 1.6887216241277589e-05 0.0000000000000000e+00  2.1767070678714260e-06 1.5108658653104429e-05 0.0000000000000000e+00  2.1016856569419572e-06 1.3388894080996582e-05 0.0000000000000000e+00  2.0201042041373366e-06 1.1757513141261746e-05 0.0000000000000000e+00  1.9125949992606531e-06 1.0189670275930737e-05 0.0000000000000000e+00  1.8089131551900051e-06 8.7195703190821342e-06 0.0000000000000000e+00  1.6869875164674859e-06 7.3375389827306369e-06 0.0000000000000000e+00  1.5663621133660350e-06 6.0546697031825971e-06 0.0000000000000000e+00  1.4149855027358484e-06 4.8872776835444984e-06 0.0000000000000000e+00  1.2814721985660659e-06 3.8141557997410921e-06 0.0000000000000000e+00  1.1406176559813223e-06 2.8795913441950364e-06 0.0000000000000000e+00  9.6097032965222451e-07 2.0455281145739879e-06 0.0000000000000000e+00  7.9386563198874112e-07 1.3569475735849410e-06 0.0000000000000000e+00  5.9257320758185928e-07 8.0952147877659943e-07 0.0000000000000000e+00  4.1029803649951003e-07 4.1201880760477000e-07 0.0000000000000000e+00  1.9345767570816282e-07 1.6676517609407153e-07 0.0000000000000000e+00  -1.1918657561186632e-08 1.7155729606625380e-07 0.0000000000000000e+00  -8.2125473557173019e-07 8.3506907991014295e-05 0.0000000000000000e+00  -8.0326744476042188e-07 7.8930016248491720e-05 0.0000000000000000e+00  -7.0383834562155448e-07 7.1456704849478291e-05 0.0000000000000000e+00  -1.9917751934596808e-08 9.6199532577097632e-07 0.0000000000000000e+00  -6.2401497050110338e-07 6.6761499532179544e-05 0.0000000000000000e+00  -2.0101180873667263e-08 2.2813168395522217e-06 0.0000000000000000e+00  -5.7934854139345094e-07 6.1990817879432577e-05 0.0000000000000000e+00  -3.9796735039756339e-08 5.4211528626305874e-06 0.0000000000000000e+00  -8.2254476952719243e-08 7.9390411292357591e-06 0.0000000000000000e+00  -5.3479763007867107e-07 5.7237459254085595e-05 0.0000000000000000e+00  -1.2031504112758068e-07 1.5999089875114726e-05 0.0000000000000000e+00  -4.4643517342946591e-07 4.7822911075608474e-05 0.0000000000000000e+00  -7.9601689066549801e-08 1.0762072147555830e-05 0.0000000000000000e+00  -1.8484533312825569e-07 1.9624356343218049e-05 0.0000000000000000e+00  -4.0294930602421828e-07 4.3188682778256934e-05 0.0000000000000000e+00  -4.9044567291003692e-07 5.2510806601937847e-05 0.0000000000000000e+00  -2.2055071117997839e-07 2.3554675278908842e-05 0.0000000000000000e+00  -3.6007541853546991e-07 3.8626104393577623e-05 0.0000000000000000e+00  -2.2009870947644187e-07 2.7509372606888273e-05 0.0000000000000000e+00  -3.5676619739541669e-07 3.4247271782418639e-05 0.0000000000000000e+00  -2.8546209355009246e-07 3.0707453213406368e-05 0.0000000000000000e+00  -1.3164402738165883e-07 1.3186319455551976e-05 0.0000000000000000e+00  -6.9824473917819701e-07 7.5341559147004735e-05 0.0000000000000000e+00  -4.4801404139580331e-08 3.6631909959514285e-06 0.0000000000000000e+00  3.1361204315201458e-07 8.1211942294046738e-05 0.0000000000000000e+00  1.7173335056365791e-07 5.0470170023823864e-07 0.0000000000000000e+00  3.2632143849355874e-07 6.4383156893931220e-05 0.0000000000000000e+00  2.8391135174907013e-07 6.9159573668343087e-05 0.0000000000000000e+00  -3.4390060334011292e-07 1.5917147638904608e-06 0.0000000000000000e+00  -5.6566106840818979e-07 6.6095178831083759e-06 0.0000000000000000e+00  4.4242223050847266e-07 5.0170536363898936e-05 0.0000000000000000e+00  3.6724189548587969e-07 5.9620327782467837e-05 0.0000000000000000e+00  -8.8423381689252475e-07 1.7741999329676680e-05 0.0000000000000000e+00  4.7533910336089961e-07 4.5507724502296681e-05 0.0000000000000000e+00  -6.6090767065264278e-07 9.3722483691470020e-06 0.0000000000000000e+00  -9.6270463358354544e-07 2.1561249973212789e-05 0.0000000000000000e+00  5.0413830482871586e-07 4.0907155957241106e-05 0.0000000000000000e+00  4.0615102224990857e-07 5.4879224286682001e-05 0.0000000000000000e+00  -1.2123104884880667e-06 2.5567579889001534e-05 0.0000000000000000e+00  5.2839171060890805e-07 3.6388435566683590e-05 0.0000000000000000e+00  -4.0514778255303457e-08 3.5544679840063023e-08 0.0000000000000000e+00  2.5481380534718606e-08 3.5060519913868831e-08 0.0000000000000000e+00  -1.5774032538028945e-06 8.5383246720550096e-05 0.0000000000000000e+00  -2.2192732124559686e-07 4.9867921931454186e-07 0.0000000000000000e+00  7.4379155898712993e-07 3.2465840430349684e-05 0.0000000000000000e