<?xml version="1.0"?>
<VTKFile type="UnstructuredGrid"  version="0.1"  >
<UnstructuredGrid>
<Piece  NumberOfPoints="1419" NumberOfCells="2698">
<Points>
<DataArray  type="Float64"  NumberOfComponents="3"  format="ascii">0 0 0  0 0.41 0  2.5 0 0  2.5 0.41 0  0.6 0.19 0  0.6 0.21 0  0.25 0.2 0  0.15 0.2 0  0.2489897948556636 0.21 0  0.2489897948556636 0.19 0  0.6 0.2 0  0 0.3807142857143437 0  0 0.3514285714286952 0  0 0.3221428571430699 0  0 0.29285714285744 0  0 0.2635714285718054 0  0 0.2342857142861561 0  0 0.2050000000005308 0  0 0.175714285714732 0  0 0.1464285714289574 0  0 0.1171428571431897 0  0 0.08785714285737878 0  0 0.05857142857161107 0  0 0.02928571428580012 0  0.03015443760436003 0 0  0.06140001986583606 0 0  0.09377624077125973 0 0  0.1273239957535082 0 0  0.1620856860351972 0 0  0.1981052433264291 0 0  0.235428184091502 0 0  0.2741016576309132 0 0  0.3141745521465447 0 0  0.3556974926295285 0 0  0.3987229542472677 0 0  0.4433053055141081 0 0  0.4895008759286886 0 0  0.5373680609405097 0 0  0.5869673343216626 0 0  0.6383613676634521 0 0  0.6916151138468254 0 0  0.7467958595648856 0 0  0.8039733463919316 0 0  0.8632198139502143 0 0  0.9246101326867038 0 0  0.9882218810934433 0 0  1.054135445558498 0 0  1.122434100542598 0 0  1.193204177141305 0 0  1.266535089879536 0 0  1.342519516046404 0 0  1.421253448503939 0 0  1.502836389106271 0 0  1.587371439758838 0 0  1.674965418777374 0 0  1.765729001825544 0 0  1.859776908880082 0 0  1.957227977487062 0 0  2.058205329869943 0 0  2.162836591189951 0 0  2.271253957290865 0 0  2.383594446803425 0 0  2.5 0.1024999999997612 0  2.5 0.2049999999994743 0  2.5 0.3074999999997183 0  2.383594446803656 0.41 0  2.271253957291315 0.41 0  2.162836591190598 0.41 0  2.058205329870775 0.41 0  1.957227977488067 0.41 0  1.859776908881246 0.41 0  1.765729001826854 0.41 0  1.674965418778818 0.41 0  1.58737143976041 0.41 0  1.502836389107956 0.41 0  1.421253448505726 0.41 0  1.342519516048286 0.41 0  1.266535089881505 0.41 0  1.193204177143353 0.41 0  1.122434100544716 0.41 0  1.05413544556068 0.41 0  0.9882218810956305 0.41 0  0.9246101326886647 0.41 0  0.8632198139519631 0.41 0  0.8039733463934788 0.41 0  0.7467958595662458 0.41 0  0.6916151138480078 0.41 0  0.6383613676644679 0.41 0  0.5869673343225223 0.41 0  0.5373680609412221 0.41 0  0.4895008759292634 0.41 0  0.4433053055145528 0.41 0  0.3987229542475914 0.41 0  0.3556974926297398 0.41 0  0.3141745521466497 0.41 0  0.2741016576310038 0.41 0  0.2354281840915826 0.41 0  0.1981052433265003 0.41 0  0.1620856860352591 0.41 0  0.1273239957535623 0.41 0  0.09377624077128965 0.41 0  0.06140001986584975 0.41 0  0.03015443760436654 0.41 0  0.2497468076502589 0.2050254481002335 0  0.2497468076502614 0.1949745518997913 0  0.2469965252529372 0.1829317073451959 0  0.2439893735792749 0.1762316384219906 0  0.2400332147834255 0.1700443375285386 0  0.2352133972704371 0.1645032867342007 0  0.2296339016332438 0.1597280261969788 0  0.2234150974217223 0.1558215752574715 0  0.2166911463437691 0.1528682099456123 0  0.2096071079204251 0.1509316448471593 0  0.2023158100364996 0.1500536585536553 0  0.194974551899914 0.1502531923497262 0  0.1877417105387872 0.1515259415822739 0  0.1807733240461124 0.153844448527136 0  0.1742197252835808 0.15715869474974 0  0.1682222986673531 0.1613971801805478 0  0.162910430003803 0.1664684656256651 0  0.1583987151779087 0.1722631454351573 0  0.1547844879126891 0.178656207771761 0  0.1521457199348551 0.1855097315605723 0  0.1505393388476355 0.1926758619366523 0  0.1505393388476328 0.2073241380633295 0  0.1521457199348437 0.2144902684393899 0  0.1547844879126531 0.221343792228163 0  0.1583987151778488 0.2277368545647528 0  0.1629104300036858 0.2335315343742052 0  0.1682222986671726 0.2386028198193036 0  0.1742197252833576 0.2428413052501257 0  0.1807733240458683 0.2461555514727623 0  0.1877417105384929 0.2484740584176516 0  0.1949745518995776 0.2497468076502398 0  0.202315810036185 0.2499463414463592 0  0.2096071079201568 0.2490683551528932 0  0.2166911463435495 0.2471317900544655 0  0.2234150974215506 0.2441784247426195 0  0.2296339016331197 0.2402719738031125 0  0.2352133972703547 0.2354967132658811 0  0.2400332147833751 0.2299556624715287 0  0.2439893735792577 0.2237683615780412 0  0.246996525252926 0.2170682926548348 0  0.25645809709277 0.21 0  0.2639263993298655 0.21 0  0.271394701566961 0.21 0  0.2788630038040554 0.21 0  0.2863313060411479 0.21 0  0.2937996082782405 0.21 0  0.301267910515333 0.21 0  0.3087362127524279 0.21 0  0.3162045149895234 0.21 0  0.3236728172265972 0.21 0  0.3311411194636928 0.21 0  0.3386094217007701 0.21 0  0.3460777239378666 0.21 0  0.3535460261749672 0.21 0  0.3610143284120516 0.21 0  0.3684826306491596 0.21 0  0.3759509328862226 0.21 0  0.383419235123329 0.21 0  0.3908875373604028 0.21 0  0.3983558395975142 0.21 0  0.4058241418345938 0.21 0  0.4132924440716992 0.21 0  0.4207607463087888 0.21 0  0.4282290485459029 0.21 0  0.4356973507830418 0.21 0  0.4431656530201649 0.21 0  0.4506339552573136 0.21 0  0.4581022574944306 0.21 0  0.4655705597315852 0.21 0  0.4730388619686996 0.21 0  0.480507164205851 0.21 0  0.4879754664429498 0.21 0  0.4954437686800938 0.21 0  0.502912070917267 0.21 0  0.5103803731544119 0.21 0  0.5178486753915261 0.21 0  0.5253169776286404 0.21 0  0.5327852798657868 0.21 0  0.5402535821029386 0.21 0  0.54772188434007 0.21 0  0.5551901865771842 0.21 0  0.5626584888143201 0.21 0  0.5701267910514778 0.21 0  0.5775950932886138 0.21 0  0.5850633955257281 0.21 0  0.5925316977628483 0.21 0  0.6 0.2050000000000054 0  0.6 0.1950000000000217 0  0.5925316977628897 0.19 0  0.5850633955257988 0.19 0  0.5775950932887378 0.19 0  0.5701267910515998 0.19 0  0.5626584888145268 0.19 0  0.5551901865773963 0.19 0  0.547721884340339 0.19 0  0.5402535821032429 0.19 0  0.5327852798661811 0.19 0  0.5253169776290537 0.19 0  0.5178486753919799 0.19 0  0.5103803731549078 0.19 0  0.502912070917822 0.19 0  0.4954437686807294 0.19 0  0.4879754664436223 0.19 0  0.4805071642065402 0.19 0  0.4730388619694271 0.19 0  0.4655705597323621 0.19 0  0.4581022574952563 0.19 0  0.4506339552581777 0.19 0  0.4431656530210671 0.19 0  0.4356973507839815 0.19 0  0.4282290485468779 0.19 0  0.4207607463097617 0.19 0  0.4132924440726327 0.19 0  0.4058241418354857 0.19 0  0.3983558395983636 0.19 0  0.3908875373612097 0.19 0  0.3834192351240934 0.19 0  0.3759509328869369 0.19 0  0.3684826306498175 0.19 0  0.361014328412667 0.19 0  0.3535460261755617 0.19 0  0.3460777239384295 0.19 0  0.3386094217012945 0.19 0  0.3311411194641595 0.19 0  0.3236728172270245 0.19 0  0.3162045149898895 0.19 0  0.3087362127527544 0.19 0  0.3012679105156187 0.19 0  0.2937996082784807 0.19 0  0.2863313060413428 0.19 0  0.2788630038042048 0.19 0  0.2713947015670686 0.19 0  0.2639263993299336 0.19 0  0.2564580970927985 0.19 0  0.2607803159922026 0.2000727136295815 0  0.5887803774232762 0.2001272386983733 0  0.5745072403740523 0.2002044435018727 0  0.5511891430099709 0.2001122610077113 0  0.2751288526855082 0.20000000000002 0  0.5365194309847112 0.1999999999999436 0  0.2894621222999649 0.1998691686390484 0  0.5215828265105155 0.1999999999999228 0  0.3127789816668748 0.1998657885438805 0  0.3274069683451451 0.2000000000000796 0  0.5066462220363641 0.199999999999908 0  0.3650630746574081 0.199866017807523 0  0.476773013087985 0.1999999999998713 0  0.3417402379596385 0.1998691686391011 0  0.3796850840047755 0.200000000000134 0  0.4618364086138087 0.1999999999998546 0  0.4917096175621762 0.1999999999998808 0  0.3946216884789568 0.2000000000001512 0  0.446899804139621 0.1999999999998389 0  0.4089549580935208 0.1998691686391595 0  0.4322718174608562 0.200127451265745 0  0.4201487168029707 0.1999966199048527 0  0.3528922713220932 0.2000185703532356 0  0.5633122436674589 0.1999814296467508 0  0.3006558810093873 0.1999966199048318 0  0.5815926498168407 0.1966545283159175 0  0.2677053789419034 0.1964246479135325 0  0.5290511287476175 0.1970915826863981 0  0.5439877332217911 0.197091582686394 0  0.2825131256993216 0.2035478995978015 0  0.3199386661080599 0.202908417313604 0  0.4842413153250809 0.1970915826863873 0  0.5141145242734466 0.1970915826863843 0  0.3722167817676917 0.2029084173136195 0  0.4693047108508938 0.1970915826863783 0  0.3348752705822316 0.202908417313609 0  0.3871533862418661 0.2029084173136212 0  0.4543681063767183 0.1970915826863795 0  0.4991779197992749 0.1970915826863902 0  0.4020059614928624 0.203547899597858 0  0.4394315019025246 0.1970915826863714 0  0.2550657455369551 0.2034088125358657 0  0.2548908499171161 0.1966940311614271 0  0.5946539510196798 0.2024302972968126 0  0.267698176732111 0.2039977513680092 0  0.4261685417851465 0.196409292431739 0  0.3590076176283495 0.196411355804271 0  0.5571672426447437 0.2036011176410121 0  0.3066757059912147 0.1964092924317024 0  0.594380730180568 0.1966558399668133 0  0.4842413153245942 0.2040749161535287 0  0.4693047108503577 0.2040749161535231 0  0.3871533862424271 0.1959250838464788 0  0.372246743208829 0.1959123236376545 0  0.5141145242731028 0.2040749161535395 0  0.4543681063761134 0.2040749161535186 0  0.4019979587101454 0.1959834479682427 0  0.4394608940728603 0.2040870543693135 0  0.5439623148931173 0.2040856076781014 0  0.5290511287473298 0.2040749161535501 0  0.4991779197988497 0.2040749161535382 0  0.3347912413592433 0.1959225448935183 0  0.3199680582793816 0.1959123018030061 0  0.2825051229162361 0.1959834479681729 0  0.3590471196690275 0.2036304442587945 0  0.5571594006495384 0.1963685282145804 0  0.3067669986803285 0.203627750582736 0  0.4262598344738712 0.2036568242185335 0  0.5814408164431408 0.2041285596160068 0  0.5688286748170428 0.1961819304477386 0  0.4145905603063645 0.2038180695522843 0  0.3473758401724931 0.2038180695522752 0  0.2950977245128307 0.2038180695522663 0  0.5688286748170693 0.203818069552238 0  0.2950977245127906 0.1961819304477774 0  0.3473758401723931 0.1961819304478349 0  0.4145905603061963 0.1961819304479011 0  0.2601812407614425 0.2056861609747042
[...]
<PointData  Vectors="f_40-0"> 
<DataArray  type="Float64"  Name="f_40-0"  NumberOfComponents="3" format="ascii">0.0000000000000000e+00 0.0000000000000000e+00 0.0000000000000000e+00  0.0000000000000000e+00 0.0000000000000000e+00 0.0000000000000000e+00  0.0000000000000000e+00 0.0000000000000000e+00 0.0000000000000000e+00  0.0000000000000000e+00 0.0000000000000000e+00 0.0000000000000000e+00  4.1336860679735739e-05 3.4741417823738060e-03 0.0000000000000000e+00  -2.0796189840769448e-04 3.4766598494006397e-03 0.0000000000000000e+00  0.0000000000000000e+00 0.0000000000000000e+00 0.0000000000000000e+00  0.0000000000000000e+00 0.0000000000000000e+00 0.0000000000000000e+00  0.0000000000000000e+00 0.0000000000000000e+00 0.0000000000000000e+00  0.0000000000000000e+00 0.0000000000000000e+00 0.0000000000000000e+00  -8.3188173228549700e-05 3.4753816172711075e-03 0.0000000000000000e+00  4.9392755159203672e-01 0.0000000000000000e+00 0.0000000000000000e+00  9.1186624909305125e-01 0.0000000000000000e+00 0.0000000000000000e+00  1.2538160925029458e+00 0.0000000000000000e+00 0.0000000000000000e+00  1.5197770818221161e+00 0.0000000000000000e+00 0.0000000000000000e+00  1.7097492170505273e+00 0.0000000000000000e+00 0.0000000000000000e+00  1.8237324981881684e+00 0.0000000000000000e+00 0.0000000000000000e+00  1.8617269252349256e+00 0.0000000000000000e+00 0.0000000000000000e+00  1.8237324981904730e+00 0.0000000000000000e+00 0.0000000000000000e+00  1.7097492170544855e+00 0.0000000000000000e+00 0.0000000000000000e+00  1.5197770818270180e+00 0.0000000000000000e+00 0.0000000000000000e+00  1.2538160925076027e+00 0.0000000000000000e+00 0.0000000000000000e+00  9.1186624909702529e-01 0.0000000000000000e+00 0.0000000000000000e+00  4.9392755159427582e-01 0.0000000000000000e+00 0.0000000000000000e+00  0.0000000000000000e+00 0.0000000000000000e+00 0.0000000000000000e+00  0.0000000000000000e+00 0.0000000000000000e+00 0.0000000000000000e+00  0.0000000000000000e+00 0.0000000000000000e+00 0.0000000000000000e+00  0.0000000000000000e+00 0.0000000000000000e+00 0.0000000000000000e+00  0.0000000000000000e+00 0.0000000000000000e+00 0.0000000000000000e+00  0.0000000000000000e+00 0.0000000000000000e+00 0.0000000000000000e+00  0.0000000000000000e+00 0.0000000000000000e+00 0.0000000000000000e+00  0.0000000000000000e+00 0.0000000000000000e+00 0.0000000000000000e+00  0.0000000000000000e+00 0.0000000000000000e+00 0.0000000000000000e+00  0.0000000000000000e+00 0.0000000000000000e+00 0.0000000000000000e+00  0.0000000000000000e+00 0.0000000000000000e+00 0.0000000000000000e+00  0.0000000000000000e+00 0.0000000000000000e+00 0.0000000000000000e+00  0.0000000000000000e+00 0.0000000000000000e+00 0.0000000000000000e+00  0.0000000000000000e+00 0.0000000000000000e+00 0.0000000000000000e+00  0.0000000000000000e+00 0.0000000000000000e+00 0.0000000000000000e+00  0.0000000000000000e+00 0.0000000000000000e+00 0.0000000000000000e+00  0.0000000000000000e+00 0.0000000000000000e+00 0.0000000000000000e+00  0.0000000000000000e+00 0.0000000000000000e+00 0.0000000000000000e+00  0.0000000000000000e+00 0.0000000000000000e+00 0.0000000000000000e+00  0.0000000000000000e+00 0.0000000000000000e+00 0.0000000000000000e+00  0.0000000000000000e+00 0.0000000000000000e+00 0.0000000000000000e+00  0.0000000000000000e+00 0.0000000000000000e+00 0.0000000000000000e+00  0.0000000000000000e+00 0.0000000000000000e+00 0.0000000000000000e+00  0.0000000000000000e+00 0.0000000000000000e+00 0.0000000000000000e+00  0.0000000000000000e+00 0.0000000000000000e+00 0.0000000000000000e+00  0.0000000000000000e+00 0.0000000000000000e+00 0.0000000000000000e+00  0.0000000000000000e+00 0.0000000000000000e+00 0.0000000000000000e+00  0.0000000000000000e+00 0.0000000000000000e+00 0.0000000000000000e+00  0.0000000000000000e+00 0.0000000000000000e+00 0.0000000000000000e+00  0.0000000000000000e+00 0.0000000000000000e+00 0.0000000000000000e+00  0.0000000000000000e+00 0.0000000000000000e+00 0.0000000000000000e+00  0.0000000000000000e+00 0.0000000000000000e+00 0.0000000000000000e+00  0.0000000000000000e+00 0.0000000000000000e+00 0.0000000000000000e+00  0.0000000000000000e+00 0.0000000000000000e+00 0.0000000000000000e+00  0.0000000000000000e+00 0.0000000000000000e+00 0.0000000000000000e+00  0.0000000000000000e+00 0.0000000000000000e+00 0.0000000000000000e+00  0.0000000000000000e+00 0.0000000000000000e+00 0.0000000000000000e+00  0.0000000000000000e+00 0.0000000000000000e+00 0.0000000000000000e+00  1.6945402566578045e+00 -3.1529945379749659e-02 0.0000000000000000e+00  1.3641568101081902e+00 1.5800531111179270e-02 0.0000000000000000e+00  1.6725695396696882e+00 6.0658471445882448e-02 0.0000000000000000e+00  0.0000000000000000e+00 0.0000000000000000e+00 0.0000000000000000e+00  0.0000000000000000e+00 0.0000000000000000e+00 0.0000000000000000e+00  0.0000000000000000e+00 0.0000000000000000e+00 0.0000000000000000e+00  0.0000000000000000e+00 0.0000000000000000e+00 0.0000000000000000e+00  0.0000000000000000e+00 0.0000000000000000e+00 0.0000000000000000e+00  0.0000000000000000e+00 0.0000000000000000e+00 0.0000000000000000e+00  0.0000000000000000e+00 0.0000000000000000e+00 0.0000000000000000e+00  0.0000000000000000e+00 0.0000000000000000e+00 0.0000000000000000e+00  0.0000000000000000e+00 0.0000000000000000e+00 0.0000000000000000e+00  0.0000000000000000e+00 0.0000000000000000e+00 0.0000000000000000e+00  0.0000000000000000e+00 0.0000000000000000e+00 0.0000000000000000e+00  0.0000000000000000e+00 0.0000000000000000e+00 0.0000000000000000e+00  0.0000000000000000e+00 0.0000000000000000e+00 0.0000000000000000e+00  0.0000000000000000e+00 0.0000000000000000e+00 0.0000000000000000e+00  0.0000000000000000e+00 0.0000000000000000e+00 0.0000000000000000e+00  0.0000000000000000e+00 0.0000000000000000e+00 0.0000000000000000e+00  0.0000000000000000e+00 0.0000000000000000e+00 0.0000000000000000e+00  0.0000000000000000e+00 0.0000000000000000e+00 0.0000000000000000e+00  0.0000000000000000e+00 0.0000000000000000e+00 0.0000000000000000e+00  0.0000000000000000e+00 0.0000000000000000e+00 0.0000000000000000e+00  0.0000000000000000e+00 0.0000000000000000e+00 0.0000000000000000e+00  0.0000000000000000e+00 0.0000000000000000e+00 0.0000000000000000e+00  0.0000000000000000e+00 0.0000000000000000e+00 0.0000000000000000e+00  0.0000000000000000e+00 0.0000000000000000e+00 0.0000000000000000e+00  0.0000000000000000e+00 0.0000000000000000e+00 0.0000000000000000e+00  0.0000000000000000e+00 0.0000000000000000e+00 0.0000000000000000e+00  0.0000000000000000e+00 0.0000000000000000e+00 0.0000000000000000e+00  0.0000000000000000e+00 0.0000000000000000e+00 0.0000000000000000e+00  0.0000000000000000e+00 0.0000000000000000e+00 0.0000000000000000e+00  0.0000000000000000e+00 0.0000000000000000e+00 0.0000000000000000e+00  0.0000000000000000e+00 0.0000000000000000e+00 0.0000000000000000e+00  0.0000000000000000e+00 0.0000000000000000e+00 0.0000000000000000e+00  0.0000000000000000e+00 0.0000000000000000e+00 0.0000000000000000e+00  0.0000000000000000e+00 0.0000000000000000e+00 0.0000000000000000e+00  0.0000000000000000e+00 0.0000000000000000e+00 0.0000000000000000e+00  0.0000000000000000e+00 0.0000000000000000e+00 0.0000000000000000e+00  0.0000000000000000e+00 0.0000000000000000e+00 0.0000000000000000e+00  0.0000000000000000e+00 0.0000000000000000e+00 0.0000000000000000e+00  0.0000000000000000e+00 0.0000000000000000e+00 0.0000000000000000e+00  0.0000000000000000e+00 0.0000000000000000e+00 0.0000000000000000e+00  0.0000000000000000e+00 0.0000000000000000e+00 0.0000000000000000e+00  0.0000000000000000e+00 0.0000000000000000e+00 0.0000000000000000e+00  0.0000000000000000e+00 0.0000000000000000e+00 0.0000000000000000e+00  0.0000000000000000e+00 0.0000000000000000e+00 0.0000000000000000e+00  0.0000000000000000e+00 0.0000000000000000e+00 0.0000000000000000e+00  0.0000000000000000e+00 0.0000000000000000e+00 0.0000000000000000e+00  0.0000000000000000e+00 0.0000000000000000e+00 0.0000000000000000e+00  0.0000000000000000e+00 0.0000000000000000e+00 0.0000000000000000e+00  0.0000000000000000e+00 0.0000000000000000e+00 0.0000000000000000e+00  0.0000000000000000e+00 0.0000000000000000e+00 0.0000000000000000e+00  0.0000000000000000e+00 0.0000000000000000e+00 0.0000000000000000e+00  0.0000000000000000e+00 0.0000000000000000e+00 0.0000000000000000e+00  0.0000000000000000e+00 0.0000000000000000e+00 0.0000000000000000e+00  0.0000000000000000e+00 0.0000000000000000e+00 0.0000000000000000e+00  0.0000000000000000e+00 0.0000000000000000e+00 0.0000000000000000e+00  0.0000000000000000e+00 0.0000000000000000e+00 0.0000000000000000e+00  0.0000000000000000e+00 0.0000000000000000e+00 0.0000000000000000e+00  0.0000000000000000e+00 0.0000000000000000e+00 0.0000000000000000e+00  0.0000000000000000e+00 0.0000000000000000e+00 0.0000000000000000e+00  0.0000000000000000e+00 0.0000000000000000e+00 0.0000000000000000e+00  0.0000000000000000e+00 0.0000000000000000e+00 0.0000000000000000e+00  0.0000000000000000e+00 0.0000000000000000e+00 0.0000000000000000e+00  0.0000000000000000e+00 0.0000000000000000e+00 0.0000000000000000e+00  0.0000000000000000e+00 0.0000000000000000e+00 0.0000000000000000e+00  0.0000000000000000e+00 0.0000000000000000e+00 0.0000000000000000e+00  0.0000000000000000e+00 0.0000000000000000e+00 0.0000000000000000e+00  0.0000000000000000e+00 0.0000000000000000e+00 0.0000000000000000e+00  0.0000000000000000e+00 0.0000000000000000e+00 0.0000000000000000e+00  0.0000000000000000e+00 0.0000000000000000e+00 0.0000000000000000e+00  0.0000000000000000e+00 0.0000000000000000e+00 0.0000000000000000e+00  0.0000000000000000e+00 0.0000000000000000e+00 0.0000000000000000e+00  0.0000000000000000e+00 0.0000000000000000e+00 0.0000000000000000e+00  0.0000000000000000e+00 0.0000000000000000e+00 0.0000000000000000e+00  0.0000000000000000e+00 0.0000000000000000e+00 0.0000000000000000e+00  0.0000000000000000e+00 0.0000000000000000e+00 0.0000000000000000e+00  0.0000000000000000e+00 0.0000000000000000e+00 0.0000000000000000e+00  0.0000000000000000e+00 0.0000000000000000e+00 0.0000000000000000e+00  0.0000000000000000e+00 0.0000000000000000e+00 0.0000000000000000e+00  -1.1308043049145595e-05 1.2242900152685980e-05 0.0000000000000000e+00  -2.3861569392275656e-05 2.3515215269478527e-05 0.0000000000000000e+00  -3.5296529825452394e-05 4.1130876061983842e-05 0.0000000000000000e+00  -4.7357246575780587e-05 6.5547609026982465e-05 0.0000000000000000e+00  -5.7752941830314258e-05 9.5541530097390678e-05 0.0000000000000000e+00  -6.8948925613905880e-05 1.3161866971448576e-04 0.0000000000000000e+00  -7.8336576045021067e-05 1.7203721951990867e-04 0.0000000000000000e+00  -8.7346745197524741e-05 2.1806747879207650e-04 0.0000000000000000e+00  -9.7108477216292273e-05 2.6824354876746077e-04 0.0000000000000000e+00  -1.0501506176924445e-04 3.2259525823534393e-04 0.0000000000000000e+00  -1.1387361307638706e-04 3.8100473347606645e-04 0.0000000000000000e+00  -1.2101956180842880e-04 4.4294972886788471e-04 0.0000000000000000e+00  -1.2877579728664493e-04 5.0827673386055858e-04 0.0000000000000000e+00  -1.3531510228497099e-04 5.7621988639455269e-04 0.0000000000000000e+00  -1.4154146827511922e-04 6.4730910085660626e-04 0.0000000000000000e+00  -1.4807663760490897e-04 7.2069166293640431e-04 0.0000000000000000e+00  -1.5346736314340647e-04 7.9629653340453955e-04 0.0000000000000000e+00  -1.5923391126403968e-04 8.7408021388294082e-04 0.0000000000000000e+00  -1.6398218777041780e-04 9.5360385092708782e-04 0.0000000000000000e+00  -1.6897001413462373e-04 1.0348310528812119e-03 0.0000000000000000e+00  -1.7323015447002338e-04 1.1174981083071735e-03 0.0000000000000000e+00  -1.7750035104202927e-04 1.2015957019547673e-03 0.0000000000000000e+00  -1.8120889293893436e-04 1.2866610203748484e-03 0.0000000000000000e+00  -1.8465923022283068e-04 1.3729394431183125e-03 0.0000000000000000e+00  -1.8811112689420763e-04 1.4600396045921459e-03 0.0000000000000000e+00  -1.9110026371336889e-04 1.5479862124125041e-03 0.0000000000000000e+00  -1.9391626683154924e-04 1.6367681526683086e-03 0.0000000000000000e+00  -1.9642508785003686e-04 1.7260717647133029e-03 0.0000000000000000e+00  -1.9875044789243820e-04 1.8160700964934559e-03 0.0000000000000000e+00  -2.0079915735398400e-04 1.9064532668124719e-03 0.0000000000000000e+00  -2.0266069993578418e-04 1.9973851187482417e-03 0.0000000000000000e+00  -2.0426637572330594e-04 2.0885749194642002e-03 0.0000000000000000e+00  -2.0569391521844485e-04 2.1801923209522787e-03 0.0000000000000000e+00  -2.0688015107493319e-04 2.2719553870757495e-03 0.0000000000000000e+00  -2.0788277283212886e-04 2.3640620333757255e-03 0.0000000000000000e+00  -2.0868465802289791e-04 2.4562464295879629e-03 0.0000000000000000e+00  -2.0931884782612165e-04 2.5486799479623439e-03 0.0000000000000000e+00  -2.0977575759570445e-04 2.6411395106667500e-03 0.0000000000000000e+00  -2.1007078133539417e-04 2.7337857313036620e-03 0.0000000000000000e+00  -2.1021351557838345e-04 2.8264327202157189e-03 0.0000000000000000e+00  -2.1020390972661000e-04 2.9191971091020084e-03 0.0000000000000000e+00  -2.1008728639706223e-04 3.0119762729177760e-03 0.0000000000000000e+00  -2.0982857154829197e-04 3.1048189927243915e-03 0.0000000000000000e+00  -2.0950259769912338e-04 3.1976977522203340e-03 0.0000000000000000e+00  -2.0905938898080172e-04 3.2905897270631046e-03 0.0000000000000000e+00  -2.0852667516227158e-04 3.3835503688047983e-03 0.0000000000000000e+00  -1.4550826655764974e-04 3.4760241010040188e-03 0.0000000000000000e+00  -2.0890038307345958e-05 3.4747466584992186e-03 0.0000000000000000e+00  4.0723447539030293e-05 3.3810377604637921e-03 0.0000000000000000e+00  4.0126709146746000e-05 3.2878716220879063e-03 0.0000000000000000e+00  3.9607185730930095e-05 3.1946861530044563e-03 0.0000000000000000e+00  3.9171708055107928e-05 3.1015438259973829e-03 0.0000000000000000e+00  3.8809384372820818e-05 3.0084198315811408e-03 0.0000000000000000e+00  3.8573470141814604e-05 2.9153342221535723e-03 0.0000000000000000e+00  3.8389569030413658e-05 2.8222978933521380e-03 0.0000000000000000e+00  3.8349700742706003e-05 2.7292817234571814e-03 0.0000000000000000e+00  3.8370787305995023e-05 2.6363926457681763e-03 0.0000000000000000e+00  3.8534757060776252e-05 2.5435277704436389e-03 0.0000000000000000e+00  3.8742065412492964e-05 2.4508436346497944e-03 0.0000000000000000e+00  3.9111283529452065e-05 2.3582392522078304e-03 0.0000000000000000e+00  3.9499657308139249e-05 2.2658929125775554e-03 0.0000000000000000e+00  4.0056850981324670e-05 2.1737057433696733e-03 0.0000000000000000e+00  4.0589025001649365e-05 2.0818541395310414e-03 0.0000000000000000e+00  4.1311008333093823e-05 1.9902620649110184e-03 0.0000000000000000e+00  4.1958814662587024e-05 1.8991088462512158e-03 0.0000000000000000e+00  4.2819915236814746e-05 1.8083387441374214e-03 0.0000000000000000e+00  4.3544237899206982e-05 1.7181420613366059e-03 0.0000000000000000e+00  4.4504812380496681e-05 1.6284803867492878e-03 0.0000000000000000e+00  4.5242091562456108e-05 1.5395350967121824e-03 0.0000000000000000e+00  4.6245196587011279e-05 1.4513057382493314e-03 0.0000000000000000e+00  4.6961513205991321e-05 1.3639665063567700e-03 0.0000000000000000e+00  4.7880575717475228e-05 1.2774834380951043e-03 0.0000000000000000e+00  4.8789649269344936e-05 1.1922476333136179e-03 0.0000000000000000e+00  4.9329100895864520e-05 1.1079662678270929e-03 0.0000000000000000e+00  4.9996542400721722e-05 1.0251679403657219e-03 0.0000000000000000e+00  5.0354140663700583e-05 9.4378844704066565e-04 0.0000000000000000e+00  5.0739315266296308e-05 8.6414883121164066e-04 0.0000000000000000e+00  5.0756863029716708e-05 7.8629879237529163e-04 0.0000000000000000e+00  5.0772268768754751e-05 7.1049249106826359e-04 0.0000000000000000e+00  5.0071324782395702e-05 6.3721301319298823e-04 0.0000000000000000e+00  4.9734080440417560e-05 5.6603027703231530e-04 0.0000000000000000e+00  4.9174729282514065e-05 4.9809192389559706e-04 0.0000000000000000e+00  4.7643799405043142e-05 4.3252754734981889e-04 0.0000000000000000e+00  4.6245114172650265e-05 3.7067945413901546e-04 0.0000000000000000e+00  4.4129340285037273e-05 3.1223145787660019e-04 0.0000000000000000e+00  4.2043727438166911e-05 2.5768824931318642e-04 0.0000000000000000e+00  3.8696729311103835e-05 2.0775938173435109e-04 0.0000000000000000e+00  3.6045844692675287e-05 1.6164086092886843e-04 0.0000000000000000e+00  3.3071047160227725e-05 1.2121731436148010e-04 0.0000000000000000e+00  2.8440944704805688e-05 8.4962350116844375e-05 0.0000000000000000e+00  2.4289525933320438e-05 5.4788966872694021e-05 0.0000000000000000e+00  1.8541503067553710e-05 3.0602619847515657e-05 0.0000000000000000e+00  1.3422319922461049e-05 1.3060681727448529e-05 0.0000000000000000e+00  6.3935648409977265e-06 2.4336121798454118e-06 0.0000000000000000e+00  -3.1885696494416724e-06 7.9759881290545633e-06 0.0000000000000000e+00  -8.5717609122656848e-05 3.3355477415789514e-03 0.0000000000000000e+00  -8.7642098636133209e-05 3.1577375541305395e-03 0.0000000000000000e+00  -8.7224842482745490e-05 2.8674688740975697e-03 0.0000000000000000e+00  -9.8328351404529239e-06 4.3152456080983536e-05 0.0000000000000000e+00  -8.5711873954732862e-05 2.6850747365649410e-03 0.0000000000000000e+00  -1.5465824367019277e-05 1.0094811165005285e-04 0.0000000000000000e+00  -8.5100899987393321e-05 2.4997085795175835e-03 0.0000000000000000e+00  -2.5090075642203708e-05 2.3648374326267881e-04 0.0000000000000000e+00  -3.2113881415806691e-05 3.4372957007585607e-04 0.0000000000000000e+00  -8.3946562554650309e-05 2.3148708725424447e-03 0.0000000000000000e+00  -4.5935757987539203e-05 6.8004361083529204e-04 0.0000000000000000e+00  -7.9946375041975499e-05 1.9479741949631937e-03 0.0000000000000000e+00  -3.6885344519551807e-05 4.6253532339613103e-04 0.0000000000000000e+00  -5.2756818803337274e-05 8.2867431183252015e-04 0.0000000000000000e+00  -7.7102291859707390e-05 1.7667238205763159e-03 0.0000000000000000e+00  -8.2230379629401540e-05 2.1308398961428642e-03 0.0000000000000000e+00  -5.8100183290386255e-05 9.8808996130069957e-04 0.0000000000000000e+00  -7.3711165226532163e-05 1.5876372933810389e-03 0.0000000000000000e+00  -6.1443060463522577e-05 1.1469137487018527e-03 0.0000000000000000e+00  -7.1396394701911460e-05 1.4150051078492445e-03 0.0000000000000000e+00  -6.6327801356523596e-05 1.2745097799275059e-03 0.0000000000000000e+00  -4.2641051070684147e-05 5.6371044168179957e-04 0.0000000000000000e+00  -8.5313094484396098e-05 3.0183109567817330e-03 0.0000000000000000e+00  -2.0793611914615331e-05 1.6093809934765183e-04 0.0000000000000000e+00  -4.2980604308090058e-05 3.2455021086742093e-03 0.0000000000000000e+00  1.7031446237203933e-06 2.0721848826608584e-05 0.0000000000000000e+00  -4.9408651339617182e-05 2.5916322888731745e-03 0.0000000000000000e+00  -4.9687341678991890e-05 2.7772678746985063e-03 0.0000000000000000e+00  -2.6871293510768398e-05 7.2850757586392418e-05 0.0000000000000000e+00  -4.9994592424033633e-05 2.8894379725150288e-04 0.0000000000000000e+00  -4.5621540741460888e-05 2.0382635224426480e-03 0.0000000000000000e+00  -4.8645637788327860e-05 2.4064090534328076e-03 0.0000000000000000e+00  -7.9290708558988712e-05 7.5342206870890923e-04 0.0000000000000000e+00  -4.3385517208633464e-05 1.8560634114862843e-03 0.0000000000000000e+00  -5.8997978348363658e-05 4.0591431441146724e-04 0.0000000000000000e+00  -8.6284629265738898e-05 9.0911627023220897e-04 0.0000000000000000e+00  -4.0698628130927496e-05 1.6757519550147184e-03 0.0000000000000000e+00  -4.7380166544865115e-05 2.2218463177047861e-03 0.0000000000000000e+00  -9.9720761193903794e-05 1.0711719425766082e-03 0.0000000000000000e+00  -3.7599140537352545e-05 1.4979174368112630e-03 0.0000000000000000e+00  -2.4546244780339824e-06 3.0041244040566248e-06 0.0000000000000000e+00  5.0510126716178730e-07 5.4744217574537633e-07 0.0000000000000000e+00  -1.1393235813105735e-04 3.4090476182577650e-03 0.0000000000000000e+00  -1.5645992176794191e-05 2.4938120758703714e-05 0.0000000000000000e+00  -2.6678043427261293e-05 1.3423446478699052e-03 0.00000