<?xml version="1.0"?>
<VTKFile type="UnstructuredGrid"  version="0.1"  >
<UnstructuredGrid>
<Piece  NumberOfPoints="1419" NumberOfCells="2698">
<Points>
<DataArray  type="Float64"  NumberOfComponents="3"  format="ascii">0 0 0  0 0.41 0  2.5 0 0  2.5 0.41 0  0.6 0.19 0  0.6 0.21 0  0.25 0.2 0  0.15 0.2 0  0.2489897948556636 0.21 0  0.2489897948556636 0.19 0  0.6 0.2 0  0 0.3807142857143437 0  0 0.3514285714286952 0  0 0.3221428571430699 0  0 0.29285714285744 0  0 0.2635714285718054 0  0 0.2342857142861561 0  0 0.2050000000005308 0  0 0.175714285714732 0  0 0.1464285714289574 0  0 0.1171428571431897 0  0 0.08785714285737878 0  0 0.05857142857161107 0  0 0.02928571428580012 0  0.03015443760436003 0 0  0.06140001986583606 0 0  0.09377624077125973 0 0  0.1273239957535082 0 0  0.1620856860351972 0 0  0.1981052433264291 0 0  0.235428184091502 0 0  0.2741016576309132 0 0  0.3141745521465447 0 0  0.3556974926295285 0 0  0.3987229542472677 0 0  0.4433053055141081 0 0  0.4895008759286886 0 0  0.5373680609405097 0 0  0.5869673343216626 0 0  0.6383613676634521 0 0  0.6916151138468254 0 0  0.7467958595648856 0 0  0.8039733463919316 0 0  0.8632198139502143 0 0  0.9246101326867038 0 0  0.9882218810934433 0 0  1.054135445558498 0 0  1.122434100542598 0 0  1.193204177141305 0 0  1.266535089879536 0 0  1.342519516046404 0 0  1.421253448503939 0 0  1.502836389106271 0 0  1.587371439758838 0 0  1.674965418777374 0 0  1.765729001825544 0 0  1.859776908880082 0 0  1.957227977487062 0 0  2.058205329869943 0 0  2.162836591189951 0 0  2.271253957290865 0 0  2.383594446803425 0 0  2.5 0.1024999999997612 0  2.5 0.2049999999994743 0  2.5 0.3074999999997183 0  2.383594446803656 0.41 0  2.271253957291315 0.41 0  2.162836591190598 0.41 0  2.058205329870775 0.41 0  1.957227977488067 0.41 0  1.859776908881246 0.41 0  1.765729001826854 0.41 0  1.674965418778818 0.41 0  1.58737143976041 0.41 0  1.502836389107956 0.41 0  1.421253448505726 0.41 0  1.342519516048286 0.41 0  1.266535089881505 0.41 0  1.193204177143353 0.41 0  1.122434100544716 0.41 0  1.05413544556068 0.41 0  0.9882218810956305 0.41 0  0.9246101326886647 0.41 0  0.8632198139519631 0.41 0  0.8039733463934788 0.41 0  0.7467958595662458 0.41 0  0.6916151138480078 0.41 0  0.6383613676644679 0.41 0  0.5869673343225223 0.41 0  0.5373680609412221 0.41 0  0.4895008759292634 0.41 0  0.4433053055145528 0.41 0  0.3987229542475914 0.41 0  0.3556974926297398 0.41 0  0.3141745521466497 0.41 0  0.2741016576310038 0.41 0  0.2354281840915826 0.41 0  0.1981052433265003 0.41 0  0.1620856860352591 0.41 0  0.1273239957535623 0.41 0  0.09377624077128965 0.41 0  0.06140001986584975 0.41 0  0.03015443760436654 0.41 0  0.2497468076502589 0.2050254481002335 0  0.2497468076502614 0.1949745518997913 0  0.2469965252529372 0.1829317073451959 0  0.2439893735792749 0.1762316384219906 0  0.2400332147834255 0.1700443375285386 0  0.2352133972704371 0.1645032867342007 0  0.2296339016332438 0.1597280261969788 0  0.2234150974217223 0.1558215752574715 0  0.2166911463437691 0.1528682099456123 0  0.2096071079204251 0.1509316448471593 0  0.2023158100364996 0.1500536585536553 0  0.194974551899914 0.1502531923497262 0  0.1877417105387872 0.1515259415822739 0  0.1807733240461124 0.153844448527136 0  0.1742197252835808 0.15715869474974 0  0.1682222986673531 0.1613971801805478 0  0.162910430003803 0.1664684656256651 0  0.1583987151779087 0.1722631454351573 0  0.1547844879126891 0.178656207771761 0  0.1521457199348551 0.1855097315605723 0  0.1505393388476355 0.1926758619366523 0  0.1505393388476328 0.2073241380633295 0  0.1521457199348437 0.2144902684393899 0  0.1547844879126531 0.221343792228163 0  0.1583987151778488 0.2277368545647528 0  0.1629104300036858 0.2335315343742052 0  0.1682222986671726 0.2386028198193036 0  0.1742197252833576 0.2428413052501257 0  0.1807733240458683 0.2461555514727623 0  0.1877417105384929 0.2484740584176516 0  0.1949745518995776 0.2497468076502398 0  0.202315810036185 0.2499463414463592 0  0.2096071079201568 0.2490683551528932 0  0.2166911463435495 0.2471317900544655 0  0.2234150974215506 0.2441784247426195 0  0.2296339016331197 0.2402719738031125 0  0.2352133972703547 0.2354967132658811 0  0.2400332147833751 0.2299556624715287 0  0.2439893735792577 0.2237683615780412 0  0.246996525252926 0.2170682926548348 0  0.25645809709277 0.21 0  0.2639263993298655 0.21 0  0.271394701566961 0.21 0  0.2788630038040554 0.21 0  0.2863313060411479 0.21 0  0.2937996082782405 0.21 0  0.301267910515333 0.21 0  0.3087362127524279 0.21 0  0.3162045149895234 0.21 0  0.3236728172265972 0.21 0  0.3311411194636928 0.21 0  0.3386094217007701 0.21 0  0.3460777239378666 0.21 0  0.3535460261749672 0.21 0  0.3610143284120516 0.21 0  0.3684826306491596 0.21 0  0.3759509328862226 0.21 0  0.383419235123329 0.21 0  0.3908875373604028 0.21 0  0.3983558395975142 0.21 0  0.4058241418345938 0.21 0  0.4132924440716992 0.21 0  0.4207607463087888 0.21 0  0.4282290485459029 0.21 0  0.4356973507830418 0.21 0  0.4431656530201649 0.21 0  0.4506339552573136 0.21 0  0.4581022574944306 0.21 0  0.4655705597315852 0.21 0  0.4730388619686996 0.21 0  0.480507164205851 0.21 0  0.4879754664429498 0.21 0  0.4954437686800938 0.21 0  0.502912070917267 0.21 0  0.5103803731544119 0.21 0  0.5178486753915261 0.21 0  0.5253169776286404 0.21 0  0.5327852798657868 0.21 0  0.5402535821029386 0.21 0  0.54772188434007 0.21 0  0.5551901865771842 0.21 0  0.5626584888143201 0.21 0  0.5701267910514778 0.21 0  0.5775950932886138 0.21 0  0.5850633955257281 0.21 0  0.5925316977628483 0.21 0  0.6 0.2050000000000054 0  0.6 0.1950000000000217 0  0.5925316977628897 0.19 0  0.5850633955257988 0.19 0  0.5775950932887378 0.19 0  0.5701267910515998 0.19 0  0.5626584888145268 0.19 0  0.5551901865773963 0.19 0  0.547721884340339 0.19 0  0.5402535821032429 0.19 0  0.5327852798661811 0.19 0  0.5253169776290537 0.19 0  0.5178486753919799 0.19 0  0.5103803731549078 0.19 0  0.502912070917822 0.19 0  0.4954437686807294 0.19 0  0.4879754664436223 0.19 0  0.4805071642065402 0.19 0  0.4730388619694271 0.19 0  0.4655705597323621 0.19 0  0.4581022574952563 0.19 0  0.4506339552581777 0.19 0  0.4431656530210671 0.19 0  0.4356973507839815 0.19 0  0.4282290485468779 0.19 0  0.4207607463097617 0.19 0  0.4132924440726327 0.19 0  0.4058241418354857 0.19 0  0.3983558395983636 0.19 0  0.3908875373612097 0.19 0  0.3834192351240934 0.19 0  0.3759509328869369 0.19 0  0.3684826306498175 0.19 0  0.361014328412667 0.19 0  0.3535460261755617 0.19 0  0.3460777239384295 0.19 0  0.3386094217012945 0.19 0  0.3311411194641595 0.19 0  0.3236728172270245 0.19 0  0.3162045149898895 0.19 0  0.3087362127527544 0.19 0  0.3012679105156187 0.19 0  0.2937996082784807 0.19 0  0.2863313060413428 0.19 0  0.2788630038042048 0.19 0  0.2713947015670686 0.19 0  0.2639263993299336 0.19 0  0.2564580970927985 0.19 0  0.2607803159922026 0.2000727136295815 0  0.5887803774232762 0.2001272386983733 0  0.5745072403740523 0.2002044435018727 0  0.5511891430099709 0.2001122610077113 0  0.2751288526855082 0.20000000000002 0  0.5365194309847112 0.1999999999999436 0  0.2894621222999649 0.1998691686390484 0  0.5215828265105155 0.1999999999999228 0  0.3127789816668748 0.1998657885438805 0  0.3274069683451451 0.2000000000000796 0  0.5066462220363641 0.199999999999908 0  0.3650630746574081 0.199866017807523 0  0.476773013087985 0.1999999999998713 0  0.3417402379596385 0.1998691686391011 0  0.3796850840047755 0.200000000000134 0  0.4618364086138087 0.1999999999998546 0  0.4917096175621762 0.1999999999998808 0  0.3946216884789568 0.2000000000001512 0  0.446899804139621 0.1999999999998389 0  0.4089549580935208 0.1998691686391595 0  0.4322718174608562 0.200127451265745 0  0.4201487168029707 0.1999966199048527 0  0.3528922713220932 0.2000185703532356 0  0.5633122436674589 0.1999814296467508 0  0.3006558810093873 0.1999966199048318 0  0.5815926498168407 0.1966545283159175 0  0.2677053789419034 0.1964246479135325 0  0.5290511287476175 0.1970915826863981 0  0.5439877332217911 0.197091582686394 0  0.2825131256993216 0.2035478995978015 0  0.3199386661080599 0.202908417313604 0  0.4842413153250809 0.1970915826863873 0  0.5141145242734466 0.1970915826863843 0  0.3722167817676917 0.2029084173136195 0  0.4693047108508938 0.1970915826863783 0  0.3348752705822316 0.202908417313609 0  0.3871533862418661 0.2029084173136212 0  0.4543681063767183 0.1970915826863795 0  0.4991779197992749 0.1970915826863902 0  0.4020059614928624 0.203547899597858 0  0.4394315019025246 0.1970915826863714 0  0.2550657455369551 0.2034088125358657 0  0.2548908499171161 0.1966940311614271 0  0.5946539510196798 0.2024302972968126 0  0.267698176732111 0.2039977513680092 0  0.4261685417851465 0.196409292431739 0  0.3590076176283495 0.196411355804271 0  0.5571672426447437 0.2036011176410121 0  0.3066757059912147 0.1964092924317024 0  0.594380730180568 0.1966558399668133 0  0.4842413153245942 0.2040749161535287 0  0.4693047108503577 0.2040749161535231 0  0.3871533862424271 0.1959250838464788 0  0.372246743208829 0.1959123236376545 0  0.5141145242731028 0.2040749161535395 0  0.4543681063761134 0.2040749161535186 0  0.4019979587101454 0.1959834479682427 0  0.4394608940728603 0.2040870543693135 0  0.5439623148931173 0.2040856076781014 0  0.5290511287473298 0.2040749161535501 0  0.4991779197988497 0.2040749161535382 0  0.3347912413592433 0.1959225448935183 0  0.3199680582793816 0.1959123018030061 0  0.2825051229162361 0.1959834479681729 0  0.3590471196690275 0.2036304442587945 0  0.5571594006495384 0.1963685282145804 0  0.3067669986803285 0.203627750582736 0  0.4262598344738712 0.2036568242185335 0  0.5814408164431408 0.2041285596160068 0  0.5688286748170428 0.1961819304477386 0  0.4145905603063645 0.2038180695522843 0  0.3473758401724931 0.2038180695522752 0  0.2950977245128307 0.2038180695522663 0  0.5688286748170693 0.203818069552238 0  0.2950977245127906 0.1961819304477774 0  0.3473758401723931 0.1961819304478349 0  0.4145905603061963 0.1961819304479011 0  0.2601812407614425 0.2056861609747042
[...]
<PointData  Vectors="f_40-0"> 
<DataArray  type="Float64"  Name="f_40-0"  NumberOfComponents="3" format="ascii">0.0000000000000000e+00 0.0000000000000000e+00 0.0000000000000000e+00  0.0000000000000000e+00 0.0000000000000000e+00 0.0000000000000000e+00  0.0000000000000000e+00 0.0000000000000000e+00 0.0000000000000000e+00  0.0000000000000000e+00 0.0000000000000000e+00 0.0000000000000000e+00  -5.1301782322762717e-10 -3.9278055782722319e-08 0.0000000000000000e+00  -9.5249387225573948e-10 -4.2552932590976147e-08 0.0000000000000000e+00  0.0000000000000000e+00 0.0000000000000000e+00 0.0000000000000000e+00  0.0000000000000000e+00 0.0000000000000000e+00 0.0000000000000000e+00  0.0000000000000000e+00 0.0000000000000000e+00 0.0000000000000000e+00  0.0000000000000000e+00 0.0000000000000000e+00 0.0000000000000000e+00  -8.8056156982342886e-10 -5.5847443876980104e-08 0.0000000000000000e+00  7.9591836734548405e-01 0.0000000000000000e+00 0.0000000000000000e+00  1.4693877550994523e+00 0.0000000000000000e+00 0.0000000000000000e+00  2.0204081632617479e+00 0.0000000000000000e+00 0.0000000000000000e+00  2.4489795918330071e+00 0.0000000000000000e+00 0.0000000000000000e+00  2.7551020408131754e+00 0.0000000000000000e+00 0.0000000000000000e+00  2.9387755102022344e+00 0.0000000000000000e+00 0.0000000000000000e+00  3.0000000000000004e+00 0.0000000000000000e+00 0.0000000000000000e+00  2.9387755102059474e+00 0.0000000000000000e+00 0.0000000000000000e+00  2.7551020408195543e+00 0.0000000000000000e+00 0.0000000000000000e+00  2.4489795918409065e+00 0.0000000000000000e+00 0.0000000000000000e+00  2.0204081632692521e+00 0.0000000000000000e+00 0.0000000000000000e+00  1.4693877551058563e+00 0.0000000000000000e+00 0.0000000000000000e+00  7.9591836734909216e-01 0.0000000000000000e+00 0.0000000000000000e+00  0.0000000000000000e+00 0.0000000000000000e+00 0.0000000000000000e+00  0.0000000000000000e+00 0.0000000000000000e+00 0.0000000000000000e+00  0.0000000000000000e+00 0.0000000000000000e+00 0.0000000000000000e+00  0.0000000000000000e+00 0.0000000000000000e+00 0.0000000000000000e+00  0.0000000000000000e+00 0.0000000000000000e+00 0.0000000000000000e+00  0.0000000000000000e+00 0.0000000000000000e+00 0.0000000000000000e+00  0.0000000000000000e+00 0.0000000000000000e+00 0.0000000000000000e+00  0.0000000000000000e+00 0.0000000000000000e+00 0.0000000000000000e+00  0.0000000000000000e+00 0.0000000000000000e+00 0.0000000000000000e+00  0.0000000000000000e+00 0.0000000000000000e+00 0.0000000000000000e+00  0.0000000000000000e+00 0.0000000000000000e+00 0.0000000000000000e+00  0.0000000000000000e+00 0.0000000000000000e+00 0.0000000000000000e+00  0.0000000000000000e+00 0.0000000000000000e+00 0.0000000000000000e+00  0.0000000000000000e+00 0.0000000000000000e+00 0.0000000000000000e+00  0.0000000000000000e+00 0.0000000000000000e+00 0.0000000000000000e+00  0.0000000000000000e+00 0.0000000000000000e+00 0.0000000000000000e+00  0.0000000000000000e+00 0.0000000000000000e+00 0.0000000000000000e+00  0.0000000000000000e+00 0.0000000000000000e+00 0.0000000000000000e+00  0.0000000000000000e+00 0.0000000000000000e+00 0.0000000000000000e+00  0.0000000000000000e+00 0.0000000000000000e+00 0.0000000000000000e+00  0.0000000000000000e+00 0.0000000000000000e+00 0.0000000000000000e+00  0.0000000000000000e+00 0.0000000000000000e+00 0.0000000000000000e+00  0.0000000000000000e+00 0.0000000000000000e+00 0.0000000000000000e+00  0.0000000000000000e+00 0.0000000000000000e+00 0.0000000000000000e+00  0.0000000000000000e+00 0.0000000000000000e+00 0.0000000000000000e+00  0.0000000000000000e+00 0.0000000000000000e+00 0.0000000000000000e+00  0.0000000000000000e+00 0.0000000000000000e+00 0.0000000000000000e+00  0.0000000000000000e+00 0.0000000000000000e+00 0.0000000000000000e+00  0.0000000000000000e+00 0.0000000000000000e+00 0.0000000000000000e+00  0.0000000000000000e+00 0.0000000000000000e+00 0.0000000000000000e+00  0.0000000000000000e+00 0.0000000000000000e+00 0.0000000000000000e+00  0.0000000000000000e+00 0.0000000000000000e+00 0.0000000000000000e+00  0.0000000000000000e+00 0.0000000000000000e+00 0.0000000000000000e+00  0.0000000000000000e+00 0.0000000000000000e+00 0.0000000000000000e+00  0.0000000000000000e+00 0.0000000000000000e+00 0.0000000000000000e+00  0.0000000000000000e+00 0.0000000000000000e+00 0.0000000000000000e+00  0.0000000000000000e+00 0.0000000000000000e+00 0.0000000000000000e+00  0.0000000000000000e+00 0.0000000000000000e+00 0.0000000000000000e+00  2.6635955240835654e+00 1.8824090595200401e-02 0.0000000000000000e+00  2.3247860624799190e+00 1.8885768375935117e-02 0.0000000000000000e+00  2.8346016348954528e+00 7.1577986283746009e-02 0.0000000000000000e+00  0.0000000000000000e+00 0.0000000000000000e+00 0.0000000000000000e+00  0.0000000000000000e+00 0.0000000000000000e+00 0.0000000000000000e+00  0.0000000000000000e+00 0.0000000000000000e+00 0.0000000000000000e+00  0.0000000000000000e+00 0.0000000000000000e+00 0.0000000000000000e+00  0.0000000000000000e+00 0.0000000000000000e+00 0.0000000000000000e+00  0.0000000000000000e+00 0.0000000000000000e+00 0.0000000000000000e+00  0.0000000000000000e+00 0.0000000000000000e+00 0.0000000000000000e+00  0.0000000000000000e+00 0.0000000000000000e+00 0.0000000000000000e+00  0.0000000000000000e+00 0.0000000000000000e+00 0.0000000000000000e+00  0.0000000000000000e+00 0.0000000000000000e+00 0.0000000000000000e+00  0.0000000000000000e+00 0.0000000000000000e+00 0.0000000000000000e+00  0.0000000000000000e+00 0.0000000000000000e+00 0.0000000000000000e+00  0.0000000000000000e+00 0.0000000000000000e+00 0.0000000000000000e+00  0.0000000000000000e+00 0.0000000000000000e+00 0.0000000000000000e+00  0.0000000000000000e+00 0.0000000000000000e+00 0.0000000000000000e+00  0.0000000000000000e+00 0.0000000000000000e+00 0.0000000000000000e+00  0.0000000000000000e+00 0.0000000000000000e+00 0.0000000000000000e+00  0.0000000000000000e+00 0.0000000000000000e+00 0.0000000000000000e+00  0.0000000000000000e+00 0.0000000000000000e+00 0.0000000000000000e+00  0.0000000000000000e+00 0.0000000000000000e+00 0.0000000000000000e+00  0.0000000000000000e+00 0.0000000000000000e+00 0.0000000000000000e+00  0.0000000000000000e+00 0.0000000000000000e+00 0.0000000000000000e+00  0.0000000000000000e+00 0.0000000000000000e+00 0.0000000000000000e+00  0.0000000000000000e+00 0.0000000000000000e+00 0.0000000000000000e+00  0.0000000000000000e+00 0.0000000000000000e+00 0.0000000000000000e+00  0.0000000000000000e+00 0.0000000000000000e+00 0.0000000000000000e+00  0.0000000000000000e+00 0.0000000000000000e+00 0.0000000000000000e+00  0.0000000000000000e+00 0.0000000000000000e+00 0.0000000000000000e+00  0.0000000000000000e+00 0.0000000000000000e+00 0.0000000000000000e+00  0.0000000000000000e+00 0.0000000000000000e+00 0.0000000000000000e+00  0.0000000000000000e+00 0.0000000000000000e+00 0.0000000000000000e+00  0.0000000000000000e+00 0.0000000000000000e+00 0.0000000000000000e+00  0.0000000000000000e+00 0.0000000000000000e+00 0.0000000000000000e+00  0.0000000000000000e+00 0.0000000000000000e+00 0.0000000000000000e+00  0.0000000000000000e+00 0.0000000000000000e+00 0.0000000000000000e+00  0.0000000000000000e+00 0.0000000000000000e+00 0.0000000000000000e+00  0.0000000000000000e+00 0.0000000000000000e+00 0.0000000000000000e+00  0.0000000000000000e+00 0.0000000000000000e+00 0.0000000000000000e+00  0.0000000000000000e+00 0.0000000000000000e+00 0.0000000000000000e+00  0.0000000000000000e+00 0.0000000000000000e+00 0.0000000000000000e+00  0.0000000000000000e+00 0.0000000000000000e+00 0.0000000000000000e+00  0.0000000000000000e+00 0.0000000000000000e+00 0.0000000000000000e+00  0.0000000000000000e+00 0.0000000000000000e+00 0.0000000000000000e+00  0.0000000000000000e+00 0.0000000000000000e+00 0.0000000000000000e+00  0.0000000000000000e+00 0.0000000000000000e+00 0.0000000000000000e+00  0.0000000000000000e+00 0.0000000000000000e+00 0.0000000000000000e+00  0.0000000000000000e+00 0.0000000000000000e+00 0.0000000000000000e+00  0.0000000000000000e+00 0.0000000000000000e+00 0.0000000000000000e+00  0.0000000000000000e+00 0.0000000000000000e+00 0.0000000000000000e+00  0.0000000000000000e+00 0.0000000000000000e+00 0.0000000000000000e+00  0.0000000000000000e+00 0.0000000000000000e+00 0.0000000000000000e+00  0.0000000000000000e+00 0.0000000000000000e+00 0.0000000000000000e+00  0.0000000000000000e+00 0.0000000000000000e+00 0.0000000000000000e+00  0.0000000000000000e+00 0.0000000000000000e+00 0.0000000000000000e+00  0.0000000000000000e+00 0.0000000000000000e+00 0.0000000000000000e+00  0.0000000000000000e+00 0.0000000000000000e+00 0.0000000000000000e+00  0.0000000000000000e+00 0.0000000000000000e+00 0.0000000000000000e+00  0.0000000000000000e+00 0.0000000000000000e+00 0.0000000000000000e+00  0.0000000000000000e+00 0.0000000000000000e+00 0.0000000000000000e+00  0.0000000000000000e+00 0.0000000000000000e+00 0.0000000000000000e+00  0.0000000000000000e+00 0.0000000000000000e+00 0.0000000000000000e+00  0.0000000000000000e+00 0.0000000000000000e+00 0.0000000000000000e+00  0.0000000000000000e+00 0.0000000000000000e+00 0.0000000000000000e+00  0.0000000000000000e+00 0.0000000000000000e+00 0.0000000000000000e+00  0.0000000000000000e+00 0.0000000000000000e+00 0.0000000000000000e+00  0.0000000000000000e+00 0.0000000000000000e+00 0.0000000000000000e+00  0.0000000000000000e+00 0.0000000000000000e+00 0.0000000000000000e+00  0.0000000000000000e+00 0.0000000000000000e+00 0.0000000000000000e+00  0.0000000000000000e+00 0.0000000000000000e+00 0.0000000000000000e+00  0.0000000000000000e+00 0.0000000000000000e+00 0.0000000000000000e+00  0.0000000000000000e+00 0.0000000000000000e+00 0.0000000000000000e+00  0.0000000000000000e+00 0.0000000000000000e+00 0.0000000000000000e+00  0.0000000000000000e+00 0.0000000000000000e+00 0.0000000000000000e+00  0.0000000000000000e+00 0.0000000000000000e+00 0.0000000000000000e+00  0.0000000000000000e+00 0.0000000000000000e+00 0.0000000000000000e+00  0.0000000000000000e+00 0.0000000000000000e+00 0.0000000000000000e+00  0.0000000000000000e+00 0.0000000000000000e+00 0.0000000000000000e+00  0.0000000000000000e+00 0.0000000000000000e+00 0.0000000000000000e+00  1.3480509550110252e-10 -2.5521012839754834e-10 0.0000000000000000e+00  2.4604215253821144e-10 -4.6190965959464872e-10 0.0000000000000000e+00  3.5848511600949486e-10 -7.7438773421329891e-10 0.0000000000000000e+00  4.6359288486212908e-10 -1.1696246451348429e-09 0.0000000000000000e+00  5.6383406302909570e-10 -1.6611113998226673e-09 0.0000000000000000e+00  6.4969401607566965e-10 -2.2710023828244863e-09 0.0000000000000000e+00  7.4550690909866630e-10 -2.8429855803105042e-09 0.0000000000000000e+00  8.0921213294814234e-10 -3.6581330577534668e-09 0.0000000000000000e+00  8.8464061934211155e-10 -4.4433917412565045e-09 0.0000000000000000e+00  9.5285894983822956e-10 -5.3251489016295632e-09 0.0000000000000000e+00  1.0110330739657245e-09 -6.2663751799239917e-09 0.0000000000000000e+00  1.0696838823931047e-09 -7.2674087103514360e-09 0.0000000000000000e+00  1.1075237687977754e-09 -8.3194118556337366e-09 0.0000000000000000e+00  1.1726686422326947e-09 -9.4241853788663477e-09 0.0000000000000000e+00  1.1910966329050813e-09 -1.0560605447508105e-08 0.0000000000000000e+00  1.2344957116954954e-09 -1.1765411336848501e-08 0.0000000000000000e+00  1.2652427608469661e-09 -1.2982097502568753e-08 0.0000000000000000e+00  1.2926303196549533e-09 -1.4253176859116534e-08 0.0000000000000000e+00  1.3164091168367538e-09 -1.5543959224895334e-08 0.0000000000000000e+00  1.3340313669047064e-09 -1.6864580597159691e-08 0.0000000000000000e+00  1.3523984934770135e-09 -1.8213405387346194e-08 0.0000000000000000e+00  1.3576338905020210e-09 -1.9540210741989767e-08 0.0000000000000000e+00  1.3914246467035942e-09 -2.1089263014275889e-08 0.0000000000000000e+00  1.3756592685034876e-09 -2.2343745260434652e-08 0.0000000000000000e+00  1.3869531581067543e-09 -2.3814795734302516e-08 0.0000000000000000e+00  1.3901201328031281e-09 -2.5238262333223455e-08 0.0000000000000000e+00  1.3912722738157985e-09 -2.6709349312426733e-08 0.0000000000000000e+00  1.3902063993936396e-09 -2.8164995062827914e-08 0.0000000000000000e+00  1.3875915562646506e-09 -2.9642181101773391e-08 0.0000000000000000e+00  1.3829981734188483e-09 -3.1129228518607423e-08 0.0000000000000000e+00  1.3770912642770954e-09 -3.2613227301310780e-08 0.0000000000000000e+00  1.3696142759124469e-09 -3.4109501567047162e-08 0.0000000000000000e+00  1.3610393063171263e-09 -3.5617362315769724e-08 0.0000000000000000e+00  1.3508141981708837e-09 -3.7102148637613777e-08 0.0000000000000000e+00  1.3400920663862719e-09 -3.8614862087451984e-08 0.0000000000000000e+00  1.3277818529043781e-09 -4.0112690481504035e-08 0.0000000000000000e+00  1.3148778318708310e-09 -4.1619236443776039e-08 0.0000000000000000e+00  1.3008174425542506e-09 -4.3119373328362831e-08 0.0000000000000000e+00  1.2853221753457898e-09 -4.4600795684759170e-08 0.0000000000000000e+00  1.2697999317848405e-09 -4.6093912172841375e-08 0.0000000000000000e+00  1.2457950543088997e-09 -4.7464079669996916e-08 0.0000000000000000e+00  1.2585704977065130e-09 -4.9542869757365573e-08 0.0000000000000000e+00  1.2039709782397910e-09 -5.0316057137518453e-08 0.0000000000000000e+00  1.1822583220424690e-09 -5.1775217674278558e-08 0.0000000000000000e+00  1.1609252466161286e-09 -5.3387247796155579e-08 0.0000000000000000e+00  1.2186017563217539e-09 -5.4149052855513005e-08 0.0000000000000000e+00  1.5682374276266118e-10 -5.6234300837086116e-08 0.0000000000000000e+00  -1.8861310757174645e-09 -5.5632653563899636e-08 0.0000000000000000e+00  -2.9243016200826797e-09 -5.4312555917991238e-08 0.0000000000000000e+00  -2.8341614632067451e-09 -5.3210474619979469e-08 0.0000000000000000e+00  -2.8519998044528348e-09 -5.1918306222226519e-08 0.0000000000000000e+00  -2.8316912610040488e-09 -5.0248722880446067e-08 0.0000000000000000e+00  -2.8467612861578221e-09 -4.9489556434569201e-08 0.0000000000000000e+00  -2.8120535346048179e-09 -4.7416677127039014e-08 0.0000000000000000e+00  -2.8073573727899687e-09 -4.6144584881181518e-08 0.0000000000000000e+00  -2.7913221817608099e-09 -4.4621699907595321e-08 0.0000000000000000e+00  -2.7757167062293572e-09 -4.3126656767236212e-08 0.0000000000000000e+00  -2.7594695519361602e-09 -4.1624304336159769e-08 0.0000000000000000e+00  -2.7417620679729374e-09 -4.0121972425460822e-08 0.0000000000000000e+00  -2.7236272753314322e-09 -3.8614501965994663e-08 0.0000000000000000e+00  -2.7036933410156167e-09 -3.7108179556193582e-08 0.0000000000000000e+00  -2.6834436053599950e-09 -3.5603071229024068e-08 0.0000000000000000e+00  -2.6610650225833727e-09 -3.4101370789031831e-08 0.0000000000000000e+00  -2.6381559961505073e-09 -3.2603367252099516e-08 0.0000000000000000e+00  -2.6128568168056819e-09 -3.1112917831915181e-08 0.0000000000000000e+00  -2.5866804555948401e-09 -2.9627063397496252e-08 0.0000000000000000e+00  -2.5577646080960893e-09 -2.8148246103228359e-08 0.0000000000000000e+00  -2.5276382540198269e-09 -2.6679285027091047e-08 0.0000000000000000e+00  -2.4942735952377159e-09 -2.5219992661788977e-08 0.0000000000000000e+00  -2.4601148956819766e-09 -2.3783491857675764e-08 0.0000000000000000e+00  -2.4155168182166319e-09 -2.2302846855103605e-08 0.0000000000000000e+00  -2.3907804749501434e-09 -2.1031604577580711e-08 0.0000000000000000e+00  -2.3305741053631171e-09 -1.9490651841683296e-08 0.0000000000000000e+00  -2.2873863682628529e-09 -1.8139478780164535e-08 0.0000000000000000e+00  -2.2354364941695877e-09 -1.6802035998508728e-08 0.0000000000000000e+00  -2.1804064286251588e-09 -1.5466851077744516e-08 0.0000000000000000e+00  -2.1204137707542644e-09 -1.4187556005654686e-08 0.0000000000000000e+00  -2.0571580514922187e-09 -1.2913467147617327e-08 0.0000000000000000e+00  -1.9872488576854660e-09 -1.1698334897836464e-08 0.0000000000000000e+00  -1.9091585793656190e-09 -1.0496974409380635e-08 0.0000000000000000e+00  -1.8483123983907544e-09 -9.3665569057963968e-09 0.0000000000000000e+00  -1.7472894224172240e-09 -8.2545396163244199e-09 0.0000000000000000e+00  -1.6622395933995368e-09 -7.2093486831172029e-09 0.0000000000000000e+00  -1.5624921188707845e-09 -6.2059530523374042e-09 0.0000000000000000e+00  -1.4603146126001671e-09 -5.2666050077984073e-09 0.0000000000000000e+00  -1.3460640452333120e-09 -4.3878600094660698e-09 0.0000000000000000e+00  -1.2259370624743732e-09 -3.5923346161553034e-09 0.0000000000000000e+00  -1.1139465401987065e-09 -2.7769417767152271e-09 0.0000000000000000e+00  -9.7154466348964010e-10 -2.1991039689695754e-09 0.0000000000000000e+00  -8.3470325594128733e-10 -1.5989035929322235e-09 0.0000000000000000e+00  -6.8175964933924246e-10 -1.1069508617213218e-09 0.0000000000000000e+00  -5.2431235397610929e-10 -6.9866337840927751e-10 0.0000000000000000e+00  -3.5669944365165691e-10 -3.9125460205829129e-10 0.0000000000000000e+00  -1.8654436484943321e-10 -2.0874605993347889e-10 0.0000000000000000e+00  -4.9317189015777911e-11 -1.5854434456844067e-10 0.0000000000000000e+00  -8.0995100311749193e-10 -5.5211615453769491e-08 0.0000000000000000e+00  -7.7509911072987719e-10 -5.2171951741949146e-08 0.0000000000000000e+00  -7.4588155867085603e-10 -4.7423029696868948e-08 0.0000000000000000e+00  -9.7959451423771740e-11 -7.4560835499730079e-10 0.0000000000000000e+00  -7.3927212981339782e-10 -4.4420743485782043e-08 0.0000000000000000e+00  -1.5560145779167005e-10 -1.6981639622669271e-09 0.0000000000000000e+00  -7.0890221021021288e-10 -4.1348358603530261e-08 0.0000000000000000e+00  -2.3537778034609263e-10 -3.9155765526164914e-09 0.0000000000000000e+00  -2.6434076365515511e-10 -5.6686896918703826e-09 0.0000000000000000e+00  -6.7852933627720364e-10 -3.8280263398107051e-08 0.0000000000000000e+00  -3.8890827947856457e-10 -1.1181913658099156e-08 0.0000000000000000e+00  -6.1739409186815598e-10 -3.2183766033113572e-08 0.0000000000000000e+00  -3.2371826649538530e-10 -7.6149046846156219e-09 0.0000000000000000e+00  -4.0344999666318281e-10 -1.3626906437483668e-08 0.0000000000000000e+00  -5.8645177623033937e-10 -2.9170768007722620e-08 0.0000000000000000e+00  -6.4805112157915104e-10 -3.5223236140874728e-08 0.0000000000000000e+00  -4.3914430754415630e-10 -1.6256112311794862e-08 0.0000000000000000e+00  -5.5515338117245485e-10 -2.6194087841146522e-08 0.0000000000000000e+00  -4.9676051582500003e-10 -1.8878879811703128e-08 0.0000000000000000e+00  -4.9911593985570583e-10 -2.3322238631427608e-08 0.0000000000000000e+00  -4.9634022662327964e-10 -2.1066340208266761e-08 0.0000000000000000e+00  -3.3159293700356455e-10 -9.2731599928234532e-09 0.0000000000000000e+00  -7.9551656291201463e-10 -5.0226612600522463e-08 0.0000000000000000e+00  -1.8271103848082897e-10 -2.6386461561214047e-09 0.0000000000000000e+00  -1.5425268463949005e-09 -5.4252498466592468e-08 0.0000000000000000e+00  -2.0902891128568176e-10 -3.3033701496846096e-10 0.0000000000000000e+00  -1.3321933593944153e-09 -4.3228412543414597e-08 0.0000000000000000e+00  -1.3640734621922037e-09 -4.6347847411505123e-08 0.0000000000000000e+00  1.0761335249520263e-10 -1.1462842212304949e-09 0.0000000000000000e+00  1.1060254445183914e-10 -4.7140224399698269e-09 0.0000000000000000e+00  -1.2316337105956585e-09 -3.3931988287730612e-08 0.0000000000000000e+00  -1.2996341533815676e-09 -4.0113742799302106e-08 0.0000000000000000e+00  1.0956518819794843e-10 -1.2404695658122031e-08 0.0000000000000000e+00  -1.1952742469375218e-09 -3.0874281946105186e-08 0.0000000000000000e+00  1.1473233679066186e-10 -6.6461496009677733e-09 0.0000000000000000e+00  9.9656440447709162e-11 -1.4993431262335440e-08 0.0000000000000000e+00  -1.1567245564616952e-09 -2.7850060215030561e-08 0.0000000000000000e+00  -1.2662647909424625e-09 -3.7013890235268676e-08 0.0000000000000000e+00  2.0361140276406120e-10 -1.7689479414584949e-08 0.0000000000000000e+00  -1.1154356849572525e-09 -2.4867848852626434e-08 0.0000000000000000e+00  -4.7954494414768568e-12 -2.9433160598698836e-11 0.0000000000000000e+00  -4.8428059777631497e-11 -1.0544564755040129e-11 0.0000000000000000e+00  -4.1864205523035855e-10 -5.6749169894739251e-08 0.00000000000