<?xml version="1.0"?>
<VTKFile type="UnstructuredGrid"  version="0.1"  >
<UnstructuredGrid>
<Piece  NumberOfPoints="1419" NumberOfCells="2698">
<Points>
<DataArray  type="Float64"  NumberOfComponents="3"  format="ascii">0 0 0  0 0.41 0  2.5 0 0  2.5 0.41 0  0.6 0.19 0  0.6 0.21 0  0.25 0.2 0  0.15 0.2 0  0.2489897948556636 0.21 0  0.2489897948556636 0.19 0  0.6 0.2 0  0 0.3807142857143437 0  0 0.3514285714286952 0  0 0.3221428571430699 0  0 0.29285714285744 0  0 0.2635714285718054 0  0 0.2342857142861561 0  0 0.2050000000005308 0  0 0.175714285714732 0  0 0.1464285714289574 0  0 0.1171428571431897 0  0 0.08785714285737878 0  0 0.05857142857161107 0  0 0.02928571428580012 0  0.03015443760436003 0 0  0.06140001986583606 0 0  0.09377624077125973 0 0  0.1273239957535082 0 0  0.1620856860351972 0 0  0.1981052433264291 0 0  0.235428184091502 0 0  0.2741016576309132 0 0  0.3141745521465447 0 0  0.3556974926295285 0 0  0.3987229542472677 0 0  0.4433053055141081 0 0  0.4895008759286886 0 0  0.5373680609405097 0 0  0.5869673343216626 0 0  0.6383613676634521 0 0  0.6916151138468254 0 0  0.7467958595648856 0 0  0.8039733463919316 0 0  0.8632198139502143 0 0  0.9246101326867038 0 0  0.9882218810934433 0 0  1.054135445558498 0 0  1.122434100542598 0 0  1.193204177141305 0 0  1.266535089879536 0 0  1.342519516046404 0 0  1.421253448503939 0 0  1.502836389106271 0 0  1.587371439758838 0 0  1.674965418777374 0 0  1.765729001825544 0 0  1.859776908880082 0 0  1.957227977487062 0 0  2.058205329869943 0 0  2.162836591189951 0 0  2.271253957290865 0 0  2.383594446803425 0 0  2.5 0.1024999999997612 0  2.5 0.2049999999994743 0  2.5 0.3074999999997183 0  2.383594446803656 0.41 0  2.271253957291315 0.41 0  2.162836591190598 0.41 0  2.058205329870775 0.41 0  1.957227977488067 0.41 0  1.859776908881246 0.41 0  1.765729001826854 0.41 0  1.674965418778818 0.41 0  1.58737143976041 0.41 0  1.502836389107956 0.41 0  1.421253448505726 0.41 0  1.342519516048286 0.41 0  1.266535089881505 0.41 0  1.193204177143353 0.41 0  1.122434100544716 0.41 0  1.05413544556068 0.41 0  0.9882218810956305 0.41 0  0.9246101326886647 0.41 0  0.8632198139519631 0.41 0  0.8039733463934788 0.41 0  0.7467958595662458 0.41 0  0.6916151138480078 0.41 0  0.6383613676644679 0.41 0  0.5869673343225223 0.41 0  0.5373680609412221 0.41 0  0.4895008759292634 0.41 0  0.4433053055145528 0.41 0  0.3987229542475914 0.41 0  0.3556974926297398 0.41 0  0.3141745521466497 0.41 0  0.2741016576310038 0.41 0  0.2354281840915826 0.41 0  0.1981052433265003 0.41 0  0.1620856860352591 0.41 0  0.1273239957535623 0.41 0  0.09377624077128965 0.41 0  0.06140001986584975 0.41 0  0.03015443760436654 0.41 0  0.2497468076502589 0.2050254481002335 0  0.2497468076502614 0.1949745518997913 0  0.2469965252529372 0.1829317073451959 0  0.2439893735792749 0.1762316384219906 0  0.2400332147834255 0.1700443375285386 0  0.2352133972704371 0.1645032867342007 0  0.2296339016332438 0.1597280261969788 0  0.2234150974217223 0.1558215752574715 0  0.2166911463437691 0.1528682099456123 0  0.2096071079204251 0.1509316448471593 0  0.2023158100364996 0.1500536585536553 0  0.194974551899914 0.1502531923497262 0  0.1877417105387872 0.1515259415822739 0  0.1807733240461124 0.153844448527136 0  0.1742197252835808 0.15715869474974 0  0.1682222986673531 0.1613971801805478 0  0.162910430003803 0.1664684656256651 0  0.1583987151779087 0.1722631454351573 0  0.1547844879126891 0.178656207771761 0  0.1521457199348551 0.1855097315605723 0  0.1505393388476355 0.1926758619366523 0  0.1505393388476328 0.2073241380633295 0  0.1521457199348437 0.2144902684393899 0  0.1547844879126531 0.221343792228163 0  0.1583987151778488 0.2277368545647528 0  0.1629104300036858 0.2335315343742052 0  0.1682222986671726 0.2386028198193036 0  0.1742197252833576 0.2428413052501257 0  0.1807733240458683 0.2461555514727623 0  0.1877417105384929 0.2484740584176516 0  0.1949745518995776 0.2497468076502398 0  0.202315810036185 0.2499463414463592 0  0.2096071079201568 0.2490683551528932 0  0.2166911463435495 0.2471317900544655 0  0.2234150974215506 0.2441784247426195 0  0.2296339016331197 0.2402719738031125 0  0.2352133972703547 0.2354967132658811 0  0.2400332147833751 0.2299556624715287 0  0.2439893735792577 0.2237683615780412 0  0.246996525252926 0.2170682926548348 0  0.25645809709277 0.21 0  0.2639263993298655 0.21 0  0.271394701566961 0.21 0  0.2788630038040554 0.21 0  0.2863313060411479 0.21 0  0.2937996082782405 0.21 0  0.301267910515333 0.21 0  0.3087362127524279 0.21 0  0.3162045149895234 0.21 0  0.3236728172265972 0.21 0  0.3311411194636928 0.21 0  0.3386094217007701 0.21 0  0.3460777239378666 0.21 0  0.3535460261749672 0.21 0  0.3610143284120516 0.21 0  0.3684826306491596 0.21 0  0.3759509328862226 0.21 0  0.383419235123329 0.21 0  0.3908875373604028 0.21 0  0.3983558395975142 0.21 0  0.4058241418345938 0.21 0  0.4132924440716992 0.21 0  0.4207607463087888 0.21 0  0.4282290485459029 0.21 0  0.4356973507830418 0.21 0  0.4431656530201649 0.21 0  0.4506339552573136 0.21 0  0.4581022574944306 0.21 0  0.4655705597315852 0.21 0  0.4730388619686996 0.21 0  0.480507164205851 0.21 0  0.4879754664429498 0.21 0  0.4954437686800938 0.21 0  0.502912070917267 0.21 0  0.5103803731544119 0.21 0  0.5178486753915261 0.21 0  0.5253169776286404 0.21 0  0.5327852798657868 0.21 0  0.5402535821029386 0.21 0  0.54772188434007 0.21 0  0.5551901865771842 0.21 0  0.5626584888143201 0.21 0  0.5701267910514778 0.21 0  0.5775950932886138 0.21 0  0.5850633955257281 0.21 0  0.5925316977628483 0.21 0  0.6 0.2050000000000054 0  0.6 0.1950000000000217 0  0.5925316977628897 0.19 0  0.5850633955257988 0.19 0  0.5775950932887378 0.19 0  0.5701267910515998 0.19 0  0.5626584888145268 0.19 0  0.5551901865773963 0.19 0  0.547721884340339 0.19 0  0.5402535821032429 0.19 0  0.5327852798661811 0.19 0  0.5253169776290537 0.19 0  0.5178486753919799 0.19 0  0.5103803731549078 0.19 0  0.502912070917822 0.19 0  0.4954437686807294 0.19 0  0.4879754664436223 0.19 0  0.4805071642065402 0.19 0  0.4730388619694271 0.19 0  0.4655705597323621 0.19 0  0.4581022574952563 0.19 0  0.4506339552581777 0.19 0  0.4431656530210671 0.19 0  0.4356973507839815 0.19 0  0.4282290485468779 0.19 0  0.4207607463097617 0.19 0  0.4132924440726327 0.19 0  0.4058241418354857 0.19 0  0.3983558395983636 0.19 0  0.3908875373612097 0.19 0  0.3834192351240934 0.19 0  0.3759509328869369 0.19 0  0.3684826306498175 0.19 0  0.361014328412667 0.19 0  0.3535460261755617 0.19 0  0.3460777239384295 0.19 0  0.3386094217012945 0.19 0  0.3311411194641595 0.19 0  0.3236728172270245 0.19 0  0.3162045149898895 0.19 0  0.3087362127527544 0.19 0  0.3012679105156187 0.19 0  0.2937996082784807 0.19 0  0.2863313060413428 0.19 0  0.2788630038042048 0.19 0  0.2713947015670686 0.19 0  0.2639263993299336 0.19 0  0.2564580970927985 0.19 0  0.2607803159922026 0.2000727136295815 0  0.5887803774232762 0.2001272386983733 0  0.5745072403740523 0.2002044435018727 0  0.5511891430099709 0.2001122610077113 0  0.2751288526855082 0.20000000000002 0  0.5365194309847112 0.1999999999999436 0  0.2894621222999649 0.1998691686390484 0  0.5215828265105155 0.1999999999999228 0  0.3127789816668748 0.1998657885438805 0  0.3274069683451451 0.2000000000000796 0  0.5066462220363641 0.199999999999908 0  0.3650630746574081 0.199866017807523 0  0.476773013087985 0.1999999999998713 0  0.3417402379596385 0.1998691686391011 0  0.3796850840047755 0.200000000000134 0  0.4618364086138087 0.1999999999998546 0  0.4917096175621762 0.1999999999998808 0  0.3946216884789568 0.2000000000001512 0  0.446899804139621 0.1999999999998389 0  0.4089549580935208 0.1998691686391595 0  0.4322718174608562 0.200127451265745 0  0.4201487168029707 0.1999966199048527 0  0.3528922713220932 0.2000185703532356 0  0.5633122436674589 0.1999814296467508 0  0.3006558810093873 0.1999966199048318 0  0.5815926498168407 0.1966545283159175 0  0.2677053789419034 0.1964246479135325 0  0.5290511287476175 0.1970915826863981 0  0.5439877332217911 0.197091582686394 0  0.2825131256993216 0.2035478995978015 0  0.3199386661080599 0.202908417313604 0  0.4842413153250809 0.1970915826863873 0  0.5141145242734466 0.1970915826863843 0  0.3722167817676917 0.2029084173136195 0  0.4693047108508938 0.1970915826863783 0  0.3348752705822316 0.202908417313609 0  0.3871533862418661 0.2029084173136212 0  0.4543681063767183 0.1970915826863795 0  0.4991779197992749 0.1970915826863902 0  0.4020059614928624 0.203547899597858 0  0.4394315019025246 0.1970915826863714 0  0.2550657455369551 0.2034088125358657 0  0.2548908499171161 0.1966940311614271 0  0.5946539510196798 0.2024302972968126 0  0.267698176732111 0.2039977513680092 0  0.4261685417851465 0.196409292431739 0  0.3590076176283495 0.196411355804271 0  0.5571672426447437 0.2036011176410121 0  0.3066757059912147 0.1964092924317024 0  0.594380730180568 0.1966558399668133 0  0.4842413153245942 0.2040749161535287 0  0.4693047108503577 0.2040749161535231 0  0.3871533862424271 0.1959250838464788 0  0.372246743208829 0.1959123236376545 0  0.5141145242731028 0.2040749161535395 0  0.4543681063761134 0.2040749161535186 0  0.4019979587101454 0.1959834479682427 0  0.4394608940728603 0.2040870543693135 0  0.5439623148931173 0.2040856076781014 0  0.5290511287473298 0.2040749161535501 0  0.4991779197988497 0.2040749161535382 0  0.3347912413592433 0.1959225448935183 0  0.3199680582793816 0.1959123018030061 0  0.2825051229162361 0.1959834479681729 0  0.3590471196690275 0.2036304442587945 0  0.5571594006495384 0.1963685282145804 0  0.3067669986803285 0.203627750582736 0  0.4262598344738712 0.2036568242185335 0  0.5814408164431408 0.2041285596160068 0  0.5688286748170428 0.1961819304477386 0  0.4145905603063645 0.2038180695522843 0  0.3473758401724931 0.2038180695522752 0  0.2950977245128307 0.2038180695522663 0  0.5688286748170693 0.203818069552238 0  0.2950977245127906 0.1961819304477774 0  0.3473758401723931 0.1961819304478349 0  0.4145905603061963 0.1961819304479011 0  0.2601812407614425 0.2056861609747042
[...]
<PointData  Vectors="f_40-0"> 
<DataArray  type="Float64"  Name="f_40-0"  NumberOfComponents="3" format="ascii">0.0000000000000000e+00 0.0000000000000000e+00 0.0000000000000000e+00  0.0000000000000000e+00 0.0000000000000000e+00 0.0000000000000000e+00  0.0000000000000000e+00 0.0000000000000000e+00 0.0000000000000000e+00  0.0000000000000000e+00 0.0000000000000000e+00 0.0000000000000000e+00  1.2912834695912634e-06 6.8685822863589289e-05 0.0000000000000000e+00  -3.4672443604239053e-06 6.8613127425533248e-05 0.0000000000000000e+00  0.0000000000000000e+00 0.0000000000000000e+00 0.0000000000000000e+00  0.0000000000000000e+00 0.0000000000000000e+00 0.0000000000000000e+00  0.0000000000000000e+00 0.0000000000000000e+00 0.0000000000000000e+00  0.0000000000000000e+00 0.0000000000000000e+00 0.0000000000000000e+00  -1.0877767194789263e-06 6.8635268494999531e-05 0.0000000000000000e+00  7.9591836734548405e-01 0.0000000000000000e+00 0.0000000000000000e+00  1.4693877550994523e+00 0.0000000000000000e+00 0.0000000000000000e+00  2.0204081632617479e+00 0.0000000000000000e+00 0.0000000000000000e+00  2.4489795918330071e+00 0.0000000000000000e+00 0.0000000000000000e+00  2.7551020408131754e+00 0.0000000000000000e+00 0.0000000000000000e+00  2.9387755102022344e+00 0.0000000000000000e+00 0.0000000000000000e+00  3.0000000000000004e+00 0.0000000000000000e+00 0.0000000000000000e+00  2.9387755102059474e+00 0.0000000000000000e+00 0.0000000000000000e+00  2.7551020408195543e+00 0.0000000000000000e+00 0.0000000000000000e+00  2.4489795918409065e+00 0.0000000000000000e+00 0.0000000000000000e+00  2.0204081632692521e+00 0.0000000000000000e+00 0.0000000000000000e+00  1.4693877551058563e+00 0.0000000000000000e+00 0.0000000000000000e+00  7.9591836734909216e-01 0.0000000000000000e+00 0.0000000000000000e+00  0.0000000000000000e+00 0.0000000000000000e+00 0.0000000000000000e+00  0.0000000000000000e+00 0.0000000000000000e+00 0.0000000000000000e+00  0.0000000000000000e+00 0.0000000000000000e+00 0.0000000000000000e+00  0.0000000000000000e+00 0.0000000000000000e+00 0.0000000000000000e+00  0.0000000000000000e+00 0.0000000000000000e+00 0.0000000000000000e+00  0.0000000000000000e+00 0.0000000000000000e+00 0.0000000000000000e+00  0.0000000000000000e+00 0.0000000000000000e+00 0.0000000000000000e+00  0.0000000000000000e+00 0.0000000000000000e+00 0.0000000000000000e+00  0.0000000000000000e+00 0.0000000000000000e+00 0.0000000000000000e+00  0.0000000000000000e+00 0.0000000000000000e+00 0.0000000000000000e+00  0.0000000000000000e+00 0.0000000000000000e+00 0.0000000000000000e+00  0.0000000000000000e+00 0.0000000000000000e+00 0.0000000000000000e+00  0.0000000000000000e+00 0.0000000000000000e+00 0.0000000000000000e+00  0.0000000000000000e+00 0.0000000000000000e+00 0.0000000000000000e+00  0.0000000000000000e+00 0.0000000000000000e+00 0.0000000000000000e+00  0.0000000000000000e+00 0.0000000000000000e+00 0.0000000000000000e+00  0.0000000000000000e+00 0.0000000000000000e+00 0.0000000000000000e+00  0.0000000000000000e+00 0.0000000000000000e+00 0.0000000000000000e+00  0.0000000000000000e+00 0.0000000000000000e+00 0.0000000000000000e+00  0.0000000000000000e+00 0.0000000000000000e+00 0.0000000000000000e+00  0.0000000000000000e+00 0.0000000000000000e+00 0.0000000000000000e+00  0.0000000000000000e+00 0.0000000000000000e+00 0.0000000000000000e+00  0.0000000000000000e+00 0.0000000000000000e+00 0.0000000000000000e+00  0.0000000000000000e+00 0.0000000000000000e+00 0.0000000000000000e+00  0.0000000000000000e+00 0.0000000000000000e+00 0.0000000000000000e+00  0.0000000000000000e+00 0.0000000000000000e+00 0.0000000000000000e+00  0.0000000000000000e+00 0.0000000000000000e+00 0.0000000000000000e+00  0.0000000000000000e+00 0.0000000000000000e+00 0.0000000000000000e+00  0.0000000000000000e+00 0.0000000000000000e+00 0.0000000000000000e+00  0.0000000000000000e+00 0.0000000000000000e+00 0.0000000000000000e+00  0.0000000000000000e+00 0.0000000000000000e+00 0.0000000000000000e+00  0.0000000000000000e+00 0.0000000000000000e+00 0.0000000000000000e+00  0.0000000000000000e+00 0.0000000000000000e+00 0.0000000000000000e+00  0.0000000000000000e+00 0.0000000000000000e+00 0.0000000000000000e+00  0.0000000000000000e+00 0.0000000000000000e+00 0.0000000000000000e+00  0.0000000000000000e+00 0.0000000000000000e+00 0.0000000000000000e+00  0.0000000000000000e+00 0.0000000000000000e+00 0.0000000000000000e+00  0.0000000000000000e+00 0.0000000000000000e+00 0.0000000000000000e+00  2.6481922414502757e+00 1.1005971685354107e-02 0.0000000000000000e+00  2.3747369145797848e+00 1.3567859295984129e-02 0.0000000000000000e+00  2.8007386138572219e+00 6.1360229500165828e-02 0.0000000000000000e+00  0.0000000000000000e+00 0.0000000000000000e+00 0.0000000000000000e+00  0.0000000000000000e+00 0.0000000000000000e+00 0.0000000000000000e+00  0.0000000000000000e+00 0.0000000000000000e+00 0.0000000000000000e+00  0.0000000000000000e+00 0.0000000000000000e+00 0.0000000000000000e+00  0.0000000000000000e+00 0.0000000000000000e+00 0.0000000000000000e+00  0.0000000000000000e+00 0.0000000000000000e+00 0.0000000000000000e+00  0.0000000000000000e+00 0.0000000000000000e+00 0.0000000000000000e+00  0.0000000000000000e+00 0.0000000000000000e+00 0.0000000000000000e+00  0.0000000000000000e+00 0.0000000000000000e+00 0.0000000000000000e+00  0.0000000000000000e+00 0.0000000000000000e+00 0.0000000000000000e+00  0.0000000000000000e+00 0.0000000000000000e+00 0.0000000000000000e+00  0.0000000000000000e+00 0.0000000000000000e+00 0.0000000000000000e+00  0.0000000000000000e+00 0.0000000000000000e+00 0.0000000000000000e+00  0.0000000000000000e+00 0.0000000000000000e+00 0.0000000000000000e+00  0.0000000000000000e+00 0.0000000000000000e+00 0.0000000000000000e+00  0.0000000000000000e+00 0.0000000000000000e+00 0.0000000000000000e+00  0.0000000000000000e+00 0.0000000000000000e+00 0.0000000000000000e+00  0.0000000000000000e+00 0.0000000000000000e+00 0.0000000000000000e+00  0.0000000000000000e+00 0.0000000000000000e+00 0.0000000000000000e+00  0.0000000000000000e+00 0.0000000000000000e+00 0.0000000000000000e+00  0.0000000000000000e+00 0.0000000000000000e+00 0.0000000000000000e+00  0.0000000000000000e+00 0.0000000000000000e+00 0.0000000000000000e+00  0.0000000000000000e+00 0.0000000000000000e+00 0.0000000000000000e+00  0.0000000000000000e+00 0.0000000000000000e+00 0.0000000000000000e+00  0.0000000000000000e+00 0.0000000000000000e+00 0.0000000000000000e+00  0.0000000000000000e+00 0.0000000000000000e+00 0.0000000000000000e+00  0.0000000000000000e+00 0.0000000000000000e+00 0.0000000000000000e+00  0.0000000000000000e+00 0.0000000000000000e+00 0.0000000000000000e+00  0.0000000000000000e+00 0.0000000000000000e+00 0.0000000000000000e+00  0.0000000000000000e+00 0.0000000000000000e+00 0.0000000000000000e+00  0.0000000000000000e+00 0.0000000000000000e+00 0.0000000000000000e+00  0.0000000000000000e+00 0.0000000000000000e+00 0.0000000000000000e+00  0.0000000000000000e+00 0.0000000000000000e+00 0.0000000000000000e+00  0.0000000000000000e+00 0.0000000000000000e+00 0.0000000000000000e+00  0.0000000000000000e+00 0.0000000000000000e+00 0.0000000000000000e+00  0.0000000000000000e+00 0.0000000000000000e+00 0.0000000000000000e+00  0.0000000000000000e+00 0.0000000000000000e+00 0.0000000000000000e+00  0.0000000000000000e+00 0.0000000000000000e+00 0.0000000000000000e+00  0.0000000000000000e+00 0.0000000000000000e+00 0.0000000000000000e+00  0.0000000000000000e+00 0.0000000000000000e+00 0.0000000000000000e+00  0.0000000000000000e+00 0.0000000000000000e+00 0.0000000000000000e+00  0.0000000000000000e+00 0.0000000000000000e+00 0.0000000000000000e+00  0.0000000000000000e+00 0.0000000000000000e+00 0.0000000000000000e+00  0.0000000000000000e+00 0.0000000000000000e+00 0.0000000000000000e+00  0.0000000000000000e+00 0.0000000000000000e+00 0.0000000000000000e+00  0.0000000000000000e+00 0.0000000000000000e+00 0.0000000000000000e+00  0.0000000000000000e+00 0.0000000000000000e+00 0.0000000000000000e+00  0.0000000000000000e+00 0.0000000000000000e+00 0.0000000000000000e+00  0.0000000000000000e+00 0.0000000000000000e+00 0.0000000000000000e+00  0.0000000000000000e+00 0.0000000000000000e+00 0.0000000000000000e+00  0.0000000000000000e+00 0.0000000000000000e+00 0.0000000000000000e+00  0.0000000000000000e+00 0.0000000000000000e+00 0.0000000000000000e+00  0.0000000000000000e+00 0.0000000000000000e+00 0.0000000000000000e+00  0.0000000000000000e+00 0.0000000000000000e+00 0.0000000000000000e+00  0.0000000000000000e+00 0.0000000000000000e+00 0.0000000000000000e+00  0.0000000000000000e+00 0.0000000000000000e+00 0.0000000000000000e+00  0.0000000000000000e+00 0.0000000000000000e+00 0.0000000000000000e+00  0.0000000000000000e+00 0.0000000000000000e+00 0.0000000000000000e+00  0.0000000000000000e+00 0.0000000000000000e+00 0.0000000000000000e+00  0.0000000000000000e+00 0.0000000000000000e+00 0.0000000000000000e+00  0.0000000000000000e+00 0.0000000000000000e+00 0.0000000000000000e+00  0.0000000000000000e+00 0.0000000000000000e+00 0.0000000000000000e+00  0.0000000000000000e+00 0.0000000000000000e+00 0.0000000000000000e+00  0.0000000000000000e+00 0.0000000000000000e+00 0.0000000000000000e+00  0.0000000000000000e+00 0.0000000000000000e+00 0.0000000000000000e+00  0.0000000000000000e+00 0.0000000000000000e+00 0.0000000000000000e+00  0.0000000000000000e+00 0.0000000000000000e+00 0.0000000000000000e+00  0.0000000000000000e+00 0.0000000000000000e+00 0.0000000000000000e+00  0.0000000000000000e+00 0.0000000000000000e+00 0.0000000000000000e+00  0.0000000000000000e+00 0.0000000000000000e+00 0.0000000000000000e+00  0.0000000000000000e+00 0.0000000000000000e+00 0.0000000000000000e+00  0.0000000000000000e+00 0.0000000000000000e+00 0.0000000000000000e+00  0.0000000000000000e+00 0.0000000000000000e+00 0.0000000000000000e+00  0.0000000000000000e+00 0.0000000000000000e+00 0.0000000000000000e+00  0.0000000000000000e+00 0.0000000000000000e+00 0.0000000000000000e+00  0.0000000000000000e+00 0.0000000000000000e+00 0.0000000000000000e+00  0.0000000000000000e+00 0.0000000000000000e+00 0.0000000000000000e+00  0.0000000000000000e+00 0.0000000000000000e+00 0.0000000000000000e+00  -2.1021563309141090e-07 1.4846479798046526e-07 0.0000000000000000e+00  -4.3978187515139587e-07 3.9059855626034385e-07 0.0000000000000000e+00  -6.3537011906847596e-07 7.7628612854939400e-07 0.0000000000000000e+00  -8.3919238428040894e-07 1.3115932372102639e-06 0.0000000000000000e+00  -1.0047937643588931e-06 1.9632325582801543e-06 0.0000000000000000e+00  -1.1856902741993223e-06 2.7402801272934946e-06 0.0000000000000000e+00  -1.3283387107762569e-06 3.6060064626469877e-06 0.0000000000000000e+00  -1.4627020864792980e-06 4.5844498693649239e-06 0.0000000000000000e+00  -1.6111392928912990e-06 5.6447311499499607e-06 0.0000000000000000e+00  -1.7225539780427010e-06 6.7864447835452523e-06 0.0000000000000000e+00  -1.8519036116350035e-06 8.0056192800552440e-06 0.0000000000000000e+00  -1.9485995207527995e-06 9.2915657365199490e-06 0.0000000000000000e+00  -2.0566354246283554e-06 1.0639881501506655e-05 0.0000000000000000e+00  -2.1424498586332184e-06 1.2036036497577939e-05 0.0000000000000000e+00  -2.2232850331133146e-06 1.3488750412706646e-05 0.0000000000000000e+00  -2.3098756667068733e-06 1.4981520420077283e-05 0.0000000000000000e+00  -2.3772189822597218e-06 1.6513521433541784e-05 0.0000000000000000e+00  -2.4517243586826321e-06 1.8081984708048278e-05 0.0000000000000000e+00  -2.5100038838031536e-06 1.9680407583122466e-05 0.0000000000000000e+00  -2.5730528451712746e-06 2.1306033907561653e-05 0.0000000000000000e+00  -2.6254396426521301e-06 2.2955553272245174e-05 0.0000000000000000e+00  -2.6790893101148990e-06 2.4626972441284856e-05 0.0000000000000000e+00  -2.7249674172815335e-06 2.6312884897432132e-05 0.0000000000000000e+00  -2.7684734363283663e-06 2.8017064631952784e-05 0.0000000000000000e+00  -2.8127445052274383e-06 2.9732124944325786e-05 0.0000000000000000e+00  -2.8520705098665654e-06 3.1459382677876879e-05 0.0000000000000000e+00  -2.8903802359351526e-06 3.3196386887865886e-05 0.0000000000000000e+00  -2.9260563215944440e-06 3.4940566177740061e-05 0.0000000000000000e+00  -2.9608389101858649e-06 3.6691971033972202e-05 0.0000000000000000e+00  -2.9937161795031161e-06 3.8448243305560203e-05 0.0000000000000000e+00  -3.0258767622768060e-06 4.0209544925429027e-05 0.0000000000000000e+00  -3.0566707702978273e-06 4.1974106372937865e-05 0.0000000000000000e+00  -3.0869219969429609e-06 4.3742044782651073e-05 0.0000000000000000e+00  -3.1162090856166308e-06 4.5512124719499384e-05 0.0000000000000000e+00  -3.1450864283667882e-06 4.7284380323946663e-05 0.0000000000000000e+00  -3.1732892089113410e-06 4.9057966988331742e-05 0.0000000000000000e+00  -3.2011762640984826e-06 5.0832936003871189e-05 0.0000000000000000e+00  -3.2285994729989810e-06 5.2608644191853528e-05 0.0000000000000000e+00  -3.2557595025128832e-06 5.4385158875053645e-05 0.0000000000000000e+00  -3.2825909252304363e-06 5.6161985357934020e-05 0.0000000000000000e+00  -3.3091796201561533e-06 5.7939290594960349e-05 0.0000000000000000e+00  -3.3355176105853174e-06 5.9715951750584851e-05 0.0000000000000000e+00  -3.3617312528575944e-06 6.1493829722439181e-05 0.0000000000000000e+00  -3.3877357050371691e-06 6.3270930148693889e-05 0.0000000000000000e+00  -3.4136335672647657e-06 6.5047530142996562e-05 0.0000000000000000e+00  -3.4393611261345485e-06 6.6824567792138606e-05 0.0000000000000000e+00  -2.2765421126462099e-06 6.8617444579504623e-05 0.0000000000000000e+00  1.0090446225327138e-07 6.8652823634894248e-05 0.0000000000000000e+00  1.3158474635529205e-06 6.6894303586154154e-05 0.0000000000000000e+00  1.3426482124230869e-06 6.5117548177055581e-05 0.0000000000000000e+00  1.3692384325854580e-06 6.3340547575078948e-05 0.0000000000000000e+00  1.3958569534821837e-06 6.1563639216567244e-05 0.0000000000000000e+00  1.4222754634537227e-06 5.9785723999840288e-05 0.0000000000000000e+00  1.4485856241432463e-06 5.8009038114312189e-05 0.0000000000000000e+00  1.4746554425422372e-06 5.6231662346335646e-05 0.0000000000000000e+00  1.5005728430973787e-06 5.4454829186455118e-05 0.0000000000000000e+00  1.5260616584198642e-06 5.2678356602205860e-05 0.0000000000000000e+00  1.5514714293961271e-06 5.0902622591538879e-05 0.0000000000000000e+00  1.5761677704509165e-06 4.9127681560958949e-05 0.0000000000000000e+00  1.6008532972565202e-06 4.7354052084958973e-05 0.0000000000000000e+00  1.6244243147994716e-06 4.5581794315670838e-05 0.0000000000000000e+00  1.6480740614787856e-06 4.3811637248576618e-05 0.0000000000000000e+00  1.6700436040293915e-06 4.2043667518225343e-05 0.0000000000000000e+00  1.6922180042099252e-06 4.0278937004881823e-05 0.0000000000000000e+00  1.7119290345932879e-06 3.8517564390909852e-05 0.0000000000000000e+00  1.7320271967419342e-06 3.6761028485835804e-05 0.0000000000000000e+00  1.7485802992392579e-06 3.5009481654265242e-05 0.0000000000000000e+00  1.7658094794620493e-06 3.3264935626802439e-05 0.0000000000000000e+00  1.7779775726742087e-06 3.1527709714446505e-05 0.0000000000000000e+00  1.7912297235963320e-06 2.9800493505676086e-05 0.0000000000000000e+00  1.7978117383091092e-06 2.8084227677184229e-05 0.0000000000000000e+00  1.8050801662497226e-06 2.6379824340179978e-05 0.0000000000000000e+00  1.8093610458963631e-06 2.4693553925614452e-05 0.0000000000000000e+00  1.8060733051224742e-06 2.3020857988351081e-05 0.0000000000000000e+00  1.8017268498690619e-06 2.1371631582400002e-05 0.0000000000000000e+00  1.7898644857345161e-06 1.9743686034570319e-05 0.0000000000000000e+00  1.7758297331680098e-06 1.8145105402586246e-05 0.0000000000000000e+00  1.7530772251542128e-06 1.6575033646063088e-05 0.0000000000000000e+00  1.7278187273465200e-06 1.5040474503440100e-05 0.0000000000000000e+00  1.6871385858239528e-06 1.3548794108219237e-05 0.0000000000000000e+00  1.6507969720358411e-06 1.2094241018631051e-05 0.0000000000000000e+00  1.6077623826330771e-06 1.0697641002212241e-05 0.0000000000000000e+00  1.5447698849506963e-06 9.3436199166334481e-06 0.0000000000000000e+00  1.4811616083309224e-06 8.0587815447503761e-06 0.0000000000000000e+00  1.4011385089155178e-06 6.8369220069659870e-06 0.0000000000000000e+00  1.3188801914343611e-06 5.6905066759104407e-06 0.0000000000000000e+00  1.2083943432526761e-06 4.6333200969831234e-06 0.0000000000000000e+00  1.1091416795036515e-06 3.6519454344079721e-06 0.0000000000000000e+00  1.0001896288810270e-06 2.7850165550065078e-06 0.0000000000000000e+00  8.5471201455705970e-07 2.0028563529594583e-06 0.0000000000000000e+00  7.1537663849335066e-07 1.3483613890351043e-06 0.0000000000000000e+00  5.4076018919642374e-07 8.1925093034991505e-07 0.0000000000000000e+00  3.7945458585503654e-07 4.2958333149313583e-07 0.0000000000000000e+00  1.8094367289788072e-07 1.8177033299593621e-07 0.0000000000000000e+00  -2.8729410153352559e-08 1.8201454916369119e-07 0.0000000000000000e+00  -1.0786790581685265e-06 6.5965274927191780e-05 0.0000000000000000e+00  -1.0469230064145670e-06 6.2569547886193909e-05 0.0000000000000000e+00  -9.4283557108224390e-07 5.7020768718155834e-05 0.0000000000000000e+00  -5.2430653494849856e-08 9.6055184383423901e-07 0.0000000000000000e+00  -8.6437470961932740e-07 5.3530760943061320e-05 0.0000000000000000e+00  -6.9898635788110287e-08 2.2193883863015572e-06 0.0000000000000000e+00  -8.1165074692809712e-07 4.9978974367148944e-05 0.0000000000000000e+00  -1.1686820556909121e-07 5.1143924575275505e-06 0.0000000000000000e+00  -1.7283246448805502e-07 7.3667056056532318e-06 0.0000000000000000e+00  -7.5894486765273552e-07 4.6431241885239557e-05 0.0000000000000000e+00  -2.5293461859125118e-07 1.4294756079454925e-05 0.0000000000000000e+00  -6.5376880610031403e-07 3.9359888602586485e-05 0.0000000000000000e+00  -1.8845031824387721e-07 9.8369171350267084e-06 0.0000000000000000e+00  -3.2498240711456019e-07 1.7302955228213858e-05 0.0000000000000000e+00  -6.0145398178471887e-07 3.5845559090707331e-05 0.0000000000000000e+00  -7.0629602606487584e-07 4.2890264235087950e-05 0.0000000000000000e+00  -3.7290030203712746e-07 2.0504987449211003e-05 0.0000000000000000e+00  -5.4942627429449684e-07 3.2354887343291451e-05 0.0000000000000000e+00  -3.9098382201161946e-07 2.3673334785072567e-05 0.0000000000000000e+00  -5.2824680997574802e-07 2.8968883815075116e-05 0.0000000000000000e+00  -4.5705018804672432e-07 2.6199475737334873e-05 0.0000000000000000e+00  -2.4711057480045531e-07 1.1916166907519021e-05 0.0000000000000000e+00  -9.5443590724243527e-07 5.9905950578257137e-05 0.0000000000000000e+00  -1.0652577759850374e-07 3.5056647564145572e-06 0.0000000000000000e+00  -2.2761680764520210e-07 6.4267111643737481e-05 0.0000000000000000e+00  1.4055652625167629e-07 5.1754687571834706e-07 0.0000000000000000e+00  -1.4677992242015339e-07 5.1764383361866470e-05 0.0000000000000000e+00  -1.9903626869315642e-07 5.5317340156419510e-05 0.0000000000000000e+00  -3.6662120830427718e-07 1.5605980219029272e-06 0.0000000000000000e+00  -5.9431083498480104e-07 6.1791678651178171e-06 0.0000000000000000e+00  6.6196446736113064e-09 4.1133676294341669e-05 0.0000000000000000e+00  -9.4937960709252292e-08 4.8214440754754108e-05 0.0000000000000000e+00  -8.9561687707368082e-07 1.5743156848415317e-05 0.0000000000000000e+00  5.5652633427492123e-08 3.7610675624306468e-05 0.0000000000000000e+00  -6.8701094842305098e-07 8.6225909103604545e-06 0.0000000000000000e+00  -9.6816053024982588e-07 1.8883207300342824e-05 0.0000000000000000e+00  1.0285646754632752e-07 3.4107225885100322e-05 0.0000000000000000e+00  -4.3710095972727071e-08 4.4669798857718862e-05 0.0000000000000000e+00  -1.1771598353013788e-06 2.2117898096514690e-05 0.0000000000000000e+00  1.4773273542146267e-07 3.0632287201744436e-05 0.0000000000000000e+00  -4.8902449808159202e-08 3.8928700611032000e-08 0.0000000000000000e+00  1.5561425375822248e-08 4.2969479732633878e-08 0.0000000000000000e+00  -1.6469237249297052e-06 6.7353703097751289e-05 0.0000000000000000e+00  -2.3823710823515716e-07 5.0223945085317340e-07 0.0000000000000000e+00  3.4044139990089153e-07 2.7582984989713336e-05 0.000000000000