<?xml version="1.0"?>
<VTKFile type="UnstructuredGrid"  version="0.1"  >
<UnstructuredGrid>
<Piece  NumberOfPoints="1419" NumberOfCells="2698">
<Points>
<DataArray  type="Float64"  NumberOfComponents="3"  format="ascii">0 0 0  0 0.41 0  2.5 0 0  2.5 0.41 0  0.6 0.19 0  0.6 0.21 0  0.25 0.2 0  0.15 0.2 0  0.2489897948556636 0.21 0  0.2489897948556636 0.19 0  0.6 0.2 0  0 0.3807142857143437 0  0 0.3514285714286952 0  0 0.3221428571430699 0  0 0.29285714285744 0  0 0.2635714285718054 0  0 0.2342857142861561 0  0 0.2050000000005308 0  0 0.175714285714732 0  0 0.1464285714289574 0  0 0.1171428571431897 0  0 0.08785714285737878 0  0 0.05857142857161107 0  0 0.02928571428580012 0  0.03015443760436003 0 0  0.06140001986583606 0 0  0.09377624077125973 0 0  0.1273239957535082 0 0  0.1620856860351972 0 0  0.1981052433264291 0 0  0.235428184091502 0 0  0.2741016576309132 0 0  0.3141745521465447 0 0  0.3556974926295285 0 0  0.3987229542472677 0 0  0.4433053055141081 0 0  0.4895008759286886 0 0  0.5373680609405097 0 0  0.5869673343216626 0 0  0.6383613676634521 0 0  0.6916151138468254 0 0  0.7467958595648856 0 0  0.8039733463919316 0 0  0.8632198139502143 0 0  0.9246101326867038 0 0  0.9882218810934433 0 0  1.054135445558498 0 0  1.122434100542598 0 0  1.193204177141305 0 0  1.266535089879536 0 0  1.342519516046404 0 0  1.421253448503939 0 0  1.502836389106271 0 0  1.587371439758838 0 0  1.674965418777374 0 0  1.765729001825544 0 0  1.859776908880082 0 0  1.957227977487062 0 0  2.058205329869943 0 0  2.162836591189951 0 0  2.271253957290865 0 0  2.383594446803425 0 0  2.5 0.1024999999997612 0  2.5 0.2049999999994743 0  2.5 0.3074999999997183 0  2.383594446803656 0.41 0  2.271253957291315 0.41 0  2.162836591190598 0.41 0  2.058205329870775 0.41 0  1.957227977488067 0.41 0  1.859776908881246 0.41 0  1.765729001826854 0.41 0  1.674965418778818 0.41 0  1.58737143976041 0.41 0  1.502836389107956 0.41 0  1.421253448505726 0.41 0  1.342519516048286 0.41 0  1.266535089881505 0.41 0  1.193204177143353 0.41 0  1.122434100544716 0.41 0  1.05413544556068 0.41 0  0.9882218810956305 0.41 0  0.9246101326886647 0.41 0  0.8632198139519631 0.41 0  0.8039733463934788 0.41 0  0.7467958595662458 0.41 0  0.6916151138480078 0.41 0  0.6383613676644679 0.41 0  0.5869673343225223 0.41 0  0.5373680609412221 0.41 0  0.4895008759292634 0.41 0  0.4433053055145528 0.41 0  0.3987229542475914 0.41 0  0.3556974926297398 0.41 0  0.3141745521466497 0.41 0  0.2741016576310038 0.41 0  0.2354281840915826 0.41 0  0.1981052433265003 0.41 0  0.1620856860352591 0.41 0  0.1273239957535623 0.41 0  0.09377624077128965 0.41 0  0.06140001986584975 0.41 0  0.03015443760436654 0.41 0  0.2497468076502589 0.2050254481002335 0  0.2497468076502614 0.1949745518997913 0  0.2469965252529372 0.1829317073451959 0  0.2439893735792749 0.1762316384219906 0  0.2400332147834255 0.1700443375285386 0  0.2352133972704371 0.1645032867342007 0  0.2296339016332438 0.1597280261969788 0  0.2234150974217223 0.1558215752574715 0  0.2166911463437691 0.1528682099456123 0  0.2096071079204251 0.1509316448471593 0  0.2023158100364996 0.1500536585536553 0  0.194974551899914 0.1502531923497262 0  0.1877417105387872 0.1515259415822739 0  0.1807733240461124 0.153844448527136 0  0.1742197252835808 0.15715869474974 0  0.1682222986673531 0.1613971801805478 0  0.162910430003803 0.1664684656256651 0  0.1583987151779087 0.1722631454351573 0  0.1547844879126891 0.178656207771761 0  0.1521457199348551 0.1855097315605723 0  0.1505393388476355 0.1926758619366523 0  0.1505393388476328 0.2073241380633295 0  0.1521457199348437 0.2144902684393899 0  0.1547844879126531 0.221343792228163 0  0.1583987151778488 0.2277368545647528 0  0.1629104300036858 0.2335315343742052 0  0.1682222986671726 0.2386028198193036 0  0.1742197252833576 0.2428413052501257 0  0.1807733240458683 0.2461555514727623 0  0.1877417105384929 0.2484740584176516 0  0.1949745518995776 0.2497468076502398 0  0.202315810036185 0.2499463414463592 0  0.2096071079201568 0.2490683551528932 0  0.2166911463435495 0.2471317900544655 0  0.2234150974215506 0.2441784247426195 0  0.2296339016331197 0.2402719738031125 0  0.2352133972703547 0.2354967132658811 0  0.2400332147833751 0.2299556624715287 0  0.2439893735792577 0.2237683615780412 0  0.246996525252926 0.2170682926548348 0  0.25645809709277 0.21 0  0.2639263993298655 0.21 0  0.271394701566961 0.21 0  0.2788630038040554 0.21 0  0.2863313060411479 0.21 0  0.2937996082782405 0.21 0  0.301267910515333 0.21 0  0.3087362127524279 0.21 0  0.3162045149895234 0.21 0  0.3236728172265972 0.21 0  0.3311411194636928 0.21 0  0.3386094217007701 0.21 0  0.3460777239378666 0.21 0  0.3535460261749672 0.21 0  0.3610143284120516 0.21 0  0.3684826306491596 0.21 0  0.3759509328862226 0.21 0  0.383419235123329 0.21 0  0.3908875373604028 0.21 0  0.3983558395975142 0.21 0  0.4058241418345938 0.21 0  0.4132924440716992 0.21 0  0.4207607463087888 0.21 0  0.4282290485459029 0.21 0  0.4356973507830418 0.21 0  0.4431656530201649 0.21 0  0.4506339552573136 0.21 0  0.4581022574944306 0.21 0  0.4655705597315852 0.21 0  0.4730388619686996 0.21 0  0.480507164205851 0.21 0  0.4879754664429498 0.21 0  0.4954437686800938 0.21 0  0.502912070917267 0.21 0  0.5103803731544119 0.21 0  0.5178486753915261 0.21 0  0.5253169776286404 0.21 0  0.5327852798657868 0.21 0  0.5402535821029386 0.21 0  0.54772188434007 0.21 0  0.5551901865771842 0.21 0  0.5626584888143201 0.21 0  0.5701267910514778 0.21 0  0.5775950932886138 0.21 0  0.5850633955257281 0.21 0  0.5925316977628483 0.21 0  0.6 0.2050000000000054 0  0.6 0.1950000000000217 0  0.5925316977628897 0.19 0  0.5850633955257988 0.19 0  0.5775950932887378 0.19 0  0.5701267910515998 0.19 0  0.5626584888145268 0.19 0  0.5551901865773963 0.19 0  0.547721884340339 0.19 0  0.5402535821032429 0.19 0  0.5327852798661811 0.19 0  0.5253169776290537 0.19 0  0.5178486753919799 0.19 0  0.5103803731549078 0.19 0  0.502912070917822 0.19 0  0.4954437686807294 0.19 0  0.4879754664436223 0.19 0  0.4805071642065402 0.19 0  0.4730388619694271 0.19 0  0.4655705597323621 0.19 0  0.4581022574952563 0.19 0  0.4506339552581777 0.19 0  0.4431656530210671 0.19 0  0.4356973507839815 0.19 0  0.4282290485468779 0.19 0  0.4207607463097617 0.19 0  0.4132924440726327 0.19 0  0.4058241418354857 0.19 0  0.3983558395983636 0.19 0  0.3908875373612097 0.19 0  0.3834192351240934 0.19 0  0.3759509328869369 0.19 0  0.3684826306498175 0.19 0  0.361014328412667 0.19 0  0.3535460261755617 0.19 0  0.3460777239384295 0.19 0  0.3386094217012945 0.19 0  0.3311411194641595 0.19 0  0.3236728172270245 0.19 0  0.3162045149898895 0.19 0  0.3087362127527544 0.19 0  0.3012679105156187 0.19 0  0.2937996082784807 0.19 0  0.2863313060413428 0.19 0  0.2788630038042048 0.19 0  0.2713947015670686 0.19 0  0.2639263993299336 0.19 0  0.2564580970927985 0.19 0  0.2607803159922026 0.2000727136295815 0  0.5887803774232762 0.2001272386983733 0  0.5745072403740523 0.2002044435018727 0  0.5511891430099709 0.2001122610077113 0  0.2751288526855082 0.20000000000002 0  0.5365194309847112 0.1999999999999436 0  0.2894621222999649 0.1998691686390484 0  0.5215828265105155 0.1999999999999228 0  0.3127789816668748 0.1998657885438805 0  0.3274069683451451 0.2000000000000796 0  0.5066462220363641 0.199999999999908 0  0.3650630746574081 0.199866017807523 0  0.476773013087985 0.1999999999998713 0  0.3417402379596385 0.1998691686391011 0  0.3796850840047755 0.200000000000134 0  0.4618364086138087 0.1999999999998546 0  0.4917096175621762 0.1999999999998808 0  0.3946216884789568 0.2000000000001512 0  0.446899804139621 0.1999999999998389 0  0.4089549580935208 0.1998691686391595 0  0.4322718174608562 0.200127451265745 0  0.4201487168029707 0.1999966199048527 0  0.3528922713220932 0.2000185703532356 0  0.5633122436674589 0.1999814296467508 0  0.3006558810093873 0.1999966199048318 0  0.5815926498168407 0.1966545283159175 0  0.2677053789419034 0.1964246479135325 0  0.5290511287476175 0.1970915826863981 0  0.5439877332217911 0.197091582686394 0  0.2825131256993216 0.2035478995978015 0  0.3199386661080599 0.202908417313604 0  0.4842413153250809 0.1970915826863873 0  0.5141145242734466 0.1970915826863843 0  0.3722167817676917 0.2029084173136195 0  0.4693047108508938 0.1970915826863783 0  0.3348752705822316 0.202908417313609 0  0.3871533862418661 0.2029084173136212 0  0.4543681063767183 0.1970915826863795 0  0.4991779197992749 0.1970915826863902 0  0.4020059614928624 0.203547899597858 0  0.4394315019025246 0.1970915826863714 0  0.2550657455369551 0.2034088125358657 0  0.2548908499171161 0.1966940311614271 0  0.5946539510196798 0.2024302972968126 0  0.267698176732111 0.2039977513680092 0  0.4261685417851465 0.196409292431739 0  0.3590076176283495 0.196411355804271 0  0.5571672426447437 0.2036011176410121 0  0.3066757059912147 0.1964092924317024 0  0.594380730180568 0.1966558399668133 0  0.4842413153245942 0.2040749161535287 0  0.4693047108503577 0.2040749161535231 0  0.3871533862424271 0.1959250838464788 0  0.372246743208829 0.1959123236376545 0  0.5141145242731028 0.2040749161535395 0  0.4543681063761134 0.2040749161535186 0  0.4019979587101454 0.1959834479682427 0  0.4394608940728603 0.2040870543693135 0  0.5439623148931173 0.2040856076781014 0  0.5290511287473298 0.2040749161535501 0  0.4991779197988497 0.2040749161535382 0  0.3347912413592433 0.1959225448935183 0  0.3199680582793816 0.1959123018030061 0  0.2825051229162361 0.1959834479681729 0  0.3590471196690275 0.2036304442587945 0  0.5571594006495384 0.1963685282145804 0  0.3067669986803285 0.203627750582736 0  0.4262598344738712 0.2036568242185335 0  0.5814408164431408 0.2041285596160068 0  0.5688286748170428 0.1961819304477386 0  0.4145905603063645 0.2038180695522843 0  0.3473758401724931 0.2038180695522752 0  0.2950977245128307 0.2038180695522663 0  0.5688286748170693 0.203818069552238 0  0.2950977245127906 0.1961819304477774 0  0.3473758401723931 0.1961819304478349 0  0.4145905603061963 0.1961819304479011 0  0.2601812407614425 0.2056861609747042
[...]
<PointData  Vectors="f_40-0"> 
<DataArray  type="Float64"  Name="f_40-0"  NumberOfComponents="3" format="ascii">0.0000000000000000e+00 0.0000000000000000e+00 0.0000000000000000e+00  0.0000000000000000e+00 0.0000000000000000e+00 0.0000000000000000e+00  0.0000000000000000e+00 0.0000000000000000e+00 0.0000000000000000e+00  0.0000000000000000e+00 0.0000000000000000e+00 0.0000000000000000e+00  -3.1584901019199227e-05 -1.2133409249066021e-03 0.0000000000000000e+00  5.5103771454071242e-05 -1.2125171419732970e-03 0.0000000000000000e+00  0.0000000000000000e+00 0.0000000000000000e+00 0.0000000000000000e+00  0.0000000000000000e+00 0.0000000000000000e+00 0.0000000000000000e+00  0.0000000000000000e+00 0.0000000000000000e+00 0.0000000000000000e+00  0.0000000000000000e+00 0.0000000000000000e+00 0.0000000000000000e+00  1.1776266358765748e-05 -1.2129548114341573e-03 0.0000000000000000e+00  7.9591836734548405e-01 0.0000000000000000e+00 0.0000000000000000e+00  1.4693877550994523e+00 0.0000000000000000e+00 0.0000000000000000e+00  2.0204081632617479e+00 0.0000000000000000e+00 0.0000000000000000e+00  2.4489795918330071e+00 0.0000000000000000e+00 0.0000000000000000e+00  2.7551020408131754e+00 0.0000000000000000e+00 0.0000000000000000e+00  2.9387755102022344e+00 0.0000000000000000e+00 0.0000000000000000e+00  3.0000000000000004e+00 0.0000000000000000e+00 0.0000000000000000e+00  2.9387755102059474e+00 0.0000000000000000e+00 0.0000000000000000e+00  2.7551020408195543e+00 0.0000000000000000e+00 0.0000000000000000e+00  2.4489795918409065e+00 0.0000000000000000e+00 0.0000000000000000e+00  2.0204081632692521e+00 0.0000000000000000e+00 0.0000000000000000e+00  1.4693877551058563e+00 0.0000000000000000e+00 0.0000000000000000e+00  7.9591836734909216e-01 0.0000000000000000e+00 0.0000000000000000e+00  0.0000000000000000e+00 0.0000000000000000e+00 0.0000000000000000e+00  0.0000000000000000e+00 0.0000000000000000e+00 0.0000000000000000e+00  0.0000000000000000e+00 0.0000000000000000e+00 0.0000000000000000e+00  0.0000000000000000e+00 0.0000000000000000e+00 0.0000000000000000e+00  0.0000000000000000e+00 0.0000000000000000e+00 0.0000000000000000e+00  0.0000000000000000e+00 0.0000000000000000e+00 0.0000000000000000e+00  0.0000000000000000e+00 0.0000000000000000e+00 0.0000000000000000e+00  0.0000000000000000e+00 0.0000000000000000e+00 0.0000000000000000e+00  0.0000000000000000e+00 0.0000000000000000e+00 0.0000000000000000e+00  0.0000000000000000e+00 0.0000000000000000e+00 0.0000000000000000e+00  0.0000000000000000e+00 0.0000000000000000e+00 0.0000000000000000e+00  0.0000000000000000e+00 0.0000000000000000e+00 0.0000000000000000e+00  0.0000000000000000e+00 0.0000000000000000e+00 0.0000000000000000e+00  0.0000000000000000e+00 0.0000000000000000e+00 0.0000000000000000e+00  0.0000000000000000e+00 0.0000000000000000e+00 0.0000000000000000e+00  0.0000000000000000e+00 0.0000000000000000e+00 0.0000000000000000e+00  0.0000000000000000e+00 0.0000000000000000e+00 0.0000000000000000e+00  0.0000000000000000e+00 0.0000000000000000e+00 0.0000000000000000e+00  0.0000000000000000e+00 0.0000000000000000e+00 0.0000000000000000e+00  0.0000000000000000e+00 0.0000000000000000e+00 0.0000000000000000e+00  0.0000000000000000e+00 0.0000000000000000e+00 0.0000000000000000e+00  0.0000000000000000e+00 0.0000000000000000e+00 0.0000000000000000e+00  0.0000000000000000e+00 0.0000000000000000e+00 0.0000000000000000e+00  0.0000000000000000e+00 0.0000000000000000e+00 0.0000000000000000e+00  0.0000000000000000e+00 0.0000000000000000e+00 0.0000000000000000e+00  0.0000000000000000e+00 0.0000000000000000e+00 0.0000000000000000e+00  0.0000000000000000e+00 0.0000000000000000e+00 0.0000000000000000e+00  0.0000000000000000e+00 0.0000000000000000e+00 0.0000000000000000e+00  0.0000000000000000e+00 0.0000000000000000e+00 0.0000000000000000e+00  0.0000000000000000e+00 0.0000000000000000e+00 0.0000000000000000e+00  0.0000000000000000e+00 0.0000000000000000e+00 0.0000000000000000e+00  0.0000000000000000e+00 0.0000000000000000e+00 0.0000000000000000e+00  0.0000000000000000e+00 0.0000000000000000e+00 0.0000000000000000e+00  0.0000000000000000e+00 0.0000000000000000e+00 0.0000000000000000e+00  0.0000000000000000e+00 0.0000000000000000e+00 0.0000000000000000e+00  0.0000000000000000e+00 0.0000000000000000e+00 0.0000000000000000e+00  0.0000000000000000e+00 0.0000000000000000e+00 0.0000000000000000e+00  0.0000000000000000e+00 0.0000000000000000e+00 0.0000000000000000e+00  2.5841201275167993e+00 -3.8203302026890667e-03 0.0000000000000000e+00  2.5718650318055305e+00 3.8596195430784918e-03 0.0000000000000000e+00  2.6874261390371177e+00 5.4704618030195502e-02 0.0000000000000000e+00  0.0000000000000000e+00 0.0000000000000000e+00 0.0000000000000000e+00  0.0000000000000000e+00 0.0000000000000000e+00 0.0000000000000000e+00  0.0000000000000000e+00 0.0000000000000000e+00 0.0000000000000000e+00  0.0000000000000000e+00 0.0000000000000000e+00 0.0000000000000000e+00  0.0000000000000000e+00 0.0000000000000000e+00 0.0000000000000000e+00  0.0000000000000000e+00 0.0000000000000000e+00 0.0000000000000000e+00  0.0000000000000000e+00 0.0000000000000000e+00 0.0000000000000000e+00  0.0000000000000000e+00 0.0000000000000000e+00 0.0000000000000000e+00  0.0000000000000000e+00 0.0000000000000000e+00 0.0000000000000000e+00  0.0000000000000000e+00 0.0000000000000000e+00 0.0000000000000000e+00  0.0000000000000000e+00 0.0000000000000000e+00 0.0000000000000000e+00  0.0000000000000000e+00 0.0000000000000000e+00 0.0000000000000000e+00  0.0000000000000000e+00 0.0000000000000000e+00 0.0000000000000000e+00  0.0000000000000000e+00 0.0000000000000000e+00 0.0000000000000000e+00  0.0000000000000000e+00 0.0000000000000000e+00 0.0000000000000000e+00  0.0000000000000000e+00 0.0000000000000000e+00 0.0000000000000000e+00  0.0000000000000000e+00 0.0000000000000000e+00 0.0000000000000000e+00  0.0000000000000000e+00 0.0000000000000000e+00 0.0000000000000000e+00  0.0000000000000000e+00 0.0000000000000000e+00 0.0000000000000000e+00  0.0000000000000000e+00 0.0000000000000000e+00 0.0000000000000000e+00  0.0000000000000000e+00 0.0000000000000000e+00 0.0000000000000000e+00  0.0000000000000000e+00 0.0000000000000000e+00 0.0000000000000000e+00  0.0000000000000000e+00 0.0000000000000000e+00 0.0000000000000000e+00  0.0000000000000000e+00 0.0000000000000000e+00 0.0000000000000000e+00  0.0000000000000000e+00 0.0000000000000000e+00 0.0000000000000000e+00  0.0000000000000000e+00 0.0000000000000000e+00 0.0000000000000000e+00  0.0000000000000000e+00 0.0000000000000000e+00 0.0000000000000000e+00  0.0000000000000000e+00 0.0000000000000000e+00 0.0000000000000000e+00  0.0000000000000000e+00 0.0000000000000000e+00 0.0000000000000000e+00  0.0000000000000000e+00 0.0000000000000000e+00 0.0000000000000000e+00  0.0000000000000000e+00 0.0000000000000000e+00 0.0000000000000000e+00  0.0000000000000000e+00 0.0000000000000000e+00 0.0000000000000000e+00  0.0000000000000000e+00 0.0000000000000000e+00 0.0000000000000000e+00  0.0000000000000000e+00 0.0000000000000000e+00 0.0000000000000000e+00  0.0000000000000000e+00 0.0000000000000000e+00 0.0000000000000000e+00  0.0000000000000000e+00 0.0000000000000000e+00 0.0000000000000000e+00  0.0000000000000000e+00 0.0000000000000000e+00 0.0000000000000000e+00  0.0000000000000000e+00 0.0000000000000000e+00 0.0000000000000000e+00  0.0000000000000000e+00 0.0000000000000000e+00 0.0000000000000000e+00  0.0000000000000000e+00 0.0000000000000000e+00 0.0000000000000000e+00  0.0000000000000000e+00 0.0000000000000000e+00 0.0000000000000000e+00  0.0000000000000000e+00 0.0000000000000000e+00 0.0000000000000000e+00  0.0000000000000000e+00 0.0000000000000000e+00 0.0000000000000000e+00  0.0000000000000000e+00 0.0000000000000000e+00 0.0000000000000000e+00  0.0000000000000000e+00 0.0000000000000000e+00 0.0000000000000000e+00  0.0000000000000000e+00 0.0000000000000000e+00 0.0000000000000000e+00  0.0000000000000000e+00 0.0000000000000000e+00 0.0000000000000000e+00  0.0000000000000000e+00 0.0000000000000000e+00 0.0000000000000000e+00  0.0000000000000000e+00 0.0000000000000000e+00 0.0000000000000000e+00  0.0000000000000000e+00 0.0000000000000000e+00 0.0000000000000000e+00  0.0000000000000000e+00 0.0000000000000000e+00 0.0000000000000000e+00  0.0000000000000000e+00 0.0000000000000000e+00 0.0000000000000000e+00  0.0000000000000000e+00 0.0000000000000000e+00 0.0000000000000000e+00  0.0000000000000000e+00 0.0000000000000000e+00 0.0000000000000000e+00  0.0000000000000000e+00 0.0000000000000000e+00 0.0000000000000000e+00  0.0000000000000000e+00 0.0000000000000000e+00 0.0000000000000000e+00  0.0000000000000000e+00 0.0000000000000000e+00 0.0000000000000000e+00  0.0000000000000000e+00 0.0000000000000000e+00 0.0000000000000000e+00  0.0000000000000000e+00 0.0000000000000000e+00 0.0000000000000000e+00  0.0000000000000000e+00 0.0000000000000000e+00 0.0000000000000000e+00  0.0000000000000000e+00 0.0000000000000000e+00 0.0000000000000000e+00  0.0000000000000000e+00 0.0000000000000000e+00 0.0000000000000000e+00  0.0000000000000000e+00 0.0000000000000000e+00 0.0000000000000000e+00  0.0000000000000000e+00 0.0000000000000000e+00 0.0000000000000000e+00  0.0000000000000000e+00 0.0000000000000000e+00 0.0000000000000000e+00  0.0000000000000000e+00 0.0000000000000000e+00 0.0000000000000000e+00  0.0000000000000000e+00 0.0000000000000000e+00 0.0000000000000000e+00  0.0000000000000000e+00 0.0000000000000000e+00 0.0000000000000000e+00  0.0000000000000000e+00 0.0000000000000000e+00 0.0000000000000000e+00  0.0000000000000000e+00 0.0000000000000000e+00 0.0000000000000000e+00  0.0000000000000000e+00 0.0000000000000000e+00 0.0000000000000000e+00  0.0000000000000000e+00 0.0000000000000000e+00 0.0000000000000000e+00  0.0000000000000000e+00 0.0000000000000000e+00 0.0000000000000000e+00  0.0000000000000000e+00 0.0000000000000000e+00 0.0000000000000000e+00  0.0000000000000000e+00 0.0000000000000000e+00 0.0000000000000000e+00  0.0000000000000000e+00 0.0000000000000000e+00 0.0000000000000000e+00  0.0000000000000000e+00 0.0000000000000000e+00 0.0000000000000000e+00  0.0000000000000000e+00 0.0000000000000000e+00 0.0000000000000000e+00  3.0444638729065222e-06 -2.6007131028129731e-06 0.0000000000000000e+00  6.4396831620766853e-06 -6.3237596251816681e-06 0.0000000000000000e+00  9.3637434447028640e-06 -1.2318048599921387e-05 0.0000000000000000e+00  1.2480850236173976e-05 -2.0691786087281997e-05 0.0000000000000000e+00  1.5024493582954640e-05 -3.0988817911543651e-05 0.0000000000000000e+00  1.7874377082250274e-05 -4.3369387491553355e-05 0.0000000000000000e+00  2.0118824450698195e-05 -5.7257502402334494e-05 0.0000000000000000e+00  2.2263436011439837e-05 -7.3092149519506650e-05 0.0000000000000000e+00  2.4696747575147228e-05 -9.0363115868997504e-05 0.0000000000000000e+00  2.6515491515081216e-05 -1.0910248816681818e-04 0.0000000000000000e+00  2.8702698794245685e-05 -1.2925136585649152e-04 0.0000000000000000e+00  3.0323506847058143e-05 -1.5066194847981524e-04 0.0000000000000000e+00  3.2200228206686014e-05 -1.7326257963392347e-04 0.0000000000000000e+00  3.3678930998034299e-05 -1.9680556788961699e-04 0.0000000000000000e+00  3.5090372408142489e-05 -2.2148259268198325e-04 0.0000000000000000e+00  3.6651120718697441e-05 -2.4698482704195337e-04 0.0000000000000000e+00  3.7842651736322064e-05 -2.7331994583509330e-04 0.0000000000000000e+00  3.9216188150356398e-05 -3.0044031614822296e-04 0.0000000000000000e+00  4.0259633037449333e-05 -3.2823737002698290e-04 0.0000000000000000e+00  4.1434322150508767e-05 -3.5665190661757055e-04 0.0000000000000000e+00  4.2384323485190491e-05 -3.8563664808686181e-04 0.0000000000000000e+00  4.3385820540113021e-05 -4.1514921689513674e-04 0.0000000000000000e+00  4.4211819943947585e-05 -4.4503365715827480e-04 0.0000000000000000e+00  4.4990851308051852e-05 -4.7537801082171602e-04 0.0000000000000000e+00  4.5802098391083353e-05 -5.0601665128399372e-04 0.0000000000000000e+00  4.6494441409021082e-05 -5.3698540461275196e-04 0.0000000000000000e+00  4.7167086749181044e-05 -5.6822637257994521e-04 0.0000000000000000e+00  4.7772270138966978e-05 -5.9967507701132910e-04 0.0000000000000000e+00  4.8356207474013287e-05 -6.3133488679023423e-04 0.0000000000000000e+00  4.8887245311239239e-05 -6.6314265124638443e-04 0.0000000000000000e+00  4.9398408204832292e-05 -6.9510262086433484e-04 0.0000000000000000e+00  4.9868382893582703e-05 -7.2716294407547540e-04 0.0000000000000000e+00  5.0321048010221132e-05 -7.5932738399678279e-04 0.0000000000000000e+00  5.0742018669742282e-05 -7.9155487219225373e-04 0.0000000000000000e+00  5.1147677355306180e-05 -8.2385000034343914e-04 0.0000000000000000e+00  5.1530487943443527e-05 -8.5618145019469719e-04 0.0000000000000000e+00  5.1900554729002636e-05 -8.8855239674876657e-04 0.0000000000000000e+00  5.2254226391012685e-05 -9.2094007201751118e-04 0.0000000000000000e+00  5.2596921168263565e-05 -9.5334735013813247e-04 0.0000000000000000e+00  5.2928767711881072e-05 -9.8575877922249967e-04 0.0000000000000000e+00  5.3251512996517548e-05 -1.0181746663176850e-03 0.0000000000000000e+00  5.3569217299454684e-05 -1.0505877261410071e-03 0.0000000000000000e+00  5.3880972603497915e-05 -1.0829932269667850e-03 0.0000000000000000e+00  5.4188950286134881e-05 -1.1153931416212134e-03 0.0000000000000000e+00  5.4497270834142612e-05 -1.1477842105049314e-03 0.0000000000000000e+00  5.4804022649866661e-05 -1.1801641831464113e-03 0.0000000000000000e+00  3.3449261557796795e-05 -1.2127472115790463e-03 0.0000000000000000e+00  -9.9042953959445083e-06 -1.2131596713017354e-03 0.0000000000000000e+00  -3.1910503583032775e-05 -1.1809870997106803e-03 0.0000000000000000e+00  -3.2236578463154690e-05 -1.1486015611451854e-03 0.0000000000000000e+00  -3.2562785322097511e-05 -1.1162066588703700e-03 0.0000000000000000e+00  -3.2890245612933575e-05 -1.0838002438704464e-03 0.0000000000000000e+00  -3.3215165499947209e-05 -1.0513874204904933e-03 0.0000000000000000e+00  -3.3539318864205919e-05 -1.0189668887004794e-03 0.0000000000000000e+00  -3.3858987935710588e-05 -9.8654395030519596e-04 0.0000000000000000e+00  -3.4174874824359853e-05 -9.5412387633058630e-04 0.0000000000000000e+00  -3.4480177991013111e-05 -9.2170915020021787e-04 0.0000000000000000e+00  -3.4782865026726071e-05 -8.8931191243477525e-04 0.0000000000000000e+00  -3.5065177399987607e-05 -8.5693397839360489e-04 0.0000000000000000e+00  -3.5346867075936438e-05 -8.2459229965614307e-04 0.0000000000000000e+00  -3.5595312961554940e-05 -7.9228990509049295e-04 0.0000000000000000e+00  -3.5846247765809214e-05 -7.6005096854159151e-04 0.0000000000000000e+00  -3.6046459177513890e-05 -7.2787876385711206e-04 0.0000000000000000e+00  -3.6254183670279014e-05 -6.9580573683578853e-04 0.0000000000000000e+00  -3.6389629343470675e-05 -6.6383626355631296e-04 0.0000000000000000e+00  -3.6540282464783306e-05 -6.3201295939226826e-04 0.0000000000000000e+00  -3.6591868080664767e-05 -6.0034129335950000e-04 0.0000000000000000e+00  -3.6669226907890898e-05 -5.6887394043438750e-04 0.0000000000000000e+00  -3.6612471996982034e-05 -5.3761950916137780e-04 0.0000000000000000e+00  -3.6594693928893198e-05 -5.0664339704150870e-04 0.0000000000000000e+00  -3.6411015194952556e-05 -4.7596500822010506e-04 0.0000000000000000e+00  -3.6257642389669469e-05 -4.4560688203612814e-04 0.0000000000000000e+00  -3.6041601420127176e-05 -4.1570639849812827e-04 0.0000000000000000e+00  -3.5652603642925823e-05 -3.8615404198923294e-04 0.0000000000000000e+00  -3.5258423393271167e-05 -3.5716739193735050e-04 0.0000000000000000e+00  -3.4708198073504329e-05 -3.2869157491942558e-04 0.0000000000000000e+00  -3.4130146859080039e-05 -3.0088100269014690e-04 0.0000000000000000e+00  -3.3382987345133203e-05 -2.7371737892121925e-04 0.0000000000000000e+00  -3.2605664598260272e-05 -2.4731794674683305e-04 0.0000000000000000e+00  -3.1537708528278772e-05 -2.2182715024079313e-04 0.0000000000000000e+00  -3.0582541254873243e-05 -1.9710146124743029e-04 0.0000000000000000e+00  -2.9520015121481336e-05 -1.7353759155487846e-04 0.0000000000000000e+00  -2.8094276174680851e-05 -1.5081528228310002e-04 0.0000000000000000e+00  -2.6693412102543083e-05 -1.2941260024912707e-04 0.0000000000000000e+00  -2.5019815390532589e-05 -1.0920308309965322e-04 0.0000000000000000e+00  -2.3338979502084858e-05 -9.0366711108971737e-05 0.0000000000000000e+00  -2.1197481933026957e-05 -7.3137138177091989e-05 0.0000000000000000e+00  -1.9284566463325645e-05 -5.7238847573232807e-05 0.0000000000000000e+00  -1.7239116595674314e-05 -4.3318732537944069e-05 0.0000000000000000e+00  -1.4610224828036185e-05 -3.0840903898164816e-05 0.0000000000000000e+00  -1.2130027527179565e-05 -2.0483551090798470e-05 0.0000000000000000e+00  -9.1127072717614011e-06 -1.2193660595068181e-05 0.0000000000000000e+00  -6.3422754409482891e-06 -6.1492893144369366e-06 0.0000000000000000e+00  -3.0128105376975962e-06 -2.3910141084430308e-06 0.0000000000000000e+00  4.6561594770753971e-08 -2.6987855672815865e-06 0.0000000000000000e+00  1.1847997211381452e-05 -1.1643110626306749e-03 0.0000000000000000e+00  1.1574837204672971e-05 -1.1024006507225699e-03 0.0000000000000000e+00  1.0175525486347199e-05 -1.0011974177138211e-03 0.0000000000000000e+00  1.1115179009820464e-07 -1.4746835694333302e-05 0.0000000000000000e+00  9.0524115940248073e-06 -9.3752049078458133e-04 0.0000000000000000e+00  4.9692283985108801e-08 -3.4604877834599888e-05 0.0000000000000000e+00  8.3980733783237130e-06 -8.7272162561968499e-04 0.0000000000000000e+00  2.6985921787528962e-07 -8.1248649576256735e-05 0.0000000000000000e+00  8.6800001497418968e-07 -1.1822410650735643e-04 0.0000000000000000e+00  7.7380686157988044e-06 -8.0802966399747347e-04 0.0000000000000000e+00  1.4321473570782957e-06 -2.3478902973659161e-04 0.0000000000000000e+00  6.4093144227990847e-06 -6.7937081754519343e-04 0.0000000000000000e+00  8.2226948680328815e-07 -1.5932715766917089e-04 0.0000000000000000e+00  2.3832038766464221e-06 -2.8652603967580789e-04 0.0000000000000000e+00  5.7466999983240220e-06 -6.1569796263904531e-04 0.0000000000000000e+00  7.0742018514888744e-06 -7.4353721107304051e-04 0.0000000000000000e+00  2.9309212062802741e-06 -3.4221976064240052e-04 0.0000000000000000e+00  5.0888669862016921e-06 -5.5273230683325401e-04 0.0000000000000000e+00  2.9761976381596573e-06 -3.9788915930416796e-04 0.0000000000000000e+00  4.9799945036951250e-06 -4.9200357148585297e-04 0.0000000000000000e+00  3.9360862130167079e-06 -4.4265549611382230e-04 0.0000000000000000e+00  1.5799325340689372e-06 -1.9436274017270457e-04 0.0000000000000000e+00  1.0129473587021821e-05 -1.0538281813115041e-03 0.0000000000000000e+00  3.7766457840060184e-07 -5.5211420566684306e-05 0.0000000000000000e+00  -3.5201612588761951e-06 -1.1332819847373386e-03 0.0000000000000000e+00  -2.7500627586490271e-06 -7.7135339097779447e-06 0.0000000000000000e+00  -3.8825439718199762e-06 -9.0522610686083016e-04 0.0000000000000000e+00  -3.2421846920069262e-06 -9.7005356727490621e-04 0.0000000000000000e+00  4.9309075142780255e-06 -2.4318114331729099e-05 0.0000000000000000e+00  7.9666007533964323e-06 -9.8783022437744838e-05 0.0000000000000000e+00  -5.7304470620831313e-06 -7.1151759165066525e-04 0.0000000000000000e+00  -4.5155528210494585e-06 -8.4047043892678322e-04 0.0000000000000000e+00  1.2344977039818817e-05 -2.5973701202498860e-04 0.0000000000000000e+00  -6.2924270322979912e-06 -6.4757518718938623e-04 0.0000000000000000e+00  9.2791419269041065e-06 -1.3917132818281385e-04 0.0000000000000000e+00  1.3424783674939917e-05 -3.1404424920258254e-04 0.0000000000000000e+00  -6.8084471513611557e-06 -5.8422713893634039e-04 0.0000000000000000e+00  -5.1345718418950527e-06 -7.7586468176496699e-04 0.0000000000000000e+00  1.6917725387111442e-05 -3.7062476993133397e-04 0.0000000000000000e+00  -7.2685669843555004e-06 -5.2171193913247297e-04 0.0000000000000000e+00  5.2688898211843007e-07 -6.2833205397491300e-07 0.0000000000000000e+00  -4.7204242046698258e-07 -5.3107806199411145e-07 0.0000000000000000e+00  2.2084067760946709e-05 -1.1896822816862640e-03 0.0000000000000000e+00  3.197248164888876