<?xml version="1.0"?>
<VTKFile type="UnstructuredGrid"  version="0.1"  >
<UnstructuredGrid>
<Piece  NumberOfPoints="1419" NumberOfCells="2698">
<Points>
<DataArray  type="Float64"  NumberOfComponents="3"  format="ascii">0 0 0  0 0.41 0  2.5 0 0  2.5 0.41 0  0.6 0.19 0  0.6 0.21 0  0.25 0.2 0  0.15 0.2 0  0.2489897948556636 0.21 0  0.2489897948556636 0.19 0  0.6 0.2 0  0 0.3807142857143437 0  0 0.3514285714286952 0  0 0.3221428571430699 0  0 0.29285714285744 0  0 0.2635714285718054 0  0 0.2342857142861561 0  0 0.2050000000005308 0  0 0.175714285714732 0  0 0.1464285714289574 0  0 0.1171428571431897 0  0 0.08785714285737878 0  0 0.05857142857161107 0  0 0.02928571428580012 0  0.03015443760436003 0 0  0.06140001986583606 0 0  0.09377624077125973 0 0  0.1273239957535082 0 0  0.1620856860351972 0 0  0.1981052433264291 0 0  0.235428184091502 0 0  0.2741016576309132 0 0  0.3141745521465447 0 0  0.3556974926295285 0 0  0.3987229542472677 0 0  0.4433053055141081 0 0  0.4895008759286886 0 0  0.5373680609405097 0 0  0.5869673343216626 0 0  0.6383613676634521 0 0  0.6916151138468254 0 0  0.7467958595648856 0 0  0.8039733463919316 0 0  0.8632198139502143 0 0  0.9246101326867038 0 0  0.9882218810934433 0 0  1.054135445558498 0 0  1.122434100542598 0 0  1.193204177141305 0 0  1.266535089879536 0 0  1.342519516046404 0 0  1.421253448503939 0 0  1.502836389106271 0 0  1.587371439758838 0 0  1.674965418777374 0 0  1.765729001825544 0 0  1.859776908880082 0 0  1.957227977487062 0 0  2.058205329869943 0 0  2.162836591189951 0 0  2.271253957290865 0 0  2.383594446803425 0 0  2.5 0.1024999999997612 0  2.5 0.2049999999994743 0  2.5 0.3074999999997183 0  2.383594446803656 0.41 0  2.271253957291315 0.41 0  2.162836591190598 0.41 0  2.058205329870775 0.41 0  1.957227977488067 0.41 0  1.859776908881246 0.41 0  1.765729001826854 0.41 0  1.674965418778818 0.41 0  1.58737143976041 0.41 0  1.502836389107956 0.41 0  1.421253448505726 0.41 0  1.342519516048286 0.41 0  1.266535089881505 0.41 0  1.193204177143353 0.41 0  1.122434100544716 0.41 0  1.05413544556068 0.41 0  0.9882218810956305 0.41 0  0.9246101326886647 0.41 0  0.8632198139519631 0.41 0  0.8039733463934788 0.41 0  0.7467958595662458 0.41 0  0.6916151138480078 0.41 0  0.6383613676644679 0.41 0  0.5869673343225223 0.41 0  0.5373680609412221 0.41 0  0.4895008759292634 0.41 0  0.4433053055145528 0.41 0  0.3987229542475914 0.41 0  0.3556974926297398 0.41 0  0.3141745521466497 0.41 0  0.2741016576310038 0.41 0  0.2354281840915826 0.41 0  0.1981052433265003 0.41 0  0.1620856860352591 0.41 0  0.1273239957535623 0.41 0  0.09377624077128965 0.41 0  0.06140001986584975 0.41 0  0.03015443760436654 0.41 0  0.2497468076502589 0.2050254481002335 0  0.2497468076502614 0.1949745518997913 0  0.2469965252529372 0.1829317073451959 0  0.2439893735792749 0.1762316384219906 0  0.2400332147834255 0.1700443375285386 0  0.2352133972704371 0.1645032867342007 0  0.2296339016332438 0.1597280261969788 0  0.2234150974217223 0.1558215752574715 0  0.2166911463437691 0.1528682099456123 0  0.2096071079204251 0.1509316448471593 0  0.2023158100364996 0.1500536585536553 0  0.194974551899914 0.1502531923497262 0  0.1877417105387872 0.1515259415822739 0  0.1807733240461124 0.153844448527136 0  0.1742197252835808 0.15715869474974 0  0.1682222986673531 0.1613971801805478 0  0.162910430003803 0.1664684656256651 0  0.1583987151779087 0.1722631454351573 0  0.1547844879126891 0.178656207771761 0  0.1521457199348551 0.1855097315605723 0  0.1505393388476355 0.1926758619366523 0  0.1505393388476328 0.2073241380633295 0  0.1521457199348437 0.2144902684393899 0  0.1547844879126531 0.221343792228163 0  0.1583987151778488 0.2277368545647528 0  0.1629104300036858 0.2335315343742052 0  0.1682222986671726 0.2386028198193036 0  0.1742197252833576 0.2428413052501257 0  0.1807733240458683 0.2461555514727623 0  0.1877417105384929 0.2484740584176516 0  0.1949745518995776 0.2497468076502398 0  0.202315810036185 0.2499463414463592 0  0.2096071079201568 0.2490683551528932 0  0.2166911463435495 0.2471317900544655 0  0.2234150974215506 0.2441784247426195 0  0.2296339016331197 0.2402719738031125 0  0.2352133972703547 0.2354967132658811 0  0.2400332147833751 0.2299556624715287 0  0.2439893735792577 0.2237683615780412 0  0.246996525252926 0.2170682926548348 0  0.25645809709277 0.21 0  0.2639263993298655 0.21 0  0.271394701566961 0.21 0  0.2788630038040554 0.21 0  0.2863313060411479 0.21 0  0.2937996082782405 0.21 0  0.301267910515333 0.21 0  0.3087362127524279 0.21 0  0.3162045149895234 0.21 0  0.3236728172265972 0.21 0  0.3311411194636928 0.21 0  0.3386094217007701 0.21 0  0.3460777239378666 0.21 0  0.3535460261749672 0.21 0  0.3610143284120516 0.21 0  0.3684826306491596 0.21 0  0.3759509328862226 0.21 0  0.383419235123329 0.21 0  0.3908875373604028 0.21 0  0.3983558395975142 0.21 0  0.4058241418345938 0.21 0  0.4132924440716992 0.21 0  0.4207607463087888 0.21 0  0.4282290485459029 0.21 0  0.4356973507830418 0.21 0  0.4431656530201649 0.21 0  0.4506339552573136 0.21 0  0.4581022574944306 0.21 0  0.4655705597315852 0.21 0  0.4730388619686996 0.21 0  0.480507164205851 0.21 0  0.4879754664429498 0.21 0  0.4954437686800938 0.21 0  0.502912070917267 0.21 0  0.5103803731544119 0.21 0  0.5178486753915261 0.21 0  0.5253169776286404 0.21 0  0.5327852798657868 0.21 0  0.5402535821029386 0.21 0  0.54772188434007 0.21 0  0.5551901865771842 0.21 0  0.5626584888143201 0.21 0  0.5701267910514778 0.21 0  0.5775950932886138 0.21 0  0.5850633955257281 0.21 0  0.5925316977628483 0.21 0  0.6 0.2050000000000054 0  0.6 0.1950000000000217 0  0.5925316977628897 0.19 0  0.5850633955257988 0.19 0  0.5775950932887378 0.19 0  0.5701267910515998 0.19 0  0.5626584888145268 0.19 0  0.5551901865773963 0.19 0  0.547721884340339 0.19 0  0.5402535821032429 0.19 0  0.5327852798661811 0.19 0  0.5253169776290537 0.19 0  0.5178486753919799 0.19 0  0.5103803731549078 0.19 0  0.502912070917822 0.19 0  0.4954437686807294 0.19 0  0.4879754664436223 0.19 0  0.4805071642065402 0.19 0  0.4730388619694271 0.19 0  0.4655705597323621 0.19 0  0.4581022574952563 0.19 0  0.4506339552581777 0.19 0  0.4431656530210671 0.19 0  0.4356973507839815 0.19 0  0.4282290485468779 0.19 0  0.4207607463097617 0.19 0  0.4132924440726327 0.19 0  0.4058241418354857 0.19 0  0.3983558395983636 0.19 0  0.3908875373612097 0.19 0  0.3834192351240934 0.19 0  0.3759509328869369 0.19 0  0.3684826306498175 0.19 0  0.361014328412667 0.19 0  0.3535460261755617 0.19 0  0.3460777239384295 0.19 0  0.3386094217012945 0.19 0  0.3311411194641595 0.19 0  0.3236728172270245 0.19 0  0.3162045149898895 0.19 0  0.3087362127527544 0.19 0  0.3012679105156187 0.19 0  0.2937996082784807 0.19 0  0.2863313060413428 0.19 0  0.2788630038042048 0.19 0  0.2713947015670686 0.19 0  0.2639263993299336 0.19 0  0.2564580970927985 0.19 0  0.2607803159922026 0.2000727136295815 0  0.5887803774232762 0.2001272386983733 0  0.5745072403740523 0.2002044435018727 0  0.5511891430099709 0.2001122610077113 0  0.2751288526855082 0.20000000000002 0  0.5365194309847112 0.1999999999999436 0  0.2894621222999649 0.1998691686390484 0  0.5215828265105155 0.1999999999999228 0  0.3127789816668748 0.1998657885438805 0  0.3274069683451451 0.2000000000000796 0  0.5066462220363641 0.199999999999908 0  0.3650630746574081 0.199866017807523 0  0.476773013087985 0.1999999999998713 0  0.3417402379596385 0.1998691686391011 0  0.3796850840047755 0.200000000000134 0  0.4618364086138087 0.1999999999998546 0  0.4917096175621762 0.1999999999998808 0  0.3946216884789568 0.2000000000001512 0  0.446899804139621 0.1999999999998389 0  0.4089549580935208 0.1998691686391595 0  0.4322718174608562 0.200127451265745 0  0.4201487168029707 0.1999966199048527 0  0.3528922713220932 0.2000185703532356 0  0.5633122436674589 0.1999814296467508 0  0.3006558810093873 0.1999966199048318 0  0.5815926498168407 0.1966545283159175 0  0.2677053789419034 0.1964246479135325 0  0.5290511287476175 0.1970915826863981 0  0.5439877332217911 0.197091582686394 0  0.2825131256993216 0.2035478995978015 0  0.3199386661080599 0.202908417313604 0  0.4842413153250809 0.1970915826863873 0  0.5141145242734466 0.1970915826863843 0  0.3722167817676917 0.2029084173136195 0  0.4693047108508938 0.1970915826863783 0  0.3348752705822316 0.202908417313609 0  0.3871533862418661 0.2029084173136212 0  0.4543681063767183 0.1970915826863795 0  0.4991779197992749 0.1970915826863902 0  0.4020059614928624 0.203547899597858 0  0.4394315019025246 0.1970915826863714 0  0.2550657455369551 0.2034088125358657 0  0.2548908499171161 0.1966940311614271 0  0.5946539510196798 0.2024302972968126 0  0.267698176732111 0.2039977513680092 0  0.4261685417851465 0.196409292431739 0  0.3590076176283495 0.196411355804271 0  0.5571672426447437 0.2036011176410121 0  0.3066757059912147 0.1964092924317024 0  0.594380730180568 0.1966558399668133 0  0.4842413153245942 0.2040749161535287 0  0.4693047108503577 0.2040749161535231 0  0.3871533862424271 0.1959250838464788 0  0.372246743208829 0.1959123236376545 0  0.5141145242731028 0.2040749161535395 0  0.4543681063761134 0.2040749161535186 0  0.4019979587101454 0.1959834479682427 0  0.4394608940728603 0.2040870543693135 0  0.5439623148931173 0.2040856076781014 0  0.5290511287473298 0.2040749161535501 0  0.4991779197988497 0.2040749161535382 0  0.3347912413592433 0.1959225448935183 0  0.3199680582793816 0.1959123018030061 0  0.2825051229162361 0.1959834479681729 0  0.3590471196690275 0.2036304442587945 0  0.5571594006495384 0.1963685282145804 0  0.3067669986803285 0.203627750582736 0  0.4262598344738712 0.2036568242185335 0  0.5814408164431408 0.2041285596160068 0  0.5688286748170428 0.1961819304477386 0  0.4145905603063645 0.2038180695522843 0  0.3473758401724931 0.2038180695522752 0  0.2950977245128307 0.2038180695522663 0  0.5688286748170693 0.203818069552238 0  0.2950977245127906 0.1961819304477774 0  0.3473758401723931 0.1961819304478349 0  0.4145905603061963 0.1961819304479011 0  0.2601812407614425 0.2056861609747042
[...]
<PointData  Vectors="f_40-0"> 
<DataArray  type="Float64"  Name="f_40-0"  NumberOfComponents="3" format="ascii">0.0000000000000000e+00 0.0000000000000000e+00 0.0000000000000000e+00  0.0000000000000000e+00 0.0000000000000000e+00 0.0000000000000000e+00  0.0000000000000000e+00 0.0000000000000000e+00 0.0000000000000000e+00  0.0000000000000000e+00 0.0000000000000000e+00 0.0000000000000000e+00  -2.8385187523776225e-05 -1.4162331644432806e-03 0.0000000000000000e+00  8.3217542557465995e-05 -1.4193669385685467e-03 0.0000000000000000e+00  0.0000000000000000e+00 0.0000000000000000e+00 0.0000000000000000e+00  0.0000000000000000e+00 0.0000000000000000e+00 0.0000000000000000e+00  0.0000000000000000e+00 0.0000000000000000e+00 0.0000000000000000e+00  0.0000000000000000e+00 0.0000000000000000e+00 0.0000000000000000e+00  2.6893618376722090e-05 -1.4177789518653317e-03 0.0000000000000000e+00  2.5731986173026805e-01 0.0000000000000000e+00 0.0000000000000000e+00  4.7505205242514176e-01 0.0000000000000000e+00 0.0000000000000000e+00  6.5319657208456994e-01 0.0000000000000000e+00 0.0000000000000000e+00  7.9175342070875909e-01 0.0000000000000000e+00 0.0000000000000000e+00  8.9072259829769096e-01 0.0000000000000000e+00 0.0000000000000000e+00  9.5010410485135988e-01 0.0000000000000000e+00 0.0000000000000000e+00  9.6989794036970622e-01 0.0000000000000000e+00 0.0000000000000000e+00  9.5010410485256047e-01 0.0000000000000000e+00 0.0000000000000000e+00  8.9072259829975320e-01 0.0000000000000000e+00 0.0000000000000000e+00  7.9175342071131283e-01 0.0000000000000000e+00 0.0000000000000000e+00  6.5319657208699622e-01 0.0000000000000000e+00 0.0000000000000000e+00  4.7505205242721205e-01 0.0000000000000000e+00 0.0000000000000000e+00  2.5731986173143456e-01 0.0000000000000000e+00 0.0000000000000000e+00  0.0000000000000000e+00 0.0000000000000000e+00 0.0000000000000000e+00  0.0000000000000000e+00 0.0000000000000000e+00 0.0000000000000000e+00  0.0000000000000000e+00 0.0000000000000000e+00 0.0000000000000000e+00  0.0000000000000000e+00 0.0000000000000000e+00 0.0000000000000000e+00  0.0000000000000000e+00 0.0000000000000000e+00 0.0000000000000000e+00  0.0000000000000000e+00 0.0000000000000000e+00 0.0000000000000000e+00  0.0000000000000000e+00 0.0000000000000000e+00 0.0000000000000000e+00  0.0000000000000000e+00 0.0000000000000000e+00 0.0000000000000000e+00  0.0000000000000000e+00 0.0000000000000000e+00 0.0000000000000000e+00  0.0000000000000000e+00 0.0000000000000000e+00 0.0000000000000000e+00  0.0000000000000000e+00 0.0000000000000000e+00 0.0000000000000000e+00  0.0000000000000000e+00 0.0000000000000000e+00 0.0000000000000000e+00  0.0000000000000000e+00 0.0000000000000000e+00 0.0000000000000000e+00  0.0000000000000000e+00 0.0000000000000000e+00 0.0000000000000000e+00  0.0000000000000000e+00 0.0000000000000000e+00 0.0000000000000000e+00  0.0000000000000000e+00 0.0000000000000000e+00 0.0000000000000000e+00  0.0000000000000000e+00 0.0000000000000000e+00 0.0000000000000000e+00  0.0000000000000000e+00 0.0000000000000000e+00 0.0000000000000000e+00  0.0000000000000000e+00 0.0000000000000000e+00 0.0000000000000000e+00  0.0000000000000000e+00 0.0000000000000000e+00 0.0000000000000000e+00  0.0000000000000000e+00 0.0000000000000000e+00 0.0000000000000000e+00  0.0000000000000000e+00 0.0000000000000000e+00 0.0000000000000000e+00  0.0000000000000000e+00 0.0000000000000000e+00 0.0000000000000000e+00  0.0000000000000000e+00 0.0000000000000000e+00 0.0000000000000000e+00  0.0000000000000000e+00 0.0000000000000000e+00 0.0000000000000000e+00  0.0000000000000000e+00 0.0000000000000000e+00 0.0000000000000000e+00  0.0000000000000000e+00 0.0000000000000000e+00 0.0000000000000000e+00  0.0000000000000000e+00 0.0000000000000000e+00 0.0000000000000000e+00  0.0000000000000000e+00 0.0000000000000000e+00 0.0000000000000000e+00  0.0000000000000000e+00 0.0000000000000000e+00 0.0000000000000000e+00  0.0000000000000000e+00 0.0000000000000000e+00 0.0000000000000000e+00  0.0000000000000000e+00 0.0000000000000000e+00 0.0000000000000000e+00  0.0000000000000000e+00 0.0000000000000000e+00 0.0000000000000000e+00  0.0000000000000000e+00 0.0000000000000000e+00 0.0000000000000000e+00  0.0000000000000000e+00 0.0000000000000000e+00 0.0000000000000000e+00  0.0000000000000000e+00 0.0000000000000000e+00 0.0000000000000000e+00  0.0000000000000000e+00 0.0000000000000000e+00 0.0000000000000000e+00  0.0000000000000000e+00 0.0000000000000000e+00 0.0000000000000000e+00  8.7309427597003275e-01 -2.4818726012279396e-02 0.0000000000000000e+00  6.4488592069583561e-01 8.5228572520978079e-03 0.0000000000000000e+00  8.7715057515268136e-01 2.9426404857207048e-02 0.0000000000000000e+00  0.0000000000000000e+00 0.0000000000000000e+00 0.0000000000000000e+00  0.0000000000000000e+00 0.0000000000000000e+00 0.0000000000000000e+00  0.0000000000000000e+00 0.0000000000000000e+00 0.0000000000000000e+00  0.0000000000000000e+00 0.0000000000000000e+00 0.0000000000000000e+00  0.0000000000000000e+00 0.0000000000000000e+00 0.0000000000000000e+00  0.0000000000000000e+00 0.0000000000000000e+00 0.0000000000000000e+00  0.0000000000000000e+00 0.0000000000000000e+00 0.0000000000000000e+00  0.0000000000000000e+00 0.0000000000000000e+00 0.0000000000000000e+00  0.0000000000000000e+00 0.0000000000000000e+00 0.0000000000000000e+00  0.0000000000000000e+00 0.0000000000000000e+00 0.0000000000000000e+00  0.0000000000000000e+00 0.0000000000000000e+00 0.0000000000000000e+00  0.0000000000000000e+00 0.0000000000000000e+00 0.0000000000000000e+00  0.0000000000000000e+00 0.0000000000000000e+00 0.0000000000000000e+00  0.0000000000000000e+00 0.0000000000000000e+00 0.0000000000000000e+00  0.0000000000000000e+00 0.0000000000000000e+00 0.0000000000000000e+00  0.0000000000000000e+00 0.0000000000000000e+00 0.0000000000000000e+00  0.0000000000000000e+00 0.0000000000000000e+00 0.0000000000000000e+00  0.0000000000000000e+00 0.0000000000000000e+00 0.0000000000000000e+00  0.0000000000000000e+00 0.0000000000000000e+00 0.0000000000000000e+00  0.0000000000000000e+00 0.0000000000000000e+00 0.0000000000000000e+00  0.0000000000000000e+00 0.0000000000000000e+00 0.0000000000000000e+00  0.0000000000000000e+00 0.0000000000000000e+00 0.0000000000000000e+00  0.0000000000000000e+00 0.0000000000000000e+00 0.0000000000000000e+00  0.0000000000000000e+00 0.0000000000000000e+00 0.0000000000000000e+00  0.0000000000000000e+00 0.0000000000000000e+00 0.0000000000000000e+00  0.0000000000000000e+00 0.0000000000000000e+00 0.0000000000000000e+00  0.0000000000000000e+00 0.0000000000000000e+00 0.0000000000000000e+00  0.0000000000000000e+00 0.0000000000000000e+00 0.0000000000000000e+00  0.0000000000000000e+00 0.0000000000000000e+00 0.0000000000000000e+00  0.0000000000000000e+00 0.0000000000000000e+00 0.0000000000000000e+00  0.0000000000000000e+00 0.0000000000000000e+00 0.0000000000000000e+00  0.0000000000000000e+00 0.0000000000000000e+00 0.0000000000000000e+00  0.0000000000000000e+00 0.0000000000000000e+00 0.0000000000000000e+00  0.0000000000000000e+00 0.0000000000000000e+00 0.0000000000000000e+00  0.0000000000000000e+00 0.0000000000000000e+00 0.0000000000000000e+00  0.0000000000000000e+00 0.0000000000000000e+00 0.0000000000000000e+00  0.0000000000000000e+00 0.0000000000000000e+00 0.0000000000000000e+00  0.0000000000000000e+00 0.0000000000000000e+00 0.0000000000000000e+00  0.0000000000000000e+00 0.0000000000000000e+00 0.0000000000000000e+00  0.0000000000000000e+00 0.0000000000000000e+00 0.0000000000000000e+00  0.0000000000000000e+00 0.0000000000000000e+00 0.0000000000000000e+00  0.0000000000000000e+00 0.0000000000000000e+00 0.0000000000000000e+00  0.0000000000000000e+00 0.0000000000000000e+00 0.0000000000000000e+00  0.0000000000000000e+00 0.0000000000000000e+00 0.0000000000000000e+00  0.0000000000000000e+00 0.0000000000000000e+00 0.0000000000000000e+00  0.0000000000000000e+00 0.0000000000000000e+00 0.0000000000000000e+00  0.0000000000000000e+00 0.0000000000000000e+00 0.0000000000000000e+00  0.0000000000000000e+00 0.0000000000000000e+00 0.0000000000000000e+00  0.0000000000000000e+00 0.0000000000000000e+00 0.0000000000000000e+00  0.0000000000000000e+00 0.0000000000000000e+00 0.0000000000000000e+00  0.0000000000000000e+00 0.0000000000000000e+00 0.0000000000000000e+00  0.0000000000000000e+00 0.0000000000000000e+00 0.0000000000000000e+00  0.0000000000000000e+00 0.0000000000000000e+00 0.0000000000000000e+00  0.0000000000000000e+00 0.0000000000000000e+00 0.0000000000000000e+00  0.0000000000000000e+00 0.0000000000000000e+00 0.0000000000000000e+00  0.0000000000000000e+00 0.0000000000000000e+00 0.0000000000000000e+00  0.0000000000000000e+00 0.0000000000000000e+00 0.0000000000000000e+00  0.0000000000000000e+00 0.0000000000000000e+00 0.0000000000000000e+00  0.0000000000000000e+00 0.0000000000000000e+00 0.0000000000000000e+00  0.0000000000000000e+00 0.0000000000000000e+00 0.0000000000000000e+00  0.0000000000000000e+00 0.0000000000000000e+00 0.0000000000000000e+00  0.0000000000000000e+00 0.0000000000000000e+00 0.0000000000000000e+00  0.0000000000000000e+00 0.0000000000000000e+00 0.0000000000000000e+00  0.0000000000000000e+00 0.0000000000000000e+00 0.0000000000000000e+00  0.0000000000000000e+00 0.0000000000000000e+00 0.0000000000000000e+00  0.0000000000000000e+00 0.0000000000000000e+00 0.0000000000000000e+00  0.0000000000000000e+00 0.0000000000000000e+00 0.0000000000000000e+00  0.0000000000000000e+00 0.0000000000000000e+00 0.0000000000000000e+00  0.0000000000000000e+00 0.0000000000000000e+00 0.0000000000000000e+00  0.0000000000000000e+00 0.0000000000000000e+00 0.0000000000000000e+00  0.0000000000000000e+00 0.0000000000000000e+00 0.0000000000000000e+00  0.0000000000000000e+00 0.0000000000000000e+00 0.0000000000000000e+00  0.0000000000000000e+00 0.0000000000000000e+00 0.0000000000000000e+00  0.0000000000000000e+00 0.0000000000000000e+00 0.0000000000000000e+00  0.0000000000000000e+00 0.0000000000000000e+00 0.0000000000000000e+00  0.0000000000000000e+00 0.0000000000000000e+00 0.0000000000000000e+00  0.0000000000000000e+00 0.0000000000000000e+00 0.0000000000000000e+00  0.0000000000000000e+00 0.0000000000000000e+00 0.0000000000000000e+00  1.6583964983113522e-06 -2.4509348937371202e-06 0.0000000000000000e+00  3.8126476154355526e-06 -4.7526327775367900e-06 0.0000000000000000e+00  5.9304940741649136e-06 -8.8735338084304787e-06 0.0000000000000000e+00  8.4983264204806642e-06 -1.4907119525736117e-05 0.0000000000000000e+00  1.0832941760026045e-05 -2.2869244476764036e-05 0.0000000000000000e+00  1.3771637877009308e-05 -3.2880675561817198e-05 0.0000000000000000e+00  1.6299743391918801e-05 -4.4556290798066506e-05 0.0000000000000000e+00  1.9010657084764420e-05 -5.8464194388520019e-05 0.0000000000000000e+00  2.2292538055229155e-05 -7.4107497506886437e-05 0.0000000000000000e+00  2.5088404094896716e-05 -9.1684519343224091e-05 0.0000000000000000e+00  2.8610802290557335e-05 -1.1106598548493961e-04 0.0000000000000000e+00  3.1567384724706334e-05 -1.3230401057254582e-04 0.0000000000000000e+00  3.5119654923354291e-05 -1.5523260774489981e-04 0.0000000000000000e+00  3.8204903002517740e-05 -1.7957194608325409e-04 0.0000000000000000e+00  4.1356624280063674e-05 -2.0568343573436682e-04 0.0000000000000000e+00  4.4843172549314556e-05 -2.3309705526702501e-04 0.0000000000000000e+00  4.7825928215206985e-05 -2.6189153390266854e-04 0.0000000000000000e+00  5.1193960312159968e-05 -2.9197974948829715e-04 0.0000000000000000e+00  5.4026209534878706e-05 -3.2324436060268599e-04 0.0000000000000000e+00  5.7128039903922234e-05 -3.5559360227247622e-04 0.0000000000000000e+00  5.9821315901372053e-05 -3.8896742095324518e-04 0.0000000000000000e+00  6.2609894397948820e-05 -4.2332806446181143e-04 0.0000000000000000e+00  6.5036951289927384e-05 -4.5839183700017750e-04 0.0000000000000000e+00  6.7340733324374697e-05 -4.9435447441728987e-04 0.0000000000000000e+00  6.9681768660996411e-05 -5.3092288971671911e-04 0.0000000000000000e+00  7.1716050839853014e-05 -5.6815186285787828e-04 0.0000000000000000e+00  7.3653081216492320e-05 -6.0601655163541228e-04 0.0000000000000000e+00  7.5381670238669241e-05 -6.4431477192120469e-04 0.0000000000000000e+00  7.7001473455280396e-05 -6.8316241978217415e-04 0.0000000000000000e+00  7.8429816351873474e-05 -7.2234398343311269e-04 0.0000000000000000e+00  7.9742708110764560e-05 -7.6197814431273089e-04 0.0000000000000000e+00  8.0877693021099591e-05 -8.0185773867842832e-04 0.0000000000000000e+00  8.1898820249865379e-05 -8.4210239122190563e-04 0.0000000000000000e+00  8.2753302854068591e-05 -8.8251239307972601e-04 0.0000000000000000e+00  8.3491944056362995e-05 -9.2321967021009800e-04 0.0000000000000000e+00  8.4083657824400110e-05 -9.6403224838000794e-04 0.0000000000000000e+00  8.4563125037244430e-05 -1.0050727544748880e-03 0.0000000000000000e+00  8.4907682916959831e-05 -1.0461676310324845e-03 0.0000000000000000e+00  8.5140148792358427e-05 -1.0874388781108423e-03 0.0000000000000000e+00  8.5246110192549858e-05 -1.1287256088015260e-03 0.0000000000000000e+00  8.5232629183532423e-05 -1.1701286711799028e-03 0.0000000000000000e+00  8.5119277103992079e-05 -1.2115471187443942e-03 0.0000000000000000e+00  8.4885735137946514e-05 -1.2530207450952044e-03 0.0000000000000000e+00  8.4588116711767553e-05 -1.2945150659862048e-03 0.0000000000000000e+00  8.4158683703278525e-05 -1.3359909987699227e-03 0.0000000000000000e+00  8.3663156732849791e-05 -1.3775431083104842e-03 0.0000000000000000e+00  5.4867226713265804e-05 -1.4185704859655201e-03 0.0000000000000000e+00  -9.0773607335176357e-07 -1.4169990561369238e-03 0.0000000000000000e+00  -2.7893746950493318e-05 -1.3746851293552518e-03 0.0000000000000000e+00  -2.7336747819939881e-05 -1.3329371908754842e-03 0.0000000000000000e+00  -2.6842095240129739e-05 -1.2911574595434556e-03 0.0000000000000000e+00  -2.6442505911838876e-05 -1.2494438657252797e-03 0.0000000000000000e+00  -2.6106101118447193e-05 -1.2077557244666872e-03 0.0000000000000000e+00  -2.5866102768795951e-05 -1.1661167094820200e-03 0.0000000000000000e+00  -2.5666277821800241e-05 -1.1245401231041114e-03 0.0000000000000000e+00  -2.5573688177576106e-05 -1.0829971309865016e-03 0.0000000000000000e+00  -2.5514465621787729e-05 -1.0415916300778880e-03 0.0000000000000000e+00  -2.5557279668494254e-05 -1.0002356673197619e-03 0.0000000000000000e+00  -2.5609388774233379e-05 -9.5905910350379490e-04 0.0000000000000000e+00  -2.5774359334668707e-05 -9.1798392880109564e-04 0.0000000000000000e+00  -2.5923237848123770e-05 -8.7714621512720119e-04 0.0000000000000000e+00  -2.6195089737982286e-05 -8.3647301245856186e-04 0.0000000000000000e+00  -2.6417933004333031e-05 -7.9609746113546884e-04 0.0000000000000000e+00  -2.6781572260313379e-05 -7.5596238860397625e-04 0.0000000000000000e+00  -2.7060171729519817e-05 -7.1620128236614172e-04 0.0000000000000000e+00  -2.7498976243056897e-05 -6.7677110812142702e-04 0.0000000000000000e+00  -2.7810223995901390e-05 -6.3780923983699285e-04 0.0000000000000000e+00  -2.8298969871625180e-05 -5.9928392511900120e-04 0.0000000000000000e+00  -2.8601605456634196e-05 -5.6132706016633559e-04 0.0000000000000000e+00  -2.9100028108837658e-05 -5.2393555899122365e-04 0.0000000000000000e+00  -2.9373356622878690e-05 -4.8723123050740664e-04 0.0000000000000000e+00  -2.9793113621131486e-05 -4.5118406832963853e-04 0.0000000000000000e+00  -3.0183434055170298e-05 -4.1607132800716874e-04 0.0000000000000000e+00  -3.0307498051781992e-05 -3.8166368456835135e-04 0.0000000000000000e+00  -3.0507902530466867e-05 -3.4833249969953205e-04 0.0000000000000000e+00  -3.0488520524894692e-05 -3.1598727715630170e-04 0.0000000000000000e+00  -3.0469287578684789e-05 -2.8485017583615587e-04 0.0000000000000000e+00  -3.0194331573627129e-05 -2.5487617322444034e-04 0.0000000000000000e+00  -2.9882506849429004e-05 -2.2624686259989566e-04 0.0000000000000000e+00  -2.9109860235956085e-05 -1.9913855991770545e-04 0.0000000000000000e+00  -2.8530455316620442e-05 -1.7330707577546553e-04 0.0000000000000000e+00  -2.7746825836519061e-05 -1.4930331418770663e-04 0.0000000000000000e+00  -2.6432283643489413e-05 -1.2662229347991367e-04 0.0000000000000000e+00  -2.5121091129798164e-05 -1.0589630416746907e-04 0.0000000000000000e+00  -2.3423168534464026e-05 -8.6822354990829053e-05 0.0000000000000000e+00  -2.1700452803432823e-05 -6.9641617085077935e-05 0.0000000000000000e+00  -1.9418110796712560e-05 -5.4480727021251002e-05 0.0000000000000000e+00  -1.7444517773810441e-05 -4.0928010717865247e-05 0.0000000000000000e+00  -1.5327284028527241e-05 -2.9599319685004880e-05 0.0000000000000000e+00  -1.2669284187073888e-05 -1.9812379128228834e-05 0.0000000000000000e+00  -1.0267257569206876e-05 -1.2098338144562261e-05 0.0000000000000000e+00  -7.4841714529243235e-06 -6.2795231395015578e-06 0.0000000000000000e+00  -5.0491661747617285e-06 -2.3218396821335336e-06 0.0000000000000000e+00  -2.3111444436427889e-06 -2.0885291659888531e-07 0.0000000000000000e+00  -6.4480269183022651e-07 -1.1801430226455775e-06 0.0000000000000000e+00  2.8637657019522823e-05 -1.3551948415551204e-03 0.0000000000000000e+00  3.0061926596818932e-05 -1.2756395261796496e-03 0.0000000000000000e+00  3.0269915088412182e-05 -1.1458650521329720e-03 0.0000000000000000e+00  -8.0800634686115931e-07 -9.0832093054828756e-06 0.0000000000000000e+00  2.9627741799601091e-05 -1.0644692144098323e-03 0.0000000000000000e+00  -9.6964546624078264e-07 -2.3941095647666094e-05 0.0000000000000000e+00  2.9258791795492121e-05 -9.8198419945329262e-04 0.0000000000000000e+00  -1.9433771355118313e-07 -6.3306606419565462e-05 0.0000000000000000e+00  1.3481010264973720e-06 -9.7493246620766625e-05 0.0000000000000000e+00  2.8525438481250372e-05 -9.0005632401097765e-04 0.0000000000000000e+00  6.3300622146544949e-06 -2.1602109275211981e-04 0.0000000000000000e+00  2.5971151623729491e-05 -7.3884278010194406e-04 0.0000000000000000e+00  2.6844884302042671e-06 -1.3765029706556525e-04 0.0000000000000000e+00  9.5615440441277605e-06 -2.7243180691814743e-04 0.0000000000000000e+00  2.4158309580155481e-05 -6.6016221663994399e-04 0.0000000000000000e+00  2.7429086252797755e-05 -8.1891744335430450e-04 0.0000000000000000e+00  1.2490416420141022e-05 -3.3494482873032449e-04 0.0000000000000000e+00  2.2004152339158440e-05 -5.8325912434952626e-04 0.0000000000000000e+00  1.4708484516257602e-05 -3.9893834046609807e-04 0.0000000000000000e+00  2.0233772180408273e-05 -5.1012603151545178e-04 0.0000000000000000e+00  1.7392509925184013e-05 -4.5148658673000932e-04 0.0000000000000000e+00  4.8338876205444634e-06 -1.7351765230738206e-04 0.0000000000000000e+00  2.9241646586853280e-05 -1.2132632969652241e-03 0.0000000000000000e+00  -5.0928322285630018e-07 -4.0810976130958172e-05 0.0000000000000000e+00  9.8435177877107082e-06 -1.3145792162464270e-03 0.0000000000000000e+00  -2.7556650040899687e-06 -3.8768501781523139e-06 0.0000000000000000e+00  1.3458064445341715e-05 -1.0224975655750916e-03 0.0000000000000000e+00  1.3568205204824973e-05 -1.1052402980849378e-03 0.0000000000000000e+00  2.8703760168003668e-06 -1.6584964362207239e-05 0.0000000000000000e+00  7.3965849203287258e-06 -7.9993084029281978e-05 0.0000000000000000e+00  1.1205359266738767e-05 -7.7790112523025347e-04 0.0000000000000000e+00  1.3022660973033473e-05 -9.4021137934864943e-04 0.0000000000000000e+00  1.9259752316868988e-05 -2.4412261210879474e-04 0.0000000000000000e+00  9.8482638267612828e-06 -6.9843116718657384e-04 0.0000000000000000e+00  1.0272750618078233e-05 -1.1857136404605924e-04 0.0000000000000000e+00  2.3086829328075681e-05 -3.0426119786551163e-04 0.0000000000000000e+00  8.2157648745203743e-06 -6.2054626779846855e-04 0.0000000000000000e+00  1.2267550500968278e-05 -8.5859513431278602e-04 0.0000000000000000e+00  2.9680339798063527e-05 -3.6888699495980982e-04 0.0000000000000000e+00  6.3369317732734445e-06 -5.4465596374514620e-04 0.0000000000000000e+00  -8.5555469389597008e-08 -3.7171724471021860e-07 0.0000000000000000e+00  -7.6403826264611165e-07 1.6268423830225769e-07 0.0000000000000000e+00  4.0959309136364719e-05 -1.3882907157387965e-03 0.0000000000000000e+00  1.5393680349169300e-0