<?xml version="1.0"?>
<VTKFile type="UnstructuredGrid"  version="0.1"  >
<UnstructuredGrid>
<Piece  NumberOfPoints="1419" NumberOfCells="2698">
<Points>
<DataArray  type="Float64"  NumberOfComponents="3"  format="ascii">0 0 0  0 0.41 0  2.5 0 0  2.5 0.41 0  0.6 0.19 0  0.6 0.21 0  0.25 0.2 0  0.15 0.2 0  0.2489897948556636 0.21 0  0.2489897948556636 0.19 0  0.6 0.2 0  0 0.3807142857143437 0  0 0.3514285714286952 0  0 0.3221428571430699 0  0 0.29285714285744 0  0 0.2635714285718054 0  0 0.2342857142861561 0  0 0.2050000000005308 0  0 0.175714285714732 0  0 0.1464285714289574 0  0 0.1171428571431897 0  0 0.08785714285737878 0  0 0.05857142857161107 0  0 0.02928571428580012 0  0.03015443760436003 0 0  0.06140001986583606 0 0  0.09377624077125973 0 0  0.1273239957535082 0 0  0.1620856860351972 0 0  0.1981052433264291 0 0  0.235428184091502 0 0  0.2741016576309132 0 0  0.3141745521465447 0 0  0.3556974926295285 0 0  0.3987229542472677 0 0  0.4433053055141081 0 0  0.4895008759286886 0 0  0.5373680609405097 0 0  0.5869673343216626 0 0  0.6383613676634521 0 0  0.6916151138468254 0 0  0.7467958595648856 0 0  0.8039733463919316 0 0  0.8632198139502143 0 0  0.9246101326867038 0 0  0.9882218810934433 0 0  1.054135445558498 0 0  1.122434100542598 0 0  1.193204177141305 0 0  1.266535089879536 0 0  1.342519516046404 0 0  1.421253448503939 0 0  1.502836389106271 0 0  1.587371439758838 0 0  1.674965418777374 0 0  1.765729001825544 0 0  1.859776908880082 0 0  1.957227977487062 0 0  2.058205329869943 0 0  2.162836591189951 0 0  2.271253957290865 0 0  2.383594446803425 0 0  2.5 0.1024999999997612 0  2.5 0.2049999999994743 0  2.5 0.3074999999997183 0  2.383594446803656 0.41 0  2.271253957291315 0.41 0  2.162836591190598 0.41 0  2.058205329870775 0.41 0  1.957227977488067 0.41 0  1.859776908881246 0.41 0  1.765729001826854 0.41 0  1.674965418778818 0.41 0  1.58737143976041 0.41 0  1.502836389107956 0.41 0  1.421253448505726 0.41 0  1.342519516048286 0.41 0  1.266535089881505 0.41 0  1.193204177143353 0.41 0  1.122434100544716 0.41 0  1.05413544556068 0.41 0  0.9882218810956305 0.41 0  0.9246101326886647 0.41 0  0.8632198139519631 0.41 0  0.8039733463934788 0.41 0  0.7467958595662458 0.41 0  0.6916151138480078 0.41 0  0.6383613676644679 0.41 0  0.5869673343225223 0.41 0  0.5373680609412221 0.41 0  0.4895008759292634 0.41 0  0.4433053055145528 0.41 0  0.3987229542475914 0.41 0  0.3556974926297398 0.41 0  0.3141745521466497 0.41 0  0.2741016576310038 0.41 0  0.2354281840915826 0.41 0  0.1981052433265003 0.41 0  0.1620856860352591 0.41 0  0.1273239957535623 0.41 0  0.09377624077128965 0.41 0  0.06140001986584975 0.41 0  0.03015443760436654 0.41 0  0.2497468076502589 0.2050254481002335 0  0.2497468076502614 0.1949745518997913 0  0.2469965252529372 0.1829317073451959 0  0.2439893735792749 0.1762316384219906 0  0.2400332147834255 0.1700443375285386 0  0.2352133972704371 0.1645032867342007 0  0.2296339016332438 0.1597280261969788 0  0.2234150974217223 0.1558215752574715 0  0.2166911463437691 0.1528682099456123 0  0.2096071079204251 0.1509316448471593 0  0.2023158100364996 0.1500536585536553 0  0.194974551899914 0.1502531923497262 0  0.1877417105387872 0.1515259415822739 0  0.1807733240461124 0.153844448527136 0  0.1742197252835808 0.15715869474974 0  0.1682222986673531 0.1613971801805478 0  0.162910430003803 0.1664684656256651 0  0.1583987151779087 0.1722631454351573 0  0.1547844879126891 0.178656207771761 0  0.1521457199348551 0.1855097315605723 0  0.1505393388476355 0.1926758619366523 0  0.1505393388476328 0.2073241380633295 0  0.1521457199348437 0.2144902684393899 0  0.1547844879126531 0.221343792228163 0  0.1583987151778488 0.2277368545647528 0  0.1629104300036858 0.2335315343742052 0  0.1682222986671726 0.2386028198193036 0  0.1742197252833576 0.2428413052501257 0  0.1807733240458683 0.2461555514727623 0  0.1877417105384929 0.2484740584176516 0  0.1949745518995776 0.2497468076502398 0  0.202315810036185 0.2499463414463592 0  0.2096071079201568 0.2490683551528932 0  0.2166911463435495 0.2471317900544655 0  0.2234150974215506 0.2441784247426195 0  0.2296339016331197 0.2402719738031125 0  0.2352133972703547 0.2354967132658811 0  0.2400332147833751 0.2299556624715287 0  0.2439893735792577 0.2237683615780412 0  0.246996525252926 0.2170682926548348 0  0.25645809709277 0.21 0  0.2639263993298655 0.21 0  0.271394701566961 0.21 0  0.2788630038040554 0.21 0  0.2863313060411479 0.21 0  0.2937996082782405 0.21 0  0.301267910515333 0.21 0  0.3087362127524279 0.21 0  0.3162045149895234 0.21 0  0.3236728172265972 0.21 0  0.3311411194636928 0.21 0  0.3386094217007701 0.21 0  0.3460777239378666 0.21 0  0.3535460261749672 0.21 0  0.3610143284120516 0.21 0  0.3684826306491596 0.21 0  0.3759509328862226 0.21 0  0.383419235123329 0.21 0  0.3908875373604028 0.21 0  0.3983558395975142 0.21 0  0.4058241418345938 0.21 0  0.4132924440716992 0.21 0  0.4207607463087888 0.21 0  0.4282290485459029 0.21 0  0.4356973507830418 0.21 0  0.4431656530201649 0.21 0  0.4506339552573136 0.21 0  0.4581022574944306 0.21 0  0.4655705597315852 0.21 0  0.4730388619686996 0.21 0  0.480507164205851 0.21 0  0.4879754664429498 0.21 0  0.4954437686800938 0.21 0  0.502912070917267 0.21 0  0.5103803731544119 0.21 0  0.5178486753915261 0.21 0  0.5253169776286404 0.21 0  0.5327852798657868 0.21 0  0.5402535821029386 0.21 0  0.54772188434007 0.21 0  0.5551901865771842 0.21 0  0.5626584888143201 0.21 0  0.5701267910514778 0.21 0  0.5775950932886138 0.21 0  0.5850633955257281 0.21 0  0.5925316977628483 0.21 0  0.6 0.2050000000000054 0  0.6 0.1950000000000217 0  0.5925316977628897 0.19 0  0.5850633955257988 0.19 0  0.5775950932887378 0.19 0  0.5701267910515998 0.19 0  0.5626584888145268 0.19 0  0.5551901865773963 0.19 0  0.547721884340339 0.19 0  0.5402535821032429 0.19 0  0.5327852798661811 0.19 0  0.5253169776290537 0.19 0  0.5178486753919799 0.19 0  0.5103803731549078 0.19 0  0.502912070917822 0.19 0  0.4954437686807294 0.19 0  0.4879754664436223 0.19 0  0.4805071642065402 0.19 0  0.4730388619694271 0.19 0  0.4655705597323621 0.19 0  0.4581022574952563 0.19 0  0.4506339552581777 0.19 0  0.4431656530210671 0.19 0  0.4356973507839815 0.19 0  0.4282290485468779 0.19 0  0.4207607463097617 0.19 0  0.4132924440726327 0.19 0  0.4058241418354857 0.19 0  0.3983558395983636 0.19 0  0.3908875373612097 0.19 0  0.3834192351240934 0.19 0  0.3759509328869369 0.19 0  0.3684826306498175 0.19 0  0.361014328412667 0.19 0  0.3535460261755617 0.19 0  0.3460777239384295 0.19 0  0.3386094217012945 0.19 0  0.3311411194641595 0.19 0  0.3236728172270245 0.19 0  0.3162045149898895 0.19 0  0.3087362127527544 0.19 0  0.3012679105156187 0.19 0  0.2937996082784807 0.19 0  0.2863313060413428 0.19 0  0.2788630038042048 0.19 0  0.2713947015670686 0.19 0  0.2639263993299336 0.19 0  0.2564580970927985 0.19 0  0.2607803159922026 0.2000727136295815 0  0.5887803774232762 0.2001272386983733 0  0.5745072403740523 0.2002044435018727 0  0.5511891430099709 0.2001122610077113 0  0.2751288526855082 0.20000000000002 0  0.5365194309847112 0.1999999999999436 0  0.2894621222999649 0.1998691686390484 0  0.5215828265105155 0.1999999999999228 0  0.3127789816668748 0.1998657885438805 0  0.3274069683451451 0.2000000000000796 0  0.5066462220363641 0.199999999999908 0  0.3650630746574081 0.199866017807523 0  0.476773013087985 0.1999999999998713 0  0.3417402379596385 0.1998691686391011 0  0.3796850840047755 0.200000000000134 0  0.4618364086138087 0.1999999999998546 0  0.4917096175621762 0.1999999999998808 0  0.3946216884789568 0.2000000000001512 0  0.446899804139621 0.1999999999998389 0  0.4089549580935208 0.1998691686391595 0  0.4322718174608562 0.200127451265745 0  0.4201487168029707 0.1999966199048527 0  0.3528922713220932 0.2000185703532356 0  0.5633122436674589 0.1999814296467508 0  0.3006558810093873 0.1999966199048318 0  0.5815926498168407 0.1966545283159175 0  0.2677053789419034 0.1964246479135325 0  0.5290511287476175 0.1970915826863981 0  0.5439877332217911 0.197091582686394 0  0.2825131256993216 0.2035478995978015 0  0.3199386661080599 0.202908417313604 0  0.4842413153250809 0.1970915826863873 0  0.5141145242734466 0.1970915826863843 0  0.3722167817676917 0.2029084173136195 0  0.4693047108508938 0.1970915826863783 0  0.3348752705822316 0.202908417313609 0  0.3871533862418661 0.2029084173136212 0  0.4543681063767183 0.1970915826863795 0  0.4991779197992749 0.1970915826863902 0  0.4020059614928624 0.203547899597858 0  0.4394315019025246 0.1970915826863714 0  0.2550657455369551 0.2034088125358657 0  0.2548908499171161 0.1966940311614271 0  0.5946539510196798 0.2024302972968126 0  0.267698176732111 0.2039977513680092 0  0.4261685417851465 0.196409292431739 0  0.3590076176283495 0.196411355804271 0  0.5571672426447437 0.2036011176410121 0  0.3066757059912147 0.1964092924317024 0  0.594380730180568 0.1966558399668133 0  0.4842413153245942 0.2040749161535287 0  0.4693047108503577 0.2040749161535231 0  0.3871533862424271 0.1959250838464788 0  0.372246743208829 0.1959123236376545 0  0.5141145242731028 0.2040749161535395 0  0.4543681063761134 0.2040749161535186 0  0.4019979587101454 0.1959834479682427 0  0.4394608940728603 0.2040870543693135 0  0.5439623148931173 0.2040856076781014 0  0.5290511287473298 0.2040749161535501 0  0.4991779197988497 0.2040749161535382 0  0.3347912413592433 0.1959225448935183 0  0.3199680582793816 0.1959123018030061 0  0.2825051229162361 0.1959834479681729 0  0.3590471196690275 0.2036304442587945 0  0.5571594006495384 0.1963685282145804 0  0.3067669986803285 0.203627750582736 0  0.4262598344738712 0.2036568242185335 0  0.5814408164431408 0.2041285596160068 0  0.5688286748170428 0.1961819304477386 0  0.4145905603063645 0.2038180695522843 0  0.3473758401724931 0.2038180695522752 0  0.2950977245128307 0.2038180695522663 0  0.5688286748170693 0.203818069552238 0  0.2950977245127906 0.1961819304477774 0  0.3473758401723931 0.1961819304478349 0  0.4145905603061963 0.1961819304479011 0  0.2601812407614425 0.2056861609747042
[...]
<PointData  Vectors="f_40-0"> 
<DataArray  type="Float64"  Name="f_40-0"  NumberOfComponents="3" format="ascii">0.0000000000000000e+00 0.0000000000000000e+00 0.0000000000000000e+00  0.0000000000000000e+00 0.0000000000000000e+00 0.0000000000000000e+00  0.0000000000000000e+00 0.0000000000000000e+00 0.0000000000000000e+00  0.0000000000000000e+00 0.0000000000000000e+00 0.0000000000000000e+00  1.2756474773544039e-10 -6.7807524485182881e-09 0.0000000000000000e+00  -2.7540533336730779e-09 -1.0094218888565829e-08 0.0000000000000000e+00  0.0000000000000000e+00 0.0000000000000000e+00 0.0000000000000000e+00  0.0000000000000000e+00 0.0000000000000000e+00 0.0000000000000000e+00  0.0000000000000000e+00 0.0000000000000000e+00 0.0000000000000000e+00  0.0000000000000000e+00 0.0000000000000000e+00 0.0000000000000000e+00  -1.4610750399950135e-09 -2.3369572184544871e-08 0.0000000000000000e+00  7.9591836734548405e-01 0.0000000000000000e+00 0.0000000000000000e+00  1.4693877550994523e+00 0.0000000000000000e+00 0.0000000000000000e+00  2.0204081632617479e+00 0.0000000000000000e+00 0.0000000000000000e+00  2.4489795918330071e+00 0.0000000000000000e+00 0.0000000000000000e+00  2.7551020408131754e+00 0.0000000000000000e+00 0.0000000000000000e+00  2.9387755102022344e+00 0.0000000000000000e+00 0.0000000000000000e+00  3.0000000000000004e+00 0.0000000000000000e+00 0.0000000000000000e+00  2.9387755102059474e+00 0.0000000000000000e+00 0.0000000000000000e+00  2.7551020408195543e+00 0.0000000000000000e+00 0.0000000000000000e+00  2.4489795918409065e+00 0.0000000000000000e+00 0.0000000000000000e+00  2.0204081632692521e+00 0.0000000000000000e+00 0.0000000000000000e+00  1.4693877551058563e+00 0.0000000000000000e+00 0.0000000000000000e+00  7.9591836734909216e-01 0.0000000000000000e+00 0.0000000000000000e+00  0.0000000000000000e+00 0.0000000000000000e+00 0.0000000000000000e+00  0.0000000000000000e+00 0.0000000000000000e+00 0.0000000000000000e+00  0.0000000000000000e+00 0.0000000000000000e+00 0.0000000000000000e+00  0.0000000000000000e+00 0.0000000000000000e+00 0.0000000000000000e+00  0.0000000000000000e+00 0.0000000000000000e+00 0.0000000000000000e+00  0.0000000000000000e+00 0.0000000000000000e+00 0.0000000000000000e+00  0.0000000000000000e+00 0.0000000000000000e+00 0.0000000000000000e+00  0.0000000000000000e+00 0.0000000000000000e+00 0.0000000000000000e+00  0.0000000000000000e+00 0.0000000000000000e+00 0.0000000000000000e+00  0.0000000000000000e+00 0.0000000000000000e+00 0.0000000000000000e+00  0.0000000000000000e+00 0.0000000000000000e+00 0.0000000000000000e+00  0.0000000000000000e+00 0.0000000000000000e+00 0.0000000000000000e+00  0.0000000000000000e+00 0.0000000000000000e+00 0.0000000000000000e+00  0.0000000000000000e+00 0.0000000000000000e+00 0.0000000000000000e+00  0.0000000000000000e+00 0.0000000000000000e+00 0.0000000000000000e+00  0.0000000000000000e+00 0.0000000000000000e+00 0.0000000000000000e+00  0.0000000000000000e+00 0.0000000000000000e+00 0.0000000000000000e+00  0.0000000000000000e+00 0.0000000000000000e+00 0.0000000000000000e+00  0.0000000000000000e+00 0.0000000000000000e+00 0.0000000000000000e+00  0.0000000000000000e+00 0.0000000000000000e+00 0.0000000000000000e+00  0.0000000000000000e+00 0.0000000000000000e+00 0.0000000000000000e+00  0.0000000000000000e+00 0.0000000000000000e+00 0.0000000000000000e+00  0.0000000000000000e+00 0.0000000000000000e+00 0.0000000000000000e+00  0.0000000000000000e+00 0.0000000000000000e+00 0.0000000000000000e+00  0.0000000000000000e+00 0.0000000000000000e+00 0.0000000000000000e+00  0.0000000000000000e+00 0.0000000000000000e+00 0.0000000000000000e+00  0.0000000000000000e+00 0.0000000000000000e+00 0.0000000000000000e+00  0.0000000000000000e+00 0.0000000000000000e+00 0.0000000000000000e+00  0.0000000000000000e+00 0.0000000000000000e+00 0.0000000000000000e+00  0.0000000000000000e+00 0.0000000000000000e+00 0.0000000000000000e+00  0.0000000000000000e+00 0.0000000000000000e+00 0.0000000000000000e+00  0.0000000000000000e+00 0.0000000000000000e+00 0.0000000000000000e+00  0.0000000000000000e+00 0.0000000000000000e+00 0.0000000000000000e+00  0.0000000000000000e+00 0.0000000000000000e+00 0.0000000000000000e+00  0.0000000000000000e+00 0.0000000000000000e+00 0.0000000000000000e+00  0.0000000000000000e+00 0.0000000000000000e+00 0.0000000000000000e+00  0.0000000000000000e+00 0.0000000000000000e+00 0.0000000000000000e+00  0.0000000000000000e+00 0.0000000000000000e+00 0.0000000000000000e+00  2.6636109336981861e+00 1.8810310346870716e-02 0.0000000000000000e+00  2.3247751573749991e+00 1.8877681217149601e-02 0.0000000000000000e+00  2.8345928792031096e+00 7.1569302360460454e-02 0.0000000000000000e+00  0.0000000000000000e+00 0.0000000000000000e+00 0.0000000000000000e+00  0.0000000000000000e+00 0.0000000000000000e+00 0.0000000000000000e+00  0.0000000000000000e+00 0.0000000000000000e+00 0.0000000000000000e+00  0.0000000000000000e+00 0.0000000000000000e+00 0.0000000000000000e+00  0.0000000000000000e+00 0.0000000000000000e+00 0.0000000000000000e+00  0.0000000000000000e+00 0.0000000000000000e+00 0.0000000000000000e+00  0.0000000000000000e+00 0.0000000000000000e+00 0.0000000000000000e+00  0.0000000000000000e+00 0.0000000000000000e+00 0.0000000000000000e+00  0.0000000000000000e+00 0.0000000000000000e+00 0.0000000000000000e+00  0.0000000000000000e+00 0.0000000000000000e+00 0.0000000000000000e+00  0.0000000000000000e+00 0.0000000000000000e+00 0.0000000000000000e+00  0.0000000000000000e+00 0.0000000000000000e+00 0.0000000000000000e+00  0.0000000000000000e+00 0.0000000000000000e+00 0.0000000000000000e+00  0.0000000000000000e+00 0.0000000000000000e+00 0.0000000000000000e+00  0.0000000000000000e+00 0.0000000000000000e+00 0.0000000000000000e+00  0.0000000000000000e+00 0.0000000000000000e+00 0.0000000000000000e+00  0.0000000000000000e+00 0.0000000000000000e+00 0.0000000000000000e+00  0.0000000000000000e+00 0.0000000000000000e+00 0.0000000000000000e+00  0.0000000000000000e+00 0.0000000000000000e+00 0.0000000000000000e+00  0.0000000000000000e+00 0.0000000000000000e+00 0.0000000000000000e+00  0.0000000000000000e+00 0.0000000000000000e+00 0.0000000000000000e+00  0.0000000000000000e+00 0.0000000000000000e+00 0.0000000000000000e+00  0.0000000000000000e+00 0.0000000000000000e+00 0.0000000000000000e+00  0.0000000000000000e+00 0.0000000000000000e+00 0.0000000000000000e+00  0.0000000000000000e+00 0.0000000000000000e+00 0.0000000000000000e+00  0.0000000000000000e+00 0.0000000000000000e+00 0.0000000000000000e+00  0.0000000000000000e+00 0.0000000000000000e+00 0.0000000000000000e+00  0.0000000000000000e+00 0.0000000000000000e+00 0.0000000000000000e+00  0.0000000000000000e+00 0.0000000000000000e+00 0.0000000000000000e+00  0.0000000000000000e+00 0.0000000000000000e+00 0.0000000000000000e+00  0.0000000000000000e+00 0.0000000000000000e+00 0.0000000000000000e+00  0.0000000000000000e+00 0.0000000000000000e+00 0.0000000000000000e+00  0.0000000000000000e+00 0.0000000000000000e+00 0.0000000000000000e+00  0.0000000000000000e+00 0.0000000000000000e+00 0.0000000000000000e+00  0.0000000000000000e+00 0.0000000000000000e+00 0.0000000000000000e+00  0.0000000000000000e+00 0.0000000000000000e+00 0.0000000000000000e+00  0.0000000000000000e+00 0.0000000000000000e+00 0.0000000000000000e+00  0.0000000000000000e+00 0.0000000000000000e+00 0.0000000000000000e+00  0.0000000000000000e+00 0.0000000000000000e+00 0.0000000000000000e+00  0.0000000000000000e+00 0.0000000000000000e+00 0.0000000000000000e+00  0.0000000000000000e+00 0.0000000000000000e+00 0.0000000000000000e+00  0.0000000000000000e+00 0.0000000000000000e+00 0.0000000000000000e+00  0.0000000000000000e+00 0.0000000000000000e+00 0.0000000000000000e+00  0.0000000000000000e+00 0.0000000000000000e+00 0.0000000000000000e+00  0.0000000000000000e+00 0.0000000000000000e+00 0.0000000000000000e+00  0.0000000000000000e+00 0.0000000000000000e+00 0.0000000000000000e+00  0.0000000000000000e+00 0.0000000000000000e+00 0.0000000000000000e+00  0.0000000000000000e+00 0.0000000000000000e+00 0.0000000000000000e+00  0.0000000000000000e+00 0.0000000000000000e+00 0.0000000000000000e+00  0.0000000000000000e+00 0.0000000000000000e+00 0.0000000000000000e+00  0.0000000000000000e+00 0.0000000000000000e+00 0.0000000000000000e+00  0.0000000000000000e+00 0.0000000000000000e+00 0.0000000000000000e+00  0.0000000000000000e+00 0.0000000000000000e+00 0.0000000000000000e+00  0.0000000000000000e+00 0.0000000000000000e+00 0.0000000000000000e+00  0.0000000000000000e+00 0.0000000000000000e+00 0.0000000000000000e+00  0.0000000000000000e+00 0.0000000000000000e+00 0.0000000000000000e+00  0.0000000000000000e+00 0.0000000000000000e+00 0.0000000000000000e+00  0.0000000000000000e+00 0.0000000000000000e+00 0.0000000000000000e+00  0.0000000000000000e+00 0.0000000000000000e+00 0.0000000000000000e+00  0.0000000000000000e+00 0.0000000000000000e+00 0.0000000000000000e+00  0.0000000000000000e+00 0.0000000000000000e+00 0.0000000000000000e+00  0.0000000000000000e+00 0.0000000000000000e+00 0.0000000000000000e+00  0.0000000000000000e+00 0.0000000000000000e+00 0.0000000000000000e+00  0.0000000000000000e+00 0.0000000000000000e+00 0.0000000000000000e+00  0.0000000000000000e+00 0.0000000000000000e+00 0.0000000000000000e+00  0.0000000000000000e+00 0.0000000000000000e+00 0.0000000000000000e+00  0.0000000000000000e+00 0.0000000000000000e+00 0.0000000000000000e+00  0.0000000000000000e+00 0.0000000000000000e+00 0.0000000000000000e+00  0.0000000000000000e+00 0.0000000000000000e+00 0.0000000000000000e+00  0.0000000000000000e+00 0.0000000000000000e+00 0.0000000000000000e+00  0.0000000000000000e+00 0.0000000000000000e+00 0.0000000000000000e+00  0.0000000000000000e+00 0.0000000000000000e+00 0.0000000000000000e+00  0.0000000000000000e+00 0.0000000000000000e+00 0.0000000000000000e+00  0.0000000000000000e+00 0.0000000000000000e+00 0.0000000000000000e+00  0.0000000000000000e+00 0.0000000000000000e+00 0.0000000000000000e+00  0.0000000000000000e+00 0.0000000000000000e+00 0.0000000000000000e+00  0.0000000000000000e+00 0.0000000000000000e+00 0.0000000000000000e+00  0.0000000000000000e+00 0.0000000000000000e+00 0.0000000000000000e+00  5.9668391019840775e-11 -2.1182010003493657e-10 0.0000000000000000e+00  8.6247707187421886e-11 -3.3891604522188103e-10 0.0000000000000000e+00  1.2371199698972816e-10 -5.1857818503714647e-10 0.0000000000000000e+00  1.4810039104625528e-10 -7.2516950560880664e-10 0.0000000000000000e+00  1.8013497458539824e-10 -9.8126822089997416e-10 0.0000000000000000e+00  1.8873213160940484e-10 -1.3048327522543035e-09 0.0000000000000000e+00  2.2133198917619061e-10 -1.5524005415214677e-09 0.0000000000000000e+00  2.2327038864036493e-10 -1.9931288446336614e-09 0.0000000000000000e+00  2.2826494356953180e-10 -2.3661209979667094e-09 0.0000000000000000e+00  2.4132909902400159e-10 -2.7959358957660013e-09 0.0000000000000000e+00  2.3322953535514615e-10 -3.2465666496021651e-09 0.0000000000000000e+00  2.4049775646446927e-10 -3.7211625609823099e-09 0.0000000000000000e+00  2.1863654369180321e-10 -4.2123813586998141e-09 0.0000000000000000e+00  2.3500183902369376e-10 -4.7284941415968423e-09 0.0000000000000000e+00  2.0594657425725063e-10 -5.2419668822629929e-09 0.0000000000000000e+00  1.9654743443772197e-10 -5.7982426096743542e-09 0.0000000000000000e+00  1.8532766374823007e-10 -6.3399094267238970e-09 0.0000000000000000e+00  1.6422399302532181e-10 -6.9105979603903438e-09 0.0000000000000000e+00  1.4977501668512110e-10 -7.4782948897918391e-09 0.0000000000000000e+00  1.2413762569233527e-10 -8.0549224942143862e-09 0.0000000000000000e+00  1.0644429023676588e-10 -8.6396293989478834e-09 0.0000000000000000e+00  7.3173011387546865e-11 -9.1833815494040927e-09 0.0000000000000000e+00  7.4450978005764823e-11 -9.9356215697297529e-09 0.0000000000000000e+00  2.7477406673866489e-11 -1.0375807044173555e-08 0.0000000000000000e+00  5.9075586408050740e-12 -1.1021074456676514e-08 0.0000000000000000e+00  -1.9605638168028681e-11 -1.1605395423608783e-08 0.0000000000000000e+00  -4.6736354154474106e-11 -1.2226196969487097e-08 0.0000000000000000e+00  -7.3644385723921506e-11 -1.2822377989414024e-08 0.0000000000000000e+00  -1.0157565029980495e-10 -1.3430944796780327e-08 0.0000000000000000e+00  -1.2945435960222925e-10 -1.4042383822943610e-08 0.0000000000000000e+00  -1.5807411870056722e-10 -1.4643701477744050e-08 0.0000000000000000e+00  -1.8658549345417928e-10 -1.5252157335136421e-08 0.0000000000000000e+00  -2.1567356418575049e-10 -1.5866915613902655e-08 0.0000000000000000e+00  -2.4504934925548936e-10 -1.6454985587994747e-08 0.0000000000000000e+00  -2.7444351202691682e-10 -1.7067280824505361e-08 0.0000000000000000e+00  -3.0438827117729330e-10 -1.7662215219601241e-08 0.0000000000000000e+00  -3.3450322163514753e-10 -1.8263403319170583e-08 0.0000000000000000e+00  -3.6503081885252938e-10 -1.8856660566904483e-08 0.0000000000000000e+00  -3.9665896688232082e-10 -1.9429640559589005e-08 0.0000000000000000e+00  -4.2779369936984013e-10 -2.0013489673351431e-08 0.0000000000000000e+00  -4.6720590362719145e-10 -2.0473411102920733e-08 0.0000000000000000e+00  -4.6948562853580261e-10 -2.1641612894037633e-08 0.0000000000000000e+00  -5.3893452540941337e-10 -2.1503715935950675e-08 0.0000000000000000e+00  -5.7546379110935169e-10 -2.2051591374690474e-08 0.0000000000000000e+00  -6.1145488446123539e-10 -2.2752109179899954e-08 0.0000000000000000e+00  -5.6838123194659365e-10 -2.2602227186611148e-08 0.0000000000000000e+00  -1.0341549691617211e-09 -2.3766054793805132e-08 0.0000000000000000e+00  -1.8561774122944509e-09 -2.3145124947522146e-08 0.0000000000000000e+00  -2.2695448907315388e-09 -2.2727180951923062e-08 0.0000000000000000e+00  -2.1652339389562442e-09 -2.2536766735074621e-08 0.0000000000000000e+00  -2.1689667157643626e-09 -2.2156097246308662e-08 0.0000000000000000e+00  -2.1347300645438685e-09 -2.1397812707014229e-08 0.0000000000000000e+00  -2.1359519211228014e-09 -2.1549720526272192e-08 0.0000000000000000e+00  -2.0875595592713075e-09 -2.0387444677280234e-08 0.0000000000000000e+00  -2.0696235640246422e-09 -2.0025545495113757e-08 0.0000000000000000e+00  -2.0404132941614633e-09 -1.9411990578332304e-08 0.0000000000000000e+00  -2.0124504228687271e-09 -1.8825382123050019e-08 0.0000000000000000e+00  -1.9838117024588842e-09 -1.8229966309747605e-08 0.0000000000000000e+00  -1.9549888253213379e-09 -1.7633003001420462e-08 0.0000000000000000e+00  -1.9255869381180344e-09 -1.7028500392354961e-08 0.0000000000000000e+00  -1.8962022969684608e-09 -1.6422640289621504e-08 0.0000000000000000e+00  -1.8661648845273885e-09 -1.5814386523575059e-08 0.0000000000000000e+00  -1.8364673656272197e-09 -1.5205806763109735e-08 0.0000000000000000e+00  -1.8055922249920674e-09 -1.4595849329401025e-08 0.0000000000000000e+00  -1.7756079379143430e-09 -1.3988162258943203e-08 0.0000000000000000e+00  -1.7437141704901030e-09 -1.3378172175317266e-08 0.0000000000000000e+00  -1.7132397257357146e-09 -1.2768139994202713e-08 0.0000000000000000e+00  -1.6800398959720625e-09 -1.2158975508706288e-08 0.0000000000000000e+00  -1.6488444853968907e-09 -1.1550190119010401e-08 0.0000000000000000e+00  -1.6147889267834287e-09 -1.0952710547210034e-08 0.0000000000000000e+00  -1.5763416347550649e-09 -1.0298986886620730e-08 0.0000000000000000e+00  -1.5560214523941978e-09 -9.8421770330317834e-09 0.0000000000000000e+00  -1.5019964677730035e-09 -9.0982614419107919e-09 0.0000000000000000e+00  -1.4707612859677106e-09 -8.5311298235854972e-09 0.0000000000000000e+00  -1.4301394184259494e-09 -7.9574708288202407e-09 0.0000000000000000e+00  -1.3911315110654722e-09 -7.3679257366898927e-09 0.0000000000000000e+00  -1.3472427378402724e-09 -6.8117788865110780e-09 0.0000000000000000e+00  -1.3048374670878520e-09 -6.2389672981192154e-09 0.0000000000000000e+00  -1.2558705042562468e-09 -5.7004873811024034e-09 0.0000000000000000e+00  -1.2067202631756395e-09 -5.1468024281152226e-09 0.0000000000000000e+00  -1.1704676839048839e-09 -4.6404173532568843e-09 0.0000000000000000e+00  -1.0962377697365950e-09 -4.1172981124038277e-09 0.0000000000000000e+00  -1.0477440607938314e-09 -3.6359035580365085e-09 0.0000000000000000e+00  -9.8245728971801337e-10 -3.1583490894874597e-09 0.0000000000000000e+00  -9.2120725034381909e-10 -2.7107591395537577e-09 0.0000000000000000e+00  -8.4679824908332803e-10 -2.2862342573281010e-09 0.0000000000000000e+00  -7.7726697809396632e-10 -1.9014228955450703e-09 0.0000000000000000e+00  -7.0867487273277404e-10 -1.4618298135178969e-09 0.0000000000000000e+00  -6.1169643367867959e-10 -1.2089086142657544e-09 0.0000000000000000e+00  -5.3368124988554917e-10 -8.9714185439615914e-10 0.0000000000000000e+00  -4.3417749559942956e-10 -6.4157165584448267e-10 0.0000000000000000e+00  -3.4125489934177206e-10 -4.1952219256476184e-10 0.0000000000000000e+00  -2.3049875954139265e-10 -2.4666465735713114e-10 0.0000000000000000e+00  -1.2788977167334119e-10 -1.4637835082000728e-10 0.0000000000000000e+00  -6.4981843063081222e-11 -1.0333217360481853e-10 0.0000000000000000e+00  -1.3843715114750636e-09 -2.4103831303890074e-08 0.0000000000000000e+00  -1.3314530750934540e-09 -2.2806476476678427e-08 0.0000000000000000e+00  -1.2461188993299608e-09 -2.0901548250969042e-08 0.0000000000000000e+00  -1.2706783009283937e-10 -4.2404278102581686e-10 0.0000000000000000e+00  -1.1976865245735447e-09 -1.9685555236880336e-08 0.0000000000000000e+00  -1.9615011028030172e-10 -9.2430740579343837e-10 0.0000000000000000e+00  -1.1386625901904542e-09 -1.8427613524598885e-08 0.0000000000000000e+00  -3.0120208294133563e-10 -2.0466517701165952e-09 0.0000000000000000e+00  -3.5673385806411530e-10 -2.9088268400289267e-09 0.0000000000000000e+00  -1.0797169284433599e-09 -1.7166171948957952e-08 0.0000000000000000e+00  -5.2455718472953941e-10 -5.5174806484914799e-09 0.0000000000000000e+00  -9.6177715105801434e-10 -1.4641445859692538e-08 0.0000000000000000e+00  -4.2643277022508818e-10 -3.8456401446305610e-09 0.0000000000000000e+00  -5.7414029341836420e-10 -6.6365701243909155e-09 0.0000000000000000e+00  -9.0274519500193375e-10 -1.3381443773654211e-08 0.0000000000000000e+00  -1.0207630695906489e-09 -1.5903790540731133e-08 0.0000000000000000e+00  -6.3469566585986677e-10 -7.8174453709593607e-09 0.0000000000000000e+00  -8.4363395272347514e-10 -1.2125651689554527e-08 0.0000000000000000e+00  -7.0331238178825228e-10 -8.9732060665550578e-09 0.0000000000000000e+00  -7.7491257690969653e-10 -1.0899494005593527e-08 0.0000000000000000e+00  -7.3597102669346961e-10 -9.9681488391911803e-09 0.0000000000000000e+00  -4.6182419085256980e-10 -4.6296325653234111e-09 0.0000000000000000e+00  -1.3031189648279489e-09 -2.2226533657452016e-08 0.0000000000000000e+00  -2.4069849016497042e-10 -1.3852692276727625e-09 0.0000000000000000e+00  -1.6792482058058428e-09 -2.4015376548357845e-08 0.0000000000000000e+00  -1.6701638132542255e-10 -1.6032698244080251e-10 0.0000000000000000e+00  -1.4233730465721492e-09 -1.9395415802806180e-08 0.0000000000000000e+00  -1.4828901431055804e-09 -2.0697858681000972e-08 0.0000000000000000e+00  -3.9095255062115332e-11 -6.1247930861161184e-10 0.0000000000000000e+00  -1.4728857945586128e-10 -2.4280242487052706e-09 0.0000000000000000e+00  -1.2449970246245388e-09 -1.5497638791006298e-08 0.0000000000000000e+00  -1.3638629571541151e-09 -1.8091690748923756e-08 0.0000000000000000e+00  -3.1114127685549786e-10 -6.1062490072630902e-09 0.0000000000000000e+00  -1.1853040386853910e-09 -1.4205792608565017e-08 0.0000000000000000e+00  -1.9067325749139420e-10 -3.3772373429263933e-09 0.0000000000000000e+00  -3.6351092188782104e-10 -7.2927094046845599e-09 0.0000000000000000e+00  -1.1252072491487481e-09 -1.2919466812851117e-08 0.0000000000000000e+00  -1.3044638320607145e-09 -1.6793005974895471e-08 0.0000000000000000e+00  -3.6550191356061938e-10 -8.5078451796820398e-09 0.0000000000000000e+00  -1.0643144199338217e-09 -1.1638643520635746e-08 0.0000000000000000e+00  -2.4994310997766577e-11 -2.0427050424405681e-11 0.0000000000000000e+00  -4.6049059412349353e-11 1.6053211187009695e-12 0.0000000000000000e+00  -1.2855549229431218e-09 -2.49287244