<?xml version="1.0"?>
<VTKFile type="UnstructuredGrid"  version="0.1"  >
<UnstructuredGrid>
<Piece  NumberOfPoints="1419" NumberOfCells="2698">
<Points>
<DataArray  type="Float64"  NumberOfComponents="3"  format="ascii">0 0 0  0 0.41 0  2.5 0 0  2.5 0.41 0  0.6 0.19 0  0.6 0.21 0  0.25 0.2 0  0.15 0.2 0  0.2489897948556636 0.21 0  0.2489897948556636 0.19 0  0.6 0.2 0  0 0.3807142857143437 0  0 0.3514285714286952 0  0 0.3221428571430699 0  0 0.29285714285744 0  0 0.2635714285718054 0  0 0.2342857142861561 0  0 0.2050000000005308 0  0 0.175714285714732 0  0 0.1464285714289574 0  0 0.1171428571431897 0  0 0.08785714285737878 0  0 0.05857142857161107 0  0 0.02928571428580012 0  0.03015443760436003 0 0  0.06140001986583606 0 0  0.09377624077125973 0 0  0.1273239957535082 0 0  0.1620856860351972 0 0  0.1981052433264291 0 0  0.235428184091502 0 0  0.2741016576309132 0 0  0.3141745521465447 0 0  0.3556974926295285 0 0  0.3987229542472677 0 0  0.4433053055141081 0 0  0.4895008759286886 0 0  0.5373680609405097 0 0  0.5869673343216626 0 0  0.6383613676634521 0 0  0.6916151138468254 0 0  0.7467958595648856 0 0  0.8039733463919316 0 0  0.8632198139502143 0 0  0.9246101326867038 0 0  0.9882218810934433 0 0  1.054135445558498 0 0  1.122434100542598 0 0  1.193204177141305 0 0  1.266535089879536 0 0  1.342519516046404 0 0  1.421253448503939 0 0  1.502836389106271 0 0  1.587371439758838 0 0  1.674965418777374 0 0  1.765729001825544 0 0  1.859776908880082 0 0  1.957227977487062 0 0  2.058205329869943 0 0  2.162836591189951 0 0  2.271253957290865 0 0  2.383594446803425 0 0  2.5 0.1024999999997612 0  2.5 0.2049999999994743 0  2.5 0.3074999999997183 0  2.383594446803656 0.41 0  2.271253957291315 0.41 0  2.162836591190598 0.41 0  2.058205329870775 0.41 0  1.957227977488067 0.41 0  1.859776908881246 0.41 0  1.765729001826854 0.41 0  1.674965418778818 0.41 0  1.58737143976041 0.41 0  1.502836389107956 0.41 0  1.421253448505726 0.41 0  1.342519516048286 0.41 0  1.266535089881505 0.41 0  1.193204177143353 0.41 0  1.122434100544716 0.41 0  1.05413544556068 0.41 0  0.9882218810956305 0.41 0  0.9246101326886647 0.41 0  0.8632198139519631 0.41 0  0.8039733463934788 0.41 0  0.7467958595662458 0.41 0  0.6916151138480078 0.41 0  0.6383613676644679 0.41 0  0.5869673343225223 0.41 0  0.5373680609412221 0.41 0  0.4895008759292634 0.41 0  0.4433053055145528 0.41 0  0.3987229542475914 0.41 0  0.3556974926297398 0.41 0  0.3141745521466497 0.41 0  0.2741016576310038 0.41 0  0.2354281840915826 0.41 0  0.1981052433265003 0.41 0  0.1620856860352591 0.41 0  0.1273239957535623 0.41 0  0.09377624077128965 0.41 0  0.06140001986584975 0.41 0  0.03015443760436654 0.41 0  0.2497468076502589 0.2050254481002335 0  0.2497468076502614 0.1949745518997913 0  0.2469965252529372 0.1829317073451959 0  0.2439893735792749 0.1762316384219906 0  0.2400332147834255 0.1700443375285386 0  0.2352133972704371 0.1645032867342007 0  0.2296339016332438 0.1597280261969788 0  0.2234150974217223 0.1558215752574715 0  0.2166911463437691 0.1528682099456123 0  0.2096071079204251 0.1509316448471593 0  0.2023158100364996 0.1500536585536553 0  0.194974551899914 0.1502531923497262 0  0.1877417105387872 0.1515259415822739 0  0.1807733240461124 0.153844448527136 0  0.1742197252835808 0.15715869474974 0  0.1682222986673531 0.1613971801805478 0  0.162910430003803 0.1664684656256651 0  0.1583987151779087 0.1722631454351573 0  0.1547844879126891 0.178656207771761 0  0.1521457199348551 0.1855097315605723 0  0.1505393388476355 0.1926758619366523 0  0.1505393388476328 0.2073241380633295 0  0.1521457199348437 0.2144902684393899 0  0.1547844879126531 0.221343792228163 0  0.1583987151778488 0.2277368545647528 0  0.1629104300036858 0.2335315343742052 0  0.1682222986671726 0.2386028198193036 0  0.1742197252833576 0.2428413052501257 0  0.1807733240458683 0.2461555514727623 0  0.1877417105384929 0.2484740584176516 0  0.1949745518995776 0.2497468076502398 0  0.202315810036185 0.2499463414463592 0  0.2096071079201568 0.2490683551528932 0  0.2166911463435495 0.2471317900544655 0  0.2234150974215506 0.2441784247426195 0  0.2296339016331197 0.2402719738031125 0  0.2352133972703547 0.2354967132658811 0  0.2400332147833751 0.2299556624715287 0  0.2439893735792577 0.2237683615780412 0  0.246996525252926 0.2170682926548348 0  0.25645809709277 0.21 0  0.2639263993298655 0.21 0  0.271394701566961 0.21 0  0.2788630038040554 0.21 0  0.2863313060411479 0.21 0  0.2937996082782405 0.21 0  0.301267910515333 0.21 0  0.3087362127524279 0.21 0  0.3162045149895234 0.21 0  0.3236728172265972 0.21 0  0.3311411194636928 0.21 0  0.3386094217007701 0.21 0  0.3460777239378666 0.21 0  0.3535460261749672 0.21 0  0.3610143284120516 0.21 0  0.3684826306491596 0.21 0  0.3759509328862226 0.21 0  0.383419235123329 0.21 0  0.3908875373604028 0.21 0  0.3983558395975142 0.21 0  0.4058241418345938 0.21 0  0.4132924440716992 0.21 0  0.4207607463087888 0.21 0  0.4282290485459029 0.21 0  0.4356973507830418 0.21 0  0.4431656530201649 0.21 0  0.4506339552573136 0.21 0  0.4581022574944306 0.21 0  0.4655705597315852 0.21 0  0.4730388619686996 0.21 0  0.480507164205851 0.21 0  0.4879754664429498 0.21 0  0.4954437686800938 0.21 0  0.502912070917267 0.21 0  0.5103803731544119 0.21 0  0.5178486753915261 0.21 0  0.5253169776286404 0.21 0  0.5327852798657868 0.21 0  0.5402535821029386 0.21 0  0.54772188434007 0.21 0  0.5551901865771842 0.21 0  0.5626584888143201 0.21 0  0.5701267910514778 0.21 0  0.5775950932886138 0.21 0  0.5850633955257281 0.21 0  0.5925316977628483 0.21 0  0.6 0.2050000000000054 0  0.6 0.1950000000000217 0  0.5925316977628897 0.19 0  0.5850633955257988 0.19 0  0.5775950932887378 0.19 0  0.5701267910515998 0.19 0  0.5626584888145268 0.19 0  0.5551901865773963 0.19 0  0.547721884340339 0.19 0  0.5402535821032429 0.19 0  0.5327852798661811 0.19 0  0.5253169776290537 0.19 0  0.5178486753919799 0.19 0  0.5103803731549078 0.19 0  0.502912070917822 0.19 0  0.4954437686807294 0.19 0  0.4879754664436223 0.19 0  0.4805071642065402 0.19 0  0.4730388619694271 0.19 0  0.4655705597323621 0.19 0  0.4581022574952563 0.19 0  0.4506339552581777 0.19 0  0.4431656530210671 0.19 0  0.4356973507839815 0.19 0  0.4282290485468779 0.19 0  0.4207607463097617 0.19 0  0.4132924440726327 0.19 0  0.4058241418354857 0.19 0  0.3983558395983636 0.19 0  0.3908875373612097 0.19 0  0.3834192351240934 0.19 0  0.3759509328869369 0.19 0  0.3684826306498175 0.19 0  0.361014328412667 0.19 0  0.3535460261755617 0.19 0  0.3460777239384295 0.19 0  0.3386094217012945 0.19 0  0.3311411194641595 0.19 0  0.3236728172270245 0.19 0  0.3162045149898895 0.19 0  0.3087362127527544 0.19 0  0.3012679105156187 0.19 0  0.2937996082784807 0.19 0  0.2863313060413428 0.19 0  0.2788630038042048 0.19 0  0.2713947015670686 0.19 0  0.2639263993299336 0.19 0  0.2564580970927985 0.19 0  0.2607803159922026 0.2000727136295815 0  0.5887803774232762 0.2001272386983733 0  0.5745072403740523 0.2002044435018727 0  0.5511891430099709 0.2001122610077113 0  0.2751288526855082 0.20000000000002 0  0.5365194309847112 0.1999999999999436 0  0.2894621222999649 0.1998691686390484 0  0.5215828265105155 0.1999999999999228 0  0.3127789816668748 0.1998657885438805 0  0.3274069683451451 0.2000000000000796 0  0.5066462220363641 0.199999999999908 0  0.3650630746574081 0.199866017807523 0  0.476773013087985 0.1999999999998713 0  0.3417402379596385 0.1998691686391011 0  0.3796850840047755 0.200000000000134 0  0.4618364086138087 0.1999999999998546 0  0.4917096175621762 0.1999999999998808 0  0.3946216884789568 0.2000000000001512 0  0.446899804139621 0.1999999999998389 0  0.4089549580935208 0.1998691686391595 0  0.4322718174608562 0.200127451265745 0  0.4201487168029707 0.1999966199048527 0  0.3528922713220932 0.2000185703532356 0  0.5633122436674589 0.1999814296467508 0  0.3006558810093873 0.1999966199048318 0  0.5815926498168407 0.1966545283159175 0  0.2677053789419034 0.1964246479135325 0  0.5290511287476175 0.1970915826863981 0  0.5439877332217911 0.197091582686394 0  0.2825131256993216 0.2035478995978015 0  0.3199386661080599 0.202908417313604 0  0.4842413153250809 0.1970915826863873 0  0.5141145242734466 0.1970915826863843 0  0.3722167817676917 0.2029084173136195 0  0.4693047108508938 0.1970915826863783 0  0.3348752705822316 0.202908417313609 0  0.3871533862418661 0.2029084173136212 0  0.4543681063767183 0.1970915826863795 0  0.4991779197992749 0.1970915826863902 0  0.4020059614928624 0.203547899597858 0  0.4394315019025246 0.1970915826863714 0  0.2550657455369551 0.2034088125358657 0  0.2548908499171161 0.1966940311614271 0  0.5946539510196798 0.2024302972968126 0  0.267698176732111 0.2039977513680092 0  0.4261685417851465 0.196409292431739 0  0.3590076176283495 0.196411355804271 0  0.5571672426447437 0.2036011176410121 0  0.3066757059912147 0.1964092924317024 0  0.594380730180568 0.1966558399668133 0  0.4842413153245942 0.2040749161535287 0  0.4693047108503577 0.2040749161535231 0  0.3871533862424271 0.1959250838464788 0  0.372246743208829 0.1959123236376545 0  0.5141145242731028 0.2040749161535395 0  0.4543681063761134 0.2040749161535186 0  0.4019979587101454 0.1959834479682427 0  0.4394608940728603 0.2040870543693135 0  0.5439623148931173 0.2040856076781014 0  0.5290511287473298 0.2040749161535501 0  0.4991779197988497 0.2040749161535382 0  0.3347912413592433 0.1959225448935183 0  0.3199680582793816 0.1959123018030061 0  0.2825051229162361 0.1959834479681729 0  0.3590471196690275 0.2036304442587945 0  0.5571594006495384 0.1963685282145804 0  0.3067669986803285 0.203627750582736 0  0.4262598344738712 0.2036568242185335 0  0.5814408164431408 0.2041285596160068 0  0.5688286748170428 0.1961819304477386 0  0.4145905603063645 0.2038180695522843 0  0.3473758401724931 0.2038180695522752 0  0.2950977245128307 0.2038180695522663 0  0.5688286748170693 0.203818069552238 0  0.2950977245127906 0.1961819304477774 0  0.3473758401723931 0.1961819304478349 0  0.4145905603061963 0.1961819304479011 0  0.2601812407614425 0.2056861609747042
[...]
<PointData  Vectors="f_40-0"> 
<DataArray  type="Float64"  Name="f_40-0"  NumberOfComponents="3" format="ascii">0.0000000000000000e+00 0.0000000000000000e+00 0.0000000000000000e+00  0.0000000000000000e+00 0.0000000000000000e+00 0.0000000000000000e+00  0.0000000000000000e+00 0.0000000000000000e+00 0.0000000000000000e+00  0.0000000000000000e+00 0.0000000000000000e+00 0.0000000000000000e+00  3.2605732327228156e-06 1.1979294732504996e-04 0.0000000000000000e+00  -5.4769642924127302e-06 1.1970931349792380e-04 0.0000000000000000e+00  0.0000000000000000e+00 0.0000000000000000e+00 0.0000000000000000e+00  0.0000000000000000e+00 0.0000000000000000e+00 0.0000000000000000e+00  0.0000000000000000e+00 0.0000000000000000e+00 0.0000000000000000e+00  0.0000000000000000e+00 0.0000000000000000e+00 0.0000000000000000e+00  -1.1081465975374796e-06 1.1973639758038506e-04 0.0000000000000000e+00  7.9591836734548405e-01 0.0000000000000000e+00 0.0000000000000000e+00  1.4693877550994523e+00 0.0000000000000000e+00 0.0000000000000000e+00  2.0204081632617479e+00 0.0000000000000000e+00 0.0000000000000000e+00  2.4489795918330071e+00 0.0000000000000000e+00 0.0000000000000000e+00  2.7551020408131754e+00 0.0000000000000000e+00 0.0000000000000000e+00  2.9387755102022344e+00 0.0000000000000000e+00 0.0000000000000000e+00  3.0000000000000004e+00 0.0000000000000000e+00 0.0000000000000000e+00  2.9387755102059474e+00 0.0000000000000000e+00 0.0000000000000000e+00  2.7551020408195543e+00 0.0000000000000000e+00 0.0000000000000000e+00  2.4489795918409065e+00 0.0000000000000000e+00 0.0000000000000000e+00  2.0204081632692521e+00 0.0000000000000000e+00 0.0000000000000000e+00  1.4693877551058563e+00 0.0000000000000000e+00 0.0000000000000000e+00  7.9591836734909216e-01 0.0000000000000000e+00 0.0000000000000000e+00  0.0000000000000000e+00 0.0000000000000000e+00 0.0000000000000000e+00  0.0000000000000000e+00 0.0000000000000000e+00 0.0000000000000000e+00  0.0000000000000000e+00 0.0000000000000000e+00 0.0000000000000000e+00  0.0000000000000000e+00 0.0000000000000000e+00 0.0000000000000000e+00  0.0000000000000000e+00 0.0000000000000000e+00 0.0000000000000000e+00  0.0000000000000000e+00 0.0000000000000000e+00 0.0000000000000000e+00  0.0000000000000000e+00 0.0000000000000000e+00 0.0000000000000000e+00  0.0000000000000000e+00 0.0000000000000000e+00 0.0000000000000000e+00  0.0000000000000000e+00 0.0000000000000000e+00 0.0000000000000000e+00  0.0000000000000000e+00 0.0000000000000000e+00 0.0000000000000000e+00  0.0000000000000000e+00 0.0000000000000000e+00 0.0000000000000000e+00  0.0000000000000000e+00 0.0000000000000000e+00 0.0000000000000000e+00  0.0000000000000000e+00 0.0000000000000000e+00 0.0000000000000000e+00  0.0000000000000000e+00 0.0000000000000000e+00 0.0000000000000000e+00  0.0000000000000000e+00 0.0000000000000000e+00 0.0000000000000000e+00  0.0000000000000000e+00 0.0000000000000000e+00 0.0000000000000000e+00  0.0000000000000000e+00 0.0000000000000000e+00 0.0000000000000000e+00  0.0000000000000000e+00 0.0000000000000000e+00 0.0000000000000000e+00  0.0000000000000000e+00 0.0000000000000000e+00 0.0000000000000000e+00  0.0000000000000000e+00 0.0000000000000000e+00 0.0000000000000000e+00  0.0000000000000000e+00 0.0000000000000000e+00 0.0000000000000000e+00  0.0000000000000000e+00 0.0000000000000000e+00 0.0000000000000000e+00  0.0000000000000000e+00 0.0000000000000000e+00 0.0000000000000000e+00  0.0000000000000000e+00 0.0000000000000000e+00 0.0000000000000000e+00  0.0000000000000000e+00 0.0000000000000000e+00 0.0000000000000000e+00  0.0000000000000000e+00 0.0000000000000000e+00 0.0000000000000000e+00  0.0000000000000000e+00 0.0000000000000000e+00 0.0000000000000000e+00  0.0000000000000000e+00 0.0000000000000000e+00 0.0000000000000000e+00  0.0000000000000000e+00 0.0000000000000000e+00 0.0000000000000000e+00  0.0000000000000000e+00 0.0000000000000000e+00 0.0000000000000000e+00  0.0000000000000000e+00 0.0000000000000000e+00 0.0000000000000000e+00  0.0000000000000000e+00 0.0000000000000000e+00 0.0000000000000000e+00  0.0000000000000000e+00 0.0000000000000000e+00 0.0000000000000000e+00  0.0000000000000000e+00 0.0000000000000000e+00 0.0000000000000000e+00  0.0000000000000000e+00 0.0000000000000000e+00 0.0000000000000000e+00  0.0000000000000000e+00 0.0000000000000000e+00 0.0000000000000000e+00  0.0000000000000000e+00 0.0000000000000000e+00 0.0000000000000000e+00  0.0000000000000000e+00 0.0000000000000000e+00 0.0000000000000000e+00  2.6649084760848218e+00 1.2371729056437887e-02 0.0000000000000000e+00  2.3351934651421096e+00 1.4477953120352877e-02 0.0000000000000000e+00  2.8214314748111025e+00 6.5322782950867353e-02 0.0000000000000000e+00  0.0000000000000000e+00 0.0000000000000000e+00 0.0000000000000000e+00  0.0000000000000000e+00 0.0000000000000000e+00 0.0000000000000000e+00  0.0000000000000000e+00 0.0000000000000000e+00 0.0000000000000000e+00  0.0000000000000000e+00 0.0000000000000000e+00 0.0000000000000000e+00  0.0000000000000000e+00 0.0000000000000000e+00 0.0000000000000000e+00  0.0000000000000000e+00 0.0000000000000000e+00 0.0000000000000000e+00  0.0000000000000000e+00 0.0000000000000000e+00 0.0000000000000000e+00  0.0000000000000000e+00 0.0000000000000000e+00 0.0000000000000000e+00  0.0000000000000000e+00 0.0000000000000000e+00 0.0000000000000000e+00  0.0000000000000000e+00 0.0000000000000000e+00 0.0000000000000000e+00  0.0000000000000000e+00 0.0000000000000000e+00 0.0000000000000000e+00  0.0000000000000000e+00 0.0000000000000000e+00 0.0000000000000000e+00  0.0000000000000000e+00 0.0000000000000000e+00 0.0000000000000000e+00  0.0000000000000000e+00 0.0000000000000000e+00 0.0000000000000000e+00  0.0000000000000000e+00 0.0000000000000000e+00 0.0000000000000000e+00  0.0000000000000000e+00 0.0000000000000000e+00 0.0000000000000000e+00  0.0000000000000000e+00 0.0000000000000000e+00 0.0000000000000000e+00  0.0000000000000000e+00 0.0000000000000000e+00 0.0000000000000000e+00  0.0000000000000000e+00 0.0000000000000000e+00 0.0000000000000000e+00  0.0000000000000000e+00 0.0000000000000000e+00 0.0000000000000000e+00  0.0000000000000000e+00 0.0000000000000000e+00 0.0000000000000000e+00  0.0000000000000000e+00 0.0000000000000000e+00 0.0000000000000000e+00  0.0000000000000000e+00 0.0000000000000000e+00 0.0000000000000000e+00  0.0000000000000000e+00 0.0000000000000000e+00 0.0000000000000000e+00  0.0000000000000000e+00 0.0000000000000000e+00 0.0000000000000000e+00  0.0000000000000000e+00 0.0000000000000000e+00 0.0000000000000000e+00  0.0000000000000000e+00 0.0000000000000000e+00 0.0000000000000000e+00  0.0000000000000000e+00 0.0000000000000000e+00 0.0000000000000000e+00  0.0000000000000000e+00 0.0000000000000000e+00 0.0000000000000000e+00  0.0000000000000000e+00 0.0000000000000000e+00 0.0000000000000000e+00  0.0000000000000000e+00 0.0000000000000000e+00 0.0000000000000000e+00  0.0000000000000000e+00 0.0000000000000000e+00 0.0000000000000000e+00  0.0000000000000000e+00 0.0000000000000000e+00 0.0000000000000000e+00  0.0000000000000000e+00 0.0000000000000000e+00 0.0000000000000000e+00  0.0000000000000000e+00 0.0000000000000000e+00 0.0000000000000000e+00  0.0000000000000000e+00 0.0000000000000000e+00 0.0000000000000000e+00  0.0000000000000000e+00 0.0000000000000000e+00 0.0000000000000000e+00  0.0000000000000000e+00 0.0000000000000000e+00 0.0000000000000000e+00  0.0000000000000000e+00 0.0000000000000000e+00 0.0000000000000000e+00  0.0000000000000000e+00 0.0000000000000000e+00 0.0000000000000000e+00  0.0000000000000000e+00 0.0000000000000000e+00 0.0000000000000000e+00  0.0000000000000000e+00 0.0000000000000000e+00 0.0000000000000000e+00  0.0000000000000000e+00 0.0000000000000000e+00 0.0000000000000000e+00  0.0000000000000000e+00 0.0000000000000000e+00 0.0000000000000000e+00  0.0000000000000000e+00 0.0000000000000000e+00 0.0000000000000000e+00  0.0000000000000000e+00 0.0000000000000000e+00 0.0000000000000000e+00  0.0000000000000000e+00 0.0000000000000000e+00 0.0000000000000000e+00  0.0000000000000000e+00 0.0000000000000000e+00 0.0000000000000000e+00  0.0000000000000000e+00 0.0000000000000000e+00 0.0000000000000000e+00  0.0000000000000000e+00 0.0000000000000000e+00 0.0000000000000000e+00  0.0000000000000000e+00 0.0000000000000000e+00 0.0000000000000000e+00  0.0000000000000000e+00 0.0000000000000000e+00 0.0000000000000000e+00  0.0000000000000000e+00 0.0000000000000000e+00 0.0000000000000000e+00  0.0000000000000000e+00 0.0000000000000000e+00 0.0000000000000000e+00  0.0000000000000000e+00 0.0000000000000000e+00 0.0000000000000000e+00  0.0000000000000000e+00 0.0000000000000000e+00 0.0000000000000000e+00  0.0000000000000000e+00 0.0000000000000000e+00 0.0000000000000000e+00  0.0000000000000000e+00 0.0000000000000000e+00 0.0000000000000000e+00  0.0000000000000000e+00 0.0000000000000000e+00 0.0000000000000000e+00  0.0000000000000000e+00 0.0000000000000000e+00 0.0000000000000000e+00  0.0000000000000000e+00 0.0000000000000000e+00 0.0000000000000000e+00  0.0000000000000000e+00 0.0000000000000000e+00 0.0000000000000000e+00  0.0000000000000000e+00 0.0000000000000000e+00 0.0000000000000000e+00  0.0000000000000000e+00 0.0000000000000000e+00 0.0000000000000000e+00  0.0000000000000000e+00 0.0000000000000000e+00 0.0000000000000000e+00  0.0000000000000000e+00 0.0000000000000000e+00 0.0000000000000000e+00  0.0000000000000000e+00 0.0000000000000000e+00 0.0000000000000000e+00  0.0000000000000000e+00 0.0000000000000000e+00 0.0000000000000000e+00  0.0000000000000000e+00 0.0000000000000000e+00 0.0000000000000000e+00  0.0000000000000000e+00 0.0000000000000000e+00 0.0000000000000000e+00  0.0000000000000000e+00 0.0000000000000000e+00 0.0000000000000000e+00  0.0000000000000000e+00 0.0000000000000000e+00 0.0000000000000000e+00  0.0000000000000000e+00 0.0000000000000000e+00 0.0000000000000000e+00  0.0000000000000000e+00 0.0000000000000000e+00 0.0000000000000000e+00  0.0000000000000000e+00 0.0000000000000000e+00 0.0000000000000000e+00  0.0000000000000000e+00 0.0000000000000000e+00 0.0000000000000000e+00  0.0000000000000000e+00 0.0000000000000000e+00 0.0000000000000000e+00  0.0000000000000000e+00 0.0000000000000000e+00 0.0000000000000000e+00  -2.9039613715548626e-07 2.2313639464904468e-07 0.0000000000000000e+00  -6.1503156911854342e-07 5.6861923012746398e-07 0.0000000000000000e+00  -8.9576119282671443e-07 1.1299886112983839e-06 0.0000000000000000e+00  -1.1956467307987984e-06 1.9175340472068872e-06 0.0000000000000000e+00  -1.4417543509376239e-06 2.8891887548690569e-06 0.0000000000000000e+00  -1.7185333873870723e-06 4.0606558737693789e-06 0.0000000000000000e+00  -1.9377659063013490e-06 5.3779453774579589e-06 0.0000000000000000e+00  -2.1481317359121544e-06 6.8841735263345001e-06 0.0000000000000000e+00  -2.3875151797881109e-06 8.5310464082503625e-06 0.0000000000000000e+00  -2.5674361672067974e-06 1.0322406007552950e-05 0.0000000000000000e+00  -2.7845642970157539e-06 1.2253277423219333e-05 0.0000000000000000e+00  -2.9460351748503852e-06 1.4310132236114547e-05 0.0000000000000000e+00  -3.1339418852836692e-06 1.6486545226910361e-05 0.0000000000000000e+00  -3.2822287956860527e-06 1.8758214196513732e-05 0.0000000000000000e+00  -3.4242297619746919e-06 2.1145484143418828e-05 0.0000000000000000e+00  -3.5821195591275601e-06 2.3617567622427689e-05 0.0000000000000000e+00  -3.7025575018161872e-06 2.6175951832129451e-05 0.0000000000000000e+00  -3.8425947286707440e-06 2.8816218749199476e-05 0.0000000000000000e+00  -3.9485363730776256e-06 3.1528051868779034e-05 0.0000000000000000e+00  -4.0690734002834602e-06 3.4305477287233754e-05 0.0000000000000000e+00  -4.1661544533330126e-06 3.7144576207947094e-05 0.0000000000000000e+00  -4.2696645966801673e-06 4.0041288577392056e-05 0.0000000000000000e+00  -4.3543901200189015e-06 4.2978949838765462e-05 0.0000000000000000e+00  -4.4345961621828390e-06 4.5968653586406958e-05 0.0000000000000000e+00  -4.5191081850633454e-06 4.8991707498770919e-05 0.0000000000000000e+00  -4.5908464398227821e-06 5.2053401965609044e-05 0.0000000000000000e+00  -4.6610357123848180e-06 5.5147076442426078e-05 0.0000000000000000e+00  -4.7239360430618141e-06 5.8266510118377113e-05 0.0000000000000000e+00  -4.7850471125256345e-06 6.1411804101510202e-05 0.0000000000000000e+00  -4.8402807351344234e-06 6.4576413889620371e-05 0.0000000000000000e+00  -4.8937537063634805e-06 6.7760674889306768e-05 0.0000000000000000e+00  -4.9425019531940208e-06 7.0959020023533866e-05 0.0000000000000000e+00  -4.9896309460159173e-06 7.4171723407298330e-05 0.0000000000000000e+00  -5.0330569793016344e-06 7.7394300290099981e-05 0.0000000000000000e+00  -5.0750457252857909e-06 8.0626928904111234e-05 0.0000000000000000e+00  -5.1142176525120824e-06 8.3866092189983484e-05 0.0000000000000000e+00  -5.1521775018697377e-06 8.7111966338155830e-05 0.0000000000000000e+00  -5.1880877950224331e-06 9.0361838658988431e-05 0.0000000000000000e+00  -5.2230264265833022e-06 9.3615879012888658e-05 0.0000000000000000e+00  -5.2565474748139246e-06 9.6872083908809795e-05 0.0000000000000000e+00  -5.2894046937955508e-06 1.0013083397283668e-04 0.0000000000000000e+00  -5.3212230423819766e-06 1.0338976769305760e-04 0.0000000000000000e+00  -5.3525244942223522e-06 1.0665104139455760e-04 0.0000000000000000e+00  -5.3835777015432657e-06 1.0991201330432894e-04 0.0000000000000000e+00  -5.4141683260801279e-06 1.1317308332759722e-04 0.0000000000000000e+00  -5.4445100937821174e-06 1.1643508835813464e-04 0.0000000000000000e+00  -3.2914276107991836e-06 1.1971591873870813e-04 0.0000000000000000e+00  1.0750909727843442e-06 1.1975673207402030e-04 0.0000000000000000e+00  3.2885101267014640e-06 1.1651559227739621e-04 0.0000000000000000e+00  3.3186901633751328e-06 1.1325393540865630e-04 0.0000000000000000e+00  3.3485788508776716e-06 1.0999251184098821e-04 0.0000000000000000e+00  3.3780355263513040e-06 1.0673169645562362e-04 0.0000000000000000e+00  3.4072323984284659e-06 1.0347036620560899e-04 0.0000000000000000e+00  3.4359138169838187e-06 1.0021134649710673e-04 0.0000000000000000e+00  3.4634344512614133e-06 9.6952625270870470e-05 0.0000000000000000e+00  3.4907084594474335e-06 9.3696258692252561e-05 0.0000000000000000e+00  3.5157876656090208e-06 9.0442241102325942e-05 0.0000000000000000e+00  3.5408943850773808e-06 8.7192190491961616e-05 0.0000000000000000e+00  3.5626027784107001e-06 8.3946312756066676e-05 0.0000000000000000e+00  3.5846462252655548e-06 8.0706880184995970e-05 0.0000000000000000e+00  3.6017678568403484e-06 7.7474182494361078e-05 0.0000000000000000e+00  3.6197427400430948e-06 7.4251222950503224e-05 0.0000000000000000e+00  3.6309041615415742e-06 7.1038372216739317e-05 0.0000000000000000e+00  3.6436697216890479e-06 6.7839463617566848e-05 0.0000000000000000e+00  3.6473410285919998e-06 6.4654942934434237e-05 0.0000000000000000e+00  3.6536368368823346e-06 6.1489546861718297e-05 0.0000000000000000e+00  3.6481133479688563e-06 5.8343801351709579e-05 0.0000000000000000e+00  3.6465403383366665e-06 5.5223333292384295e-05 0.0000000000000000e+00  3.6296582542867479e-06 5.2129041717041742e-05 0.0000000000000000e+00  3.6182882819182429e-06 4.9067628367297434e-05 0.0000000000000000e+00  3.5887545625644920e-06 4.6041157317600307e-05 0.0000000000000000e+00  3.5636519172752449e-06 4.3051011725346705e-05 0.0000000000000000e+00  3.5325973063085991e-06 4.0112622537646282e-05 0.0000000000000000e+00  3.4833798318100712e-06 3.7212810962024647e-05 0.0000000000000000e+00  3.4349524879920965e-06 3.4374656672707801e-05 0.0000000000000000e+00  3.3708868622083622e-06 3.1591983327078634e-05 0.0000000000000000e+00  3.3051498007927671e-06 2.8879905586405132e-05 0.0000000000000000e+00  3.2228548094372608e-06 2.6236535343142606e-05 0.0000000000000000e+00  3.1387143346750796e-06 2.3672767690422293e-05 0.0000000000000000e+00  3.0260997835204322e-06 2.1203388784018929e-05 0.0000000000000000e+00  2.9262544365040593e-06 1.8812441955050148e-05 0.0000000000000000e+00  2.8169708060630799e-06 1.6539935355191780e-05 0.0000000000000000e+00  2.6721703827973197e-06 1.4352847205944902e-05 0.0000000000000000e+00  2.5316707929749698e-06 1.2298104747023058e-05 0.0000000000000000e+00  2.3655531604779550e-06 1.0362794261306375e-05 0.0000000000000000e+00  2.2003657624282118e-06 8.5631484524619974e-06 0.0000000000000000e+00  1.9918532165386486e-06 6.9218538920070403e-06 0.0000000000000000e+00  1.8071649171074691e-06 5.4105717716765147e-06 0.0000000000000000e+00  1.6113535993485626e-06 4.0912821137915183e-06 0.0000000000000000e+00  1.3606543204905945e-06 2.9116315603518705e-06 0.0000000000000000e+00  1.1262292915459047e-06 1.9354417270622323e-06 0.0000000000000000e+00  8.4258402094391958e-07 1.1570671181760997e-06 0.0000000000000000e+00  5.8457218571856630e-07 5.9055898042655009e-07 0.0000000000000000e+00  2.7632060552808470e-07 2.3931872190435730e-07 0.0000000000000000e+00  -1.6388055665933622e-08 2.4817851223750454e-07 0.0000000000000000e+00  -1.1182696487151463e-06 1.1483487122876167e-04 0.0000000000000000e+00  -1.0942095479998327e-06 1.0860179266757021e-04 0.0000000000000000e+00  -9.5945774090225049e-07 9.8422604212501714e-05 0.0000000000000000e+00  -2.7249587444970289e-08 1.3758095880242388e-06 0.0000000000000000e+00  -8.5110729695641888e-07 9.2025821622657389e-05 0.0000000000000000e+00  -2.7021902705704227e-08 3.2473671883380509e-06 0.0000000000000000e+00  -7.9064202114145023e-07 8.5524253429913221e-05 0.0000000000000000e+00  -5.4124756591766352e-08 7.6753118820752518e-06 0.0000000000000000e+00  -1.1322093259351794e-07 1.1208143928976161e-05 0.0000000000000000e+00  -7.3030853503511646e-07 7.9043427113270379e-05 0.0000000000000000e+00  -1.6522096352032923e-07 2.2443083081745048e-05 0.0000000000000000e+00  -6.1054666464535344e-07 6.6194132931713987e-05 0.0000000000000000e+00  -1.0910552886392227e-07 1.5154615870652651e-05 0.0000000000000000e+00  -2.5423797828567198e-07 2.7467992684644663e-05 0.0000000000000000e+00  -5.5153890880467054e-07 5.9859702345390028e-05 0.0000000000000000e+00  -6.7021553278466683e-07 7.2595011885397186e-05 0.0000000000000000e+00  -3.0311019229316459e-07 3.2899936599678447e-05 0.0000000000000000e+00  -4.9330904235060471e-07 5.3614788398343645e-05 0.0000000000000000e+00  -3.0211394252672241e-07 3.8351236001277161e-05 0.0000000000000000e+00  -4.8925628587856920e-07 4.7611670888362431e-05 0.0000000000000000e+00  -3.9172044652033376e-07 4.2750051230048424e-05 0.0000000000000000e+00  -1.8130576814437687e-07 1.8532674220872178e-05 0.0000000000000000e+00  -9.5149399069858177e-07 1.0371442651806254e-04 0.0000000000000000e+00  -6.1543585373055070e-08 5.1993442345573821e-06 0.0000000000000000e+00  4.2702618530516205e-07 1.1170961205854954e-04 0.0000000000000000e+00  2.4476196124779043e-07 7.2399824460573587e-07 0.0000000000000000e+00  4.4392228322343087e-07 8.8784834279978633e-05 0.0000000000000000e+00  3.8612492934712390e-07 9.5293166701132672e-05 0.0000000000000000e+00  -4.8560667138273873e-07 2.2701480513598687e-06 0.0000000000000000e+00  -7.9126085222727908e-07 9.3442020030285848e-06 0.0000000000000000e+00  6.0349401638819268e-07 6.9400198371601107e-05 0.0000000000000000e+00  4.9988679174188484e-07 8.2292628221693502e-05 0.0000000000000000e+00  -1.2237829500677510e-06 2.4860573567334482e-05 0.0000000000000000e+00  6.4937812418357145e-07 6.3030309618436857e-05 0.0000000000000000e+00  -9.2155695386211946e-07 1.3213234146279660e-05 0.0000000000000000e+00  -1.3290589003714177e-06 3.0146604467876976e-05 0.0000000000000000e+00  6.8997260549423526e-07 5.6737843334559124e-05 0.0000000000000000e+00  5.5334861200430495e-07 7.5826632298187606e-05 0.0000000000000000e+00  -1.6700591070703405e-06 3.5676051255177073e-05 0.0000000000000000e+00  7.2465226233066871e-07 5.0548102100242972e-05 0.0000000000000000e+00  -5.7348381570148422e-08 5.2469362106655207e-08 0.0000000000000000e+00  3.6581046498591409e-08 5.1548153286591240e-08 0.0000000000000000e+00  -2.1477441690355574e-06 1.1739016446361868e-04 0.0000000000000000e+00  -3.1452943829205704e-07 7.1576760824434266e-07 0.0000000000000000e+00  1.0220249751961794e-06 4.5165802939190145e-05 0.0000000000000000e