<?xml version="1.0"?>
<VTKFile type="UnstructuredGrid"  version="0.1"  >
<UnstructuredGrid>
<Piece  NumberOfPoints="1419" NumberOfCells="2698">
<Points>
<DataArray  type="Float64"  NumberOfComponents="3"  format="ascii">0 0 0  0 0.41 0  2.5 0 0  2.5 0.41 0  0.6 0.19 0  0.6 0.21 0  0.25 0.2 0  0.15 0.2 0  0.2489897948556636 0.21 0  0.2489897948556636 0.19 0  0.6 0.2 0  0 0.3807142857143437 0  0 0.3514285714286952 0  0 0.3221428571430699 0  0 0.29285714285744 0  0 0.2635714285718054 0  0 0.2342857142861561 0  0 0.2050000000005308 0  0 0.175714285714732 0  0 0.1464285714289574 0  0 0.1171428571431897 0  0 0.08785714285737878 0  0 0.05857142857161107 0  0 0.02928571428580012 0  0.03015443760436003 0 0  0.06140001986583606 0 0  0.09377624077125973 0 0  0.1273239957535082 0 0  0.1620856860351972 0 0  0.1981052433264291 0 0  0.235428184091502 0 0  0.2741016576309132 0 0  0.3141745521465447 0 0  0.3556974926295285 0 0  0.3987229542472677 0 0  0.4433053055141081 0 0  0.4895008759286886 0 0  0.5373680609405097 0 0  0.5869673343216626 0 0  0.6383613676634521 0 0  0.6916151138468254 0 0  0.7467958595648856 0 0  0.8039733463919316 0 0  0.8632198139502143 0 0  0.9246101326867038 0 0  0.9882218810934433 0 0  1.054135445558498 0 0  1.122434100542598 0 0  1.193204177141305 0 0  1.266535089879536 0 0  1.342519516046404 0 0  1.421253448503939 0 0  1.502836389106271 0 0  1.587371439758838 0 0  1.674965418777374 0 0  1.765729001825544 0 0  1.859776908880082 0 0  1.957227977487062 0 0  2.058205329869943 0 0  2.162836591189951 0 0  2.271253957290865 0 0  2.383594446803425 0 0  2.5 0.1024999999997612 0  2.5 0.2049999999994743 0  2.5 0.3074999999997183 0  2.383594446803656 0.41 0  2.271253957291315 0.41 0  2.162836591190598 0.41 0  2.058205329870775 0.41 0  1.957227977488067 0.41 0  1.859776908881246 0.41 0  1.765729001826854 0.41 0  1.674965418778818 0.41 0  1.58737143976041 0.41 0  1.502836389107956 0.41 0  1.421253448505726 0.41 0  1.342519516048286 0.41 0  1.266535089881505 0.41 0  1.193204177143353 0.41 0  1.122434100544716 0.41 0  1.05413544556068 0.41 0  0.9882218810956305 0.41 0  0.9246101326886647 0.41 0  0.8632198139519631 0.41 0  0.8039733463934788 0.41 0  0.7467958595662458 0.41 0  0.6916151138480078 0.41 0  0.6383613676644679 0.41 0  0.5869673343225223 0.41 0  0.5373680609412221 0.41 0  0.4895008759292634 0.41 0  0.4433053055145528 0.41 0  0.3987229542475914 0.41 0  0.3556974926297398 0.41 0  0.3141745521466497 0.41 0  0.2741016576310038 0.41 0  0.2354281840915826 0.41 0  0.1981052433265003 0.41 0  0.1620856860352591 0.41 0  0.1273239957535623 0.41 0  0.09377624077128965 0.41 0  0.06140001986584975 0.41 0  0.03015443760436654 0.41 0  0.2497468076502589 0.2050254481002335 0  0.2497468076502614 0.1949745518997913 0  0.2469965252529372 0.1829317073451959 0  0.2439893735792749 0.1762316384219906 0  0.2400332147834255 0.1700443375285386 0  0.2352133972704371 0.1645032867342007 0  0.2296339016332438 0.1597280261969788 0  0.2234150974217223 0.1558215752574715 0  0.2166911463437691 0.1528682099456123 0  0.2096071079204251 0.1509316448471593 0  0.2023158100364996 0.1500536585536553 0  0.194974551899914 0.1502531923497262 0  0.1877417105387872 0.1515259415822739 0  0.1807733240461124 0.153844448527136 0  0.1742197252835808 0.15715869474974 0  0.1682222986673531 0.1613971801805478 0  0.162910430003803 0.1664684656256651 0  0.1583987151779087 0.1722631454351573 0  0.1547844879126891 0.178656207771761 0  0.1521457199348551 0.1855097315605723 0  0.1505393388476355 0.1926758619366523 0  0.1505393388476328 0.2073241380633295 0  0.1521457199348437 0.2144902684393899 0  0.1547844879126531 0.221343792228163 0  0.1583987151778488 0.2277368545647528 0  0.1629104300036858 0.2335315343742052 0  0.1682222986671726 0.2386028198193036 0  0.1742197252833576 0.2428413052501257 0  0.1807733240458683 0.2461555514727623 0  0.1877417105384929 0.2484740584176516 0  0.1949745518995776 0.2497468076502398 0  0.202315810036185 0.2499463414463592 0  0.2096071079201568 0.2490683551528932 0  0.2166911463435495 0.2471317900544655 0  0.2234150974215506 0.2441784247426195 0  0.2296339016331197 0.2402719738031125 0  0.2352133972703547 0.2354967132658811 0  0.2400332147833751 0.2299556624715287 0  0.2439893735792577 0.2237683615780412 0  0.246996525252926 0.2170682926548348 0  0.25645809709277 0.21 0  0.2639263993298655 0.21 0  0.271394701566961 0.21 0  0.2788630038040554 0.21 0  0.2863313060411479 0.21 0  0.2937996082782405 0.21 0  0.301267910515333 0.21 0  0.3087362127524279 0.21 0  0.3162045149895234 0.21 0  0.3236728172265972 0.21 0  0.3311411194636928 0.21 0  0.3386094217007701 0.21 0  0.3460777239378666 0.21 0  0.3535460261749672 0.21 0  0.3610143284120516 0.21 0  0.3684826306491596 0.21 0  0.3759509328862226 0.21 0  0.383419235123329 0.21 0  0.3908875373604028 0.21 0  0.3983558395975142 0.21 0  0.4058241418345938 0.21 0  0.4132924440716992 0.21 0  0.4207607463087888 0.21 0  0.4282290485459029 0.21 0  0.4356973507830418 0.21 0  0.4431656530201649 0.21 0  0.4506339552573136 0.21 0  0.4581022574944306 0.21 0  0.4655705597315852 0.21 0  0.4730388619686996 0.21 0  0.480507164205851 0.21 0  0.4879754664429498 0.21 0  0.4954437686800938 0.21 0  0.502912070917267 0.21 0  0.5103803731544119 0.21 0  0.5178486753915261 0.21 0  0.5253169776286404 0.21 0  0.5327852798657868 0.21 0  0.5402535821029386 0.21 0  0.54772188434007 0.21 0  0.5551901865771842 0.21 0  0.5626584888143201 0.21 0  0.5701267910514778 0.21 0  0.5775950932886138 0.21 0  0.5850633955257281 0.21 0  0.5925316977628483 0.21 0  0.6 0.2050000000000054 0  0.6 0.1950000000000217 0  0.5925316977628897 0.19 0  0.5850633955257988 0.19 0  0.5775950932887378 0.19 0  0.5701267910515998 0.19 0  0.5626584888145268 0.19 0  0.5551901865773963 0.19 0  0.547721884340339 0.19 0  0.5402535821032429 0.19 0  0.5327852798661811 0.19 0  0.5253169776290537 0.19 0  0.5178486753919799 0.19 0  0.5103803731549078 0.19 0  0.502912070917822 0.19 0  0.4954437686807294 0.19 0  0.4879754664436223 0.19 0  0.4805071642065402 0.19 0  0.4730388619694271 0.19 0  0.4655705597323621 0.19 0  0.4581022574952563 0.19 0  0.4506339552581777 0.19 0  0.4431656530210671 0.19 0  0.4356973507839815 0.19 0  0.4282290485468779 0.19 0  0.4207607463097617 0.19 0  0.4132924440726327 0.19 0  0.4058241418354857 0.19 0  0.3983558395983636 0.19 0  0.3908875373612097 0.19 0  0.3834192351240934 0.19 0  0.3759509328869369 0.19 0  0.3684826306498175 0.19 0  0.361014328412667 0.19 0  0.3535460261755617 0.19 0  0.3460777239384295 0.19 0  0.3386094217012945 0.19 0  0.3311411194641595 0.19 0  0.3236728172270245 0.19 0  0.3162045149898895 0.19 0  0.3087362127527544 0.19 0  0.3012679105156187 0.19 0  0.2937996082784807 0.19 0  0.2863313060413428 0.19 0  0.2788630038042048 0.19 0  0.2713947015670686 0.19 0  0.2639263993299336 0.19 0  0.2564580970927985 0.19 0  0.2607803159922026 0.2000727136295815 0  0.5887803774232762 0.2001272386983733 0  0.5745072403740523 0.2002044435018727 0  0.5511891430099709 0.2001122610077113 0  0.2751288526855082 0.20000000000002 0  0.5365194309847112 0.1999999999999436 0  0.2894621222999649 0.1998691686390484 0  0.5215828265105155 0.1999999999999228 0  0.3127789816668748 0.1998657885438805 0  0.3274069683451451 0.2000000000000796 0  0.5066462220363641 0.199999999999908 0  0.3650630746574081 0.199866017807523 0  0.476773013087985 0.1999999999998713 0  0.3417402379596385 0.1998691686391011 0  0.3796850840047755 0.200000000000134 0  0.4618364086138087 0.1999999999998546 0  0.4917096175621762 0.1999999999998808 0  0.3946216884789568 0.2000000000001512 0  0.446899804139621 0.1999999999998389 0  0.4089549580935208 0.1998691686391595 0  0.4322718174608562 0.200127451265745 0  0.4201487168029707 0.1999966199048527 0  0.3528922713220932 0.2000185703532356 0  0.5633122436674589 0.1999814296467508 0  0.3006558810093873 0.1999966199048318 0  0.5815926498168407 0.1966545283159175 0  0.2677053789419034 0.1964246479135325 0  0.5290511287476175 0.1970915826863981 0  0.5439877332217911 0.197091582686394 0  0.2825131256993216 0.2035478995978015 0  0.3199386661080599 0.202908417313604 0  0.4842413153250809 0.1970915826863873 0  0.5141145242734466 0.1970915826863843 0  0.3722167817676917 0.2029084173136195 0  0.4693047108508938 0.1970915826863783 0  0.3348752705822316 0.202908417313609 0  0.3871533862418661 0.2029084173136212 0  0.4543681063767183 0.1970915826863795 0  0.4991779197992749 0.1970915826863902 0  0.4020059614928624 0.203547899597858 0  0.4394315019025246 0.1970915826863714 0  0.2550657455369551 0.2034088125358657 0  0.2548908499171161 0.1966940311614271 0  0.5946539510196798 0.2024302972968126 0  0.267698176732111 0.2039977513680092 0  0.4261685417851465 0.196409292431739 0  0.3590076176283495 0.196411355804271 0  0.5571672426447437 0.2036011176410121 0  0.3066757059912147 0.1964092924317024 0  0.594380730180568 0.1966558399668133 0  0.4842413153245942 0.2040749161535287 0  0.4693047108503577 0.2040749161535231 0  0.3871533862424271 0.1959250838464788 0  0.372246743208829 0.1959123236376545 0  0.5141145242731028 0.2040749161535395 0  0.4543681063761134 0.2040749161535186 0  0.4019979587101454 0.1959834479682427 0  0.4394608940728603 0.2040870543693135 0  0.5439623148931173 0.2040856076781014 0  0.5290511287473298 0.2040749161535501 0  0.4991779197988497 0.2040749161535382 0  0.3347912413592433 0.1959225448935183 0  0.3199680582793816 0.1959123018030061 0  0.2825051229162361 0.1959834479681729 0  0.3590471196690275 0.2036304442587945 0  0.5571594006495384 0.1963685282145804 0  0.3067669986803285 0.203627750582736 0  0.4262598344738712 0.2036568242185335 0  0.5814408164431408 0.2041285596160068 0  0.5688286748170428 0.1961819304477386 0  0.4145905603063645 0.2038180695522843 0  0.3473758401724931 0.2038180695522752 0  0.2950977245128307 0.2038180695522663 0  0.5688286748170693 0.203818069552238 0  0.2950977245127906 0.1961819304477774 0  0.3473758401723931 0.1961819304478349 0  0.4145905603061963 0.1961819304479011 0  0.2601812407614425 0.2056861609747042
[...]
<PointData  Vectors="f_40-0"> 
<DataArray  type="Float64"  Name="f_40-0"  NumberOfComponents="3" format="ascii">0.0000000000000000e+00 0.0000000000000000e+00 0.0000000000000000e+00  0.0000000000000000e+00 0.0000000000000000e+00 0.0000000000000000e+00  0.0000000000000000e+00 0.0000000000000000e+00 0.0000000000000000e+00  0.0000000000000000e+00 0.0000000000000000e+00 0.0000000000000000e+00  -4.6142008825902347e-08 -1.1003678825138528e-06 0.0000000000000000e+00  3.5017562263064752e-08 -1.1037286890331536e-06 0.0000000000000000e+00  0.0000000000000000e+00 0.0000000000000000e+00 0.0000000000000000e+00  0.0000000000000000e+00 0.0000000000000000e+00 0.0000000000000000e+00  0.0000000000000000e+00 0.0000000000000000e+00 0.0000000000000000e+00  0.0000000000000000e+00 0.0000000000000000e+00 0.0000000000000000e+00  -5.7111165740507930e-09 -1.1169735344061993e-06 0.0000000000000000e+00  7.9591836734548405e-01 0.0000000000000000e+00 0.0000000000000000e+00  1.4693877550994523e+00 0.0000000000000000e+00 0.0000000000000000e+00  2.0204081632617479e+00 0.0000000000000000e+00 0.0000000000000000e+00  2.4489795918330071e+00 0.0000000000000000e+00 0.0000000000000000e+00  2.7551020408131754e+00 0.0000000000000000e+00 0.0000000000000000e+00  2.9387755102022344e+00 0.0000000000000000e+00 0.0000000000000000e+00  3.0000000000000004e+00 0.0000000000000000e+00 0.0000000000000000e+00  2.9387755102059474e+00 0.0000000000000000e+00 0.0000000000000000e+00  2.7551020408195543e+00 0.0000000000000000e+00 0.0000000000000000e+00  2.4489795918409065e+00 0.0000000000000000e+00 0.0000000000000000e+00  2.0204081632692521e+00 0.0000000000000000e+00 0.0000000000000000e+00  1.4693877551058563e+00 0.0000000000000000e+00 0.0000000000000000e+00  7.9591836734909216e-01 0.0000000000000000e+00 0.0000000000000000e+00  0.0000000000000000e+00 0.0000000000000000e+00 0.0000000000000000e+00  0.0000000000000000e+00 0.0000000000000000e+00 0.0000000000000000e+00  0.0000000000000000e+00 0.0000000000000000e+00 0.0000000000000000e+00  0.0000000000000000e+00 0.0000000000000000e+00 0.0000000000000000e+00  0.0000000000000000e+00 0.0000000000000000e+00 0.0000000000000000e+00  0.0000000000000000e+00 0.0000000000000000e+00 0.0000000000000000e+00  0.0000000000000000e+00 0.0000000000000000e+00 0.0000000000000000e+00  0.0000000000000000e+00 0.0000000000000000e+00 0.0000000000000000e+00  0.0000000000000000e+00 0.0000000000000000e+00 0.0000000000000000e+00  0.0000000000000000e+00 0.0000000000000000e+00 0.0000000000000000e+00  0.0000000000000000e+00 0.0000000000000000e+00 0.0000000000000000e+00  0.0000000000000000e+00 0.0000000000000000e+00 0.0000000000000000e+00  0.0000000000000000e+00 0.0000000000000000e+00 0.0000000000000000e+00  0.0000000000000000e+00 0.0000000000000000e+00 0.0000000000000000e+00  0.0000000000000000e+00 0.0000000000000000e+00 0.0000000000000000e+00  0.0000000000000000e+00 0.0000000000000000e+00 0.0000000000000000e+00  0.0000000000000000e+00 0.0000000000000000e+00 0.0000000000000000e+00  0.0000000000000000e+00 0.0000000000000000e+00 0.0000000000000000e+00  0.0000000000000000e+00 0.0000000000000000e+00 0.0000000000000000e+00  0.0000000000000000e+00 0.0000000000000000e+00 0.0000000000000000e+00  0.0000000000000000e+00 0.0000000000000000e+00 0.0000000000000000e+00  0.0000000000000000e+00 0.0000000000000000e+00 0.0000000000000000e+00  0.0000000000000000e+00 0.0000000000000000e+00 0.0000000000000000e+00  0.0000000000000000e+00 0.0000000000000000e+00 0.0000000000000000e+00  0.0000000000000000e+00 0.0000000000000000e+00 0.0000000000000000e+00  0.0000000000000000e+00 0.0000000000000000e+00 0.0000000000000000e+00  0.0000000000000000e+00 0.0000000000000000e+00 0.0000000000000000e+00  0.0000000000000000e+00 0.0000000000000000e+00 0.0000000000000000e+00  0.0000000000000000e+00 0.0000000000000000e+00 0.0000000000000000e+00  0.0000000000000000e+00 0.0000000000000000e+00 0.0000000000000000e+00  0.0000000000000000e+00 0.0000000000000000e+00 0.0000000000000000e+00  0.0000000000000000e+00 0.0000000000000000e+00 0.0000000000000000e+00  0.0000000000000000e+00 0.0000000000000000e+00 0.0000000000000000e+00  0.0000000000000000e+00 0.0000000000000000e+00 0.0000000000000000e+00  0.0000000000000000e+00 0.0000000000000000e+00 0.0000000000000000e+00  0.0000000000000000e+00 0.0000000000000000e+00 0.0000000000000000e+00  0.0000000000000000e+00 0.0000000000000000e+00 0.0000000000000000e+00  0.0000000000000000e+00 0.0000000000000000e+00 0.0000000000000000e+00  2.6640816478216220e+00 1.8368022109508383e-02 0.0000000000000000e+00  2.3245096907894931e+00 1.8616384920575817e-02 0.0000000000000000e+00  2.8342573395198429e+00 7.1285068200423032e-02 0.0000000000000000e+00  0.0000000000000000e+00 0.0000000000000000e+00 0.0000000000000000e+00  0.0000000000000000e+00 0.0000000000000000e+00 0.0000000000000000e+00  0.0000000000000000e+00 0.0000000000000000e+00 0.0000000000000000e+00  0.0000000000000000e+00 0.0000000000000000e+00 0.0000000000000000e+00  0.0000000000000000e+00 0.0000000000000000e+00 0.0000000000000000e+00  0.0000000000000000e+00 0.0000000000000000e+00 0.0000000000000000e+00  0.0000000000000000e+00 0.0000000000000000e+00 0.0000000000000000e+00  0.0000000000000000e+00 0.0000000000000000e+00 0.0000000000000000e+00  0.0000000000000000e+00 0.0000000000000000e+00 0.0000000000000000e+00  0.0000000000000000e+00 0.0000000000000000e+00 0.0000000000000000e+00  0.0000000000000000e+00 0.0000000000000000e+00 0.0000000000000000e+00  0.0000000000000000e+00 0.0000000000000000e+00 0.0000000000000000e+00  0.0000000000000000e+00 0.0000000000000000e+00 0.0000000000000000e+00  0.0000000000000000e+00 0.0000000000000000e+00 0.0000000000000000e+00  0.0000000000000000e+00 0.0000000000000000e+00 0.0000000000000000e+00  0.0000000000000000e+00 0.0000000000000000e+00 0.0000000000000000e+00  0.0000000000000000e+00 0.0000000000000000e+00 0.0000000000000000e+00  0.0000000000000000e+00 0.0000000000000000e+00 0.0000000000000000e+00  0.0000000000000000e+00 0.0000000000000000e+00 0.0000000000000000e+00  0.0000000000000000e+00 0.0000000000000000e+00 0.0000000000000000e+00  0.0000000000000000e+00 0.0000000000000000e+00 0.0000000000000000e+00  0.0000000000000000e+00 0.0000000000000000e+00 0.0000000000000000e+00  0.0000000000000000e+00 0.0000000000000000e+00 0.0000000000000000e+00  0.0000000000000000e+00 0.0000000000000000e+00 0.0000000000000000e+00  0.0000000000000000e+00 0.0000000000000000e+00 0.0000000000000000e+00  0.0000000000000000e+00 0.0000000000000000e+00 0.0000000000000000e+00  0.0000000000000000e+00 0.0000000000000000e+00 0.0000000000000000e+00  0.0000000000000000e+00 0.0000000000000000e+00 0.0000000000000000e+00  0.0000000000000000e+00 0.0000000000000000e+00 0.0000000000000000e+00  0.0000000000000000e+00 0.0000000000000000e+00 0.0000000000000000e+00  0.0000000000000000e+00 0.0000000000000000e+00 0.0000000000000000e+00  0.0000000000000000e+00 0.0000000000000000e+00 0.0000000000000000e+00  0.0000000000000000e+00 0.0000000000000000e+00 0.0000000000000000e+00  0.0000000000000000e+00 0.0000000000000000e+00 0.0000000000000000e+00  0.0000000000000000e+00 0.0000000000000000e+00 0.0000000000000000e+00  0.0000000000000000e+00 0.0000000000000000e+00 0.0000000000000000e+00  0.0000000000000000e+00 0.0000000000000000e+00 0.0000000000000000e+00  0.0000000000000000e+00 0.0000000000000000e+00 0.0000000000000000e+00  0.0000000000000000e+00 0.0000000000000000e+00 0.0000000000000000e+00  0.0000000000000000e+00 0.0000000000000000e+00 0.0000000000000000e+00  0.0000000000000000e+00 0.0000000000000000e+00 0.0000000000000000e+00  0.0000000000000000e+00 0.0000000000000000e+00 0.0000000000000000e+00  0.0000000000000000e+00 0.0000000000000000e+00 0.0000000000000000e+00  0.0000000000000000e+00 0.0000000000000000e+00 0.0000000000000000e+00  0.0000000000000000e+00 0.0000000000000000e+00 0.0000000000000000e+00  0.0000000000000000e+00 0.0000000000000000e+00 0.0000000000000000e+00  0.0000000000000000e+00 0.0000000000000000e+00 0.0000000000000000e+00  0.0000000000000000e+00 0.0000000000000000e+00 0.0000000000000000e+00  0.0000000000000000e+00 0.0000000000000000e+00 0.0000000000000000e+00  0.0000000000000000e+00 0.0000000000000000e+00 0.0000000000000000e+00  0.0000000000000000e+00 0.0000000000000000e+00 0.0000000000000000e+00  0.0000000000000000e+00 0.0000000000000000e+00 0.0000000000000000e+00  0.0000000000000000e+00 0.0000000000000000e+00 0.0000000000000000e+00  0.0000000000000000e+00 0.0000000000000000e+00 0.0000000000000000e+00  0.0000000000000000e+00 0.0000000000000000e+00 0.0000000000000000e+00  0.0000000000000000e+00 0.0000000000000000e+00 0.0000000000000000e+00  0.0000000000000000e+00 0.0000000000000000e+00 0.0000000000000000e+00  0.0000000000000000e+00 0.0000000000000000e+00 0.0000000000000000e+00  0.0000000000000000e+00 0.0000000000000000e+00 0.0000000000000000e+00  0.0000000000000000e+00 0.0000000000000000e+00 0.0000000000000000e+00  0.0000000000000000e+00 0.0000000000000000e+00 0.0000000000000000e+00  0.0000000000000000e+00 0.0000000000000000e+00 0.0000000000000000e+00  0.0000000000000000e+00 0.0000000000000000e+00 0.0000000000000000e+00  0.0000000000000000e+00 0.0000000000000000e+00 0.0000000000000000e+00  0.0000000000000000e+00 0.0000000000000000e+00 0.0000000000000000e+00  0.0000000000000000e+00 0.0000000000000000e+00 0.0000000000000000e+00  0.0000000000000000e+00 0.0000000000000000e+00 0.0000000000000000e+00  0.0000000000000000e+00 0.0000000000000000e+00 0.0000000000000000e+00  0.0000000000000000e+00 0.0000000000000000e+00 0.0000000000000000e+00  0.0000000000000000e+00 0.0000000000000000e+00 0.0000000000000000e+00  0.0000000000000000e+00 0.0000000000000000e+00 0.0000000000000000e+00  0.0000000000000000e+00 0.0000000000000000e+00 0.0000000000000000e+00  0.0000000000000000e+00 0.0000000000000000e+00 0.0000000000000000e+00  0.0000000000000000e+00 0.0000000000000000e+00 0.0000000000000000e+00  0.0000000000000000e+00 0.0000000000000000e+00 0.0000000000000000e+00  0.0000000000000000e+00 0.0000000000000000e+00 0.0000000000000000e+00  0.0000000000000000e+00 0.0000000000000000e+00 0.0000000000000000e+00  0.0000000000000000e+00 0.0000000000000000e+00 0.0000000000000000e+00  1.8606559836367605e-09 -2.1200834698449379e-09 0.0000000000000000e+00  4.0001170472518135e-09 -4.7309048817439483e-09 0.0000000000000000e+00  5.8928863470306255e-09 -9.0440824797408029e-09 0.0000000000000000e+00  7.9931863573801880e-09 -1.5126020163534949e-08 0.0000000000000000e+00  9.7275696860680828e-09 -2.2765076099847331e-08 0.0000000000000000e+00  1.1751253013929038e-08 -3.2121310745207113e-08 0.0000000000000000e+00  1.3356751441076173e-08 -4.2647479210167828e-08 0.0000000000000000e+00  1.4899973709909138e-08 -5.5015213643071687e-08 0.0000000000000000e+00  1.6749015120146573e-08 -6.8573370862944018e-08 0.0000000000000000e+00  1.8111487002806914e-08 -8.3521850428313628e-08 0.0000000000000000e+00  1.9843223606131519e-08 -9.9796585635555138e-08 0.0000000000000000e+00  2.1096881746454768e-08 -1.1732358661139925e-07 0.0000000000000000e+00  2.2621207025787936e-08 -1.3604851933620453e-07 0.0000000000000000e+00  2.3816992270075070e-08 -1.5576863391796157e-07 0.0000000000000000e+00  2.4932445600855785e-08 -1.7668766442510582e-07 0.0000000000000000e+00  2.6265471597262994e-08 -1.9855406702298098e-07 0.0000000000000000e+00  2.7222578789711047e-08 -2.2135130391157474e-07 0.0000000000000000e+00  2.8413688195485376e-08 -2.4508702780548751e-07 0.0000000000000000e+00  2.9250212451025488e-08 -2.6964655038069781e-07 0.0000000000000000e+00  3.0267283297034440e-08 -2.9497708781421077e-07 0.0000000000000000e+00  3.1035977959385518e-08 -3.2106137470455899e-07 0.0000000000000000e+00  3.1888796253449777e-08 -3.4780883793973515e-07 0.0000000000000000e+00  3.2558091518538230e-08 -3.7528457968608599e-07 0.0000000000000000e+00  3.3136173830221936e-08 -4.0311159446234031e-07 0.0000000000000000e+00  3.3808953349964881e-08 -4.3158426510521490e-07 0.0000000000000000e+00  3.4324188126701528e-08 -4.6051492330796975e-07 0.0000000000000000e+00  3.4827953352056877e-08 -4.8991809488982458e-07 0.0000000000000000e+00  3.5241420889141621e-08 -5.1966213774814614e-07 0.0000000000000000e+00  3.5637499457493652e-08 -5.4978485918497584e-07 0.0000000000000000e+00  3.5956658978399405e-08 -5.8019625793332903e-07 0.0000000000000000e+00  3.6256084300908895e-08 -6.1088680382065002e-07 0.0000000000000000e+00  3.6490615276515962e-08 -6.4180125117226006e-07 0.0000000000000000e+00  3.6705006057909444e-08 -6.7294191389793925e-07 0.0000000000000000e+00  3.6865968715501493e-08 -7.0421365065274162e-07 0.0000000000000000e+00  3.7008103084213669e-08 -7.3567007773442742e-07 0.0000000000000000e+00  3.7107553552854411e-08 -7.6721817894183300e-07 0.0000000000000000e+00  3.7190066443941474e-08 -7.9888396848181549e-07 0.0000000000000000e+00  3.7240333042065262e-08 -8.3061240334935792e-07 0.0000000000000000e+00  3.7275659159563328e-08 -8.6239310602988552e-07 0.0000000000000000e+00  3.7288732789074160e-08 -8.9422635009082017e-07 0.0000000000000000e+00  3.7284673229387822e-08 -9.2598202647080381e-07 0.0000000000000000e+00  3.7300207818415542e-08 -9.5846563335109195e-07 0.0000000000000000e+00  3.7239300906342204e-08 -9.8966822786070159e-07 0.0000000000000000e+00  3.7209561009759457e-08 -1.0215677951390475e-06 0.0000000000000000e+00  3.7171391837029135e-08 -1.0536317070666726e-06 0.0000000000000000e+00  3.7209574491143919e-08 -1.0848540851696516e-06 0.0000000000000000e+00  1.5723174178128482e-08 -1.1173831049989758e-06 0.0000000000000000e+00  -2.7112959057782575e-08 -1.1167382809161923e-06 0.0000000000000000e+00  -4.8514844601204992e-08 -1.0849325885163433e-06 0.0000000000000000e+00  -4.8383959527045858e-08 -1.0533706692763392e-06 0.0000000000000000e+00  -4.8358446727097733e-08 -1.0216267148305294e-06 0.0000000000000000e+00  -4.8284720928279913e-08 -9.8951583820801739e-07 0.0000000000000000e+00  -4.8244326542368262e-08 -9.5832670250049449e-07 0.0000000000000000e+00  -4.8144978641815689e-08 -9.2584766212535716e-07 0.0000000000000000e+00  -4.8056002704900876e-08 -8.9419235994116326e-07 0.0000000000000000e+00  -4.7954025248788842e-08 -8.6232626609789263e-07 0.0000000000000000e+00  -4.7816018203601206e-08 -8.3053190198455661e-07 0.0000000000000000e+00  -4.7680702751207110e-08 -7.9879858010740888e-07 0.0000000000000000e+00  -4.7490118236835469e-08 -7.6713674089830905e-07 0.0000000000000000e+00  -4.7307703853631940e-08 -7.3557500043458883e-07 0.0000000000000000e+00  -4.7048758802678850e-08 -7.0412393291755178e-07 0.0000000000000000e+00  -4.6806722815825872e-08 -6.7282637881403266e-07 0.0000000000000000e+00  -4.6463277579846029e-08 -6.4168974038608522e-07 0.0000000000000000e+00  -4.6148527962226586e-08 -6.1076621682160342e-07 0.0000000000000000e+00  -4.5704297780584770e-08 -5.8006558838688607e-07 0.0000000000000000e+00  -4.5303985383716419e-08 -5.4964553041455168e-07 0.0000000000000000e+00  -4.4742878226166161e-08 -5.1951530279884819e-07 0.0000000000000000e+00  -4.4244454414589972e-08 -4.8974540873912499e-07 0.0000000000000000e+00  -4.3547155996412428e-08 -4.6034648690762336e-07 0.0000000000000000e+00  -4.2934138053640648e-08 -4.3140746981595229e-07 0.0000000000000000e+00  -4.2090754926959278e-08 -4.0288274966942902e-07 0.0000000000000000e+00  -4.1338398984440800e-08 -3.7503468272394004e-07 0.0000000000000000e+00  -4.0492771184352969e-08 -3.4755972331066079e-07 0.0000000000000000e+00  -3.9459823591402980e-08 -3.2075248210963916e-07 0.0000000000000000e+00  -3.8451209878091973e-08 -2.9469176900659570e-07 0.0000000000000000e+00  -3.7280210207385946e-08 -2.6928951566970171e-07 0.0000000000000000e+00  -3.6110081766134842e-08 -2.4473958157816777e-07 0.0000000000000000e+00  -3.4779940400257192e-08 -2.2097093229367550e-07 0.0000000000000000e+00  -3.3450538097946540e-08 -1.9811969790558822e-07 0.0000000000000000e+00  -3.1849198014004525e-08 -1.7628781398630381e-07 0.0000000000000000e+00  -3.0424311391447718e-08 -1.5533838340660395e-07 0.0000000000000000e+00  -2.8896253026050856e-08 -1.3560319983166587e-07 0.0000000000000000e+00  -2.7065671705564720e-08 -1.1678488729645561e-07 0.0000000000000000e+00  -2.5305650776907589e-08 -9.9275888911169355e-08 0.0000000000000000e+00  -2.3344036735850673e-08 -8.2966242011678382e-08 0.0000000000000000e+00  -2.1420554557645971e-08 -6.7947291270231902e-08 0.0000000000000000e+00  -1.9160781986630695e-08 -5.4429775467532888e-08 0.0000000000000000e+00  -1.7155414100911452e-08 -4.2018024509658382e-08 0.0000000000000000e+00  -1.5071411370609874e-08 -3.1469381044578637e-08 0.0000000000000000e+00  -1.2585328802716268e-08 -2.2057289756901455e-08 0.0000000000000000e+00  -1.0274141219859730e-08 -1.4378980183403559e-08 0.0000000000000000e+00  -7.6275560457871928e-09 -8.3471170527562670e-09 0.0000000000000000e+00  -5.2116751860954037e-09 -4.0218044433003020e-09 0.0000000000000000e+00  -2.4680127458219828e-09 -1.4528080728780473e-09 0.0000000000000000e+00  -5.1750239931480904e-10 -1.7571732633583509e-09 0.0000000000000000e+00  -5.0763344575599313e-09 -1.0705684621967148e-06 0.0000000000000000e+00  -4.6687295973428437e-09 -1.0093245665174518e-06 0.0000000000000000e+00  -4.9201860931691733e-09 -9.0959024380971904e-07 0.0000000000000000e+00  -1.0334910483649245e-09 -1.0309995420626605e-08 0.0000000000000000e+00  -5.3079278272250282e-09 -8.4697233491259861e-07 0.0000000000000000e+00  -1.6774282244503082e-09 -2.4974664388643769e-08 0.0000000000000000e+00  -5.2135450661719758e-09 -7.8341535544561799e-07 0.0000000000000000e+00  -2.5117901606463738e-09 -6.0875746150594451e-08 0.0000000000000000e+00  -2.6785195304083188e-09 -9.0362551700682170e-08 0.0000000000000000e+00  -5.1164333438835587e-09 -7.2021006399169144e-07 0.0000000000000000e+00  -3.9412040012907550e-09 -1.8758960309592253e-07 0.0000000000000000e+00  -4.9072144437530098e-09 -5.9560290296459848e-07 0.0000000000000000e+00  -3.3644905281546725e-09 -1.2396998756647131e-07 0.0000000000000000e+00  -3.8125421075155740e-09 -2.3243466885263908e-07 0.0000000000000000e+00  -4.7899379332171550e-09 -5.3467697700618351e-07 0.0000000000000000e+00  -5.0150917802505732e-09 -6.5753356457110164e-07 0.0000000000000000e+00  -4.0489502763755069e-09 -2.8166596739484514e-07 0.0000000000000000e+00  -4.6622768207851293e-09 -4.7505328455950011e-07 0.0000000000000000e+00  -4.7152531629109692e-09 -3.3176056550442584e-07 0.0000000000000000e+00  -4.0334461800544160e-09 -4.1824132408330786e-07 0.0000000000000000e+00  -4.3934525473330609e-09 -3.7274447780994050e-07 0.0000000000000000e+00  -3.2443501504484484e-09 -1.5326551381230502e-07 0.0000000000000000e+00  -5.5521013447209953e-09 -9.6175739006228727e-07 0.0000000000000000e+00  -1.9034010623833204e-09 -4.0617096443310565e-08 0.0000000000000000e+00  -1.9939171015690090e-08 -1.0402813296216637e-06 0.0000000000000000e+00  -2.8268687645801818e-09 -5.1014337203300462e-09 0.0000000000000000e+00  -1.7629814564869845e-08 -8.1549773355823907e-07 0.0000000000000000e+00  -1.7771972274263769e-08 -8.7922180773754748e-07 0.0000000000000000e+00  2.2773792672958226e-09 -1.7365890603647618e-08 0.0000000000000000e+00  3.3481427497948146e-09 -7.4829645183816233e-08 0.0000000000000000e+00  -1.6995121805334547e-08 -6.2669567552226892e-07 0.0000000000000000e+00  -1.7458912803130104e-08 -7.5205632849827226e-07 0.0000000000000000e+00  5.1957704609116549e-09 -2.0925825258665687e-07 0.0000000000000000e+00  -1.6681816469750683e-08 -5.6520652585455710e-07 0.0000000000000000e+00  3.8965289174199212e-09 -1.0747933421532644e-07 0.0000000000000000e+00  5.6024975592695134e-09 -2.5682482753206092e-07 0.0000000000000000e+00  -1.6300788111821670e-08 -5.0486786722372367e-07 0.0000000000000000e+00  -1.7250668643861864e-08 -6.8905780041546978e-07 0.0000000000000000e+00  8.1885420925782752e-09 -3.0736092543853139e-07 0.0000000000000000e+00  -1.5848677524485072e-08 -4.4599367726950040e-07 0.0000000000000000e+00  8.2312651220168631e-11 -4.0796320483054426e-10 0.0000000000000000e+00  -6.2550281281975311e-10 -2.2423455404237529e-10 0.0000000000000000e+00  4.6854401155932329e-09 -1.0960759933711684e-06 0.00000000000000