<?xml version="1.0"?>
<VTKFile type="UnstructuredGrid"  version="0.1"  >
<UnstructuredGrid>
<Piece  NumberOfPoints="1419" NumberOfCells="2698">
<Points>
<DataArray  type="Float64"  NumberOfComponents="3"  format="ascii">0 0 0  0 0.41 0  2.5 0 0  2.5 0.41 0  0.6 0.19 0  0.6 0.21 0  0.25 0.2 0  0.15 0.2 0  0.2489897948556636 0.21 0  0.2489897948556636 0.19 0  0.6 0.2 0  0 0.3807142857143437 0  0 0.3514285714286952 0  0 0.3221428571430699 0  0 0.29285714285744 0  0 0.2635714285718054 0  0 0.2342857142861561 0  0 0.2050000000005308 0  0 0.175714285714732 0  0 0.1464285714289574 0  0 0.1171428571431897 0  0 0.08785714285737878 0  0 0.05857142857161107 0  0 0.02928571428580012 0  0.03015443760436003 0 0  0.06140001986583606 0 0  0.09377624077125973 0 0  0.1273239957535082 0 0  0.1620856860351972 0 0  0.1981052433264291 0 0  0.235428184091502 0 0  0.2741016576309132 0 0  0.3141745521465447 0 0  0.3556974926295285 0 0  0.3987229542472677 0 0  0.4433053055141081 0 0  0.4895008759286886 0 0  0.5373680609405097 0 0  0.5869673343216626 0 0  0.6383613676634521 0 0  0.6916151138468254 0 0  0.7467958595648856 0 0  0.8039733463919316 0 0  0.8632198139502143 0 0  0.9246101326867038 0 0  0.9882218810934433 0 0  1.054135445558498 0 0  1.122434100542598 0 0  1.193204177141305 0 0  1.266535089879536 0 0  1.342519516046404 0 0  1.421253448503939 0 0  1.502836389106271 0 0  1.587371439758838 0 0  1.674965418777374 0 0  1.765729001825544 0 0  1.859776908880082 0 0  1.957227977487062 0 0  2.058205329869943 0 0  2.162836591189951 0 0  2.271253957290865 0 0  2.383594446803425 0 0  2.5 0.1024999999997612 0  2.5 0.2049999999994743 0  2.5 0.3074999999997183 0  2.383594446803656 0.41 0  2.271253957291315 0.41 0  2.162836591190598 0.41 0  2.058205329870775 0.41 0  1.957227977488067 0.41 0  1.859776908881246 0.41 0  1.765729001826854 0.41 0  1.674965418778818 0.41 0  1.58737143976041 0.41 0  1.502836389107956 0.41 0  1.421253448505726 0.41 0  1.342519516048286 0.41 0  1.266535089881505 0.41 0  1.193204177143353 0.41 0  1.122434100544716 0.41 0  1.05413544556068 0.41 0  0.9882218810956305 0.41 0  0.9246101326886647 0.41 0  0.8632198139519631 0.41 0  0.8039733463934788 0.41 0  0.7467958595662458 0.41 0  0.6916151138480078 0.41 0  0.6383613676644679 0.41 0  0.5869673343225223 0.41 0  0.5373680609412221 0.41 0  0.4895008759292634 0.41 0  0.4433053055145528 0.41 0  0.3987229542475914 0.41 0  0.3556974926297398 0.41 0  0.3141745521466497 0.41 0  0.2741016576310038 0.41 0  0.2354281840915826 0.41 0  0.1981052433265003 0.41 0  0.1620856860352591 0.41 0  0.1273239957535623 0.41 0  0.09377624077128965 0.41 0  0.06140001986584975 0.41 0  0.03015443760436654 0.41 0  0.2497468076502589 0.2050254481002335 0  0.2497468076502614 0.1949745518997913 0  0.2469965252529372 0.1829317073451959 0  0.2439893735792749 0.1762316384219906 0  0.2400332147834255 0.1700443375285386 0  0.2352133972704371 0.1645032867342007 0  0.2296339016332438 0.1597280261969788 0  0.2234150974217223 0.1558215752574715 0  0.2166911463437691 0.1528682099456123 0  0.2096071079204251 0.1509316448471593 0  0.2023158100364996 0.1500536585536553 0  0.194974551899914 0.1502531923497262 0  0.1877417105387872 0.1515259415822739 0  0.1807733240461124 0.153844448527136 0  0.1742197252835808 0.15715869474974 0  0.1682222986673531 0.1613971801805478 0  0.162910430003803 0.1664684656256651 0  0.1583987151779087 0.1722631454351573 0  0.1547844879126891 0.178656207771761 0  0.1521457199348551 0.1855097315605723 0  0.1505393388476355 0.1926758619366523 0  0.1505393388476328 0.2073241380633295 0  0.1521457199348437 0.2144902684393899 0  0.1547844879126531 0.221343792228163 0  0.1583987151778488 0.2277368545647528 0  0.1629104300036858 0.2335315343742052 0  0.1682222986671726 0.2386028198193036 0  0.1742197252833576 0.2428413052501257 0  0.1807733240458683 0.2461555514727623 0  0.1877417105384929 0.2484740584176516 0  0.1949745518995776 0.2497468076502398 0  0.202315810036185 0.2499463414463592 0  0.2096071079201568 0.2490683551528932 0  0.2166911463435495 0.2471317900544655 0  0.2234150974215506 0.2441784247426195 0  0.2296339016331197 0.2402719738031125 0  0.2352133972703547 0.2354967132658811 0  0.2400332147833751 0.2299556624715287 0  0.2439893735792577 0.2237683615780412 0  0.246996525252926 0.2170682926548348 0  0.25645809709277 0.21 0  0.2639263993298655 0.21 0  0.271394701566961 0.21 0  0.2788630038040554 0.21 0  0.2863313060411479 0.21 0  0.2937996082782405 0.21 0  0.301267910515333 0.21 0  0.3087362127524279 0.21 0  0.3162045149895234 0.21 0  0.3236728172265972 0.21 0  0.3311411194636928 0.21 0  0.3386094217007701 0.21 0  0.3460777239378666 0.21 0  0.3535460261749672 0.21 0  0.3610143284120516 0.21 0  0.3684826306491596 0.21 0  0.3759509328862226 0.21 0  0.383419235123329 0.21 0  0.3908875373604028 0.21 0  0.3983558395975142 0.21 0  0.4058241418345938 0.21 0  0.4132924440716992 0.21 0  0.4207607463087888 0.21 0  0.4282290485459029 0.21 0  0.4356973507830418 0.21 0  0.4431656530201649 0.21 0  0.4506339552573136 0.21 0  0.4581022574944306 0.21 0  0.4655705597315852 0.21 0  0.4730388619686996 0.21 0  0.480507164205851 0.21 0  0.4879754664429498 0.21 0  0.4954437686800938 0.21 0  0.502912070917267 0.21 0  0.5103803731544119 0.21 0  0.5178486753915261 0.21 0  0.5253169776286404 0.21 0  0.5327852798657868 0.21 0  0.5402535821029386 0.21 0  0.54772188434007 0.21 0  0.5551901865771842 0.21 0  0.5626584888143201 0.21 0  0.5701267910514778 0.21 0  0.5775950932886138 0.21 0  0.5850633955257281 0.21 0  0.5925316977628483 0.21 0  0.6 0.2050000000000054 0  0.6 0.1950000000000217 0  0.5925316977628897 0.19 0  0.5850633955257988 0.19 0  0.5775950932887378 0.19 0  0.5701267910515998 0.19 0  0.5626584888145268 0.19 0  0.5551901865773963 0.19 0  0.547721884340339 0.19 0  0.5402535821032429 0.19 0  0.5327852798661811 0.19 0  0.5253169776290537 0.19 0  0.5178486753919799 0.19 0  0.5103803731549078 0.19 0  0.502912070917822 0.19 0  0.4954437686807294 0.19 0  0.4879754664436223 0.19 0  0.4805071642065402 0.19 0  0.4730388619694271 0.19 0  0.4655705597323621 0.19 0  0.4581022574952563 0.19 0  0.4506339552581777 0.19 0  0.4431656530210671 0.19 0  0.4356973507839815 0.19 0  0.4282290485468779 0.19 0  0.4207607463097617 0.19 0  0.4132924440726327 0.19 0  0.4058241418354857 0.19 0  0.3983558395983636 0.19 0  0.3908875373612097 0.19 0  0.3834192351240934 0.19 0  0.3759509328869369 0.19 0  0.3684826306498175 0.19 0  0.361014328412667 0.19 0  0.3535460261755617 0.19 0  0.3460777239384295 0.19 0  0.3386094217012945 0.19 0  0.3311411194641595 0.19 0  0.3236728172270245 0.19 0  0.3162045149898895 0.19 0  0.3087362127527544 0.19 0  0.3012679105156187 0.19 0  0.2937996082784807 0.19 0  0.2863313060413428 0.19 0  0.2788630038042048 0.19 0  0.2713947015670686 0.19 0  0.2639263993299336 0.19 0  0.2564580970927985 0.19 0  0.2607803159922026 0.2000727136295815 0  0.5887803774232762 0.2001272386983733 0  0.5745072403740523 0.2002044435018727 0  0.5511891430099709 0.2001122610077113 0  0.2751288526855082 0.20000000000002 0  0.5365194309847112 0.1999999999999436 0  0.2894621222999649 0.1998691686390484 0  0.5215828265105155 0.1999999999999228 0  0.3127789816668748 0.1998657885438805 0  0.3274069683451451 0.2000000000000796 0  0.5066462220363641 0.199999999999908 0  0.3650630746574081 0.199866017807523 0  0.476773013087985 0.1999999999998713 0  0.3417402379596385 0.1998691686391011 0  0.3796850840047755 0.200000000000134 0  0.4618364086138087 0.1999999999998546 0  0.4917096175621762 0.1999999999998808 0  0.3946216884789568 0.2000000000001512 0  0.446899804139621 0.1999999999998389 0  0.4089549580935208 0.1998691686391595 0  0.4322718174608562 0.200127451265745 0  0.4201487168029707 0.1999966199048527 0  0.3528922713220932 0.2000185703532356 0  0.5633122436674589 0.1999814296467508 0  0.3006558810093873 0.1999966199048318 0  0.5815926498168407 0.1966545283159175 0  0.2677053789419034 0.1964246479135325 0  0.5290511287476175 0.1970915826863981 0  0.5439877332217911 0.197091582686394 0  0.2825131256993216 0.2035478995978015 0  0.3199386661080599 0.202908417313604 0  0.4842413153250809 0.1970915826863873 0  0.5141145242734466 0.1970915826863843 0  0.3722167817676917 0.2029084173136195 0  0.4693047108508938 0.1970915826863783 0  0.3348752705822316 0.202908417313609 0  0.3871533862418661 0.2029084173136212 0  0.4543681063767183 0.1970915826863795 0  0.4991779197992749 0.1970915826863902 0  0.4020059614928624 0.203547899597858 0  0.4394315019025246 0.1970915826863714 0  0.2550657455369551 0.2034088125358657 0  0.2548908499171161 0.1966940311614271 0  0.5946539510196798 0.2024302972968126 0  0.267698176732111 0.2039977513680092 0  0.4261685417851465 0.196409292431739 0  0.3590076176283495 0.196411355804271 0  0.5571672426447437 0.2036011176410121 0  0.3066757059912147 0.1964092924317024 0  0.594380730180568 0.1966558399668133 0  0.4842413153245942 0.2040749161535287 0  0.4693047108503577 0.2040749161535231 0  0.3871533862424271 0.1959250838464788 0  0.372246743208829 0.1959123236376545 0  0.5141145242731028 0.2040749161535395 0  0.4543681063761134 0.2040749161535186 0  0.4019979587101454 0.1959834479682427 0  0.4394608940728603 0.2040870543693135 0  0.5439623148931173 0.2040856076781014 0  0.5290511287473298 0.2040749161535501 0  0.4991779197988497 0.2040749161535382 0  0.3347912413592433 0.1959225448935183 0  0.3199680582793816 0.1959123018030061 0  0.2825051229162361 0.1959834479681729 0  0.3590471196690275 0.2036304442587945 0  0.5571594006495384 0.1963685282145804 0  0.3067669986803285 0.203627750582736 0  0.4262598344738712 0.2036568242185335 0  0.5814408164431408 0.2041285596160068 0  0.5688286748170428 0.1961819304477386 0  0.4145905603063645 0.2038180695522843 0  0.3473758401724931 0.2038180695522752 0  0.2950977245128307 0.2038180695522663 0  0.5688286748170693 0.203818069552238 0  0.2950977245127906 0.1961819304477774 0  0.3473758401723931 0.1961819304478349 0  0.4145905603061963 0.1961819304479011 0  0.2601812407614425 0.2056861609747042
[...]
<PointData  Vectors="f_40-0"> 
<DataArray  type="Float64"  Name="f_40-0"  NumberOfComponents="3" format="ascii">0.0000000000000000e+00 0.0000000000000000e+00 0.0000000000000000e+00  0.0000000000000000e+00 0.0000000000000000e+00 0.0000000000000000e+00  0.0000000000000000e+00 0.0000000000000000e+00 0.0000000000000000e+00  0.0000000000000000e+00 0.0000000000000000e+00 0.0000000000000000e+00  1.4335663778024246e-09 -1.9524026379215695e-10 0.0000000000000000e+00  -1.7579010240257471e-09 -3.4427757543521370e-09 0.0000000000000000e+00  0.0000000000000000e+00 0.0000000000000000e+00 0.0000000000000000e+00  0.0000000000000000e+00 0.0000000000000000e+00 0.0000000000000000e+00  0.0000000000000000e+00 0.0000000000000000e+00 0.0000000000000000e+00  0.0000000000000000e+00 0.0000000000000000e+00 0.0000000000000000e+00  -3.0990289960746069e-10 -1.6750647948562931e-08 0.0000000000000000e+00  7.9591836734548405e-01 0.0000000000000000e+00 0.0000000000000000e+00  1.4693877550994523e+00 0.0000000000000000e+00 0.0000000000000000e+00  2.0204081632617479e+00 0.0000000000000000e+00 0.0000000000000000e+00  2.4489795918330071e+00 0.0000000000000000e+00 0.0000000000000000e+00  2.7551020408131754e+00 0.0000000000000000e+00 0.0000000000000000e+00  2.9387755102022344e+00 0.0000000000000000e+00 0.0000000000000000e+00  3.0000000000000004e+00 0.0000000000000000e+00 0.0000000000000000e+00  2.9387755102059474e+00 0.0000000000000000e+00 0.0000000000000000e+00  2.7551020408195543e+00 0.0000000000000000e+00 0.0000000000000000e+00  2.4489795918409065e+00 0.0000000000000000e+00 0.0000000000000000e+00  2.0204081632692521e+00 0.0000000000000000e+00 0.0000000000000000e+00  1.4693877551058563e+00 0.0000000000000000e+00 0.0000000000000000e+00  7.9591836734909216e-01 0.0000000000000000e+00 0.0000000000000000e+00  0.0000000000000000e+00 0.0000000000000000e+00 0.0000000000000000e+00  0.0000000000000000e+00 0.0000000000000000e+00 0.0000000000000000e+00  0.0000000000000000e+00 0.0000000000000000e+00 0.0000000000000000e+00  0.0000000000000000e+00 0.0000000000000000e+00 0.0000000000000000e+00  0.0000000000000000e+00 0.0000000000000000e+00 0.0000000000000000e+00  0.0000000000000000e+00 0.0000000000000000e+00 0.0000000000000000e+00  0.0000000000000000e+00 0.0000000000000000e+00 0.0000000000000000e+00  0.0000000000000000e+00 0.0000000000000000e+00 0.0000000000000000e+00  0.0000000000000000e+00 0.0000000000000000e+00 0.0000000000000000e+00  0.0000000000000000e+00 0.0000000000000000e+00 0.0000000000000000e+00  0.0000000000000000e+00 0.0000000000000000e+00 0.0000000000000000e+00  0.0000000000000000e+00 0.0000000000000000e+00 0.0000000000000000e+00  0.0000000000000000e+00 0.0000000000000000e+00 0.0000000000000000e+00  0.0000000000000000e+00 0.0000000000000000e+00 0.0000000000000000e+00  0.0000000000000000e+00 0.0000000000000000e+00 0.0000000000000000e+00  0.0000000000000000e+00 0.0000000000000000e+00 0.0000000000000000e+00  0.0000000000000000e+00 0.0000000000000000e+00 0.0000000000000000e+00  0.0000000000000000e+00 0.0000000000000000e+00 0.0000000000000000e+00  0.0000000000000000e+00 0.0000000000000000e+00 0.0000000000000000e+00  0.0000000000000000e+00 0.0000000000000000e+00 0.0000000000000000e+00  0.0000000000000000e+00 0.0000000000000000e+00 0.0000000000000000e+00  0.0000000000000000e+00 0.0000000000000000e+00 0.0000000000000000e+00  0.0000000000000000e+00 0.0000000000000000e+00 0.0000000000000000e+00  0.0000000000000000e+00 0.0000000000000000e+00 0.0000000000000000e+00  0.0000000000000000e+00 0.0000000000000000e+00 0.0000000000000000e+00  0.0000000000000000e+00 0.0000000000000000e+00 0.0000000000000000e+00  0.0000000000000000e+00 0.0000000000000000e+00 0.0000000000000000e+00  0.0000000000000000e+00 0.0000000000000000e+00 0.0000000000000000e+00  0.0000000000000000e+00 0.0000000000000000e+00 0.0000000000000000e+00  0.0000000000000000e+00 0.0000000000000000e+00 0.0000000000000000e+00  0.0000000000000000e+00 0.0000000000000000e+00 0.0000000000000000e+00  0.0000000000000000e+00 0.0000000000000000e+00 0.0000000000000000e+00  0.0000000000000000e+00 0.0000000000000000e+00 0.0000000000000000e+00  0.0000000000000000e+00 0.0000000000000000e+00 0.0000000000000000e+00  0.0000000000000000e+00 0.0000000000000000e+00 0.0000000000000000e+00  0.0000000000000000e+00 0.0000000000000000e+00 0.0000000000000000e+00  0.0000000000000000e+00 0.0000000000000000e+00 0.0000000000000000e+00  0.0000000000000000e+00 0.0000000000000000e+00 0.0000000000000000e+00  2.6635595562271952e+00 1.8856189307966800e-02 0.0000000000000000e+00  2.3248113345439734e+00 1.8904562187629544e-02 0.0000000000000000e+00  2.8346221872401882e+00 7.1598131763062914e-02 0.0000000000000000e+00  0.0000000000000000e+00 0.0000000000000000e+00 0.0000000000000000e+00  0.0000000000000000e+00 0.0000000000000000e+00 0.0000000000000000e+00  0.0000000000000000e+00 0.0000000000000000e+00 0.0000000000000000e+00  0.0000000000000000e+00 0.0000000000000000e+00 0.0000000000000000e+00  0.0000000000000000e+00 0.0000000000000000e+00 0.0000000000000000e+00  0.0000000000000000e+00 0.0000000000000000e+00 0.0000000000000000e+00  0.0000000000000000e+00 0.0000000000000000e+00 0.0000000000000000e+00  0.0000000000000000e+00 0.0000000000000000e+00 0.0000000000000000e+00  0.0000000000000000e+00 0.0000000000000000e+00 0.0000000000000000e+00  0.0000000000000000e+00 0.0000000000000000e+00 0.0000000000000000e+00  0.0000000000000000e+00 0.0000000000000000e+00 0.0000000000000000e+00  0.0000000000000000e+00 0.0000000000000000e+00 0.0000000000000000e+00  0.0000000000000000e+00 0.0000000000000000e+00 0.0000000000000000e+00  0.0000000000000000e+00 0.0000000000000000e+00 0.0000000000000000e+00  0.0000000000000000e+00 0.0000000000000000e+00 0.0000000000000000e+00  0.0000000000000000e+00 0.0000000000000000e+00 0.0000000000000000e+00  0.0000000000000000e+00 0.0000000000000000e+00 0.0000000000000000e+00  0.0000000000000000e+00 0.0000000000000000e+00 0.0000000000000000e+00  0.0000000000000000e+00 0.0000000000000000e+00 0.0000000000000000e+00  0.0000000000000000e+00 0.0000000000000000e+00 0.0000000000000000e+00  0.0000000000000000e+00 0.0000000000000000e+00 0.0000000000000000e+00  0.0000000000000000e+00 0.0000000000000000e+00 0.0000000000000000e+00  0.0000000000000000e+00 0.0000000000000000e+00 0.0000000000000000e+00  0.0000000000000000e+00 0.0000000000000000e+00 0.0000000000000000e+00  0.0000000000000000e+00 0.0000000000000000e+00 0.0000000000000000e+00  0.0000000000000000e+00 0.0000000000000000e+00 0.0000000000000000e+00  0.0000000000000000e+00 0.0000000000000000e+00 0.0000000000000000e+00  0.0000000000000000e+00 0.0000000000000000e+00 0.0000000000000000e+00  0.0000000000000000e+00 0.0000000000000000e+00 0.0000000000000000e+00  0.0000000000000000e+00 0.0000000000000000e+00 0.0000000000000000e+00  0.0000000000000000e+00 0.0000000000000000e+00 0.0000000000000000e+00  0.0000000000000000e+00 0.0000000000000000e+00 0.0000000000000000e+00  0.0000000000000000e+00 0.0000000000000000e+00 0.0000000000000000e+00  0.0000000000000000e+00 0.0000000000000000e+00 0.0000000000000000e+00  0.0000000000000000e+00 0.0000000000000000e+00 0.0000000000000000e+00  0.0000000000000000e+00 0.0000000000000000e+00 0.0000000000000000e+00  0.0000000000000000e+00 0.0000000000000000e+00 0.0000000000000000e+00  0.0000000000000000e+00 0.0000000000000000e+00 0.0000000000000000e+00  0.0000000000000000e+00 0.0000000000000000e+00 0.0000000000000000e+00  0.0000000000000000e+00 0.0000000000000000e+00 0.0000000000000000e+00  0.0000000000000000e+00 0.0000000000000000e+00 0.0000000000000000e+00  0.0000000000000000e+00 0.0000000000000000e+00 0.0000000000000000e+00  0.0000000000000000e+00 0.0000000000000000e+00 0.0000000000000000e+00  0.0000000000000000e+00 0.0000000000000000e+00 0.0000000000000000e+00  0.0000000000000000e+00 0.0000000000000000e+00 0.0000000000000000e+00  0.0000000000000000e+00 0.0000000000000000e+00 0.0000000000000000e+00  0.0000000000000000e+00 0.0000000000000000e+00 0.0000000000000000e+00  0.0000000000000000e+00 0.0000000000000000e+00 0.0000000000000000e+00  0.0000000000000000e+00 0.0000000000000000e+00 0.0000000000000000e+00  0.0000000000000000e+00 0.0000000000000000e+00 0.0000000000000000e+00  0.0000000000000000e+00 0.0000000000000000e+00 0.0000000000000000e+00  0.0000000000000000e+00 0.0000000000000000e+00 0.0000000000000000e+00  0.0000000000000000e+00 0.0000000000000000e+00 0.0000000000000000e+00  0.0000000000000000e+00 0.0000000000000000e+00 0.0000000000000000e+00  0.0000000000000000e+00 0.0000000000000000e+00 0.0000000000000000e+00  0.0000000000000000e+00 0.0000000000000000e+00 0.0000000000000000e+00  0.0000000000000000e+00 0.0000000000000000e+00 0.0000000000000000e+00  0.0000000000000000e+00 0.0000000000000000e+00 0.0000000000000000e+00  0.0000000000000000e+00 0.0000000000000000e+00 0.0000000000000000e+00  0.0000000000000000e+00 0.0000000000000000e+00 0.0000000000000000e+00  0.0000000000000000e+00 0.0000000000000000e+00 0.0000000000000000e+00  0.0000000000000000e+00 0.0000000000000000e+00 0.0000000000000000e+00  0.0000000000000000e+00 0.0000000000000000e+00 0.0000000000000000e+00  0.0000000000000000e+00 0.0000000000000000e+00 0.0000000000000000e+00  0.0000000000000000e+00 0.0000000000000000e+00 0.0000000000000000e+00  0.0000000000000000e+00 0.0000000000000000e+00 0.0000000000000000e+00  0.0000000000000000e+00 0.0000000000000000e+00 0.0000000000000000e+00  0.0000000000000000e+00 0.0000000000000000e+00 0.0000000000000000e+00  0.0000000000000000e+00 0.0000000000000000e+00 0.0000000000000000e+00  0.0000000000000000e+00 0.0000000000000000e+00 0.0000000000000000e+00  0.0000000000000000e+00 0.0000000000000000e+00 0.0000000000000000e+00  0.0000000000000000e+00 0.0000000000000000e+00 0.0000000000000000e+00  0.0000000000000000e+00 0.0000000000000000e+00 0.0000000000000000e+00  0.0000000000000000e+00 0.0000000000000000e+00 0.0000000000000000e+00  0.0000000000000000e+00 0.0000000000000000e+00 0.0000000000000000e+00  0.0000000000000000e+00 0.0000000000000000e+00 0.0000000000000000e+00  0.0000000000000000e+00 0.0000000000000000e+00 0.0000000000000000e+00  0.0000000000000000e+00 0.0000000000000000e+00 0.0000000000000000e+00  4.8371793180690610e-11 -1.4500330245514121e-10 0.0000000000000000e+00  6.2474723019029753e-11 -2.1931373443502102e-10 0.0000000000000000e+00  9.4370822357807924e-11 -3.2252215348702599e-10 0.0000000000000000e+00  1.1295492626668257e-10 -4.2804190269941277e-10 0.0000000000000000e+00  1.4675487415770089e-10 -5.6532988978051959e-10 0.0000000000000000e+00  1.5709804953293940e-10 -7.5132904582254500e-10 0.0000000000000000e+00  1.9821572435183455e-10 -8.4982880198155374e-10 0.0000000000000000e+00  2.1137761861876197e-10 -1.1279705571834864e-09 0.0000000000000000e+00  2.2778577442613770e-10 -1.3298689766640859e-09 0.0000000000000000e+00  2.5753102893861775e-10 -1.5815916429339761e-09 0.0000000000000000e+00  2.6642692274454387e-10 -1.8482010288092130e-09 0.0000000000000000e+00  2.9423241136111216e-10 -2.1356012485895267e-09 0.0000000000000000e+00  2.9410593636638524e-10 -2.4373321591554560e-09 0.0000000000000000e+00  3.3400627652560200e-10 -2.7633464364030459e-09 0.0000000000000000e+00  3.2980278593428974e-10 -3.0870837803089428e-09 0.0000000000000000e+00  3.4668241820481698e-10 -3.4548484646816087e-09 0.0000000000000000e+00  3.6226335900415568e-10 -3.8103677930389795e-09 0.0000000000000000e+00  3.6967742739471612e-10 -4.1976274126592467e-09 0.0000000000000000e+00  3.8333764974492083e-10 -4.5855962743326832e-09 0.0000000000000000e+00  3.8745971258339592e-10 -4.9860998593340346e-09 0.0000000000000000e+00  3.9889615593342382e-10 -5.3991683141773181e-09 0.0000000000000000e+00  3.9604225130584915e-10 -5.7758256421720455e-09 0.0000000000000000e+00  4.2667881226355880e-10 -6.3647932943169463e-09 0.0000000000000000e+00  4.0916742068382631e-10 -6.6469043636484388e-09 0.0000000000000000e+00  4.1794265865085525e-10 -7.1378061563509705e-09 0.0000000000000000e+00  4.2184597720923507e-10 -7.5724410645968169e-09 0.0000000000000000e+00  4.2426714650162612e-10 -8.0475972111709411e-09 0.0000000000000000e+00  4.2625460608881990e-10 -8.5018535195263679e-09 0.0000000000000000e+00  4.2721706006694205e-10 -8.9721539097603659e-09 0.0000000000000000e+00  4.2755657725562957e-10 -9.4484118756056979e-09 0.0000000000000000e+00  4.2705569313176153e-10 -9.9176455405064582e-09 0.0000000000000000e+00  4.2600857489415745e-10 -1.0396462891914082e-08 0.0000000000000000e+00  4.2424461737809035e-10 -1.0884045785006807e-08 0.0000000000000000e+00  4.2160694499940918e-10 -1.1346791194220693e-08 0.0000000000000000e+00  4.1878749946263766e-10 -1.1835603989491114e-08 0.0000000000000000e+00  4.1494609544316964e-10 -1.2308379987217992e-08 0.0000000000000000e+00  4.1076324212654662e-10 -1.2788714601090872e-08 0.0000000000000000e+00  4.0579954214891938e-10 -1.3261981577143099e-08 0.0000000000000000e+00  3.9962690290647940e-10 -1.3715839785881266e-08 0.0000000000000000e+00  3.9368154649091647e-10 -1.4181094618905301e-08 0.0000000000000000e+00  3.7942145402502159e-10 -1.4523032808161263e-08 0.0000000000000000e+00  4.0211887673442792e-10 -1.5573513923345733e-08 0.0000000000000000e+00  3.5757030540350910e-10 -1.5318331280844423e-08 0.0000000000000000e+00  3.4600453287639083e-10 -1.5749133445033473e-08 0.0000000000000000e+00  3.3489433760338910e-10 -1.6332926208261176e-08 0.0000000000000000e+00  4.0285251122170681e-10 -1.6066636556507317e-08 0.0000000000000000e+00  3.9387790869427340e-11 -1.7130707743325279e-08 0.0000000000000000e+00  -6.2739057300801893e-10 -1.6542718062554065e-08 0.0000000000000000e+00  -9.8753157644914442e-10 -1.6257336155910796e-08 0.0000000000000000e+00  -9.0731270362422679e-10 -1.6183378182602209e-08 0.0000000000000000e+00  -9.3512009994406977e-10 -1.5919498358259978e-08 0.0000000000000000e+00  -9.2483757706300720e-10 -1.5278294230268035e-08 0.0000000000000000e+00  -9.5002329892787943e-10 -1.5547515202926448e-08 0.0000000000000000e+00  -9.2553096636134476e-10 -1.4502967396552386e-08 0.0000000000000000e+00  -9.3123083011636547e-10 -1.4259112001115407e-08 0.0000000000000000e+00  -9.2568142294514097e-10 -1.3764143126682574e-08 0.0000000000000000e+00  -9.2094928463740717e-10 -1.3296656106533965e-08 0.0000000000000000e+00  -9.1559014357731393e-10 -1.2821220866907135e-08 0.0000000000000000e+00  -9.0939282519061723e-10 -1.2345117364876447e-08 0.0000000000000000e+00  -9.0274201142365764e-10 -1.1862749851781081e-08 0.0000000000000000e+00  -8.9523953448975240e-10 -1.1380342042488147e-08 0.0000000000000000e+00  -8.8731206894390628e-10 -1.0897373153386796e-08 0.0000000000000000e+00  -8.7860285509162250e-10 -1.0415951873868952e-08 0.0000000000000000e+00  -8.6913557826435620e-10 -9.9355642214218674e-09 0.0000000000000000e+00  -8.5921199834831035e-10 -9.4599537127908991e-09 0.0000000000000000e+00  -8.4796747669840708e-10 -8.9850625756391926e-09 0.0000000000000000e+00  -8.3660869377353263e-10 -8.5132646662914453e-09 0.0000000000000000e+00  -8.2337116066162591e-10 -8.0459770016161776e-09 0.0000000000000000e+00  -8.1042473300087525e-10 -7.5827802198988506e-09 0.0000000000000000e+00  -7.9569719495904563e-10 -7.1350963963123784e-09 0.0000000000000000e+00  -7.7498706569575979e-10 -6.6354346052424208e-09 0.0000000000000000e+00  -7.7339905083983177e-10 -6.3367397522200532e-09 0.0000000000000000e+00  -7.3813451827996362e-10 -5.7561090630204643e-09 0.0000000000000000e+00  -7.2466247463364721e-10 -5.3559335230704921e-09 0.0000000000000000e+00  -7.0280135739356894e-10 -4.9540356845106731e-09 0.0000000000000000e+00  -6.8238679471222878e-10 -4.5404657159002411e-09 0.0000000000000000e+00  -6.5803236393930283e-10 -4.1640707851552789e-09 0.0000000000000000e+00  -6.3552185295298595e-10 -3.7747676223248233e-09 0.0000000000000000e+00  -6.0756302957142033e-10 -3.4223916337307213e-09 0.0000000000000000e+00  -5.8036719248559567e-10 -3.0574022093565283e-09 0.0000000000000000e+00  -5.6744889785379584e-10 -2.7407772081331902e-09 0.0000000000000000e+00  -5.1795315225068155e-10 -2.4077998651750960e-09 0.0000000000000000e+00  -4.9586529912834159e-10 -2.1162354607344249e-09 0.0000000000000000e+00  -4.5890870165954958e-10 -1.8258564769462669e-09 0.0000000000000000e+00  -4.2858300244909248e-10 -1.5626647451028887e-09 0.0000000000000000e+00  -3.8698049035826945e-10 -1.3166719031654280e-09 0.0000000000000000e+00  -3.5496628610822139e-10 -1.1027702892701841e-09 0.0000000000000000e+00  -3.2427574950737903e-10 -8.2606616707648193e-10 0.0000000000000000e+00  -2.6813605452466978e-10 -7.2241625769251719e-10 0.0000000000000000e+00  -2.3744161318383410e-10 -5.4898800313410149e-10 0.0000000000000000e+00  -1.8656086601895081e-10 -4.1323350500530655e-10 0.0000000000000000e+00  -1.5038166518695755e-10 -2.9187527227267754e-10 0.0000000000000000e+00  -9.6938942885598046e-11 -1.9403933231450106e-10 0.0000000000000000e+00  -6.1743904497229074e-11 -1.4203159793685461e-10 0.0000000000000000e+00  -1.6407108944747469e-11 -6.1607227261284206e-11 0.0000000000000000e+00  -2.7200221600323601e-10 -1.7658930150914779e-08 0.0000000000000000e+00  -2.6708795990379819e-10 -1.6584375830513242e-08 0.0000000000000000e+00  -2.5664472077228435e-10 -1.5046543549170078e-08 0.0000000000000000e+00  -3.2996028043950436e-11 -2.2884392899768221e-10 0.0000000000000000e+00  -2.5433450438975060e-10 -1.4063674099487770e-08 0.0000000000000000e+00  -5.2249246213930612e-11 -4.9777357997658640e-10 0.0000000000000000e+00  -2.4406458854481219e-10 -1.3045428592911725e-08 0.0000000000000000e+00  -7.9574254810839611e-11 -1.1293379094780101e-09 0.0000000000000000e+00  -9.0354116724929884e-11 -1.6392029083552434e-09 0.0000000000000000e+00  -2.3379684911535591e-10 -1.2027922399806142e-08 0.0000000000000000e+00  -1.3303822252537328e-10 -3.2922996792712131e-09 0.0000000000000000e+00  -2.1304471957403138e-10 -1.0012144611560213e-08 0.0000000000000000e+00  -1.1027443580973190e-10 -2.2154125904414287e-09 0.0000000000000000e+00  -1.3890210233342476e-10 -4.0456809121781057e-09 0.0000000000000000e+00  -2.0249776586386697e-10 -9.0219952325465410e-09 0.0000000000000000e+00  -2.2346214346803676e-10 -1.1015721586108706e-08 0.0000000000000000e+00  -1.5141867685944282e-10 -4.8663407845382372e-09 0.0000000000000000e+00  -1.9180014157481920e-10 -8.0496531476496213e-09 0.0000000000000000e+00  -1.7099928746052139e-10 -5.6923461683030024e-09 0.0000000000000000e+00  -1.7297575294127571e-10 -7.1160305913082794e-09 0.0000000000000000e+00  -1.7043477177666688e-10 -6.4411688443683282e-09 0.0000000000000000e+00  -1.1338221717970733e-10 -2.7139341185761704e-09 0.0000000000000000e+00  -2.7191993692854626e-10 -1.6180934845427357e-08 0.0000000000000000e+00  -6.1869098606916217e-11 -7.3485374914454807e-10 0.0000000000000000e+00  -5.3630430535569991e-10 -1.7694118622369390e-08 0.0000000000000000e+00  -6.3435306646138662e-11 -6.5656658058634522e-11 0.0000000000000000e+00  -4.5758572020262857e-10 -1.3902635600928249e-08 0.0000000000000000e+00  -4.6893537254707345e-10 -1.4966860857910841e-08 0.0000000000000000e+00  2.6005938023268992e-11 -2.9197788828802153e-10 0.0000000000000000e+00  2.6732071384720583e-11 -1.3307320223885867e-09 0.0000000000000000e+00  -4.2129938340639672e-10 -1.0747525391264590e-08 0.0000000000000000e+00  -4.4588828231617906e-10 -1.2840533805995034e-08 0.0000000000000000e+00  2.8147453499577315e-11 -3.6913451373827178e-09 0.0000000000000000e+00  -4.0796635470594503e-10 -9.7197029662950403e-09 0.0000000000000000e+00  2.8336636053649182e-11 -1.9108534909734715e-09 0.0000000000000000e+00  2.6059605282492428e-11 -4.5106370647412460e-09 0.0000000000000000e+00  -3.9369559876140952e-10 -8.7097521983634384e-09 0.0000000000000000e+00  -4.3387830430769445e-10 -1.1788670876452883e-08 0.0000000000000000e+00  6.0037160449356648e-11 -5.3734474987045143e-09 0.0000000000000000e+00  -3.7820640685510528e-10 -7.7200918170238437e-09 0.0000000000000000e+00  -4.4168739692425267e-12 -2.0580785286273126e-12 0.0000000000000000e+00  -1.3948731009355631e-11 5.5847033697270864e-12 0.0000000000000000e+00  -1.8969036822226757e-10 -1.8384849180405061e-08 0.0000000000000