<?xml version="1.0"?>
<VTKFile type="UnstructuredGrid"  version="0.1"  >
<UnstructuredGrid>
<Piece  NumberOfPoints="1419" NumberOfCells="2698">
<Points>
<DataArray  type="Float64"  NumberOfComponents="3"  format="ascii">0 0 0  0 0.41 0  2.5 0 0  2.5 0.41 0  0.6 0.19 0  0.6 0.21 0  0.25 0.2 0  0.15 0.2 0  0.2489897948556636 0.21 0  0.2489897948556636 0.19 0  0.6 0.2 0  0 0.3807142857143437 0  0 0.3514285714286952 0  0 0.3221428571430699 0  0 0.29285714285744 0  0 0.2635714285718054 0  0 0.2342857142861561 0  0 0.2050000000005308 0  0 0.175714285714732 0  0 0.1464285714289574 0  0 0.1171428571431897 0  0 0.08785714285737878 0  0 0.05857142857161107 0  0 0.02928571428580012 0  0.03015443760436003 0 0  0.06140001986583606 0 0  0.09377624077125973 0 0  0.1273239957535082 0 0  0.1620856860351972 0 0  0.1981052433264291 0 0  0.235428184091502 0 0  0.2741016576309132 0 0  0.3141745521465447 0 0  0.3556974926295285 0 0  0.3987229542472677 0 0  0.4433053055141081 0 0  0.4895008759286886 0 0  0.5373680609405097 0 0  0.5869673343216626 0 0  0.6383613676634521 0 0  0.6916151138468254 0 0  0.7467958595648856 0 0  0.8039733463919316 0 0  0.8632198139502143 0 0  0.9246101326867038 0 0  0.9882218810934433 0 0  1.054135445558498 0 0  1.122434100542598 0 0  1.193204177141305 0 0  1.266535089879536 0 0  1.342519516046404 0 0  1.421253448503939 0 0  1.502836389106271 0 0  1.587371439758838 0 0  1.674965418777374 0 0  1.765729001825544 0 0  1.859776908880082 0 0  1.957227977487062 0 0  2.058205329869943 0 0  2.162836591189951 0 0  2.271253957290865 0 0  2.383594446803425 0 0  2.5 0.1024999999997612 0  2.5 0.2049999999994743 0  2.5 0.3074999999997183 0  2.383594446803656 0.41 0  2.271253957291315 0.41 0  2.162836591190598 0.41 0  2.058205329870775 0.41 0  1.957227977488067 0.41 0  1.859776908881246 0.41 0  1.765729001826854 0.41 0  1.674965418778818 0.41 0  1.58737143976041 0.41 0  1.502836389107956 0.41 0  1.421253448505726 0.41 0  1.342519516048286 0.41 0  1.266535089881505 0.41 0  1.193204177143353 0.41 0  1.122434100544716 0.41 0  1.05413544556068 0.41 0  0.9882218810956305 0.41 0  0.9246101326886647 0.41 0  0.8632198139519631 0.41 0  0.8039733463934788 0.41 0  0.7467958595662458 0.41 0  0.6916151138480078 0.41 0  0.6383613676644679 0.41 0  0.5869673343225223 0.41 0  0.5373680609412221 0.41 0  0.4895008759292634 0.41 0  0.4433053055145528 0.41 0  0.3987229542475914 0.41 0  0.3556974926297398 0.41 0  0.3141745521466497 0.41 0  0.2741016576310038 0.41 0  0.2354281840915826 0.41 0  0.1981052433265003 0.41 0  0.1620856860352591 0.41 0  0.1273239957535623 0.41 0  0.09377624077128965 0.41 0  0.06140001986584975 0.41 0  0.03015443760436654 0.41 0  0.2497468076502589 0.2050254481002335 0  0.2497468076502614 0.1949745518997913 0  0.2469965252529372 0.1829317073451959 0  0.2439893735792749 0.1762316384219906 0  0.2400332147834255 0.1700443375285386 0  0.2352133972704371 0.1645032867342007 0  0.2296339016332438 0.1597280261969788 0  0.2234150974217223 0.1558215752574715 0  0.2166911463437691 0.1528682099456123 0  0.2096071079204251 0.1509316448471593 0  0.2023158100364996 0.1500536585536553 0  0.194974551899914 0.1502531923497262 0  0.1877417105387872 0.1515259415822739 0  0.1807733240461124 0.153844448527136 0  0.1742197252835808 0.15715869474974 0  0.1682222986673531 0.1613971801805478 0  0.162910430003803 0.1664684656256651 0  0.1583987151779087 0.1722631454351573 0  0.1547844879126891 0.178656207771761 0  0.1521457199348551 0.1855097315605723 0  0.1505393388476355 0.1926758619366523 0  0.1505393388476328 0.2073241380633295 0  0.1521457199348437 0.2144902684393899 0  0.1547844879126531 0.221343792228163 0  0.1583987151778488 0.2277368545647528 0  0.1629104300036858 0.2335315343742052 0  0.1682222986671726 0.2386028198193036 0  0.1742197252833576 0.2428413052501257 0  0.1807733240458683 0.2461555514727623 0  0.1877417105384929 0.2484740584176516 0  0.1949745518995776 0.2497468076502398 0  0.202315810036185 0.2499463414463592 0  0.2096071079201568 0.2490683551528932 0  0.2166911463435495 0.2471317900544655 0  0.2234150974215506 0.2441784247426195 0  0.2296339016331197 0.2402719738031125 0  0.2352133972703547 0.2354967132658811 0  0.2400332147833751 0.2299556624715287 0  0.2439893735792577 0.2237683615780412 0  0.246996525252926 0.2170682926548348 0  0.25645809709277 0.21 0  0.2639263993298655 0.21 0  0.271394701566961 0.21 0  0.2788630038040554 0.21 0  0.2863313060411479 0.21 0  0.2937996082782405 0.21 0  0.301267910515333 0.21 0  0.3087362127524279 0.21 0  0.3162045149895234 0.21 0  0.3236728172265972 0.21 0  0.3311411194636928 0.21 0  0.3386094217007701 0.21 0  0.3460777239378666 0.21 0  0.3535460261749672 0.21 0  0.3610143284120516 0.21 0  0.3684826306491596 0.21 0  0.3759509328862226 0.21 0  0.383419235123329 0.21 0  0.3908875373604028 0.21 0  0.3983558395975142 0.21 0  0.4058241418345938 0.21 0  0.4132924440716992 0.21 0  0.4207607463087888 0.21 0  0.4282290485459029 0.21 0  0.4356973507830418 0.21 0  0.4431656530201649 0.21 0  0.4506339552573136 0.21 0  0.4581022574944306 0.21 0  0.4655705597315852 0.21 0  0.4730388619686996 0.21 0  0.480507164205851 0.21 0  0.4879754664429498 0.21 0  0.4954437686800938 0.21 0  0.502912070917267 0.21 0  0.5103803731544119 0.21 0  0.5178486753915261 0.21 0  0.5253169776286404 0.21 0  0.5327852798657868 0.21 0  0.5402535821029386 0.21 0  0.54772188434007 0.21 0  0.5551901865771842 0.21 0  0.5626584888143201 0.21 0  0.5701267910514778 0.21 0  0.5775950932886138 0.21 0  0.5850633955257281 0.21 0  0.5925316977628483 0.21 0  0.6 0.2050000000000054 0  0.6 0.1950000000000217 0  0.5925316977628897 0.19 0  0.5850633955257988 0.19 0  0.5775950932887378 0.19 0  0.5701267910515998 0.19 0  0.5626584888145268 0.19 0  0.5551901865773963 0.19 0  0.547721884340339 0.19 0  0.5402535821032429 0.19 0  0.5327852798661811 0.19 0  0.5253169776290537 0.19 0  0.5178486753919799 0.19 0  0.5103803731549078 0.19 0  0.502912070917822 0.19 0  0.4954437686807294 0.19 0  0.4879754664436223 0.19 0  0.4805071642065402 0.19 0  0.4730388619694271 0.19 0  0.4655705597323621 0.19 0  0.4581022574952563 0.19 0  0.4506339552581777 0.19 0  0.4431656530210671 0.19 0  0.4356973507839815 0.19 0  0.4282290485468779 0.19 0  0.4207607463097617 0.19 0  0.4132924440726327 0.19 0  0.4058241418354857 0.19 0  0.3983558395983636 0.19 0  0.3908875373612097 0.19 0  0.3834192351240934 0.19 0  0.3759509328869369 0.19 0  0.3684826306498175 0.19 0  0.361014328412667 0.19 0  0.3535460261755617 0.19 0  0.3460777239384295 0.19 0  0.3386094217012945 0.19 0  0.3311411194641595 0.19 0  0.3236728172270245 0.19 0  0.3162045149898895 0.19 0  0.3087362127527544 0.19 0  0.3012679105156187 0.19 0  0.2937996082784807 0.19 0  0.2863313060413428 0.19 0  0.2788630038042048 0.19 0  0.2713947015670686 0.19 0  0.2639263993299336 0.19 0  0.2564580970927985 0.19 0  0.2607803159922026 0.2000727136295815 0  0.5887803774232762 0.2001272386983733 0  0.5745072403740523 0.2002044435018727 0  0.5511891430099709 0.2001122610077113 0  0.2751288526855082 0.20000000000002 0  0.5365194309847112 0.1999999999999436 0  0.2894621222999649 0.1998691686390484 0  0.5215828265105155 0.1999999999999228 0  0.3127789816668748 0.1998657885438805 0  0.3274069683451451 0.2000000000000796 0  0.5066462220363641 0.199999999999908 0  0.3650630746574081 0.199866017807523 0  0.476773013087985 0.1999999999998713 0  0.3417402379596385 0.1998691686391011 0  0.3796850840047755 0.200000000000134 0  0.4618364086138087 0.1999999999998546 0  0.4917096175621762 0.1999999999998808 0  0.3946216884789568 0.2000000000001512 0  0.446899804139621 0.1999999999998389 0  0.4089549580935208 0.1998691686391595 0  0.4322718174608562 0.200127451265745 0  0.4201487168029707 0.1999966199048527 0  0.3528922713220932 0.2000185703532356 0  0.5633122436674589 0.1999814296467508 0  0.3006558810093873 0.1999966199048318 0  0.5815926498168407 0.1966545283159175 0  0.2677053789419034 0.1964246479135325 0  0.5290511287476175 0.1970915826863981 0  0.5439877332217911 0.197091582686394 0  0.2825131256993216 0.2035478995978015 0  0.3199386661080599 0.202908417313604 0  0.4842413153250809 0.1970915826863873 0  0.5141145242734466 0.1970915826863843 0  0.3722167817676917 0.2029084173136195 0  0.4693047108508938 0.1970915826863783 0  0.3348752705822316 0.202908417313609 0  0.3871533862418661 0.2029084173136212 0  0.4543681063767183 0.1970915826863795 0  0.4991779197992749 0.1970915826863902 0  0.4020059614928624 0.203547899597858 0  0.4394315019025246 0.1970915826863714 0  0.2550657455369551 0.2034088125358657 0  0.2548908499171161 0.1966940311614271 0  0.5946539510196798 0.2024302972968126 0  0.267698176732111 0.2039977513680092 0  0.4261685417851465 0.196409292431739 0  0.3590076176283495 0.196411355804271 0  0.5571672426447437 0.2036011176410121 0  0.3066757059912147 0.1964092924317024 0  0.594380730180568 0.1966558399668133 0  0.4842413153245942 0.2040749161535287 0  0.4693047108503577 0.2040749161535231 0  0.3871533862424271 0.1959250838464788 0  0.372246743208829 0.1959123236376545 0  0.5141145242731028 0.2040749161535395 0  0.4543681063761134 0.2040749161535186 0  0.4019979587101454 0.1959834479682427 0  0.4394608940728603 0.2040870543693135 0  0.5439623148931173 0.2040856076781014 0  0.5290511287473298 0.2040749161535501 0  0.4991779197988497 0.2040749161535382 0  0.3347912413592433 0.1959225448935183 0  0.3199680582793816 0.1959123018030061 0  0.2825051229162361 0.1959834479681729 0  0.3590471196690275 0.2036304442587945 0  0.5571594006495384 0.1963685282145804 0  0.3067669986803285 0.203627750582736 0  0.4262598344738712 0.2036568242185335 0  0.5814408164431408 0.2041285596160068 0  0.5688286748170428 0.1961819304477386 0  0.4145905603063645 0.2038180695522843 0  0.3473758401724931 0.2038180695522752 0  0.2950977245128307 0.2038180695522663 0  0.5688286748170693 0.203818069552238 0  0.2950977245127906 0.1961819304477774 0  0.3473758401723931 0.1961819304478349 0  0.4145905603061963 0.1961819304479011 0  0.2601812407614425 0.2056861609747042
[...]
<PointData  Vectors="f_40-0"> 
<DataArray  type="Float64"  Name="f_40-0"  NumberOfComponents="3" format="ascii">0.0000000000000000e+00 0.0000000000000000e+00 0.0000000000000000e+00  0.0000000000000000e+00 0.0000000000000000e+00 0.0000000000000000e+00  0.0000000000000000e+00 0.0000000000000000e+00 0.0000000000000000e+00  0.0000000000000000e+00 0.0000000000000000e+00 0.0000000000000000e+00  7.0177795058887917e-07 2.6782021254213449e-05 0.0000000000000000e+00  -1.3075528866306723e-06 2.6757188908844102e-05 0.0000000000000000e+00  0.0000000000000000e+00 0.0000000000000000e+00 0.0000000000000000e+00  0.0000000000000000e+00 0.0000000000000000e+00 0.0000000000000000e+00  0.0000000000000000e+00 0.0000000000000000e+00 0.0000000000000000e+00  0.0000000000000000e+00 0.0000000000000000e+00 0.0000000000000000e+00  -3.0300305839359840e-07 2.6754569238892932e-05 0.0000000000000000e+00  7.9591836734548405e-01 0.0000000000000000e+00 0.0000000000000000e+00  1.4693877550994523e+00 0.0000000000000000e+00 0.0000000000000000e+00  2.0204081632617479e+00 0.0000000000000000e+00 0.0000000000000000e+00  2.4489795918330071e+00 0.0000000000000000e+00 0.0000000000000000e+00  2.7551020408131754e+00 0.0000000000000000e+00 0.0000000000000000e+00  2.9387755102022344e+00 0.0000000000000000e+00 0.0000000000000000e+00  3.0000000000000004e+00 0.0000000000000000e+00 0.0000000000000000e+00  2.9387755102059474e+00 0.0000000000000000e+00 0.0000000000000000e+00  2.7551020408195543e+00 0.0000000000000000e+00 0.0000000000000000e+00  2.4489795918409065e+00 0.0000000000000000e+00 0.0000000000000000e+00  2.0204081632692521e+00 0.0000000000000000e+00 0.0000000000000000e+00  1.4693877551058563e+00 0.0000000000000000e+00 0.0000000000000000e+00  7.9591836734909216e-01 0.0000000000000000e+00 0.0000000000000000e+00  0.0000000000000000e+00 0.0000000000000000e+00 0.0000000000000000e+00  0.0000000000000000e+00 0.0000000000000000e+00 0.0000000000000000e+00  0.0000000000000000e+00 0.0000000000000000e+00 0.0000000000000000e+00  0.0000000000000000e+00 0.0000000000000000e+00 0.0000000000000000e+00  0.0000000000000000e+00 0.0000000000000000e+00 0.0000000000000000e+00  0.0000000000000000e+00 0.0000000000000000e+00 0.0000000000000000e+00  0.0000000000000000e+00 0.0000000000000000e+00 0.0000000000000000e+00  0.0000000000000000e+00 0.0000000000000000e+00 0.0000000000000000e+00  0.0000000000000000e+00 0.0000000000000000e+00 0.0000000000000000e+00  0.0000000000000000e+00 0.0000000000000000e+00 0.0000000000000000e+00  0.0000000000000000e+00 0.0000000000000000e+00 0.0000000000000000e+00  0.0000000000000000e+00 0.0000000000000000e+00 0.0000000000000000e+00  0.0000000000000000e+00 0.0000000000000000e+00 0.0000000000000000e+00  0.0000000000000000e+00 0.0000000000000000e+00 0.0000000000000000e+00  0.0000000000000000e+00 0.0000000000000000e+00 0.0000000000000000e+00  0.0000000000000000e+00 0.0000000000000000e+00 0.0000000000000000e+00  0.0000000000000000e+00 0.0000000000000000e+00 0.0000000000000000e+00  0.0000000000000000e+00 0.0000000000000000e+00 0.0000000000000000e+00  0.0000000000000000e+00 0.0000000000000000e+00 0.0000000000000000e+00  0.0000000000000000e+00 0.0000000000000000e+00 0.0000000000000000e+00  0.0000000000000000e+00 0.0000000000000000e+00 0.0000000000000000e+00  0.0000000000000000e+00 0.0000000000000000e+00 0.0000000000000000e+00  0.0000000000000000e+00 0.0000000000000000e+00 0.0000000000000000e+00  0.0000000000000000e+00 0.0000000000000000e+00 0.0000000000000000e+00  0.0000000000000000e+00 0.0000000000000000e+00 0.0000000000000000e+00  0.0000000000000000e+00 0.0000000000000000e+00 0.0000000000000000e+00  0.0000000000000000e+00 0.0000000000000000e+00 0.0000000000000000e+00  0.0000000000000000e+00 0.0000000000000000e+00 0.0000000000000000e+00  0.0000000000000000e+00 0.0000000000000000e+00 0.0000000000000000e+00  0.0000000000000000e+00 0.0000000000000000e+00 0.0000000000000000e+00  0.0000000000000000e+00 0.0000000000000000e+00 0.0000000000000000e+00  0.0000000000000000e+00 0.0000000000000000e+00 0.0000000000000000e+00  0.0000000000000000e+00 0.0000000000000000e+00 0.0000000000000000e+00  0.0000000000000000e+00 0.0000000000000000e+00 0.0000000000000000e+00  0.0000000000000000e+00 0.0000000000000000e+00 0.0000000000000000e+00  0.0000000000000000e+00 0.0000000000000000e+00 0.0000000000000000e+00  0.0000000000000000e+00 0.0000000000000000e+00 0.0000000000000000e+00  0.0000000000000000e+00 0.0000000000000000e+00 0.0000000000000000e+00  2.6674060280779086e+00 1.5187281162562653e-02 0.0000000000000000e+00  2.3229761137704501e+00 1.6679300489289409e-02 0.0000000000000000e+00  2.8315088678066944e+00 6.9101899039205827e-02 0.0000000000000000e+00  0.0000000000000000e+00 0.0000000000000000e+00 0.0000000000000000e+00  0.0000000000000000e+00 0.0000000000000000e+00 0.0000000000000000e+00  0.0000000000000000e+00 0.0000000000000000e+00 0.0000000000000000e+00  0.0000000000000000e+00 0.0000000000000000e+00 0.0000000000000000e+00  0.0000000000000000e+00 0.0000000000000000e+00 0.0000000000000000e+00  0.0000000000000000e+00 0.0000000000000000e+00 0.0000000000000000e+00  0.0000000000000000e+00 0.0000000000000000e+00 0.0000000000000000e+00  0.0000000000000000e+00 0.0000000000000000e+00 0.0000000000000000e+00  0.0000000000000000e+00 0.0000000000000000e+00 0.0000000000000000e+00  0.0000000000000000e+00 0.0000000000000000e+00 0.0000000000000000e+00  0.0000000000000000e+00 0.0000000000000000e+00 0.0000000000000000e+00  0.0000000000000000e+00 0.0000000000000000e+00 0.0000000000000000e+00  0.0000000000000000e+00 0.0000000000000000e+00 0.0000000000000000e+00  0.0000000000000000e+00 0.0000000000000000e+00 0.0000000000000000e+00  0.0000000000000000e+00 0.0000000000000000e+00 0.0000000000000000e+00  0.0000000000000000e+00 0.0000000000000000e+00 0.0000000000000000e+00  0.0000000000000000e+00 0.0000000000000000e+00 0.0000000000000000e+00  0.0000000000000000e+00 0.0000000000000000e+00 0.0000000000000000e+00  0.0000000000000000e+00 0.0000000000000000e+00 0.0000000000000000e+00  0.0000000000000000e+00 0.0000000000000000e+00 0.0000000000000000e+00  0.0000000000000000e+00 0.0000000000000000e+00 0.0000000000000000e+00  0.0000000000000000e+00 0.0000000000000000e+00 0.0000000000000000e+00  0.0000000000000000e+00 0.0000000000000000e+00 0.0000000000000000e+00  0.0000000000000000e+00 0.0000000000000000e+00 0.0000000000000000e+00  0.0000000000000000e+00 0.0000000000000000e+00 0.0000000000000000e+00  0.0000000000000000e+00 0.0000000000000000e+00 0.0000000000000000e+00  0.0000000000000000e+00 0.0000000000000000e+00 0.0000000000000000e+00  0.0000000000000000e+00 0.0000000000000000e+00 0.0000000000000000e+00  0.0000000000000000e+00 0.0000000000000000e+00 0.0000000000000000e+00  0.0000000000000000e+00 0.0000000000000000e+00 0.0000000000000000e+00  0.0000000000000000e+00 0.0000000000000000e+00 0.0000000000000000e+00  0.0000000000000000e+00 0.0000000000000000e+00 0.0000000000000000e+00  0.0000000000000000e+00 0.0000000000000000e+00 0.0000000000000000e+00  0.0000000000000000e+00 0.0000000000000000e+00 0.0000000000000000e+00  0.0000000000000000e+00 0.0000000000000000e+00 0.0000000000000000e+00  0.0000000000000000e+00 0.0000000000000000e+00 0.0000000000000000e+00  0.0000000000000000e+00 0.0000000000000000e+00 0.0000000000000000e+00  0.0000000000000000e+00 0.0000000000000000e+00 0.0000000000000000e+00  0.0000000000000000e+00 0.0000000000000000e+00 0.0000000000000000e+00  0.0000000000000000e+00 0.0000000000000000e+00 0.0000000000000000e+00  0.0000000000000000e+00 0.0000000000000000e+00 0.0000000000000000e+00  0.0000000000000000e+00 0.0000000000000000e+00 0.0000000000000000e+00  0.0000000000000000e+00 0.0000000000000000e+00 0.0000000000000000e+00  0.0000000000000000e+00 0.0000000000000000e+00 0.0000000000000000e+00  0.0000000000000000e+00 0.0000000000000000e+00 0.0000000000000000e+00  0.0000000000000000e+00 0.0000000000000000e+00 0.0000000000000000e+00  0.0000000000000000e+00 0.0000000000000000e+00 0.0000000000000000e+00  0.0000000000000000e+00 0.0000000000000000e+00 0.0000000000000000e+00  0.0000000000000000e+00 0.0000000000000000e+00 0.0000000000000000e+00  0.0000000000000000e+00 0.0000000000000000e+00 0.0000000000000000e+00  0.0000000000000000e+00 0.0000000000000000e+00 0.0000000000000000e+00  0.0000000000000000e+00 0.0000000000000000e+00 0.0000000000000000e+00  0.0000000000000000e+00 0.0000000000000000e+00 0.0000000000000000e+00  0.0000000000000000e+00 0.0000000000000000e+00 0.0000000000000000e+00  0.0000000000000000e+00 0.0000000000000000e+00 0.0000000000000000e+00  0.0000000000000000e+00 0.0000000000000000e+00 0.0000000000000000e+00  0.0000000000000000e+00 0.0000000000000000e+00 0.0000000000000000e+00  0.0000000000000000e+00 0.0000000000000000e+00 0.0000000000000000e+00  0.0000000000000000e+00 0.0000000000000000e+00 0.0000000000000000e+00  0.0000000000000000e+00 0.0000000000000000e+00 0.0000000000000000e+00  0.0000000000000000e+00 0.0000000000000000e+00 0.0000000000000000e+00  0.0000000000000000e+00 0.0000000000000000e+00 0.0000000000000000e+00  0.0000000000000000e+00 0.0000000000000000e+00 0.0000000000000000e+00  0.0000000000000000e+00 0.0000000000000000e+00 0.0000000000000000e+00  0.0000000000000000e+00 0.0000000000000000e+00 0.0000000000000000e+00  0.0000000000000000e+00 0.0000000000000000e+00 0.0000000000000000e+00  0.0000000000000000e+00 0.0000000000000000e+00 0.0000000000000000e+00  0.0000000000000000e+00 0.0000000000000000e+00 0.0000000000000000e+00  0.0000000000000000e+00 0.0000000000000000e+00 0.0000000000000000e+00  0.0000000000000000e+00 0.0000000000000000e+00 0.0000000000000000e+00  0.0000000000000000e+00 0.0000000000000000e+00 0.0000000000000000e+00  0.0000000000000000e+00 0.0000000000000000e+00 0.0000000000000000e+00  0.0000000000000000e+00 0.0000000000000000e+00 0.0000000000000000e+00  0.0000000000000000e+00 0.0000000000000000e+00 0.0000000000000000e+00  0.0000000000000000e+00 0.0000000000000000e+00 0.0000000000000000e+00  0.0000000000000000e+00 0.0000000000000000e+00 0.0000000000000000e+00  0.0000000000000000e+00 0.0000000000000000e+00 0.0000000000000000e+00  0.0000000000000000e+00 0.0000000000000000e+00 0.0000000000000000e+00  -5.9126032601243322e-08 4.1581795291104259e-08 0.0000000000000000e+00  -1.2604148446798982e-07 1.0924517913490087e-07 0.0000000000000000e+00  -1.8481023270217172e-07 2.2120278969242236e-07 0.0000000000000000e+00  -2.4833926213185914e-07 3.7971435087318166e-07 0.0000000000000000e+00  -3.0132811633950129e-07 5.7709233093895685e-07 0.0000000000000000e+00  -3.6167923544320652e-07 8.1680470848552150e-07 0.0000000000000000e+00  -4.1023615329157835e-07 1.0881289495694360e-06 0.0000000000000000e+00  -4.5750503899852884e-07 1.4006140921363874e-06 0.0000000000000000e+00  -5.1179449554698503e-07 1.7443509815755813e-06 0.0000000000000000e+00  -5.5339280593433612e-07 2.1206336561912001e-06 0.0000000000000000e+00  -6.0403771083058108e-07 2.5286122449101621e-06 0.0000000000000000e+00  -6.4238196072588095e-07 2.9658700316442296e-06 0.0000000000000000e+00  -6.8745871595837706e-07 3.4311251247776886e-06 0.0000000000000000e+00  -7.2354434461169137e-07 3.9190621681394617e-06 0.0000000000000000e+00  -7.5855413650971806e-07 4.4348661430354917e-06 0.0000000000000000e+00  -7.9780114482617892e-07 4.9713748670538823e-06 0.0000000000000000e+00  -8.2821678998029154e-07 5.5293225083899626e-06 0.0000000000000000e+00  -8.6387496908463833e-07 6.1077323606040934e-06 0.0000000000000000e+00  -8.9121526674598365e-07 6.7044516326727362e-06 0.0000000000000000e+00  -9.2258011222922832e-07 7.3179950097536993e-06 0.0000000000000000e+00  -9.4811564712734683e-07 7.9477098092092396e-06 0.0000000000000000e+00  -9.7560718137989780e-07 8.5926591224866353e-06 0.0000000000000000e+00  -9.9824547891672707e-07 9.2484530484216881e-06 0.0000000000000000e+00  -1.0198706137297989e-06 9.9185572552417532e-06 0.0000000000000000e+00  -1.0427898491707037e-06 1.0597649156402661e-05 0.0000000000000000e+00  -1.0623630565761645e-06 1.1287495912188278e-05 0.0000000000000000e+00  -1.0816185176596272e-06 1.1986236740828261e-05 0.0000000000000000e+00  -1.0989259439697604e-06 1.2692325595282808e-05 0.0000000000000000e+00  -1.1158099678658447e-06 1.3405751859637149e-05 0.0000000000000000e+00  -1.1310798258447680e-06 1.4124774066348084e-05 0.0000000000000000e+00  -1.1459008769682676e-06 1.4849486455391315e-05 0.0000000000000000e+00  -1.1593931737652913e-06 1.5578344437593026e-05 0.0000000000000000e+00  -1.1724520181983838e-06 1.6311419915665970e-05 0.0000000000000000e+00  -1.1844508762991879e-06 1.7047471218611658e-05 0.0000000000000000e+00  -1.1960521306365426e-06 1.7786506761114407e-05 0.0000000000000000e+00  -1.2068338313565338e-06 1.8527546538178149e-05 0.0000000000000000e+00  -1.2172772259956572e-06 1.9270621666179780e-05 0.0000000000000000e+00  -1.2271201096237693e-06 2.0014956197883851e-05 0.0000000000000000e+00  -1.2366968398961077e-06 2.0760603237138167e-05 0.0000000000000000e+00  -1.2458560912524125e-06 2.1506960477732745e-05 0.0000000000000000e+00  -1.2548578712799495e-06 2.2254250684474963e-05 0.0000000000000000e+00  -1.2635136877955601e-06 2.3001169820726561e-05 0.0000000000000000e+00  -1.2720737771511066e-06 2.3749827736959103e-05 0.0000000000000000e+00  -1.2805708993193702e-06 2.4497995621506696e-05 0.0000000000000000e+00  -1.2889136838191213e-06 2.5246214184419273e-05 0.0000000000000000e+00  -1.2971324316618288e-06 2.5995436332985193e-05 0.0000000000000000e+00  -8.0414169703188456e-07 2.6748814118846378e-05 0.0000000000000000e+00  1.9815045140628680e-07 2.6760192326793171e-05 0.0000000000000000e+00  7.0731237988190858e-07 2.6016857176460714e-05 0.0000000000000000e+00  7.1530099018440960e-07 2.5267989661390551e-05 0.0000000000000000e+00  7.2313519215471150e-07 2.4519455434289033e-05 0.0000000000000000e+00  7.3082957919577483e-07 2.3771485102714434e-05 0.0000000000000000e+00  7.3845174657141846e-07 2.3022805004638972e-05 0.0000000000000000e+00  7.4595932711958124e-07 2.2275856283222418e-05 0.0000000000000000e+00  7.5308404788844331e-07 2.1528510844356106e-05 0.0000000000000000e+00  7.6018232435656538e-07 2.0782126823133208e-05 0.0000000000000000e+00  7.6660530630830663e-07 2.0036494329654761e-05 0.0000000000000000e+00  7.7307366695902334e-07 1.9292109325845558e-05 0.0000000000000000e+00  7.7852060412844316e-07 1.8549026185188554e-05 0.0000000000000000e+00  7.8410145550828014e-07 1.7807913032783185e-05 0.0000000000000000e+00  7.8822559134623033e-07 1.7068849578503315e-05 0.0000000000000000e+00  7.9263901288633432e-07 1.6332701782663349e-05 0.0000000000000000e+00  7.9506967577883560e-07 1.5599577299587004e-05 0.0000000000000000e+00  7.9801686459120073e-07 1.4870562194979001e-05 0.0000000000000000e+00  7.9836384048718833e-07 1.4145780422335272e-05 0.0000000000000000e+00  7.9953369998718364e-07 1.3426542466234821e-05 0.0000000000000000e+00  7.9739179614254672e-07 1.2712993258714390e-05 0.0000000000000000e+00  7.9646212335424342e-07 1.2006640095143402e-05 0.0000000000000000e+00  7.9133549427077044e-07 1.1307724695737997e-05 0.0000000000000000e+00  7.8786799375625574e-07 1.0617979305722266e-05 0.0000000000000000e+00  7.7956073254778529e-07 9.9379743278931379e-06 0.0000000000000000e+00  7.7260746350897785e-07 9.2677800451874424e-06 0.0000000000000000e+00  7.6425772154197698e-07 8.6118026106824521e-06 0.0000000000000000e+00  7.5123169855234595e-07 7.9660732163287920e-06 0.0000000000000000e+00  7.3870021469339456e-07 7.3366081999992617e-06 0.0000000000000000e+00  7.2236620778408557e-07 6.7217535869269638e-06 0.0000000000000000e+00  7.0591338741910243e-07 6.1249681731561991e-06 0.0000000000000000e+00  6.8559433060480675e-07 5.5458247128072463e-06 0.0000000000000000e+00  6.6516852030989976e-07 4.9865559887165906e-06 0.0000000000000000e+00  6.3818690007096157e-07 4.4507404824073776e-06 0.0000000000000000e+00  6.1466839398157792e-07 3.9340488620132522e-06 0.0000000000000000e+00  5.8933613208054712e-07 3.4459197956156907e-06 0.0000000000000000e+00  5.5595488623299387e-07 2.9781783334565577e-06 0.0000000000000000e+00  5.2418761652845196e-07 2.5414132577922317e-06 0.0000000000000000e+00  4.8704551858195124e-07 2.1324641658354547e-06 0.0000000000000000e+00  4.5069585925020013e-07 1.7543108892731089e-06 0.0000000000000000e+00  4.0535600970784585e-07 1.4118494030045466e-06 0.0000000000000000e+00  3.6584510231960515e-07 1.0982369945914768e-06 0.0000000000000000e+00  3.2455902111835950e-07 8.2648000676517478e-07 0.0000000000000000e+00  2.7203378211527747e-07 5.8501334643259787e-07 0.0000000000000000e+00  2.2382104859391244e-07 3.8672648602227954e-07 0.0000000000000000e+00  1.6611427797995722e-07 2.3015336096012113e-07 0.0000000000000000e+00  1.1453841185385511e-07 1.1702066165308953e-07 0.0000000000000000e+00  5.3613940732040476e-08 4.7922056625054558e-08 0.0000000000000000e+00  -5.7057842315757726e-09 4.7089234373297367e-08 0.0000000000000000e+00  -3.0356424155532314e-07 2.5628209201432469e-05 0.0000000000000000e+00  -2.9583588594854316e-07 2.4198012858799116e-05 0.0000000000000000e+00  -2.6132841664529569e-07 2.1863345781253738e-05 0.0000000000000000e+00  -1.0112026528102631e-08 2.7148704287127812e-07 0.0000000000000000e+00  -2.3424185863303238e-07 2.0397130861541910e-05 0.0000000000000000e+00  -1.2389574072497532e-08 6.5090611341707302e-07 0.0000000000000000e+00  -2.1810229100783299e-07 1.8907987764540341e-05 0.0000000000000000e+00  -2.1679429427057716e-08 1.5658227626569961e-06 0.0000000000000000e+00  -3.6427656269887147e-08 2.3077025173486490e-06 0.0000000000000000e+00  -2.0200787950307031e-07 1.7425238676491121e-05 0.0000000000000000e+00  -5.3440037955238371e-08 4.7160960922378624e-06 0.0000000000000000e+00  -1.7008864610343423e-07 1.4493428005074745e-05 0.0000000000000000e+00  -3.7796593120727067e-08 3.1461039719438704e-06 0.0000000000000000e+00  -7.5130549052190535e-08 5.8120240661287306e-06 0.0000000000000000e+00  -1.5437631289229606e-07 1.3054003765057184e-05 0.0000000000000000e+00  -1.8598683399651524e-07 1.5952273596929355e-05 0.0000000000000000e+00  -8.8227896250300268e-08 7.0071876374172988e-06 0.0000000000000000e+00  -1.3887832876168557e-07 1.1640293406847467e-05 0.0000000000000000e+00  -9.0197597264804263e-08 8.2160853244775967e-06 0.0000000000000000e+00  -1.3566950018206879e-07 1.0287578081259156e-05 0.0000000000000000e+00  -1.1190669191726806e-07 9.1977759047955326e-06 0.0000000000000000e+00  -5.5028941293005896e-08 3.8709647052491861e-06 0.0000000000000000e+00  -2.6136767929560202e-07 2.3076673694570891e-05 0.0000000000000000e+00  -2.1289201951392886e-08 1.0521138286011260e-06 0.0000000000000000e+00  5.2136528414871861e-08 2.4911162170744646e-05 0.0000000000000000e+00  4.5942945982716126e-08 1.4198118604926510e-07 0.0000000000000000e+00  6.3460090480477185e-08 1.9654859723712521e-05 0.0000000000000000e+00  4.8166624648679162e-08 2.1146114945419208e-05 0.0000000000000000e+00  -1.0487489990812889e-07 4.5163456853141389e-07 0.0000000000000000e+00  -1.7792576217070801e-07 1.9148888447377046e-06 0.0000000000000000e+00  1.0533204805675734e-07 1.5224025480606391e-05 0.0000000000000000e+00  7.8215405346259276e-08 1.8168648411676436e-05 0.0000000000000000e+00  -2.8547037817126839e-07 5.2418090142447098e-06 0.0000000000000000e+00  1.1723226767994935e-07 1.3774291402989846e-05 0.0000000000000000e+00  -2.0956326499414988e-07 2.7322520378913498e-06 0.0000000000000000e+00  -3.1277128342131557e-07 6.3998298220616116e-06 0.0000000000000000e+00  1.2769865114584683e-07 1.2346990038579989e-05 0.0000000000000000e+00  9.2245573622101406e-08 1.6690417248799887e-05 0.0000000000000000e+00  -3.9243264835069954e-07 7.6213330674824005e-06 0.0000000000000000e+00  1.3661371928167175e-07 1.0948917829748707e-05 0.0000000000000000e+00  -1.2840178229465677e-08 8.9782545943124131e-09 0.0000000000000000e+00  6.0304159859488652e-09 9.5185295173462236e-09 0.0000000000000000e+00  -5.4082269278897648e-07 2.6214094724836200e-05 0.0000000000000000e+00  -6.6860930690079280e-08 1.3897215354513239e-07 0.0000000000000000e+00  2.0406318247917410e-07 9.7392469497739889e-06 0.0000000000000000e