<?xml version="1.0"?>
<VTKFile type="UnstructuredGrid"  version="0.1"  >
<UnstructuredGrid>
<Piece  NumberOfPoints="1419" NumberOfCells="2698">
<Points>
<DataArray  type="Float64"  NumberOfComponents="3"  format="ascii">0 0 0  0 0.41 0  2.5 0 0  2.5 0.41 0  0.6 0.19 0  0.6 0.21 0  0.25 0.2 0  0.15 0.2 0  0.2489897948556636 0.21 0  0.2489897948556636 0.19 0  0.6 0.2 0  0 0.3807142857143437 0  0 0.3514285714286952 0  0 0.3221428571430699 0  0 0.29285714285744 0  0 0.2635714285718054 0  0 0.2342857142861561 0  0 0.2050000000005308 0  0 0.175714285714732 0  0 0.1464285714289574 0  0 0.1171428571431897 0  0 0.08785714285737878 0  0 0.05857142857161107 0  0 0.02928571428580012 0  0.03015443760436003 0 0  0.06140001986583606 0 0  0.09377624077125973 0 0  0.1273239957535082 0 0  0.1620856860351972 0 0  0.1981052433264291 0 0  0.235428184091502 0 0  0.2741016576309132 0 0  0.3141745521465447 0 0  0.3556974926295285 0 0  0.3987229542472677 0 0  0.4433053055141081 0 0  0.4895008759286886 0 0  0.5373680609405097 0 0  0.5869673343216626 0 0  0.6383613676634521 0 0  0.6916151138468254 0 0  0.7467958595648856 0 0  0.8039733463919316 0 0  0.8632198139502143 0 0  0.9246101326867038 0 0  0.9882218810934433 0 0  1.054135445558498 0 0  1.122434100542598 0 0  1.193204177141305 0 0  1.266535089879536 0 0  1.342519516046404 0 0  1.421253448503939 0 0  1.502836389106271 0 0  1.587371439758838 0 0  1.674965418777374 0 0  1.765729001825544 0 0  1.859776908880082 0 0  1.957227977487062 0 0  2.058205329869943 0 0  2.162836591189951 0 0  2.271253957290865 0 0  2.383594446803425 0 0  2.5 0.1024999999997612 0  2.5 0.2049999999994743 0  2.5 0.3074999999997183 0  2.383594446803656 0.41 0  2.271253957291315 0.41 0  2.162836591190598 0.41 0  2.058205329870775 0.41 0  1.957227977488067 0.41 0  1.859776908881246 0.41 0  1.765729001826854 0.41 0  1.674965418778818 0.41 0  1.58737143976041 0.41 0  1.502836389107956 0.41 0  1.421253448505726 0.41 0  1.342519516048286 0.41 0  1.266535089881505 0.41 0  1.193204177143353 0.41 0  1.122434100544716 0.41 0  1.05413544556068 0.41 0  0.9882218810956305 0.41 0  0.9246101326886647 0.41 0  0.8632198139519631 0.41 0  0.8039733463934788 0.41 0  0.7467958595662458 0.41 0  0.6916151138480078 0.41 0  0.6383613676644679 0.41 0  0.5869673343225223 0.41 0  0.5373680609412221 0.41 0  0.4895008759292634 0.41 0  0.4433053055145528 0.41 0  0.3987229542475914 0.41 0  0.3556974926297398 0.41 0  0.3141745521466497 0.41 0  0.2741016576310038 0.41 0  0.2354281840915826 0.41 0  0.1981052433265003 0.41 0  0.1620856860352591 0.41 0  0.1273239957535623 0.41 0  0.09377624077128965 0.41 0  0.06140001986584975 0.41 0  0.03015443760436654 0.41 0  0.2497468076502589 0.2050254481002335 0  0.2497468076502614 0.1949745518997913 0  0.2469965252529372 0.1829317073451959 0  0.2439893735792749 0.1762316384219906 0  0.2400332147834255 0.1700443375285386 0  0.2352133972704371 0.1645032867342007 0  0.2296339016332438 0.1597280261969788 0  0.2234150974217223 0.1558215752574715 0  0.2166911463437691 0.1528682099456123 0  0.2096071079204251 0.1509316448471593 0  0.2023158100364996 0.1500536585536553 0  0.194974551899914 0.1502531923497262 0  0.1877417105387872 0.1515259415822739 0  0.1807733240461124 0.153844448527136 0  0.1742197252835808 0.15715869474974 0  0.1682222986673531 0.1613971801805478 0  0.162910430003803 0.1664684656256651 0  0.1583987151779087 0.1722631454351573 0  0.1547844879126891 0.178656207771761 0  0.1521457199348551 0.1855097315605723 0  0.1505393388476355 0.1926758619366523 0  0.1505393388476328 0.2073241380633295 0  0.1521457199348437 0.2144902684393899 0  0.1547844879126531 0.221343792228163 0  0.1583987151778488 0.2277368545647528 0  0.1629104300036858 0.2335315343742052 0  0.1682222986671726 0.2386028198193036 0  0.1742197252833576 0.2428413052501257 0  0.1807733240458683 0.2461555514727623 0  0.1877417105384929 0.2484740584176516 0  0.1949745518995776 0.2497468076502398 0  0.202315810036185 0.2499463414463592 0  0.2096071079201568 0.2490683551528932 0  0.2166911463435495 0.2471317900544655 0  0.2234150974215506 0.2441784247426195 0  0.2296339016331197 0.2402719738031125 0  0.2352133972703547 0.2354967132658811 0  0.2400332147833751 0.2299556624715287 0  0.2439893735792577 0.2237683615780412 0  0.246996525252926 0.2170682926548348 0  0.25645809709277 0.21 0  0.2639263993298655 0.21 0  0.271394701566961 0.21 0  0.2788630038040554 0.21 0  0.2863313060411479 0.21 0  0.2937996082782405 0.21 0  0.301267910515333 0.21 0  0.3087362127524279 0.21 0  0.3162045149895234 0.21 0  0.3236728172265972 0.21 0  0.3311411194636928 0.21 0  0.3386094217007701 0.21 0  0.3460777239378666 0.21 0  0.3535460261749672 0.21 0  0.3610143284120516 0.21 0  0.3684826306491596 0.21 0  0.3759509328862226 0.21 0  0.383419235123329 0.21 0  0.3908875373604028 0.21 0  0.3983558395975142 0.21 0  0.4058241418345938 0.21 0  0.4132924440716992 0.21 0  0.4207607463087888 0.21 0  0.4282290485459029 0.21 0  0.4356973507830418 0.21 0  0.4431656530201649 0.21 0  0.4506339552573136 0.21 0  0.4581022574944306 0.21 0  0.4655705597315852 0.21 0  0.4730388619686996 0.21 0  0.480507164205851 0.21 0  0.4879754664429498 0.21 0  0.4954437686800938 0.21 0  0.502912070917267 0.21 0  0.5103803731544119 0.21 0  0.5178486753915261 0.21 0  0.5253169776286404 0.21 0  0.5327852798657868 0.21 0  0.5402535821029386 0.21 0  0.54772188434007 0.21 0  0.5551901865771842 0.21 0  0.5626584888143201 0.21 0  0.5701267910514778 0.21 0  0.5775950932886138 0.21 0  0.5850633955257281 0.21 0  0.5925316977628483 0.21 0  0.6 0.2050000000000054 0  0.6 0.1950000000000217 0  0.5925316977628897 0.19 0  0.5850633955257988 0.19 0  0.5775950932887378 0.19 0  0.5701267910515998 0.19 0  0.5626584888145268 0.19 0  0.5551901865773963 0.19 0  0.547721884340339 0.19 0  0.5402535821032429 0.19 0  0.5327852798661811 0.19 0  0.5253169776290537 0.19 0  0.5178486753919799 0.19 0  0.5103803731549078 0.19 0  0.502912070917822 0.19 0  0.4954437686807294 0.19 0  0.4879754664436223 0.19 0  0.4805071642065402 0.19 0  0.4730388619694271 0.19 0  0.4655705597323621 0.19 0  0.4581022574952563 0.19 0  0.4506339552581777 0.19 0  0.4431656530210671 0.19 0  0.4356973507839815 0.19 0  0.4282290485468779 0.19 0  0.4207607463097617 0.19 0  0.4132924440726327 0.19 0  0.4058241418354857 0.19 0  0.3983558395983636 0.19 0  0.3908875373612097 0.19 0  0.3834192351240934 0.19 0  0.3759509328869369 0.19 0  0.3684826306498175 0.19 0  0.361014328412667 0.19 0  0.3535460261755617 0.19 0  0.3460777239384295 0.19 0  0.3386094217012945 0.19 0  0.3311411194641595 0.19 0  0.3236728172270245 0.19 0  0.3162045149898895 0.19 0  0.3087362127527544 0.19 0  0.3012679105156187 0.19 0  0.2937996082784807 0.19 0  0.2863313060413428 0.19 0  0.2788630038042048 0.19 0  0.2713947015670686 0.19 0  0.2639263993299336 0.19 0  0.2564580970927985 0.19 0  0.2607803159922026 0.2000727136295815 0  0.5887803774232762 0.2001272386983733 0  0.5745072403740523 0.2002044435018727 0  0.5511891430099709 0.2001122610077113 0  0.2751288526855082 0.20000000000002 0  0.5365194309847112 0.1999999999999436 0  0.2894621222999649 0.1998691686390484 0  0.5215828265105155 0.1999999999999228 0  0.3127789816668748 0.1998657885438805 0  0.3274069683451451 0.2000000000000796 0  0.5066462220363641 0.199999999999908 0  0.3650630746574081 0.199866017807523 0  0.476773013087985 0.1999999999998713 0  0.3417402379596385 0.1998691686391011 0  0.3796850840047755 0.200000000000134 0  0.4618364086138087 0.1999999999998546 0  0.4917096175621762 0.1999999999998808 0  0.3946216884789568 0.2000000000001512 0  0.446899804139621 0.1999999999998389 0  0.4089549580935208 0.1998691686391595 0  0.4322718174608562 0.200127451265745 0  0.4201487168029707 0.1999966199048527 0  0.3528922713220932 0.2000185703532356 0  0.5633122436674589 0.1999814296467508 0  0.3006558810093873 0.1999966199048318 0  0.5815926498168407 0.1966545283159175 0  0.2677053789419034 0.1964246479135325 0  0.5290511287476175 0.1970915826863981 0  0.5439877332217911 0.197091582686394 0  0.2825131256993216 0.2035478995978015 0  0.3199386661080599 0.202908417313604 0  0.4842413153250809 0.1970915826863873 0  0.5141145242734466 0.1970915826863843 0  0.3722167817676917 0.2029084173136195 0  0.4693047108508938 0.1970915826863783 0  0.3348752705822316 0.202908417313609 0  0.3871533862418661 0.2029084173136212 0  0.4543681063767183 0.1970915826863795 0  0.4991779197992749 0.1970915826863902 0  0.4020059614928624 0.203547899597858 0  0.4394315019025246 0.1970915826863714 0  0.2550657455369551 0.2034088125358657 0  0.2548908499171161 0.1966940311614271 0  0.5946539510196798 0.2024302972968126 0  0.267698176732111 0.2039977513680092 0  0.4261685417851465 0.196409292431739 0  0.3590076176283495 0.196411355804271 0  0.5571672426447437 0.2036011176410121 0  0.3066757059912147 0.1964092924317024 0  0.594380730180568 0.1966558399668133 0  0.4842413153245942 0.2040749161535287 0  0.4693047108503577 0.2040749161535231 0  0.3871533862424271 0.1959250838464788 0  0.372246743208829 0.1959123236376545 0  0.5141145242731028 0.2040749161535395 0  0.4543681063761134 0.2040749161535186 0  0.4019979587101454 0.1959834479682427 0  0.4394608940728603 0.2040870543693135 0  0.5439623148931173 0.2040856076781014 0  0.5290511287473298 0.2040749161535501 0  0.4991779197988497 0.2040749161535382 0  0.3347912413592433 0.1959225448935183 0  0.3199680582793816 0.1959123018030061 0  0.2825051229162361 0.1959834479681729 0  0.3590471196690275 0.2036304442587945 0  0.5571594006495384 0.1963685282145804 0  0.3067669986803285 0.203627750582736 0  0.4262598344738712 0.2036568242185335 0  0.5814408164431408 0.2041285596160068 0  0.5688286748170428 0.1961819304477386 0  0.4145905603063645 0.2038180695522843 0  0.3473758401724931 0.2038180695522752 0  0.2950977245128307 0.2038180695522663 0  0.5688286748170693 0.203818069552238 0  0.2950977245127906 0.1961819304477774 0  0.3473758401723931 0.1961819304478349 0  0.4145905603061963 0.1961819304479011 0  0.2601812407614425 0.2056861609747042
[...]
<PointData  Vectors="f_40-0"> 
<DataArray  type="Float64"  Name="f_40-0"  NumberOfComponents="3" format="ascii">0.0000000000000000e+00 0.0000000000000000e+00 0.0000000000000000e+00  0.0000000000000000e+00 0.0000000000000000e+00 0.0000000000000000e+00  0.0000000000000000e+00 0.0000000000000000e+00 0.0000000000000000e+00  0.0000000000000000e+00 0.0000000000000000e+00 0.0000000000000000e+00  -3.2493875592717500e-07 -9.7291743944046361e-06 0.0000000000000000e+00  3.7932821163098673e-07 -9.7293871378328432e-06 0.0000000000000000e+00  0.0000000000000000e+00 0.0000000000000000e+00 0.0000000000000000e+00  0.0000000000000000e+00 0.0000000000000000e+00 0.0000000000000000e+00  0.0000000000000000e+00 0.0000000000000000e+00 0.0000000000000000e+00  0.0000000000000000e+00 0.0000000000000000e+00 0.0000000000000000e+00  2.7046191756233147e-08 -9.7442320980121236e-06 0.0000000000000000e+00  7.9591836734548405e-01 0.0000000000000000e+00 0.0000000000000000e+00  1.4693877550994523e+00 0.0000000000000000e+00 0.0000000000000000e+00  2.0204081632617479e+00 0.0000000000000000e+00 0.0000000000000000e+00  2.4489795918330071e+00 0.0000000000000000e+00 0.0000000000000000e+00  2.7551020408131754e+00 0.0000000000000000e+00 0.0000000000000000e+00  2.9387755102022344e+00 0.0000000000000000e+00 0.0000000000000000e+00  3.0000000000000004e+00 0.0000000000000000e+00 0.0000000000000000e+00  2.9387755102059474e+00 0.0000000000000000e+00 0.0000000000000000e+00  2.7551020408195543e+00 0.0000000000000000e+00 0.0000000000000000e+00  2.4489795918409065e+00 0.0000000000000000e+00 0.0000000000000000e+00  2.0204081632692521e+00 0.0000000000000000e+00 0.0000000000000000e+00  1.4693877551058563e+00 0.0000000000000000e+00 0.0000000000000000e+00  7.9591836734909216e-01 0.0000000000000000e+00 0.0000000000000000e+00  0.0000000000000000e+00 0.0000000000000000e+00 0.0000000000000000e+00  0.0000000000000000e+00 0.0000000000000000e+00 0.0000000000000000e+00  0.0000000000000000e+00 0.0000000000000000e+00 0.0000000000000000e+00  0.0000000000000000e+00 0.0000000000000000e+00 0.0000000000000000e+00  0.0000000000000000e+00 0.0000000000000000e+00 0.0000000000000000e+00  0.0000000000000000e+00 0.0000000000000000e+00 0.0000000000000000e+00  0.0000000000000000e+00 0.0000000000000000e+00 0.0000000000000000e+00  0.0000000000000000e+00 0.0000000000000000e+00 0.0000000000000000e+00  0.0000000000000000e+00 0.0000000000000000e+00 0.0000000000000000e+00  0.0000000000000000e+00 0.0000000000000000e+00 0.0000000000000000e+00  0.0000000000000000e+00 0.0000000000000000e+00 0.0000000000000000e+00  0.0000000000000000e+00 0.0000000000000000e+00 0.0000000000000000e+00  0.0000000000000000e+00 0.0000000000000000e+00 0.0000000000000000e+00  0.0000000000000000e+00 0.0000000000000000e+00 0.0000000000000000e+00  0.0000000000000000e+00 0.0000000000000000e+00 0.0000000000000000e+00  0.0000000000000000e+00 0.0000000000000000e+00 0.0000000000000000e+00  0.0000000000000000e+00 0.0000000000000000e+00 0.0000000000000000e+00  0.0000000000000000e+00 0.0000000000000000e+00 0.0000000000000000e+00  0.0000000000000000e+00 0.0000000000000000e+00 0.0000000000000000e+00  0.0000000000000000e+00 0.0000000000000000e+00 0.0000000000000000e+00  0.0000000000000000e+00 0.0000000000000000e+00 0.0000000000000000e+00  0.0000000000000000e+00 0.0000000000000000e+00 0.0000000000000000e+00  0.0000000000000000e+00 0.0000000000000000e+00 0.0000000000000000e+00  0.0000000000000000e+00 0.0000000000000000e+00 0.0000000000000000e+00  0.0000000000000000e+00 0.0000000000000000e+00 0.0000000000000000e+00  0.0000000000000000e+00 0.0000000000000000e+00 0.0000000000000000e+00  0.0000000000000000e+00 0.0000000000000000e+00 0.0000000000000000e+00  0.0000000000000000e+00 0.0000000000000000e+00 0.0000000000000000e+00  0.0000000000000000e+00 0.0000000000000000e+00 0.0000000000000000e+00  0.0000000000000000e+00 0.0000000000000000e+00 0.0000000000000000e+00  0.0000000000000000e+00 0.0000000000000000e+00 0.0000000000000000e+00  0.0000000000000000e+00 0.0000000000000000e+00 0.0000000000000000e+00  0.0000000000000000e+00 0.0000000000000000e+00 0.0000000000000000e+00  0.0000000000000000e+00 0.0000000000000000e+00 0.0000000000000000e+00  0.0000000000000000e+00 0.0000000000000000e+00 0.0000000000000000e+00  0.0000000000000000e+00 0.0000000000000000e+00 0.0000000000000000e+00  0.0000000000000000e+00 0.0000000000000000e+00 0.0000000000000000e+00  0.0000000000000000e+00 0.0000000000000000e+00 0.0000000000000000e+00  2.6651244260010891e+00 1.7430715313217618e-02 0.0000000000000000e+00  2.3238427602025062e+00 1.8071444781808180e-02 0.0000000000000000e+00  2.8336070894238374e+00 7.0710278495805509e-02 0.0000000000000000e+00  0.0000000000000000e+00 0.0000000000000000e+00 0.0000000000000000e+00  0.0000000000000000e+00 0.0000000000000000e+00 0.0000000000000000e+00  0.0000000000000000e+00 0.0000000000000000e+00 0.0000000000000000e+00  0.0000000000000000e+00 0.0000000000000000e+00 0.0000000000000000e+00  0.0000000000000000e+00 0.0000000000000000e+00 0.0000000000000000e+00  0.0000000000000000e+00 0.0000000000000000e+00 0.0000000000000000e+00  0.0000000000000000e+00 0.0000000000000000e+00 0.0000000000000000e+00  0.0000000000000000e+00 0.0000000000000000e+00 0.0000000000000000e+00  0.0000000000000000e+00 0.0000000000000000e+00 0.0000000000000000e+00  0.0000000000000000e+00 0.0000000000000000e+00 0.0000000000000000e+00  0.0000000000000000e+00 0.0000000000000000e+00 0.0000000000000000e+00  0.0000000000000000e+00 0.0000000000000000e+00 0.0000000000000000e+00  0.0000000000000000e+00 0.0000000000000000e+00 0.0000000000000000e+00  0.0000000000000000e+00 0.0000000000000000e+00 0.0000000000000000e+00  0.0000000000000000e+00 0.0000000000000000e+00 0.0000000000000000e+00  0.0000000000000000e+00 0.0000000000000000e+00 0.0000000000000000e+00  0.0000000000000000e+00 0.0000000000000000e+00 0.0000000000000000e+00  0.0000000000000000e+00 0.0000000000000000e+00 0.0000000000000000e+00  0.0000000000000000e+00 0.0000000000000000e+00 0.0000000000000000e+00  0.0000000000000000e+00 0.0000000000000000e+00 0.0000000000000000e+00  0.0000000000000000e+00 0.0000000000000000e+00 0.0000000000000000e+00  0.0000000000000000e+00 0.0000000000000000e+00 0.0000000000000000e+00  0.0000000000000000e+00 0.0000000000000000e+00 0.0000000000000000e+00  0.0000000000000000e+00 0.0000000000000000e+00 0.0000000000000000e+00  0.0000000000000000e+00 0.0000000000000000e+00 0.0000000000000000e+00  0.0000000000000000e+00 0.0000000000000000e+00 0.0000000000000000e+00  0.0000000000000000e+00 0.0000000000000000e+00 0.0000000000000000e+00  0.0000000000000000e+00 0.0000000000000000e+00 0.0000000000000000e+00  0.0000000000000000e+00 0.0000000000000000e+00 0.0000000000000000e+00  0.0000000000000000e+00 0.0000000000000000e+00 0.0000000000000000e+00  0.0000000000000000e+00 0.0000000000000000e+00 0.0000000000000000e+00  0.0000000000000000e+00 0.0000000000000000e+00 0.0000000000000000e+00  0.0000000000000000e+00 0.0000000000000000e+00 0.0000000000000000e+00  0.0000000000000000e+00 0.0000000000000000e+00 0.0000000000000000e+00  0.0000000000000000e+00 0.0000000000000000e+00 0.0000000000000000e+00  0.0000000000000000e+00 0.0000000000000000e+00 0.0000000000000000e+00  0.0000000000000000e+00 0.0000000000000000e+00 0.0000000000000000e+00  0.0000000000000000e+00 0.0000000000000000e+00 0.0000000000000000e+00  0.0000000000000000e+00 0.0000000000000000e+00 0.0000000000000000e+00  0.0000000000000000e+00 0.0000000000000000e+00 0.0000000000000000e+00  0.0000000000000000e+00 0.0000000000000000e+00 0.0000000000000000e+00  0.0000000000000000e+00 0.0000000000000000e+00 0.0000000000000000e+00  0.0000000000000000e+00 0.0000000000000000e+00 0.0000000000000000e+00  0.0000000000000000e+00 0.0000000000000000e+00 0.0000000000000000e+00  0.0000000000000000e+00 0.0000000000000000e+00 0.0000000000000000e+00  0.0000000000000000e+00 0.0000000000000000e+00 0.0000000000000000e+00  0.0000000000000000e+00 0.0000000000000000e+00 0.0000000000000000e+00  0.0000000000000000e+00 0.0000000000000000e+00 0.0000000000000000e+00  0.0000000000000000e+00 0.0000000000000000e+00 0.0000000000000000e+00  0.0000000000000000e+00 0.0000000000000000e+00 0.0000000000000000e+00  0.0000000000000000e+00 0.0000000000000000e+00 0.0000000000000000e+00  0.0000000000000000e+00 0.0000000000000000e+00 0.0000000000000000e+00  0.0000000000000000e+00 0.0000000000000000e+00 0.0000000000000000e+00  0.0000000000000000e+00 0.0000000000000000e+00 0.0000000000000000e+00  0.0000000000000000e+00 0.0000000000000000e+00 0.0000000000000000e+00  0.0000000000000000e+00 0.0000000000000000e+00 0.0000000000000000e+00  0.0000000000000000e+00 0.0000000000000000e+00 0.0000000000000000e+00  0.0000000000000000e+00 0.0000000000000000e+00 0.0000000000000000e+00  0.0000000000000000e+00 0.0000000000000000e+00 0.0000000000000000e+00  0.0000000000000000e+00 0.0000000000000000e+00 0.0000000000000000e+00  0.0000000000000000e+00 0.0000000000000000e+00 0.0000000000000000e+00  0.0000000000000000e+00 0.0000000000000000e+00 0.0000000000000000e+00  0.0000000000000000e+00 0.0000000000000000e+00 0.0000000000000000e+00  0.0000000000000000e+00 0.0000000000000000e+00 0.0000000000000000e+00  0.0000000000000000e+00 0.0000000000000000e+00 0.0000000000000000e+00  0.0000000000000000e+00 0.0000000000000000e+00 0.0000000000000000e+00  0.0000000000000000e+00 0.0000000000000000e+00 0.0000000000000000e+00  0.0000000000000000e+00 0.0000000000000000e+00 0.0000000000000000e+00  0.0000000000000000e+00 0.0000000000000000e+00 0.0000000000000000e+00  0.0000000000000000e+00 0.0000000000000000e+00 0.0000000000000000e+00  0.0000000000000000e+00 0.0000000000000000e+00 0.0000000000000000e+00  0.0000000000000000e+00 0.0000000000000000e+00 0.0000000000000000e+00  0.0000000000000000e+00 0.0000000000000000e+00 0.0000000000000000e+00  0.0000000000000000e+00 0.0000000000000000e+00 0.0000000000000000e+00  0.0000000000000000e+00 0.0000000000000000e+00 0.0000000000000000e+00  0.0000000000000000e+00 0.0000000000000000e+00 0.0000000000000000e+00  0.0000000000000000e+00 0.0000000000000000e+00 0.0000000000000000e+00  0.0000000000000000e+00 0.0000000000000000e+00 0.0000000000000000e+00  2.2434147699940648e-08 -2.0180013658297410e-08 0.0000000000000000e+00  4.7590570541878688e-08 -4.8791257696644394e-08 0.0000000000000000e+00  6.9204325019876558e-08 -9.5037721852278782e-08 0.0000000000000000e+00  9.2389769686365559e-08 -1.5974024666489182e-07 0.0000000000000000e+00  1.1119014059545108e-07 -2.3952318688507720e-07 0.0000000000000000e+00  1.3243863128923896e-07 -3.3568586592932055e-07 0.0000000000000000e+00  1.4900698214172528e-07 -4.4364139468895695e-07 0.0000000000000000e+00  1.6480207417220638e-07 -5.6717643167106513e-07 0.0000000000000000e+00  1.8293957284018829e-07 -7.0206511979970426e-07 0.0000000000000000e+00  1.9623995259131743e-07 -8.4873696164456174e-07 0.0000000000000000e+00  2.1251527808229682e-07 -1.0067398094813526e-06 0.0000000000000000e+00  2.2428530654433172e-07 -1.1749590690090140e-06 0.0000000000000000e+00  2.3814392930525334e-07 -1.3528586037387881e-06 0.0000000000000000e+00  2.4883215723108793e-07 -1.5384711699198463e-06 0.0000000000000000e+00  2.5895231471931372e-07 -1.7333966650576250e-06 0.0000000000000000e+00  2.7036028554267751e-07 -1.9351928189267948e-06 0.0000000000000000e+00  2.7874320303203832e-07 -2.1439065356505268e-06 0.0000000000000000e+00  2.8867825624176627e-07 -2.3592232653224441e-06 0.0000000000000000e+00  2.9587808116042661e-07 -2.5802670381897550e-06 0.0000000000000000e+00  3.0422607966462746e-07 -2.8065693722423342e-06 0.0000000000000000e+00  3.1070009751901873e-07 -3.0378046391560044e-06 0.0000000000000000e+00  3.1766353504901712e-07 -3.2735925792118651e-06 0.0000000000000000e+00  3.2316221194312102e-07 -3.5128677819309453e-06 0.0000000000000000e+00  3.2824471577757787e-07 -3.7559487181463904e-06 0.0000000000000000e+00  3.3369369329695511e-07 -4.0019030434408822e-06 0.0000000000000000e+00  3.3811923807698106e-07 -4.2508608700373457e-06 0.0000000000000000e+00  3.4241727292897970e-07 -4.5023969566624711e-06 0.0000000000000000e+00  3.4613472861410412e-07 -4.7559472627788072e-06 0.0000000000000000e+00  3.4970673211314362e-07 -5.0115601006481201e-06 0.0000000000000000e+00  3.5281164678210092e-07 -5.2687026454944989e-06 0.0000000000000000e+00  3.5577460031573251e-07 -5.5273867137638825e-06 0.0000000000000000e+00  3.5836295412321900e-07 -5.7871871399332392e-06 0.0000000000000000e+00  3.6082131508871593e-07 -6.0481244779077918e-06 0.0000000000000000e+00  3.6298631293216591e-07 -6.3098079834486674e-06 0.0000000000000000e+00  3.6503742615616966e-07 -6.5723068785267405e-06 0.0000000000000000e+00  3.6686659741037046e-07 -6.8352978021844117e-06 0.0000000000000000e+00  3.6859943513448630e-07 -7.0988189447265864e-06 0.0000000000000000e+00  3.7017058653559269e-07 -7.3626423829804002e-06 0.0000000000000000e+00  3.7166355451141224e-07 -7.6267683810171956e-06 0.0000000000000000e+00  3.7304643994597018e-07 -7.8910726523349414e-06 0.0000000000000000e+00  3.7436739223882729e-07 -8.1554376833664810e-06 0.0000000000000000e+00  3.7564786362144953e-07 -8.4205768031394336e-06 0.0000000000000000e+00  3.7681577655087723e-07 -8.6844847747904838e-06 0.0000000000000000e+00  3.7799850033888516e-07 -8.9491040668440215e-06 0.0000000000000000e+00  3.7914665517334079e-07 -9.2138914028011601e-06 0.0000000000000000e+00  3.8035853885708272e-07 -9.4778305450939193e-06 0.0000000000000000e+00  2.0426246658964177e-07 -9.7438536809404163e-06 0.0000000000000000e+00  -1.5013841486984829e-07 -9.7447842769008521e-06 0.0000000000000000e+00  -3.2850951338815338e-07 -9.4810629452556205e-06 0.0000000000000000e+00  -3.2956424393264710e-07 -9.2167816928335309e-06 0.0000000000000000e+00  -3.3071324069657425e-07 -8.9523121597590910e-06 0.0000000000000000e+00  -3.3178844964156342e-07 -8.6874786902836856e-06 0.0000000000000000e+00  -3.3287981532115690e-07 -8.4235821297208454e-06 0.0000000000000000e+00  -3.3387662710765335e-07 -8.1584429816346255e-06 0.0000000000000000e+00  -3.3481570436032433e-07 -7.8941855260471102e-06 0.0000000000000000e+00  -3.3572092076676190e-07 -7.6298373070371857e-06 0.0000000000000000e+00  -3.3645585338207923e-07 -7.3656982609534674e-06 0.0000000000000000e+00  -3.3718977781293961e-07 -7.1018584706407246e-06 0.0000000000000000e+00  -3.3765673591997676e-07 -6.8383409452883724e-06 0.0000000000000000e+00  -3.3814695131715687e-07 -6.5753190822173579e-06 0.0000000000000000e+00  -3.3824957433214215e-07 -6.3128216265607344e-06 0.0000000000000000e+00  -3.3841590921226706e-07 -6.0510859945782916e-06 0.0000000000000000e+00  -3.3804427392004419e-07 -5.7901426048149073e-06 0.0000000000000000e+00  -3.3779475629475651e-07 -5.5302952030774017e-06 0.0000000000000000e+00  -3.3682551392295797e-07 -5.2715824340976299e-06 0.0000000000000000e+00  -3.3605809134111813e-07 -5.0143776108098614e-06 0.0000000000000000e+00  -3.3435378038118021e-07 -4.7587249560563126e-06 0.0000000000000000e+00  -3.3295564563640753e-07 -4.5050758167842956e-06 0.0000000000000000e+00  -3.3034167087109520e-07 -4.2535006719608458e-06 0.0000000000000000e+00  -3.2815787831661612e-07 -4.0045474943974296e-06 0.0000000000000000e+00  -3.2452092336638771e-07 -3.7583080517099142e-06 0.0000000000000000e+00  -3.2125093207151461e-07 -3.5151696921176901e-06 0.0000000000000000e+00  -3.1746452525098564e-07 -3.2758412641248597e-06 0.0000000000000000e+00  -3.1224869623335719e-07 -3.0397758574525440e-06 0.0000000000000000e+00  -3.0707591351702141e-07 -2.8086237530691359e-06 0.0000000000000000e+00  -3.0064527391412631e-07 -2.5818824542246940e-06 0.0000000000000000e+00  -2.9406372404724891e-07 -2.3608277724707147e-06 0.0000000000000000e+00  -2.8614384916844895e-07 -2.1452538564180518e-06 0.0000000000000000e+00  -2.7805481656343460e-07 -1.9361065488967762e-06 0.0000000000000000e+00  -2.6765867369648714e-07 -1.7345242479290690e-06 0.0000000000000000e+00  -2.5828987688687573e-07 -1.5393052529557261e-06 0.0000000000000000e+00  -2.4810250430984596e-07 -1.3536126191033784e-06 0.0000000000000000e+00  -2.3506116185283961e-07 -1.1748546214142307e-06 0.0000000000000000e+00  -2.2232660077905576e-07 -1.0067982252435239e-06 0.0000000000000000e+00  -2.0750272998821042e-07 -8.4843197803377063e-07 0.0000000000000000e+00  -1.9271859666203138e-07 -7.0108921585123179e-07 0.0000000000000000e+00  -1.7439731713350405e-07 -5.6663452584828453e-07 0.0000000000000000e+00  -1.5799250537144984e-07 -4.4268632723125886e-07 0.0000000000000000e+00  -1.4062978743772366e-07 -3.3455809866363240e-07 0.0000000000000000e+00  -1.1879645572778718e-07 -2.3773637836768398e-07 0.0000000000000000e+00  -9.8241030536790496e-08 -1.5755704731013320e-07 0.0000000000000000e+00  -7.3627053677701739e-08 -9.3554004645085330e-08 0.0000000000000000e+00  -5.1022574875267867e-08 -4.6992610957802845e-08 0.0000000000000000e+00  -2.4229344468583849e-08 -1.8198961050096537e-08 0.0000000000000000e+00  -1.2954700416132343e-09 -2.0540688124725338e-08 0.0000000000000000e+00  2.9872391462441734e-08 -9.3482111201864127e-06 0.0000000000000000e+00  3.0429432766245962e-08 -8.8421665048342981e-06 0.0000000000000000e+00  2.3617090091480043e-08 -8.0158976061330797e-06 0.0000000000000000e+00  -2.8573594470751195e-09 -1.1330392340770184e-07 0.0000000000000000e+00  1.7418317179389405e-08 -7.4965843828502447e-06 0.0000000000000000e+00  -5.4842661107441846e-09 -2.6700960133063787e-07 0.0000000000000000e+00  1.5155573377198965e-08 -6.9687159552911772e-06 0.0000000000000000e+00  -7.4974727683204725e-09 -6.3011319942767427e-07 0.0000000000000000e+00  -5.3072519190918720e-09 -9.1942170674291503e-07 0.0000000000000000e+00  1.2904753094137592e-08 -6.4424599767639562e-06 0.0000000000000000e+00  -7.8404088485859958e-09 -1.8376084319421939e-06 0.0000000000000000e+00  8.4811183471925908e-09 -5.3987567158308128e-06 0.0000000000000000e+00  -8.2313214123679641e-09 -1.2422117653233395e-06 0.0000000000000000e+00  -3.1998485526822550e-09 -2.2476243193209866e-06 0.0000000000000000e+00  6.3418042268732471e-09 -4.8840149603563114e-06 0.0000000000000000e+00  1.0675131177587824e-08 -5.9187407026258754e-06 0.0000000000000000e+00  -1.8896543872429258e-09 -2.6904391839461041e-06 0.0000000000000000e+00  4.2664712800803606e-09 -4.3763599148296995e-06 0.0000000000000000e+00  -4.5300684367311505e-09 -3.1344528975232253e-06 0.0000000000000000e+00  6.5433472393048327e-09 -3.8881615299835789e-06 0.0000000000000000e+00  7.7022185010392834e-10 -3.4926347369889478e-06 0.0000000000000000e+00  -4.3380921715011597e-09 -1.5182949741834179e-06 0.0000000000000000e+00  2.0827832639818545e-08 -8.4457861742425544e-06 0.0000000000000000e+00  -4.6883093242170224e-09 -4.2712955741012660e-07 0.0000000000000000e+00  -9.4326168617268028e-08 -9.0944882802755413e-06 0.0000000000000000e+00  -2.3897515519303937e-08 -5.8939912879979553e-08 0.0000000000000000e+00  -8.6416121853180064e-08 -7.2333173914228430e-06 0.0000000000000000e+00  -8.4359512328572854e-08 -7.7617580208679518e-06 0.0000000000000000e+00  3.3429738780906288e-08 -1.8735566038282680e-07 0.0000000000000000e+00  5.1563665822912685e-08 -7.6730574075728368e-07 0.0000000000000000e+00  -9.1482281214881100e-08 -5.6589633875609956e-06 0.0000000000000000e+00  -8.8326450972988756e-08 -6.7061283568637847e-06 0.0000000000000000e+00  7.7256546040117250e-08 -2.0354741638956347e-06 0.0000000000000000e+00  -9.2586063140821024e-08 -5.1413887748869229e-06 0.0000000000000000e+00  5.9465903646662609e-08 -1.0839656432368032e-06 0.0000000000000000e+00  8.3096421481433010e-08 -2.4666056075346933e-06 0.0000000000000000e+00  -9.3265658738418733e-08 -4.6299358607627748e-06 0.0000000000000000e+00  -9.0037030257243155e-08 -6.1809923616891286e-06 0.0000000000000000e+00  1.0815462036861352e-07 -2.9173202977773944e-06 0.0000000000000000e+00  -9.3469453104231696e-08 -4.1266263724478500e-06 0.0000000000000000e+00  3.2500214337404175e-09 -4.7335305268282024e-09 0.0000000000000000e+00  -4.4266821702007714e-09 -3.9250523232550726e-09 0.0000000000000000e+00  1.1231858299309336e-07 -9.5563790597232612e-06 0.0000000000000000e+00  2.2070