<?xml version="1.0"?>
<VTKFile type="UnstructuredGrid"  version="0.1"  >
<UnstructuredGrid>
<Piece  NumberOfPoints="1419" NumberOfCells="2698">
<Points>
<DataArray  type="Float64"  NumberOfComponents="3"  format="ascii">0 0 0  0 0.41 0  2.5 0 0  2.5 0.41 0  0.6 0.19 0  0.6 0.21 0  0.25 0.2 0  0.15 0.2 0  0.2489897948556636 0.21 0  0.2489897948556636 0.19 0  0.6 0.2 0  0 0.3807142857143437 0  0 0.3514285714286952 0  0 0.3221428571430699 0  0 0.29285714285744 0  0 0.2635714285718054 0  0 0.2342857142861561 0  0 0.2050000000005308 0  0 0.175714285714732 0  0 0.1464285714289574 0  0 0.1171428571431897 0  0 0.08785714285737878 0  0 0.05857142857161107 0  0 0.02928571428580012 0  0.03015443760436003 0 0  0.06140001986583606 0 0  0.09377624077125973 0 0  0.1273239957535082 0 0  0.1620856860351972 0 0  0.1981052433264291 0 0  0.235428184091502 0 0  0.2741016576309132 0 0  0.3141745521465447 0 0  0.3556974926295285 0 0  0.3987229542472677 0 0  0.4433053055141081 0 0  0.4895008759286886 0 0  0.5373680609405097 0 0  0.5869673343216626 0 0  0.6383613676634521 0 0  0.6916151138468254 0 0  0.7467958595648856 0 0  0.8039733463919316 0 0  0.8632198139502143 0 0  0.9246101326867038 0 0  0.9882218810934433 0 0  1.054135445558498 0 0  1.122434100542598 0 0  1.193204177141305 0 0  1.266535089879536 0 0  1.342519516046404 0 0  1.421253448503939 0 0  1.502836389106271 0 0  1.587371439758838 0 0  1.674965418777374 0 0  1.765729001825544 0 0  1.859776908880082 0 0  1.957227977487062 0 0  2.058205329869943 0 0  2.162836591189951 0 0  2.271253957290865 0 0  2.383594446803425 0 0  2.5 0.1024999999997612 0  2.5 0.2049999999994743 0  2.5 0.3074999999997183 0  2.383594446803656 0.41 0  2.271253957291315 0.41 0  2.162836591190598 0.41 0  2.058205329870775 0.41 0  1.957227977488067 0.41 0  1.859776908881246 0.41 0  1.765729001826854 0.41 0  1.674965418778818 0.41 0  1.58737143976041 0.41 0  1.502836389107956 0.41 0  1.421253448505726 0.41 0  1.342519516048286 0.41 0  1.266535089881505 0.41 0  1.193204177143353 0.41 0  1.122434100544716 0.41 0  1.05413544556068 0.41 0  0.9882218810956305 0.41 0  0.9246101326886647 0.41 0  0.8632198139519631 0.41 0  0.8039733463934788 0.41 0  0.7467958595662458 0.41 0  0.6916151138480078 0.41 0  0.6383613676644679 0.41 0  0.5869673343225223 0.41 0  0.5373680609412221 0.41 0  0.4895008759292634 0.41 0  0.4433053055145528 0.41 0  0.3987229542475914 0.41 0  0.3556974926297398 0.41 0  0.3141745521466497 0.41 0  0.2741016576310038 0.41 0  0.2354281840915826 0.41 0  0.1981052433265003 0.41 0  0.1620856860352591 0.41 0  0.1273239957535623 0.41 0  0.09377624077128965 0.41 0  0.06140001986584975 0.41 0  0.03015443760436654 0.41 0  0.2497468076502589 0.2050254481002335 0  0.2497468076502614 0.1949745518997913 0  0.2469965252529372 0.1829317073451959 0  0.2439893735792749 0.1762316384219906 0  0.2400332147834255 0.1700443375285386 0  0.2352133972704371 0.1645032867342007 0  0.2296339016332438 0.1597280261969788 0  0.2234150974217223 0.1558215752574715 0  0.2166911463437691 0.1528682099456123 0  0.2096071079204251 0.1509316448471593 0  0.2023158100364996 0.1500536585536553 0  0.194974551899914 0.1502531923497262 0  0.1877417105387872 0.1515259415822739 0  0.1807733240461124 0.153844448527136 0  0.1742197252835808 0.15715869474974 0  0.1682222986673531 0.1613971801805478 0  0.162910430003803 0.1664684656256651 0  0.1583987151779087 0.1722631454351573 0  0.1547844879126891 0.178656207771761 0  0.1521457199348551 0.1855097315605723 0  0.1505393388476355 0.1926758619366523 0  0.1505393388476328 0.2073241380633295 0  0.1521457199348437 0.2144902684393899 0  0.1547844879126531 0.221343792228163 0  0.1583987151778488 0.2277368545647528 0  0.1629104300036858 0.2335315343742052 0  0.1682222986671726 0.2386028198193036 0  0.1742197252833576 0.2428413052501257 0  0.1807733240458683 0.2461555514727623 0  0.1877417105384929 0.2484740584176516 0  0.1949745518995776 0.2497468076502398 0  0.202315810036185 0.2499463414463592 0  0.2096071079201568 0.2490683551528932 0  0.2166911463435495 0.2471317900544655 0  0.2234150974215506 0.2441784247426195 0  0.2296339016331197 0.2402719738031125 0  0.2352133972703547 0.2354967132658811 0  0.2400332147833751 0.2299556624715287 0  0.2439893735792577 0.2237683615780412 0  0.246996525252926 0.2170682926548348 0  0.25645809709277 0.21 0  0.2639263993298655 0.21 0  0.271394701566961 0.21 0  0.2788630038040554 0.21 0  0.2863313060411479 0.21 0  0.2937996082782405 0.21 0  0.301267910515333 0.21 0  0.3087362127524279 0.21 0  0.3162045149895234 0.21 0  0.3236728172265972 0.21 0  0.3311411194636928 0.21 0  0.3386094217007701 0.21 0  0.3460777239378666 0.21 0  0.3535460261749672 0.21 0  0.3610143284120516 0.21 0  0.3684826306491596 0.21 0  0.3759509328862226 0.21 0  0.383419235123329 0.21 0  0.3908875373604028 0.21 0  0.3983558395975142 0.21 0  0.4058241418345938 0.21 0  0.4132924440716992 0.21 0  0.4207607463087888 0.21 0  0.4282290485459029 0.21 0  0.4356973507830418 0.21 0  0.4431656530201649 0.21 0  0.4506339552573136 0.21 0  0.4581022574944306 0.21 0  0.4655705597315852 0.21 0  0.4730388619686996 0.21 0  0.480507164205851 0.21 0  0.4879754664429498 0.21 0  0.4954437686800938 0.21 0  0.502912070917267 0.21 0  0.5103803731544119 0.21 0  0.5178486753915261 0.21 0  0.5253169776286404 0.21 0  0.5327852798657868 0.21 0  0.5402535821029386 0.21 0  0.54772188434007 0.21 0  0.5551901865771842 0.21 0  0.5626584888143201 0.21 0  0.5701267910514778 0.21 0  0.5775950932886138 0.21 0  0.5850633955257281 0.21 0  0.5925316977628483 0.21 0  0.6 0.2050000000000054 0  0.6 0.1950000000000217 0  0.5925316977628897 0.19 0  0.5850633955257988 0.19 0  0.5775950932887378 0.19 0  0.5701267910515998 0.19 0  0.5626584888145268 0.19 0  0.5551901865773963 0.19 0  0.547721884340339 0.19 0  0.5402535821032429 0.19 0  0.5327852798661811 0.19 0  0.5253169776290537 0.19 0  0.5178486753919799 0.19 0  0.5103803731549078 0.19 0  0.502912070917822 0.19 0  0.4954437686807294 0.19 0  0.4879754664436223 0.19 0  0.4805071642065402 0.19 0  0.4730388619694271 0.19 0  0.4655705597323621 0.19 0  0.4581022574952563 0.19 0  0.4506339552581777 0.19 0  0.4431656530210671 0.19 0  0.4356973507839815 0.19 0  0.4282290485468779 0.19 0  0.4207607463097617 0.19 0  0.4132924440726327 0.19 0  0.4058241418354857 0.19 0  0.3983558395983636 0.19 0  0.3908875373612097 0.19 0  0.3834192351240934 0.19 0  0.3759509328869369 0.19 0  0.3684826306498175 0.19 0  0.361014328412667 0.19 0  0.3535460261755617 0.19 0  0.3460777239384295 0.19 0  0.3386094217012945 0.19 0  0.3311411194641595 0.19 0  0.3236728172270245 0.19 0  0.3162045149898895 0.19 0  0.3087362127527544 0.19 0  0.3012679105156187 0.19 0  0.2937996082784807 0.19 0  0.2863313060413428 0.19 0  0.2788630038042048 0.19 0  0.2713947015670686 0.19 0  0.2639263993299336 0.19 0  0.2564580970927985 0.19 0  0.2607803159922026 0.2000727136295815 0  0.5887803774232762 0.2001272386983733 0  0.5745072403740523 0.2002044435018727 0  0.5511891430099709 0.2001122610077113 0  0.2751288526855082 0.20000000000002 0  0.5365194309847112 0.1999999999999436 0  0.2894621222999649 0.1998691686390484 0  0.5215828265105155 0.1999999999999228 0  0.3127789816668748 0.1998657885438805 0  0.3274069683451451 0.2000000000000796 0  0.5066462220363641 0.199999999999908 0  0.3650630746574081 0.199866017807523 0  0.476773013087985 0.1999999999998713 0  0.3417402379596385 0.1998691686391011 0  0.3796850840047755 0.200000000000134 0  0.4618364086138087 0.1999999999998546 0  0.4917096175621762 0.1999999999998808 0  0.3946216884789568 0.2000000000001512 0  0.446899804139621 0.1999999999998389 0  0.4089549580935208 0.1998691686391595 0  0.4322718174608562 0.200127451265745 0  0.4201487168029707 0.1999966199048527 0  0.3528922713220932 0.2000185703532356 0  0.5633122436674589 0.1999814296467508 0  0.3006558810093873 0.1999966199048318 0  0.5815926498168407 0.1966545283159175 0  0.2677053789419034 0.1964246479135325 0  0.5290511287476175 0.1970915826863981 0  0.5439877332217911 0.197091582686394 0  0.2825131256993216 0.2035478995978015 0  0.3199386661080599 0.202908417313604 0  0.4842413153250809 0.1970915826863873 0  0.5141145242734466 0.1970915826863843 0  0.3722167817676917 0.2029084173136195 0  0.4693047108508938 0.1970915826863783 0  0.3348752705822316 0.202908417313609 0  0.3871533862418661 0.2029084173136212 0  0.4543681063767183 0.1970915826863795 0  0.4991779197992749 0.1970915826863902 0  0.4020059614928624 0.203547899597858 0  0.4394315019025246 0.1970915826863714 0  0.2550657455369551 0.2034088125358657 0  0.2548908499171161 0.1966940311614271 0  0.5946539510196798 0.2024302972968126 0  0.267698176732111 0.2039977513680092 0  0.4261685417851465 0.196409292431739 0  0.3590076176283495 0.196411355804271 0  0.5571672426447437 0.2036011176410121 0  0.3066757059912147 0.1964092924317024 0  0.594380730180568 0.1966558399668133 0  0.4842413153245942 0.2040749161535287 0  0.4693047108503577 0.2040749161535231 0  0.3871533862424271 0.1959250838464788 0  0.372246743208829 0.1959123236376545 0  0.5141145242731028 0.2040749161535395 0  0.4543681063761134 0.2040749161535186 0  0.4019979587101454 0.1959834479682427 0  0.4394608940728603 0.2040870543693135 0  0.5439623148931173 0.2040856076781014 0  0.5290511287473298 0.2040749161535501 0  0.4991779197988497 0.2040749161535382 0  0.3347912413592433 0.1959225448935183 0  0.3199680582793816 0.1959123018030061 0  0.2825051229162361 0.1959834479681729 0  0.3590471196690275 0.2036304442587945 0  0.5571594006495384 0.1963685282145804 0  0.3067669986803285 0.203627750582736 0  0.4262598344738712 0.2036568242185335 0  0.5814408164431408 0.2041285596160068 0  0.5688286748170428 0.1961819304477386 0  0.4145905603063645 0.2038180695522843 0  0.3473758401724931 0.2038180695522752 0  0.2950977245128307 0.2038180695522663 0  0.5688286748170693 0.203818069552238 0  0.2950977245127906 0.1961819304477774 0  0.3473758401723931 0.1961819304478349 0  0.4145905603061963 0.1961819304479011 0  0.2601812407614425 0.2056861609747042
[...]
<PointData  Vectors="f_40-0"> 
<DataArray  type="Float64"  Name="f_40-0"  NumberOfComponents="3" format="ascii">0.0000000000000000e+00 0.0000000000000000e+00 0.0000000000000000e+00  0.0000000000000000e+00 0.0000000000000000e+00 0.0000000000000000e+00  0.0000000000000000e+00 0.0000000000000000e+00 0.0000000000000000e+00  0.0000000000000000e+00 0.0000000000000000e+00 0.0000000000000000e+00  1.0824267397439258e-04 4.9610248619660052e-03 0.0000000000000000e+00  -2.5427988514349371e-04 4.9645921001143017e-03 0.0000000000000000e+00  0.0000000000000000e+00 0.0000000000000000e+00 0.0000000000000000e+00  0.0000000000000000e+00 0.0000000000000000e+00 0.0000000000000000e+00  0.0000000000000000e+00 0.0000000000000000e+00 0.0000000000000000e+00  0.0000000000000000e+00 0.0000000000000000e+00 0.0000000000000000e+00  -7.2676697763775030e-05 4.9627717135655959e-03 0.0000000000000000e+00  5.2689466510336957e-01 0.0000000000000000e+00 0.0000000000000000e+00  9.7272861249859310e-01 0.0000000000000000e+00 0.0000000000000000e+00  1.3375018421855658e+00 0.0000000000000000e+00 0.0000000000000000e+00  1.6212143541647097e+00 0.0000000000000000e+00 0.0000000000000000e+00  1.8238661484359890e+00 0.0000000000000000e+00 0.0000000000000000e+00  1.9454572249993902e+00 0.0000000000000000e+00 0.0000000000000000e+00  1.9859875838547927e+00 0.0000000000000000e+00 0.0000000000000000e+00  1.9454572250018483e+00 0.0000000000000000e+00 0.0000000000000000e+00  1.8238661484402114e+00 0.0000000000000000e+00 0.0000000000000000e+00  1.6212143541699391e+00 0.0000000000000000e+00 0.0000000000000000e+00  1.3375018421905336e+00 0.0000000000000000e+00 0.0000000000000000e+00  9.7272861250283238e-01 0.0000000000000000e+00 0.0000000000000000e+00  5.2689466510575822e-01 0.0000000000000000e+00 0.0000000000000000e+00  0.0000000000000000e+00 0.0000000000000000e+00 0.0000000000000000e+00  0.0000000000000000e+00 0.0000000000000000e+00 0.0000000000000000e+00  0.0000000000000000e+00 0.0000000000000000e+00 0.0000000000000000e+00  0.0000000000000000e+00 0.0000000000000000e+00 0.0000000000000000e+00  0.0000000000000000e+00 0.0000000000000000e+00 0.0000000000000000e+00  0.0000000000000000e+00 0.0000000000000000e+00 0.0000000000000000e+00  0.0000000000000000e+00 0.0000000000000000e+00 0.0000000000000000e+00  0.0000000000000000e+00 0.0000000000000000e+00 0.0000000000000000e+00  0.0000000000000000e+00 0.0000000000000000e+00 0.0000000000000000e+00  0.0000000000000000e+00 0.0000000000000000e+00 0.0000000000000000e+00  0.0000000000000000e+00 0.0000000000000000e+00 0.0000000000000000e+00  0.0000000000000000e+00 0.0000000000000000e+00 0.0000000000000000e+00  0.0000000000000000e+00 0.0000000000000000e+00 0.0000000000000000e+00  0.0000000000000000e+00 0.0000000000000000e+00 0.0000000000000000e+00  0.0000000000000000e+00 0.0000000000000000e+00 0.0000000000000000e+00  0.0000000000000000e+00 0.0000000000000000e+00 0.0000000000000000e+00  0.0000000000000000e+00 0.0000000000000000e+00 0.0000000000000000e+00  0.0000000000000000e+00 0.0000000000000000e+00 0.0000000000000000e+00  0.0000000000000000e+00 0.0000000000000000e+00 0.0000000000000000e+00  0.0000000000000000e+00 0.0000000000000000e+00 0.0000000000000000e+00  0.0000000000000000e+00 0.0000000000000000e+00 0.0000000000000000e+00  0.0000000000000000e+00 0.0000000000000000e+00 0.0000000000000000e+00  0.0000000000000000e+00 0.0000000000000000e+00 0.0000000000000000e+00  0.0000000000000000e+00 0.0000000000000000e+00 0.0000000000000000e+00  0.0000000000000000e+00 0.0000000000000000e+00 0.0000000000000000e+00  0.0000000000000000e+00 0.0000000000000000e+00 0.0000000000000000e+00  0.0000000000000000e+00 0.0000000000000000e+00 0.0000000000000000e+00  0.0000000000000000e+00 0.0000000000000000e+00 0.0000000000000000e+00  0.0000000000000000e+00 0.0000000000000000e+00 0.0000000000000000e+00  0.0000000000000000e+00 0.0000000000000000e+00 0.0000000000000000e+00  0.0000000000000000e+00 0.0000000000000000e+00 0.0000000000000000e+00  0.0000000000000000e+00 0.0000000000000000e+00 0.0000000000000000e+00  0.0000000000000000e+00 0.0000000000000000e+00 0.0000000000000000e+00  0.0000000000000000e+00 0.0000000000000000e+00 0.0000000000000000e+00  0.0000000000000000e+00 0.0000000000000000e+00 0.0000000000000000e+00  0.0000000000000000e+00 0.0000000000000000e+00 0.0000000000000000e+00  0.0000000000000000e+00 0.0000000000000000e+00 0.0000000000000000e+00  0.0000000000000000e+00 0.0000000000000000e+00 0.0000000000000000e+00  1.8081731370050245e+00 -2.9177127596739870e-02 0.0000000000000000e+00  1.4719812470327012e+00 1.6836254716671339e-02 0.0000000000000000e+00  1.7808172443249868e+00 6.4474905596536722e-02 0.0000000000000000e+00  0.0000000000000000e+00 0.0000000000000000e+00 0.0000000000000000e+00  0.0000000000000000e+00 0.0000000000000000e+00 0.0000000000000000e+00  0.0000000000000000e+00 0.0000000000000000e+00 0.0000000000000000e+00  0.0000000000000000e+00 0.0000000000000000e+00 0.0000000000000000e+00  0.0000000000000000e+00 0.0000000000000000e+00 0.0000000000000000e+00  0.0000000000000000e+00 0.0000000000000000e+00 0.0000000000000000e+00  0.0000000000000000e+00 0.0000000000000000e+00 0.0000000000000000e+00  0.0000000000000000e+00 0.0000000000000000e+00 0.0000000000000000e+00  0.0000000000000000e+00 0.0000000000000000e+00 0.0000000000000000e+00  0.0000000000000000e+00 0.0000000000000000e+00 0.0000000000000000e+00  0.0000000000000000e+00 0.0000000000000000e+00 0.0000000000000000e+00  0.0000000000000000e+00 0.0000000000000000e+00 0.0000000000000000e+00  0.0000000000000000e+00 0.0000000000000000e+00 0.0000000000000000e+00  0.0000000000000000e+00 0.0000000000000000e+00 0.0000000000000000e+00  0.0000000000000000e+00 0.0000000000000000e+00 0.0000000000000000e+00  0.0000000000000000e+00 0.0000000000000000e+00 0.0000000000000000e+00  0.0000000000000000e+00 0.0000000000000000e+00 0.0000000000000000e+00  0.0000000000000000e+00 0.0000000000000000e+00 0.0000000000000000e+00  0.0000000000000000e+00 0.0000000000000000e+00 0.0000000000000000e+00  0.0000000000000000e+00 0.0000000000000000e+00 0.0000000000000000e+00  0.0000000000000000e+00 0.0000000000000000e+00 0.0000000000000000e+00  0.0000000000000000e+00 0.0000000000000000e+00 0.0000000000000000e+00  0.0000000000000000e+00 0.0000000000000000e+00 0.0000000000000000e+00  0.0000000000000000e+00 0.0000000000000000e+00 0.0000000000000000e+00  0.0000000000000000e+00 0.0000000000000000e+00 0.0000000000000000e+00  0.0000000000000000e+00 0.0000000000000000e+00 0.0000000000000000e+00  0.0000000000000000e+00 0.0000000000000000e+00 0.0000000000000000e+00  0.0000000000000000e+00 0.0000000000000000e+00 0.0000000000000000e+00  0.0000000000000000e+00 0.0000000000000000e+00 0.0000000000000000e+00  0.0000000000000000e+00 0.0000000000000000e+00 0.0000000000000000e+00  0.0000000000000000e+00 0.0000000000000000e+00 0.0000000000000000e+00  0.0000000000000000e+00 0.0000000000000000e+00 0.0000000000000000e+00  0.0000000000000000e+00 0.0000000000000000e+00 0.0000000000000000e+00  0.0000000000000000e+00 0.0000000000000000e+00 0.0000000000000000e+00  0.0000000000000000e+00 0.0000000000000000e+00 0.0000000000000000e+00  0.0000000000000000e+00 0.0000000000000000e+00 0.0000000000000000e+00  0.0000000000000000e+00 0.0000000000000000e+00 0.0000000000000000e+00  0.0000000000000000e+00 0.0000000000000000e+00 0.0000000000000000e+00  0.0000000000000000e+00 0.0000000000000000e+00 0.0000000000000000e+00  0.0000000000000000e+00 0.0000000000000000e+00 0.0000000000000000e+00  0.0000000000000000e+00 0.0000000000000000e+00 0.0000000000000000e+00  0.0000000000000000e+00 0.0000000000000000e+00 0.0000000000000000e+00  0.0000000000000000e+00 0.0000000000000000e+00 0.0000000000000000e+00  0.0000000000000000e+00 0.0000000000000000e+00 0.0000000000000000e+00  0.0000000000000000e+00 0.0000000000000000e+00 0.0000000000000000e+00  0.0000000000000000e+00 0.0000000000000000e+00 0.0000000000000000e+00  0.0000000000000000e+00 0.0000000000000000e+00 0.0000000000000000e+00  0.0000000000000000e+00 0.0000000000000000e+00 0.0000000000000000e+00  0.0000000000000000e+00 0.0000000000000000e+00 0.0000000000000000e+00  0.0000000000000000e+00 0.0000000000000000e+00 0.0000000000000000e+00  0.0000000000000000e+00 0.0000000000000000e+00 0.0000000000000000e+00  0.0000000000000000e+00 0.0000000000000000e+00 0.0000000000000000e+00  0.0000000000000000e+00 0.0000000000000000e+00 0.0000000000000000e+00  0.0000000000000000e+00 0.0000000000000000e+00 0.0000000000000000e+00  0.0000000000000000e+00 0.0000000000000000e+00 0.0000000000000000e+00  0.0000000000000000e+00 0.0000000000000000e+00 0.0000000000000000e+00  0.0000000000000000e+00 0.0000000000000000e+00 0.0000000000000000e+00  0.0000000000000000e+00 0.0000000000000000e+00 0.0000000000000000e+00  0.0000000000000000e+00 0.0000000000000000e+00 0.0000000000000000e+00  0.0000000000000000e+00 0.0000000000000000e+00 0.0000000000000000e+00  0.0000000000000000e+00 0.0000000000000000e+00 0.0000000000000000e+00  0.0000000000000000e+00 0.0000000000000000e+00 0.0000000000000000e+00  0.0000000000000000e+00 0.0000000000000000e+00 0.0000000000000000e+00  0.0000000000000000e+00 0.0000000000000000e+00 0.0000000000000000e+00  0.0000000000000000e+00 0.0000000000000000e+00 0.0000000000000000e+00  0.0000000000000000e+00 0.0000000000000000e+00 0.0000000000000000e+00  0.0000000000000000e+00 0.0000000000000000e+00 0.0000000000000000e+00  0.0000000000000000e+00 0.0000000000000000e+00 0.0000000000000000e+00  0.0000000000000000e+00 0.0000000000000000e+00 0.0000000000000000e+00  0.0000000000000000e+00 0.0000000000000000e+00 0.0000000000000000e+00  0.0000000000000000e+00 0.0000000000000000e+00 0.0000000000000000e+00  0.0000000000000000e+00 0.0000000000000000e+00 0.0000000000000000e+00  0.0000000000000000e+00 0.0000000000000000e+00 0.0000000000000000e+00  0.0000000000000000e+00 0.0000000000000000e+00 0.0000000000000000e+00  0.0000000000000000e+00 0.0000000000000000e+00 0.0000000000000000e+00  0.0000000000000000e+00 0.0000000000000000e+00 0.0000000000000000e+00  0.0000000000000000e+00 0.0000000000000000e+00 0.0000000000000000e+00  0.0000000000000000e+00 0.0000000000000000e+00 0.0000000000000000e+00  -1.3677079950387835e-05 1.4380045459659814e-05 0.0000000000000000e+00  -2.9028010732209362e-05 2.8937467392182826e-05 0.0000000000000000e+00  -4.2902851377867711e-05 5.2108993176764751e-05 0.0000000000000000e+00  -5.7704289602280066e-05 8.4474225186675721e-05 0.0000000000000000e+00  -7.0329812488060999e-05 1.2449192331592685e-04 0.0000000000000000e+00  -8.4189754571827862e-05 1.7286637142182871e-04 0.0000000000000000e+00  -9.5630847524743004e-05 2.2730755041996641e-04 0.0000000000000000e+00  -1.0664534511635561e-04 2.8964888560844215e-04 0.0000000000000000e+00  -1.1882641108282680e-04 3.5788973666682234e-04 0.0000000000000000e+00  -1.2845989969421690e-04 4.3216286702659927e-04 0.0000000000000000e+00  -1.3957821513666701e-04 5.1231616241793768e-04 0.0000000000000000e+00  -1.4828969750402366e-04 5.9771692468207568e-04 0.0000000000000000e+00  -1.5801712538800696e-04 6.8814841554028347e-04 0.0000000000000000e+00  -1.6601019013008127e-04 7.8254352915476234e-04 0.0000000000000000e+00  -1.7363100144679596e-04 8.8175458005927015e-04 0.0000000000000000e+00  -1.8182323918055016e-04 9.8451306835800438e-04 0.0000000000000000e+00  -1.8834897011442271e-04 1.0907987521139983e-03 0.0000000000000000e+00  -1.9557466665124935e-04 1.2005085014364788e-03 0.0000000000000000e+00  -2.0128345678906368e-04 1.3130893988154201e-03 0.0000000000000000e+00  -2.0748375328888960e-04 1.4284008623764099e-03 0.0000000000000000e+00  -2.1260757485137529e-04 1.5461588612028392e-03 0.0000000000000000e+00  -2.1787110198424623e-04 1.6662802373076614e-03 0.0000000000000000e+00  -2.2228235331727653e-04 1.7880482284248322e-03 0.0000000000000000e+00  -2.2638274723577224e-04 1.9118957113540449e-03 0.0000000000000000e+00  -2.3057334130227906e-04 2.0371269523828243e-03 0.0000000000000000e+00  -2.3411245104110176e-04 2.1638705230732492e-03 0.0000000000000000e+00  -2.3747249338213058e-04 2.2919803085722579e-03 0.0000000000000000e+00  -2.4042080641907508e-04 2.4210724929751505e-03 0.0000000000000000e+00  -2.4317505976063987e-04 2.5512916351286439e-03 0.0000000000000000e+00  -2.4556771687083209e-04 2.6822436153865052e-03 0.0000000000000000e+00  -2.4776238396491190e-04 2.8140729974040347e-03 0.0000000000000000e+00  -2.4963338886962717e-04 2.9464160760980414e-03 0.0000000000000000e+00  -2.5131313159746055e-04 3.0794264101278329e-03 0.0000000000000000e+00  -2.5270081407273258e-04 3.2127624150232168e-03 0.0000000000000000e+00  -2.5389022203758059e-04 3.3466057582114887e-03 0.0000000000000000e+00  -2.5483485387595731e-04 3.4806396996887650e-03 0.0000000000000000e+00  -2.5559730231151289e-04 3.6150294251373108e-03 0.0000000000000000e+00  -2.5614758743069439e-04 3.7495086380042232e-03 0.0000000000000000e+00  -2.5652232028670376e-04 3.8842383935797299e-03 0.0000000000000000e+00  -2.5671291618359034e-04 4.0189943477755199e-03 0.0000000000000000e+00  -2.5673516749324016e-04 4.1539046315819941e-03 0.0000000000000000e+00  -2.5662415240064267e-04 4.2888355047009125e-03 0.0000000000000000e+00  -2.5634760758110921e-04 4.4238492621954759e-03 0.0000000000000000e+00  -2.5599593742509715e-04 4.5589025008676400e-03 0.0000000000000000e+00  -2.5549076143169974e-04 4.6939679505469721e-03 0.0000000000000000e+00  -2.5488809863463024e-04 4.8291371465446452e-03 0.0000000000000000e+00  -1.6332806354600124e-04 4.9636808597543101e-03 0.0000000000000000e+00  1.7879685263330498e-05 4.9618793989528141e-03 0.0000000000000000e+00  1.0753058036332581e-04 4.8257217662041208e-03 0.0000000000000000e+00  1.0680388235007057e-04 4.6902869014873727e-03 0.0000000000000000e+00  1.0616975560044062e-04 4.5548400576097192e-03 0.0000000000000000e+00  1.0564393112697787e-04 4.4194725590272453e-03 0.0000000000000000e+00  1.0520655248631737e-04 4.2841410453130155e-03 0.0000000000000000e+00  1.0490869341310303e-04 4.1488766223249946e-03 0.0000000000000000e+00  1.0465877352844099e-04 4.0136871470065469e-03 0.0000000000000000e+00  1.0455851844689675e-04 3.8785529107078151e-03 0.0000000000000000e+00  1.0449078101453263e-04 3.7435929704910092e-03 0.0000000000000000e+00  1.0456415006784350e-04 3.6087249850806375e-03 0.0000000000000000e+00  1.0462356769511801e-04 3.4741121880886620e-03 0.0000000000000000e+00  1.0483928173507338e-04 3.3396955824703295e-03 0.0000000000000000e+00  1.0498156878655209e-04 3.2056521402963230e-03 0.0000000000000000e+00  1.0529254048840736e-04 3.0719481388025499e-03 0.0000000000000000e+00  1.0544909912331172e-04 2.9387542414286861e-03 0.0000000000000000e+00  1.0580696745259819e-04 2.8060759940036805e-03 0.0000000000000000e+00  1.0591953562598275e-04 2.6740838763245510e-03 0.0000000000000000e+00  1.0627367697432102e-04 2.5428215556954669e-03 0.0000000000000000e+00  1.0627237563410368e-04 2.4124655301889461e-03 0.0000000000000000e+00  1.0656107495366423e-04 2.2830942935995456e-03 0.0000000000000000e+00  1.0635286376658281e-04 2.1548825520217954e-03 0.0000000000000000e+00  1.0649410516888312e-04 2.0279597751493407e-03 0.0000000000000000e+00  1.0603247982473498e-04 1.9025164857531273e-03 0.0000000000000000e+00  1.0584747574042822e-04 1.7785450521892723e-03 0.0000000000000000e+00  1.0554998080839110e-04 1.6566761889838027e-03 0.0000000000000000e+00  1.0459141864002586e-04 1.5364037958998612e-03 0.0000000000000000e+00  1.0378214980050390e-04 1.4186194070111744e-03 0.0000000000000000e+00  1.0242543608704349e-04 1.3031421461943192e-03 0.0000000000000000e+00  1.0108983471556244e-04 1.1905249040493181e-03 0.0000000000000000e+00  9.9153903286347431e-05 1.0807687836154110e-03 0.0000000000000000e+00  9.7217598314994731e-05 9.7427565850782957e-04 0.0000000000000000e+00  9.4183040745179802e-05 8.7172695682862867e-04 0.0000000000000000e+00  9.1737214211896762e-05 7.7242779806626900e-04 0.0000000000000000e+00  8.8981083474354376e-05 6.7807609914595599e-04 0.0000000000000000e+00  8.4798626022821578e-05 5.8731493577528877e-04 0.0000000000000000e+00  8.0876088927756289e-05 5.0208379729543818e-04 0.0000000000000000e+00  7.5956513964156434e-05 4.2187754807320143e-04 0.0000000000000000e+00  7.1149343142700770e-05 3.4734023867177334e-04 0.0000000000000000e+00  6.4618927994056447e-05 2.7945068233392167e-04 0.0000000000000000e+00  5.9149755309899822e-05 2.1698026466937870e-04 0.0000000000000000e+00  5.3304133370980665e-05 1.6252827255519001e-04 0.0000000000000000e+00  4.5234064359896909e-05 1.1390006968764200e-04 0.0000000000000000e+00  3.7933175008360631e-05 7.3665643658707259e-05 0.0000000000000000e+00  2.8591163335255133e-05 4.1637845023221943e-05 0.0000000000000000e+00  2.0247784948731113e-05 1.8499648491435607e-05 0.0000000000000000e+00  9.5820413609735882e-06 4.5487684169594869e-06 0.0000000000000000e+00  -2.5736269794051426e-06 1.0134579007781079e-05 0.0000000000000000e+00  -7.6177141724756469e-05 4.7594565824816250e-03 0.0000000000000000e+00  -7.8756729448952484e-05 4.5009603580560839e-03 0.0000000000000000e+00  -7.7944736024010102e-05 4.0789909168802239e-03 0.0000000000000000e+00  -8.3666532745190097e-06 5.6378741013069286e-05 0.0000000000000000e+00  -7.5818715230760886e-05 3.8138517130929107e-03 0.0000000000000000e+00  -1.3003830137370685e-05 1.3338184962036719e-04 0.0000000000000000e+00  -7.5220615089233942e-05 3.5444352857217374e-03 0.0000000000000000e+00  -2.1224584672826527e-05 3.1638938650955655e-04 0.0000000000000000e+00  -2.7797483003922413e-05 4.6287785190492789e-04 0.0000000000000000e+00  -7.4097908299720246e-05 3.2758950778184943e-03 0.0000000000000000e+00  -3.9211177571138269e-05 9.2936747864408884e-04 0.0000000000000000e+00  -7.0307852744045871e-05 2.7435570847411184e-03 0.0000000000000000e+00  -3.1397043900852176e-05 6.2658627660445998e-04 0.0000000000000000e+00  -4.5901423663757959e-05 1.1382121312163537e-03 0.0000000000000000e+00  -6.7674175021722636e-05 2.4811703458785437e-03 0.0000000000000000e+00  -7.2456130142219604e-05 3.0087247843933363e-03 0.0000000000000000e+00  -5.0619621736191432e-05 1.3637635445043323e-03 0.0000000000000000e+00  -6.4572701478854459e-05 2.2225050447239386e-03 0.0000000000000000e+00  -5.2788491745721091e-05 1.5898611437891034e-03 0.0000000000000000e+00  -6.3272497928946461e-05 1.9738915121162407e-03 0.0000000000000000e+00  -5.7912074183120005e-05 1.7723325175766930e-03 0.0000000000000000e+00  -3.7098318401406081e-05 7.6699216755536116e-04 0.0000000000000000e+00  -7.5240333509519593e-05 4.2982788659030021e-03 0.0000000000000000e+00  -1.7898232370392338e-05 2.1405401635511359e-04 0.0000000000000000e+00  -1.3933780949370342e-05 4.6286022338690143e-03 0.0000000000000000e+00  5.4260697248626669e-06 2.7449239311686096e-05 0.0000000000000000e+00  -2.3179265707173677e-05 3.6781907192771149e-03 0.0000000000000000e+00  -2.3398269728186308e-05 3.9479843111812915e-03 0.0000000000000000e+00  -2.9674868043418789e-05 9.5225250199932005e-05 0.0000000000000000e+00  -5.3809282942006121e-05 3.8733492428025355e-04 0.0000000000000000e+00  -1.9928827266659855e-05 2.8747659828007571e-03 0.0000000000000000e+00  -2.2511307164623972e-05 3.4090804129512679e-03 0.0000000000000000e+00  -8.4662321614093766e-05 1.0317175958760474e-03 0.0000000000000000e+00  -1.8099173085829405e-05 2.6108294582352113e-03 0.0000000000000000e+00  -6.3319483227980072e-05 5.4783630978082350e-04 0.0000000000000000e+00  -9.1894840302926062e-05 1.2512908640817345e-03 0.0000000000000000e+00  -1.5974196927833903e-05 2.3501358748640624e-03 0.0000000000000000e+00  -2.1413970676282808e-05 3.1410835158092437e-03 0.0000000000000000e+00  -1.0849478812551863e-04 1.4812099082538511e-03 0.0000000000000000e+00  -1.3597651630096567e-05 2.0936992321905269e-03 0.0000000000000000e+00  -2.6436456248878874e-06 3.3985191134855544e-06 0.0000000000000000e+00  1.2411375958385012e-06 9.0766197938910941e-07 0.0000000000000000e+00  -1.1729688637469835e-04 4.8662912457211266e-03 0.0000000000000000e+00  -1.7592608292267587e-05 3.1667177251915802e-05 0.0000000000000000e+00  -4.2495628079389784e-08 1.8702273639252002e-03 0.000000