<?xml version="1.0"?>
<VTKFile type="UnstructuredGrid"  version="0.1"  >
<UnstructuredGrid>
<Piece  NumberOfPoints="1419" NumberOfCells="2698">
<Points>
<DataArray  type="Float64"  NumberOfComponents="3"  format="ascii">0 0 0  0 0.41 0  2.5 0 0  2.5 0.41 0  0.6 0.19 0  0.6 0.21 0  0.25 0.2 0  0.15 0.2 0  0.2489897948556636 0.21 0  0.2489897948556636 0.19 0  0.6 0.2 0  0 0.3807142857143437 0  0 0.3514285714286952 0  0 0.3221428571430699 0  0 0.29285714285744 0  0 0.2635714285718054 0  0 0.2342857142861561 0  0 0.2050000000005308 0  0 0.175714285714732 0  0 0.1464285714289574 0  0 0.1171428571431897 0  0 0.08785714285737878 0  0 0.05857142857161107 0  0 0.02928571428580012 0  0.03015443760436003 0 0  0.06140001986583606 0 0  0.09377624077125973 0 0  0.1273239957535082 0 0  0.1620856860351972 0 0  0.1981052433264291 0 0  0.235428184091502 0 0  0.2741016576309132 0 0  0.3141745521465447 0 0  0.3556974926295285 0 0  0.3987229542472677 0 0  0.4433053055141081 0 0  0.4895008759286886 0 0  0.5373680609405097 0 0  0.5869673343216626 0 0  0.6383613676634521 0 0  0.6916151138468254 0 0  0.7467958595648856 0 0  0.8039733463919316 0 0  0.8632198139502143 0 0  0.9246101326867038 0 0  0.9882218810934433 0 0  1.054135445558498 0 0  1.122434100542598 0 0  1.193204177141305 0 0  1.266535089879536 0 0  1.342519516046404 0 0  1.421253448503939 0 0  1.502836389106271 0 0  1.587371439758838 0 0  1.674965418777374 0 0  1.765729001825544 0 0  1.859776908880082 0 0  1.957227977487062 0 0  2.058205329869943 0 0  2.162836591189951 0 0  2.271253957290865 0 0  2.383594446803425 0 0  2.5 0.1024999999997612 0  2.5 0.2049999999994743 0  2.5 0.3074999999997183 0  2.383594446803656 0.41 0  2.271253957291315 0.41 0  2.162836591190598 0.41 0  2.058205329870775 0.41 0  1.957227977488067 0.41 0  1.859776908881246 0.41 0  1.765729001826854 0.41 0  1.674965418778818 0.41 0  1.58737143976041 0.41 0  1.502836389107956 0.41 0  1.421253448505726 0.41 0  1.342519516048286 0.41 0  1.266535089881505 0.41 0  1.193204177143353 0.41 0  1.122434100544716 0.41 0  1.05413544556068 0.41 0  0.9882218810956305 0.41 0  0.9246101326886647 0.41 0  0.8632198139519631 0.41 0  0.8039733463934788 0.41 0  0.7467958595662458 0.41 0  0.6916151138480078 0.41 0  0.6383613676644679 0.41 0  0.5869673343225223 0.41 0  0.5373680609412221 0.41 0  0.4895008759292634 0.41 0  0.4433053055145528 0.41 0  0.3987229542475914 0.41 0  0.3556974926297398 0.41 0  0.3141745521466497 0.41 0  0.2741016576310038 0.41 0  0.2354281840915826 0.41 0  0.1981052433265003 0.41 0  0.1620856860352591 0.41 0  0.1273239957535623 0.41 0  0.09377624077128965 0.41 0  0.06140001986584975 0.41 0  0.03015443760436654 0.41 0  0.2497468076502589 0.2050254481002335 0  0.2497468076502614 0.1949745518997913 0  0.2469965252529372 0.1829317073451959 0  0.2439893735792749 0.1762316384219906 0  0.2400332147834255 0.1700443375285386 0  0.2352133972704371 0.1645032867342007 0  0.2296339016332438 0.1597280261969788 0  0.2234150974217223 0.1558215752574715 0  0.2166911463437691 0.1528682099456123 0  0.2096071079204251 0.1509316448471593 0  0.2023158100364996 0.1500536585536553 0  0.194974551899914 0.1502531923497262 0  0.1877417105387872 0.1515259415822739 0  0.1807733240461124 0.153844448527136 0  0.1742197252835808 0.15715869474974 0  0.1682222986673531 0.1613971801805478 0  0.162910430003803 0.1664684656256651 0  0.1583987151779087 0.1722631454351573 0  0.1547844879126891 0.178656207771761 0  0.1521457199348551 0.1855097315605723 0  0.1505393388476355 0.1926758619366523 0  0.1505393388476328 0.2073241380633295 0  0.1521457199348437 0.2144902684393899 0  0.1547844879126531 0.221343792228163 0  0.1583987151778488 0.2277368545647528 0  0.1629104300036858 0.2335315343742052 0  0.1682222986671726 0.2386028198193036 0  0.1742197252833576 0.2428413052501257 0  0.1807733240458683 0.2461555514727623 0  0.1877417105384929 0.2484740584176516 0  0.1949745518995776 0.2497468076502398 0  0.202315810036185 0.2499463414463592 0  0.2096071079201568 0.2490683551528932 0  0.2166911463435495 0.2471317900544655 0  0.2234150974215506 0.2441784247426195 0  0.2296339016331197 0.2402719738031125 0  0.2352133972703547 0.2354967132658811 0  0.2400332147833751 0.2299556624715287 0  0.2439893735792577 0.2237683615780412 0  0.246996525252926 0.2170682926548348 0  0.25645809709277 0.21 0  0.2639263993298655 0.21 0  0.271394701566961 0.21 0  0.2788630038040554 0.21 0  0.2863313060411479 0.21 0  0.2937996082782405 0.21 0  0.301267910515333 0.21 0  0.3087362127524279 0.21 0  0.3162045149895234 0.21 0  0.3236728172265972 0.21 0  0.3311411194636928 0.21 0  0.3386094217007701 0.21 0  0.3460777239378666 0.21 0  0.3535460261749672 0.21 0  0.3610143284120516 0.21 0  0.3684826306491596 0.21 0  0.3759509328862226 0.21 0  0.383419235123329 0.21 0  0.3908875373604028 0.21 0  0.3983558395975142 0.21 0  0.4058241418345938 0.21 0  0.4132924440716992 0.21 0  0.4207607463087888 0.21 0  0.4282290485459029 0.21 0  0.4356973507830418 0.21 0  0.4431656530201649 0.21 0  0.4506339552573136 0.21 0  0.4581022574944306 0.21 0  0.4655705597315852 0.21 0  0.4730388619686996 0.21 0  0.480507164205851 0.21 0  0.4879754664429498 0.21 0  0.4954437686800938 0.21 0  0.502912070917267 0.21 0  0.5103803731544119 0.21 0  0.5178486753915261 0.21 0  0.5253169776286404 0.21 0  0.5327852798657868 0.21 0  0.5402535821029386 0.21 0  0.54772188434007 0.21 0  0.5551901865771842 0.21 0  0.5626584888143201 0.21 0  0.5701267910514778 0.21 0  0.5775950932886138 0.21 0  0.5850633955257281 0.21 0  0.5925316977628483 0.21 0  0.6 0.2050000000000054 0  0.6 0.1950000000000217 0  0.5925316977628897 0.19 0  0.5850633955257988 0.19 0  0.5775950932887378 0.19 0  0.5701267910515998 0.19 0  0.5626584888145268 0.19 0  0.5551901865773963 0.19 0  0.547721884340339 0.19 0  0.5402535821032429 0.19 0  0.5327852798661811 0.19 0  0.5253169776290537 0.19 0  0.5178486753919799 0.19 0  0.5103803731549078 0.19 0  0.502912070917822 0.19 0  0.4954437686807294 0.19 0  0.4879754664436223 0.19 0  0.4805071642065402 0.19 0  0.4730388619694271 0.19 0  0.4655705597323621 0.19 0  0.4581022574952563 0.19 0  0.4506339552581777 0.19 0  0.4431656530210671 0.19 0  0.4356973507839815 0.19 0  0.4282290485468779 0.19 0  0.4207607463097617 0.19 0  0.4132924440726327 0.19 0  0.4058241418354857 0.19 0  0.3983558395983636 0.19 0  0.3908875373612097 0.19 0  0.3834192351240934 0.19 0  0.3759509328869369 0.19 0  0.3684826306498175 0.19 0  0.361014328412667 0.19 0  0.3535460261755617 0.19 0  0.3460777239384295 0.19 0  0.3386094217012945 0.19 0  0.3311411194641595 0.19 0  0.3236728172270245 0.19 0  0.3162045149898895 0.19 0  0.3087362127527544 0.19 0  0.3012679105156187 0.19 0  0.2937996082784807 0.19 0  0.2863313060413428 0.19 0  0.2788630038042048 0.19 0  0.2713947015670686 0.19 0  0.2639263993299336 0.19 0  0.2564580970927985 0.19 0  0.2607803159922026 0.2000727136295815 0  0.5887803774232762 0.2001272386983733 0  0.5745072403740523 0.2002044435018727 0  0.5511891430099709 0.2001122610077113 0  0.2751288526855082 0.20000000000002 0  0.5365194309847112 0.1999999999999436 0  0.2894621222999649 0.1998691686390484 0  0.5215828265105155 0.1999999999999228 0  0.3127789816668748 0.1998657885438805 0  0.3274069683451451 0.2000000000000796 0  0.5066462220363641 0.199999999999908 0  0.3650630746574081 0.199866017807523 0  0.476773013087985 0.1999999999998713 0  0.3417402379596385 0.1998691686391011 0  0.3796850840047755 0.200000000000134 0  0.4618364086138087 0.1999999999998546 0  0.4917096175621762 0.1999999999998808 0  0.3946216884789568 0.2000000000001512 0  0.446899804139621 0.1999999999998389 0  0.4089549580935208 0.1998691686391595 0  0.4322718174608562 0.200127451265745 0  0.4201487168029707 0.1999966199048527 0  0.3528922713220932 0.2000185703532356 0  0.5633122436674589 0.1999814296467508 0  0.3006558810093873 0.1999966199048318 0  0.5815926498168407 0.1966545283159175 0  0.2677053789419034 0.1964246479135325 0  0.5290511287476175 0.1970915826863981 0  0.5439877332217911 0.197091582686394 0  0.2825131256993216 0.2035478995978015 0  0.3199386661080599 0.202908417313604 0  0.4842413153250809 0.1970915826863873 0  0.5141145242734466 0.1970915826863843 0  0.3722167817676917 0.2029084173136195 0  0.4693047108508938 0.1970915826863783 0  0.3348752705822316 0.202908417313609 0  0.3871533862418661 0.2029084173136212 0  0.4543681063767183 0.1970915826863795 0  0.4991779197992749 0.1970915826863902 0  0.4020059614928624 0.203547899597858 0  0.4394315019025246 0.1970915826863714 0  0.2550657455369551 0.2034088125358657 0  0.2548908499171161 0.1966940311614271 0  0.5946539510196798 0.2024302972968126 0  0.267698176732111 0.2039977513680092 0  0.4261685417851465 0.196409292431739 0  0.3590076176283495 0.196411355804271 0  0.5571672426447437 0.2036011176410121 0  0.3066757059912147 0.1964092924317024 0  0.594380730180568 0.1966558399668133 0  0.4842413153245942 0.2040749161535287 0  0.4693047108503577 0.2040749161535231 0  0.3871533862424271 0.1959250838464788 0  0.372246743208829 0.1959123236376545 0  0.5141145242731028 0.2040749161535395 0  0.4543681063761134 0.2040749161535186 0  0.4019979587101454 0.1959834479682427 0  0.4394608940728603 0.2040870543693135 0  0.5439623148931173 0.2040856076781014 0  0.5290511287473298 0.2040749161535501 0  0.4991779197988497 0.2040749161535382 0  0.3347912413592433 0.1959225448935183 0  0.3199680582793816 0.1959123018030061 0  0.2825051229162361 0.1959834479681729 0  0.3590471196690275 0.2036304442587945 0  0.5571594006495384 0.1963685282145804 0  0.3067669986803285 0.203627750582736 0  0.4262598344738712 0.2036568242185335 0  0.5814408164431408 0.2041285596160068 0  0.5688286748170428 0.1961819304477386 0  0.4145905603063645 0.2038180695522843 0  0.3473758401724931 0.2038180695522752 0  0.2950977245128307 0.2038180695522663 0  0.5688286748170693 0.203818069552238 0  0.2950977245127906 0.1961819304477774 0  0.3473758401723931 0.1961819304478349 0  0.4145905603061963 0.1961819304479011 0  0.2601812407614425 0.2056861609747042
[...]
<PointData  Vectors="f_40-0"> 
<DataArray  type="Float64"  Name="f_40-0"  NumberOfComponents="3" format="ascii">0.0000000000000000e+00 0.0000000000000000e+00 0.0000000000000000e+00  0.0000000000000000e+00 0.0000000000000000e+00 0.0000000000000000e+00  0.0000000000000000e+00 0.0000000000000000e+00 0.0000000000000000e+00  0.0000000000000000e+00 0.0000000000000000e+00 0.0000000000000000e+00  -8.1316404308869699e-08 -8.5991771746568560e-07 0.0000000000000000e+00  -4.9351457128168843e-08 -8.6689738216308777e-07 0.0000000000000000e+00  0.0000000000000000e+00 0.0000000000000000e+00 0.0000000000000000e+00  0.0000000000000000e+00 0.0000000000000000e+00 0.0000000000000000e+00  0.0000000000000000e+00 0.0000000000000000e+00 0.0000000000000000e+00  0.0000000000000000e+00 0.0000000000000000e+00 0.0000000000000000e+00  -6.5471117202193890e-08 -8.7841320547690758e-07 0.0000000000000000e+00  7.9591836734548405e-01 0.0000000000000000e+00 0.0000000000000000e+00  1.4693877550994523e+00 0.0000000000000000e+00 0.0000000000000000e+00  2.0204081632617479e+00 0.0000000000000000e+00 0.0000000000000000e+00  2.4489795918330071e+00 0.0000000000000000e+00 0.0000000000000000e+00  2.7551020408131754e+00 0.0000000000000000e+00 0.0000000000000000e+00  2.9387755102022344e+00 0.0000000000000000e+00 0.0000000000000000e+00  3.0000000000000004e+00 0.0000000000000000e+00 0.0000000000000000e+00  2.9387755102059474e+00 0.0000000000000000e+00 0.0000000000000000e+00  2.7551020408195543e+00 0.0000000000000000e+00 0.0000000000000000e+00  2.4489795918409065e+00 0.0000000000000000e+00 0.0000000000000000e+00  2.0204081632692521e+00 0.0000000000000000e+00 0.0000000000000000e+00  1.4693877551058563e+00 0.0000000000000000e+00 0.0000000000000000e+00  7.9591836734909216e-01 0.0000000000000000e+00 0.0000000000000000e+00  0.0000000000000000e+00 0.0000000000000000e+00 0.0000000000000000e+00  0.0000000000000000e+00 0.0000000000000000e+00 0.0000000000000000e+00  0.0000000000000000e+00 0.0000000000000000e+00 0.0000000000000000e+00  0.0000000000000000e+00 0.0000000000000000e+00 0.0000000000000000e+00  0.0000000000000000e+00 0.0000000000000000e+00 0.0000000000000000e+00  0.0000000000000000e+00 0.0000000000000000e+00 0.0000000000000000e+00  0.0000000000000000e+00 0.0000000000000000e+00 0.0000000000000000e+00  0.0000000000000000e+00 0.0000000000000000e+00 0.0000000000000000e+00  0.0000000000000000e+00 0.0000000000000000e+00 0.0000000000000000e+00  0.0000000000000000e+00 0.0000000000000000e+00 0.0000000000000000e+00  0.0000000000000000e+00 0.0000000000000000e+00 0.0000000000000000e+00  0.0000000000000000e+00 0.0000000000000000e+00 0.0000000000000000e+00  0.0000000000000000e+00 0.0000000000000000e+00 0.0000000000000000e+00  0.0000000000000000e+00 0.0000000000000000e+00 0.0000000000000000e+00  0.0000000000000000e+00 0.0000000000000000e+00 0.0000000000000000e+00  0.0000000000000000e+00 0.0000000000000000e+00 0.0000000000000000e+00  0.0000000000000000e+00 0.0000000000000000e+00 0.0000000000000000e+00  0.0000000000000000e+00 0.0000000000000000e+00 0.0000000000000000e+00  0.0000000000000000e+00 0.0000000000000000e+00 0.0000000000000000e+00  0.0000000000000000e+00 0.0000000000000000e+00 0.0000000000000000e+00  0.0000000000000000e+00 0.0000000000000000e+00 0.0000000000000000e+00  0.0000000000000000e+00 0.0000000000000000e+00 0.0000000000000000e+00  0.0000000000000000e+00 0.0000000000000000e+00 0.0000000000000000e+00  0.0000000000000000e+00 0.0000000000000000e+00 0.0000000000000000e+00  0.0000000000000000e+00 0.0000000000000000e+00 0.0000000000000000e+00  0.0000000000000000e+00 0.0000000000000000e+00 0.0000000000000000e+00  0.0000000000000000e+00 0.0000000000000000e+00 0.0000000000000000e+00  0.0000000000000000e+00 0.0000000000000000e+00 0.0000000000000000e+00  0.0000000000000000e+00 0.0000000000000000e+00 0.0000000000000000e+00  0.0000000000000000e+00 0.0000000000000000e+00 0.0000000000000000e+00  0.0000000000000000e+00 0.0000000000000000e+00 0.0000000000000000e+00  0.0000000000000000e+00 0.0000000000000000e+00 0.0000000000000000e+00  0.0000000000000000e+00 0.0000000000000000e+00 0.0000000000000000e+00  0.0000000000000000e+00 0.0000000000000000e+00 0.0000000000000000e+00  0.0000000000000000e+00 0.0000000000000000e+00 0.0000000000000000e+00  0.0000000000000000e+00 0.0000000000000000e+00 0.0000000000000000e+00  0.0000000000000000e+00 0.0000000000000000e+00 0.0000000000000000e+00  0.0000000000000000e+00 0.0000000000000000e+00 0.0000000000000000e+00  2.6663986171361698e+00 1.6331661840780907e-02 0.0000000000000000e+00  2.3230026240590269e+00 1.7403729275895230e-02 0.0000000000000000e+00  2.8328221050056284e+00 6.9978402940634760e-02 0.0000000000000000e+00  0.0000000000000000e+00 0.0000000000000000e+00 0.0000000000000000e+00  0.0000000000000000e+00 0.0000000000000000e+00 0.0000000000000000e+00  0.0000000000000000e+00 0.0000000000000000e+00 0.0000000000000000e+00  0.0000000000000000e+00 0.0000000000000000e+00 0.0000000000000000e+00  0.0000000000000000e+00 0.0000000000000000e+00 0.0000000000000000e+00  0.0000000000000000e+00 0.0000000000000000e+00 0.0000000000000000e+00  0.0000000000000000e+00 0.0000000000000000e+00 0.0000000000000000e+00  0.0000000000000000e+00 0.0000000000000000e+00 0.0000000000000000e+00  0.0000000000000000e+00 0.0000000000000000e+00 0.0000000000000000e+00  0.0000000000000000e+00 0.0000000000000000e+00 0.0000000000000000e+00  0.0000000000000000e+00 0.0000000000000000e+00 0.0000000000000000e+00  0.0000000000000000e+00 0.0000000000000000e+00 0.0000000000000000e+00  0.0000000000000000e+00 0.0000000000000000e+00 0.0000000000000000e+00  0.0000000000000000e+00 0.0000000000000000e+00 0.0000000000000000e+00  0.0000000000000000e+00 0.0000000000000000e+00 0.0000000000000000e+00  0.0000000000000000e+00 0.0000000000000000e+00 0.0000000000000000e+00  0.0000000000000000e+00 0.0000000000000000e+00 0.0000000000000000e+00  0.0000000000000000e+00 0.0000000000000000e+00 0.0000000000000000e+00  0.0000000000000000e+00 0.0000000000000000e+00 0.0000000000000000e+00  0.0000000000000000e+00 0.0000000000000000e+00 0.0000000000000000e+00  0.0000000000000000e+00 0.0000000000000000e+00 0.0000000000000000e+00  0.0000000000000000e+00 0.0000000000000000e+00 0.0000000000000000e+00  0.0000000000000000e+00 0.0000000000000000e+00 0.0000000000000000e+00  0.0000000000000000e+00 0.0000000000000000e+00 0.0000000000000000e+00  0.0000000000000000e+00 0.0000000000000000e+00 0.0000000000000000e+00  0.0000000000000000e+00 0.0000000000000000e+00 0.0000000000000000e+00  0.0000000000000000e+00 0.0000000000000000e+00 0.0000000000000000e+00  0.0000000000000000e+00 0.0000000000000000e+00 0.0000000000000000e+00  0.0000000000000000e+00 0.0000000000000000e+00 0.0000000000000000e+00  0.0000000000000000e+00 0.0000000000000000e+00 0.0000000000000000e+00  0.0000000000000000e+00 0.0000000000000000e+00 0.0000000000000000e+00  0.0000000000000000e+00 0.0000000000000000e+00 0.0000000000000000e+00  0.0000000000000000e+00 0.0000000000000000e+00 0.0000000000000000e+00  0.0000000000000000e+00 0.0000000000000000e+00 0.0000000000000000e+00  0.0000000000000000e+00 0.0000000000000000e+00 0.0000000000000000e+00  0.0000000000000000e+00 0.0000000000000000e+00 0.0000000000000000e+00  0.0000000000000000e+00 0.0000000000000000e+00 0.0000000000000000e+00  0.0000000000000000e+00 0.0000000000000000e+00 0.0000000000000000e+00  0.0000000000000000e+00 0.0000000000000000e+00 0.0000000000000000e+00  0.0000000000000000e+00 0.0000000000000000e+00 0.0000000000000000e+00  0.0000000000000000e+00 0.0000000000000000e+00 0.0000000000000000e+00  0.0000000000000000e+00 0.0000000000000000e+00 0.0000000000000000e+00  0.0000000000000000e+00 0.0000000000000000e+00 0.0000000000000000e+00  0.0000000000000000e+00 0.0000000000000000e+00 0.0000000000000000e+00  0.0000000000000000e+00 0.0000000000000000e+00 0.0000000000000000e+00  0.0000000000000000e+00 0.0000000000000000e+00 0.0000000000000000e+00  0.0000000000000000e+00 0.0000000000000000e+00 0.0000000000000000e+00  0.0000000000000000e+00 0.0000000000000000e+00 0.0000000000000000e+00  0.0000000000000000e+00 0.0000000000000000e+00 0.0000000000000000e+00  0.0000000000000000e+00 0.0000000000000000e+00 0.0000000000000000e+00  0.0000000000000000e+00 0.0000000000000000e+00 0.0000000000000000e+00  0.0000000000000000e+00 0.0000000000000000e+00 0.0000000000000000e+00  0.0000000000000000e+00 0.0000000000000000e+00 0.0000000000000000e+00  0.0000000000000000e+00 0.0000000000000000e+00 0.0000000000000000e+00  0.0000000000000000e+00 0.0000000000000000e+00 0.0000000000000000e+00  0.0000000000000000e+00 0.0000000000000000e+00 0.0000000000000000e+00  0.0000000000000000e+00 0.0000000000000000e+00 0.0000000000000000e+00  0.0000000000000000e+00 0.0000000000000000e+00 0.0000000000000000e+00  0.0000000000000000e+00 0.0000000000000000e+00 0.0000000000000000e+00  0.0000000000000000e+00 0.0000000000000000e+00 0.0000000000000000e+00  0.0000000000000000e+00 0.0000000000000000e+00 0.0000000000000000e+00  0.0000000000000000e+00 0.0000000000000000e+00 0.0000000000000000e+00  0.0000000000000000e+00 0.0000000000000000e+00 0.0000000000000000e+00  0.0000000000000000e+00 0.0000000000000000e+00 0.0000000000000000e+00  0.0000000000000000e+00 0.0000000000000000e+00 0.0000000000000000e+00  0.0000000000000000e+00 0.0000000000000000e+00 0.0000000000000000e+00  0.0000000000000000e+00 0.0000000000000000e+00 0.0000000000000000e+00  0.0000000000000000e+00 0.0000000000000000e+00 0.0000000000000000e+00  0.0000000000000000e+00 0.0000000000000000e+00 0.0000000000000000e+00  0.0000000000000000e+00 0.0000000000000000e+00 0.0000000000000000e+00  0.0000000000000000e+00 0.0000000000000000e+00 0.0000000000000000e+00  0.0000000000000000e+00 0.0000000000000000e+00 0.0000000000000000e+00  0.0000000000000000e+00 0.0000000000000000e+00 0.0000000000000000e+00  0.0000000000000000e+00 0.0000000000000000e+00 0.0000000000000000e+00  0.0000000000000000e+00 0.0000000000000000e+00 0.0000000000000000e+00  0.0000000000000000e+00 0.0000000000000000e+00 0.0000000000000000e+00  0.0000000000000000e+00 0.0000000000000000e+00 0.0000000000000000e+00  0.0000000000000000e+00 0.0000000000000000e+00 0.0000000000000000e+00  4.0745904570593738e-09 -7.2090898167218588e-09 0.0000000000000000e+00  8.2902753864440370e-09 -1.4809254771536880e-08 0.0000000000000000e+00  1.1381588363487550e-08 -2.5985409068200524e-08 0.0000000000000000e+00  1.4388877845933235e-08 -4.0824945078041350e-08 0.0000000000000000e+00  1.6263883306384438e-08 -5.8203844614864571e-08 0.0000000000000000e+00  1.8082039410985209e-08 -7.8270151286145468e-08 0.0000000000000000e+00  1.8949810062809005e-08 -9.9846513272271489e-08 0.0000000000000000e+00  1.9378046053298080e-08 -1.2344954803738093e-07 0.0000000000000000e+00  1.9740513554504671e-08 -1.4811545488055955e-07 0.0000000000000000e+00  1.9372952785364388e-08 -1.7372229574322804e-07 0.0000000000000000e+00  1.8882428401060387e-08 -2.0007479483241672e-07 0.0000000000000000e+00  1.7932327730257183e-08 -2.2676431973628018e-07 0.0000000000000000e+00  1.6728785654483206e-08 -2.5365858067633595e-07 0.0000000000000000e+00  1.5336743696905517e-08 -2.8052952651688895e-07 0.0000000000000000e+00  1.3703917168885558e-08 -3.0717460176819385e-07 0.0000000000000000e+00  1.1842843751413737e-08 -3.3354611644989156e-07 0.0000000000000000e+00  9.9536062602367558e-09 -3.5941308458479947e-07 0.0000000000000000e+00  7.7542249894858231e-09 -3.8476299223820235e-07 0.0000000000000000e+00  5.6786000248328543e-09 -4.0942503844235542e-07 0.0000000000000000e+00  3.3081751875285757e-09 -4.3344002513845974e-07 0.0000000000000000e+00  1.0809432827618542e-09 -4.5666588053159122e-07 0.0000000000000000e+00  -1.3755982288005855e-09 -4.7905917778152155e-07 0.0000000000000000e+00  -3.6050456927014070e-09 -5.0099792370513347e-07 0.0000000000000000e+00  -5.8922486150702007e-09 -5.2173703299089757e-07 0.0000000000000000e+00  -8.3026019580954045e-09 -5.4204835168620406e-07 0.0000000000000000e+00  -1.0551380641810321e-08 -5.6150809057408056e-07 0.0000000000000000e+00  -1.2825278248665014e-08 -5.8031973056731331e-07 0.0000000000000000e+00  -1.4985779892529530e-08 -5.9848299692503506e-07 0.0000000000000000e+00  -1.7146637825757228e-08 -6.1603798539667765e-07 0.0000000000000000e+00  -1.9193915859649413e-08 -6.3307607543883893e-07 0.0000000000000000e+00  -2.1224829857548780e-08 -6.4958090263448926e-07 0.0000000000000000e+00  -2.3148455549641479e-08 -6.6567779501307201e-07 0.0000000000000000e+00  -2.5046282383020912e-08 -6.8136242670782130e-07 0.0000000000000000e+00  -2.6850686988937660e-08 -6.9670744763132208e-07 0.0000000000000000e+00  -2.8624531542832201e-08 -7.1176130323697910e-07 0.0000000000000000e+00  -3.0319668594560672e-08 -7.2657439485720807e-07 0.0000000000000000e+00  -3.1987682781858777e-08 -7.4116537639871828e-07 0.0000000000000000e+00  -3.3596757565369655e-08 -7.5559617362693091e-07 0.0000000000000000e+00  -3.5187009959694605e-08 -7.6985268726780761e-07 0.0000000000000000e+00  -3.6734434067772876e-08 -7.8401995552340569e-07 0.0000000000000000e+00  -3.8285527704204883e-08 -7.9794714677455535e-07 0.0000000000000000e+00  -3.9763730623697389e-08 -8.1252181376525285e-07 0.0000000000000000e+00  -4.1296323926245042e-08 -8.2569895554379580e-07 0.0000000000000000e+00  -4.2806515879791756e-08 -8.3951108213657087e-07 0.0000000000000000e+00  -4.4294966021217894e-08 -8.5340668929631052e-07 0.0000000000000000e+00  -4.5705465587968394e-08 -8.6638659975003546e-07 0.0000000000000000e+00  -5.6307769356293086e-08 -8.7971707507658419e-07 0.0000000000000000e+00  -7.4609308705884272e-08 -8.7726584888752170e-07 0.0000000000000000e+00  -8.2415368736314953e-08 -8.6284425480194458e-07 0.0000000000000000e+00  -8.1013163560664615e-08 -8.4951473424296638e-07 0.0000000000000000e+00  -7.9720811182217267e-08 -8.3593425775919339e-07 0.0000000000000000e+00  -7.8421588208793066e-08 -8.2191275478058281e-07 0.0000000000000000e+00  -7.7148680054300426e-08 -8.0874975620556415e-07 0.0000000000000000e+00  -7.5840255158959862e-08 -7.9418350251303645e-07 0.0000000000000000e+00  -7.4604039735317209e-08 -7.8034769064813517e-07 0.0000000000000000e+00  -7.3345169144159783e-08 -7.6615706574056363e-07 0.0000000000000000e+00  -7.2164776470577246e-08 -7.5188711853130578e-07 0.0000000000000000e+00  -7.0965267318355788e-08 -7.3745888396436762e-07 0.0000000000000000e+00  -6.9875269465698984e-08 -7.2287279728621529e-07 0.0000000000000000e+00  -6.8758111665907080e-08 -7.0805882729699229e-07 0.0000000000000000e+00  -6.7788720068167520e-08 -6.9301406232022234e-07 0.0000000000000000e+00  -6.6774990199678889e-08 -6.7765886020672553e-07 0.0000000000000000e+00  -6.5948972686242054e-08 -6.6198333741246787e-07 0.0000000000000000e+00  -6.5052590649576811e-08 -6.4589616156667158e-07 0.0000000000000000e+00  -6.4383071639699089e-08 -6.2938944593864708e-07 0.0000000000000000e+00  -6.3609313559125120e-08 -6.1236520199202797e-07 0.0000000000000000e+00  -6.3096337197363709e-08 -5.9481434876793538e-07 0.0000000000000000e+00  -6.2440257493890685e-08 -5.7665005644924394e-07 0.0000000000000000e+00  -6.2074854701090260e-08 -5.5785655257130809e-07 0.0000000000000000e+00  -6.1527029295521674e-08 -5.3836731451193435e-07 0.0000000000000000e+00  -6.1249109099579701e-08 -5.1809874171611876e-07 0.0000000000000000e+00  -6.0826533872476592e-08 -4.9733732975954448e-07 0.0000000000000000e+00  -6.0375161216308469e-08 -4.7540456777295328e-07 0.0000000000000000e+00  -6.0126509167115298e-08 -4.5301462767304810e-07 0.0000000000000000e+00  -5.9713137420398328e-08 -4.2977704388587067e-07 0.0000000000000000e+00  -5.9347331138987901e-08 -4.0578260849427502e-07 0.0000000000000000e+00  -5.8833453621753104e-08 -3.8112653547112206e-07 0.0000000000000000e+00  -5.8286316692005951e-08 -3.5576763949386809e-07 0.0000000000000000e+00  -5.7561686187292460e-08 -3.2991941538930272e-07 0.0000000000000000e+00  -5.6730317483431221e-08 -3.0351545764132321e-07 0.0000000000000000e+00  -5.5680286501712270e-08 -2.7687592745077428e-07 0.0000000000000000e+00  -5.4383641403008165e-08 -2.4999064054552789e-07 0.0000000000000000e+00  -5.2903659845602298e-08 -2.2307008265129669e-07 0.0000000000000000e+00  -5.1102737816887696e-08 -1.9637650207597084e-07 0.0000000000000000e+00  -4.8936019993814372e-08 -1.6997511112315906e-07 0.0000000000000000e+00  -4.6461907096683050e-08 -1.4431531802977153e-07 0.0000000000000000e+00  -4.3317713588068303e-08 -1.1965982473760796e-07 0.0000000000000000e+00  -4.0080913188383723e-08 -9.6014201320625836e-08 0.0000000000000000e+00  -3.6375958069510879e-08 -7.4407024792184606e-08 0.0000000000000000e+00  -3.1753733399608954e-08 -5.4244006913784200e-08 0.0000000000000000e+00  -2.6884911980542982e-08 -3.6757273832284225e-08 0.0000000000000000e+00  -2.0869055954765332e-08 -2.2005577636348612e-08 0.0000000000000000e+00  -1.4787195202691094e-08 -1.0879661786882820e-08 0.0000000000000000e+00  -7.3306874335587332e-09 -3.5192713839134836e-09 0.0000000000000000e+00  -2.8472925487141543e-09 -6.1991875209640001e-09 0.0000000000000000e+00  -6.3106224533100171e-08 -8.5952453253148939e-07 0.0000000000000000e+00  -6.0294267236000372e-08 -8.3303984974988762e-07 0.0000000000000000e+00  -5.6094709439065990e-08 -7.8942443394647496e-07 0.0000000000000000e+00  -5.5640326690095831e-09 -2.8802361995397069e-08 0.0000000000000000e+00  -5.3566232875873035e-08 -7.6154034734115773e-07 0.0000000000000000e+00  -8.6529142904841430e-09 -6.2677872506752707e-08 0.0000000000000000e+00  -5.0778743056637455e-08 -7.3265640893131393e-07 0.0000000000000000e+00  -1.3177569028720196e-08 -1.3389357731173247e-07 0.0000000000000000e+00  -1.5442666756784393e-08 -1.8453309725446697e-07 0.0000000000000000e+00  -4.7996620303963531e-08 -7.0302690102626813e-07 0.0000000000000000e+00  -2.2704541693769115e-08 -3.1994441610102935e-07 0.0000000000000000e+00  -4.2454095803497867e-08 -6.4017631370301847e-07 0.0000000000000000e+00  -1.8511682598189522e-08 -2.3603919792067737e-07 0.0000000000000000e+00  -2.4851655771369723e-08 -3.7077022499422901e-07 0.0000000000000000e+00  -3.9700028737462923e-08 -6.0614967872659821e-07 0.0000000000000000e+00  -4.5220658886169709e-08 -6.7232932684680232e-07 0.0000000000000000e+00  -2.7521570534324740e-08 -4.2024998725638441e-07 0.0000000000000000e+00  -3.6958637101778500e-08 -5.6983222425857654e-07 0.0000000000000000e+00  -3.0482295840428591e-08 -4.6495987225615093e-07 0.0000000000000000e+00  -3.3950779369245898e-08 -5.3170344703815580e-07 0.0000000000000000e+00  -3.2113962204872991e-08 -4.9789733480803078e-07 0.0000000000000000e+00  -1.9985348696388983e-08 -2.7640436684170873e-07 0.0000000000000000e+00  -5.8608113350922631e-08 -8.1247543731320801e-07 0.0000000000000000e+00  -1.0479083701808989e-08 -9.5164249002238994e-08 0.0000000000000000e+00  -6.8197543053127848e-08 -8.4612979010377699e-07 0.0000000000000000e+00  -9.0718045578953577e-09 -1.5093464497502486e-08 0.0000000000000000e+00  -5.7829835957616605e-08 -7.4696224675697297e-07 0.0000000000000000e+00  -6.0510017128511666e-08 -7.7562134765891420e-07 0.0000000000000000e+00  8.1485320398127883e-10 -4.6024507190478667e-08 0.0000000000000000e+00  -4.2933644828077395e-09 -1.5890000571418569e-07 0.0000000000000000e+00  -5.0155879114969821e-08 -6.5611825618902811e-07 0.0000000000000000e+00  -5.5201354800394082e-08 -7.1769254809844714e-07 0.0000000000000000e+00  -1.3508927758283279e-08 -3.4559599025261369e-07 0.0000000000000000e+00  -4.7760424626749484e-08 -6.2304439775612960e-07 0.0000000000000000e+00  -6.5807965285864057e-09 -2.1180807190978272e-07 0.0000000000000000e+00  -1.6601413322299263e-08 -3.9638127204900744e-07 0.0000000000000000e+00  -4.5454410760878013e-08 -5.8789049392378117e-07 0.0000000000000000e+00  -5.2639160931587366e-08 -6.8753147133630607e-07 0.0000000000000000e+00  -1.7785117436875590e-08 -4.4430034944402502e-07 0.0000000000000000e+00  -4.3221359603609547e-08 -5.5025075401485466e-07 0.0000000000000000e+00  -6.4837395180988134e-10 -2.0875925510963458e-09 0.0000000000000000e+00  -2.4061569272557411e-09 -1.1657126799925809e-09 0.0000000000000000e+00  -6.0056641414550988e-08 -8.710