<?xml version="1.0"?>
<VTKFile type="UnstructuredGrid"  version="0.1"  >
<UnstructuredGrid>
<Piece  NumberOfPoints="1419" NumberOfCells="2698">
<Points>
<DataArray  type="Float64"  NumberOfComponents="3"  format="ascii">0 0 0  0 0.41 0  2.5 0 0  2.5 0.41 0  0.6 0.19 0  0.6 0.21 0  0.25 0.2 0  0.15 0.2 0  0.2489897948556636 0.21 0  0.2489897948556636 0.19 0  0.6 0.2 0  0 0.3807142857143437 0  0 0.3514285714286952 0  0 0.3221428571430699 0  0 0.29285714285744 0  0 0.2635714285718054 0  0 0.2342857142861561 0  0 0.2050000000005308 0  0 0.175714285714732 0  0 0.1464285714289574 0  0 0.1171428571431897 0  0 0.08785714285737878 0  0 0.05857142857161107 0  0 0.02928571428580012 0  0.03015443760436003 0 0  0.06140001986583606 0 0  0.09377624077125973 0 0  0.1273239957535082 0 0  0.1620856860351972 0 0  0.1981052433264291 0 0  0.235428184091502 0 0  0.2741016576309132 0 0  0.3141745521465447 0 0  0.3556974926295285 0 0  0.3987229542472677 0 0  0.4433053055141081 0 0  0.4895008759286886 0 0  0.5373680609405097 0 0  0.5869673343216626 0 0  0.6383613676634521 0 0  0.6916151138468254 0 0  0.7467958595648856 0 0  0.8039733463919316 0 0  0.8632198139502143 0 0  0.9246101326867038 0 0  0.9882218810934433 0 0  1.054135445558498 0 0  1.122434100542598 0 0  1.193204177141305 0 0  1.266535089879536 0 0  1.342519516046404 0 0  1.421253448503939 0 0  1.502836389106271 0 0  1.587371439758838 0 0  1.674965418777374 0 0  1.765729001825544 0 0  1.859776908880082 0 0  1.957227977487062 0 0  2.058205329869943 0 0  2.162836591189951 0 0  2.271253957290865 0 0  2.383594446803425 0 0  2.5 0.1024999999997612 0  2.5 0.2049999999994743 0  2.5 0.3074999999997183 0  2.383594446803656 0.41 0  2.271253957291315 0.41 0  2.162836591190598 0.41 0  2.058205329870775 0.41 0  1.957227977488067 0.41 0  1.859776908881246 0.41 0  1.765729001826854 0.41 0  1.674965418778818 0.41 0  1.58737143976041 0.41 0  1.502836389107956 0.41 0  1.421253448505726 0.41 0  1.342519516048286 0.41 0  1.266535089881505 0.41 0  1.193204177143353 0.41 0  1.122434100544716 0.41 0  1.05413544556068 0.41 0  0.9882218810956305 0.41 0  0.9246101326886647 0.41 0  0.8632198139519631 0.41 0  0.8039733463934788 0.41 0  0.7467958595662458 0.41 0  0.6916151138480078 0.41 0  0.6383613676644679 0.41 0  0.5869673343225223 0.41 0  0.5373680609412221 0.41 0  0.4895008759292634 0.41 0  0.4433053055145528 0.41 0  0.3987229542475914 0.41 0  0.3556974926297398 0.41 0  0.3141745521466497 0.41 0  0.2741016576310038 0.41 0  0.2354281840915826 0.41 0  0.1981052433265003 0.41 0  0.1620856860352591 0.41 0  0.1273239957535623 0.41 0  0.09377624077128965 0.41 0  0.06140001986584975 0.41 0  0.03015443760436654 0.41 0  0.2497468076502589 0.2050254481002335 0  0.2497468076502614 0.1949745518997913 0  0.2469965252529372 0.1829317073451959 0  0.2439893735792749 0.1762316384219906 0  0.2400332147834255 0.1700443375285386 0  0.2352133972704371 0.1645032867342007 0  0.2296339016332438 0.1597280261969788 0  0.2234150974217223 0.1558215752574715 0  0.2166911463437691 0.1528682099456123 0  0.2096071079204251 0.1509316448471593 0  0.2023158100364996 0.1500536585536553 0  0.194974551899914 0.1502531923497262 0  0.1877417105387872 0.1515259415822739 0  0.1807733240461124 0.153844448527136 0  0.1742197252835808 0.15715869474974 0  0.1682222986673531 0.1613971801805478 0  0.162910430003803 0.1664684656256651 0  0.1583987151779087 0.1722631454351573 0  0.1547844879126891 0.178656207771761 0  0.1521457199348551 0.1855097315605723 0  0.1505393388476355 0.1926758619366523 0  0.1505393388476328 0.2073241380633295 0  0.1521457199348437 0.2144902684393899 0  0.1547844879126531 0.221343792228163 0  0.1583987151778488 0.2277368545647528 0  0.1629104300036858 0.2335315343742052 0  0.1682222986671726 0.2386028198193036 0  0.1742197252833576 0.2428413052501257 0  0.1807733240458683 0.2461555514727623 0  0.1877417105384929 0.2484740584176516 0  0.1949745518995776 0.2497468076502398 0  0.202315810036185 0.2499463414463592 0  0.2096071079201568 0.2490683551528932 0  0.2166911463435495 0.2471317900544655 0  0.2234150974215506 0.2441784247426195 0  0.2296339016331197 0.2402719738031125 0  0.2352133972703547 0.2354967132658811 0  0.2400332147833751 0.2299556624715287 0  0.2439893735792577 0.2237683615780412 0  0.246996525252926 0.2170682926548348 0  0.25645809709277 0.21 0  0.2639263993298655 0.21 0  0.271394701566961 0.21 0  0.2788630038040554 0.21 0  0.2863313060411479 0.21 0  0.2937996082782405 0.21 0  0.301267910515333 0.21 0  0.3087362127524279 0.21 0  0.3162045149895234 0.21 0  0.3236728172265972 0.21 0  0.3311411194636928 0.21 0  0.3386094217007701 0.21 0  0.3460777239378666 0.21 0  0.3535460261749672 0.21 0  0.3610143284120516 0.21 0  0.3684826306491596 0.21 0  0.3759509328862226 0.21 0  0.383419235123329 0.21 0  0.3908875373604028 0.21 0  0.3983558395975142 0.21 0  0.4058241418345938 0.21 0  0.4132924440716992 0.21 0  0.4207607463087888 0.21 0  0.4282290485459029 0.21 0  0.4356973507830418 0.21 0  0.4431656530201649 0.21 0  0.4506339552573136 0.21 0  0.4581022574944306 0.21 0  0.4655705597315852 0.21 0  0.4730388619686996 0.21 0  0.480507164205851 0.21 0  0.4879754664429498 0.21 0  0.4954437686800938 0.21 0  0.502912070917267 0.21 0  0.5103803731544119 0.21 0  0.5178486753915261 0.21 0  0.5253169776286404 0.21 0  0.5327852798657868 0.21 0  0.5402535821029386 0.21 0  0.54772188434007 0.21 0  0.5551901865771842 0.21 0  0.5626584888143201 0.21 0  0.5701267910514778 0.21 0  0.5775950932886138 0.21 0  0.5850633955257281 0.21 0  0.5925316977628483 0.21 0  0.6 0.2050000000000054 0  0.6 0.1950000000000217 0  0.5925316977628897 0.19 0  0.5850633955257988 0.19 0  0.5775950932887378 0.19 0  0.5701267910515998 0.19 0  0.5626584888145268 0.19 0  0.5551901865773963 0.19 0  0.547721884340339 0.19 0  0.5402535821032429 0.19 0  0.5327852798661811 0.19 0  0.5253169776290537 0.19 0  0.5178486753919799 0.19 0  0.5103803731549078 0.19 0  0.502912070917822 0.19 0  0.4954437686807294 0.19 0  0.4879754664436223 0.19 0  0.4805071642065402 0.19 0  0.4730388619694271 0.19 0  0.4655705597323621 0.19 0  0.4581022574952563 0.19 0  0.4506339552581777 0.19 0  0.4431656530210671 0.19 0  0.4356973507839815 0.19 0  0.4282290485468779 0.19 0  0.4207607463097617 0.19 0  0.4132924440726327 0.19 0  0.4058241418354857 0.19 0  0.3983558395983636 0.19 0  0.3908875373612097 0.19 0  0.3834192351240934 0.19 0  0.3759509328869369 0.19 0  0.3684826306498175 0.19 0  0.361014328412667 0.19 0  0.3535460261755617 0.19 0  0.3460777239384295 0.19 0  0.3386094217012945 0.19 0  0.3311411194641595 0.19 0  0.3236728172270245 0.19 0  0.3162045149898895 0.19 0  0.3087362127527544 0.19 0  0.3012679105156187 0.19 0  0.2937996082784807 0.19 0  0.2863313060413428 0.19 0  0.2788630038042048 0.19 0  0.2713947015670686 0.19 0  0.2639263993299336 0.19 0  0.2564580970927985 0.19 0  0.2607803159922026 0.2000727136295815 0  0.5887803774232762 0.2001272386983733 0  0.5745072403740523 0.2002044435018727 0  0.5511891430099709 0.2001122610077113 0  0.2751288526855082 0.20000000000002 0  0.5365194309847112 0.1999999999999436 0  0.2894621222999649 0.1998691686390484 0  0.5215828265105155 0.1999999999999228 0  0.3127789816668748 0.1998657885438805 0  0.3274069683451451 0.2000000000000796 0  0.5066462220363641 0.199999999999908 0  0.3650630746574081 0.199866017807523 0  0.476773013087985 0.1999999999998713 0  0.3417402379596385 0.1998691686391011 0  0.3796850840047755 0.200000000000134 0  0.4618364086138087 0.1999999999998546 0  0.4917096175621762 0.1999999999998808 0  0.3946216884789568 0.2000000000001512 0  0.446899804139621 0.1999999999998389 0  0.4089549580935208 0.1998691686391595 0  0.4322718174608562 0.200127451265745 0  0.4201487168029707 0.1999966199048527 0  0.3528922713220932 0.2000185703532356 0  0.5633122436674589 0.1999814296467508 0  0.3006558810093873 0.1999966199048318 0  0.5815926498168407 0.1966545283159175 0  0.2677053789419034 0.1964246479135325 0  0.5290511287476175 0.1970915826863981 0  0.5439877332217911 0.197091582686394 0  0.2825131256993216 0.2035478995978015 0  0.3199386661080599 0.202908417313604 0  0.4842413153250809 0.1970915826863873 0  0.5141145242734466 0.1970915826863843 0  0.3722167817676917 0.2029084173136195 0  0.4693047108508938 0.1970915826863783 0  0.3348752705822316 0.202908417313609 0  0.3871533862418661 0.2029084173136212 0  0.4543681063767183 0.1970915826863795 0  0.4991779197992749 0.1970915826863902 0  0.4020059614928624 0.203547899597858 0  0.4394315019025246 0.1970915826863714 0  0.2550657455369551 0.2034088125358657 0  0.2548908499171161 0.1966940311614271 0  0.5946539510196798 0.2024302972968126 0  0.267698176732111 0.2039977513680092 0  0.4261685417851465 0.196409292431739 0  0.3590076176283495 0.196411355804271 0  0.5571672426447437 0.2036011176410121 0  0.3066757059912147 0.1964092924317024 0  0.594380730180568 0.1966558399668133 0  0.4842413153245942 0.2040749161535287 0  0.4693047108503577 0.2040749161535231 0  0.3871533862424271 0.1959250838464788 0  0.372246743208829 0.1959123236376545 0  0.5141145242731028 0.2040749161535395 0  0.4543681063761134 0.2040749161535186 0  0.4019979587101454 0.1959834479682427 0  0.4394608940728603 0.2040870543693135 0  0.5439623148931173 0.2040856076781014 0  0.5290511287473298 0.2040749161535501 0  0.4991779197988497 0.2040749161535382 0  0.3347912413592433 0.1959225448935183 0  0.3199680582793816 0.1959123018030061 0  0.2825051229162361 0.1959834479681729 0  0.3590471196690275 0.2036304442587945 0  0.5571594006495384 0.1963685282145804 0  0.3067669986803285 0.203627750582736 0  0.4262598344738712 0.2036568242185335 0  0.5814408164431408 0.2041285596160068 0  0.5688286748170428 0.1961819304477386 0  0.4145905603063645 0.2038180695522843 0  0.3473758401724931 0.2038180695522752 0  0.2950977245128307 0.2038180695522663 0  0.5688286748170693 0.203818069552238 0  0.2950977245127906 0.1961819304477774 0  0.3473758401723931 0.1961819304478349 0  0.4145905603061963 0.1961819304479011 0  0.2601812407614425 0.2056861609747042
[...]
<PointData  Vectors="f_40-0"> 
<DataArray  type="Float64"  Name="f_40-0"  NumberOfComponents="3" format="ascii">0.0000000000000000e+00 0.0000000000000000e+00 0.0000000000000000e+00  0.0000000000000000e+00 0.0000000000000000e+00 0.0000000000000000e+00  0.0000000000000000e+00 0.0000000000000000e+00 0.0000000000000000e+00  0.0000000000000000e+00 0.0000000000000000e+00 0.0000000000000000e+00  1.3244285204881413e-04 2.7311398142422652e-03 0.0000000000000000e+00  -8.6289794514099978e-05 2.7358344930143667e-03 0.0000000000000000e+00  0.0000000000000000e+00 0.0000000000000000e+00 0.0000000000000000e+00  0.0000000000000000e+00 0.0000000000000000e+00 0.0000000000000000e+00  0.0000000000000000e+00 0.0000000000000000e+00 0.0000000000000000e+00  0.0000000000000000e+00 0.0000000000000000e+00 0.0000000000000000e+00  2.3465330673851046e-05 2.7334615639499132e-03 0.0000000000000000e+00  7.7740445135048075e-01 0.0000000000000000e+00 0.0000000000000000e+00  1.4352082178779055e+00 0.0000000000000000e+00 0.0000000000000000e+00  1.9734112995821207e+00 0.0000000000000000e+00 0.0000000000000000e+00  2.3920136964637484e+00 0.0000000000000000e+00 0.0000000000000000e+00  2.6910154085227354e+00 0.0000000000000000e+00 0.0000000000000000e+00  2.8704164357590627e+00 0.0000000000000000e+00 0.0000000000000000e+00  2.9302167781725523e+00 0.0000000000000000e+00 0.0000000000000000e+00  2.8704164357626896e+00 0.0000000000000000e+00 0.0000000000000000e+00  2.6910154085289655e+00 0.0000000000000000e+00 0.0000000000000000e+00  2.3920136964714644e+00 0.0000000000000000e+00 0.0000000000000000e+00  1.9734112995894504e+00 0.0000000000000000e+00 0.0000000000000000e+00  1.4352082178841603e+00 0.0000000000000000e+00 0.0000000000000000e+00  7.7740445135400493e-01 0.0000000000000000e+00 0.0000000000000000e+00  0.0000000000000000e+00 0.0000000000000000e+00 0.0000000000000000e+00  0.0000000000000000e+00 0.0000000000000000e+00 0.0000000000000000e+00  0.0000000000000000e+00 0.0000000000000000e+00 0.0000000000000000e+00  0.0000000000000000e+00 0.0000000000000000e+00 0.0000000000000000e+00  0.0000000000000000e+00 0.0000000000000000e+00 0.0000000000000000e+00  0.0000000000000000e+00 0.0000000000000000e+00 0.0000000000000000e+00  0.0000000000000000e+00 0.0000000000000000e+00 0.0000000000000000e+00  0.0000000000000000e+00 0.0000000000000000e+00 0.0000000000000000e+00  0.0000000000000000e+00 0.0000000000000000e+00 0.0000000000000000e+00  0.0000000000000000e+00 0.0000000000000000e+00 0.0000000000000000e+00  0.0000000000000000e+00 0.0000000000000000e+00 0.0000000000000000e+00  0.0000000000000000e+00 0.0000000000000000e+00 0.0000000000000000e+00  0.0000000000000000e+00 0.0000000000000000e+00 0.0000000000000000e+00  0.0000000000000000e+00 0.0000000000000000e+00 0.0000000000000000e+00  0.0000000000000000e+00 0.0000000000000000e+00 0.0000000000000000e+00  0.0000000000000000e+00 0.0000000000000000e+00 0.0000000000000000e+00  0.0000000000000000e+00 0.0000000000000000e+00 0.0000000000000000e+00  0.0000000000000000e+00 0.0000000000000000e+00 0.0000000000000000e+00  0.0000000000000000e+00 0.0000000000000000e+00 0.0000000000000000e+00  0.0000000000000000e+00 0.0000000000000000e+00 0.0000000000000000e+00  0.0000000000000000e+00 0.0000000000000000e+00 0.0000000000000000e+00  0.0000000000000000e+00 0.0000000000000000e+00 0.0000000000000000e+00  0.0000000000000000e+00 0.0000000000000000e+00 0.0000000000000000e+00  0.0000000000000000e+00 0.0000000000000000e+00 0.0000000000000000e+00  0.0000000000000000e+00 0.0000000000000000e+00 0.0000000000000000e+00  0.0000000000000000e+00 0.0000000000000000e+00 0.0000000000000000e+00  0.0000000000000000e+00 0.0000000000000000e+00 0.0000000000000000e+00  0.0000000000000000e+00 0.0000000000000000e+00 0.0000000000000000e+00  0.0000000000000000e+00 0.0000000000000000e+00 0.0000000000000000e+00  0.0000000000000000e+00 0.0000000000000000e+00 0.0000000000000000e+00  0.0000000000000000e+00 0.0000000000000000e+00 0.0000000000000000e+00  0.0000000000000000e+00 0.0000000000000000e+00 0.0000000000000000e+00  0.0000000000000000e+00 0.0000000000000000e+00 0.0000000000000000e+00  0.0000000000000000e+00 0.0000000000000000e+00 0.0000000000000000e+00  0.0000000000000000e+00 0.0000000000000000e+00 0.0000000000000000e+00  0.0000000000000000e+00 0.0000000000000000e+00 0.0000000000000000e+00  0.0000000000000000e+00 0.0000000000000000e+00 0.0000000000000000e+00  0.0000000000000000e+00 0.0000000000000000e+00 0.0000000000000000e+00  2.5941021910371234e+00 -1.1663298475332293e-02 0.0000000000000000e+00  2.4614189568115803e+00 1.1799224999377364e-02 0.0000000000000000e+00  2.5737031552472027e+00 6.9780705183122987e-02 0.0000000000000000e+00  0.0000000000000000e+00 0.0000000000000000e+00 0.0000000000000000e+00  0.0000000000000000e+00 0.0000000000000000e+00 0.0000000000000000e+00  0.0000000000000000e+00 0.0000000000000000e+00 0.0000000000000000e+00  0.0000000000000000e+00 0.0000000000000000e+00 0.0000000000000000e+00  0.0000000000000000e+00 0.0000000000000000e+00 0.0000000000000000e+00  0.0000000000000000e+00 0.0000000000000000e+00 0.0000000000000000e+00  0.0000000000000000e+00 0.0000000000000000e+00 0.0000000000000000e+00  0.0000000000000000e+00 0.0000000000000000e+00 0.0000000000000000e+00  0.0000000000000000e+00 0.0000000000000000e+00 0.0000000000000000e+00  0.0000000000000000e+00 0.0000000000000000e+00 0.0000000000000000e+00  0.0000000000000000e+00 0.0000000000000000e+00 0.0000000000000000e+00  0.0000000000000000e+00 0.0000000000000000e+00 0.0000000000000000e+00  0.0000000000000000e+00 0.0000000000000000e+00 0.0000000000000000e+00  0.0000000000000000e+00 0.0000000000000000e+00 0.0000000000000000e+00  0.0000000000000000e+00 0.0000000000000000e+00 0.0000000000000000e+00  0.0000000000000000e+00 0.0000000000000000e+00 0.0000000000000000e+00  0.0000000000000000e+00 0.0000000000000000e+00 0.0000000000000000e+00  0.0000000000000000e+00 0.0000000000000000e+00 0.0000000000000000e+00  0.0000000000000000e+00 0.0000000000000000e+00 0.0000000000000000e+00  0.0000000000000000e+00 0.0000000000000000e+00 0.0000000000000000e+00  0.0000000000000000e+00 0.0000000000000000e+00 0.0000000000000000e+00  0.0000000000000000e+00 0.0000000000000000e+00 0.0000000000000000e+00  0.0000000000000000e+00 0.0000000000000000e+00 0.0000000000000000e+00  0.0000000000000000e+00 0.0000000000000000e+00 0.0000000000000000e+00  0.0000000000000000e+00 0.0000000000000000e+00 0.0000000000000000e+00  0.0000000000000000e+00 0.0000000000000000e+00 0.0000000000000000e+00  0.0000000000000000e+00 0.0000000000000000e+00 0.0000000000000000e+00  0.0000000000000000e+00 0.0000000000000000e+00 0.0000000000000000e+00  0.0000000000000000e+00 0.0000000000000000e+00 0.0000000000000000e+00  0.0000000000000000e+00 0.0000000000000000e+00 0.0000000000000000e+00  0.0000000000000000e+00 0.0000000000000000e+00 0.0000000000000000e+00  0.0000000000000000e+00 0.0000000000000000e+00 0.0000000000000000e+00  0.0000000000000000e+00 0.0000000000000000e+00 0.0000000000000000e+00  0.0000000000000000e+00 0.0000000000000000e+00 0.0000000000000000e+00  0.0000000000000000e+00 0.0000000000000000e+00 0.0000000000000000e+00  0.0000000000000000e+00 0.0000000000000000e+00 0.0000000000000000e+00  0.0000000000000000e+00 0.0000000000000000e+00 0.0000000000000000e+00  0.0000000000000000e+00 0.0000000000000000e+00 0.0000000000000000e+00  0.0000000000000000e+00 0.0000000000000000e+00 0.0000000000000000e+00  0.0000000000000000e+00 0.0000000000000000e+00 0.0000000000000000e+00  0.0000000000000000e+00 0.0000000000000000e+00 0.0000000000000000e+00  0.0000000000000000e+00 0.0000000000000000e+00 0.0000000000000000e+00  0.0000000000000000e+00 0.0000000000000000e+00 0.0000000000000000e+00  0.0000000000000000e+00 0.0000000000000000e+00 0.0000000000000000e+00  0.0000000000000000e+00 0.0000000000000000e+00 0.0000000000000000e+00  0.0000000000000000e+00 0.0000000000000000e+00 0.0000000000000000e+00  0.0000000000000000e+00 0.0000000000000000e+00 0.0000000000000000e+00  0.0000000000000000e+00 0.0000000000000000e+00 0.0000000000000000e+00  0.0000000000000000e+00 0.0000000000000000e+00 0.0000000000000000e+00  0.0000000000000000e+00 0.0000000000000000e+00 0.0000000000000000e+00  0.0000000000000000e+00 0.0000000000000000e+00 0.0000000000000000e+00  0.0000000000000000e+00 0.0000000000000000e+00 0.0000000000000000e+00  0.0000000000000000e+00 0.0000000000000000e+00 0.0000000000000000e+00  0.0000000000000000e+00 0.0000000000000000e+00 0.0000000000000000e+00  0.0000000000000000e+00 0.0000000000000000e+00 0.0000000000000000e+00  0.0000000000000000e+00 0.0000000000000000e+00 0.0000000000000000e+00  0.0000000000000000e+00 0.0000000000000000e+00 0.0000000000000000e+00  0.0000000000000000e+00 0.0000000000000000e+00 0.0000000000000000e+00  0.0000000000000000e+00 0.0000000000000000e+00 0.0000000000000000e+00  0.0000000000000000e+00 0.0000000000000000e+00 0.0000000000000000e+00  0.0000000000000000e+00 0.0000000000000000e+00 0.0000000000000000e+00  0.0000000000000000e+00 0.0000000000000000e+00 0.0000000000000000e+00  0.0000000000000000e+00 0.0000000000000000e+00 0.0000000000000000e+00  0.0000000000000000e+00 0.0000000000000000e+00 0.0000000000000000e+00  0.0000000000000000e+00 0.0000000000000000e+00 0.0000000000000000e+00  0.0000000000000000e+00 0.0000000000000000e+00 0.0000000000000000e+00  0.0000000000000000e+00 0.0000000000000000e+00 0.0000000000000000e+00  0.0000000000000000e+00 0.0000000000000000e+00 0.0000000000000000e+00  0.0000000000000000e+00 0.0000000000000000e+00 0.0000000000000000e+00  0.0000000000000000e+00 0.0000000000000000e+00 0.0000000000000000e+00  0.0000000000000000e+00 0.0000000000000000e+00 0.0000000000000000e+00  0.0000000000000000e+00 0.0000000000000000e+00 0.0000000000000000e+00  0.0000000000000000e+00 0.0000000000000000e+00 0.0000000000000000e+00  0.0000000000000000e+00 0.0000000000000000e+00 0.0000000000000000e+00  0.0000000000000000e+00 0.0000000000000000e+00 0.0000000000000000e+00  0.0000000000000000e+00 0.0000000000000000e+00 0.0000000000000000e+00  0.0000000000000000e+00 0.0000000000000000e+00 0.0000000000000000e+00  0.0000000000000000e+00 0.0000000000000000e+00 0.0000000000000000e+00  -3.2360809216800759e-06 7.5143638020736971e-06 0.0000000000000000e+00  -7.3517243218649916e-06 1.2574511456640122e-05 0.0000000000000000e+00  -1.1283377818705180e-05 2.0920220147096411e-05 0.0000000000000000e+00  -1.5931556053002831e-05 3.2849889092975610e-05 0.0000000000000000e+00  -1.9915455095651280e-05 4.8179115588153904e-05 0.0000000000000000e+00  -2.4729907300533230e-05 6.7277243699886985e-05 0.0000000000000000e+00  -2.8606742988679882e-05 8.9297856609321002e-05 0.0000000000000000e+00  -3.2494709796728423e-05 1.1525695069439201e-04 0.0000000000000000e+00  -3.7209314177101831e-05 1.4429428833356072e-04 0.0000000000000000e+00  -4.0778744668106334e-05 1.7667757150754667e-04 0.0000000000000000e+00  -4.5418693649729606e-05 2.1238707005494291e-04 0.0000000000000000e+00  -4.8845768998438411e-05 2.5131596099471333e-04 0.0000000000000000e+00  -5.3129201605247767e-05 2.9338523590486033e-04 0.0000000000000000e+00  -5.6473354843034391e-05 3.3808994060673776e-04 0.0000000000000000e+00  -5.9757118999907114e-05 3.8610006730443661e-04 0.0000000000000000e+00  -6.3630125557685450e-05 4.3664737957992345e-04 0.0000000000000000e+00  -6.6477756625829191e-05 4.8987429972692032e-04 0.0000000000000000e+00  -7.0046858481060030e-05 5.4572134514671068e-04 0.0000000000000000e+00  -7.2586251742909965e-05 6.0397082275009039e-04 0.0000000000000000e+00  -7.5702105041494953e-05 6.6447067864484140e-04 0.0000000000000000e+00  -7.8063890918772392e-05 7.2718461433372297e-04 0.0000000000000000e+00  -8.0731175255407893e-05 7.9202963328843523e-04 0.0000000000000000e+00  -8.2737638609990156e-05 8.5846731117878382e-04 0.0000000000000000e+00  -8.4603789759049502e-05 9.2695581242053973e-04 0.0000000000000000e+00  -8.6687729594569295e-05 9.9683799504868623e-04 0.0000000000000000e+00  -8.8276392634901500e-05 1.0683613177942853e-03 0.0000000000000000e+00  -8.9820288019478944e-05 1.1413142805406027e-03 0.0000000000000000e+00  -9.1053647081555992e-05 1.2154536264172104e-03 0.0000000000000000e+00  -9.2212320150787870e-05 1.2908313056072904e-03 0.0000000000000000e+00  -9.3088480405095560e-05 1.3671589247352038e-03 0.0000000000000000e+00  -9.3872041736910787e-05 1.4444920385538673e-03 0.0000000000000000e+00  -9.4397615046447797e-05 1.5225471930974805e-03 0.0000000000000000e+00  -9.4818880515238466e-05 1.6013847060992699e-03 0.0000000000000000e+00  -9.5010182187810547e-05 1.6807364134438737e-03 0.0000000000000000e+00  -9.5086137306983157e-05 1.7606733772107302e-03 0.0000000000000000e+00  -9.4965793335312072e-05 1.8409497024166274e-03 0.0000000000000000e+00  -9.4734901300427309e-05 1.9216358643831977e-03 0.0000000000000000e+00  -9.4338685642913556e-05 2.0025231704618503e-03 0.0000000000000000e+00  -9.3836616233816268e-05 2.0836832531143934e-03 0.0000000000000000e+00  -9.3195359111337080e-05 2.1649378640525739e-03 0.0000000000000000e+00  -9.2451641020946975e-05 2.2463532536385377e-03 0.0000000000000000e+00  -9.1603443308165618e-05 2.3278061887962958e-03 0.0000000000000000e+00  -9.0650663003902709e-05 2.4093297266325575e-03 0.0000000000000000e+00  -8.9648717721306072e-05 2.4908697983940416e-03 0.0000000000000000e+00  -8.8541779523578477e-05 2.5724034134466797e-03 0.0000000000000000e+00  -8.7392849377899591e-05 2.6539981416349866e-03 0.0000000000000000e+00  -3.1270259177747864e-05 2.7346395930592502e-03 0.0000000000000000e+00  7.8074706444548840e-05 2.7322914458600312e-03 0.0000000000000000e+00  1.3130333223920185e-04 2.6495795599641488e-03 0.0000000000000000e+00  1.3011029505280276e-04 2.5678393235643300e-03 0.0000000000000000e+00  1.2894870604842915e-04 2.4860854656923812e-03 0.0000000000000000e+00  1.2783502680555219e-04 2.4043817341284383e-03 0.0000000000000000e+00  1.2675039925101793e-04 2.3227025189530249e-03 0.0000000000000000e+00  1.2570984903600315e-04 2.2410898076831833e-03 0.0000000000000000e+00  1.2465187574879603e-04 2.1595548127901522e-03 0.0000000000000000e+00  1.2364431691718684e-04 2.0781285903026035e-03 0.0000000000000000e+00  1.2256608524251048e-04 1.9968760202276636e-03 0.0000000000000000e+00  1.2154505637063338e-04 1.9158226585516656e-03 0.0000000000000000e+00  1.2038763527981595e-04 1.8350481417785908e-03 0.0000000000000000e+00  1.1930480007324993e-04 1.7546118358534185e-03 0.0000000000000000e+00  1.1800699667093850e-04 1.6745922438095113e-03 0.0000000000000000e+00  1.1681327736326896e-04 1.5950851402067206e-03 0.0000000000000000e+00  1.1531815727045254e-04 1.5161682226559237e-03 0.0000000000000000e+00  1.1397160778366786e-04 1.4379664887541885e-03 0.0000000000000000e+00  1.1223299089962443e-04 1.3605552313094445e-03 0.0000000000000000e+00  1.1069935683035979e-04 1.2840829679593162e-03 0.0000000000000000e+00  1.0867994516211733e-04 1.2086228613027656e-03 0.0000000000000000e+00  1.0693271355729527e-04 1.1343363301858857e-03 0.0000000000000000e+00  1.0459230425718771e-04 1.0613015179427759e-03 0.0000000000000000e+00  1.0259364777854132e-04 9.8969452610250678e-04 0.0000000000000000e+00  9.9949599300533924e-05 9.1961054890543192e-04 0.0000000000000000e+00  9.7588516182553638e-05 8.5103217901507939e-04 0.0000000000000000e+00  9.5112022571209963e-05 7.8450311493429297e-04 0.0000000000000000e+00  9.2043012150683887e-05 7.1948702277403580e-04 0.0000000000000000e+00  8.9150126994612944e-05 6.5673159698389062e-04 0.0000000000000000e+00  8.5831197584135494e-05 5.9601864660652117e-04 0.0000000000000000e+00  8.2593631794195276e-05 5.3768936039595575e-04 0.0000000000000000e+00  7.8952264770470386e-05 4.8171907985480514e-04 0.0000000000000000e+00  7.5397267737884146e-05 4.2826251771707754e-04 0.0000000000000000e+00  7.1159540297032619e-05 3.7775913790525094e-04 0.0000000000000000e+00  6.7439412527882747e-05 3.2958734362186149e-04 0.0000000000000000e+00  6.3621086494217177e-05 2.8480649257647876e-04 0.0000000000000000e+00  5.8986932416923295e-05 2.4241232768387980e-04 0.0000000000000000e+00  5.4690684623652203e-05 2.0347716232833795e-04 0.0000000000000000e+00  4.9958159064740253e-05 1.6763519383930592e-04 0.0000000000000000e+00  4.5456990312823506e-05 1.3500432924712794e-04 0.0000000000000000e+00  4.0234764750861929e-05 1.0605332982688413e-04 0.0000000000000000e+00  3.5725383806528450e-05 7.9937016060336482e-05 0.0000000000000000e+00  3.1208920130939659e-05 5.7832594162111619e-05 0.0000000000000000e+00  2.5812332918628598e-05 3.8541122779231337e-05 0.0000000000000000e+00  2.1014552643719262e-05 2.3031206735904400e-05 0.0000000000000000e+00  1.5547139707150459e-05 1.1145265975801921e-05 0.0000000000000000e+00  1.0656921207128533e-05 2.9181524149597915e-06 0.0000000000000000e+00  5.0142169539103743e-06 -1.5118022445083658e-06 0.0000000000000000e+00  2.1374720526034328e-06 2.9214710160000248e-06 0.0000000000000000e+00  2.0130773971758738e-05 2.6107815171640078e-03 0.0000000000000000e+00  1.7026527939381450e-05 2.4547460837068135e-03 0.0000000000000000e+00  1.4966218796545884e-05 2.2000106649923286e-03 0.0000000000000000e+00  2.4262206991320829e-06 1.9239264581707936e-05 0.0000000000000000e+00  1.4559306711501807e-05 2.0401451581071547e-03 0.0000000000000000e+00  3.3892494845863315e-06 4.8548142007666528e-05 0.0000000000000000e+00  1.3105993124801279e-05 1.8781124557606102e-03 0.0000000000000000e+00  4.6113866042055433e-06 1.2365771144728590e-04 0.0000000000000000e+00  4.6452418197913831e-06 1.8758009350272042e-04 0.0000000000000000e+00  1.1850277269187099e-05 1.7172820776304117e-03 0.0000000000000000e+00  6.7789785601282899e-06 4.0712344677599029e-04 0.0000000000000000e+00  9.8545525323792444e-06 1.4018653363258801e-03 0.0000000000000000e+00  5.8670941878701285e-06 2.6207129213250878e-04 0.0000000000000000e+00  6.2785952453449693e-06 5.1183760077663960e-04 0.0000000000000000e+00  9.0707413468271303e-06 1.2488948555465459e-03 0.0000000000000000e+00  1.0773508387251713e-05 1.5582802330735301e-03 0.0000000000000000e+00  6.6880766279170957e-06 6.2855900654925278e-04 0.0000000000000000e+00  8.4108308918181300e-06 1.1002958008296511e-03 0.0000000000000000e+00  8.2254941407932724e-06 7.4891274495711728e-04 0.0000000000000000e+00  6.6533467069937519e-06 9.5996787966906561e-04 0.0000000000000000e+00  7.4729804964564083e-06 8.4836317408713434e-04 0.0000000000000000e+00  5.3915177635547042e-06 3.2842349368521537e-04 0.0000000000000000e+00  1.7937602622419886e-05 2.3323569715665102e-03 0.0000000000000000e+00  3.6057519532063829e-06 8.1028198673327529e-05 0.0000000000000000e+00  5.6911086903728487e-05 2.5313923598126154e-03 0.0000000000000000e+00  6.2470182907723032e-06 7.7286439837355558e-06 0.0000000000000000e+00  4.5296015496847486e-05 1.9582038252216969e-03 0.0000000000000000e+00  4.7010222067118206e-05 2.1206744923697889e-03 0.0000000000000000e+00  -4.4984536784915952e-06 3.4856865146433822e-05 0.0000000000000000e+00  -8.2944107651897088e-06 1.5500420285640491e-04 0.0000000000000000e+00  4.0642451369441973e-05 1.4788299969872604e-03 0.0000000000000000e+00  4.3691252558113473e-05 1.7966791073591071e-03 0.0000000000000000e+00  -1.4640123947422205e-05 4.5855629416163845e-04 0.0000000000000000e+00  3.9114197955392718e-05 1.3240115570972394e-03 0.0000000000000000e+00  -1.0134040822174444e-05 2.2655220488996769e-04 0.0000000000000000e+00  -1.6105917171392080e-05 5.7039885931525552e-04 0.0000000000000000e+00  3.7537965784782236e-05 1.1730941160681522e-03 0.0000000000000000e+00  4.2154642870391540e-05 1.6366555255229753e-03 0.0000000000000000e+00  -2.2740711352517793e-05 6.9122749471058824e-04 0.0000000000000000e+00  3.5906984230333293e-05 1.0270241499363620e-03 0.0000000000000000e+00  8.3130207458034959e-07 1.5220904036365180e-06 0.0000000000000000e+00  2.2009940018763169e-06 -5.8383901077326705e-07 0.0000000000000000e+00  -4.0429960998961461e-06 2.6755278582354519e-03 0.0000000000000000e+00  -2.3763990313569340e-06 1.1618290005751257e-05 0.0000000000000000e+00  4.0630889811269381e-05 9.0196526619328835e-04 0.0000000000000000e+00  2.8989045123952070e