<?xml version="1.0"?>
<VTKFile type="UnstructuredGrid"  version="0.1"  >
<UnstructuredGrid>
<Piece  NumberOfPoints="1419" NumberOfCells="2698">
<Points>
<DataArray  type="Float64"  NumberOfComponents="3"  format="ascii">0 0 0  0 0.41 0  2.5 0 0  2.5 0.41 0  0.6 0.19 0  0.6 0.21 0  0.25 0.2 0  0.15 0.2 0  0.2489897948556636 0.21 0  0.2489897948556636 0.19 0  0.6 0.2 0  0 0.3807142857143437 0  0 0.3514285714286952 0  0 0.3221428571430699 0  0 0.29285714285744 0  0 0.2635714285718054 0  0 0.2342857142861561 0  0 0.2050000000005308 0  0 0.175714285714732 0  0 0.1464285714289574 0  0 0.1171428571431897 0  0 0.08785714285737878 0  0 0.05857142857161107 0  0 0.02928571428580012 0  0.03015443760436003 0 0  0.06140001986583606 0 0  0.09377624077125973 0 0  0.1273239957535082 0 0  0.1620856860351972 0 0  0.1981052433264291 0 0  0.235428184091502 0 0  0.2741016576309132 0 0  0.3141745521465447 0 0  0.3556974926295285 0 0  0.3987229542472677 0 0  0.4433053055141081 0 0  0.4895008759286886 0 0  0.5373680609405097 0 0  0.5869673343216626 0 0  0.6383613676634521 0 0  0.6916151138468254 0 0  0.7467958595648856 0 0  0.8039733463919316 0 0  0.8632198139502143 0 0  0.9246101326867038 0 0  0.9882218810934433 0 0  1.054135445558498 0 0  1.122434100542598 0 0  1.193204177141305 0 0  1.266535089879536 0 0  1.342519516046404 0 0  1.421253448503939 0 0  1.502836389106271 0 0  1.587371439758838 0 0  1.674965418777374 0 0  1.765729001825544 0 0  1.859776908880082 0 0  1.957227977487062 0 0  2.058205329869943 0 0  2.162836591189951 0 0  2.271253957290865 0 0  2.383594446803425 0 0  2.5 0.1024999999997612 0  2.5 0.2049999999994743 0  2.5 0.3074999999997183 0  2.383594446803656 0.41 0  2.271253957291315 0.41 0  2.162836591190598 0.41 0  2.058205329870775 0.41 0  1.957227977488067 0.41 0  1.859776908881246 0.41 0  1.765729001826854 0.41 0  1.674965418778818 0.41 0  1.58737143976041 0.41 0  1.502836389107956 0.41 0  1.421253448505726 0.41 0  1.342519516048286 0.41 0  1.266535089881505 0.41 0  1.193204177143353 0.41 0  1.122434100544716 0.41 0  1.05413544556068 0.41 0  0.9882218810956305 0.41 0  0.9246101326886647 0.41 0  0.8632198139519631 0.41 0  0.8039733463934788 0.41 0  0.7467958595662458 0.41 0  0.6916151138480078 0.41 0  0.6383613676644679 0.41 0  0.5869673343225223 0.41 0  0.5373680609412221 0.41 0  0.4895008759292634 0.41 0  0.4433053055145528 0.41 0  0.3987229542475914 0.41 0  0.3556974926297398 0.41 0  0.3141745521466497 0.41 0  0.2741016576310038 0.41 0  0.2354281840915826 0.41 0  0.1981052433265003 0.41 0  0.1620856860352591 0.41 0  0.1273239957535623 0.41 0  0.09377624077128965 0.41 0  0.06140001986584975 0.41 0  0.03015443760436654 0.41 0  0.2497468076502589 0.2050254481002335 0  0.2497468076502614 0.1949745518997913 0  0.2469965252529372 0.1829317073451959 0  0.2439893735792749 0.1762316384219906 0  0.2400332147834255 0.1700443375285386 0  0.2352133972704371 0.1645032867342007 0  0.2296339016332438 0.1597280261969788 0  0.2234150974217223 0.1558215752574715 0  0.2166911463437691 0.1528682099456123 0  0.2096071079204251 0.1509316448471593 0  0.2023158100364996 0.1500536585536553 0  0.194974551899914 0.1502531923497262 0  0.1877417105387872 0.1515259415822739 0  0.1807733240461124 0.153844448527136 0  0.1742197252835808 0.15715869474974 0  0.1682222986673531 0.1613971801805478 0  0.162910430003803 0.1664684656256651 0  0.1583987151779087 0.1722631454351573 0  0.1547844879126891 0.178656207771761 0  0.1521457199348551 0.1855097315605723 0  0.1505393388476355 0.1926758619366523 0  0.1505393388476328 0.2073241380633295 0  0.1521457199348437 0.2144902684393899 0  0.1547844879126531 0.221343792228163 0  0.1583987151778488 0.2277368545647528 0  0.1629104300036858 0.2335315343742052 0  0.1682222986671726 0.2386028198193036 0  0.1742197252833576 0.2428413052501257 0  0.1807733240458683 0.2461555514727623 0  0.1877417105384929 0.2484740584176516 0  0.1949745518995776 0.2497468076502398 0  0.202315810036185 0.2499463414463592 0  0.2096071079201568 0.2490683551528932 0  0.2166911463435495 0.2471317900544655 0  0.2234150974215506 0.2441784247426195 0  0.2296339016331197 0.2402719738031125 0  0.2352133972703547 0.2354967132658811 0  0.2400332147833751 0.2299556624715287 0  0.2439893735792577 0.2237683615780412 0  0.246996525252926 0.2170682926548348 0  0.25645809709277 0.21 0  0.2639263993298655 0.21 0  0.271394701566961 0.21 0  0.2788630038040554 0.21 0  0.2863313060411479 0.21 0  0.2937996082782405 0.21 0  0.301267910515333 0.21 0  0.3087362127524279 0.21 0  0.3162045149895234 0.21 0  0.3236728172265972 0.21 0  0.3311411194636928 0.21 0  0.3386094217007701 0.21 0  0.3460777239378666 0.21 0  0.3535460261749672 0.21 0  0.3610143284120516 0.21 0  0.3684826306491596 0.21 0  0.3759509328862226 0.21 0  0.383419235123329 0.21 0  0.3908875373604028 0.21 0  0.3983558395975142 0.21 0  0.4058241418345938 0.21 0  0.4132924440716992 0.21 0  0.4207607463087888 0.21 0  0.4282290485459029 0.21 0  0.4356973507830418 0.21 0  0.4431656530201649 0.21 0  0.4506339552573136 0.21 0  0.4581022574944306 0.21 0  0.4655705597315852 0.21 0  0.4730388619686996 0.21 0  0.480507164205851 0.21 0  0.4879754664429498 0.21 0  0.4954437686800938 0.21 0  0.502912070917267 0.21 0  0.5103803731544119 0.21 0  0.5178486753915261 0.21 0  0.5253169776286404 0.21 0  0.5327852798657868 0.21 0  0.5402535821029386 0.21 0  0.54772188434007 0.21 0  0.5551901865771842 0.21 0  0.5626584888143201 0.21 0  0.5701267910514778 0.21 0  0.5775950932886138 0.21 0  0.5850633955257281 0.21 0  0.5925316977628483 0.21 0  0.6 0.2050000000000054 0  0.6 0.1950000000000217 0  0.5925316977628897 0.19 0  0.5850633955257988 0.19 0  0.5775950932887378 0.19 0  0.5701267910515998 0.19 0  0.5626584888145268 0.19 0  0.5551901865773963 0.19 0  0.547721884340339 0.19 0  0.5402535821032429 0.19 0  0.5327852798661811 0.19 0  0.5253169776290537 0.19 0  0.5178486753919799 0.19 0  0.5103803731549078 0.19 0  0.502912070917822 0.19 0  0.4954437686807294 0.19 0  0.4879754664436223 0.19 0  0.4805071642065402 0.19 0  0.4730388619694271 0.19 0  0.4655705597323621 0.19 0  0.4581022574952563 0.19 0  0.4506339552581777 0.19 0  0.4431656530210671 0.19 0  0.4356973507839815 0.19 0  0.4282290485468779 0.19 0  0.4207607463097617 0.19 0  0.4132924440726327 0.19 0  0.4058241418354857 0.19 0  0.3983558395983636 0.19 0  0.3908875373612097 0.19 0  0.3834192351240934 0.19 0  0.3759509328869369 0.19 0  0.3684826306498175 0.19 0  0.361014328412667 0.19 0  0.3535460261755617 0.19 0  0.3460777239384295 0.19 0  0.3386094217012945 0.19 0  0.3311411194641595 0.19 0  0.3236728172270245 0.19 0  0.3162045149898895 0.19 0  0.3087362127527544 0.19 0  0.3012679105156187 0.19 0  0.2937996082784807 0.19 0  0.2863313060413428 0.19 0  0.2788630038042048 0.19 0  0.2713947015670686 0.19 0  0.2639263993299336 0.19 0  0.2564580970927985 0.19 0  0.2607803159922026 0.2000727136295815 0  0.5887803774232762 0.2001272386983733 0  0.5745072403740523 0.2002044435018727 0  0.5511891430099709 0.2001122610077113 0  0.2751288526855082 0.20000000000002 0  0.5365194309847112 0.1999999999999436 0  0.2894621222999649 0.1998691686390484 0  0.5215828265105155 0.1999999999999228 0  0.3127789816668748 0.1998657885438805 0  0.3274069683451451 0.2000000000000796 0  0.5066462220363641 0.199999999999908 0  0.3650630746574081 0.199866017807523 0  0.476773013087985 0.1999999999998713 0  0.3417402379596385 0.1998691686391011 0  0.3796850840047755 0.200000000000134 0  0.4618364086138087 0.1999999999998546 0  0.4917096175621762 0.1999999999998808 0  0.3946216884789568 0.2000000000001512 0  0.446899804139621 0.1999999999998389 0  0.4089549580935208 0.1998691686391595 0  0.4322718174608562 0.200127451265745 0  0.4201487168029707 0.1999966199048527 0  0.3528922713220932 0.2000185703532356 0  0.5633122436674589 0.1999814296467508 0  0.3006558810093873 0.1999966199048318 0  0.5815926498168407 0.1966545283159175 0  0.2677053789419034 0.1964246479135325 0  0.5290511287476175 0.1970915826863981 0  0.5439877332217911 0.197091582686394 0  0.2825131256993216 0.2035478995978015 0  0.3199386661080599 0.202908417313604 0  0.4842413153250809 0.1970915826863873 0  0.5141145242734466 0.1970915826863843 0  0.3722167817676917 0.2029084173136195 0  0.4693047108508938 0.1970915826863783 0  0.3348752705822316 0.202908417313609 0  0.3871533862418661 0.2029084173136212 0  0.4543681063767183 0.1970915826863795 0  0.4991779197992749 0.1970915826863902 0  0.4020059614928624 0.203547899597858 0  0.4394315019025246 0.1970915826863714 0  0.2550657455369551 0.2034088125358657 0  0.2548908499171161 0.1966940311614271 0  0.5946539510196798 0.2024302972968126 0  0.267698176732111 0.2039977513680092 0  0.4261685417851465 0.196409292431739 0  0.3590076176283495 0.196411355804271 0  0.5571672426447437 0.2036011176410121 0  0.3066757059912147 0.1964092924317024 0  0.594380730180568 0.1966558399668133 0  0.4842413153245942 0.2040749161535287 0  0.4693047108503577 0.2040749161535231 0  0.3871533862424271 0.1959250838464788 0  0.372246743208829 0.1959123236376545 0  0.5141145242731028 0.2040749161535395 0  0.4543681063761134 0.2040749161535186 0  0.4019979587101454 0.1959834479682427 0  0.4394608940728603 0.2040870543693135 0  0.5439623148931173 0.2040856076781014 0  0.5290511287473298 0.2040749161535501 0  0.4991779197988497 0.2040749161535382 0  0.3347912413592433 0.1959225448935183 0  0.3199680582793816 0.1959123018030061 0  0.2825051229162361 0.1959834479681729 0  0.3590471196690275 0.2036304442587945 0  0.5571594006495384 0.1963685282145804 0  0.3067669986803285 0.203627750582736 0  0.4262598344738712 0.2036568242185335 0  0.5814408164431408 0.2041285596160068 0  0.5688286748170428 0.1961819304477386 0  0.4145905603063645 0.2038180695522843 0  0.3473758401724931 0.2038180695522752 0  0.2950977245128307 0.2038180695522663 0  0.5688286748170693 0.203818069552238 0  0.2950977245127906 0.1961819304477774 0  0.3473758401723931 0.1961819304478349 0  0.4145905603061963 0.1961819304479011 0  0.2601812407614425 0.2056861609747042
[...]
<PointData  Vectors="f_40-0"> 
<DataArray  type="Float64"  Name="f_40-0"  NumberOfComponents="3" format="ascii">0.0000000000000000e+00 0.0000000000000000e+00 0.0000000000000000e+00  0.0000000000000000e+00 0.0000000000000000e+00 0.0000000000000000e+00  0.0000000000000000e+00 0.0000000000000000e+00 0.0000000000000000e+00  0.0000000000000000e+00 0.0000000000000000e+00 0.0000000000000000e+00  -1.0285893982157252e-05 -5.0193307673007616e-04 0.0000000000000000e+00  2.8380995570606206e-05 -5.0731759063210547e-04 0.0000000000000000e+00  0.0000000000000000e+00 0.0000000000000000e+00 0.0000000000000000e+00  0.0000000000000000e+00 0.0000000000000000e+00 0.0000000000000000e+00  0.0000000000000000e+00 0.0000000000000000e+00 0.0000000000000000e+00  0.0000000000000000e+00 0.0000000000000000e+00 0.0000000000000000e+00  8.5422935164230660e-06 -5.0462134778744372e-04 0.0000000000000000e+00  7.6021813611819145e-02 0.0000000000000000e+00 0.0000000000000000e+00  1.4034796359106003e-01 0.0000000000000000e+00 0.0000000000000000e+00  1.9297844993770760e-01 0.0000000000000000e+00 0.0000000000000000e+00  2.3391327265182274e-01 0.0000000000000000e+00 0.0000000000000000e+00  2.6315243173340014e-01 0.0000000000000000e+00 0.0000000000000000e+00  2.8069592718243808e-01 0.0000000000000000e+00 0.0000000000000000e+00  2.8654375899891898e-01 0.0000000000000000e+00 0.0000000000000000e+00  2.8069592718279279e-01 0.0000000000000000e+00 0.0000000000000000e+00  2.6315243173400937e-01 0.0000000000000000e+00 0.0000000000000000e+00  2.3391327265257722e-01 0.0000000000000000e+00 0.0000000000000000e+00  1.9297844993842439e-01 0.0000000000000000e+00 0.0000000000000000e+00  1.4034796359167168e-01 0.0000000000000000e+00 0.0000000000000000e+00  7.6021813612163786e-02 0.0000000000000000e+00 0.0000000000000000e+00  0.0000000000000000e+00 0.0000000000000000e+00 0.0000000000000000e+00  0.0000000000000000e+00 0.0000000000000000e+00 0.0000000000000000e+00  0.0000000000000000e+00 0.0000000000000000e+00 0.0000000000000000e+00  0.0000000000000000e+00 0.0000000000000000e+00 0.0000000000000000e+00  0.0000000000000000e+00 0.0000000000000000e+00 0.0000000000000000e+00  0.0000000000000000e+00 0.0000000000000000e+00 0.0000000000000000e+00  0.0000000000000000e+00 0.0000000000000000e+00 0.0000000000000000e+00  0.0000000000000000e+00 0.0000000000000000e+00 0.0000000000000000e+00  0.0000000000000000e+00 0.0000000000000000e+00 0.0000000000000000e+00  0.0000000000000000e+00 0.0000000000000000e+00 0.0000000000000000e+00  0.0000000000000000e+00 0.0000000000000000e+00 0.0000000000000000e+00  0.0000000000000000e+00 0.0000000000000000e+00 0.0000000000000000e+00  0.0000000000000000e+00 0.0000000000000000e+00 0.0000000000000000e+00  0.0000000000000000e+00 0.0000000000000000e+00 0.0000000000000000e+00  0.0000000000000000e+00 0.0000000000000000e+00 0.0000000000000000e+00  0.0000000000000000e+00 0.0000000000000000e+00 0.0000000000000000e+00  0.0000000000000000e+00 0.0000000000000000e+00 0.0000000000000000e+00  0.0000000000000000e+00 0.0000000000000000e+00 0.0000000000000000e+00  0.0000000000000000e+00 0.0000000000000000e+00 0.0000000000000000e+00  0.0000000000000000e+00 0.0000000000000000e+00 0.0000000000000000e+00  0.0000000000000000e+00 0.0000000000000000e+00 0.0000000000000000e+00  0.0000000000000000e+00 0.0000000000000000e+00 0.0000000000000000e+00  0.0000000000000000e+00 0.0000000000000000e+00 0.0000000000000000e+00  0.0000000000000000e+00 0.0000000000000000e+00 0.0000000000000000e+00  0.0000000000000000e+00 0.0000000000000000e+00 0.0000000000000000e+00  0.0000000000000000e+00 0.0000000000000000e+00 0.0000000000000000e+00  0.0000000000000000e+00 0.0000000000000000e+00 0.0000000000000000e+00  0.0000000000000000e+00 0.0000000000000000e+00 0.0000000000000000e+00  0.0000000000000000e+00 0.0000000000000000e+00 0.0000000000000000e+00  0.0000000000000000e+00 0.0000000000000000e+00 0.0000000000000000e+00  0.0000000000000000e+00 0.0000000000000000e+00 0.0000000000000000e+00  0.0000000000000000e+00 0.0000000000000000e+00 0.0000000000000000e+00  0.0000000000000000e+00 0.0000000000000000e+00 0.0000000000000000e+00  0.0000000000000000e+00 0.0000000000000000e+00 0.0000000000000000e+00  0.0000000000000000e+00 0.0000000000000000e+00 0.0000000000000000e+00  0.0000000000000000e+00 0.0000000000000000e+00 0.0000000000000000e+00  0.0000000000000000e+00 0.0000000000000000e+00 0.0000000000000000e+00  0.0000000000000000e+00 0.0000000000000000e+00 0.0000000000000000e+00  2.4203350925545444e-01 1.7309425444892467e-03 0.0000000000000000e+00  1.8583307365035517e-01 -3.2299334323724921e-04 0.0000000000000000e+00  2.4084614258361428e-01 -2.5004086717021565e-03 0.0000000000000000e+00  0.0000000000000000e+00 0.0000000000000000e+00 0.0000000000000000e+00  0.0000000000000000e+00 0.0000000000000000e+00 0.0000000000000000e+00  0.0000000000000000e+00 0.0000000000000000e+00 0.0000000000000000e+00  0.0000000000000000e+00 0.0000000000000000e+00 0.0000000000000000e+00  0.0000000000000000e+00 0.0000000000000000e+00 0.0000000000000000e+00  0.0000000000000000e+00 0.0000000000000000e+00 0.0000000000000000e+00  0.0000000000000000e+00 0.0000000000000000e+00 0.0000000000000000e+00  0.0000000000000000e+00 0.0000000000000000e+00 0.0000000000000000e+00  0.0000000000000000e+00 0.0000000000000000e+00 0.0000000000000000e+00  0.0000000000000000e+00 0.0000000000000000e+00 0.0000000000000000e+00  0.0000000000000000e+00 0.0000000000000000e+00 0.0000000000000000e+00  0.0000000000000000e+00 0.0000000000000000e+00 0.0000000000000000e+00  0.0000000000000000e+00 0.0000000000000000e+00 0.0000000000000000e+00  0.0000000000000000e+00 0.0000000000000000e+00 0.0000000000000000e+00  0.0000000000000000e+00 0.0000000000000000e+00 0.0000000000000000e+00  0.0000000000000000e+00 0.0000000000000000e+00 0.0000000000000000e+00  0.0000000000000000e+00 0.0000000000000000e+00 0.0000000000000000e+00  0.0000000000000000e+00 0.0000000000000000e+00 0.0000000000000000e+00  0.0000000000000000e+00 0.0000000000000000e+00 0.0000000000000000e+00  0.0000000000000000e+00 0.0000000000000000e+00 0.0000000000000000e+00  0.0000000000000000e+00 0.0000000000000000e+00 0.0000000000000000e+00  0.0000000000000000e+00 0.0000000000000000e+00 0.0000000000000000e+00  0.0000000000000000e+00 0.0000000000000000e+00 0.0000000000000000e+00  0.0000000000000000e+00 0.0000000000000000e+00 0.0000000000000000e+00  0.0000000000000000e+00 0.0000000000000000e+00 0.0000000000000000e+00  0.0000000000000000e+00 0.0000000000000000e+00 0.0000000000000000e+00  0.0000000000000000e+00 0.0000000000000000e+00 0.0000000000000000e+00  0.0000000000000000e+00 0.0000000000000000e+00 0.0000000000000000e+00  0.0000000000000000e+00 0.0000000000000000e+00 0.0000000000000000e+00  0.0000000000000000e+00 0.0000000000000000e+00 0.0000000000000000e+00  0.0000000000000000e+00 0.0000000000000000e+00 0.0000000000000000e+00  0.0000000000000000e+00 0.0000000000000000e+00 0.0000000000000000e+00  0.0000000000000000e+00 0.0000000000000000e+00 0.0000000000000000e+00  0.0000000000000000e+00 0.0000000000000000e+00 0.0000000000000000e+00  0.0000000000000000e+00 0.0000000000000000e+00 0.0000000000000000e+00  0.0000000000000000e+00 0.0000000000000000e+00 0.0000000000000000e+00  0.0000000000000000e+00 0.0000000000000000e+00 0.0000000000000000e+00  0.0000000000000000e+00 0.0000000000000000e+00 0.0000000000000000e+00  0.0000000000000000e+00 0.0000000000000000e+00 0.0000000000000000e+00  0.0000000000000000e+00 0.0000000000000000e+00 0.0000000000000000e+00  0.0000000000000000e+00 0.0000000000000000e+00 0.0000000000000000e+00  0.0000000000000000e+00 0.0000000000000000e+00 0.0000000000000000e+00  0.0000000000000000e+00 0.0000000000000000e+00 0.0000000000000000e+00  0.0000000000000000e+00 0.0000000000000000e+00 0.0000000000000000e+00  0.0000000000000000e+00 0.0000000000000000e+00 0.0000000000000000e+00  0.0000000000000000e+00 0.0000000000000000e+00 0.0000000000000000e+00  0.0000000000000000e+00 0.0000000000000000e+00 0.0000000000000000e+00  0.0000000000000000e+00 0.0000000000000000e+00 0.0000000000000000e+00  0.0000000000000000e+00 0.0000000000000000e+00 0.0000000000000000e+00  0.0000000000000000e+00 0.0000000000000000e+00 0.0000000000000000e+00  0.0000000000000000e+00 0.0000000000000000e+00 0.0000000000000000e+00  0.0000000000000000e+00 0.0000000000000000e+00 0.0000000000000000e+00  0.0000000000000000e+00 0.0000000000000000e+00 0.0000000000000000e+00  0.0000000000000000e+00 0.0000000000000000e+00 0.0000000000000000e+00  0.0000000000000000e+00 0.0000000000000000e+00 0.0000000000000000e+00  0.0000000000000000e+00 0.0000000000000000e+00 0.0000000000000000e+00  0.0000000000000000e+00 0.0000000000000000e+00 0.0000000000000000e+00  0.0000000000000000e+00 0.0000000000000000e+00 0.0000000000000000e+00  0.0000000000000000e+00 0.0000000000000000e+00 0.0000000000000000e+00  0.0000000000000000e+00 0.0000000000000000e+00 0.0000000000000000e+00  0.0000000000000000e+00 0.0000000000000000e+00 0.0000000000000000e+00  0.0000000000000000e+00 0.0000000000000000e+00 0.0000000000000000e+00  0.0000000000000000e+00 0.0000000000000000e+00 0.0000000000000000e+00  0.0000000000000000e+00 0.0000000000000000e+00 0.0000000000000000e+00  0.0000000000000000e+00 0.0000000000000000e+00 0.0000000000000000e+00  0.0000000000000000e+00 0.0000000000000000e+00 0.0000000000000000e+00  0.0000000000000000e+00 0.0000000000000000e+00 0.0000000000000000e+00  0.0000000000000000e+00 0.0000000000000000e+00 0.0000000000000000e+00  0.0000000000000000e+00 0.0000000000000000e+00 0.0000000000000000e+00  0.0000000000000000e+00 0.0000000000000000e+00 0.0000000000000000e+00  0.0000000000000000e+00 0.0000000000000000e+00 0.0000000000000000e+00  0.0000000000000000e+00 0.0000000000000000e+00 0.0000000000000000e+00  0.0000000000000000e+00 0.0000000000000000e+00 0.0000000000000000e+00  0.0000000000000000e+00 0.0000000000000000e+00 0.0000000000000000e+00  0.0000000000000000e+00 0.0000000000000000e+00 0.0000000000000000e+00  0.0000000000000000e+00 0.0000000000000000e+00 0.0000000000000000e+00  0.0000000000000000e+00 0.0000000000000000e+00 0.0000000000000000e+00  0.0000000000000000e+00 0.0000000000000000e+00 0.0000000000000000e+00  1.8193976835886374e-06 -6.2186641737881123e-06 0.0000000000000000e+00  3.9884880632004067e-06 -7.8721283314118240e-06 0.0000000000000000e+00  6.3263358313509393e-06 -1.0023110057224641e-05 0.0000000000000000e+00  8.8914257570343187e-06 -1.2841844461095841e-05 0.0000000000000000e+00  1.1297145851943525e-05 -1.6362975421141726e-05 0.0000000000000000e+00  1.3788201821093104e-05 -2.0705138764728806e-05 0.0000000000000000e+00  1.6023382029546085e-05 -2.5616004161375112e-05 0.0000000000000000e+00  1.8166597745016511e-05 -3.1286042243291240e-05 0.0000000000000000e+00  2.0393391711741493e-05 -3.7542582138938997e-05 0.0000000000000000e+00  2.2307862909626466e-05 -4.4377900069409404e-05 0.0000000000000000e+00  2.4324742230153284e-05 -5.1845742986241862e-05 0.0000000000000000e+00  2.6040029171406984e-05 -5.9819512072882853e-05 0.0000000000000000e+00  2.7801550045532441e-05 -6.8345478647137669e-05 0.0000000000000000e+00  2.9337908313457035e-05 -7.7297869390976245e-05 0.0000000000000000e+00  3.0769797820458877e-05 -8.6768843088218210e-05 0.0000000000000000e+00  3.2227230334761472e-05 -9.6650788428676734e-05 0.0000000000000000e+00  3.3434729002357170e-05 -1.0690436378311564e-04 0.0000000000000000e+00  3.4670759190366211e-05 -1.1759718830196451e-04 0.0000000000000000e+00  3.5676320242330845e-05 -1.2858909857767250e-04 0.0000000000000000e+00  3.6690992549474755e-05 -1.3995585680892991e-04 0.0000000000000000e+00  3.7521025420224494e-05 -1.5158938069746933e-04 0.0000000000000000e+00  3.8309231521434181e-05 -1.6354913703514048e-04 0.0000000000000000e+00  3.8951790017687743e-05 -1.7572620715007226e-04 0.0000000000000000e+00  3.9495048525687273e-05 -1.8817717340837065e-04 0.0000000000000000e+00  4.0015283576867103e-05 -2.0083436112048908e-04 0.0000000000000000e+00  4.0385469193053584e-05 -2.1368063067535639e-04 0.0000000000000000e+00  4.0680459702132036e-05 -2.2676501017644571e-04 0.0000000000000000e+00  4.0866786010880567e-05 -2.3996231924949891e-04 0.0000000000000000e+00  4.0976190393873067e-05 -2.5336828549256239e-04 0.0000000000000000e+00  4.0983605260525453e-05 -2.6686055519723687e-04 0.0000000000000000e+00  4.0912907791731994e-05 -2.8052920868149646e-04 0.0000000000000000e+00  4.0743254375236911e-05 -2.9425554971888119e-04 0.0000000000000000e+00  4.0497516904210951e-05 -3.0813168638784474e-04 0.0000000000000000e+00  4.0154398975691815e-05 -3.2203788331842059e-04 0.0000000000000000e+00  3.9730851995567719e-05 -3.3607536596236569e-04 0.0000000000000000e+00  3.9217403055473926e-05 -3.5012392682801769e-04 0.0000000000000000e+00  3.8625974763739821e-05 -3.6427865027062912e-04 0.0000000000000000e+00  3.7946906837344541e-05 -3.7842822538624671e-04 0.0000000000000000e+00  3.7187020232435642e-05 -3.9266682646603370e-04 0.0000000000000000e+00  3.6338304021433683e-05 -4.0688598494717878e-04 0.0000000000000000e+00  3.5398127532340586e-05 -4.2116355618345753e-04 0.0000000000000000e+00  3.4389487656694010e-05 -4.3543869064196182e-04 0.0000000000000000e+00  3.3285883471914316e-05 -4.4973725270155751e-04 0.0000000000000000e+00  3.2132945927362166e-05 -4.6404203913188422e-04 0.0000000000000000e+00  3.0880316354685730e-05 -4.7832453457779102e-04 0.0000000000000000e+00  2.9592642124964397e-05 -4.9267665707537474e-04 0.0000000000000000e+00  1.8283050228997354e-05 -5.0596705224328973e-04 0.0000000000000000e+00  -1.0308539651629629e-06 -5.0328272431945855e-04 0.0000000000000000e+00  -9.0520659952031555e-06 -4.8769988918598468e-04 0.0000000000000000e+00  -7.7288604360683588e-06 -4.7319385891758322e-04 0.0000000000000000e+00  -6.4460523776850416e-06 -4.5865156887572731e-04 0.0000000000000000e+00  -5.2490188185487761e-06 -4.4415384815453117e-04 0.0000000000000000e+00  -4.1031422766981332e-06 -4.2966795260605638e-04 0.0000000000000000e+00  -3.0460918315283513e-06 -4.1520251421855704e-04 0.0000000000000000e+00  -2.0374037608241049e-06 -4.0076940376549222e-04 0.0000000000000000e+00  -1.1161121312373681e-06 -3.8633496784878479e-04 0.0000000000000000e+00  -2.4880369895044230e-07 -3.7197657324965341e-04 0.0000000000000000e+00  5.4053986454800430e-07 -3.5761094698547101e-04 0.0000000000000000e+00  1.2850865615402938e-06 -3.4333730838669312e-04 0.0000000000000000e+00  1.9484906214151167e-06 -3.2907377720532168e-04 0.0000000000000000e+00  2.5759203803900439e-06 -3.1492083464936205e-04 0.0000000000000000e+00  3.1199688284384329e-06 -3.0080012122613345e-04 0.0000000000000000e+00  3.6392682573081065e-06 -2.8680913641715910e-04 0.0000000000000000e+00  4.0692045635800910e-06 -2.7287329535050005e-04 0.0000000000000000e+00  4.4854100877102330e-06 -2.5908990880993377e-04 0.0000000000000000e+00  4.8053595807398986e-06 -2.4538813849352852e-04 0.0000000000000000e+00  5.1238478610781335e-06 -2.3186862731217108e-04 0.0000000000000000e+00  5.3389299987820719e-06 -2.1846298658300653e-04 0.0000000000000000e+00  5.5676200226876060e-06 -2.0526987756020479e-04 0.0000000000000000e+00  5.6837106320352738e-06 -1.9222660464134083e-04 0.0000000000000000e+00  5.8131498485033873e-06 -1.7941720786579426e-04 0.0000000000000000e+00  5.8517074127206815e-06 -1.6680053957849971e-04 0.0000000000000000e+00  5.8308271517588010e-06 -1.5446996883318090e-04 0.0000000000000000e+00  5.8479167953397919e-06 -1.4235526115451968e-04 0.0000000000000000e+00  5.7634206977316558e-06 -1.3053496629037521e-04 0.0000000000000000e+00  5.6771312595983867e-06 -1.1904478886849611e-04 0.0000000000000000e+00  5.5155027533266855e-06 -1.0785425401773737e-04 0.0000000000000000e+00  5.3504738218764712e-06 -9.7051136228316852e-05 0.0000000000000000e+00  5.1111079700448470e-06 -8.6580456023552837e-05 0.0000000000000000e+00  4.9087694297902863e-06 -7.6589545596788514e-05 0.0000000000000000e+00  4.5850126908582530e-06 -6.6945429507983802e-05 0.0000000000000000e+00  4.2115315451432424e-06 -5.7849319389903293e-05 0.0000000000000000e+00  3.9348954311713212e-06 -4.9142495626934389e-05 0.0000000000000000e+00  3.5394640800587920e-06 -4.1000591196222965e-05 0.0000000000000000e+00  3.1685904494417523e-06 -3.3423684857645870e-05 0.0000000000000000e+00  2.7105623416124273e-06 -2.6385339860697845e-05 0.0000000000000000e+00  2.3373350817760356e-06 -2.0041777238511429e-05 0.0000000000000000e+00  1.8065591136037547e-06 -1.4228529927167165e-05 0.0000000000000000e+00  1.2375596293972703e-06 -9.2040123696733994e-06 0.0000000000000000e+00  8.3468295608124511e-07 -4.7542063065528795e-06 0.0000000000000000e+00  2.9244744513257849e-07 -1.0617401619303772e-06 0.0000000000000000e+00  -4.2468364868378208e-08 1.8377023974615753e-06 0.0000000000000000e+00  -3.7230676199086611e-07 3.7626062707612042e-06 0.0000000000000000e+00  -2.4079063634182566e-07 4.5623507549823325e-06 0.0000000000000000e+00  3.3653149757408594e-07 -8.8920382557790295e-07 0.0000000000000000e+00  1.0971577981481307e-05 -4.8296215553388035e-04 0.0000000000000000e+00  1.3655429818593581e-05 -4.5543421646592809e-04 0.0000000000000000e+00  1.6848869823589802e-05 -4.1050659060890270e-04 0.0000000000000000e+00  3.7936361028256219e-06 -4.9175838879108177e-06 0.0000000000000000e+00  1.8362376672222335e-05 -3.8232223169718931e-04 0.0000000000000000e+00  6.5711916514992634e-06 -1.1748402811446484e-05 0.0000000000000000e+00  1.9839295970355813e-05 -3.5379637334243262e-04 0.0000000000000000e+00  1.0781645661641794e-05 -2.8508958557321973e-05 0.0000000000000000e+00  1.3267084012311631e-05 -4.2228013510242807e-05 0.0000000000000000e+00  2.1024866662017773e-05 -3.2547200889493084e-04 0.0000000000000000e+00  1.8047443527948728e-05 -8.6666728637422425e-05 0.0000000000000000e+00  2.2536008247352324e-05 -2.6974520598281891e-04 0.0000000000000000e+00  1.5217051263887981e-05 -5.7615108154347582e-05 0.0000000000000000e+00  1.9670764135519894e-05 -1.0706671411698360e-04 0.0000000000000000e+00  2.2866781385844000e-05 -2.4253192044683652e-04 0.0000000000000000e+00  2.1922853471605459e-05 -2.9742558538377491e-04 0.0000000000000000e+00  2.0882643378746835e-05 -1.2927972621422877e-04 0.0000000000000000e+00  2.2914917351250485e-05 -2.1590554894514513e-04 0.0000000000000000e+00  2.1580643747336633e-05 -1.5173366304628040e-04 0.0000000000000000e+00  2.2917114013696993e-05 -1.9057500161046096e-04 0.0000000000000000e+00  2.2278238866897053e-05 -1.7012841321935987e-04 0.0000000000000000e+00  1.6811176210595095e-05 -7.1098007280784837e-05 0.0000000000000000e+00  1.4907845776231994e-05 -4.3379832134319001e-04 0.0000000000000000e+00  8.7199572879536499e-06 -1.9162661326597912e-05 0.0000000000000000e+00  5.5986128467928155e-06 -4.6818803158124508e-04 0.0000000000000000e+00  1.1850448469545317e-06 -3.2905555085417303e-07 0.0000000000000000e+00  1.3593048415871898e-05 -3.6708895316016961e-04 0.0000000000000000e+00  1.1941669791314337e-05 -3.9573739133020995e-04 0.0000000000000000e+00  6.9504646772286949e-06 -1.0286985120346720e-05 0.0000000000000000e+00  1.4769240950284883e-05 -3.6635548703709392e-05 0.0000000000000000e+00  1.6890549222709825e-05 -2.8244567846189158e-04 0.0000000000000000e+00  1.4965116626691757e-05 -3.3860794384808556e-04 0.0000000000000000e+00  2.2980898294082673e-05 -9.7975842363852807e-05 0.0000000000000000e+00  1.7455792691058682e-05 -2.5493994454668385e-04 0.0000000000000000e+00  1.7492652748516790e-05 -5.1650968599588321e-05 0.0000000000000000e+00  2.4607349142011939e-05 -1.1943800582474275e-04 0.0000000000000000e+00  1.7760546297903764e-05 -2.2796023264285136e-04 0.0000000000000000e+00  1.6061901373108563e-05 -3.1036573843187392e-04 0.0000000000000000e+00  2.6923821017472903e-05 -1.4243409323078332e-04 0.0000000000000000e+00  1.7808167767584025e-05 -2.0163191391553941e-04 0.0000000000000000e+00  -3.0262569307949462e-07 -1.4872781944054978e-06 0.0000000000000000e+00  -6.4635679233304418e-07 1.0240859575607236e-06 0.0000000000000000e+00  1.4286234963851154e-05 -4.9489052442672134e-04 0.0000000000000000e+00  3.2549206661374419e-06 -5.0030567246466755e-06 0.00000000000000