<?xml version="1.0"?>
<VTKFile type="UnstructuredGrid"  version="0.1"  >
<UnstructuredGrid>
<Piece  NumberOfPoints="1419" NumberOfCells="2698">
<Points>
<DataArray  type="Float64"  NumberOfComponents="3"  format="ascii">0 0 0  0 0.41 0  2.5 0 0  2.5 0.41 0  0.6 0.19 0  0.6 0.21 0  0.25 0.2 0  0.15 0.2 0  0.2489897948556636 0.21 0  0.2489897948556636 0.19 0  0.6 0.2 0  0 0.3807142857143437 0  0 0.3514285714286952 0  0 0.3221428571430699 0  0 0.29285714285744 0  0 0.2635714285718054 0  0 0.2342857142861561 0  0 0.2050000000005308 0  0 0.175714285714732 0  0 0.1464285714289574 0  0 0.1171428571431897 0  0 0.08785714285737878 0  0 0.05857142857161107 0  0 0.02928571428580012 0  0.03015443760436003 0 0  0.06140001986583606 0 0  0.09377624077125973 0 0  0.1273239957535082 0 0  0.1620856860351972 0 0  0.1981052433264291 0 0  0.235428184091502 0 0  0.2741016576309132 0 0  0.3141745521465447 0 0  0.3556974926295285 0 0  0.3987229542472677 0 0  0.4433053055141081 0 0  0.4895008759286886 0 0  0.5373680609405097 0 0  0.5869673343216626 0 0  0.6383613676634521 0 0  0.6916151138468254 0 0  0.7467958595648856 0 0  0.8039733463919316 0 0  0.8632198139502143 0 0  0.9246101326867038 0 0  0.9882218810934433 0 0  1.054135445558498 0 0  1.122434100542598 0 0  1.193204177141305 0 0  1.266535089879536 0 0  1.342519516046404 0 0  1.421253448503939 0 0  1.502836389106271 0 0  1.587371439758838 0 0  1.674965418777374 0 0  1.765729001825544 0 0  1.859776908880082 0 0  1.957227977487062 0 0  2.058205329869943 0 0  2.162836591189951 0 0  2.271253957290865 0 0  2.383594446803425 0 0  2.5 0.1024999999997612 0  2.5 0.2049999999994743 0  2.5 0.3074999999997183 0  2.383594446803656 0.41 0  2.271253957291315 0.41 0  2.162836591190598 0.41 0  2.058205329870775 0.41 0  1.957227977488067 0.41 0  1.859776908881246 0.41 0  1.765729001826854 0.41 0  1.674965418778818 0.41 0  1.58737143976041 0.41 0  1.502836389107956 0.41 0  1.421253448505726 0.41 0  1.342519516048286 0.41 0  1.266535089881505 0.41 0  1.193204177143353 0.41 0  1.122434100544716 0.41 0  1.05413544556068 0.41 0  0.9882218810956305 0.41 0  0.9246101326886647 0.41 0  0.8632198139519631 0.41 0  0.8039733463934788 0.41 0  0.7467958595662458 0.41 0  0.6916151138480078 0.41 0  0.6383613676644679 0.41 0  0.5869673343225223 0.41 0  0.5373680609412221 0.41 0  0.4895008759292634 0.41 0  0.4433053055145528 0.41 0  0.3987229542475914 0.41 0  0.3556974926297398 0.41 0  0.3141745521466497 0.41 0  0.2741016576310038 0.41 0  0.2354281840915826 0.41 0  0.1981052433265003 0.41 0  0.1620856860352591 0.41 0  0.1273239957535623 0.41 0  0.09377624077128965 0.41 0  0.06140001986584975 0.41 0  0.03015443760436654 0.41 0  0.2497468076502589 0.2050254481002335 0  0.2497468076502614 0.1949745518997913 0  0.2469965252529372 0.1829317073451959 0  0.2439893735792749 0.1762316384219906 0  0.2400332147834255 0.1700443375285386 0  0.2352133972704371 0.1645032867342007 0  0.2296339016332438 0.1597280261969788 0  0.2234150974217223 0.1558215752574715 0  0.2166911463437691 0.1528682099456123 0  0.2096071079204251 0.1509316448471593 0  0.2023158100364996 0.1500536585536553 0  0.194974551899914 0.1502531923497262 0  0.1877417105387872 0.1515259415822739 0  0.1807733240461124 0.153844448527136 0  0.1742197252835808 0.15715869474974 0  0.1682222986673531 0.1613971801805478 0  0.162910430003803 0.1664684656256651 0  0.1583987151779087 0.1722631454351573 0  0.1547844879126891 0.178656207771761 0  0.1521457199348551 0.1855097315605723 0  0.1505393388476355 0.1926758619366523 0  0.1505393388476328 0.2073241380633295 0  0.1521457199348437 0.2144902684393899 0  0.1547844879126531 0.221343792228163 0  0.1583987151778488 0.2277368545647528 0  0.1629104300036858 0.2335315343742052 0  0.1682222986671726 0.2386028198193036 0  0.1742197252833576 0.2428413052501257 0  0.1807733240458683 0.2461555514727623 0  0.1877417105384929 0.2484740584176516 0  0.1949745518995776 0.2497468076502398 0  0.202315810036185 0.2499463414463592 0  0.2096071079201568 0.2490683551528932 0  0.2166911463435495 0.2471317900544655 0  0.2234150974215506 0.2441784247426195 0  0.2296339016331197 0.2402719738031125 0  0.2352133972703547 0.2354967132658811 0  0.2400332147833751 0.2299556624715287 0  0.2439893735792577 0.2237683615780412 0  0.246996525252926 0.2170682926548348 0  0.25645809709277 0.21 0  0.2639263993298655 0.21 0  0.271394701566961 0.21 0  0.2788630038040554 0.21 0  0.2863313060411479 0.21 0  0.2937996082782405 0.21 0  0.301267910515333 0.21 0  0.3087362127524279 0.21 0  0.3162045149895234 0.21 0  0.3236728172265972 0.21 0  0.3311411194636928 0.21 0  0.3386094217007701 0.21 0  0.3460777239378666 0.21 0  0.3535460261749672 0.21 0  0.3610143284120516 0.21 0  0.3684826306491596 0.21 0  0.3759509328862226 0.21 0  0.383419235123329 0.21 0  0.3908875373604028 0.21 0  0.3983558395975142 0.21 0  0.4058241418345938 0.21 0  0.4132924440716992 0.21 0  0.4207607463087888 0.21 0  0.4282290485459029 0.21 0  0.4356973507830418 0.21 0  0.4431656530201649 0.21 0  0.4506339552573136 0.21 0  0.4581022574944306 0.21 0  0.4655705597315852 0.21 0  0.4730388619686996 0.21 0  0.480507164205851 0.21 0  0.4879754664429498 0.21 0  0.4954437686800938 0.21 0  0.502912070917267 0.21 0  0.5103803731544119 0.21 0  0.5178486753915261 0.21 0  0.5253169776286404 0.21 0  0.5327852798657868 0.21 0  0.5402535821029386 0.21 0  0.54772188434007 0.21 0  0.5551901865771842 0.21 0  0.5626584888143201 0.21 0  0.5701267910514778 0.21 0  0.5775950932886138 0.21 0  0.5850633955257281 0.21 0  0.5925316977628483 0.21 0  0.6 0.2050000000000054 0  0.6 0.1950000000000217 0  0.5925316977628897 0.19 0  0.5850633955257988 0.19 0  0.5775950932887378 0.19 0  0.5701267910515998 0.19 0  0.5626584888145268 0.19 0  0.5551901865773963 0.19 0  0.547721884340339 0.19 0  0.5402535821032429 0.19 0  0.5327852798661811 0.19 0  0.5253169776290537 0.19 0  0.5178486753919799 0.19 0  0.5103803731549078 0.19 0  0.502912070917822 0.19 0  0.4954437686807294 0.19 0  0.4879754664436223 0.19 0  0.4805071642065402 0.19 0  0.4730388619694271 0.19 0  0.4655705597323621 0.19 0  0.4581022574952563 0.19 0  0.4506339552581777 0.19 0  0.4431656530210671 0.19 0  0.4356973507839815 0.19 0  0.4282290485468779 0.19 0  0.4207607463097617 0.19 0  0.4132924440726327 0.19 0  0.4058241418354857 0.19 0  0.3983558395983636 0.19 0  0.3908875373612097 0.19 0  0.3834192351240934 0.19 0  0.3759509328869369 0.19 0  0.3684826306498175 0.19 0  0.361014328412667 0.19 0  0.3535460261755617 0.19 0  0.3460777239384295 0.19 0  0.3386094217012945 0.19 0  0.3311411194641595 0.19 0  0.3236728172270245 0.19 0  0.3162045149898895 0.19 0  0.3087362127527544 0.19 0  0.3012679105156187 0.19 0  0.2937996082784807 0.19 0  0.2863313060413428 0.19 0  0.2788630038042048 0.19 0  0.2713947015670686 0.19 0  0.2639263993299336 0.19 0  0.2564580970927985 0.19 0  0.2607803159922026 0.2000727136295815 0  0.5887803774232762 0.2001272386983733 0  0.5745072403740523 0.2002044435018727 0  0.5511891430099709 0.2001122610077113 0  0.2751288526855082 0.20000000000002 0  0.5365194309847112 0.1999999999999436 0  0.2894621222999649 0.1998691686390484 0  0.5215828265105155 0.1999999999999228 0  0.3127789816668748 0.1998657885438805 0  0.3274069683451451 0.2000000000000796 0  0.5066462220363641 0.199999999999908 0  0.3650630746574081 0.199866017807523 0  0.476773013087985 0.1999999999998713 0  0.3417402379596385 0.1998691686391011 0  0.3796850840047755 0.200000000000134 0  0.4618364086138087 0.1999999999998546 0  0.4917096175621762 0.1999999999998808 0  0.3946216884789568 0.2000000000001512 0  0.446899804139621 0.1999999999998389 0  0.4089549580935208 0.1998691686391595 0  0.4322718174608562 0.200127451265745 0  0.4201487168029707 0.1999966199048527 0  0.3528922713220932 0.2000185703532356 0  0.5633122436674589 0.1999814296467508 0  0.3006558810093873 0.1999966199048318 0  0.5815926498168407 0.1966545283159175 0  0.2677053789419034 0.1964246479135325 0  0.5290511287476175 0.1970915826863981 0  0.5439877332217911 0.197091582686394 0  0.2825131256993216 0.2035478995978015 0  0.3199386661080599 0.202908417313604 0  0.4842413153250809 0.1970915826863873 0  0.5141145242734466 0.1970915826863843 0  0.3722167817676917 0.2029084173136195 0  0.4693047108508938 0.1970915826863783 0  0.3348752705822316 0.202908417313609 0  0.3871533862418661 0.2029084173136212 0  0.4543681063767183 0.1970915826863795 0  0.4991779197992749 0.1970915826863902 0  0.4020059614928624 0.203547899597858 0  0.4394315019025246 0.1970915826863714 0  0.2550657455369551 0.2034088125358657 0  0.2548908499171161 0.1966940311614271 0  0.5946539510196798 0.2024302972968126 0  0.267698176732111 0.2039977513680092 0  0.4261685417851465 0.196409292431739 0  0.3590076176283495 0.196411355804271 0  0.5571672426447437 0.2036011176410121 0  0.3066757059912147 0.1964092924317024 0  0.594380730180568 0.1966558399668133 0  0.4842413153245942 0.2040749161535287 0  0.4693047108503577 0.2040749161535231 0  0.3871533862424271 0.1959250838464788 0  0.372246743208829 0.1959123236376545 0  0.5141145242731028 0.2040749161535395 0  0.4543681063761134 0.2040749161535186 0  0.4019979587101454 0.1959834479682427 0  0.4394608940728603 0.2040870543693135 0  0.5439623148931173 0.2040856076781014 0  0.5290511287473298 0.2040749161535501 0  0.4991779197988497 0.2040749161535382 0  0.3347912413592433 0.1959225448935183 0  0.3199680582793816 0.1959123018030061 0  0.2825051229162361 0.1959834479681729 0  0.3590471196690275 0.2036304442587945 0  0.5571594006495384 0.1963685282145804 0  0.3067669986803285 0.203627750582736 0  0.4262598344738712 0.2036568242185335 0  0.5814408164431408 0.2041285596160068 0  0.5688286748170428 0.1961819304477386 0  0.4145905603063645 0.2038180695522843 0  0.3473758401724931 0.2038180695522752 0  0.2950977245128307 0.2038180695522663 0  0.5688286748170693 0.203818069552238 0  0.2950977245127906 0.1961819304477774 0  0.3473758401723931 0.1961819304478349 0  0.4145905603061963 0.1961819304479011 0  0.2601812407614425 0.2056861609747042
[...]
<PointData  Vectors="f_40-0"> 
<DataArray  type="Float64"  Name="f_40-0"  NumberOfComponents="3" format="ascii">0.0000000000000000e+00 0.0000000000000000e+00 0.0000000000000000e+00  0.0000000000000000e+00 0.0000000000000000e+00 0.0000000000000000e+00  0.0000000000000000e+00 0.0000000000000000e+00 0.0000000000000000e+00  0.0000000000000000e+00 0.0000000000000000e+00 0.0000000000000000e+00  -4.6851956496197685e-05 -1.5396411715036626e-03 0.0000000000000000e+00  8.1716621970381978e-05 -1.5424241294150617e-03 0.0000000000000000e+00  0.0000000000000000e+00 0.0000000000000000e+00 0.0000000000000000e+00  0.0000000000000000e+00 0.0000000000000000e+00 0.0000000000000000e+00  0.0000000000000000e+00 0.0000000000000000e+00 0.0000000000000000e+00  0.0000000000000000e+00 0.0000000000000000e+00 0.0000000000000000e+00  1.6909270433272310e-05 -1.5410074255153021e-03 0.0000000000000000e+00  2.8996704631730041e-01 0.0000000000000000e+00 0.0000000000000000e+00  5.3532377781659013e-01 0.0000000000000000e+00 0.0000000000000000e+00  7.3607019449781141e-01 0.0000000000000000e+00 0.0000000000000000e+00  8.9220629636119708e-01 0.0000000000000000e+00 0.0000000000000000e+00  1.0037320834067265e+00 0.0000000000000000e+00 0.0000000000000000e+00  1.0706475556343931e+00 0.0000000000000000e+00 0.0000000000000000e+00  1.0929527130441299e+00 0.0000000000000000e+00 0.0000000000000000e+00  1.0706475556357460e+00 0.0000000000000000e+00 0.0000000000000000e+00  1.0037320834090504e+00 0.0000000000000000e+00 0.0000000000000000e+00  8.9220629636407478e-01 0.0000000000000000e+00 0.0000000000000000e+00  7.3607019450054545e-01 0.0000000000000000e+00 0.0000000000000000e+00  5.3532377781892304e-01 0.0000000000000000e+00 0.0000000000000000e+00  2.8996704631861492e-01 0.0000000000000000e+00 0.0000000000000000e+00  0.0000000000000000e+00 0.0000000000000000e+00 0.0000000000000000e+00  0.0000000000000000e+00 0.0000000000000000e+00 0.0000000000000000e+00  0.0000000000000000e+00 0.0000000000000000e+00 0.0000000000000000e+00  0.0000000000000000e+00 0.0000000000000000e+00 0.0000000000000000e+00  0.0000000000000000e+00 0.0000000000000000e+00 0.0000000000000000e+00  0.0000000000000000e+00 0.0000000000000000e+00 0.0000000000000000e+00  0.0000000000000000e+00 0.0000000000000000e+00 0.0000000000000000e+00  0.0000000000000000e+00 0.0000000000000000e+00 0.0000000000000000e+00  0.0000000000000000e+00 0.0000000000000000e+00 0.0000000000000000e+00  0.0000000000000000e+00 0.0000000000000000e+00 0.0000000000000000e+00  0.0000000000000000e+00 0.0000000000000000e+00 0.0000000000000000e+00  0.0000000000000000e+00 0.0000000000000000e+00 0.0000000000000000e+00  0.0000000000000000e+00 0.0000000000000000e+00 0.0000000000000000e+00  0.0000000000000000e+00 0.0000000000000000e+00 0.0000000000000000e+00  0.0000000000000000e+00 0.0000000000000000e+00 0.0000000000000000e+00  0.0000000000000000e+00 0.0000000000000000e+00 0.0000000000000000e+00  0.0000000000000000e+00 0.0000000000000000e+00 0.0000000000000000e+00  0.0000000000000000e+00 0.0000000000000000e+00 0.0000000000000000e+00  0.0000000000000000e+00 0.0000000000000000e+00 0.0000000000000000e+00  0.0000000000000000e+00 0.0000000000000000e+00 0.0000000000000000e+00  0.0000000000000000e+00 0.0000000000000000e+00 0.0000000000000000e+00  0.0000000000000000e+00 0.0000000000000000e+00 0.0000000000000000e+00  0.0000000000000000e+00 0.0000000000000000e+00 0.0000000000000000e+00  0.0000000000000000e+00 0.0000000000000000e+00 0.0000000000000000e+00  0.0000000000000000e+00 0.0000000000000000e+00 0.0000000000000000e+00  0.0000000000000000e+00 0.0000000000000000e+00 0.0000000000000000e+00  0.0000000000000000e+00 0.0000000000000000e+00 0.0000000000000000e+00  0.0000000000000000e+00 0.0000000000000000e+00 0.0000000000000000e+00  0.0000000000000000e+00 0.0000000000000000e+00 0.0000000000000000e+00  0.0000000000000000e+00 0.0000000000000000e+00 0.0000000000000000e+00  0.0000000000000000e+00 0.0000000000000000e+00 0.0000000000000000e+00  0.0000000000000000e+00 0.0000000000000000e+00 0.0000000000000000e+00  0.0000000000000000e+00 0.0000000000000000e+00 0.0000000000000000e+00  0.0000000000000000e+00 0.0000000000000000e+00 0.0000000000000000e+00  0.0000000000000000e+00 0.0000000000000000e+00 0.0000000000000000e+00  0.0000000000000000e+00 0.0000000000000000e+00 0.0000000000000000e+00  0.0000000000000000e+00 0.0000000000000000e+00 0.0000000000000000e+00  0.0000000000000000e+00 0.0000000000000000e+00 0.0000000000000000e+00  9.8743112559854751e-01 -3.0050186352085926e-02 0.0000000000000000e+00  7.3622939494424045e-01 1.1668673422749333e-02 0.0000000000000000e+00  9.8995345561646408e-01 3.7235774896291200e-02 0.0000000000000000e+00  0.0000000000000000e+00 0.0000000000000000e+00 0.0000000000000000e+00  0.0000000000000000e+00 0.0000000000000000e+00 0.0000000000000000e+00  0.0000000000000000e+00 0.0000000000000000e+00 0.0000000000000000e+00  0.0000000000000000e+00 0.0000000000000000e+00 0.0000000000000000e+00  0.0000000000000000e+00 0.0000000000000000e+00 0.0000000000000000e+00  0.0000000000000000e+00 0.0000000000000000e+00 0.0000000000000000e+00  0.0000000000000000e+00 0.0000000000000000e+00 0.0000000000000000e+00  0.0000000000000000e+00 0.0000000000000000e+00 0.0000000000000000e+00  0.0000000000000000e+00 0.0000000000000000e+00 0.0000000000000000e+00  0.0000000000000000e+00 0.0000000000000000e+00 0.0000000000000000e+00  0.0000000000000000e+00 0.0000000000000000e+00 0.0000000000000000e+00  0.0000000000000000e+00 0.0000000000000000e+00 0.0000000000000000e+00  0.0000000000000000e+00 0.0000000000000000e+00 0.0000000000000000e+00  0.0000000000000000e+00 0.0000000000000000e+00 0.0000000000000000e+00  0.0000000000000000e+00 0.0000000000000000e+00 0.0000000000000000e+00  0.0000000000000000e+00 0.0000000000000000e+00 0.0000000000000000e+00  0.0000000000000000e+00 0.0000000000000000e+00 0.0000000000000000e+00  0.0000000000000000e+00 0.0000000000000000e+00 0.0000000000000000e+00  0.0000000000000000e+00 0.0000000000000000e+00 0.0000000000000000e+00  0.0000000000000000e+00 0.0000000000000000e+00 0.0000000000000000e+00  0.0000000000000000e+00 0.0000000000000000e+00 0.0000000000000000e+00  0.0000000000000000e+00 0.0000000000000000e+00 0.0000000000000000e+00  0.0000000000000000e+00 0.0000000000000000e+00 0.0000000000000000e+00  0.0000000000000000e+00 0.0000000000000000e+00 0.0000000000000000e+00  0.0000000000000000e+00 0.0000000000000000e+00 0.0000000000000000e+00  0.0000000000000000e+00 0.0000000000000000e+00 0.0000000000000000e+00  0.0000000000000000e+00 0.0000000000000000e+00 0.0000000000000000e+00  0.0000000000000000e+00 0.0000000000000000e+00 0.0000000000000000e+00  0.0000000000000000e+00 0.0000000000000000e+00 0.0000000000000000e+00  0.0000000000000000e+00 0.0000000000000000e+00 0.0000000000000000e+00  0.0000000000000000e+00 0.0000000000000000e+00 0.0000000000000000e+00  0.0000000000000000e+00 0.0000000000000000e+00 0.0000000000000000e+00  0.0000000000000000e+00 0.0000000000000000e+00 0.0000000000000000e+00  0.0000000000000000e+00 0.0000000000000000e+00 0.0000000000000000e+00  0.0000000000000000e+00 0.0000000000000000e+00 0.0000000000000000e+00  0.0000000000000000e+00 0.0000000000000000e+00 0.0000000000000000e+00  0.0000000000000000e+00 0.0000000000000000e+00 0.0000000000000000e+00  0.0000000000000000e+00 0.0000000000000000e+00 0.0000000000000000e+00  0.0000000000000000e+00 0.0000000000000000e+00 0.0000000000000000e+00  0.0000000000000000e+00 0.0000000000000000e+00 0.0000000000000000e+00  0.0000000000000000e+00 0.0000000000000000e+00 0.0000000000000000e+00  0.0000000000000000e+00 0.0000000000000000e+00 0.0000000000000000e+00  0.0000000000000000e+00 0.0000000000000000e+00 0.0000000000000000e+00  0.0000000000000000e+00 0.0000000000000000e+00 0.0000000000000000e+00  0.0000000000000000e+00 0.0000000000000000e+00 0.0000000000000000e+00  0.0000000000000000e+00 0.0000000000000000e+00 0.0000000000000000e+00  0.0000000000000000e+00 0.0000000000000000e+00 0.0000000000000000e+00  0.0000000000000000e+00 0.0000000000000000e+00 0.0000000000000000e+00  0.0000000000000000e+00 0.0000000000000000e+00 0.0000000000000000e+00  0.0000000000000000e+00 0.0000000000000000e+00 0.0000000000000000e+00  0.0000000000000000e+00 0.0000000000000000e+00 0.0000000000000000e+00  0.0000000000000000e+00 0.0000000000000000e+00 0.0000000000000000e+00  0.0000000000000000e+00 0.0000000000000000e+00 0.0000000000000000e+00  0.0000000000000000e+00 0.0000000000000000e+00 0.0000000000000000e+00  0.0000000000000000e+00 0.0000000000000000e+00 0.0000000000000000e+00  0.0000000000000000e+00 0.0000000000000000e+00 0.0000000000000000e+00  0.0000000000000000e+00 0.0000000000000000e+00 0.0000000000000000e+00  0.0000000000000000e+00 0.0000000000000000e+00 0.0000000000000000e+00  0.0000000000000000e+00 0.0000000000000000e+00 0.0000000000000000e+00  0.0000000000000000e+00 0.0000000000000000e+00 0.0000000000000000e+00  0.0000000000000000e+00 0.0000000000000000e+00 0.0000000000000000e+00  0.0000000000000000e+00 0.0000000000000000e+00 0.0000000000000000e+00  0.0000000000000000e+00 0.0000000000000000e+00 0.0000000000000000e+00  0.0000000000000000e+00 0.0000000000000000e+00 0.0000000000000000e+00  0.0000000000000000e+00 0.0000000000000000e+00 0.0000000000000000e+00  0.0000000000000000e+00 0.0000000000000000e+00 0.0000000000000000e+00  0.0000000000000000e+00 0.0000000000000000e+00 0.0000000000000000e+00  0.0000000000000000e+00 0.0000000000000000e+00 0.0000000000000000e+00  0.0000000000000000e+00 0.0000000000000000e+00 0.0000000000000000e+00  0.0000000000000000e+00 0.0000000000000000e+00 0.0000000000000000e+00  0.0000000000000000e+00 0.0000000000000000e+00 0.0000000000000000e+00  0.0000000000000000e+00 0.0000000000000000e+00 0.0000000000000000e+00  0.0000000000000000e+00 0.0000000000000000e+00 0.0000000000000000e+00  0.0000000000000000e+00 0.0000000000000000e+00 0.0000000000000000e+00  0.0000000000000000e+00 0.0000000000000000e+00 0.0000000000000000e+00  0.0000000000000000e+00 0.0000000000000000e+00 0.0000000000000000e+00  0.0000000000000000e+00 0.0000000000000000e+00 0.0000000000000000e+00  0.0000000000000000e+00 0.0000000000000000e+00 0.0000000000000000e+00  3.0265516133855669e-07 -4.6120139771603794e-07 0.0000000000000000e+00  1.0756466816232301e-06 -1.4438110066426767e-06 0.0000000000000000e+00  1.9633193318381804e-06 -3.8121554927611870e-06 0.0000000000000000e+00  3.3509694867581388e-06 -7.6493846188454438e-06 0.0000000000000000e+00  4.6741963864466450e-06 -1.3179426870136031e-05 0.0000000000000000e+00  6.6925106298850336e-06 -2.0553335464028136e-05 0.0000000000000000e+00  8.4226106134044674e-06 -2.9554703707578817e-05 0.0000000000000000e+00  1.0427768467127674e-05 -4.0829038080611023e-05 0.0000000000000000e+00  1.3128746942653376e-05 -5.3959810890903344e-05 0.0000000000000000e+00  1.5401048619959764e-05 -6.9264225615664991e-05 0.0000000000000000e+00  1.8583847180647555e-05 -8.6640851970808773e-05 0.0000000000000000e+00  2.1194618616083205e-05 -1.0627217674939933e-04 0.0000000000000000e+00  2.4615596101589538e-05 -1.2799358142830458e-04 0.0000000000000000e+00  2.7537935779967537e-05 -1.5152457275567949e-04 0.0000000000000000e+00  3.0627769542291106e-05 -1.7737511584807163e-04 0.0000000000000000e+00  3.4238873741400967e-05 -2.0496505623945831e-04 0.0000000000000000e+00  3.7278499046121564e-05 -2.3447518501803325e-04 0.0000000000000000e+00  4.0935712210133893e-05 -2.6574234972123501e-04 0.0000000000000000e+00  4.3946769727963350e-05 -2.9873024425382255e-04 0.0000000000000000e+00  4.7427644253408277e-05 -3.3321797158749613e-04 0.0000000000000000e+00  5.0422915878285789e-05 -3.6924475726186673e-04 0.0000000000000000e+00  5.3661059329928177e-05 -4.0668001351182353e-04 0.0000000000000000e+00  5.6439086836970333e-05 -4.4515060807307242e-04 0.0000000000000000e+00  5.9134809715003882e-05 -4.8495174159412396e-04 0.0000000000000000e+00  6.1947467334139914e-05 -5.2562753353857473e-04 0.0000000000000000e+00  6.4403336480321755e-05 -5.6731132713811958e-04 0.0000000000000000e+00  6.6788848542225171e-05 -6.0987905707672162e-04 0.0000000000000000e+00  6.8934557163065211e-05 -6.5312659712094033e-04 0.0000000000000000e+00  7.0984512528672223e-05 -6.9713380203689117e-04 0.0000000000000000e+00  7.2806345101196189e-05 -7.4165831717175519e-04 0.0000000000000000e+00  7.4516794595344481e-05 -7.8680154681669983e-04 0.0000000000000000e+00  7.6013750865456297e-05 -8.3232710893081923e-04 0.0000000000000000e+00  7.7391815747426495e-05 -8.7834769938924142e-04 0.0000000000000000e+00  7.8571792073015836e-05 -9.2463358236807380e-04 0.0000000000000000e+00  7.9624029384484235e-05 -9.7131707605454588e-04 0.0000000000000000e+00  8.0499780604011378e-05 -1.0181741217304477e-03 0.0000000000000000e+00  8.1249395309014060e-05 -1.0653332057038139e-03 0.0000000000000000e+00  8.1838586626028771e-05 -1.1125909180521548e-03 0.0000000000000000e+00  8.2300885212341967e-05 -1.1600772745887092e-03 0.0000000000000000e+00  8.2615817934592365e-05 -1.2076057179431147e-03 0.0000000000000000e+00  8.2798148480178594e-05 -1.2552855276194235e-03 0.0000000000000000e+00  8.2863918935890350e-05 -1.3029939033473820e-03 0.0000000000000000e+00  8.2796528811849654e-05 -1.3507759410531712e-03 0.0000000000000000e+00  8.2659694858976994e-05 -1.3985871181089878e-03 0.0000000000000000e+00  8.2379483662069357e-05 -1.4463861230809810e-03 0.0000000000000000e+00  8.2025784694813835e-05 -1.4942671700407502e-03 0.0000000000000000e+00  4.9122494766928526e-05 -1.5417128159721119e-03 0.0000000000000000e+00  -1.5132173707392471e-05 -1.5403150058693066e-03 0.0000000000000000e+00  -4.6488724988307282e-05 -1.4917499196133255e-03 0.0000000000000000e+00  -4.6061564088000660e-05 -1.4436654121029058e-03 0.0000000000000000e+00  -4.5699119401603057e-05 -1.3955509404003370e-03 0.0000000000000000e+00  -4.5429074987855411e-05 -1.3475093527838098e-03 0.0000000000000000e+00  -4.5223806703761209e-05 -1.2995003211624168e-03 0.0000000000000000e+00  -4.5114562229623184e-05 -1.2515568494233949e-03 0.0000000000000000e+00  -4.5035380279654573e-05 -1.2036934307559988e-03 0.0000000000000000e+00  -4.5069433484169280e-05 -1.1558908875503786e-03 0.0000000000000000e+00  -4.5117363632343605e-05 -1.1082618293427693e-03 0.0000000000000000e+00  -4.5276388004795189e-05 -1.0607281148425484e-03 0.0000000000000000e+00  -4.5414399476728839e-05 -1.0134288577674129e-03 0.0000000000000000e+00  -4.5676253676633323e-05 -9.6630282269938804e-04 0.0000000000000000e+00  -4.5877107679561158e-05 -9.1949372723307797e-04 0.0000000000000000e+00  -4.6212969247804274e-05 -8.7295347709300886e-04 0.0000000000000000e+00  -4.6436500092772491e-05 -8.2681880632052521e-04 0.0000000000000000e+00  -4.6814392595944099e-05 -7.8106890201802407e-04 0.0000000000000000e+00  -4.7020724914719595e-05 -7.3583374835461805e-04 0.0000000000000000e+00  -4.7399211704439283e-05 -6.9112273214245827e-04 0.0000000000000000e+00  -4.7531923342799391e-05 -6.4705808598847106e-04 0.0000000000000000e+00  -4.7854300906145175e-05 -6.0368072929442877e-04 0.0000000000000000e+00  -4.7836602092614184e-05 -5.6109892692016541e-04 0.0000000000000000e+00  -4.8029278401921956e-05 -5.1940028725455927e-04 0.0000000000000000e+00  -4.7809271022641344e-05 -4.7868980787643770e-04 0.0000000000000000e+00  -4.7742465770721360e-05 -4.3896331158254325e-04 0.0000000000000000e+00  -4.7547659504727309e-05 -4.0060237741483740e-04 0.0000000000000000e+00  -4.6919301311392628e-05 -3.6326834824958843e-04 0.0000000000000000e+00  -4.6327200315138831e-05 -3.2751686616966504e-04 0.0000000000000000e+00  -4.5367175005631603e-05 -2.9314456731576192e-04 0.0000000000000000e+00  -4.4366662759797735e-05 -2.6052270104970539e-04 0.0000000000000000e+00  -4.2979825551350781e-05 -2.2949978550377935e-04 0.0000000000000000e+00  -4.1533480919568326e-05 -2.0034828403671175e-04 0.0000000000000000e+00  -3.9476754933414243e-05 -1.7323059765433406e-04 0.0000000000000000e+00  -3.7700632238214949e-05 -1.4780062296188936e-04 0.0000000000000000e+00  -3.5701758872896979e-05 -1.2472040307134037e-04 0.0000000000000000e+00  -3.3078042072569669e-05 -1.0331142941522670e-04 0.0000000000000000e+00  -3.0554282744580061e-05 -8.4275371846803337e-05 0.0000000000000000e+00  -2.7657871507233658e-05 -6.7226936858365405e-05 0.0000000000000000e+00  -2.4848271538265316e-05 -5.2315017435431689e-05 0.0000000000000000e+00  -2.1561123295107135e-05 -3.9650272307010567e-05 0.0000000000000000e+00  -1.8718499867764002e-05 -2.8674218577566844e-05 0.0000000000000000e+00  -1.5872472637856671e-05 -1.9951577295425150e-05 0.0000000000000000e+00  -1.2632048194395384e-05 -1.2731221926029644e-05 0.0000000000000000e+00  -9.8081265030054145e-06 -7.3878128798549405e-06 0.0000000000000000e+00  -6.8497360071376120e-06 -3.7090606067924741e-06 0.0000000000000000e+00  -4.3634392775663928e-06 -1.3988134820691760e-06 0.0000000000000000e+00  -1.9127953087420056e-06 -4.1353143091476474e-07 0.0000000000000000e+00  -1.2360338124827314e-06 -5.9515470968578090e-08 0.0000000000000000e+00  1.8558921493924932e-05 -1.4689027647548836e-03 0.0000000000000000e+00  1.9780339785415083e-05 -1.3772465577676909e-03 0.0000000000000000e+00  1.9434095381361335e-05 -1.2277754539245247e-03 0.0000000000000000e+00  -2.7999626808849597e-06 -4.4594196071149929e-06 0.0000000000000000e+00  1.8371013147311972e-05 -1.1340924577478248e-03 0.0000000000000000e+00  -4.2965212124568419e-06 -1.4590566348168406e-05 0.0000000000000000e+00  1.7647540312457193e-05 -1.0392505278035758e-03 0.0000000000000000e+00  -5.9235787815862310e-06 -4.5616435867016279e-05 0.0000000000000000e+00  -5.9646930046626486e-06 -7.5254111192780564e-05 0.0000000000000000e+00  1.6543254714422115e-05 -9.4520691068467825e-04 0.0000000000000000e+00  -4.4998819182147827e-06 -1.8860447148792790e-04 0.0000000000000000e+00  1.3259681230260944e-05 -7.6093530543334975e-04 0.0000000000000000e+00  -6.0663255510923527e-06 -1.1216313627500048e-04 0.0000000000000000e+00  -2.2536191949098424e-06 -2.4622199448702677e-04 0.0000000000000000e+00  1.1142321843649990e-05 -6.7159414168259227e-04 0.0000000000000000e+00  1.5073035609584781e-05 -8.5230048405387951e-04 0.0000000000000000e+00  -7.5927670014200412e-08 -3.1195260188112366e-04 0.0000000000000000e+00  8.7744583266265912e-06 -5.8485133251368971e-04 0.0000000000000000e+00  1.6205408835254378e-06 -3.8081310321025201e-04 0.0000000000000000e+00  6.9945269680754377e-06 -5.0309020675049236e-04 0.0000000000000000e+00  4.1767583117061075e-06 -4.3828733963953030e-04 0.0000000000000000e+00  -4.9648850673477788e-06 -1.4658821021549636e-04 0.0000000000000000e+00  1.8547639757443006e-05 -1.3054031563602120e-03 0.0000000000000000e+00  -5.0118201293447810e-06 -2.7401114822017580e-05 0.0000000000000000e+00  -3.3094608218467588e-06 -1.4222499752540268e-03 0.0000000000000000e+00  -3.3367626448775833e-06 -1.6795391553042826e-06 0.0000000000000000e+00  -3.6700033986774158e-07 -1.0859577917125725e-03 0.0000000000000000e+00  5.3670458597346458e-08 -1.1811467875184043e-03 0.0000000000000000e+00  -8.4806839906585132e-07 -9.1340897436185501e-06 0.0000000000000000e+00  4.6097575885271972e-08 -5.9554624107134279e-05 0.0000000000000000e+00  -3.5079597486432345e-06 -8.0562272431696478e-04 0.0000000000000000e+00  -1.1160399424441970e-06 -9.9142341137213423e-04 0.0000000000000000e+00  8.1670724440095009e-06 -2.1677777933282205e-04 0.0000000000000000e+00  -5.0723416568194460e-06 -7.1517232256797388e-04 0.0000000000000000e+00  1.5814947121766437e-06 -9.4084320137403622e-05 0.0000000000000000e+00  1.1472033863574086e-05 -2.7919614390787206e-04 0.0000000000000000e+00  -6.8043872750386062e-06 -6.2703429184794040e-04 0.0000000000000000e+00  -2.1744747095044269e-06 -8.9785412663677432e-04 0.0000000000000000e+00  1.8009172126567187e-05 -3.4797986064561884e-04 0.0000000000000000e+00  -8.6314490339544176e-06 -5.4183004183119376e-04 0.0000000000000000e+00  -3.7759316490875155e-07 2.3403410254370435e-07 0.0000000000000000e+00  -7.7820600685377638e-07 2.3221400159728250e-07 0.0000000000000000e+00  3.2939749527820260e-05 -1.5069422924629567e-03 0.0000000000000000e+00  -5.3927