<?xml version="1.0"?>
<VTKFile type="UnstructuredGrid"  version="0.1"  >
<UnstructuredGrid>
<Piece  NumberOfPoints="1419" NumberOfCells="2698">
<Points>
<DataArray  type="Float64"  NumberOfComponents="3"  format="ascii">0 0 0  0 0.41 0  2.5 0 0  2.5 0.41 0  0.6 0.19 0  0.6 0.21 0  0.25 0.2 0  0.15 0.2 0  0.2489897948556636 0.21 0  0.2489897948556636 0.19 0  0.6 0.2 0  0 0.3807142857143437 0  0 0.3514285714286952 0  0 0.3221428571430699 0  0 0.29285714285744 0  0 0.2635714285718054 0  0 0.2342857142861561 0  0 0.2050000000005308 0  0 0.175714285714732 0  0 0.1464285714289574 0  0 0.1171428571431897 0  0 0.08785714285737878 0  0 0.05857142857161107 0  0 0.02928571428580012 0  0.03015443760436003 0 0  0.06140001986583606 0 0  0.09377624077125973 0 0  0.1273239957535082 0 0  0.1620856860351972 0 0  0.1981052433264291 0 0  0.235428184091502 0 0  0.2741016576309132 0 0  0.3141745521465447 0 0  0.3556974926295285 0 0  0.3987229542472677 0 0  0.4433053055141081 0 0  0.4895008759286886 0 0  0.5373680609405097 0 0  0.5869673343216626 0 0  0.6383613676634521 0 0  0.6916151138468254 0 0  0.7467958595648856 0 0  0.8039733463919316 0 0  0.8632198139502143 0 0  0.9246101326867038 0 0  0.9882218810934433 0 0  1.054135445558498 0 0  1.122434100542598 0 0  1.193204177141305 0 0  1.266535089879536 0 0  1.342519516046404 0 0  1.421253448503939 0 0  1.502836389106271 0 0  1.587371439758838 0 0  1.674965418777374 0 0  1.765729001825544 0 0  1.859776908880082 0 0  1.957227977487062 0 0  2.058205329869943 0 0  2.162836591189951 0 0  2.271253957290865 0 0  2.383594446803425 0 0  2.5 0.1024999999997612 0  2.5 0.2049999999994743 0  2.5 0.3074999999997183 0  2.383594446803656 0.41 0  2.271253957291315 0.41 0  2.162836591190598 0.41 0  2.058205329870775 0.41 0  1.957227977488067 0.41 0  1.859776908881246 0.41 0  1.765729001826854 0.41 0  1.674965418778818 0.41 0  1.58737143976041 0.41 0  1.502836389107956 0.41 0  1.421253448505726 0.41 0  1.342519516048286 0.41 0  1.266535089881505 0.41 0  1.193204177143353 0.41 0  1.122434100544716 0.41 0  1.05413544556068 0.41 0  0.9882218810956305 0.41 0  0.9246101326886647 0.41 0  0.8632198139519631 0.41 0  0.8039733463934788 0.41 0  0.7467958595662458 0.41 0  0.6916151138480078 0.41 0  0.6383613676644679 0.41 0  0.5869673343225223 0.41 0  0.5373680609412221 0.41 0  0.4895008759292634 0.41 0  0.4433053055145528 0.41 0  0.3987229542475914 0.41 0  0.3556974926297398 0.41 0  0.3141745521466497 0.41 0  0.2741016576310038 0.41 0  0.2354281840915826 0.41 0  0.1981052433265003 0.41 0  0.1620856860352591 0.41 0  0.1273239957535623 0.41 0  0.09377624077128965 0.41 0  0.06140001986584975 0.41 0  0.03015443760436654 0.41 0  0.2497468076502589 0.2050254481002335 0  0.2497468076502614 0.1949745518997913 0  0.2469965252529372 0.1829317073451959 0  0.2439893735792749 0.1762316384219906 0  0.2400332147834255 0.1700443375285386 0  0.2352133972704371 0.1645032867342007 0  0.2296339016332438 0.1597280261969788 0  0.2234150974217223 0.1558215752574715 0  0.2166911463437691 0.1528682099456123 0  0.2096071079204251 0.1509316448471593 0  0.2023158100364996 0.1500536585536553 0  0.194974551899914 0.1502531923497262 0  0.1877417105387872 0.1515259415822739 0  0.1807733240461124 0.153844448527136 0  0.1742197252835808 0.15715869474974 0  0.1682222986673531 0.1613971801805478 0  0.162910430003803 0.1664684656256651 0  0.1583987151779087 0.1722631454351573 0  0.1547844879126891 0.178656207771761 0  0.1521457199348551 0.1855097315605723 0  0.1505393388476355 0.1926758619366523 0  0.1505393388476328 0.2073241380633295 0  0.1521457199348437 0.2144902684393899 0  0.1547844879126531 0.221343792228163 0  0.1583987151778488 0.2277368545647528 0  0.1629104300036858 0.2335315343742052 0  0.1682222986671726 0.2386028198193036 0  0.1742197252833576 0.2428413052501257 0  0.1807733240458683 0.2461555514727623 0  0.1877417105384929 0.2484740584176516 0  0.1949745518995776 0.2497468076502398 0  0.202315810036185 0.2499463414463592 0  0.2096071079201568 0.2490683551528932 0  0.2166911463435495 0.2471317900544655 0  0.2234150974215506 0.2441784247426195 0  0.2296339016331197 0.2402719738031125 0  0.2352133972703547 0.2354967132658811 0  0.2400332147833751 0.2299556624715287 0  0.2439893735792577 0.2237683615780412 0  0.246996525252926 0.2170682926548348 0  0.25645809709277 0.21 0  0.2639263993298655 0.21 0  0.271394701566961 0.21 0  0.2788630038040554 0.21 0  0.2863313060411479 0.21 0  0.2937996082782405 0.21 0  0.301267910515333 0.21 0  0.3087362127524279 0.21 0  0.3162045149895234 0.21 0  0.3236728172265972 0.21 0  0.3311411194636928 0.21 0  0.3386094217007701 0.21 0  0.3460777239378666 0.21 0  0.3535460261749672 0.21 0  0.3610143284120516 0.21 0  0.3684826306491596 0.21 0  0.3759509328862226 0.21 0  0.383419235123329 0.21 0  0.3908875373604028 0.21 0  0.3983558395975142 0.21 0  0.4058241418345938 0.21 0  0.4132924440716992 0.21 0  0.4207607463087888 0.21 0  0.4282290485459029 0.21 0  0.4356973507830418 0.21 0  0.4431656530201649 0.21 0  0.4506339552573136 0.21 0  0.4581022574944306 0.21 0  0.4655705597315852 0.21 0  0.4730388619686996 0.21 0  0.480507164205851 0.21 0  0.4879754664429498 0.21 0  0.4954437686800938 0.21 0  0.502912070917267 0.21 0  0.5103803731544119 0.21 0  0.5178486753915261 0.21 0  0.5253169776286404 0.21 0  0.5327852798657868 0.21 0  0.5402535821029386 0.21 0  0.54772188434007 0.21 0  0.5551901865771842 0.21 0  0.5626584888143201 0.21 0  0.5701267910514778 0.21 0  0.5775950932886138 0.21 0  0.5850633955257281 0.21 0  0.5925316977628483 0.21 0  0.6 0.2050000000000054 0  0.6 0.1950000000000217 0  0.5925316977628897 0.19 0  0.5850633955257988 0.19 0  0.5775950932887378 0.19 0  0.5701267910515998 0.19 0  0.5626584888145268 0.19 0  0.5551901865773963 0.19 0  0.547721884340339 0.19 0  0.5402535821032429 0.19 0  0.5327852798661811 0.19 0  0.5253169776290537 0.19 0  0.5178486753919799 0.19 0  0.5103803731549078 0.19 0  0.502912070917822 0.19 0  0.4954437686807294 0.19 0  0.4879754664436223 0.19 0  0.4805071642065402 0.19 0  0.4730388619694271 0.19 0  0.4655705597323621 0.19 0  0.4581022574952563 0.19 0  0.4506339552581777 0.19 0  0.4431656530210671 0.19 0  0.4356973507839815 0.19 0  0.4282290485468779 0.19 0  0.4207607463097617 0.19 0  0.4132924440726327 0.19 0  0.4058241418354857 0.19 0  0.3983558395983636 0.19 0  0.3908875373612097 0.19 0  0.3834192351240934 0.19 0  0.3759509328869369 0.19 0  0.3684826306498175 0.19 0  0.361014328412667 0.19 0  0.3535460261755617 0.19 0  0.3460777239384295 0.19 0  0.3386094217012945 0.19 0  0.3311411194641595 0.19 0  0.3236728172270245 0.19 0  0.3162045149898895 0.19 0  0.3087362127527544 0.19 0  0.3012679105156187 0.19 0  0.2937996082784807 0.19 0  0.2863313060413428 0.19 0  0.2788630038042048 0.19 0  0.2713947015670686 0.19 0  0.2639263993299336 0.19 0  0.2564580970927985 0.19 0  0.2607803159922026 0.2000727136295815 0  0.5887803774232762 0.2001272386983733 0  0.5745072403740523 0.2002044435018727 0  0.5511891430099709 0.2001122610077113 0  0.2751288526855082 0.20000000000002 0  0.5365194309847112 0.1999999999999436 0  0.2894621222999649 0.1998691686390484 0  0.5215828265105155 0.1999999999999228 0  0.3127789816668748 0.1998657885438805 0  0.3274069683451451 0.2000000000000796 0  0.5066462220363641 0.199999999999908 0  0.3650630746574081 0.199866017807523 0  0.476773013087985 0.1999999999998713 0  0.3417402379596385 0.1998691686391011 0  0.3796850840047755 0.200000000000134 0  0.4618364086138087 0.1999999999998546 0  0.4917096175621762 0.1999999999998808 0  0.3946216884789568 0.2000000000001512 0  0.446899804139621 0.1999999999998389 0  0.4089549580935208 0.1998691686391595 0  0.4322718174608562 0.200127451265745 0  0.4201487168029707 0.1999966199048527 0  0.3528922713220932 0.2000185703532356 0  0.5633122436674589 0.1999814296467508 0  0.3006558810093873 0.1999966199048318 0  0.5815926498168407 0.1966545283159175 0  0.2677053789419034 0.1964246479135325 0  0.5290511287476175 0.1970915826863981 0  0.5439877332217911 0.197091582686394 0  0.2825131256993216 0.2035478995978015 0  0.3199386661080599 0.202908417313604 0  0.4842413153250809 0.1970915826863873 0  0.5141145242734466 0.1970915826863843 0  0.3722167817676917 0.2029084173136195 0  0.4693047108508938 0.1970915826863783 0  0.3348752705822316 0.202908417313609 0  0.3871533862418661 0.2029084173136212 0  0.4543681063767183 0.1970915826863795 0  0.4991779197992749 0.1970915826863902 0  0.4020059614928624 0.203547899597858 0  0.4394315019025246 0.1970915826863714 0  0.2550657455369551 0.2034088125358657 0  0.2548908499171161 0.1966940311614271 0  0.5946539510196798 0.2024302972968126 0  0.267698176732111 0.2039977513680092 0  0.4261685417851465 0.196409292431739 0  0.3590076176283495 0.196411355804271 0  0.5571672426447437 0.2036011176410121 0  0.3066757059912147 0.1964092924317024 0  0.594380730180568 0.1966558399668133 0  0.4842413153245942 0.2040749161535287 0  0.4693047108503577 0.2040749161535231 0  0.3871533862424271 0.1959250838464788 0  0.372246743208829 0.1959123236376545 0  0.5141145242731028 0.2040749161535395 0  0.4543681063761134 0.2040749161535186 0  0.4019979587101454 0.1959834479682427 0  0.4394608940728603 0.2040870543693135 0  0.5439623148931173 0.2040856076781014 0  0.5290511287473298 0.2040749161535501 0  0.4991779197988497 0.2040749161535382 0  0.3347912413592433 0.1959225448935183 0  0.3199680582793816 0.1959123018030061 0  0.2825051229162361 0.1959834479681729 0  0.3590471196690275 0.2036304442587945 0  0.5571594006495384 0.1963685282145804 0  0.3067669986803285 0.203627750582736 0  0.4262598344738712 0.2036568242185335 0  0.5814408164431408 0.2041285596160068 0  0.5688286748170428 0.1961819304477386 0  0.4145905603063645 0.2038180695522843 0  0.3473758401724931 0.2038180695522752 0  0.2950977245128307 0.2038180695522663 0  0.5688286748170693 0.203818069552238 0  0.2950977245127906 0.1961819304477774 0  0.3473758401723931 0.1961819304478349 0  0.4145905603061963 0.1961819304479011 0  0.2601812407614425 0.2056861609747042
[...]
<PointData  Vectors="f_40-0"> 
<DataArray  type="Float64"  Name="f_40-0"  NumberOfComponents="3" format="ascii">0.0000000000000000e+00 0.0000000000000000e+00 0.0000000000000000e+00  0.0000000000000000e+00 0.0000000000000000e+00 0.0000000000000000e+00  0.0000000000000000e+00 0.0000000000000000e+00 0.0000000000000000e+00  0.0000000000000000e+00 0.0000000000000000e+00 0.0000000000000000e+00  2.2258307616276979e-09 1.9169176099288879e-08 0.0000000000000000e+00  -2.4012241562364854e-09 1.5922809120590617e-08 0.0000000000000000e+00  0.0000000000000000e+00 0.0000000000000000e+00 0.0000000000000000e+00  0.0000000000000000e+00 0.0000000000000000e+00 0.0000000000000000e+00  0.0000000000000000e+00 0.0000000000000000e+00 0.0000000000000000e+00  0.0000000000000000e+00 0.0000000000000000e+00 0.0000000000000000e+00  -2.3541385054944196e-10 2.6143429039193918e-09 0.0000000000000000e+00  7.9591836734548405e-01 0.0000000000000000e+00 0.0000000000000000e+00  1.4693877550994523e+00 0.0000000000000000e+00 0.0000000000000000e+00  2.0204081632617479e+00 0.0000000000000000e+00 0.0000000000000000e+00  2.4489795918330071e+00 0.0000000000000000e+00 0.0000000000000000e+00  2.7551020408131754e+00 0.0000000000000000e+00 0.0000000000000000e+00  2.9387755102022344e+00 0.0000000000000000e+00 0.0000000000000000e+00  3.0000000000000004e+00 0.0000000000000000e+00 0.0000000000000000e+00  2.9387755102059474e+00 0.0000000000000000e+00 0.0000000000000000e+00  2.7551020408195543e+00 0.0000000000000000e+00 0.0000000000000000e+00  2.4489795918409065e+00 0.0000000000000000e+00 0.0000000000000000e+00  2.0204081632692521e+00 0.0000000000000000e+00 0.0000000000000000e+00  1.4693877551058563e+00 0.0000000000000000e+00 0.0000000000000000e+00  7.9591836734909216e-01 0.0000000000000000e+00 0.0000000000000000e+00  0.0000000000000000e+00 0.0000000000000000e+00 0.0000000000000000e+00  0.0000000000000000e+00 0.0000000000000000e+00 0.0000000000000000e+00  0.0000000000000000e+00 0.0000000000000000e+00 0.0000000000000000e+00  0.0000000000000000e+00 0.0000000000000000e+00 0.0000000000000000e+00  0.0000000000000000e+00 0.0000000000000000e+00 0.0000000000000000e+00  0.0000000000000000e+00 0.0000000000000000e+00 0.0000000000000000e+00  0.0000000000000000e+00 0.0000000000000000e+00 0.0000000000000000e+00  0.0000000000000000e+00 0.0000000000000000e+00 0.0000000000000000e+00  0.0000000000000000e+00 0.0000000000000000e+00 0.0000000000000000e+00  0.0000000000000000e+00 0.0000000000000000e+00 0.0000000000000000e+00  0.0000000000000000e+00 0.0000000000000000e+00 0.0000000000000000e+00  0.0000000000000000e+00 0.0000000000000000e+00 0.0000000000000000e+00  0.0000000000000000e+00 0.0000000000000000e+00 0.0000000000000000e+00  0.0000000000000000e+00 0.0000000000000000e+00 0.0000000000000000e+00  0.0000000000000000e+00 0.0000000000000000e+00 0.0000000000000000e+00  0.0000000000000000e+00 0.0000000000000000e+00 0.0000000000000000e+00  0.0000000000000000e+00 0.0000000000000000e+00 0.0000000000000000e+00  0.0000000000000000e+00 0.0000000000000000e+00 0.0000000000000000e+00  0.0000000000000000e+00 0.0000000000000000e+00 0.0000000000000000e+00  0.0000000000000000e+00 0.0000000000000000e+00 0.0000000000000000e+00  0.0000000000000000e+00 0.0000000000000000e+00 0.0000000000000000e+00  0.0000000000000000e+00 0.0000000000000000e+00 0.0000000000000000e+00  0.0000000000000000e+00 0.0000000000000000e+00 0.0000000000000000e+00  0.0000000000000000e+00 0.0000000000000000e+00 0.0000000000000000e+00  0.0000000000000000e+00 0.0000000000000000e+00 0.0000000000000000e+00  0.0000000000000000e+00 0.0000000000000000e+00 0.0000000000000000e+00  0.0000000000000000e+00 0.0000000000000000e+00 0.0000000000000000e+00  0.0000000000000000e+00 0.0000000000000000e+00 0.0000000000000000e+00  0.0000000000000000e+00 0.0000000000000000e+00 0.0000000000000000e+00  0.0000000000000000e+00 0.0000000000000000e+00 0.0000000000000000e+00  0.0000000000000000e+00 0.0000000000000000e+00 0.0000000000000000e+00  0.0000000000000000e+00 0.0000000000000000e+00 0.0000000000000000e+00  0.0000000000000000e+00 0.0000000000000000e+00 0.0000000000000000e+00  0.0000000000000000e+00 0.0000000000000000e+00 0.0000000000000000e+00  0.0000000000000000e+00 0.0000000000000000e+00 0.0000000000000000e+00  0.0000000000000000e+00 0.0000000000000000e+00 0.0000000000000000e+00  0.0000000000000000e+00 0.0000000000000000e+00 0.0000000000000000e+00  0.0000000000000000e+00 0.0000000000000000e+00 0.0000000000000000e+00  2.6635506717020467e+00 1.8864162927549361e-02 0.0000000000000000e+00  2.3248173270637369e+00 1.8909237203400545e-02 0.0000000000000000e+00  2.8346275038760060e+00 7.1603150246275116e-02 0.0000000000000000e+00  0.0000000000000000e+00 0.0000000000000000e+00 0.0000000000000000e+00  0.0000000000000000e+00 0.0000000000000000e+00 0.0000000000000000e+00  0.0000000000000000e+00 0.0000000000000000e+00 0.0000000000000000e+00  0.0000000000000000e+00 0.0000000000000000e+00 0.0000000000000000e+00  0.0000000000000000e+00 0.0000000000000000e+00 0.0000000000000000e+00  0.0000000000000000e+00 0.0000000000000000e+00 0.0000000000000000e+00  0.0000000000000000e+00 0.0000000000000000e+00 0.0000000000000000e+00  0.0000000000000000e+00 0.0000000000000000e+00 0.0000000000000000e+00  0.0000000000000000e+00 0.0000000000000000e+00 0.0000000000000000e+00  0.0000000000000000e+00 0.0000000000000000e+00 0.0000000000000000e+00  0.0000000000000000e+00 0.0000000000000000e+00 0.0000000000000000e+00  0.0000000000000000e+00 0.0000000000000000e+00 0.0000000000000000e+00  0.0000000000000000e+00 0.0000000000000000e+00 0.0000000000000000e+00  0.0000000000000000e+00 0.0000000000000000e+00 0.0000000000000000e+00  0.0000000000000000e+00 0.0000000000000000e+00 0.0000000000000000e+00  0.0000000000000000e+00 0.0000000000000000e+00 0.0000000000000000e+00  0.0000000000000000e+00 0.0000000000000000e+00 0.0000000000000000e+00  0.0000000000000000e+00 0.0000000000000000e+00 0.0000000000000000e+00  0.0000000000000000e+00 0.0000000000000000e+00 0.0000000000000000e+00  0.0000000000000000e+00 0.0000000000000000e+00 0.0000000000000000e+00  0.0000000000000000e+00 0.0000000000000000e+00 0.0000000000000000e+00  0.0000000000000000e+00 0.0000000000000000e+00 0.0000000000000000e+00  0.0000000000000000e+00 0.0000000000000000e+00 0.0000000000000000e+00  0.0000000000000000e+00 0.0000000000000000e+00 0.0000000000000000e+00  0.0000000000000000e+00 0.0000000000000000e+00 0.0000000000000000e+00  0.0000000000000000e+00 0.0000000000000000e+00 0.0000000000000000e+00  0.0000000000000000e+00 0.0000000000000000e+00 0.0000000000000000e+00  0.0000000000000000e+00 0.0000000000000000e+00 0.0000000000000000e+00  0.0000000000000000e+00 0.0000000000000000e+00 0.0000000000000000e+00  0.0000000000000000e+00 0.0000000000000000e+00 0.0000000000000000e+00  0.0000000000000000e+00 0.0000000000000000e+00 0.0000000000000000e+00  0.0000000000000000e+00 0.0000000000000000e+00 0.0000000000000000e+00  0.0000000000000000e+00 0.0000000000000000e+00 0.0000000000000000e+00  0.0000000000000000e+00 0.0000000000000000e+00 0.0000000000000000e+00  0.0000000000000000e+00 0.0000000000000000e+00 0.0000000000000000e+00  0.0000000000000000e+00 0.0000000000000000e+00 0.0000000000000000e+00  0.0000000000000000e+00 0.0000000000000000e+00 0.0000000000000000e+00  0.0000000000000000e+00 0.0000000000000000e+00 0.0000000000000000e+00  0.0000000000000000e+00 0.0000000000000000e+00 0.0000000000000000e+00  0.0000000000000000e+00 0.0000000000000000e+00 0.0000000000000000e+00  0.0000000000000000e+00 0.0000000000000000e+00 0.0000000000000000e+00  0.0000000000000000e+00 0.0000000000000000e+00 0.0000000000000000e+00  0.0000000000000000e+00 0.0000000000000000e+00 0.0000000000000000e+00  0.0000000000000000e+00 0.0000000000000000e+00 0.0000000000000000e+00  0.0000000000000000e+00 0.0000000000000000e+00 0.0000000000000000e+00  0.0000000000000000e+00 0.0000000000000000e+00 0.0000000000000000e+00  0.0000000000000000e+00 0.0000000000000000e+00 0.0000000000000000e+00  0.0000000000000000e+00 0.0000000000000000e+00 0.0000000000000000e+00  0.0000000000000000e+00 0.0000000000000000e+00 0.0000000000000000e+00  0.0000000000000000e+00 0.0000000000000000e+00 0.0000000000000000e+00  0.0000000000000000e+00 0.0000000000000000e+00 0.0000000000000000e+00  0.0000000000000000e+00 0.0000000000000000e+00 0.0000000000000000e+00  0.0000000000000000e+00 0.0000000000000000e+00 0.0000000000000000e+00  0.0000000000000000e+00 0.0000000000000000e+00 0.0000000000000000e+00  0.0000000000000000e+00 0.0000000000000000e+00 0.0000000000000000e+00  0.0000000000000000e+00 0.0000000000000000e+00 0.0000000000000000e+00  0.0000000000000000e+00 0.0000000000000000e+00 0.0000000000000000e+00  0.0000000000000000e+00 0.0000000000000000e+00 0.0000000000000000e+00  0.0000000000000000e+00 0.0000000000000000e+00 0.0000000000000000e+00  0.0000000000000000e+00 0.0000000000000000e+00 0.0000000000000000e+00  0.0000000000000000e+00 0.0000000000000000e+00 0.0000000000000000e+00  0.0000000000000000e+00 0.0000000000000000e+00 0.0000000000000000e+00  0.0000000000000000e+00 0.0000000000000000e+00 0.0000000000000000e+00  0.0000000000000000e+00 0.0000000000000000e+00 0.0000000000000000e+00  0.0000000000000000e+00 0.0000000000000000e+00 0.0000000000000000e+00  0.0000000000000000e+00 0.0000000000000000e+00 0.0000000000000000e+00  0.0000000000000000e+00 0.0000000000000000e+00 0.0000000000000000e+00  0.0000000000000000e+00 0.0000000000000000e+00 0.0000000000000000e+00  0.0000000000000000e+00 0.0000000000000000e+00 0.0000000000000000e+00  0.0000000000000000e+00 0.0000000000000000e+00 0.0000000000000000e+00  0.0000000000000000e+00 0.0000000000000000e+00 0.0000000000000000e+00  0.0000000000000000e+00 0.0000000000000000e+00 0.0000000000000000e+00  0.0000000000000000e+00 0.0000000000000000e+00 0.0000000000000000e+00  0.0000000000000000e+00 0.0000000000000000e+00 0.0000000000000000e+00  0.0000000000000000e+00 0.0000000000000000e+00 0.0000000000000000e+00  0.0000000000000000e+00 0.0000000000000000e+00 0.0000000000000000e+00  0.0000000000000000e+00 0.0000000000000000e+00 0.0000000000000000e+00  0.0000000000000000e+00 0.0000000000000000e+00 0.0000000000000000e+00  9.9993764811242729e-12 -1.0490560035824188e-10 0.0000000000000000e+00  -1.9735931815300488e-11 -1.2651185103563967e-10 0.0000000000000000e+00  -2.5511362812155208e-11 -1.4403482375093652e-10 0.0000000000000000e+00  -4.8071214321128153e-11 -1.2921412591365545e-10 0.0000000000000000e+00  -4.7408770584995980e-11 -1.1729060305596296e-10 0.0000000000000000e+00  -7.5307984980494502e-11 -1.2264971561646342e-10 0.0000000000000000e+00  -6.3584535905865938e-11 -1.7416829255735512e-11 0.0000000000000000e+00  -7.8641997424365932e-11 -6.1678180577714918e-11 0.0000000000000000e+00  -9.5333478129339046e-11 -7.1078609359078875e-12 0.0000000000000000e+00  -8.9333297701390882e-11 2.1073637164695305e-11 0.0000000000000000e+00  -1.1047881910976996e-10 5.7087277211784970e-11 0.0000000000000000e+00  -1.0378259658887455e-10 9.3078381637013385e-11 0.0000000000000000e+00  -1.2960709374003975e-10 1.3453378237607821e-10 0.0000000000000000e+00  -1.0899035770246203e-10 1.6762862655652757e-10 0.0000000000000000e+00  -1.3157007445149580e-10 2.2245709713575189e-10 0.0000000000000000e+00  -1.3591526736103918e-10 2.4764152820649358e-10 0.0000000000000000e+00  -1.3534402594956311e-10 2.9987872532214426e-10 0.0000000000000000e+00  -1.4644372292154096e-10 3.3444942820512241e-10 0.0000000000000000e+00  -1.4554161692063121e-10 3.8079519846484459e-10 0.0000000000000000e+00  -1.5684111974368413e-10 4.2607026994327125e-10 0.0000000000000000e+00  -1.5682716058119998e-10 4.6972295943420997e-10 0.0000000000000000e+00  -1.7234818959654026e-10 5.6003990691849825e-10 0.0000000000000000e+00  -1.5111845672629467e-10 4.4547587789032522e-10 0.0000000000000000e+00  -1.7729605798655367e-10 6.4716061580358530e-10 0.0000000000000000e+00  -1.7803393400417288e-10 6.4618668888235932e-10 0.0000000000000000e+00  -1.8141506481477350e-10 7.0864333765697962e-10 0.0000000000000000e+00  -1.8602701284722300e-10 7.3653318357259559e-10 0.0000000000000000e+00  -1.8978989745899242e-10 7.9018671175979446e-10 0.0000000000000000e+00  -1.9427933803469327e-10 8.3271892379908912e-10 0.0000000000000000e+00  -1.9831791135708879e-10 8.7298922089467663e-10 0.0000000000000000e+00  -2.0290268785641408e-10 9.2409360114378272e-10 0.0000000000000000e+00  -2.0714922471708041e-10 9.6837676604174701e-10 0.0000000000000000e+00  -2.1183646788444263e-10 1.0066995783588110e-09 0.0000000000000000e+00  -2.1667069301391451e-10 1.0718553741569986e-09 0.0000000000000000e+00  -2.2145010164192090e-10 1.1129268633613794e-09 0.0000000000000000e+00  -2.2669485374339494e-10 1.1713764424026629e-09 0.0000000000000000e+00  -2.3205128624715768e-10 1.2236573283650512e-09 0.0000000000000000e+00  -2.3779005619335160e-10 1.2838357110042884e-09 0.0000000000000000e+00  -2.4455312572052468e-10 1.3642818634397933e-09 0.0000000000000000e+00  -2.5079528895126326e-10 1.4338298443034494e-09 0.0000000000000000e+00  -2.6522904247954046e-10 1.6272060237933554e-09 0.0000000000000000e+00  -2.4250743138014403e-10 1.1122560032238029e-09 0.0000000000000000e+00  -2.8690539522258030e-10 1.9032304746458381e-09 0.0000000000000000e+00  -2.9828653846286702e-10 2.0083237661610225e-09 0.0000000000000000e+00  -3.0911227907951585e-10 1.9605244050379323e-09 0.0000000000000000e+00  -2.4082037908893277e-10 2.7628668738003605e-09 0.0000000000000000e+00  -2.4500392605419650e-10 2.2345898347885747e-09 0.0000000000000000e+00  -1.9402888872205074e-10 2.8219910409276576e-09 0.0000000000000000e+00  -1.9571013772881936e-10 2.5710354476044048e-09 0.0000000000000000e+00  -1.1596036188755141e-10 2.1089338964190372e-09 0.0000000000000000e+00  -1.4427981539985329e-10 1.8368308431255700e-09 0.0000000000000000e+00  -1.3461369227438222e-10 1.9421155432784244e-09 0.0000000000000000e+00  -1.6046064995189297e-10 1.1370983539052322e-09 0.0000000000000000e+00  -1.3673478540147466e-10 1.6460840193549928e-09 0.0000000000000000e+00  -1.4345739817021035e-10 1.3546538980946799e-09 0.0000000000000000e+00  -1.3895684077295824e-10 1.3147886176970291e-09 0.0000000000000000e+00  -1.3572945345751610e-10 1.2479531109123850e-09 0.0000000000000000e+00  -1.3184805448632323e-10 1.1899187825767465e-09 0.0000000000000000e+00  -1.2781436122296351e-10 1.1334187780535279e-09 0.0000000000000000e+00  -1.2324390246901342e-10 1.0844916863952914e-09 0.0000000000000000e+00  -1.1878222849277297e-10 1.0369926434618978e-09 0.0000000000000000e+00  -1.1371308649346054e-10 9.9199239611358303e-10 0.0000000000000000e+00  -1.0918573223492634e-10 9.4747261805277912e-10 0.0000000000000000e+00  -1.0355275143216353e-10 9.0466362949182190e-10 0.0000000000000000e+00  -9.9177945050807020e-11 8.5990392576272960e-10 0.0000000000000000e+00  -9.2956140150480299e-11 8.1809809241496369e-10 0.0000000000000000e+00  -8.8818333063855006e-11 7.7698815160568811e-10 0.0000000000000000e+00  -8.1995421937000899e-11 7.3617218568134667e-10 0.0000000000000000e+00  -7.8276316956448605e-11 6.9619857044543921e-10 0.0000000000000000e+00  -7.1688092362468616e-11 6.4685098300308781e-10 0.0000000000000000e+00  -6.2359428671984247e-11 6.5595826611024575e-10 0.0000000000000000e+00  -7.1260846952312403e-11 4.7078109843588205e-10 0.0000000000000000e+00  -4.7478546668557668e-11 5.7688409664066220e-10 0.0000000000000000e+00  -4.8651282769027196e-11 5.0953567847973051e-10 0.0000000000000000e+00  -4.1167697113769892e-11 4.5488294800311625e-10 0.0000000000000000e+00  -3.7764707154020963e-11 4.2176326619516780e-10 0.0000000000000000e+00  -3.0571965639886295e-11 3.6380092624865499e-10 0.0000000000000000e+00  -2.7972871057754078e-11 3.3075194775267070e-10 0.0000000000000000e+00  -2.0087233507346266e-11 2.7447228340002888e-10 0.0000000000000000e+00  -1.7618835015039639e-11 2.4697314911024555e-10 0.0000000000000000e+00  -2.7121771531900751e-11 1.8440179867767616e-10 0.0000000000000000e+00  -1.4813369410432862e-12 1.5812825803233265e-10 0.0000000000000000e+00  -8.9918156205047401e-12 1.0475154716204793e-10 0.0000000000000000e+00  -6.9842822292685029e-13 7.2073295500826827e-11 0.0000000000000000e+00  -3.0083193178899972e-12 3.1949263958062827e-11 0.0000000000000000e+00  6.3145549118171988e-12 -3.3120428349397525e-12 0.0000000000000000e+00  -6.7686245221027224e-13 -4.4978212331388223e-11 0.0000000000000000e+00  -4.9493458706833896e-12 -2.9840889626127901e-12 0.0000000000000000e+00  1.4705934469684473e-11 -1.0338604200344980e-10 0.0000000000000000e+00  4.5011922379610482e-13 -1.1187170429506132e-10 0.0000000000000000e+00  9.2815623631896498e-12 -1.2613831858293417e-10 0.0000000000000000e+00  -4.0556570913906925e-12 -1.2383180514910771e-10 0.0000000000000000e+00  3.9718749084267855e-12 -1.1207738477685088e-10 0.0000000000000000e+00  -1.3901204902879425e-11 -1.1259569378068891e-10 0.0000000000000000e+00  -8.5193875767133426e-12 -2.4637314393497991e-11 0.0000000000000000e+00  -2.0725606554480417e-10 9.0070468182232021e-10 0.0000000000000000e+00  -2.0864813254292750e-10 9.5084072923366404e-10 0.0000000000000000e+00  -1.9282957554808278e-10 8.1598776322402737e-10 0.0000000000000000e+00  -1.7121953913130495e-11 -2.0466811560779150e-11 0.0000000000000000e+00  -1.8328597642351169e-10 7.4813951908731279e-10 0.0000000000000000e+00  -2.6057213232957488e-11 -2.2835503354392375e-12 0.0000000000000000e+00  -1.7383558255573877e-10 6.9912855041397422e-10 0.0000000000000000e+00  -4.0775450393741698e-11 5.2232052877606472e-11 0.0000000000000000e+00  -5.0273018731136169e-11 9.4406417135625703e-11 0.0000000000000000e+00  -1.6441682779313765e-10 6.5367004127273302e-10 0.0000000000000000e+00  -7.4051285821675070e-11 2.1542598699251093e-10 0.0000000000000000e+00  -1.4557129216302698e-10 5.6605036762481800e-10 0.0000000000000000e+00  -5.9213948625338539e-11 1.3837404331005446e-10 0.0000000000000000e+00  -8.3580293730233163e-11 2.6303277586387944e-10 0.0000000000000000e+00  -1.3612698372248309e-10 5.2217192899123017e-10 0.0000000000000000e+00  -1.5499509236525211e-10 6.0946747138658607e-10 0.0000000000000000e+00  -9.3179245527596932e-11 3.1230049836175660e-10 0.0000000000000000e+00  -1.2669662589944373e-10 4.7759467805342054e-10 0.0000000000000000e+00  -1.0227096713939382e-10 3.6305781891979636e-10 0.0000000000000000e+00  -1.1773802109441146e-10 4.3661177286535977e-10 0.0000000000000000e+00  -1.0811504759711732e-10 3.2450798598951384e-10 0.0000000000000000e+00  -6.5711527746579896e-11 1.7371249089509531e-10 0.0000000000000000e+00  -1.9807759933827706e-10 5.5102031569083207e-10 0.0000000000000000e+00  -3.2951269388171268e-11 6.2353863340934804e-11 0.0000000000000000e+00  -2.2273325362823677e-10 3.4942217102282922e-10 0.0000000000000000e+00  -1.1082927846837486e-11 4.0707753353702038e-11 0.0000000000000000e+00  -1.7934956330995305e-10 3.7503825805285761e-10 0.0000000000000000e+00  -1.8931736800896664e-10 3.7950695340369031e-10 0.0000000000000000e+00  -2.3409173125353603e-11 5.5968231657072827e-11 0.0000000000000000e+00  -4.4607565895038715e-11 1.1338936675881759e-10 0.0000000000000000e+00  -1.4991271186966835e-10 3.5284587313615121e-10 0.0000000000000000e+00  -1.6940768203654826e-10 3.7183229149920371e-10 0.0000000000000000e+00  -7.6445890557936190e-11 2.0349669145701933e-10 0.0000000000000000e+00  -1.4022961548736557e-10 3.3973687947904043e-10 0.0000000000000000e+00  -5.3348475168701658e-11 1.3961755558430058e-10 0.0000000000000000e+00  -8.5389225168067514e-11 2.2875118695484274e-10 0.0000000000000000e+00  -1.3058491464310926e-10 3.2371742112002254e-10 0.0000000000000000e+00  -1.5962712105738354e-10 3.6372983543655835e-10 0.0000000000000000e+00  -9.6280490029309608e-11 2.5395323471598575e-10 0.0000000000000000e+00  -1.2075473951748380e-10 3.0687268177507075e-10 0.0000000000000000e+00  -7.4194146650246680e-12 7.0424893511683343e-12 0.0000000000000000e+00  -2.7749234032596143e-12 1.1666790747813967e-11 0.0000000000000000e+00  -2.8992428355213710e-10 5.9654110446249809e-10 0.0000000000000000e+00  -1.5261590178533104e-11 3.6283921390802241e-11 0.00000000000000