<?xml version="1.0"?>
<VTKFile type="UnstructuredGrid"  version="0.1"  >
<UnstructuredGrid>
<Piece  NumberOfPoints="1419" NumberOfCells="2698">
<Points>
<DataArray  type="Float64"  NumberOfComponents="3"  format="ascii">0 0 0  0 0.41 0  2.5 0 0  2.5 0.41 0  0.6 0.19 0  0.6 0.21 0  0.25 0.2 0  0.15 0.2 0  0.2489897948556636 0.21 0  0.2489897948556636 0.19 0  0.6 0.2 0  0 0.3807142857143437 0  0 0.3514285714286952 0  0 0.3221428571430699 0  0 0.29285714285744 0  0 0.2635714285718054 0  0 0.2342857142861561 0  0 0.2050000000005308 0  0 0.175714285714732 0  0 0.1464285714289574 0  0 0.1171428571431897 0  0 0.08785714285737878 0  0 0.05857142857161107 0  0 0.02928571428580012 0  0.03015443760436003 0 0  0.06140001986583606 0 0  0.09377624077125973 0 0  0.1273239957535082 0 0  0.1620856860351972 0 0  0.1981052433264291 0 0  0.235428184091502 0 0  0.2741016576309132 0 0  0.3141745521465447 0 0  0.3556974926295285 0 0  0.3987229542472677 0 0  0.4433053055141081 0 0  0.4895008759286886 0 0  0.5373680609405097 0 0  0.5869673343216626 0 0  0.6383613676634521 0 0  0.6916151138468254 0 0  0.7467958595648856 0 0  0.8039733463919316 0 0  0.8632198139502143 0 0  0.9246101326867038 0 0  0.9882218810934433 0 0  1.054135445558498 0 0  1.122434100542598 0 0  1.193204177141305 0 0  1.266535089879536 0 0  1.342519516046404 0 0  1.421253448503939 0 0  1.502836389106271 0 0  1.587371439758838 0 0  1.674965418777374 0 0  1.765729001825544 0 0  1.859776908880082 0 0  1.957227977487062 0 0  2.058205329869943 0 0  2.162836591189951 0 0  2.271253957290865 0 0  2.383594446803425 0 0  2.5 0.1024999999997612 0  2.5 0.2049999999994743 0  2.5 0.3074999999997183 0  2.383594446803656 0.41 0  2.271253957291315 0.41 0  2.162836591190598 0.41 0  2.058205329870775 0.41 0  1.957227977488067 0.41 0  1.859776908881246 0.41 0  1.765729001826854 0.41 0  1.674965418778818 0.41 0  1.58737143976041 0.41 0  1.502836389107956 0.41 0  1.421253448505726 0.41 0  1.342519516048286 0.41 0  1.266535089881505 0.41 0  1.193204177143353 0.41 0  1.122434100544716 0.41 0  1.05413544556068 0.41 0  0.9882218810956305 0.41 0  0.9246101326886647 0.41 0  0.8632198139519631 0.41 0  0.8039733463934788 0.41 0  0.7467958595662458 0.41 0  0.6916151138480078 0.41 0  0.6383613676644679 0.41 0  0.5869673343225223 0.41 0  0.5373680609412221 0.41 0  0.4895008759292634 0.41 0  0.4433053055145528 0.41 0  0.3987229542475914 0.41 0  0.3556974926297398 0.41 0  0.3141745521466497 0.41 0  0.2741016576310038 0.41 0  0.2354281840915826 0.41 0  0.1981052433265003 0.41 0  0.1620856860352591 0.41 0  0.1273239957535623 0.41 0  0.09377624077128965 0.41 0  0.06140001986584975 0.41 0  0.03015443760436654 0.41 0  0.2497468076502589 0.2050254481002335 0  0.2497468076502614 0.1949745518997913 0  0.2469965252529372 0.1829317073451959 0  0.2439893735792749 0.1762316384219906 0  0.2400332147834255 0.1700443375285386 0  0.2352133972704371 0.1645032867342007 0  0.2296339016332438 0.1597280261969788 0  0.2234150974217223 0.1558215752574715 0  0.2166911463437691 0.1528682099456123 0  0.2096071079204251 0.1509316448471593 0  0.2023158100364996 0.1500536585536553 0  0.194974551899914 0.1502531923497262 0  0.1877417105387872 0.1515259415822739 0  0.1807733240461124 0.153844448527136 0  0.1742197252835808 0.15715869474974 0  0.1682222986673531 0.1613971801805478 0  0.162910430003803 0.1664684656256651 0  0.1583987151779087 0.1722631454351573 0  0.1547844879126891 0.178656207771761 0  0.1521457199348551 0.1855097315605723 0  0.1505393388476355 0.1926758619366523 0  0.1505393388476328 0.2073241380633295 0  0.1521457199348437 0.2144902684393899 0  0.1547844879126531 0.221343792228163 0  0.1583987151778488 0.2277368545647528 0  0.1629104300036858 0.2335315343742052 0  0.1682222986671726 0.2386028198193036 0  0.1742197252833576 0.2428413052501257 0  0.1807733240458683 0.2461555514727623 0  0.1877417105384929 0.2484740584176516 0  0.1949745518995776 0.2497468076502398 0  0.202315810036185 0.2499463414463592 0  0.2096071079201568 0.2490683551528932 0  0.2166911463435495 0.2471317900544655 0  0.2234150974215506 0.2441784247426195 0  0.2296339016331197 0.2402719738031125 0  0.2352133972703547 0.2354967132658811 0  0.2400332147833751 0.2299556624715287 0  0.2439893735792577 0.2237683615780412 0  0.246996525252926 0.2170682926548348 0  0.25645809709277 0.21 0  0.2639263993298655 0.21 0  0.271394701566961 0.21 0  0.2788630038040554 0.21 0  0.2863313060411479 0.21 0  0.2937996082782405 0.21 0  0.301267910515333 0.21 0  0.3087362127524279 0.21 0  0.3162045149895234 0.21 0  0.3236728172265972 0.21 0  0.3311411194636928 0.21 0  0.3386094217007701 0.21 0  0.3460777239378666 0.21 0  0.3535460261749672 0.21 0  0.3610143284120516 0.21 0  0.3684826306491596 0.21 0  0.3759509328862226 0.21 0  0.383419235123329 0.21 0  0.3908875373604028 0.21 0  0.3983558395975142 0.21 0  0.4058241418345938 0.21 0  0.4132924440716992 0.21 0  0.4207607463087888 0.21 0  0.4282290485459029 0.21 0  0.4356973507830418 0.21 0  0.4431656530201649 0.21 0  0.4506339552573136 0.21 0  0.4581022574944306 0.21 0  0.4655705597315852 0.21 0  0.4730388619686996 0.21 0  0.480507164205851 0.21 0  0.4879754664429498 0.21 0  0.4954437686800938 0.21 0  0.502912070917267 0.21 0  0.5103803731544119 0.21 0  0.5178486753915261 0.21 0  0.5253169776286404 0.21 0  0.5327852798657868 0.21 0  0.5402535821029386 0.21 0  0.54772188434007 0.21 0  0.5551901865771842 0.21 0  0.5626584888143201 0.21 0  0.5701267910514778 0.21 0  0.5775950932886138 0.21 0  0.5850633955257281 0.21 0  0.5925316977628483 0.21 0  0.6 0.2050000000000054 0  0.6 0.1950000000000217 0  0.5925316977628897 0.19 0  0.5850633955257988 0.19 0  0.5775950932887378 0.19 0  0.5701267910515998 0.19 0  0.5626584888145268 0.19 0  0.5551901865773963 0.19 0  0.547721884340339 0.19 0  0.5402535821032429 0.19 0  0.5327852798661811 0.19 0  0.5253169776290537 0.19 0  0.5178486753919799 0.19 0  0.5103803731549078 0.19 0  0.502912070917822 0.19 0  0.4954437686807294 0.19 0  0.4879754664436223 0.19 0  0.4805071642065402 0.19 0  0.4730388619694271 0.19 0  0.4655705597323621 0.19 0  0.4581022574952563 0.19 0  0.4506339552581777 0.19 0  0.4431656530210671 0.19 0  0.4356973507839815 0.19 0  0.4282290485468779 0.19 0  0.4207607463097617 0.19 0  0.4132924440726327 0.19 0  0.4058241418354857 0.19 0  0.3983558395983636 0.19 0  0.3908875373612097 0.19 0  0.3834192351240934 0.19 0  0.3759509328869369 0.19 0  0.3684826306498175 0.19 0  0.361014328412667 0.19 0  0.3535460261755617 0.19 0  0.3460777239384295 0.19 0  0.3386094217012945 0.19 0  0.3311411194641595 0.19 0  0.3236728172270245 0.19 0  0.3162045149898895 0.19 0  0.3087362127527544 0.19 0  0.3012679105156187 0.19 0  0.2937996082784807 0.19 0  0.2863313060413428 0.19 0  0.2788630038042048 0.19 0  0.2713947015670686 0.19 0  0.2639263993299336 0.19 0  0.2564580970927985 0.19 0  0.2607803159922026 0.2000727136295815 0  0.5887803774232762 0.2001272386983733 0  0.5745072403740523 0.2002044435018727 0  0.5511891430099709 0.2001122610077113 0  0.2751288526855082 0.20000000000002 0  0.5365194309847112 0.1999999999999436 0  0.2894621222999649 0.1998691686390484 0  0.5215828265105155 0.1999999999999228 0  0.3127789816668748 0.1998657885438805 0  0.3274069683451451 0.2000000000000796 0  0.5066462220363641 0.199999999999908 0  0.3650630746574081 0.199866017807523 0  0.476773013087985 0.1999999999998713 0  0.3417402379596385 0.1998691686391011 0  0.3796850840047755 0.200000000000134 0  0.4618364086138087 0.1999999999998546 0  0.4917096175621762 0.1999999999998808 0  0.3946216884789568 0.2000000000001512 0  0.446899804139621 0.1999999999998389 0  0.4089549580935208 0.1998691686391595 0  0.4322718174608562 0.200127451265745 0  0.4201487168029707 0.1999966199048527 0  0.3528922713220932 0.2000185703532356 0  0.5633122436674589 0.1999814296467508 0  0.3006558810093873 0.1999966199048318 0  0.5815926498168407 0.1966545283159175 0  0.2677053789419034 0.1964246479135325 0  0.5290511287476175 0.1970915826863981 0  0.5439877332217911 0.197091582686394 0  0.2825131256993216 0.2035478995978015 0  0.3199386661080599 0.202908417313604 0  0.4842413153250809 0.1970915826863873 0  0.5141145242734466 0.1970915826863843 0  0.3722167817676917 0.2029084173136195 0  0.4693047108508938 0.1970915826863783 0  0.3348752705822316 0.202908417313609 0  0.3871533862418661 0.2029084173136212 0  0.4543681063767183 0.1970915826863795 0  0.4991779197992749 0.1970915826863902 0  0.4020059614928624 0.203547899597858 0  0.4394315019025246 0.1970915826863714 0  0.2550657455369551 0.2034088125358657 0  0.2548908499171161 0.1966940311614271 0  0.5946539510196798 0.2024302972968126 0  0.267698176732111 0.2039977513680092 0  0.4261685417851465 0.196409292431739 0  0.3590076176283495 0.196411355804271 0  0.5571672426447437 0.2036011176410121 0  0.3066757059912147 0.1964092924317024 0  0.594380730180568 0.1966558399668133 0  0.4842413153245942 0.2040749161535287 0  0.4693047108503577 0.2040749161535231 0  0.3871533862424271 0.1959250838464788 0  0.372246743208829 0.1959123236376545 0  0.5141145242731028 0.2040749161535395 0  0.4543681063761134 0.2040749161535186 0  0.4019979587101454 0.1959834479682427 0  0.4394608940728603 0.2040870543693135 0  0.5439623148931173 0.2040856076781014 0  0.5290511287473298 0.2040749161535501 0  0.4991779197988497 0.2040749161535382 0  0.3347912413592433 0.1959225448935183 0  0.3199680582793816 0.1959123018030061 0  0.2825051229162361 0.1959834479681729 0  0.3590471196690275 0.2036304442587945 0  0.5571594006495384 0.1963685282145804 0  0.3067669986803285 0.203627750582736 0  0.4262598344738712 0.2036568242185335 0  0.5814408164431408 0.2041285596160068 0  0.5688286748170428 0.1961819304477386 0  0.4145905603063645 0.2038180695522843 0  0.3473758401724931 0.2038180695522752 0  0.2950977245128307 0.2038180695522663 0  0.5688286748170693 0.203818069552238 0  0.2950977245127906 0.1961819304477774 0  0.3473758401723931 0.1961819304478349 0  0.4145905603061963 0.1961819304479011 0  0.2601812407614425 0.2056861609747042
[...]
<PointData  Vectors="f_40-0"> 
<DataArray  type="Float64"  Name="f_40-0"  NumberOfComponents="3" format="ascii">0.0000000000000000e+00 0.0000000000000000e+00 0.0000000000000000e+00  0.0000000000000000e+00 0.0000000000000000e+00 0.0000000000000000e+00  0.0000000000000000e+00 0.0000000000000000e+00 0.0000000000000000e+00  0.0000000000000000e+00 0.0000000000000000e+00 0.0000000000000000e+00  2.4019946024165458e-09 1.8109560664566652e-08 0.0000000000000000e+00  -2.1644868295794097e-09 1.4875066967041524e-08 0.0000000000000000e+00  0.0000000000000000e+00 0.0000000000000000e+00 0.0000000000000000e+00  0.0000000000000000e+00 0.0000000000000000e+00 0.0000000000000000e+00  0.0000000000000000e+00 0.0000000000000000e+00 0.0000000000000000e+00  0.0000000000000000e+00 0.0000000000000000e+00 0.0000000000000000e+00  -2.8940951060061528e-11 1.5606461994081469e-09 0.0000000000000000e+00  7.9591836734548405e-01 0.0000000000000000e+00 0.0000000000000000e+00  1.4693877550994523e+00 0.0000000000000000e+00 0.0000000000000000e+00  2.0204081632617479e+00 0.0000000000000000e+00 0.0000000000000000e+00  2.4489795918330071e+00 0.0000000000000000e+00 0.0000000000000000e+00  2.7551020408131754e+00 0.0000000000000000e+00 0.0000000000000000e+00  2.9387755102022344e+00 0.0000000000000000e+00 0.0000000000000000e+00  3.0000000000000004e+00 0.0000000000000000e+00 0.0000000000000000e+00  2.9387755102059474e+00 0.0000000000000000e+00 0.0000000000000000e+00  2.7551020408195543e+00 0.0000000000000000e+00 0.0000000000000000e+00  2.4489795918409065e+00 0.0000000000000000e+00 0.0000000000000000e+00  2.0204081632692521e+00 0.0000000000000000e+00 0.0000000000000000e+00  1.4693877551058563e+00 0.0000000000000000e+00 0.0000000000000000e+00  7.9591836734909216e-01 0.0000000000000000e+00 0.0000000000000000e+00  0.0000000000000000e+00 0.0000000000000000e+00 0.0000000000000000e+00  0.0000000000000000e+00 0.0000000000000000e+00 0.0000000000000000e+00  0.0000000000000000e+00 0.0000000000000000e+00 0.0000000000000000e+00  0.0000000000000000e+00 0.0000000000000000e+00 0.0000000000000000e+00  0.0000000000000000e+00 0.0000000000000000e+00 0.0000000000000000e+00  0.0000000000000000e+00 0.0000000000000000e+00 0.0000000000000000e+00  0.0000000000000000e+00 0.0000000000000000e+00 0.0000000000000000e+00  0.0000000000000000e+00 0.0000000000000000e+00 0.0000000000000000e+00  0.0000000000000000e+00 0.0000000000000000e+00 0.0000000000000000e+00  0.0000000000000000e+00 0.0000000000000000e+00 0.0000000000000000e+00  0.0000000000000000e+00 0.0000000000000000e+00 0.0000000000000000e+00  0.0000000000000000e+00 0.0000000000000000e+00 0.0000000000000000e+00  0.0000000000000000e+00 0.0000000000000000e+00 0.0000000000000000e+00  0.0000000000000000e+00 0.0000000000000000e+00 0.0000000000000000e+00  0.0000000000000000e+00 0.0000000000000000e+00 0.0000000000000000e+00  0.0000000000000000e+00 0.0000000000000000e+00 0.0000000000000000e+00  0.0000000000000000e+00 0.0000000000000000e+00 0.0000000000000000e+00  0.0000000000000000e+00 0.0000000000000000e+00 0.0000000000000000e+00  0.0000000000000000e+00 0.0000000000000000e+00 0.0000000000000000e+00  0.0000000000000000e+00 0.0000000000000000e+00 0.0000000000000000e+00  0.0000000000000000e+00 0.0000000000000000e+00 0.0000000000000000e+00  0.0000000000000000e+00 0.0000000000000000e+00 0.0000000000000000e+00  0.0000000000000000e+00 0.0000000000000000e+00 0.0000000000000000e+00  0.0000000000000000e+00 0.0000000000000000e+00 0.0000000000000000e+00  0.0000000000000000e+00 0.0000000000000000e+00 0.0000000000000000e+00  0.0000000000000000e+00 0.0000000000000000e+00 0.0000000000000000e+00  0.0000000000000000e+00 0.0000000000000000e+00 0.0000000000000000e+00  0.0000000000000000e+00 0.0000000000000000e+00 0.0000000000000000e+00  0.0000000000000000e+00 0.0000000000000000e+00 0.0000000000000000e+00  0.0000000000000000e+00 0.0000000000000000e+00 0.0000000000000000e+00  0.0000000000000000e+00 0.0000000000000000e+00 0.0000000000000000e+00  0.0000000000000000e+00 0.0000000000000000e+00 0.0000000000000000e+00  0.0000000000000000e+00 0.0000000000000000e+00 0.0000000000000000e+00  0.0000000000000000e+00 0.0000000000000000e+00 0.0000000000000000e+00  0.0000000000000000e+00 0.0000000000000000e+00 0.0000000000000000e+00  0.0000000000000000e+00 0.0000000000000000e+00 0.0000000000000000e+00  0.0000000000000000e+00 0.0000000000000000e+00 0.0000000000000000e+00  0.0000000000000000e+00 0.0000000000000000e+00 0.0000000000000000e+00  2.6635420815904869e+00 1.8871890294803136e-02 0.0000000000000000e+00  2.3248231296533759e+00 1.8913776166519427e-02 0.0000000000000000e+00  2.8346326467125360e+00 7.1608028859110523e-02 0.0000000000000000e+00  0.0000000000000000e+00 0.0000000000000000e+00 0.0000000000000000e+00  0.0000000000000000e+00 0.0000000000000000e+00 0.0000000000000000e+00  0.0000000000000000e+00 0.0000000000000000e+00 0.0000000000000000e+00  0.0000000000000000e+00 0.0000000000000000e+00 0.0000000000000000e+00  0.0000000000000000e+00 0.0000000000000000e+00 0.0000000000000000e+00  0.0000000000000000e+00 0.0000000000000000e+00 0.0000000000000000e+00  0.0000000000000000e+00 0.0000000000000000e+00 0.0000000000000000e+00  0.0000000000000000e+00 0.0000000000000000e+00 0.0000000000000000e+00  0.0000000000000000e+00 0.0000000000000000e+00 0.0000000000000000e+00  0.0000000000000000e+00 0.0000000000000000e+00 0.0000000000000000e+00  0.0000000000000000e+00 0.0000000000000000e+00 0.0000000000000000e+00  0.0000000000000000e+00 0.0000000000000000e+00 0.0000000000000000e+00  0.0000000000000000e+00 0.0000000000000000e+00 0.0000000000000000e+00  0.0000000000000000e+00 0.0000000000000000e+00 0.0000000000000000e+00  0.0000000000000000e+00 0.0000000000000000e+00 0.0000000000000000e+00  0.0000000000000000e+00 0.0000000000000000e+00 0.0000000000000000e+00  0.0000000000000000e+00 0.0000000000000000e+00 0.0000000000000000e+00  0.0000000000000000e+00 0.0000000000000000e+00 0.0000000000000000e+00  0.0000000000000000e+00 0.0000000000000000e+00 0.0000000000000000e+00  0.0000000000000000e+00 0.0000000000000000e+00 0.0000000000000000e+00  0.0000000000000000e+00 0.0000000000000000e+00 0.0000000000000000e+00  0.0000000000000000e+00 0.0000000000000000e+00 0.0000000000000000e+00  0.0000000000000000e+00 0.0000000000000000e+00 0.0000000000000000e+00  0.0000000000000000e+00 0.0000000000000000e+00 0.0000000000000000e+00  0.0000000000000000e+00 0.0000000000000000e+00 0.0000000000000000e+00  0.0000000000000000e+00 0.0000000000000000e+00 0.0000000000000000e+00  0.0000000000000000e+00 0.0000000000000000e+00 0.0000000000000000e+00  0.0000000000000000e+00 0.0000000000000000e+00 0.0000000000000000e+00  0.0000000000000000e+00 0.0000000000000000e+00 0.0000000000000000e+00  0.0000000000000000e+00 0.0000000000000000e+00 0.0000000000000000e+00  0.0000000000000000e+00 0.0000000000000000e+00 0.0000000000000000e+00  0.0000000000000000e+00 0.0000000000000000e+00 0.0000000000000000e+00  0.0000000000000000e+00 0.0000000000000000e+00 0.0000000000000000e+00  0.0000000000000000e+00 0.0000000000000000e+00 0.0000000000000000e+00  0.0000000000000000e+00 0.0000000000000000e+00 0.0000000000000000e+00  0.0000000000000000e+00 0.0000000000000000e+00 0.0000000000000000e+00  0.0000000000000000e+00 0.0000000000000000e+00 0.0000000000000000e+00  0.0000000000000000e+00 0.0000000000000000e+00 0.0000000000000000e+00  0.0000000000000000e+00 0.0000000000000000e+00 0.0000000000000000e+00  0.0000000000000000e+00 0.0000000000000000e+00 0.0000000000000000e+00  0.0000000000000000e+00 0.0000000000000000e+00 0.0000000000000000e+00  0.0000000000000000e+00 0.0000000000000000e+00 0.0000000000000000e+00  0.0000000000000000e+00 0.0000000000000000e+00 0.0000000000000000e+00  0.0000000000000000e+00 0.0000000000000000e+00 0.0000000000000000e+00  0.0000000000000000e+00 0.0000000000000000e+00 0.0000000000000000e+00  0.0000000000000000e+00 0.0000000000000000e+00 0.0000000000000000e+00  0.0000000000000000e+00 0.0000000000000000e+00 0.0000000000000000e+00  0.0000000000000000e+00 0.0000000000000000e+00 0.0000000000000000e+00  0.0000000000000000e+00 0.0000000000000000e+00 0.0000000000000000e+00  0.0000000000000000e+00 0.0000000000000000e+00 0.0000000000000000e+00  0.0000000000000000e+00 0.0000000000000000e+00 0.0000000000000000e+00  0.0000000000000000e+00 0.0000000000000000e+00 0.0000000000000000e+00  0.0000000000000000e+00 0.0000000000000000e+00 0.0000000000000000e+00  0.0000000000000000e+00 0.0000000000000000e+00 0.0000000000000000e+00  0.0000000000000000e+00 0.0000000000000000e+00 0.0000000000000000e+00  0.0000000000000000e+00 0.0000000000000000e+00 0.0000000000000000e+00  0.0000000000000000e+00 0.0000000000000000e+00 0.0000000000000000e+00  0.0000000000000000e+00 0.0000000000000000e+00 0.0000000000000000e+00  0.0000000000000000e+00 0.0000000000000000e+00 0.0000000000000000e+00  0.0000000000000000e+00 0.0000000000000000e+00 0.0000000000000000e+00  0.0000000000000000e+00 0.0000000000000000e+00 0.0000000000000000e+00  0.0000000000000000e+00 0.0000000000000000e+00 0.0000000000000000e+00  0.0000000000000000e+00 0.0000000000000000e+00 0.0000000000000000e+00  0.0000000000000000e+00 0.0000000000000000e+00 0.0000000000000000e+00  0.0000000000000000e+00 0.0000000000000000e+00 0.0000000000000000e+00  0.0000000000000000e+00 0.0000000000000000e+00 0.0000000000000000e+00  0.0000000000000000e+00 0.0000000000000000e+00 0.0000000000000000e+00  0.0000000000000000e+00 0.0000000000000000e+00 0.0000000000000000e+00  0.0000000000000000e+00 0.0000000000000000e+00 0.0000000000000000e+00  0.0000000000000000e+00 0.0000000000000000e+00 0.0000000000000000e+00  0.0000000000000000e+00 0.0000000000000000e+00 0.0000000000000000e+00  0.0000000000000000e+00 0.0000000000000000e+00 0.0000000000000000e+00  0.0000000000000000e+00 0.0000000000000000e+00 0.0000000000000000e+00  0.0000000000000000e+00 0.0000000000000000e+00 0.0000000000000000e+00  0.0000000000000000e+00 0.0000000000000000e+00 0.0000000000000000e+00  0.0000000000000000e+00 0.0000000000000000e+00 0.0000000000000000e+00  0.0000000000000000e+00 0.0000000000000000e+00 0.0000000000000000e+00  0.0000000000000000e+00 0.0000000000000000e+00 0.0000000000000000e+00  1.8712767920094667e-11 -1.0328993010076329e-10 0.0000000000000000e+00  -1.9388842610819406e-12 -1.2973302476829266e-10 0.0000000000000000e+00  3.8612665968457283e-13 -1.5526033031814112e-10 0.0000000000000000e+00  -1.4133346411692419e-11 -1.5163750353879150e-10 0.0000000000000000e+00  -6.3296913925855224e-12 -1.5313662809993856e-10 0.0000000000000000e+00  -2.6877815496654071e-11 -1.7427645950229891e-10 0.0000000000000000e+00  -8.5984638528750164e-12 -8.6430341842079960e-11 0.0000000000000000e+00  -1.7320757927868751e-11 -1.5006470642442080e-10 0.0000000000000000e+00  -2.7522756870536322e-11 -1.1624501542705962e-10 0.0000000000000000e+00  -1.5752765660827868e-11 -1.1012377889687699e-10 0.0000000000000000e+00  -3.0911978718714646e-11 -9.7352599177651098e-11 0.0000000000000000e+00  -1.8822469860935155e-11 -8.5540501025996498e-11 0.0000000000000000e+00  -3.9183636766261151e-11 -6.9067543653416149e-11 0.0000000000000000e+00  -1.3452245722618487e-11 -6.1526068996778886e-11 0.0000000000000000e+00  -3.1062085225338186e-11 -3.2850130333292600e-11 0.0000000000000000e+00  -3.0470957024695008e-11 -3.4164104921346639e-11 0.0000000000000000e+00  -2.5212464171290752e-11 -8.7261666483000686e-12 0.0000000000000000e+00  -3.1654179601252666e-11 -1.1541330383162982e-12 0.0000000000000000e+00  -2.6273002512754338e-11 1.8099430776387343e-11 0.0000000000000000e+00  -3.3151973319470651e-11 3.6251452109868141e-11 0.0000000000000000e+00  -2.8794441438870849e-11 5.2832734746479310e-11 0.0000000000000000e+00  -4.0090281083574065e-11 1.1619155588615066e-10 0.0000000000000000e+00  -1.4639839776055543e-11 -2.5208365227698116e-11 0.0000000000000000e+00  -3.6648109910867216e-11 1.4987075335718518e-10 0.0000000000000000e+00  -3.3308427436193413e-11 1.2247716617312575e-10 0.0000000000000000e+00  -3.2591245187595440e-11 1.5879259928218210e-10 0.0000000000000000e+00  -3.3167645322940027e-11 1.6080875657425038e-10 0.0000000000000000e+00  -3.2872782042921784e-11 1.8887873651344573e-10 0.0000000000000000e+00  -3.3345648825303521e-11 2.0610989935529501e-10 0.0000000000000000e+00  -3.3338764956333203e-11 2.2137251755198383e-10 0.0000000000000000e+00  -3.3891297526106823e-11 2.4775413171587657e-10 0.0000000000000000e+00  -3.4070148153602586e-11 2.6757689376176578e-10 0.0000000000000000e+00  -3.4692844305726160e-11 2.8171969099465879e-10 0.0000000000000000e+00  -3.5422753342393648e-11 3.2290954983215093e-10 0.0000000000000000e+00  -3.6087092615993650e-11 3.4025291786274559e-10 0.0000000000000000e+00  -3.7182827041331570e-11 3.7517060807157800e-10 0.0000000000000000e+00  -3.8378765657763624e-11 4.0411291284880688e-10 0.0000000000000000e+00  -3.9895846354394798e-11 4.4107344328467939e-10 0.0000000000000000e+00  -4.2441232854032121e-11 4.9846339778443540e-10 0.0000000000000000e+00  -4.4422546260520718e-11 5.4504243462911093e-10 0.0000000000000000e+00  -5.4583923425131844e-11 7.1556630393469779e-10 0.0000000000000000e+00  -2.7550925169248141e-11 1.7782545269345304e-10 0.0000000000000000e+00  -6.7615522148546821e-11 9.4607353388855541e-10 0.0000000000000000e+00  -7.4656364246290389e-11 1.0284704170981260e-09 0.0000000000000000e+00  -8.1120366511157725e-11 9.5801162408009946e-10 0.0000000000000000e+00  -8.4511420218009741e-12 1.7377182520151134e-09 0.0000000000000000e+00  -2.3385246722254595e-11 1.1838580939705723e-09 0.0000000000000000e+00  -2.7124321486655444e-12 1.7653331993047621e-09 0.0000000000000000e+00  -2.3961524579739608e-11 1.5340571555522243e-09 0.0000000000000000e+00  5.1361489623750635e-11 1.0945974184521710e-09 0.0000000000000000e+00  1.8609741832979853e-11 8.4514409532814160e-10 0.0000000000000000e+00  2.3814914637582247e-11 9.7312048566506648e-10 0.0000000000000000e+00  -6.4893090165522558e-12 1.9081561293975200e-10 0.0000000000000000e+00  1.2737201354040203e-11 7.2259710081565424e-10 0.0000000000000000e+00  1.4983759026170062e-12 4.5402207337787927e-10 0.0000000000000000e+00  1.4679128262300329e-12 4.3710867735343482e-10 0.0000000000000000e+00  1.2359899077716109e-13 3.9333056611001094e-10 0.0000000000000000e+00  -5.7115321042638561e-13 3.5849180076123770e-10 0.0000000000000000e+00  -1.1887319677664453e-12 3.2534476679190163e-10 0.0000000000000000e+00  -1.2392177693282822e-12 2.9995062065819062e-10 0.0000000000000000e+00  -1.4871945565854472e-12 2.7618004250519144e-10 0.0000000000000000e+00  -1.0835499950764396e-12 2.5513022155798458e-10 0.0000000000000000e+00  -1.3301870510237363e-12 2.3479852694750830e-10 0.0000000000000000e+00  -4.0664121084403542e-13 2.1643170263301835e-10 0.0000000000000000e+00  -8.4371919834592201e-13 1.9638855337154455e-10 0.0000000000000000e+00  6.2974305768835182e-13 1.7958535867865027e-10 0.0000000000000000e+00  -5.0744686746950760e-14 1.6378683848205357e-10 0.0000000000000000e+00  2.0292034269532350e-12 1.4854221492924396e-10 0.0000000000000000e+00  9.2806359663315483e-13 1.3444421109294603e-10 0.0000000000000000e+00  2.8165131688880682e-12 1.1125333690416188e-10 0.0000000000000000e+00  7.3849073342386183e-12 1.4674194200672668e-10 0.0000000000000000e+00  -6.1811583613234690e-12 -1.1819848315029229e-11 0.0000000000000000e+00  1.2993081043431722e-11 1.2112263281562308e-10 0.0000000000000000e+00  7.2358936547645186e-12 8.0747250953993651e-11 0.0000000000000000e+00  1.0242899087226103e-11 5.3153901837024820e-11 0.0000000000000000e+00  9.2508144854656357e-12 4.7188019840327577e-11 0.0000000000000000e+00  1.2121201587072858e-11 1.6308480387369105e-11 0.0000000000000000e+00  1.0550869642368527e-11 1.0294849093407776e-11 0.0000000000000000e+00  1.4370318251620792e-11 -1.9176282101058085e-11 0.0000000000000000e+00  1.2997519758773869e-11 -2.0156557002580029e-11 0.0000000000000000e+00  -2.9613070972442739e-13 -5.6564613357487011e-11 0.0000000000000000e+00  2.1707258565108390e-11 -5.7268787717551100e-11 0.0000000000000000e+00  1.0882429723223743e-11 -8.5577522510481249e-11 0.0000000000000000e+00  1.5994216807252347e-11 -9.4088708379473551e-11 0.0000000000000000e+00  1.0802606362187003e-11 -1.1091739081184021e-10 0.0000000000000000e+00  1.7387430538614362e-11 -1.2405068618965656e-10 0.0000000000000000e+00  8.2328959687176593e-12 -1.4500810402663668e-10 0.0000000000000000e+00  1.6719947921887149e-12 -8.3578332718271458e-11 0.0000000000000000e+00  1.9307392101513921e-11 -1.6656837106701698e-10 0.0000000000000000e+00  3.7775845192676209e-12 -1.5919081459046307e-10 0.0000000000000000e+00  1.1338081657939716e-11 -1.6002993186894908e-10 0.0000000000000000e+00  -2.5488590465578054e-12 -1.4672750266262930e-10 0.0000000000000000e+00  4.6180660388051016e-12 -1.2661363852678662e-10 0.0000000000000000e+00  -1.3441896558893580e-11 -1.2138594068524985e-10 0.0000000000000000e+00  -2.7429019736888968e-13 -2.8674227127698615e-11 0.0000000000000000e+00  -7.0065688404714620e-12 -1.1893310197175557e-10 0.0000000000000000e+00  -1.6589530878018262e-11 -2.5464850349663682e-11 0.0000000000000000e+00  -1.4780649699265968e-11 -8.9325056326588877e-11 0.0000000000000000e+00  -1.2908548943760213e-12 -4.1024159665398025e-11 0.0000000000000000e+00  -1.4218421480123025e-11 -1.1219431016876274e-10 0.0000000000000000e+00  -2.2939401714794966e-12 -4.8870863220172165e-11 0.0000000000000000e+00  -1.3554818043679048e-11 -1.1481779711821693e-10 0.0000000000000000e+00  -3.7143245515699570e-12 -5.2142194848790642e-11 0.0000000000000000e+00  -4.3590051486098729e-12 -5.3443443462008052e-11 0.0000000000000000e+00  -1.2940099619612928e-11 -1.1323682850792472e-10 0.0000000000000000e+00  -6.5847655807935192e-12 -5.9956266705431861e-11 0.0000000000000000e+00  -1.1696886587651920e-11 -1.0408291046185702e-10 0.0000000000000000e+00  -5.3835455916626987e-12 -5.6059679539965106e-11 0.0000000000000000e+00  -7.0409239176945146e-12 -6.4881789274059508e-11 0.0000000000000000e+00  -1.1080796767086330e-11 -9.7948144993464346e-11 0.0000000000000000e+00  -1.2317406271744331e-11 -1.0955075465462249e-10 0.0000000000000000e+00  -7.8334395333375358e-12 -6.9897797077612095e-11 0.0000000000000000e+00  -1.0468113389345633e-11 -9.1353014244027026e-11 0.0000000000000000e+00  -8.9359134910072446e-12 -7.1254387054189538e-11 0.0000000000000000e+00  -9.7046361658024878e-12 -8.1040896295387449e-11 0.0000000000000000e+00  -7.7077025663136934e-12 -1.5002326882998293e-10 0.0000000000000000e+00  -4.8495538241625425e-12 -5.8795118592038141e-11 0.0000000000000000e+00  -1.3285493975908402e-11 -3.9136572444922189e-10 0.0000000000000000e+00  -2.5173256249883048e-12 -1.0083334107216092e-11 0.0000000000000000e+00  -3.7272921901096739e-11 -6.5047130043168129e-10 0.0000000000000000e+00  -3.0602778819739657e-12 2.7491347074310429e-11 0.0000000000000000e+00  -2.3729328325542858e-11 -4.6388425864412443e-10 0.0000000000000000e+00  -2.4802005389577529e-11 -5.0552814787924792e-10 0.0000000000000000e+00  2.7254325151903608e-12 2.4863130115929708e-11 0.0000000000000000e+00  5.4365197713699189e-12 -1.0052324542979089e-11 0.0000000000000000e+00  -2.1174537551499818e-11 -3.4356510831440135e-10 0.0000000000000000e+00  -2.2705497839997418e-11 -4.2039716930963374e-10 0.0000000000000000e+00  6.0470910357037176e-12 -9.5750981684957902e-11 0.0000000000000000e+00  -2.0515093806533695e-11 -3.0723725229404529e-10 0.0000000000000000e+00  6.1714775413550204e-12 -3.0435929768310345e-11 0.0000000000000000e+00  6.0381988916534116e-12 -1.2457073695223714e-10 0.0000000000000000e+00  -1.9902287057741258e-11 -2.7268017274811275e-10 0.0000000000000000e+00  -2.1889308164588788e-11 -3.8106136170866572e-10 0.0000000000000000e+00  6.2248024838193711e-12 -1.5297125787262290e-10 0.0000000000000000e+00  -1.9094458738293183e-11 -2.3777614776439963e-10 0.0000000000000000e+00  -2.1566065046538498e-12 7.2321701811569036e-12 0.0000000000000000e+00  1.0111200247421336e-12 9.6638861922055609e-12 0.0000000000000000e+00  -7.9235980940392282e-11 -4.3952754235912416e-10 0.0000000000000000e+00  6.0685415805506436e-13 2.7608102574888889e