<?xml version="1.0"?>
<VTKFile type="UnstructuredGrid"  version="0.1"  >
<UnstructuredGrid>
<Piece  NumberOfPoints="1419" NumberOfCells="2698">
<Points>
<DataArray  type="Float64"  NumberOfComponents="3"  format="ascii">0 0 0  0 0.41 0  2.5 0 0  2.5 0.41 0  0.6 0.19 0  0.6 0.21 0  0.25 0.2 0  0.15 0.2 0  0.2489897948556636 0.21 0  0.2489897948556636 0.19 0  0.6 0.2 0  0 0.3807142857143437 0  0 0.3514285714286952 0  0 0.3221428571430699 0  0 0.29285714285744 0  0 0.2635714285718054 0  0 0.2342857142861561 0  0 0.2050000000005308 0  0 0.175714285714732 0  0 0.1464285714289574 0  0 0.1171428571431897 0  0 0.08785714285737878 0  0 0.05857142857161107 0  0 0.02928571428580012 0  0.03015443760436003 0 0  0.06140001986583606 0 0  0.09377624077125973 0 0  0.1273239957535082 0 0  0.1620856860351972 0 0  0.1981052433264291 0 0  0.235428184091502 0 0  0.2741016576309132 0 0  0.3141745521465447 0 0  0.3556974926295285 0 0  0.3987229542472677 0 0  0.4433053055141081 0 0  0.4895008759286886 0 0  0.5373680609405097 0 0  0.5869673343216626 0 0  0.6383613676634521 0 0  0.6916151138468254 0 0  0.7467958595648856 0 0  0.8039733463919316 0 0  0.8632198139502143 0 0  0.9246101326867038 0 0  0.9882218810934433 0 0  1.054135445558498 0 0  1.122434100542598 0 0  1.193204177141305 0 0  1.266535089879536 0 0  1.342519516046404 0 0  1.421253448503939 0 0  1.502836389106271 0 0  1.587371439758838 0 0  1.674965418777374 0 0  1.765729001825544 0 0  1.859776908880082 0 0  1.957227977487062 0 0  2.058205329869943 0 0  2.162836591189951 0 0  2.271253957290865 0 0  2.383594446803425 0 0  2.5 0.1024999999997612 0  2.5 0.2049999999994743 0  2.5 0.3074999999997183 0  2.383594446803656 0.41 0  2.271253957291315 0.41 0  2.162836591190598 0.41 0  2.058205329870775 0.41 0  1.957227977488067 0.41 0  1.859776908881246 0.41 0  1.765729001826854 0.41 0  1.674965418778818 0.41 0  1.58737143976041 0.41 0  1.502836389107956 0.41 0  1.421253448505726 0.41 0  1.342519516048286 0.41 0  1.266535089881505 0.41 0  1.193204177143353 0.41 0  1.122434100544716 0.41 0  1.05413544556068 0.41 0  0.9882218810956305 0.41 0  0.9246101326886647 0.41 0  0.8632198139519631 0.41 0  0.8039733463934788 0.41 0  0.7467958595662458 0.41 0  0.6916151138480078 0.41 0  0.6383613676644679 0.41 0  0.5869673343225223 0.41 0  0.5373680609412221 0.41 0  0.4895008759292634 0.41 0  0.4433053055145528 0.41 0  0.3987229542475914 0.41 0  0.3556974926297398 0.41 0  0.3141745521466497 0.41 0  0.2741016576310038 0.41 0  0.2354281840915826 0.41 0  0.1981052433265003 0.41 0  0.1620856860352591 0.41 0  0.1273239957535623 0.41 0  0.09377624077128965 0.41 0  0.06140001986584975 0.41 0  0.03015443760436654 0.41 0  0.2497468076502589 0.2050254481002335 0  0.2497468076502614 0.1949745518997913 0  0.2469965252529372 0.1829317073451959 0  0.2439893735792749 0.1762316384219906 0  0.2400332147834255 0.1700443375285386 0  0.2352133972704371 0.1645032867342007 0  0.2296339016332438 0.1597280261969788 0  0.2234150974217223 0.1558215752574715 0  0.2166911463437691 0.1528682099456123 0  0.2096071079204251 0.1509316448471593 0  0.2023158100364996 0.1500536585536553 0  0.194974551899914 0.1502531923497262 0  0.1877417105387872 0.1515259415822739 0  0.1807733240461124 0.153844448527136 0  0.1742197252835808 0.15715869474974 0  0.1682222986673531 0.1613971801805478 0  0.162910430003803 0.1664684656256651 0  0.1583987151779087 0.1722631454351573 0  0.1547844879126891 0.178656207771761 0  0.1521457199348551 0.1855097315605723 0  0.1505393388476355 0.1926758619366523 0  0.1505393388476328 0.2073241380633295 0  0.1521457199348437 0.2144902684393899 0  0.1547844879126531 0.221343792228163 0  0.1583987151778488 0.2277368545647528 0  0.1629104300036858 0.2335315343742052 0  0.1682222986671726 0.2386028198193036 0  0.1742197252833576 0.2428413052501257 0  0.1807733240458683 0.2461555514727623 0  0.1877417105384929 0.2484740584176516 0  0.1949745518995776 0.2497468076502398 0  0.202315810036185 0.2499463414463592 0  0.2096071079201568 0.2490683551528932 0  0.2166911463435495 0.2471317900544655 0  0.2234150974215506 0.2441784247426195 0  0.2296339016331197 0.2402719738031125 0  0.2352133972703547 0.2354967132658811 0  0.2400332147833751 0.2299556624715287 0  0.2439893735792577 0.2237683615780412 0  0.246996525252926 0.2170682926548348 0  0.25645809709277 0.21 0  0.2639263993298655 0.21 0  0.271394701566961 0.21 0  0.2788630038040554 0.21 0  0.2863313060411479 0.21 0  0.2937996082782405 0.21 0  0.301267910515333 0.21 0  0.3087362127524279 0.21 0  0.3162045149895234 0.21 0  0.3236728172265972 0.21 0  0.3311411194636928 0.21 0  0.3386094217007701 0.21 0  0.3460777239378666 0.21 0  0.3535460261749672 0.21 0  0.3610143284120516 0.21 0  0.3684826306491596 0.21 0  0.3759509328862226 0.21 0  0.383419235123329 0.21 0  0.3908875373604028 0.21 0  0.3983558395975142 0.21 0  0.4058241418345938 0.21 0  0.4132924440716992 0.21 0  0.4207607463087888 0.21 0  0.4282290485459029 0.21 0  0.4356973507830418 0.21 0  0.4431656530201649 0.21 0  0.4506339552573136 0.21 0  0.4581022574944306 0.21 0  0.4655705597315852 0.21 0  0.4730388619686996 0.21 0  0.480507164205851 0.21 0  0.4879754664429498 0.21 0  0.4954437686800938 0.21 0  0.502912070917267 0.21 0  0.5103803731544119 0.21 0  0.5178486753915261 0.21 0  0.5253169776286404 0.21 0  0.5327852798657868 0.21 0  0.5402535821029386 0.21 0  0.54772188434007 0.21 0  0.5551901865771842 0.21 0  0.5626584888143201 0.21 0  0.5701267910514778 0.21 0  0.5775950932886138 0.21 0  0.5850633955257281 0.21 0  0.5925316977628483 0.21 0  0.6 0.2050000000000054 0  0.6 0.1950000000000217 0  0.5925316977628897 0.19 0  0.5850633955257988 0.19 0  0.5775950932887378 0.19 0  0.5701267910515998 0.19 0  0.5626584888145268 0.19 0  0.5551901865773963 0.19 0  0.547721884340339 0.19 0  0.5402535821032429 0.19 0  0.5327852798661811 0.19 0  0.5253169776290537 0.19 0  0.5178486753919799 0.19 0  0.5103803731549078 0.19 0  0.502912070917822 0.19 0  0.4954437686807294 0.19 0  0.4879754664436223 0.19 0  0.4805071642065402 0.19 0  0.4730388619694271 0.19 0  0.4655705597323621 0.19 0  0.4581022574952563 0.19 0  0.4506339552581777 0.19 0  0.4431656530210671 0.19 0  0.4356973507839815 0.19 0  0.4282290485468779 0.19 0  0.4207607463097617 0.19 0  0.4132924440726327 0.19 0  0.4058241418354857 0.19 0  0.3983558395983636 0.19 0  0.3908875373612097 0.19 0  0.3834192351240934 0.19 0  0.3759509328869369 0.19 0  0.3684826306498175 0.19 0  0.361014328412667 0.19 0  0.3535460261755617 0.19 0  0.3460777239384295 0.19 0  0.3386094217012945 0.19 0  0.3311411194641595 0.19 0  0.3236728172270245 0.19 0  0.3162045149898895 0.19 0  0.3087362127527544 0.19 0  0.3012679105156187 0.19 0  0.2937996082784807 0.19 0  0.2863313060413428 0.19 0  0.2788630038042048 0.19 0  0.2713947015670686 0.19 0  0.2639263993299336 0.19 0  0.2564580970927985 0.19 0  0.2607803159922026 0.2000727136295815 0  0.5887803774232762 0.2001272386983733 0  0.5745072403740523 0.2002044435018727 0  0.5511891430099709 0.2001122610077113 0  0.2751288526855082 0.20000000000002 0  0.5365194309847112 0.1999999999999436 0  0.2894621222999649 0.1998691686390484 0  0.5215828265105155 0.1999999999999228 0  0.3127789816668748 0.1998657885438805 0  0.3274069683451451 0.2000000000000796 0  0.5066462220363641 0.199999999999908 0  0.3650630746574081 0.199866017807523 0  0.476773013087985 0.1999999999998713 0  0.3417402379596385 0.1998691686391011 0  0.3796850840047755 0.200000000000134 0  0.4618364086138087 0.1999999999998546 0  0.4917096175621762 0.1999999999998808 0  0.3946216884789568 0.2000000000001512 0  0.446899804139621 0.1999999999998389 0  0.4089549580935208 0.1998691686391595 0  0.4322718174608562 0.200127451265745 0  0.4201487168029707 0.1999966199048527 0  0.3528922713220932 0.2000185703532356 0  0.5633122436674589 0.1999814296467508 0  0.3006558810093873 0.1999966199048318 0  0.5815926498168407 0.1966545283159175 0  0.2677053789419034 0.1964246479135325 0  0.5290511287476175 0.1970915826863981 0  0.5439877332217911 0.197091582686394 0  0.2825131256993216 0.2035478995978015 0  0.3199386661080599 0.202908417313604 0  0.4842413153250809 0.1970915826863873 0  0.5141145242734466 0.1970915826863843 0  0.3722167817676917 0.2029084173136195 0  0.4693047108508938 0.1970915826863783 0  0.3348752705822316 0.202908417313609 0  0.3871533862418661 0.2029084173136212 0  0.4543681063767183 0.1970915826863795 0  0.4991779197992749 0.1970915826863902 0  0.4020059614928624 0.203547899597858 0  0.4394315019025246 0.1970915826863714 0  0.2550657455369551 0.2034088125358657 0  0.2548908499171161 0.1966940311614271 0  0.5946539510196798 0.2024302972968126 0  0.267698176732111 0.2039977513680092 0  0.4261685417851465 0.196409292431739 0  0.3590076176283495 0.196411355804271 0  0.5571672426447437 0.2036011176410121 0  0.3066757059912147 0.1964092924317024 0  0.594380730180568 0.1966558399668133 0  0.4842413153245942 0.2040749161535287 0  0.4693047108503577 0.2040749161535231 0  0.3871533862424271 0.1959250838464788 0  0.372246743208829 0.1959123236376545 0  0.5141145242731028 0.2040749161535395 0  0.4543681063761134 0.2040749161535186 0  0.4019979587101454 0.1959834479682427 0  0.4394608940728603 0.2040870543693135 0  0.5439623148931173 0.2040856076781014 0  0.5290511287473298 0.2040749161535501 0  0.4991779197988497 0.2040749161535382 0  0.3347912413592433 0.1959225448935183 0  0.3199680582793816 0.1959123018030061 0  0.2825051229162361 0.1959834479681729 0  0.3590471196690275 0.2036304442587945 0  0.5571594006495384 0.1963685282145804 0  0.3067669986803285 0.203627750582736 0  0.4262598344738712 0.2036568242185335 0  0.5814408164431408 0.2041285596160068 0  0.5688286748170428 0.1961819304477386 0  0.4145905603063645 0.2038180695522843 0  0.3473758401724931 0.2038180695522752 0  0.2950977245128307 0.2038180695522663 0  0.5688286748170693 0.203818069552238 0  0.2950977245127906 0.1961819304477774 0  0.3473758401723931 0.1961819304478349 0  0.4145905603061963 0.1961819304479011 0  0.2601812407614425 0.2056861609747042
[...]
<PointData  Vectors="f_40-1"> 
<DataArray  type="Float64"  Name="f_40-1"  NumberOfComponents="3" format="ascii">0.0000000000000000e+00 0.0000000000000000e+00 0.0000000000000000e+00  0.0000000000000000e+00 0.0000000000000000e+00 0.0000000000000000e+00  0.0000000000000000e+00 0.0000000000000000e+00 0.0000000000000000e+00  0.0000000000000000e+00 0.0000000000000000e+00 0.0000000000000000e+00  1.9044468475497377e-05 5.0095931795952800e-04 0.0000000000000000e+00  -1.4606311726148165e-05 4.9883914376206275e-04 0.0000000000000000e+00  0.0000000000000000e+00 0.0000000000000000e+00 0.0000000000000000e+00  0.0000000000000000e+00 0.0000000000000000e+00 0.0000000000000000e+00  0.0000000000000000e+00 0.0000000000000000e+00 0.0000000000000000e+00  0.0000000000000000e+00 0.0000000000000000e+00 0.0000000000000000e+00  1.8791792269696526e-06 4.9989411216668801e-04 0.0000000000000000e+00  0.0000000000000000e+00 0.0000000000000000e+00 0.0000000000000000e+00  0.0000000000000000e+00 0.0000000000000000e+00 0.0000000000000000e+00  0.0000000000000000e+00 0.0000000000000000e+00 0.0000000000000000e+00  0.0000000000000000e+00 0.0000000000000000e+00 0.0000000000000000e+00  0.0000000000000000e+00 0.0000000000000000e+00 0.0000000000000000e+00  0.0000000000000000e+00 0.0000000000000000e+00 0.0000000000000000e+00  0.0000000000000000e+00 0.0000000000000000e+00 0.0000000000000000e+00  0.0000000000000000e+00 0.0000000000000000e+00 0.0000000000000000e+00  0.0000000000000000e+00 0.0000000000000000e+00 0.0000000000000000e+00  0.0000000000000000e+00 0.0000000000000000e+00 0.0000000000000000e+00  0.0000000000000000e+00 0.0000000000000000e+00 0.0000000000000000e+00  0.0000000000000000e+00 0.0000000000000000e+00 0.0000000000000000e+00  0.0000000000000000e+00 0.0000000000000000e+00 0.0000000000000000e+00  0.0000000000000000e+00 0.0000000000000000e+00 0.0000000000000000e+00  0.0000000000000000e+00 0.0000000000000000e+00 0.0000000000000000e+00  0.0000000000000000e+00 0.0000000000000000e+00 0.0000000000000000e+00  0.0000000000000000e+00 0.0000000000000000e+00 0.0000000000000000e+00  0.0000000000000000e+00 0.0000000000000000e+00 0.0000000000000000e+00  0.0000000000000000e+00 0.0000000000000000e+00 0.0000000000000000e+00  0.0000000000000000e+00 0.0000000000000000e+00 0.0000000000000000e+00  0.0000000000000000e+00 0.0000000000000000e+00 0.0000000000000000e+00  0.0000000000000000e+00 0.0000000000000000e+00 0.0000000000000000e+00  0.0000000000000000e+00 0.0000000000000000e+00 0.0000000000000000e+00  0.0000000000000000e+00 0.0000000000000000e+00 0.0000000000000000e+00  0.0000000000000000e+00 0.0000000000000000e+00 0.0000000000000000e+00  0.0000000000000000e+00 0.0000000000000000e+00 0.0000000000000000e+00  0.0000000000000000e+00 0.0000000000000000e+00 0.0000000000000000e+00  0.0000000000000000e+00 0.0000000000000000e+00 0.0000000000000000e+00  0.0000000000000000e+00 0.0000000000000000e+00 0.0000000000000000e+00  0.0000000000000000e+00 0.0000000000000000e+00 0.0000000000000000e+00  0.0000000000000000e+00 0.0000000000000000e+00 0.0000000000000000e+00  0.0000000000000000e+00 0.0000000000000000e+00 0.0000000000000000e+00  0.0000000000000000e+00 0.0000000000000000e+00 0.0000000000000000e+00  0.0000000000000000e+00 0.0000000000000000e+00 0.0000000000000000e+00  0.0000000000000000e+00 0.0000000000000000e+00 0.0000000000000000e+00  0.0000000000000000e+00 0.0000000000000000e+00 0.0000000000000000e+00  0.0000000000000000e+00 0.0000000000000000e+00 0.0000000000000000e+00  0.0000000000000000e+00 0.0000000000000000e+00 0.0000000000000000e+00  0.0000000000000000e+00 0.0000000000000000e+00 0.0000000000000000e+00  0.0000000000000000e+00 0.0000000000000000e+00 0.0000000000000000e+00  0.0000000000000000e+00 0.0000000000000000e+00 0.0000000000000000e+00  0.0000000000000000e+00 0.0000000000000000e+00 0.0000000000000000e+00  0.0000000000000000e+00 0.0000000000000000e+00 0.0000000000000000e+00  0.0000000000000000e+00 0.0000000000000000e+00 0.0000000000000000e+00  0.0000000000000000e+00 0.0000000000000000e+00 0.0000000000000000e+00  0.0000000000000000e+00 0.0000000000000000e+00 0.0000000000000000e+00  0.0000000000000000e+00 0.0000000000000000e+00 0.0000000000000000e+00  0.0000000000000000e+00 0.0000000000000000e+00 0.0000000000000000e+00  0.0000000000000000e+00 0.0000000000000000e+00 0.0000000000000000e+00  0.0000000000000000e+00 0.0000000000000000e+00 0.0000000000000000e+00  0.0000000000000000e+00 0.0000000000000000e+00 0.0000000000000000e+00  0.0000000000000000e+00 0.0000000000000000e+00 0.0000000000000000e+00  0.0000000000000000e+00 0.0000000000000000e+00 0.0000000000000000e+00  0.0000000000000000e+00 0.0000000000000000e+00 0.0000000000000000e+00  0.0000000000000000e+00 0.0000000000000000e+00 0.0000000000000000e+00  0.0000000000000000e+00 0.0000000000000000e+00 0.0000000000000000e+00  0.0000000000000000e+00 0.0000000000000000e+00 0.0000000000000000e+00  0.0000000000000000e+00 0.0000000000000000e+00 0.0000000000000000e+00  0.0000000000000000e+00 0.0000000000000000e+00 0.0000000000000000e+00  0.0000000000000000e+00 0.0000000000000000e+00 0.0000000000000000e+00  0.0000000000000000e+00 0.0000000000000000e+00 0.0000000000000000e+00  0.0000000000000000e+00 0.0000000000000000e+00 0.0000000000000000e+00  0.0000000000000000e+00 0.0000000000000000e+00 0.0000000000000000e+00  0.0000000000000000e+00 0.0000000000000000e+00 0.0000000000000000e+00  0.0000000000000000e+00 0.0000000000000000e+00 0.0000000000000000e+00  0.0000000000000000e+00 0.0000000000000000e+00 0.0000000000000000e+00  0.0000000000000000e+00 0.0000000000000000e+00 0.0000000000000000e+00  0.0000000000000000e+00 0.0000000000000000e+00 0.0000000000000000e+00  0.0000000000000000e+00 0.0000000000000000e+00 0.0000000000000000e+00  0.0000000000000000e+00 0.0000000000000000e+00 0.0000000000000000e+00  0.0000000000000000e+00 0.0000000000000000e+00 0.0000000000000000e+00  0.0000000000000000e+00 0.0000000000000000e+00 0.0000000000000000e+00  0.0000000000000000e+00 0.0000000000000000e+00 0.0000000000000000e+00  0.0000000000000000e+00 0.0000000000000000e+00 0.0000000000000000e+00  0.0000000000000000e+00 0.0000000000000000e+00 0.0000000000000000e+00  0.0000000000000000e+00 0.0000000000000000e+00 0.0000000000000000e+00  0.0000000000000000e+00 0.0000000000000000e+00 0.0000000000000000e+00  0.0000000000000000e+00 0.0000000000000000e+00 0.0000000000000000e+00  0.0000000000000000e+00 0.0000000000000000e+00 0.0000000000000000e+00  0.0000000000000000e+00 0.0000000000000000e+00 0.0000000000000000e+00  0.0000000000000000e+00 0.0000000000000000e+00 0.0000000000000000e+00  0.0000000000000000e+00 0.0000000000000000e+00 0.0000000000000000e+00  0.0000000000000000e+00 0.0000000000000000e+00 0.0000000000000000e+00  0.0000000000000000e+00 0.0000000000000000e+00 0.0000000000000000e+00  0.0000000000000000e+00 0.0000000000000000e+00 0.0000000000000000e+00  0.0000000000000000e+00 0.0000000000000000e+00 0.0000000000000000e+00  0.0000000000000000e+00 0.0000000000000000e+00 0.0000000000000000e+00  0.0000000000000000e+00 0.0000000000000000e+00 0.0000000000000000e+00  0.0000000000000000e+00 0.0000000000000000e+00 0.0000000000000000e+00  0.0000000000000000e+00 0.0000000000000000e+00 0.0000000000000000e+00  0.0000000000000000e+00 0.0000000000000000e+00 0.0000000000000000e+00  0.0000000000000000e+00 0.0000000000000000e+00 0.0000000000000000e+00  0.0000000000000000e+00 0.0000000000000000e+00 0.0000000000000000e+00  0.0000000000000000e+00 0.0000000000000000e+00 0.0000000000000000e+00  0.0000000000000000e+00 0.0000000000000000e+00 0.0000000000000000e+00  0.0000000000000000e+00 0.0000000000000000e+00 0.0000000000000000e+00  0.0000000000000000e+00 0.0000000000000000e+00 0.0000000000000000e+00  0.0000000000000000e+00 0.0000000000000000e+00 0.0000000000000000e+00  0.0000000000000000e+00 0.0000000000000000e+00 0.0000000000000000e+00  0.0000000000000000e+00 0.0000000000000000e+00 0.0000000000000000e+00  0.0000000000000000e+00 0.0000000000000000e+00 0.0000000000000000e+00  0.0000000000000000e+00 0.0000000000000000e+00 0.0000000000000000e+00  0.0000000000000000e+00 0.0000000000000000e+00 0.0000000000000000e+00  0.0000000000000000e+00 0.0000000000000000e+00 0.0000000000000000e+00  0.0000000000000000e+00 0.0000000000000000e+00 0.0000000000000000e+00  0.0000000000000000e+00 0.0000000000000000e+00 0.0000000000000000e+00  0.0000000000000000e+00 0.0000000000000000e+00 0.0000000000000000e+00  0.0000000000000000e+00 0.0000000000000000e+00 0.0000000000000000e+00  0.0000000000000000e+00 0.0000000000000000e+00 0.0000000000000000e+00  0.0000000000000000e+00 0.0000000000000000e+00 0.0000000000000000e+00  0.0000000000000000e+00 0.0000000000000000e+00 0.0000000000000000e+00  0.0000000000000000e+00 0.0000000000000000e+00 0.0000000000000000e+00  0.0000000000000000e+00 0.0000000000000000e+00 0.0000000000000000e+00  0.0000000000000000e+00 0.0000000000000000e+00 0.0000000000000000e+00  0.0000000000000000e+00 0.0000000000000000e+00 0.0000000000000000e+00  0.0000000000000000e+00 0.0000000000000000e+00 0.0000000000000000e+00  0.0000000000000000e+00 0.0000000000000000e+00 0.0000000000000000e+00  0.0000000000000000e+00 0.0000000000000000e+00 0.0000000000000000e+00  0.0000000000000000e+00 0.0000000000000000e+00 0.0000000000000000e+00  0.0000000000000000e+00 0.0000000000000000e+00 0.0000000000000000e+00  0.0000000000000000e+00 0.0000000000000000e+00 0.0000000000000000e+00  0.0000000000000000e+00 0.0000000000000000e+00 0.0000000000000000e+00  0.0000000000000000e+00 0.0000000000000000e+00 0.0000000000000000e+00  0.0000000000000000e+00 0.0000000000000000e+00 0.0000000000000000e+00  0.0000000000000000e+00 0.0000000000000000e+00 0.0000000000000000e+00  0.0000000000000000e+00 0.0000000000000000e+00 0.0000000000000000e+00  0.0000000000000000e+00 0.0000000000000000e+00 0.0000000000000000e+00  0.0000000000000000e+00 0.0000000000000000e+00 0.0000000000000000e+00  0.0000000000000000e+00 0.0000000000000000e+00 0.0000000000000000e+00  0.0000000000000000e+00 0.0000000000000000e+00 0.0000000000000000e+00  0.0000000000000000e+00 0.0000000000000000e+00 0.0000000000000000e+00  0.0000000000000000e+00 0.0000000000000000e+00 0.0000000000000000e+00  -1.5785732560231466e-06 6.1820314662327309e-08 0.0000000000000000e+00  -3.2672187414426047e-06 2.1215669939779213e-06 0.0000000000000000e+00  -4.6946445706738448e-06 5.5820069352406204e-06 0.0000000000000000e+00  -5.9405143413316222e-06 1.0194190377325835e-05 0.0000000000000000e+00  -7.0508499821341350e-06 1.5834272575208401e-05 0.0000000000000000e+00  -8.0329459875361980e-06 2.2405153286795173e-05 0.0000000000000000e+00  -8.8916130856130406e-06 2.9802843480807739e-05 0.0000000000000000e+00  -9.6432389502919861e-06 3.7938338426265468e-05 0.0000000000000000e+00  -1.0282677823010303e-05 4.6729115567210118e-05 0.0000000000000000e+00  -1.0820769162542080e-05 5.6087310824180210e-05 0.0000000000000000e+00  -1.1263292779734668e-05 6.5944394694184377e-05 0.0000000000000000e+00  -1.1619154832475110e-05 7.6226464879778347e-05 0.0000000000000000e+00  -1.1893281825652109e-05 8.6876028815859935e-05 0.0000000000000000e+00  -1.2093216995887385e-05 9.7832032098129772e-05 0.0000000000000000e+00  -1.2231868689467012e-05 1.0904614075838433e-04 0.0000000000000000e+00  -1.2310434449807510e-05 1.2047534939956345e-04 0.0000000000000000e+00  -1.2339806961432759e-05 1.3207615670237998e-04 0.0000000000000000e+00  -1.2326076584415603e-05 1.4381648033977642e-04 0.0000000000000000e+00  -1.2278560726575591e-05 1.5566399645945448e-04 0.0000000000000000e+00  -1.2202718969567046e-05 1.6759555515234986e-04 0.0000000000000000e+00  -1.2107057675670258e-05 1.7958868211256655e-04 0.0000000000000000e+00  -1.1996802466117502e-05 1.9162704691861717e-04 0.0000000000000000e+00  -1.1879060645619561e-05 2.0369668198702827e-04 0.0000000000000000e+00  -1.1760087610710967e-05 2.1578764404312878e-04 0.0000000000000000e+00  -1.1643873191957974e-05 2.2789313028776867e-04 0.0000000000000000e+00  -1.1536219547784830e-05 2.4000797216498890e-04 0.0000000000000000e+00  -1.1440882527907945e-05 2.5212970689553204e-04 0.0000000000000000e+00  -1.1362098599083668e-05 2.6425790401365018e-04 0.0000000000000000e+00  -1.1302757014711804e-05 2.7639341982369718e-04 0.0000000000000000e+00  -1.1265974751662029e-05 2.8853840547584005e-04 0.0000000000000000e+00  -1.1253695991020146e-05 3.0069596178436110e-04 0.0000000000000000e+00  -1.1268045608850670e-05 3.1286960804143325e-04 0.0000000000000000e+00  -1.1310066416256118e-05 3.2506335198245929e-04 0.0000000000000000e+00  -1.1380940360431097e-05 3.3728124021821146e-04 0.0000000000000000e+00  -1.1481175781840886e-05 3.4952692507284993e-04 0.0000000000000000e+00  -1.1610918023783698e-05 3.6180394413767809e-04 0.0000000000000000e+00  -1.1770143598133332e-05 3.7411513204471284e-04 0.0000000000000000e+00  -1.1958449267140678e-05 3.8646259620783615e-04 0.0000000000000000e+00  -1.2175377650766827e-05 3.9884766616956122e-04 0.0000000000000000e+00  -1.2420119753877260e-05 4.1127053074904583e-04 0.0000000000000000e+00  -1.2691884968159888e-05 4.2373059350454177e-04 0.0000000000000000e+00  -1.2989643842555002e-05 4.3622583251482248e-04 0.0000000000000000e+00  -1.3312996069283609e-05 4.4875367247578722e-04 0.0000000000000000e+00  -1.3660774718627256e-05 4.6131162059095141e-04 0.0000000000000000e+00  -1.4025633575552967e-05 4.7389732179744398e-04 0.0000000000000000e+00  -1.4371447415880505e-05 4.8648282822576710e-04 0.0000000000000000e+00  -6.4705639914357492e-06 4.9937517151269297e-04 0.0000000000000000e+00  1.0351315086011007e-05 5.0041312180835963e-04 0.0000000000000000e+00  1.9274012892928070e-05 4.8816895085483880e-04 0.0000000000000000e+00  1.9584052489339333e-05 4.7563196502792792e-04 0.0000000000000000e+00  1.9900995804089720e-05 4.6313010216895355e-04 0.0000000000000000e+00  2.0185804277052683e-05 4.5064493293909663e-04 0.0000000000000000e+00  2.0433829923165749e-05 4.3818505565492669e-04 0.0000000000000000e+00  2.0647492550652568e-05 4.2575604600188997e-04 0.0000000000000000e+00  2.0828286500142222e-05 4.1336096408025968e-04 0.0000000000000000e+00  2.0978809414829860e-05 4.0100177536258176e-04 0.0000000000000000e+00  2.1100515942658549e-05 3.8867923002668217e-04 0.0000000000000000e+00  2.1195797132976190e-05 3.7639280949094723e-04 0.0000000000000000e+00  2.1265950615928054e-05 3.6414136841691450e-04 0.0000000000000000e+00  2.1313155977802283e-05 3.5192235729190863e-04 0.0000000000000000e+00  2.1338572208675406e-05 3.3973312412463998e-04 0.0000000000000000e+00  2.1344010815556652e-05 3.2756971262746859e-04 0.0000000000000000e+00  2.1330353267372675e-05 3.1542854373106097e-04 0.0000000000000000e+00  2.1298924020973033e-05 3.0330502564153536e-04 0.0000000000000000e+00  2.1250242169254462e-05 2.9119545809323127e-04 0.0000000000000000e+00  2.1185000584632136e-05 2.7909562286444268e-04 0.0000000000000000e+00  2.1103326042932647e-05 2.6700261358034828e-04 0.0000000000000000e+00  2.1005118530839759e-05 2.5491387614612056e-04 0.0000000000000000e+00  2.0889988270711864e-05 2.4282843492547189e-04 0.0000000000000000e+00  2.0756936091775247e-05 2.3074671204839173e-04 0.0000000000000000e+00  2.0604900704387340e-05 2.1867093596501458e-04 0.0000000000000000e+00  2.0431656374153422e-05 2.0660611585886888e-04 0.0000000000000000e+00  2.0236250196458546e-05 1.9455919699216858e-04 0.0000000000000000e+00  2.0015355682529921e-05 1.8253996184585755e-04 0.0000000000000000e+00  1.9765557827291332e-05 1.7056247220174418e-04 0.0000000000000000e+00  1.9484051004870712e-05 1.5864372900366175e-04 0.0000000000000000e+00  1.9165980103068261e-05 1.4680518808135563e-04 0.0000000000000000e+00  1.8807482272630188e-05 1.3507225803624073e-04 0.0000000000000000e+00  1.8402632179470442e-05 1.2347538124458845e-04 0.0000000000000000e+00  1.7946274449798449e-05 1.1204898482714497e-04 0.0000000000000000e+00  1.7429741061044667e-05 1.0083625896966652e-04 0.0000000000000000e+00  1.6852179930120811e-05 8.9880952593247678e-05 0.0000000000000000e+00  1.6201219847323268e-05 7.9232880006048937e-05 0.0000000000000000e+00  1.5468911544981442e-05 6.8951430896136654e-05 0.0000000000000000e+00  1.4648772321199628e-05 5.9099393813079401e-05 0.0000000000000000e+00  1.3730538094911357e-05 4.9745841640965511e-05 0.0000000000000000e+00  1.2705787143829527e-05 4.0964608567390365e-05 0.0000000000000000e+00  1.1560978407376189e-05 3.2841553904246308e-05 0.0000000000000000e+00  1.0297336716068734e-05 2.5459825861966858e-05 0.0000000000000000e+00  8.8955110471129058e-06 1.8908735125643724e-05 0.0000000000000000e+00  7.3472973040404436e-06 1.3292394094720827e-05 0.0000000000000000e+00  5.6491011883562514e-06 8.7178077196533770e-06 0.0000000000000000e+00  3.8305681986509883e-06 5.2867347127328193e-06 0.0000000000000000e+00  2.0257827490223775e-06 2.9214178223538668e-06 0.0000000000000000e+00  3.4520099669402206e-08 1.8082435040525878e-06 0.0000000000000000e+00  2.2957347112991836e-06 4.8099795598990002e-04 0.0000000000000000e+00  2.8617155188295826e-06 4.5700855153136399e-04 0.0000000000000000e+00  3.8689726162293760e-06 4.1804969921875563e-04 0.0000000000000000e+00  5.8418857755168348e-07 8.6496524928313904e-06 0.0000000000000000e+00  4.4449830242217694e-06 3.9372250766420261e-04 0.0000000000000000e+00  1.1193189180853138e-06 1.9493741870142803e-05 0.0000000000000000e+00  4.7308048615675200e-06 3.6908957927682379e-04 0.0000000000000000e+00  1.7945948364867408e-06 4.3779064420582586e-05 0.0000000000000000e+00  2.0138665687066590e-06 6.2177252184326682e-05 0.0000000000000000e+00  4.9104088858700616e-06 3.4459589345969946e-04 0.0000000000000000e+00  3.1663970249778031e-06 1.1661778433605533e-04 0.0000000000000000e+00  4.9765839543221096e-06 2.9592366994762821e-04 0.0000000000000000e+00  2.5599780981442150e-06 8.1959227408822072e-05 0.0000000000000000e+00  3.3262764057998300e-06 1.3934743455238388e-04 0.0000000000000000e+00  4.8789974955521809e-06 2.7168089820156483e-04 0.0000000000000000e+00  4.9899131798053216e-06 3.2021777418712085e-04 0.0000000000000000e+00  3.6870414907278401e-06 1.6305914410484509e-04 0.0000000000000000e+00  4.7070665974347473e-06 2.4746392013860286e-04 0.0000000000000000e+00  4.2240738695073388e-06 1.8609424421349500e-04 0.0000000000000000e+00  4.2709889757502169e-06 2.2374547318329419e-04 0.0000000000000000e+00  4.2544484803615704e-06 2.0414625384660269e-04 0.0000000000000000e+00  2.6298043198057717e-06 9.8196388965565099e-05 0.0000000000000000e+00  3.6809728953802132e-06 4.3828260906489055e-04 0.0000000000000000e+00  1.3225598431389345e-06 3.0232628633528473e-05 0.0000000000000000e+00  8.5063914535165535e-06 4.6921798779173395e-04 0.0000000000000000e+00  1.8725210773158274e-06 5.2377075356821154e-06 0.0000000000000000e+00  9.4062172039918829e-06 3.8171606326729694e-04 0.0000000000000000e+00  9.0924306067354175e-06 4.0640545161903555e-04 0.0000000000000000e+00  -1.7490873876716611e-06 1.3301382497899011e-05 0.0000000000000000e+00  -1.7559850655764687e-06 5.2109427600624314e-05 0.0000000000000000e+00  9.7354194841476429e-06 3.0843886084820914e-04 0.0000000000000000e+00  9.6126956673899544e-06 3.5717214771576481e-04 0.0000000000000000e+00  -1.3478768544300667e-06 1.2722831314363126e-04 0.0000000000000000e+00  9.6675445268835250e-06 2.8418785296228574e-04 0.0000000000000000e+00  -1.7485984398685525e-06 7.1876532511573385e-05 0.0000000000000000e+00  -1.0839731682375389e-06 1.5072921090424239e-04 0.0000000000000000e+00  9.5238199432723196e-06 2.5997252938909172e-04 0.0000000000000000e+00  9.7197735583048460e-06 3.3275590245967210e-04 0.0000000000000000e+00  -1.8199237465255074e-06 1.7437359194946147e-04 0.0000000000000000e+00  9.3113986547390548e-06 2.3577438528807104e-04 0.0000000000000000e+00  -5.2339772411847984e-07 5.3801672948242805e-08 0.0000000000000000e+00  2.5231251168639872e-07 8.6846109917327112e-07 0.0000000000000000e+00  -1.9072032931205655e-06 4.9069333136352380e-04 0.0000000000000000e+00  -1.3659923127558022e-06 4.0386652665643840e-06 0.0000000000000000e+00  1.0174115370718139e-05 2.1440349544642851e-04 0.0000000000000000e+00  8.1797227376494968e-0