<?xml version="1.0"?>
<VTKFile type="UnstructuredGrid"  version="0.1"  >
<UnstructuredGrid>
<Piece  NumberOfPoints="1419" NumberOfCells="2698">
<Points>
<DataArray  type="Float64"  NumberOfComponents="3"  format="ascii">0 0 0  0 0.41 0  2.5 0 0  2.5 0.41 0  0.6 0.19 0  0.6 0.21 0  0.25 0.2 0  0.15 0.2 0  0.2489897948556636 0.21 0  0.2489897948556636 0.19 0  0.6 0.2 0  0 0.3807142857143437 0  0 0.3514285714286952 0  0 0.3221428571430699 0  0 0.29285714285744 0  0 0.2635714285718054 0  0 0.2342857142861561 0  0 0.2050000000005308 0  0 0.175714285714732 0  0 0.1464285714289574 0  0 0.1171428571431897 0  0 0.08785714285737878 0  0 0.05857142857161107 0  0 0.02928571428580012 0  0.03015443760436003 0 0  0.06140001986583606 0 0  0.09377624077125973 0 0  0.1273239957535082 0 0  0.1620856860351972 0 0  0.1981052433264291 0 0  0.235428184091502 0 0  0.2741016576309132 0 0  0.3141745521465447 0 0  0.3556974926295285 0 0  0.3987229542472677 0 0  0.4433053055141081 0 0  0.4895008759286886 0 0  0.5373680609405097 0 0  0.5869673343216626 0 0  0.6383613676634521 0 0  0.6916151138468254 0 0  0.7467958595648856 0 0  0.8039733463919316 0 0  0.8632198139502143 0 0  0.9246101326867038 0 0  0.9882218810934433 0 0  1.054135445558498 0 0  1.122434100542598 0 0  1.193204177141305 0 0  1.266535089879536 0 0  1.342519516046404 0 0  1.421253448503939 0 0  1.502836389106271 0 0  1.587371439758838 0 0  1.674965418777374 0 0  1.765729001825544 0 0  1.859776908880082 0 0  1.957227977487062 0 0  2.058205329869943 0 0  2.162836591189951 0 0  2.271253957290865 0 0  2.383594446803425 0 0  2.5 0.1024999999997612 0  2.5 0.2049999999994743 0  2.5 0.3074999999997183 0  2.383594446803656 0.41 0  2.271253957291315 0.41 0  2.162836591190598 0.41 0  2.058205329870775 0.41 0  1.957227977488067 0.41 0  1.859776908881246 0.41 0  1.765729001826854 0.41 0  1.674965418778818 0.41 0  1.58737143976041 0.41 0  1.502836389107956 0.41 0  1.421253448505726 0.41 0  1.342519516048286 0.41 0  1.266535089881505 0.41 0  1.193204177143353 0.41 0  1.122434100544716 0.41 0  1.05413544556068 0.41 0  0.9882218810956305 0.41 0  0.9246101326886647 0.41 0  0.8632198139519631 0.41 0  0.8039733463934788 0.41 0  0.7467958595662458 0.41 0  0.6916151138480078 0.41 0  0.6383613676644679 0.41 0  0.5869673343225223 0.41 0  0.5373680609412221 0.41 0  0.4895008759292634 0.41 0  0.4433053055145528 0.41 0  0.3987229542475914 0.41 0  0.3556974926297398 0.41 0  0.3141745521466497 0.41 0  0.2741016576310038 0.41 0  0.2354281840915826 0.41 0  0.1981052433265003 0.41 0  0.1620856860352591 0.41 0  0.1273239957535623 0.41 0  0.09377624077128965 0.41 0  0.06140001986584975 0.41 0  0.03015443760436654 0.41 0  0.2497468076502589 0.2050254481002335 0  0.2497468076502614 0.1949745518997913 0  0.2469965252529372 0.1829317073451959 0  0.2439893735792749 0.1762316384219906 0  0.2400332147834255 0.1700443375285386 0  0.2352133972704371 0.1645032867342007 0  0.2296339016332438 0.1597280261969788 0  0.2234150974217223 0.1558215752574715 0  0.2166911463437691 0.1528682099456123 0  0.2096071079204251 0.1509316448471593 0  0.2023158100364996 0.1500536585536553 0  0.194974551899914 0.1502531923497262 0  0.1877417105387872 0.1515259415822739 0  0.1807733240461124 0.153844448527136 0  0.1742197252835808 0.15715869474974 0  0.1682222986673531 0.1613971801805478 0  0.162910430003803 0.1664684656256651 0  0.1583987151779087 0.1722631454351573 0  0.1547844879126891 0.178656207771761 0  0.1521457199348551 0.1855097315605723 0  0.1505393388476355 0.1926758619366523 0  0.1505393388476328 0.2073241380633295 0  0.1521457199348437 0.2144902684393899 0  0.1547844879126531 0.221343792228163 0  0.1583987151778488 0.2277368545647528 0  0.1629104300036858 0.2335315343742052 0  0.1682222986671726 0.2386028198193036 0  0.1742197252833576 0.2428413052501257 0  0.1807733240458683 0.2461555514727623 0  0.1877417105384929 0.2484740584176516 0  0.1949745518995776 0.2497468076502398 0  0.202315810036185 0.2499463414463592 0  0.2096071079201568 0.2490683551528932 0  0.2166911463435495 0.2471317900544655 0  0.2234150974215506 0.2441784247426195 0  0.2296339016331197 0.2402719738031125 0  0.2352133972703547 0.2354967132658811 0  0.2400332147833751 0.2299556624715287 0  0.2439893735792577 0.2237683615780412 0  0.246996525252926 0.2170682926548348 0  0.25645809709277 0.21 0  0.2639263993298655 0.21 0  0.271394701566961 0.21 0  0.2788630038040554 0.21 0  0.2863313060411479 0.21 0  0.2937996082782405 0.21 0  0.301267910515333 0.21 0  0.3087362127524279 0.21 0  0.3162045149895234 0.21 0  0.3236728172265972 0.21 0  0.3311411194636928 0.21 0  0.3386094217007701 0.21 0  0.3460777239378666 0.21 0  0.3535460261749672 0.21 0  0.3610143284120516 0.21 0  0.3684826306491596 0.21 0  0.3759509328862226 0.21 0  0.383419235123329 0.21 0  0.3908875373604028 0.21 0  0.3983558395975142 0.21 0  0.4058241418345938 0.21 0  0.4132924440716992 0.21 0  0.4207607463087888 0.21 0  0.4282290485459029 0.21 0  0.4356973507830418 0.21 0  0.4431656530201649 0.21 0  0.4506339552573136 0.21 0  0.4581022574944306 0.21 0  0.4655705597315852 0.21 0  0.4730388619686996 0.21 0  0.480507164205851 0.21 0  0.4879754664429498 0.21 0  0.4954437686800938 0.21 0  0.502912070917267 0.21 0  0.5103803731544119 0.21 0  0.5178486753915261 0.21 0  0.5253169776286404 0.21 0  0.5327852798657868 0.21 0  0.5402535821029386 0.21 0  0.54772188434007 0.21 0  0.5551901865771842 0.21 0  0.5626584888143201 0.21 0  0.5701267910514778 0.21 0  0.5775950932886138 0.21 0  0.5850633955257281 0.21 0  0.5925316977628483 0.21 0  0.6 0.2050000000000054 0  0.6 0.1950000000000217 0  0.5925316977628897 0.19 0  0.5850633955257988 0.19 0  0.5775950932887378 0.19 0  0.5701267910515998 0.19 0  0.5626584888145268 0.19 0  0.5551901865773963 0.19 0  0.547721884340339 0.19 0  0.5402535821032429 0.19 0  0.5327852798661811 0.19 0  0.5253169776290537 0.19 0  0.5178486753919799 0.19 0  0.5103803731549078 0.19 0  0.502912070917822 0.19 0  0.4954437686807294 0.19 0  0.4879754664436223 0.19 0  0.4805071642065402 0.19 0  0.4730388619694271 0.19 0  0.4655705597323621 0.19 0  0.4581022574952563 0.19 0  0.4506339552581777 0.19 0  0.4431656530210671 0.19 0  0.4356973507839815 0.19 0  0.4282290485468779 0.19 0  0.4207607463097617 0.19 0  0.4132924440726327 0.19 0  0.4058241418354857 0.19 0  0.3983558395983636 0.19 0  0.3908875373612097 0.19 0  0.3834192351240934 0.19 0  0.3759509328869369 0.19 0  0.3684826306498175 0.19 0  0.361014328412667 0.19 0  0.3535460261755617 0.19 0  0.3460777239384295 0.19 0  0.3386094217012945 0.19 0  0.3311411194641595 0.19 0  0.3236728172270245 0.19 0  0.3162045149898895 0.19 0  0.3087362127527544 0.19 0  0.3012679105156187 0.19 0  0.2937996082784807 0.19 0  0.2863313060413428 0.19 0  0.2788630038042048 0.19 0  0.2713947015670686 0.19 0  0.2639263993299336 0.19 0  0.2564580970927985 0.19 0  0.2607803159922026 0.2000727136295815 0  0.5887803774232762 0.2001272386983733 0  0.5745072403740523 0.2002044435018727 0  0.5511891430099709 0.2001122610077113 0  0.2751288526855082 0.20000000000002 0  0.5365194309847112 0.1999999999999436 0  0.2894621222999649 0.1998691686390484 0  0.5215828265105155 0.1999999999999228 0  0.3127789816668748 0.1998657885438805 0  0.3274069683451451 0.2000000000000796 0  0.5066462220363641 0.199999999999908 0  0.3650630746574081 0.199866017807523 0  0.476773013087985 0.1999999999998713 0  0.3417402379596385 0.1998691686391011 0  0.3796850840047755 0.200000000000134 0  0.4618364086138087 0.1999999999998546 0  0.4917096175621762 0.1999999999998808 0  0.3946216884789568 0.2000000000001512 0  0.446899804139621 0.1999999999998389 0  0.4089549580935208 0.1998691686391595 0  0.4322718174608562 0.200127451265745 0  0.4201487168029707 0.1999966199048527 0  0.3528922713220932 0.2000185703532356 0  0.5633122436674589 0.1999814296467508 0  0.3006558810093873 0.1999966199048318 0  0.5815926498168407 0.1966545283159175 0  0.2677053789419034 0.1964246479135325 0  0.5290511287476175 0.1970915826863981 0  0.5439877332217911 0.197091582686394 0  0.2825131256993216 0.2035478995978015 0  0.3199386661080599 0.202908417313604 0  0.4842413153250809 0.1970915826863873 0  0.5141145242734466 0.1970915826863843 0  0.3722167817676917 0.2029084173136195 0  0.4693047108508938 0.1970915826863783 0  0.3348752705822316 0.202908417313609 0  0.3871533862418661 0.2029084173136212 0  0.4543681063767183 0.1970915826863795 0  0.4991779197992749 0.1970915826863902 0  0.4020059614928624 0.203547899597858 0  0.4394315019025246 0.1970915826863714 0  0.2550657455369551 0.2034088125358657 0  0.2548908499171161 0.1966940311614271 0  0.5946539510196798 0.2024302972968126 0  0.267698176732111 0.2039977513680092 0  0.4261685417851465 0.196409292431739 0  0.3590076176283495 0.196411355804271 0  0.5571672426447437 0.2036011176410121 0  0.3066757059912147 0.1964092924317024 0  0.594380730180568 0.1966558399668133 0  0.4842413153245942 0.2040749161535287 0  0.4693047108503577 0.2040749161535231 0  0.3871533862424271 0.1959250838464788 0  0.372246743208829 0.1959123236376545 0  0.5141145242731028 0.2040749161535395 0  0.4543681063761134 0.2040749161535186 0  0.4019979587101454 0.1959834479682427 0  0.4394608940728603 0.2040870543693135 0  0.5439623148931173 0.2040856076781014 0  0.5290511287473298 0.2040749161535501 0  0.4991779197988497 0.2040749161535382 0  0.3347912413592433 0.1959225448935183 0  0.3199680582793816 0.1959123018030061 0  0.2825051229162361 0.1959834479681729 0  0.3590471196690275 0.2036304442587945 0  0.5571594006495384 0.1963685282145804 0  0.3067669986803285 0.203627750582736 0  0.4262598344738712 0.2036568242185335 0  0.5814408164431408 0.2041285596160068 0  0.5688286748170428 0.1961819304477386 0  0.4145905603063645 0.2038180695522843 0  0.3473758401724931 0.2038180695522752 0  0.2950977245128307 0.2038180695522663 0  0.5688286748170693 0.203818069552238 0  0.2950977245127906 0.1961819304477774 0  0.3473758401723931 0.1961819304478349 0  0.4145905603061963 0.1961819304479011 0  0.2601812407614425 0.2056861609747042
[...]
<PointData  Vectors="f_40-1"> 
<DataArray  type="Float64"  Name="f_40-1"  NumberOfComponents="3" format="ascii">0.0000000000000000e+00 0.0000000000000000e+00 0.0000000000000000e+00  0.0000000000000000e+00 0.0000000000000000e+00 0.0000000000000000e+00  0.0000000000000000e+00 0.0000000000000000e+00 0.0000000000000000e+00  0.0000000000000000e+00 0.0000000000000000e+00 0.0000000000000000e+00  5.0154461414179632e-05 7.8447829122784839e-04 0.0000000000000000e+00  -3.9294374866481952e-06 7.8371721574978573e-04 0.0000000000000000e+00  0.0000000000000000e+00 0.0000000000000000e+00 0.0000000000000000e+00  0.0000000000000000e+00 0.0000000000000000e+00 0.0000000000000000e+00  0.0000000000000000e+00 0.0000000000000000e+00 0.0000000000000000e+00  0.0000000000000000e+00 0.0000000000000000e+00 0.0000000000000000e+00  2.2781121430059382e-05 7.8409342611094051e-04 0.0000000000000000e+00  0.0000000000000000e+00 0.0000000000000000e+00 0.0000000000000000e+00  0.0000000000000000e+00 0.0000000000000000e+00 0.0000000000000000e+00  0.0000000000000000e+00 0.0000000000000000e+00 0.0000000000000000e+00  0.0000000000000000e+00 0.0000000000000000e+00 0.0000000000000000e+00  0.0000000000000000e+00 0.0000000000000000e+00 0.0000000000000000e+00  0.0000000000000000e+00 0.0000000000000000e+00 0.0000000000000000e+00  0.0000000000000000e+00 0.0000000000000000e+00 0.0000000000000000e+00  0.0000000000000000e+00 0.0000000000000000e+00 0.0000000000000000e+00  0.0000000000000000e+00 0.0000000000000000e+00 0.0000000000000000e+00  0.0000000000000000e+00 0.0000000000000000e+00 0.0000000000000000e+00  0.0000000000000000e+00 0.0000000000000000e+00 0.0000000000000000e+00  0.0000000000000000e+00 0.0000000000000000e+00 0.0000000000000000e+00  0.0000000000000000e+00 0.0000000000000000e+00 0.0000000000000000e+00  0.0000000000000000e+00 0.0000000000000000e+00 0.0000000000000000e+00  0.0000000000000000e+00 0.0000000000000000e+00 0.0000000000000000e+00  0.0000000000000000e+00 0.0000000000000000e+00 0.0000000000000000e+00  0.0000000000000000e+00 0.0000000000000000e+00 0.0000000000000000e+00  0.0000000000000000e+00 0.0000000000000000e+00 0.0000000000000000e+00  0.0000000000000000e+00 0.0000000000000000e+00 0.0000000000000000e+00  0.0000000000000000e+00 0.0000000000000000e+00 0.0000000000000000e+00  0.0000000000000000e+00 0.0000000000000000e+00 0.0000000000000000e+00  0.0000000000000000e+00 0.0000000000000000e+00 0.0000000000000000e+00  0.0000000000000000e+00 0.0000000000000000e+00 0.0000000000000000e+00  0.0000000000000000e+00 0.0000000000000000e+00 0.0000000000000000e+00  0.0000000000000000e+00 0.0000000000000000e+00 0.0000000000000000e+00  0.0000000000000000e+00 0.0000000000000000e+00 0.0000000000000000e+00  0.0000000000000000e+00 0.0000000000000000e+00 0.0000000000000000e+00  0.0000000000000000e+00 0.0000000000000000e+00 0.0000000000000000e+00  0.0000000000000000e+00 0.0000000000000000e+00 0.0000000000000000e+00  0.0000000000000000e+00 0.0000000000000000e+00 0.0000000000000000e+00  0.0000000000000000e+00 0.0000000000000000e+00 0.0000000000000000e+00  0.0000000000000000e+00 0.0000000000000000e+00 0.0000000000000000e+00  0.0000000000000000e+00 0.0000000000000000e+00 0.0000000000000000e+00  0.0000000000000000e+00 0.0000000000000000e+00 0.0000000000000000e+00  0.0000000000000000e+00 0.0000000000000000e+00 0.0000000000000000e+00  0.0000000000000000e+00 0.0000000000000000e+00 0.0000000000000000e+00  0.0000000000000000e+00 0.0000000000000000e+00 0.0000000000000000e+00  0.0000000000000000e+00 0.0000000000000000e+00 0.0000000000000000e+00  0.0000000000000000e+00 0.0000000000000000e+00 0.0000000000000000e+00  0.0000000000000000e+00 0.0000000000000000e+00 0.0000000000000000e+00  0.0000000000000000e+00 0.0000000000000000e+00 0.0000000000000000e+00  0.0000000000000000e+00 0.0000000000000000e+00 0.0000000000000000e+00  0.0000000000000000e+00 0.0000000000000000e+00 0.0000000000000000e+00  0.0000000000000000e+00 0.0000000000000000e+00 0.0000000000000000e+00  0.0000000000000000e+00 0.0000000000000000e+00 0.0000000000000000e+00  0.0000000000000000e+00 0.0000000000000000e+00 0.0000000000000000e+00  0.0000000000000000e+00 0.0000000000000000e+00 0.0000000000000000e+00  0.0000000000000000e+00 0.0000000000000000e+00 0.0000000000000000e+00  0.0000000000000000e+00 0.0000000000000000e+00 0.0000000000000000e+00  0.0000000000000000e+00 0.0000000000000000e+00 0.0000000000000000e+00  0.0000000000000000e+00 0.0000000000000000e+00 0.0000000000000000e+00  0.0000000000000000e+00 0.0000000000000000e+00 0.0000000000000000e+00  0.0000000000000000e+00 0.0000000000000000e+00 0.0000000000000000e+00  0.0000000000000000e+00 0.0000000000000000e+00 0.0000000000000000e+00  0.0000000000000000e+00 0.0000000000000000e+00 0.0000000000000000e+00  0.0000000000000000e+00 0.0000000000000000e+00 0.0000000000000000e+00  0.0000000000000000e+00 0.0000000000000000e+00 0.0000000000000000e+00  0.0000000000000000e+00 0.0000000000000000e+00 0.0000000000000000e+00  0.0000000000000000e+00 0.0000000000000000e+00 0.0000000000000000e+00  0.0000000000000000e+00 0.0000000000000000e+00 0.0000000000000000e+00  0.0000000000000000e+00 0.0000000000000000e+00 0.0000000000000000e+00  0.0000000000000000e+00 0.0000000000000000e+00 0.0000000000000000e+00  0.0000000000000000e+00 0.0000000000000000e+00 0.0000000000000000e+00  0.0000000000000000e+00 0.0000000000000000e+00 0.0000000000000000e+00  0.0000000000000000e+00 0.0000000000000000e+00 0.0000000000000000e+00  0.0000000000000000e+00 0.0000000000000000e+00 0.0000000000000000e+00  0.0000000000000000e+00 0.0000000000000000e+00 0.0000000000000000e+00  0.0000000000000000e+00 0.0000000000000000e+00 0.0000000000000000e+00  0.0000000000000000e+00 0.0000000000000000e+00 0.0000000000000000e+00  0.0000000000000000e+00 0.0000000000000000e+00 0.0000000000000000e+00  0.0000000000000000e+00 0.0000000000000000e+00 0.0000000000000000e+00  0.0000000000000000e+00 0.0000000000000000e+00 0.0000000000000000e+00  0.0000000000000000e+00 0.0000000000000000e+00 0.0000000000000000e+00  0.0000000000000000e+00 0.0000000000000000e+00 0.0000000000000000e+00  0.0000000000000000e+00 0.0000000000000000e+00 0.0000000000000000e+00  0.0000000000000000e+00 0.0000000000000000e+00 0.0000000000000000e+00  0.0000000000000000e+00 0.0000000000000000e+00 0.0000000000000000e+00  0.0000000000000000e+00 0.0000000000000000e+00 0.0000000000000000e+00  0.0000000000000000e+00 0.0000000000000000e+00 0.0000000000000000e+00  0.0000000000000000e+00 0.0000000000000000e+00 0.0000000000000000e+00  0.0000000000000000e+00 0.0000000000000000e+00 0.0000000000000000e+00  0.0000000000000000e+00 0.0000000000000000e+00 0.0000000000000000e+00  0.0000000000000000e+00 0.0000000000000000e+00 0.0000000000000000e+00  0.0000000000000000e+00 0.0000000000000000e+00 0.0000000000000000e+00  0.0000000000000000e+00 0.0000000000000000e+00 0.0000000000000000e+00  0.0000000000000000e+00 0.0000000000000000e+00 0.0000000000000000e+00  0.0000000000000000e+00 0.0000000000000000e+00 0.0000000000000000e+00  0.0000000000000000e+00 0.0000000000000000e+00 0.0000000000000000e+00  0.0000000000000000e+00 0.0000000000000000e+00 0.0000000000000000e+00  0.0000000000000000e+00 0.0000000000000000e+00 0.0000000000000000e+00  0.0000000000000000e+00 0.0000000000000000e+00 0.0000000000000000e+00  0.0000000000000000e+00 0.0000000000000000e+00 0.0000000000000000e+00  0.0000000000000000e+00 0.0000000000000000e+00 0.0000000000000000e+00  0.0000000000000000e+00 0.0000000000000000e+00 0.0000000000000000e+00  0.0000000000000000e+00 0.0000000000000000e+00 0.0000000000000000e+00  0.0000000000000000e+00 0.0000000000000000e+00 0.0000000000000000e+00  0.0000000000000000e+00 0.0000000000000000e+00 0.0000000000000000e+00  0.0000000000000000e+00 0.0000000000000000e+00 0.0000000000000000e+00  0.0000000000000000e+00 0.0000000000000000e+00 0.0000000000000000e+00  0.0000000000000000e+00 0.0000000000000000e+00 0.0000000000000000e+00  0.0000000000000000e+00 0.0000000000000000e+00 0.0000000000000000e+00  0.0000000000000000e+00 0.0000000000000000e+00 0.0000000000000000e+00  0.0000000000000000e+00 0.0000000000000000e+00 0.0000000000000000e+00  0.0000000000000000e+00 0.0000000000000000e+00 0.0000000000000000e+00  0.0000000000000000e+00 0.0000000000000000e+00 0.0000000000000000e+00  0.0000000000000000e+00 0.0000000000000000e+00 0.0000000000000000e+00  0.0000000000000000e+00 0.0000000000000000e+00 0.0000000000000000e+00  0.0000000000000000e+00 0.0000000000000000e+00 0.0000000000000000e+00  0.0000000000000000e+00 0.0000000000000000e+00 0.0000000000000000e+00  0.0000000000000000e+00 0.0000000000000000e+00 0.0000000000000000e+00  0.0000000000000000e+00 0.0000000000000000e+00 0.0000000000000000e+00  0.0000000000000000e+00 0.0000000000000000e+00 0.0000000000000000e+00  0.0000000000000000e+00 0.0000000000000000e+00 0.0000000000000000e+00  0.0000000000000000e+00 0.0000000000000000e+00 0.0000000000000000e+00  0.0000000000000000e+00 0.0000000000000000e+00 0.0000000000000000e+00  0.0000000000000000e+00 0.0000000000000000e+00 0.0000000000000000e+00  0.0000000000000000e+00 0.0000000000000000e+00 0.0000000000000000e+00  0.0000000000000000e+00 0.0000000000000000e+00 0.0000000000000000e+00  0.0000000000000000e+00 0.0000000000000000e+00 0.0000000000000000e+00  0.0000000000000000e+00 0.0000000000000000e+00 0.0000000000000000e+00  0.0000000000000000e+00 0.0000000000000000e+00 0.0000000000000000e+00  0.0000000000000000e+00 0.0000000000000000e+00 0.0000000000000000e+00  0.0000000000000000e+00 0.0000000000000000e+00 0.0000000000000000e+00  0.0000000000000000e+00 0.0000000000000000e+00 0.0000000000000000e+00  0.0000000000000000e+00 0.0000000000000000e+00 0.0000000000000000e+00  0.0000000000000000e+00 0.0000000000000000e+00 0.0000000000000000e+00  0.0000000000000000e+00 0.0000000000000000e+00 0.0000000000000000e+00  0.0000000000000000e+00 0.0000000000000000e+00 0.0000000000000000e+00  0.0000000000000000e+00 0.0000000000000000e+00 0.0000000000000000e+00  0.0000000000000000e+00 0.0000000000000000e+00 0.0000000000000000e+00  0.0000000000000000e+00 0.0000000000000000e+00 0.0000000000000000e+00  0.0000000000000000e+00 0.0000000000000000e+00 0.0000000000000000e+00  -1.8158127069008877e-06 1.3555808110158913e-06 0.0000000000000000e+00  -3.6228615587979654e-06 4.2548758253651546e-06 0.0000000000000000e+00  -5.2072617146313046e-06 8.9162098496094765e-06 0.0000000000000000e+00  -6.5846821213598955e-06 1.5171848538629607e-05 0.0000000000000000e+00  -7.7842571888618927e-06 2.2885047021235211e-05 0.0000000000000000e+00  -8.8150369642142918e-06 3.1938833698239999e-05 0.0000000000000000e+00  -9.6866546645207243e-06 4.2210336869592718e-05 0.0000000000000000e+00  -1.0422166137191037e-05 5.3594827055424670e-05 0.0000000000000000e+00  -1.1018653923222659e-05 6.5995111615635294e-05 0.0000000000000000e+00  -1.1492421700116839e-05 7.9307336099389847e-05 0.0000000000000000e+00  -1.1852019132087385e-05 9.3449693868586658e-05 0.0000000000000000e+00  -1.2109968649721410e-05 1.0833351312095040e-04 0.0000000000000000e+00  -1.2272729451674706e-05 1.2388845808538278e-04 0.0000000000000000e+00  -1.2349381666835045e-05 1.4003899518296253e-04 0.0000000000000000e+00  -1.2355358772627397e-05 1.5672354986486243e-04 0.0000000000000000e+00  -1.2290827377993120e-05 1.7388596111128770e-04 0.0000000000000000e+00  -1.2167125762048992e-05 1.9146737995528128e-04 0.0000000000000000e+00  -1.1990275787715848e-05 2.0942241577904053e-04 0.0000000000000000e+00  -1.1768858727097482e-05 2.2770270495992871e-04 0.0000000000000000e+00  -1.1507798629574675e-05 2.4627117025347798e-04 0.0000000000000000e+00  -1.1214480428039898e-05 2.6508893565771273e-04 0.0000000000000000e+00  -1.0893293056952387e-05 2.8412469101664984e-04 0.0000000000000000e+00  -1.0549655137052198e-05 3.0334746918487274e-04 0.0000000000000000e+00  -1.0190985487745969e-05 3.2273197265428539e-04 0.0000000000000000e+00  -9.8186031922614029e-06 3.4225605206808653e-04 0.0000000000000000e+00  -9.4380874811128334e-06 3.6189769890703551e-04 0.0000000000000000e+00  -9.0528570058983580e-06 3.8163919530107411e-04 0.0000000000000000e+00  -8.6669308806682516e-06 4.0146468551034026e-04 0.0000000000000000e+00  -8.2830703649579282e-06 4.2136044106670786e-04 0.0000000000000000e+00  -7.9046924535584865e-06 4.4131455263751284e-04 0.0000000000000000e+00  -7.5340759586625549e-06 4.6131687033109796e-04 0.0000000000000000e+00  -7.1740746173417653e-06 4.8135872135296828e-04 0.0000000000000000e+00  -6.8265717431746155e-06 5.0143287093912508e-04 0.0000000000000000e+00  -6.4938998063586034e-06 5.2153325630118917e-04 0.0000000000000000e+00  -6.1776279065270749e-06 5.4165493676938984e-04 0.0000000000000000e+00  -5.8796539820447428e-06 5.6179392066306076e-04 0.0000000000000000e+00  -5.6012452211464235e-06 5.8194705221692174e-04 0.0000000000000000e+00  -5.3439586774407230e-06 6.0211189358187051e-04 0.0000000000000000e+00  -5.1088136625260311e-06 6.2228660875727712e-04 0.0000000000000000e+00  -4.8970947881918557e-06 6.4246986781564129e-04 0.0000000000000000e+00  -4.7096242641981173e-06 6.6266074108941621e-04 0.0000000000000000e+00  -4.5475221922620950e-06 6.8285863262858250e-04 0.0000000000000000e+00  -4.4117669978192870e-06 7.0306333179239594e-04 0.0000000000000000e+00  -4.3031606118217118e-06 7.2327588433413977e-04 0.0000000000000000e+00  -4.2168437614122558e-06 7.4349873122106361e-04 0.0000000000000000e+00  -4.1212133011722911e-06 7.6371274907054967e-04 0.0000000000000000e+00  9.3217425760192932e-06 7.8391326323434634e-04 0.0000000000000000e+00  3.6364010536921819e-05 7.8427240492426472e-04 0.0000000000000000e+00  4.9960610117403379e-05 7.6408677225688613e-04 0.0000000000000000e+00  4.9850389398451355e-05 7.4391573731365896e-04 0.0000000000000000e+00  4.9751886043150693e-05 7.2376414912912821e-04 0.0000000000000000e+00  4.9629503425080650e-05 7.0361163902419102e-04 0.0000000000000000e+00  4.9478306276622421e-05 6.8346182558376694e-04 0.0000000000000000e+00  4.9299241977202012e-05 6.6331672309885667e-04 0.0000000000000000e+00  4.9092853124971529e-05 6.4317711338378824e-04 0.0000000000000000e+00  4.8859569540726126e-05 6.2304388161992419e-04 0.0000000000000000e+00  4.8599437656589829e-05 6.0291796649799558e-04 0.0000000000000000e+00  4.8312371385711986e-05 5.8280090366956839e-04 0.0000000000000000e+00  4.7998150536577449e-05 5.6269440261568393e-04 0.0000000000000000e+00  4.7656272405401234e-05 5.4260115482453045e-04 0.0000000000000000e+00  4.7286278923155305e-05 5.2252403058387887e-04 0.0000000000000000e+00  4.6887248103173518e-05 5.0246737758135381e-04 0.0000000000000000e+00  4.6458475723669321e-05 4.8243567168222690e-04 0.0000000000000000e+00  4.5998608904157085e-05 4.6243545514063018e-04 0.0000000000000000e+00  4.5506679462316375e-05 4.4247329000915962e-04 0.0000000000000000e+00  4.4980879619280280e-05 4.2255852941416346e-04 0.0000000000000000e+00  4.4419957439377234e-05 4.0270036232529697e-04 0.0000000000000000e+00  4.3821598754728584e-05 3.8291164437386703e-04 0.0000000000000000e+00  4.3184240071811665e-05 3.6320481375035567e-04 0.0000000000000000e+00  4.2505065764560817e-05 3.4359690111674659e-04 0.0000000000000000e+00  4.1781941769537042e-05 3.2410449350046979e-04 0.0000000000000000e+00  4.1010768177380805e-05 3.0474991016332984e-04 0.0000000000000000e+00  4.0191639722567917e-05 2.8555516392283792e-04 0.0000000000000000e+00  3.9318682002471104e-05 2.6654535575004951e-04 0.0000000000000000e+00  3.8388332118058897e-05 2.4775098679700813e-04 0.0000000000000000e+00  3.7397678424899444e-05 2.2920435742099270e-04 0.0000000000000000e+00  3.6341748870304618e-05 2.1094195892711585e-04 0.0000000000000000e+00  3.5216800873313477e-05 1.9300392106896613e-04 0.0000000000000000e+00  3.4017347593389343e-05 1.7543488375649106e-04 0.0000000000000000e+00  3.2738659551060642e-05 1.5828296176606548e-04 0.0000000000000000e+00  3.1372652259943956e-05 1.4160537280738649e-04 0.0000000000000000e+00  2.9921111404892608e-05 1.2545856681096904e-04 0.0000000000000000e+00  2.8371277024827330e-05 1.0990436120910932e-04 0.0000000000000000e+00  2.6717391269446681e-05 9.5015893313330383e-05 0.0000000000000000e+00  2.4954532874515494e-05 8.0868404576412261e-05 0.0000000000000000e+00  2.3074614046012947e-05 6.7544234836038625e-05 0.0000000000000000e+00  2.1070687943293325e-05 5.5130506799862312e-05 0.0000000000000000e+00  1.8931034798918754e-05 4.3728444950255594e-05 0.0000000000000000e+00  1.6660314187556017e-05 3.3436145340636603e-05 0.0000000000000000e+00  1.4238906236611434e-05 2.4359282466083372e-05 0.0000000000000000e+00  1.1659629952028772e-05 1.6621148364269582e-05 0.0000000000000000e+00  8.9170425044411859e-06 1.0347357463798700e-05 0.0000000000000000e+00  6.0182803716969308e-06 5.6717001748900455e-06 0.0000000000000000e+00  3.0529630311898549e-06 2.6252314453702854e-06 0.0000000000000000e+00  8.3585007367802813e-07 2.4049647235673697e-06 0.0000000000000000e+00  2.2414537597454694e-05 7.5375217068208132e-04 0.0000000000000000e+00  2.2069594838478507e-05 7.1516631867216997e-04 0.0000000000000000e+00  2.1835647364820949e-05 6.5217632203038746e-04 0.0000000000000000e+00  2.1994878556632437e-06 1.1649259162731744e-05 0.0000000000000000e+00  2.1702890357388040e-05 6.1258306146482150e-04 0.0000000000000000e+00  3.6727955427033808e-06 2.6495480635333165e-05 0.0000000000000000e+00  2.1160454612212384e-05 5.7229903648133192e-04 0.0000000000000000e+00  5.9199321579705587e-06 6.0388330899322271e-05 0.0000000000000000e+00  7.0719339864773262e-06 8.6584818658740119e-05 0.0000000000000000e+00  2.0522465623286697e-05 5.3206337953361172e-04 0.0000000000000000e+00  1.0841101565120726e-05 1.6648727626216087e-04 0.0000000000000000e+00  1.8974861419516798e-05 4.5185160191578579e-04 0.0000000000000000e+00  8.6762275557250121e-06 1.1518337489239133e-04 0.0000000000000000e+00  1.1825683440281274e-05 2.0095112662341807e-04 0.0000000000000000e+00  1.8072929666676865e-05 4.1197238005689896e-04 0.0000000000000000e+00  1.9792684431911652e-05 4.9190115162836372e-04 0.0000000000000000e+00  1.3099307196639730e-05 2.3753368269853559e-04 0.0000000000000000e+00  1.7091153550928228e-05 3.7234429657495371e-04 0.0000000000000000e+00  1.4603139830487837e-05 2.7364993985432354e-04 0.0000000000000000e+00  1.5724534877033524e-05 3.3387481728985868e-04 0.0000000000000000e+00  1.5157058083110811e-05 3.0236668783558388e-04 0.0000000000000000e+00  9.3935548614491432e-06 1.3905577398037417e-04 0.0000000000000000e+00  2.2473516646695054e-05 6.8492307476129952e-04 0.0000000000000000e+00  4.5687053113737443e-06 4.1404215505979881e-05 0.0000000000000000e+00  3.1762091996116913e-05 7.3439563995163009e-04 0.0000000000000000e+00  3.6081628600281037e-06 6.5009462915982867e-06 0.0000000000000000e+00  2.9289994661355179e-05 5.9255734864355962e-04 0.0000000000000000e+00  2.9790926238290542e-05 6.3284517386398705e-04 0.0000000000000000e+00  -6.5148421352211338e-07 1.8496927727644849e-05 0.0000000000000000e+00  1.2657155190525225e-06 7.2609875234456967e-05 0.0000000000000000e+00  2.7188555406403782e-05 4.7202068624580895e-04 0.0000000000000000e+00  2.8688256621154885e-05 5.5230896462723676e-04 0.0000000000000000e+00  4.3733161352124324e-06 1.8295227202436837e-04 0.0000000000000000e+00  2.6291645756988616e-05 4.3206039437975943e-04 0.0000000000000000e+00  2.0417440310236975e-06 1.0096616947244729e-04 0.0000000000000000e+00  5.3920143864825552e-06 2.1888751055174372e-04 0.0000000000000000e+00  2.5296231037957991e-05 3.9230722317173830e-04 0.0000000000000000e+00  2.7987477738163386e-05 5.1211951085972530e-04 0.0000000000000000e+00  4.8164992727055753e-06 2.5578689729374189e-04 0.0000000000000000e+00  2.4201153095408418e-05 3.5285549348493608e-04 0.0000000000000000e+00  -1.9959187969884831e-07 4.3947894159860950e-07 0.0000000000000000e+00  8.4458604036405349e-07 7.7757304531184484e-07 0.0000000000000000e+00  1.6201909716004787e-05 7.6959556919396917e-04 0.0000000000000000e+00  -8.1812246970247484e-07 5.9776576168948852e-06 0.0000000000000000e+00  2.4913050498934448e-05 3.1822923144208772e-04 0.0000000000000000e+00  1.7999634496642633e-05 1.529