<?xml version="1.0"?>
<VTKFile type="UnstructuredGrid"  version="0.1"  >
<UnstructuredGrid>
<Piece  NumberOfPoints="1419" NumberOfCells="2698">
<Points>
<DataArray  type="Float64"  NumberOfComponents="3"  format="ascii">0 0 0  0 0.41 0  2.5 0 0  2.5 0.41 0  0.6 0.19 0  0.6 0.21 0  0.25 0.2 0  0.15 0.2 0  0.2489897948556636 0.21 0  0.2489897948556636 0.19 0  0.6 0.2 0  0 0.3807142857143437 0  0 0.3514285714286952 0  0 0.3221428571430699 0  0 0.29285714285744 0  0 0.2635714285718054 0  0 0.2342857142861561 0  0 0.2050000000005308 0  0 0.175714285714732 0  0 0.1464285714289574 0  0 0.1171428571431897 0  0 0.08785714285737878 0  0 0.05857142857161107 0  0 0.02928571428580012 0  0.03015443760436003 0 0  0.06140001986583606 0 0  0.09377624077125973 0 0  0.1273239957535082 0 0  0.1620856860351972 0 0  0.1981052433264291 0 0  0.235428184091502 0 0  0.2741016576309132 0 0  0.3141745521465447 0 0  0.3556974926295285 0 0  0.3987229542472677 0 0  0.4433053055141081 0 0  0.4895008759286886 0 0  0.5373680609405097 0 0  0.5869673343216626 0 0  0.6383613676634521 0 0  0.6916151138468254 0 0  0.7467958595648856 0 0  0.8039733463919316 0 0  0.8632198139502143 0 0  0.9246101326867038 0 0  0.9882218810934433 0 0  1.054135445558498 0 0  1.122434100542598 0 0  1.193204177141305 0 0  1.266535089879536 0 0  1.342519516046404 0 0  1.421253448503939 0 0  1.502836389106271 0 0  1.587371439758838 0 0  1.674965418777374 0 0  1.765729001825544 0 0  1.859776908880082 0 0  1.957227977487062 0 0  2.058205329869943 0 0  2.162836591189951 0 0  2.271253957290865 0 0  2.383594446803425 0 0  2.5 0.1024999999997612 0  2.5 0.2049999999994743 0  2.5 0.3074999999997183 0  2.383594446803656 0.41 0  2.271253957291315 0.41 0  2.162836591190598 0.41 0  2.058205329870775 0.41 0  1.957227977488067 0.41 0  1.859776908881246 0.41 0  1.765729001826854 0.41 0  1.674965418778818 0.41 0  1.58737143976041 0.41 0  1.502836389107956 0.41 0  1.421253448505726 0.41 0  1.342519516048286 0.41 0  1.266535089881505 0.41 0  1.193204177143353 0.41 0  1.122434100544716 0.41 0  1.05413544556068 0.41 0  0.9882218810956305 0.41 0  0.9246101326886647 0.41 0  0.8632198139519631 0.41 0  0.8039733463934788 0.41 0  0.7467958595662458 0.41 0  0.6916151138480078 0.41 0  0.6383613676644679 0.41 0  0.5869673343225223 0.41 0  0.5373680609412221 0.41 0  0.4895008759292634 0.41 0  0.4433053055145528 0.41 0  0.3987229542475914 0.41 0  0.3556974926297398 0.41 0  0.3141745521466497 0.41 0  0.2741016576310038 0.41 0  0.2354281840915826 0.41 0  0.1981052433265003 0.41 0  0.1620856860352591 0.41 0  0.1273239957535623 0.41 0  0.09377624077128965 0.41 0  0.06140001986584975 0.41 0  0.03015443760436654 0.41 0  0.2497468076502589 0.2050254481002335 0  0.2497468076502614 0.1949745518997913 0  0.2469965252529372 0.1829317073451959 0  0.2439893735792749 0.1762316384219906 0  0.2400332147834255 0.1700443375285386 0  0.2352133972704371 0.1645032867342007 0  0.2296339016332438 0.1597280261969788 0  0.2234150974217223 0.1558215752574715 0  0.2166911463437691 0.1528682099456123 0  0.2096071079204251 0.1509316448471593 0  0.2023158100364996 0.1500536585536553 0  0.194974551899914 0.1502531923497262 0  0.1877417105387872 0.1515259415822739 0  0.1807733240461124 0.153844448527136 0  0.1742197252835808 0.15715869474974 0  0.1682222986673531 0.1613971801805478 0  0.162910430003803 0.1664684656256651 0  0.1583987151779087 0.1722631454351573 0  0.1547844879126891 0.178656207771761 0  0.1521457199348551 0.1855097315605723 0  0.1505393388476355 0.1926758619366523 0  0.1505393388476328 0.2073241380633295 0  0.1521457199348437 0.2144902684393899 0  0.1547844879126531 0.221343792228163 0  0.1583987151778488 0.2277368545647528 0  0.1629104300036858 0.2335315343742052 0  0.1682222986671726 0.2386028198193036 0  0.1742197252833576 0.2428413052501257 0  0.1807733240458683 0.2461555514727623 0  0.1877417105384929 0.2484740584176516 0  0.1949745518995776 0.2497468076502398 0  0.202315810036185 0.2499463414463592 0  0.2096071079201568 0.2490683551528932 0  0.2166911463435495 0.2471317900544655 0  0.2234150974215506 0.2441784247426195 0  0.2296339016331197 0.2402719738031125 0  0.2352133972703547 0.2354967132658811 0  0.2400332147833751 0.2299556624715287 0  0.2439893735792577 0.2237683615780412 0  0.246996525252926 0.2170682926548348 0  0.25645809709277 0.21 0  0.2639263993298655 0.21 0  0.271394701566961 0.21 0  0.2788630038040554 0.21 0  0.2863313060411479 0.21 0  0.2937996082782405 0.21 0  0.301267910515333 0.21 0  0.3087362127524279 0.21 0  0.3162045149895234 0.21 0  0.3236728172265972 0.21 0  0.3311411194636928 0.21 0  0.3386094217007701 0.21 0  0.3460777239378666 0.21 0  0.3535460261749672 0.21 0  0.3610143284120516 0.21 0  0.3684826306491596 0.21 0  0.3759509328862226 0.21 0  0.383419235123329 0.21 0  0.3908875373604028 0.21 0  0.3983558395975142 0.21 0  0.4058241418345938 0.21 0  0.4132924440716992 0.21 0  0.4207607463087888 0.21 0  0.4282290485459029 0.21 0  0.4356973507830418 0.21 0  0.4431656530201649 0.21 0  0.4506339552573136 0.21 0  0.4581022574944306 0.21 0  0.4655705597315852 0.21 0  0.4730388619686996 0.21 0  0.480507164205851 0.21 0  0.4879754664429498 0.21 0  0.4954437686800938 0.21 0  0.502912070917267 0.21 0  0.5103803731544119 0.21 0  0.5178486753915261 0.21 0  0.5253169776286404 0.21 0  0.5327852798657868 0.21 0  0.5402535821029386 0.21 0  0.54772188434007 0.21 0  0.5551901865771842 0.21 0  0.5626584888143201 0.21 0  0.5701267910514778 0.21 0  0.5775950932886138 0.21 0  0.5850633955257281 0.21 0  0.5925316977628483 0.21 0  0.6 0.2050000000000054 0  0.6 0.1950000000000217 0  0.5925316977628897 0.19 0  0.5850633955257988 0.19 0  0.5775950932887378 0.19 0  0.5701267910515998 0.19 0  0.5626584888145268 0.19 0  0.5551901865773963 0.19 0  0.547721884340339 0.19 0  0.5402535821032429 0.19 0  0.5327852798661811 0.19 0  0.5253169776290537 0.19 0  0.5178486753919799 0.19 0  0.5103803731549078 0.19 0  0.502912070917822 0.19 0  0.4954437686807294 0.19 0  0.4879754664436223 0.19 0  0.4805071642065402 0.19 0  0.4730388619694271 0.19 0  0.4655705597323621 0.19 0  0.4581022574952563 0.19 0  0.4506339552581777 0.19 0  0.4431656530210671 0.19 0  0.4356973507839815 0.19 0  0.4282290485468779 0.19 0  0.4207607463097617 0.19 0  0.4132924440726327 0.19 0  0.4058241418354857 0.19 0  0.3983558395983636 0.19 0  0.3908875373612097 0.19 0  0.3834192351240934 0.19 0  0.3759509328869369 0.19 0  0.3684826306498175 0.19 0  0.361014328412667 0.19 0  0.3535460261755617 0.19 0  0.3460777239384295 0.19 0  0.3386094217012945 0.19 0  0.3311411194641595 0.19 0  0.3236728172270245 0.19 0  0.3162045149898895 0.19 0  0.3087362127527544 0.19 0  0.3012679105156187 0.19 0  0.2937996082784807 0.19 0  0.2863313060413428 0.19 0  0.2788630038042048 0.19 0  0.2713947015670686 0.19 0  0.2639263993299336 0.19 0  0.2564580970927985 0.19 0  0.2607803159922026 0.2000727136295815 0  0.5887803774232762 0.2001272386983733 0  0.5745072403740523 0.2002044435018727 0  0.5511891430099709 0.2001122610077113 0  0.2751288526855082 0.20000000000002 0  0.5365194309847112 0.1999999999999436 0  0.2894621222999649 0.1998691686390484 0  0.5215828265105155 0.1999999999999228 0  0.3127789816668748 0.1998657885438805 0  0.3274069683451451 0.2000000000000796 0  0.5066462220363641 0.199999999999908 0  0.3650630746574081 0.199866017807523 0  0.476773013087985 0.1999999999998713 0  0.3417402379596385 0.1998691686391011 0  0.3796850840047755 0.200000000000134 0  0.4618364086138087 0.1999999999998546 0  0.4917096175621762 0.1999999999998808 0  0.3946216884789568 0.2000000000001512 0  0.446899804139621 0.1999999999998389 0  0.4089549580935208 0.1998691686391595 0  0.4322718174608562 0.200127451265745 0  0.4201487168029707 0.1999966199048527 0  0.3528922713220932 0.2000185703532356 0  0.5633122436674589 0.1999814296467508 0  0.3006558810093873 0.1999966199048318 0  0.5815926498168407 0.1966545283159175 0  0.2677053789419034 0.1964246479135325 0  0.5290511287476175 0.1970915826863981 0  0.5439877332217911 0.197091582686394 0  0.2825131256993216 0.2035478995978015 0  0.3199386661080599 0.202908417313604 0  0.4842413153250809 0.1970915826863873 0  0.5141145242734466 0.1970915826863843 0  0.3722167817676917 0.2029084173136195 0  0.4693047108508938 0.1970915826863783 0  0.3348752705822316 0.202908417313609 0  0.3871533862418661 0.2029084173136212 0  0.4543681063767183 0.1970915826863795 0  0.4991779197992749 0.1970915826863902 0  0.4020059614928624 0.203547899597858 0  0.4394315019025246 0.1970915826863714 0  0.2550657455369551 0.2034088125358657 0  0.2548908499171161 0.1966940311614271 0  0.5946539510196798 0.2024302972968126 0  0.267698176732111 0.2039977513680092 0  0.4261685417851465 0.196409292431739 0  0.3590076176283495 0.196411355804271 0  0.5571672426447437 0.2036011176410121 0  0.3066757059912147 0.1964092924317024 0  0.594380730180568 0.1966558399668133 0  0.4842413153245942 0.2040749161535287 0  0.4693047108503577 0.2040749161535231 0  0.3871533862424271 0.1959250838464788 0  0.372246743208829 0.1959123236376545 0  0.5141145242731028 0.2040749161535395 0  0.4543681063761134 0.2040749161535186 0  0.4019979587101454 0.1959834479682427 0  0.4394608940728603 0.2040870543693135 0  0.5439623148931173 0.2040856076781014 0  0.5290511287473298 0.2040749161535501 0  0.4991779197988497 0.2040749161535382 0  0.3347912413592433 0.1959225448935183 0  0.3199680582793816 0.1959123018030061 0  0.2825051229162361 0.1959834479681729 0  0.3590471196690275 0.2036304442587945 0  0.5571594006495384 0.1963685282145804 0  0.3067669986803285 0.203627750582736 0  0.4262598344738712 0.2036568242185335 0  0.5814408164431408 0.2041285596160068 0  0.5688286748170428 0.1961819304477386 0  0.4145905603063645 0.2038180695522843 0  0.3473758401724931 0.2038180695522752 0  0.2950977245128307 0.2038180695522663 0  0.5688286748170693 0.203818069552238 0  0.2950977245127906 0.1961819304477774 0  0.3473758401723931 0.1961819304478349 0  0.4145905603061963 0.1961819304479011 0  0.2601812407614425 0.2056861609747042
[...]
<PointData  Vectors="f_40-1"> 
<DataArray  type="Float64"  Name="f_40-1"  NumberOfComponents="3" format="ascii">0.0000000000000000e+00 0.0000000000000000e+00 0.0000000000000000e+00  0.0000000000000000e+00 0.0000000000000000e+00 0.0000000000000000e+00  0.0000000000000000e+00 0.0000000000000000e+00 0.0000000000000000e+00  0.0000000000000000e+00 0.0000000000000000e+00 0.0000000000000000e+00  5.4514982775277920e-05 8.3962832037330680e-04 0.0000000000000000e+00  -8.0348894749141684e-06 8.3692272960697838e-04 0.0000000000000000e+00  0.0000000000000000e+00 0.0000000000000000e+00 0.0000000000000000e+00  0.0000000000000000e+00 0.0000000000000000e+00 0.0000000000000000e+00  0.0000000000000000e+00 0.0000000000000000e+00 0.0000000000000000e+00  0.0000000000000000e+00 0.0000000000000000e+00 0.0000000000000000e+00  2.2657748512714413e-05 8.3826452142839593e-04 0.0000000000000000e+00  0.0000000000000000e+00 0.0000000000000000e+00 0.0000000000000000e+00  0.0000000000000000e+00 0.0000000000000000e+00 0.0000000000000000e+00  0.0000000000000000e+00 0.0000000000000000e+00 0.0000000000000000e+00  0.0000000000000000e+00 0.0000000000000000e+00 0.0000000000000000e+00  0.0000000000000000e+00 0.0000000000000000e+00 0.0000000000000000e+00  0.0000000000000000e+00 0.0000000000000000e+00 0.0000000000000000e+00  0.0000000000000000e+00 0.0000000000000000e+00 0.0000000000000000e+00  0.0000000000000000e+00 0.0000000000000000e+00 0.0000000000000000e+00  0.0000000000000000e+00 0.0000000000000000e+00 0.0000000000000000e+00  0.0000000000000000e+00 0.0000000000000000e+00 0.0000000000000000e+00  0.0000000000000000e+00 0.0000000000000000e+00 0.0000000000000000e+00  0.0000000000000000e+00 0.0000000000000000e+00 0.0000000000000000e+00  0.0000000000000000e+00 0.0000000000000000e+00 0.0000000000000000e+00  0.0000000000000000e+00 0.0000000000000000e+00 0.0000000000000000e+00  0.0000000000000000e+00 0.0000000000000000e+00 0.0000000000000000e+00  0.0000000000000000e+00 0.0000000000000000e+00 0.0000000000000000e+00  0.0000000000000000e+00 0.0000000000000000e+00 0.0000000000000000e+00  0.0000000000000000e+00 0.0000000000000000e+00 0.0000000000000000e+00  0.0000000000000000e+00 0.0000000000000000e+00 0.0000000000000000e+00  0.0000000000000000e+00 0.0000000000000000e+00 0.0000000000000000e+00  0.0000000000000000e+00 0.0000000000000000e+00 0.0000000000000000e+00  0.0000000000000000e+00 0.0000000000000000e+00 0.0000000000000000e+00  0.0000000000000000e+00 0.0000000000000000e+00 0.0000000000000000e+00  0.0000000000000000e+00 0.0000000000000000e+00 0.0000000000000000e+00  0.0000000000000000e+00 0.0000000000000000e+00 0.0000000000000000e+00  0.0000000000000000e+00 0.0000000000000000e+00 0.0000000000000000e+00  0.0000000000000000e+00 0.0000000000000000e+00 0.0000000000000000e+00  0.0000000000000000e+00 0.0000000000000000e+00 0.0000000000000000e+00  0.0000000000000000e+00 0.0000000000000000e+00 0.0000000000000000e+00  0.0000000000000000e+00 0.0000000000000000e+00 0.0000000000000000e+00  0.0000000000000000e+00 0.0000000000000000e+00 0.0000000000000000e+00  0.0000000000000000e+00 0.0000000000000000e+00 0.0000000000000000e+00  0.0000000000000000e+00 0.0000000000000000e+00 0.0000000000000000e+00  0.0000000000000000e+00 0.0000000000000000e+00 0.0000000000000000e+00  0.0000000000000000e+00 0.0000000000000000e+00 0.0000000000000000e+00  0.0000000000000000e+00 0.0000000000000000e+00 0.0000000000000000e+00  0.0000000000000000e+00 0.0000000000000000e+00 0.0000000000000000e+00  0.0000000000000000e+00 0.0000000000000000e+00 0.0000000000000000e+00  0.0000000000000000e+00 0.0000000000000000e+00 0.0000000000000000e+00  0.0000000000000000e+00 0.0000000000000000e+00 0.0000000000000000e+00  0.0000000000000000e+00 0.0000000000000000e+00 0.0000000000000000e+00  0.0000000000000000e+00 0.0000000000000000e+00 0.0000000000000000e+00  0.0000000000000000e+00 0.0000000000000000e+00 0.0000000000000000e+00  0.0000000000000000e+00 0.0000000000000000e+00 0.0000000000000000e+00  0.0000000000000000e+00 0.0000000000000000e+00 0.0000000000000000e+00  0.0000000000000000e+00 0.0000000000000000e+00 0.0000000000000000e+00  0.0000000000000000e+00 0.0000000000000000e+00 0.0000000000000000e+00  0.0000000000000000e+00 0.0000000000000000e+00 0.0000000000000000e+00  0.0000000000000000e+00 0.0000000000000000e+00 0.0000000000000000e+00  0.0000000000000000e+00 0.0000000000000000e+00 0.0000000000000000e+00  0.0000000000000000e+00 0.0000000000000000e+00 0.0000000000000000e+00  0.0000000000000000e+00 0.0000000000000000e+00 0.0000000000000000e+00  0.0000000000000000e+00 0.0000000000000000e+00 0.0000000000000000e+00  0.0000000000000000e+00 0.0000000000000000e+00 0.0000000000000000e+00  0.0000000000000000e+00 0.0000000000000000e+00 0.0000000000000000e+00  0.0000000000000000e+00 0.0000000000000000e+00 0.0000000000000000e+00  0.0000000000000000e+00 0.0000000000000000e+00 0.0000000000000000e+00  0.0000000000000000e+00 0.0000000000000000e+00 0.0000000000000000e+00  0.0000000000000000e+00 0.0000000000000000e+00 0.0000000000000000e+00  0.0000000000000000e+00 0.0000000000000000e+00 0.0000000000000000e+00  0.0000000000000000e+00 0.0000000000000000e+00 0.0000000000000000e+00  0.0000000000000000e+00 0.0000000000000000e+00 0.0000000000000000e+00  0.0000000000000000e+00 0.0000000000000000e+00 0.0000000000000000e+00  0.0000000000000000e+00 0.0000000000000000e+00 0.0000000000000000e+00  0.0000000000000000e+00 0.0000000000000000e+00 0.0000000000000000e+00  0.0000000000000000e+00 0.0000000000000000e+00 0.0000000000000000e+00  0.0000000000000000e+00 0.0000000000000000e+00 0.0000000000000000e+00  0.0000000000000000e+00 0.0000000000000000e+00 0.0000000000000000e+00  0.0000000000000000e+00 0.0000000000000000e+00 0.0000000000000000e+00  0.0000000000000000e+00 0.0000000000000000e+00 0.0000000000000000e+00  0.0000000000000000e+00 0.0000000000000000e+00 0.0000000000000000e+00  0.0000000000000000e+00 0.0000000000000000e+00 0.0000000000000000e+00  0.0000000000000000e+00 0.0000000000000000e+00 0.0000000000000000e+00  0.0000000000000000e+00 0.0000000000000000e+00 0.0000000000000000e+00  0.0000000000000000e+00 0.0000000000000000e+00 0.0000000000000000e+00  0.0000000000000000e+00 0.0000000000000000e+00 0.0000000000000000e+00  0.0000000000000000e+00 0.0000000000000000e+00 0.0000000000000000e+00  0.0000000000000000e+00 0.0000000000000000e+00 0.0000000000000000e+00  0.0000000000000000e+00 0.0000000000000000e+00 0.0000000000000000e+00  0.0000000000000000e+00 0.0000000000000000e+00 0.0000000000000000e+00  0.0000000000000000e+00 0.0000000000000000e+00 0.0000000000000000e+00  0.0000000000000000e+00 0.0000000000000000e+00 0.0000000000000000e+00  0.0000000000000000e+00 0.0000000000000000e+00 0.0000000000000000e+00  0.0000000000000000e+00 0.0000000000000000e+00 0.0000000000000000e+00  0.0000000000000000e+00 0.0000000000000000e+00 0.0000000000000000e+00  0.0000000000000000e+00 0.0000000000000000e+00 0.0000000000000000e+00  0.0000000000000000e+00 0.0000000000000000e+00 0.0000000000000000e+00  0.0000000000000000e+00 0.0000000000000000e+00 0.0000000000000000e+00  0.0000000000000000e+00 0.0000000000000000e+00 0.0000000000000000e+00  0.0000000000000000e+00 0.0000000000000000e+00 0.0000000000000000e+00  0.0000000000000000e+00 0.0000000000000000e+00 0.0000000000000000e+00  0.0000000000000000e+00 0.0000000000000000e+00 0.0000000000000000e+00  0.0000000000000000e+00 0.0000000000000000e+00 0.0000000000000000e+00  0.0000000000000000e+00 0.0000000000000000e+00 0.0000000000000000e+00  0.0000000000000000e+00 0.0000000000000000e+00 0.0000000000000000e+00  0.0000000000000000e+00 0.0000000000000000e+00 0.0000000000000000e+00  0.0000000000000000e+00 0.0000000000000000e+00 0.0000000000000000e+00  0.0000000000000000e+00 0.0000000000000000e+00 0.0000000000000000e+00  0.0000000000000000e+00 0.0000000000000000e+00 0.0000000000000000e+00  0.0000000000000000e+00 0.0000000000000000e+00 0.0000000000000000e+00  0.0000000000000000e+00 0.0000000000000000e+00 0.0000000000000000e+00  0.0000000000000000e+00 0.0000000000000000e+00 0.0000000000000000e+00  0.0000000000000000e+00 0.0000000000000000e+00 0.0000000000000000e+00  0.0000000000000000e+00 0.0000000000000000e+00 0.0000000000000000e+00  0.0000000000000000e+00 0.0000000000000000e+00 0.0000000000000000e+00  0.0000000000000000e+00 0.0000000000000000e+00 0.0000000000000000e+00  0.0000000000000000e+00 0.0000000000000000e+00 0.0000000000000000e+00  0.0000000000000000e+00 0.0000000000000000e+00 0.0000000000000000e+00  0.0000000000000000e+00 0.0000000000000000e+00 0.0000000000000000e+00  0.0000000000000000e+00 0.0000000000000000e+00 0.0000000000000000e+00  0.0000000000000000e+00 0.0000000000000000e+00 0.0000000000000000e+00  0.0000000000000000e+00 0.0000000000000000e+00 0.0000000000000000e+00  0.0000000000000000e+00 0.0000000000000000e+00 0.0000000000000000e+00  0.0000000000000000e+00 0.0000000000000000e+00 0.0000000000000000e+00  0.0000000000000000e+00 0.0000000000000000e+00 0.0000000000000000e+00  0.0000000000000000e+00 0.0000000000000000e+00 0.0000000000000000e+00  0.0000000000000000e+00 0.0000000000000000e+00 0.0000000000000000e+00  0.0000000000000000e+00 0.0000000000000000e+00 0.0000000000000000e+00  0.0000000000000000e+00 0.0000000000000000e+00 0.0000000000000000e+00  0.0000000000000000e+00 0.0000000000000000e+00 0.0000000000000000e+00  0.0000000000000000e+00 0.0000000000000000e+00 0.0000000000000000e+00  0.0000000000000000e+00 0.0000000000000000e+00 0.0000000000000000e+00  0.0000000000000000e+00 0.0000000000000000e+00 0.0000000000000000e+00  0.0000000000000000e+00 0.0000000000000000e+00 0.0000000000000000e+00  0.0000000000000000e+00 0.0000000000000000e+00 0.0000000000000000e+00  0.0000000000000000e+00 0.0000000000000000e+00 0.0000000000000000e+00  0.0000000000000000e+00 0.0000000000000000e+00 0.0000000000000000e+00  0.0000000000000000e+00 0.0000000000000000e+00 0.0000000000000000e+00  0.0000000000000000e+00 0.0000000000000000e+00 0.0000000000000000e+00  0.0000000000000000e+00 0.0000000000000000e+00 0.0000000000000000e+00  0.0000000000000000e+00 0.0000000000000000e+00 0.0000000000000000e+00  0.0000000000000000e+00 0.0000000000000000e+00 0.0000000000000000e+00  -1.1234122705023165e-06 -6.0600950944184127e-07 0.0000000000000000e+00  -2.4703821971272085e-06 1.8123768343294501e-06 0.0000000000000000e+00  -3.4705887442396228e-06 6.0966099300180973e-06 0.0000000000000000e+00  -4.2755770710601797e-06 1.1914107297920113e-05 0.0000000000000000e+00  -4.9621501788130678e-06 1.9147088308423364e-05 0.0000000000000000e+00  -5.5432948659903300e-06 2.7709517084395919e-05 0.0000000000000000e+00  -6.0285014404143839e-06 3.7504569042531485e-05 0.0000000000000000e+00  -6.4364768079268137e-06 4.8446643242480348e-05 0.0000000000000000e+00  -6.7643956964906079e-06 6.0454842484334745e-05 0.0000000000000000e+00  -7.0239317686412986e-06 7.3441267602320217e-05 0.0000000000000000e+00  -7.2207315676499081e-06 8.7335261709961661e-05 0.0000000000000000e+00  -7.3622904638276914e-06 1.0205867743192069e-04 0.0000000000000000e+00  -7.4520981457881952e-06 1.1754832082314218e-04 0.0000000000000000e+00  -7.4942999062666560e-06 1.3373461330558448e-04 0.0000000000000000e+00  -7.5003716896303275e-06 1.5056015543499728e-04 0.0000000000000000e+00  -7.4673727377218825e-06 1.6797106183979429e-04 0.0000000000000000e+00  -7.4024885160727382e-06 1.8591032432092839e-04 0.0000000000000000e+00  -7.3093154751062874e-06 2.0433289345216172e-04 0.0000000000000000e+00  -7.1930884440602044e-06 2.2319014489302418e-04 0.0000000000000000e+00  -7.0569974365126912e-06 2.4244428370594643e-04 0.0000000000000000e+00  -6.9061371668184669e-06 2.6205526379606076e-04 0.0000000000000000e+00  -6.7436990543056735e-06 2.8199064251093381e-04 0.0000000000000000e+00  -6.5737396330603972e-06 3.0221801970214013e-04 0.0000000000000000e+00  -6.4032005031694682e-06 3.2271121114713395e-04 0.0000000000000000e+00  -6.2327655713595041e-06 3.4344718717421014e-04 0.0000000000000000e+00  -6.0678937761301037e-06 3.6440343160976427e-04 0.0000000000000000e+00  -5.9119969432931750e-06 3.8556202310899832e-04 0.0000000000000000e+00  -5.7693183881429107e-06 4.0690732180687029e-04 0.0000000000000000e+00  -5.6428778517710694e-06 4.2842612823185415e-04 0.0000000000000000e+00  -5.5364671053418920e-06 4.5010731812888830e-04 0.0000000000000000e+00  -5.4526581805242497e-06 4.7194174824748922e-04 0.0000000000000000e+00  -5.3946463111114322e-06 4.9392178713011698e-04 0.0000000000000000e+00  -5.3644514988387668e-06 5.1604120212116352e-04 0.0000000000000000e+00  -5.3644801844232888e-06 5.3829469263815314e-04 0.0000000000000000e+00  -5.3962134557472943e-06 5.6067766360102427e-04 0.0000000000000000e+00  -5.4611646475302931e-06 5.8318593723893854e-04 0.0000000000000000e+00  -5.5601542522283146e-06 6.0581534495507622e-04 0.0000000000000000e+00  -5.6938802631953638e-06 6.2856149007057432e-04 0.0000000000000000e+00  -5.8625205527346759e-06 6.5141940251774470e-04 0.0000000000000000e+00  -6.0660487226416668e-06 6.7438326936274161e-04 0.0000000000000000e+00  -6.3040608210570549e-06 6.9744635034827210e-04 0.0000000000000000e+00  -6.5757139159007935e-06 7.2059989964351012e-04 0.0000000000000000e+00  -6.8818461163580543e-06 7.4383497693827102e-04 0.0000000000000000e+00  -7.2207147203017328e-06 7.6714299800723171e-04 0.0000000000000000e+00  -7.5812790692724235e-06 7.9051520595875883e-04 0.0000000000000000e+00  -7.9047971311468967e-06 8.1390215226957762e-04 0.0000000000000000e+00  7.1328140828641919e-06 8.3760866436447066e-04 0.0000000000000000e+00  3.8396786520513042e-05 8.3892263241577153e-04 0.0000000000000000e+00  5.4630196034114828e-05 8.1590259402639781e-04 0.0000000000000000e+00  5.4872601233841575e-05 7.9260010272895844e-04 0.0000000000000000e+00  5.5116986604750051e-05 7.6936420470707445e-04 0.0000000000000000e+00  5.5300432498241657e-05 7.4617119821027752e-04 0.0000000000000000e+00  5.5416331186223261e-05 7.2304093122467115e-04 0.0000000000000000e+00  5.5469944914490532e-05 6.9998760686095884e-04 0.0000000000000000e+00  5.5463503820045573e-05 6.7702117749998691e-04 0.0000000000000000e+00  5.5401381068108939e-05 6.5415105338698001e-04 0.0000000000000000e+00  5.5285756321105486e-05 6.3138376599089637e-04 0.0000000000000000e+00  5.5119762283654444e-05 6.0872577812660315e-04 0.0000000000000000e+00  5.4904872051781896e-05 5.8618172885824553e-04 0.0000000000000000e+00  5.4643212655589188e-05 5.6375657122899380e-04 0.0000000000000000e+00  5.4335623177667212e-05 5.4145416360480768e-04 0.0000000000000000e+00  5.3983095171097573e-05 5.1927924772380196e-04 0.0000000000000000e+00  5.3585788484344144e-05 4.9723610025450790e-04 0.0000000000000000e+00  5.3143514159742237e-05 4.7533063147119038e-04 0.0000000000000000e+00  5.2655729415173142e-05 4.5356870235156813e-04 0.0000000000000000e+00  5.2121064883019602e-05 4.3195877025722397e-04 0.0000000000000000e+00  5.1538282938651045e-05 4.1050939355664890e-04 0.0000000000000000e+00  5.0904837368504329e-05 3.8923286514876132e-04 0.0000000000000000e+00  5.0218822078019820e-05 3.6814149402432389e-04 0.0000000000000000e+00  4.9476627273342161e-05 3.4725244360862427e-04 0.0000000000000000e+00  4.8675485975138099e-05 3.2658287323153879e-04 0.0000000000000000e+00  4.7810090151701281e-05 3.0615605210150814e-04 0.0000000000000000e+00  4.6879681048654141e-05 2.8599521581743471e-04 0.0000000000000000e+00  4.5877166330968782e-05 2.6612695768679770e-04 0.0000000000000000e+00  4.4797707044296786e-05 2.4658342386296977e-04 0.0000000000000000e+00  4.3637337425492030e-05 2.2739850785967347e-04 0.0000000000000000e+00  4.2389898613659927e-05 2.0861021432331129e-04 0.0000000000000000e+00  4.1050677554591190e-05 1.9025965512703766e-04 0.0000000000000000e+00  3.9613350297207841e-05 1.7239202387111578e-04 0.0000000000000000e+00  3.8072583925501807e-05 1.5505499564641512e-04 0.0000000000000000e+00  3.6420135064758979e-05 1.3830427139744828e-04 0.0000000000000000e+00  3.4657326978911053e-05 1.2219347244418530e-04 0.0000000000000000e+00  3.2772268659657466e-05 1.0678022407750364e-04 0.0000000000000000e+00  3.0760174198492325e-05 9.2130974261886987e-05 0.0000000000000000e+00  2.8617451616585475e-05 7.8312600114068944e-05 0.0000000000000000e+00  2.6338591818361804e-05 6.5396376282958672e-05 0.0000000000000000e+00  2.3919379832253750e-05 5.3456229681810122e-05 0.0000000000000000e+00  2.1353312248526725e-05 4.2575705932513161e-05 0.0000000000000000e+00  1.8647591422635718e-05 3.2834350312551033e-05 0.0000000000000000e+00  1.5790314281975119e-05 2.4315707593463942e-05 0.0000000000000000e+00  1.2782463685790499e-05 1.7118053249316409e-05 0.0000000000000000e+00  9.6294219079959299e-06 1.1344331081203640e-05 0.0000000000000000e+00  6.3957877379176066e-06 7.0838005424557040e-06 0.0000000000000000e+00  3.3102179916062213e-06 4.1415932880603855e-06 0.0000000000000000e+00  1.2208385497089772e-06 2.0889782805928335e-06 0.0000000000000000e+00  2.2922388043235272e-05 8.0314492811627339e-04 0.0000000000000000e+00  2.3335084763205081e-05 7.5857683169306962e-04 0.0000000000000000e+00  2.4221901733383300e-05 6.8630685112776378e-04 0.0000000000000000e+00  3.6370424679592081e-06 1.0548016341295590e-05 0.0000000000000000e+00  2.4709475377272259e-05 6.4130243074470071e-04 0.0000000000000000e+00  5.9981412294488434e-06 2.4414518607024265e-05 0.0000000000000000e+00  2.4681327657401926e-05 5.9589248302597620e-04 0.0000000000000000e+00  9.4702555926230796e-06 5.6726578933837507e-05 0.0000000000000000e+00  1.1229826154833005e-05 8.2171624396473636e-05 0.0000000000000000e+00  2.4488626913253918e-05 5.5095393779629946e-04 0.0000000000000000e+00  1.5970123140837555e-05 1.6184968807904506e-04 0.0000000000000000e+00  2.3643370450256808e-05 4.6262730567225309e-04 0.0000000000000000e+00  1.3294590388188218e-05 1.1039153403184637e-04 0.0000000000000000e+00  1.7130208776327491e-05 1.9694021493224797e-04 0.0000000000000000e+00  2.3005563534873670e-05 4.1932624746426677e-04 0.0000000000000000e+00  2.4140019362178987e-05 5.0651998872585974e-04 0.0000000000000000e+00  1.8495097430639194e-05 2.3462593522687831e-04 0.0000000000000000e+00  2.2232164671564484e-05 3.7669067575963298e-04 0.0000000000000000e+00  2.0025962693348557e-05 2.7223179111394839e-04 0.0000000000000000e+00  2.0994056641052433e-05 3.3565879286600117e-04 0.0000000000000000e+00  2.0528210354976860e-05 3.0235714163745036e-04 0.0000000000000000e+00  1.4290620043099174e-05 1.3418380177725368e-04 0.0000000000000000e+00  2.4374743640682131e-05 7.2380461016218790e-04 0.0000000000000000e+00  7.5285302174204136e-06 3.8502079694767270e-05 0.0000000000000000e+00  3.4133199125160581e-05 7.8105499300463619e-04 0.0000000000000000e+00  4.3933637468118630e-06 6.5461742809711842e-06 0.0000000000000000e+00  3.3567585714291723e-05 6.1896311102082355e-04 0.0000000000000000e+00  3.3592309071016243e-05 6.6456754492018311e-04 0.0000000000000000e+00  1.4752443486877611e-06 1.6227864769496096e-05 0.0000000000000000e+00  5.2649962931203689e-06 6.8049120734313347e-05 0.0000000000000000e+00  3.2462621467924758e-05 4.8499787093077832e-04 0.0000000000000000e+00  3.3364717690972970e-05 5.7380992584725769e-04 0.0000000000000000e+00  9.4667224037806082e-06 1.7814966827376383e-04 0.0000000000000000e+00  3.1775776905912826e-05 4.4141546382295602e-04 0.0000000000000000e+00  6.5254181805390540e-06 9.5842278645964722e-05 0.0000000000000000e+00  1.0535152811073316e-05 2.1498067709746100e-04 0.0000000000000000e+00  3.0935145333260747e-05 3.9845756989842610e-04 0.0000000000000000e+00  3.2993869324039174e-05 5.2914354137540212e-04 0.0000000000000000e+00  9.8574987247400189e-06 2.5312797650248122e-04 0.0000000000000000e+00  2.9939351458557792e-05 3.5621361065153582e-04 0.0000000000000000e+00  -1.4536773731197286e-07 -1.9637379682650180e-07 0.0000000000000000e+00  8.0159406091070148e-07 1.1867988688765827e-06 0.0000000000000000e+00  1.5381461158223137e-05 8.2129828613279577e-04 0.0000000000000000e+00  2.9148691491582356e-07 4.5384874784598139e-06 0.0000000000000000e+00  3.0794693966065104e-05 3.1954229265567007e-04 0.0000000000000000e+00  2.3098397823932333e-05 1.487