<?xml version="1.0"?>
<VTKFile type="UnstructuredGrid"  version="0.1"  >
<UnstructuredGrid>
<Piece  NumberOfPoints="1419" NumberOfCells="2698">
<Points>
<DataArray  type="Float64"  NumberOfComponents="3"  format="ascii">0 0 0  0 0.41 0  2.5 0 0  2.5 0.41 0  0.6 0.19 0  0.6 0.21 0  0.25 0.2 0  0.15 0.2 0  0.2489897948556636 0.21 0  0.2489897948556636 0.19 0  0.6 0.2 0  0 0.3807142857143437 0  0 0.3514285714286952 0  0 0.3221428571430699 0  0 0.29285714285744 0  0 0.2635714285718054 0  0 0.2342857142861561 0  0 0.2050000000005308 0  0 0.175714285714732 0  0 0.1464285714289574 0  0 0.1171428571431897 0  0 0.08785714285737878 0  0 0.05857142857161107 0  0 0.02928571428580012 0  0.03015443760436003 0 0  0.06140001986583606 0 0  0.09377624077125973 0 0  0.1273239957535082 0 0  0.1620856860351972 0 0  0.1981052433264291 0 0  0.235428184091502 0 0  0.2741016576309132 0 0  0.3141745521465447 0 0  0.3556974926295285 0 0  0.3987229542472677 0 0  0.4433053055141081 0 0  0.4895008759286886 0 0  0.5373680609405097 0 0  0.5869673343216626 0 0  0.6383613676634521 0 0  0.6916151138468254 0 0  0.7467958595648856 0 0  0.8039733463919316 0 0  0.8632198139502143 0 0  0.9246101326867038 0 0  0.9882218810934433 0 0  1.054135445558498 0 0  1.122434100542598 0 0  1.193204177141305 0 0  1.266535089879536 0 0  1.342519516046404 0 0  1.421253448503939 0 0  1.502836389106271 0 0  1.587371439758838 0 0  1.674965418777374 0 0  1.765729001825544 0 0  1.859776908880082 0 0  1.957227977487062 0 0  2.058205329869943 0 0  2.162836591189951 0 0  2.271253957290865 0 0  2.383594446803425 0 0  2.5 0.1024999999997612 0  2.5 0.2049999999994743 0  2.5 0.3074999999997183 0  2.383594446803656 0.41 0  2.271253957291315 0.41 0  2.162836591190598 0.41 0  2.058205329870775 0.41 0  1.957227977488067 0.41 0  1.859776908881246 0.41 0  1.765729001826854 0.41 0  1.674965418778818 0.41 0  1.58737143976041 0.41 0  1.502836389107956 0.41 0  1.421253448505726 0.41 0  1.342519516048286 0.41 0  1.266535089881505 0.41 0  1.193204177143353 0.41 0  1.122434100544716 0.41 0  1.05413544556068 0.41 0  0.9882218810956305 0.41 0  0.9246101326886647 0.41 0  0.8632198139519631 0.41 0  0.8039733463934788 0.41 0  0.7467958595662458 0.41 0  0.6916151138480078 0.41 0  0.6383613676644679 0.41 0  0.5869673343225223 0.41 0  0.5373680609412221 0.41 0  0.4895008759292634 0.41 0  0.4433053055145528 0.41 0  0.3987229542475914 0.41 0  0.3556974926297398 0.41 0  0.3141745521466497 0.41 0  0.2741016576310038 0.41 0  0.2354281840915826 0.41 0  0.1981052433265003 0.41 0  0.1620856860352591 0.41 0  0.1273239957535623 0.41 0  0.09377624077128965 0.41 0  0.06140001986584975 0.41 0  0.03015443760436654 0.41 0  0.2497468076502589 0.2050254481002335 0  0.2497468076502614 0.1949745518997913 0  0.2469965252529372 0.1829317073451959 0  0.2439893735792749 0.1762316384219906 0  0.2400332147834255 0.1700443375285386 0  0.2352133972704371 0.1645032867342007 0  0.2296339016332438 0.1597280261969788 0  0.2234150974217223 0.1558215752574715 0  0.2166911463437691 0.1528682099456123 0  0.2096071079204251 0.1509316448471593 0  0.2023158100364996 0.1500536585536553 0  0.194974551899914 0.1502531923497262 0  0.1877417105387872 0.1515259415822739 0  0.1807733240461124 0.153844448527136 0  0.1742197252835808 0.15715869474974 0  0.1682222986673531 0.1613971801805478 0  0.162910430003803 0.1664684656256651 0  0.1583987151779087 0.1722631454351573 0  0.1547844879126891 0.178656207771761 0  0.1521457199348551 0.1855097315605723 0  0.1505393388476355 0.1926758619366523 0  0.1505393388476328 0.2073241380633295 0  0.1521457199348437 0.2144902684393899 0  0.1547844879126531 0.221343792228163 0  0.1583987151778488 0.2277368545647528 0  0.1629104300036858 0.2335315343742052 0  0.1682222986671726 0.2386028198193036 0  0.1742197252833576 0.2428413052501257 0  0.1807733240458683 0.2461555514727623 0  0.1877417105384929 0.2484740584176516 0  0.1949745518995776 0.2497468076502398 0  0.202315810036185 0.2499463414463592 0  0.2096071079201568 0.2490683551528932 0  0.2166911463435495 0.2471317900544655 0  0.2234150974215506 0.2441784247426195 0  0.2296339016331197 0.2402719738031125 0  0.2352133972703547 0.2354967132658811 0  0.2400332147833751 0.2299556624715287 0  0.2439893735792577 0.2237683615780412 0  0.246996525252926 0.2170682926548348 0  0.25645809709277 0.21 0  0.2639263993298655 0.21 0  0.271394701566961 0.21 0  0.2788630038040554 0.21 0  0.2863313060411479 0.21 0  0.2937996082782405 0.21 0  0.301267910515333 0.21 0  0.3087362127524279 0.21 0  0.3162045149895234 0.21 0  0.3236728172265972 0.21 0  0.3311411194636928 0.21 0  0.3386094217007701 0.21 0  0.3460777239378666 0.21 0  0.3535460261749672 0.21 0  0.3610143284120516 0.21 0  0.3684826306491596 0.21 0  0.3759509328862226 0.21 0  0.383419235123329 0.21 0  0.3908875373604028 0.21 0  0.3983558395975142 0.21 0  0.4058241418345938 0.21 0  0.4132924440716992 0.21 0  0.4207607463087888 0.21 0  0.4282290485459029 0.21 0  0.4356973507830418 0.21 0  0.4431656530201649 0.21 0  0.4506339552573136 0.21 0  0.4581022574944306 0.21 0  0.4655705597315852 0.21 0  0.4730388619686996 0.21 0  0.480507164205851 0.21 0  0.4879754664429498 0.21 0  0.4954437686800938 0.21 0  0.502912070917267 0.21 0  0.5103803731544119 0.21 0  0.5178486753915261 0.21 0  0.5253169776286404 0.21 0  0.5327852798657868 0.21 0  0.5402535821029386 0.21 0  0.54772188434007 0.21 0  0.5551901865771842 0.21 0  0.5626584888143201 0.21 0  0.5701267910514778 0.21 0  0.5775950932886138 0.21 0  0.5850633955257281 0.21 0  0.5925316977628483 0.21 0  0.6 0.2050000000000054 0  0.6 0.1950000000000217 0  0.5925316977628897 0.19 0  0.5850633955257988 0.19 0  0.5775950932887378 0.19 0  0.5701267910515998 0.19 0  0.5626584888145268 0.19 0  0.5551901865773963 0.19 0  0.547721884340339 0.19 0  0.5402535821032429 0.19 0  0.5327852798661811 0.19 0  0.5253169776290537 0.19 0  0.5178486753919799 0.19 0  0.5103803731549078 0.19 0  0.502912070917822 0.19 0  0.4954437686807294 0.19 0  0.4879754664436223 0.19 0  0.4805071642065402 0.19 0  0.4730388619694271 0.19 0  0.4655705597323621 0.19 0  0.4581022574952563 0.19 0  0.4506339552581777 0.19 0  0.4431656530210671 0.19 0  0.4356973507839815 0.19 0  0.4282290485468779 0.19 0  0.4207607463097617 0.19 0  0.4132924440726327 0.19 0  0.4058241418354857 0.19 0  0.3983558395983636 0.19 0  0.3908875373612097 0.19 0  0.3834192351240934 0.19 0  0.3759509328869369 0.19 0  0.3684826306498175 0.19 0  0.361014328412667 0.19 0  0.3535460261755617 0.19 0  0.3460777239384295 0.19 0  0.3386094217012945 0.19 0  0.3311411194641595 0.19 0  0.3236728172270245 0.19 0  0.3162045149898895 0.19 0  0.3087362127527544 0.19 0  0.3012679105156187 0.19 0  0.2937996082784807 0.19 0  0.2863313060413428 0.19 0  0.2788630038042048 0.19 0  0.2713947015670686 0.19 0  0.2639263993299336 0.19 0  0.2564580970927985 0.19 0  0.2607803159922026 0.2000727136295815 0  0.5887803774232762 0.2001272386983733 0  0.5745072403740523 0.2002044435018727 0  0.5511891430099709 0.2001122610077113 0  0.2751288526855082 0.20000000000002 0  0.5365194309847112 0.1999999999999436 0  0.2894621222999649 0.1998691686390484 0  0.5215828265105155 0.1999999999999228 0  0.3127789816668748 0.1998657885438805 0  0.3274069683451451 0.2000000000000796 0  0.5066462220363641 0.199999999999908 0  0.3650630746574081 0.199866017807523 0  0.476773013087985 0.1999999999998713 0  0.3417402379596385 0.1998691686391011 0  0.3796850840047755 0.200000000000134 0  0.4618364086138087 0.1999999999998546 0  0.4917096175621762 0.1999999999998808 0  0.3946216884789568 0.2000000000001512 0  0.446899804139621 0.1999999999998389 0  0.4089549580935208 0.1998691686391595 0  0.4322718174608562 0.200127451265745 0  0.4201487168029707 0.1999966199048527 0  0.3528922713220932 0.2000185703532356 0  0.5633122436674589 0.1999814296467508 0  0.3006558810093873 0.1999966199048318 0  0.5815926498168407 0.1966545283159175 0  0.2677053789419034 0.1964246479135325 0  0.5290511287476175 0.1970915826863981 0  0.5439877332217911 0.197091582686394 0  0.2825131256993216 0.2035478995978015 0  0.3199386661080599 0.202908417313604 0  0.4842413153250809 0.1970915826863873 0  0.5141145242734466 0.1970915826863843 0  0.3722167817676917 0.2029084173136195 0  0.4693047108508938 0.1970915826863783 0  0.3348752705822316 0.202908417313609 0  0.3871533862418661 0.2029084173136212 0  0.4543681063767183 0.1970915826863795 0  0.4991779197992749 0.1970915826863902 0  0.4020059614928624 0.203547899597858 0  0.4394315019025246 0.1970915826863714 0  0.2550657455369551 0.2034088125358657 0  0.2548908499171161 0.1966940311614271 0  0.5946539510196798 0.2024302972968126 0  0.267698176732111 0.2039977513680092 0  0.4261685417851465 0.196409292431739 0  0.3590076176283495 0.196411355804271 0  0.5571672426447437 0.2036011176410121 0  0.3066757059912147 0.1964092924317024 0  0.594380730180568 0.1966558399668133 0  0.4842413153245942 0.2040749161535287 0  0.4693047108503577 0.2040749161535231 0  0.3871533862424271 0.1959250838464788 0  0.372246743208829 0.1959123236376545 0  0.5141145242731028 0.2040749161535395 0  0.4543681063761134 0.2040749161535186 0  0.4019979587101454 0.1959834479682427 0  0.4394608940728603 0.2040870543693135 0  0.5439623148931173 0.2040856076781014 0  0.5290511287473298 0.2040749161535501 0  0.4991779197988497 0.2040749161535382 0  0.3347912413592433 0.1959225448935183 0  0.3199680582793816 0.1959123018030061 0  0.2825051229162361 0.1959834479681729 0  0.3590471196690275 0.2036304442587945 0  0.5571594006495384 0.1963685282145804 0  0.3067669986803285 0.203627750582736 0  0.4262598344738712 0.2036568242185335 0  0.5814408164431408 0.2041285596160068 0  0.5688286748170428 0.1961819304477386 0  0.4145905603063645 0.2038180695522843 0  0.3473758401724931 0.2038180695522752 0  0.2950977245128307 0.2038180695522663 0  0.5688286748170693 0.203818069552238 0  0.2950977245127906 0.1961819304477774 0  0.3473758401723931 0.1961819304478349 0  0.4145905603061963 0.1961819304479011 0  0.2601812407614425 0.2056861609747042
[...]
<PointData  Scalars="f_40-2"> 
<DataArray  type="Float64"  Name="f_40-2"  format="ascii">8.0962437062368480e+01  7.8090586364562697e+01  0.0000000000000000e+00  0.0000000000000000e+00  1.7695018337595585e+01  1.9614189175391665e+01  0.0000000000000000e+00  1.4859328766918782e+02  2.7502581759813889e+01  2.9974839022571548e+01  1.8920743109272721e+01  7.8035688326732100e+01  7.8704498021918525e+01  8.0865286383280932e+01  8.4572008528677486e+01  8.9160176916647430e+01  9.3661507382316501e+01  9.5563711852392146e+01  9.4829244255852345e+01  9.1532023847865190e+01  8.7317823435389457e+01  8.3764371189691332e+01  8.1614672710063545e+01  8.0918308961315674e+01  8.0689197969648163e+01  8.0070682101463930e+01  7.8539389514143721e+01  7.5535643107726244e+01  7.0464971724529377e+01  6.3435129130667555e+01  5.5835617400104553e+01  4.8864877787335459e+01  4.4296860428364809e+01  4.1163315718325713e+01  3.9105691987085137e+01  3.7432397418137015e+01  3.5857992508061471e+01  3.4213717631567519e+01  3.2714075192950808e+01  3.1389997150054516e+01  3.0453384486002342e+01  2.9782121736704372e+01  2.9102392482410519e+01  2.8249243174509772e+01  2.7280939711291502e+01  2.6120211618998773e+01  2.4834234674609831e+01  2.3551013014791735e+01  2.2166358250995682e+01  2.0744425331471462e+01  1.9365748026175396e+01  1.7965288908457229e+01  1.6515078429744221e+01  1.5085158037995575e+01  1.3597503609612598e+01  1.2071193110914853e+01  1.0524008974672562e+01  8.9035160409973422e+00  7.2585476156882374e+00  5.5064045665167791e+00  3.7857840461899785e+00  1.8868537027567225e+00  0.0000000000000000e+00  0.0000000000000000e+00  0.0000000000000000e+00  1.8906421516055436e+00  3.7279305749414506e+00  5.5171704192822659e+00  7.2526435215068457e+00  8.8766420794623286e+00  1.0510213269930539e+01  1.2066808939556228e+01  1.3547082570409328e+01  1.5039989120747629e+01  1.6466087178738643e+01  1.7904831276827977e+01  1.9326684935220399e+01  2.0713516178647467e+01  2.2146568325323710e+01  2.3555557653616276e+01  2.4845793942680931e+01  2.6136642836662972e+01  2.7281058508012801e+01  2.8224211849137948e+01  2.9070511733157119e+01  2.9744047524069114e+01  3.0418899485444847e+01  3.1288734342258952e+01  3.2425603076198264e+01  3.3791426523749777e+01  3.5308066865429851e+01  3.6821019306313602e+01  3.8526244420020895e+01  4.0673723948268538e+01  4.4045056474911497e+01  4.8706038690371571e+01  5.4986687573660298e+01  6.2016799490974634e+01  6.8323331106600563e+01  7.2924626528155230e+01  7.5773430624406657e+01  7.7147332490450651e+01  7.7828714373263765e+01  0.0000000000000000e+00  0.0000000000000000e+00  2.9884844178917614e+01  2.8270548531174910e+01  2.5499270760609086e+01  2.2112506568821335e+01  1.8350286184360801e+01  1.4433257104381729e+01  1.0855763447479418e+01  7.8292075268484425e+00  7.2115211709225617e+00  8.6224922177517485e+00  1.4287057195986247e+01  2.3334648550860400e+01  3.7907597004389899e+01  5.4804479209612055e+01  7.5866243441887349e+01  9.6509315231730980e+01  1.1735195268447879e+02  1.3361158408959361e+02  1.4487592714177984e+02  1.4368785832277078e+02  1.3531410849519099e+02  1.1617344936760531e+02  9.4626476849116472e+01  7.3451170061567609e+01  5.1765241629762350e+01  3.3883315419906324e+01  1.9911798961518315e+01  9.8323379423753092e+00  4.7280982374005260e+00  3.3901347469011673e+00  4.5123768236779807e+00  7.8008145167602967e+00  1.1514030827363625e+01  1.5766224838578085e+01  1.9535466068922815e+01  2.3077609536874341e+01  2.5896369664062487e+01  2.7464451216449980e+01  2.7146444009536751e+01  2.8223766131153958e+01  2.9526062036210341e+01  3.0921523171037308e+01  3.2276062128205893e+01  3.3553319407389040e+01  3.4741593647524205e+01  3.5823227192637354e+01  3.6798612833970928e+01  3.7665082273061024e+01  3.8423229546697897e+01  3.9077975646771833e+01  3.9634794117389212e+01  4.0097503785048779e+01  4.0467868920766350e+01  4.0753020101336794e+01  4.0955592402943715e+01  4.1086309361238904e+01  4.1144581277707296e+01  4.1138124638591457e+01  4.1067220903344925e+01  4.0944571607696538e+01  4.0770089795576354e+01  4.0545802550839227e+01  4.0280007323437509e+01  3.9969801512719556e+01  3.9625770309435893e+01  3.9246103832708457e+01  3.8834779475130802e+01  3.8393563900222517e+01  3.7924197420961164e+01  3.7430837627462381e+01  3.6909554051085252e+01  3.6365524535142924e+01  3.5799510619237502e+01  3.5208883303039904e+01  3.4594869809665816e+01  3.3952609398439698e+01  3.3286771632778240e+01  3.2593476905013688e+01  3.1865327204324505e+01  3.1099021496353771e+01  3.0299434404496420e+01  2.9491406314807126e+01  2.8225691572561480e+01  2.9636873456979302e+01  1.3106892652400157e+01  1.2750740282328316e+01  2.9740562922180828e+01  2.8207540559354960e+01  2.9515912936705103e+01  3.0350770875849857e+01  3.1175731719896437e+01  3.1967861251470776e+01  3.2722644999878668e+01  3.3448334874970506e+01  3.4144632649996673e+01  3.4817179304977785e+01  3.5467421427226981e+01  3.6096275007815215e+01  3.6703532315539434e+01  3.7289974710112837e+01  3.7855709466809287e+01  3.8399308547943882e+01  3.8921009109243421e+01  3.9418718315808860e+01  3.9890316751632781e+01  4.0332707830508042e+01  4.0745168344833345e+01  4.1122918538497061e+01  4.1466663395430942e+01  4.1768452026980334e+01  4.2026562595773527e+01  4.2234703585337407e+01  4.2390662446310877e+01  4.2486670833434772e+01  4.2522065424249057e+01  4.2489105931827609e+01  4.2382917402528236e+01  4.2193774622525090e+01  4.1919238834994395e+01  4.1551074393813209e+01  4.1089454868834572e+01  4.0524126325446225e+01  3.9850791144714037e+01  3.9063834117510119e+01  3.8161741825187498e+01  3.7144878670875507e+01  3.6011719636849925e+01  3.4780142510138965e+01  3.3457635257789448e+01  3.2077503897700652e+01  3.0771514078834240e+01  2.9663602806100648e+01  0.0000000000000000e+00  0.0000000000000000e+00  0.0000000000000000e+00  0.0000000000000000e+00  0.0000000000000000e+00  0.0000000000000000e+00  0.0000000000000000e+00  0.0000000000000000e+00  0.0000000000000000e+00  0.0000000000000000e+00  0.0000000000000000e+00  0.0000000000000000e+00  0.0000000000000000e+00  0.0000000000000000e+00  0.0000000000000000e+00  0.0000000000000000e+00  0.0000000000000000e+00  0.0000000000000000e+00  0.0000000000000000e+00  0.0000000000000000e+00  0.0000000000000000e+00  0.0000000000000000e+00  0.0000000000000000e+00  0.0000000000000000e+00  0.0000000000000000e+00  0.0000000000000000e+00  0.0000000000000000e+00  0.0000000000000000e+00  0.0000000000000000e+00  0.0000000000000000e+00  0.0000000000000000e+00  0.0000000000000000e+00  0.0000000000000000e+00  0.0000000000000000e+00  0.0000000000000000e+00  0.0000000000000000e+00  0.0000000000000000e+00  0.0000000000000000e+00  0.0000000000000000e+00  0.0000000000000000e+00  0.0000000000000000e+00  0.0000000000000000e+00  0.0000000000000000e+00  0.0000000000000000e+00  0.0000000000000000e+00  0.0000000000000000e+00  0.0000000000000000e+00  0.0000000000000000e+00  0.0000000000000000e+00  0.0000000000000000e+00  0.0000000000000000e+00  0.0000000000000000e+00  0.0000000000000000e+00  0.0000000000000000e+00  0.0000000000000000e+00  0.0000000000000000e+00  0.0000000000000000e+00  0.0000000000000000e+00  0.0000000000000000e+00  0.0000000000000000e+00  0.0000000000000000e+00  0.0000000000000000e+00  0.0000000000000000e+00  0.0000000000000000e+00  0.0000000000000000e+00  0.0000000000000000e+00  0.0000000000000000e+00  0.0000000000000000e+00  0.0000000000000000e+00  0.0000000000000000e+00  0.0000000000000000e+00  0.0000000000000000e+00  0.0000000000000000e+00  0.0000000000000000e+00  0.0000000000000000e+00  0.0000000000000000e+00  0.0000000000000000e+00  0.0000000000000000e+00  0.0000000000000000e+00  0.0000000000000000e+00  0.0000000000000000e+00  0.0000000000000000e+00  0.0000000000000000e+00  0.0000000000000000e+00  0.0000000000000000e+00  0.0000000000000000e+00  0.0000000000000000e+00  0.0000000000000000e+00  0.0000000000000000e+00  0.0000000000000000e+00  0.0000000000000000e+00  0.0000000000000000e+00  0.0000000000000000e+00  0.0000000000000000e+00  0.0000000000000000e+00  0.0000000000000000e+00  0.0000000000000000e+00  0.0000000000000000e+00  0.0000000000000000e+00  0.0000000000000000e+00  0.0000000000000000e+00  0.0000000000000000e+00  0.0000000000000000e+00  0.0000000000000000e+00  0.0000000000000000e+00  0.0000000000000000e+00  0.0000000000000000e+00  0.0000000000000000e+00  0.0000000000000000e+00  0.0000000000000000e+00  0.0000000000000000e+00  0.0000000000000000e+00  0.0000000000000000e+00  0.0000000000000000e+00  0.0000000000000000e+00  0.0000000000000000e+00  0.0000000000000000e+00  0.0000000000000000e+00  0.0000000000000000e+00  0.0000000000000000e+00  0.0000000000000000e+00  0.0000000000000000e+00  0.0000000000000000e+00  3.9020268561538046e+01  3.7400118364441340e+01  3.1194666706070709e+01  3.9479135932011943e+01  3.6131779663773052e+01  4.0718706209047696e+01  3.1586957716287952e+01  3.7394597488463369e+01  7.9186724238254982e+01  3.2386005369086234e+01  8.6007779114755635e+01  6.6938885194947716e+01  4.2048541241304797e+01  6.0236380909411970e+01  1.0042988518300965e+02  4.5469253481351686e+01  3.2385094723731221e+01  2.9847409467228687e+01  1.0708135186729119e+02  3.6447118654968449e+01  3.8599947058021989e+01  3.9797844207551215e+01  3.2222493624487761e+01  4.1407763657925223e+01  4.0230036608215386e+01  3.8392609045930790e+01  4.1306791304982646e+01  3.9407123850695577e+01  3.6342317556257704e+01  3.3381574027380871e+01  3.2861711646446253e+01  7.9724573739483333e+01  2.9477566820470852e+01  8.2034308849481704e+01  2.9665772731489046e+01  3.0654743587995515e+01  2.5908549747251442e+01  2.8359676392170957e+01  3.0115787350390931e+01  2.9257626300118389e+01  3.6012825986774615e+01  1.2117985314186063e+02  3.3682743599777794e+01  4.5490752134871265e+01  2.6157973107833193e+01  5.2558961633430805e+01  1.0193412243187508e+02  1.0298815779358786e+02  2.1849130520641047e+01  3.9627090050857412e+01  3.3651768616681714e+01  2.7358906882567503e+01  3.6029974139320672e+01  3.8620083251548330e+01  4.0505046692463978e+01  5.2915565668998276e+01  2.5069245327319699e+01  4.0560269239979100e+01  3.2071968090423098e+01  4.1885263202414386e+01  2.0008538802980386e+01  3.0851279423290105e+01  4.0810519134677449e+01  7.1467952655232324e+01  1.8008465632734822e+01  3.8294969912047790e+01  3.4851994440847314e+01  3.8905285847318872e+01  3.0485891104249092e+01  3.7678952702058034e+01  3.4669733262827343e+01  2.7010096838018949e+01  1.2568478445379758e+02  3.1019628030857472e+01  1.4374550419779673e+01  2.8042287149098364e+01  4.0690938850113398e+01  7.4503768402480716e+01  2.9486886091399370e+01  8.6905500862486974e+01  9.9424876271256494e+01  7.7464361088488545e+01  2.7590583724467038e+01  2.5447685191017818e+01  3.0089913343108009e+01  2.7817281169520019e+01  3.9503419593383320e+01  2.6796312803942662e+01  3.6622468482973169e+01  4.0424383621170257e+01  9.2660579117643337e+01  3.8818729523790580e+01  7.1816081876130738e+01  1.0905634925071540e+01  4.0052045280882901e+01  3.0513662620008127e+01  2.4886598190330243e+01  3.4689456153974113e+01  8.1694304255483033e+01  4.1716177997314027e+01  4.1683098688276353e+01  7.7703741624889929e+01  4.6458634212738673e+01  6.0214623323923547e+01  1.2669849097302226e+02  3.9759262953369294e+01  2.4312082721330253e+01  3.6722447274740865e+01  4.1967381688192276e+01  3.8241490544435862e+01  2.8062293962510694e+01  2.8114803000397135e+01  3.2813441786160929e+01  7.9912147771584197e+00  9.4953794685866427e+01  3.9160266465988215e+01  2.7387038589860833e+01  3.3895935635093963e+01  3.0788706022118731e+01  2.1193737286143531e+01  2.5885670503718234e+01  3.1196384615819692e+01  3.3248184437444110e+01  7.7007308896562535e+01  3.6365474408298859e+01  4.3176279908023801e+01  4.7091063978699232e+01  2.9315911925067439e+01  4.5572919625688026e+00  8.7032508079730619e+01  2.0380210196243759e+01  3.3390903650378618e+01  2.3877717152609261e+01  2.3844471962214030e+01  4.0757236699687020e+01  4.0092052112463492e+01  3.9347918700344152e+01  5.5747793440183607e+01  3.5936126455471900e+01  2.8560781624027641e+01  3.3570479555941645e+01  3.9093823848469128e+01  7.3565791259672991e+01  6.8672400127040191e+01  3.1239079456434226e+01  2.9622703127697299e+01  3.5888746749405655e+01  3.8223712719795799e+01  1.0340584366184854e+02  3.4656353866895515e+01  2.3412721098660864e+01  3.6411460813980661e+01  3.2219418686666629e+01  3.6477760900363393e+01  1.0670524160059173e+02  3.5518797091307285e+01  1.9855439635805944e+01  1.9950566114182418e+01  3.9931743956318179e+01  3.8228096803998717e+01  3.9400883243686174e+01  1.0344999512378148e+02  3.8515904270891099e+01  4.1293975961763621e+01  4.0274725030553192e+01  4.0650213220983034e+01  3.4864297966014583e+01  4.2103426167441050e+01  4.2062639694453217e+01  2.6033030874104774e+01  2.6003811055729589e+01  1.3403175333587555e+01  9.4749938316963025e+01  3.7203629560304762e+01  4.0355728403347513e+01  4.0646992921664307e+01  4.1309643632906230e+01  4.0042273442627213e+01  3.8979159383265568e+01  3.7919335916995173e+01  1.1204257809476385e+02  3.1841205792959300e+01  3.4250769138266584e+01  3.5589770975608211e+01  1.3526912068966249e+02  5.5773147639053434e+01  4.1450130608485480e+01  3.1240877091829688e+01  3.1351502577028000e+01  3.1649159195839747e+01  6.6014082466200421e+01  1.6139496796792944e+01  1.6267215279780384e+01  8.0607258990933701e+01  5.1954532820029854e+01  5.2470889763993227e+01  3.7461010402788588e+01  3.8427976328446363e+01  9.2970487710067871e+01  4.0410049048517450e+01  3.5260321666824531e+01  8.6109727363930233e+01  2.3264051937941812e+01  3.5461531556033066e+01  4.0939900873345429e+01  2.5820417903713551e+01  2.4607735517968443e+01  3.8979437805717254e+01  4.6304555575358904e+01  3.7933562976837123e+01  3.1726128479077772e+01  3.0880016086533004e+01  9.9231542562971057e+01  3.8019628529980508e+01  7.6304281823379952e+01  3.4934022596048962e+01  3.2870673666216810e+01  3.2692859351405019e+01  2.8286792763633606e+01  3.6463214063817524e+01  6.8712821431904203e+01  3.2383595922371022e+01  1.1195668551871745e+02  2.7689345629835294e+01  2.1846184723197752e+01  2.1820327815611648e+01  3.4835156506939384e+01  1.5983013643027018e+01  7.2690295979453225e+01  3.1026668690973658e+01  1.2627152950972020e+01  1.2704798369417281e+01  2.5549204552668822e+01  3.8665438019804753e+01  2.5575767177426609e+01  9.6487349832413202e+01  3.1773216525615965e+01  2.8046843210784079e+01  3.7491439016073656e+01  2.9012543537923989e+01  2.9716763050916196e+01  3.0979674533920818e+01  7.9369511631139574e+01  3.1100945142640740e+01  6.5131503328964698e+01  4.4168940040377798e+01  2.8737680247572033e+01  3.1333363799373355e+01  3.9697224889064309e+01  3.1013900152636541e+01  8.4789228426698244e+01  4.1090385588278146e+01  2.0719951563860921e+01  1.5393621980228110e+01  4.0826292137952834e+01  6.4768062605537878e+01  3.5063044057341685e+01  7.9948151675565285e+01  2.9132154685847127e+01  3.6913831059944506e+01  3.7421573194514401e+01  3.4915517514130137e+01  9.1657059851767116e+01  3.9447963690275202e+01  1.3057609216909742e+02  2.1363832532688839e+01  3.4312931543326634e+01  9.1277583449760389e+00  9.1328339721061624e+00  3.6817019860301748e+01  4.0582164012131919e+01  1.8008607204312828e+01  1.8017426787773470e+01  1.1940264849679822e+02  3.9022652734968155e+01  3.8551999645925036e+01  2.1408435494860534e+00  3.6598311628661243e+01  2.9421924058054810e+01  4.0236717878147864e+01  8.4232198605079489e+01  3.8516347110691918e+01  3.1907416062037793e+01  8.0142708115254223e+01  4.1909082146203495e+01  2.2222056491255589e+01  3.9571279429330495e+01  1.1935951461125515e+02  8.0754321226777748e+01  4.1843728079067695e+01  8.7847535850063181e+01  6.7792186115751448e+01  2.8008732241437325e+01  3.9903848356058390e+01  4.0795008172846444e+01  3.6832079285501919e+01  9.5865179136900281e+01  3.1617214931543266e+01  3.3488765731969224e+01  4.0177685103500330e+01  4.4818608708767123e+01  1.4392188216474715e+01  1.4533395938388098e+01  3.2896421969468321e+01  7.5725458164506861e+01  3.1246872040095738e+01  3.1084285688445252e+01  7.0605730995627837e+01  3.1141186920189625e+01  7.9625539599159069e+01  3.0739462545990087e+01  3.4325094570915780e+01  3.9823508242344694e+01  3.2463636964994997e+01  7.4548895492851329e+01  3.3269675965847760e+01  4.0963611441730180e+01  9.3507959275392523e+01  5.7763221959177855e+00  5.8268725957452085e+00  4.0008324136757928e+01  9.5033992998815986e+00  7.0389481195560677e+01  3.0024684824901893e+01  3.0383496540546783e+01  9.4515473120239193e+01  2.9819635066512948e+01  2.3788629590909533e+01  4.0482845312808116e+01  7.7642599413506758e+01  3.5354328186936435e+01  2.4909838851570685e+00  4.1479307652343643e+01  2.4530923557407231e+01  1.1303574390524837e+02  3.0217720299881311e+01  3.2032846456315198e+01  3.8269469328322018e+01  3.9627394867447613e+01  5.7323634148172424e+01  3.1583757796871648e+01  2.7360889600603723e+01  5.2122138103189840e+01  3.7624184907217682e+01  2.9841125809108721e+01  6.8371345760186927e+01  1.4403309626634309e+01  1.2977459291886495e+01  2.8283845227839084e+01  3.0159227423447987e+01  6.8828374123934807e+01  2.7899224470659782e+01  8.3000735695877253e+01  5.9004223186629240e+01  3.4166070341193141e+01  3.0333709461113081e+01  3.7712830128683827e+01  4.1974698548178459e+01  2.2589068557527813e+01  3.0483478864781087e+01  3.7525725565015733e+01  3.6498284509361206e+01  2.5348338581758767e+01  7.6437198690885737e+01  9.0403604050333698e+01  8.8492171055247439e+01  8.2504079052177616e+01  4.4683593348728948e+01  1.1177620790054594e+02  4.4323418167261650e+01  1.6554188382318433e+01  1.1436154259649489e+02  3.9030915942860624e+01  3.4114493097319261e+01  1.2039104994730489e+02  1.0468200770519780e+02  9.0020794377721742e+01  3.0566365323997591e+01  4.0992303004027143e+01  2.7009072676933130e+01  3.9596001726306973e+01  2.6906407929239062e+01  2.9673394574185302e+01  1.0534977287518029e+01  4.2246164301377334e+01  1.3333284788939037e+02  1.0858378167619325e+01  1.0966688122348605e+01  1.0295996230632150e+02  3.2058856588057395e+01  3.9340952480251588e+01  4.1105593910483940e+01  3.9740092446899901e+01  8.4886593074537359e+01  4.7747491665714477e+01  4.0155172437944913e+01  3.8524576036546328e+01  3.5013265525147276e+01  2.8629492938178835e+01  4.0959261661595853e+01  3.4322499851831964e+01  3.9642289638393926e+01  3.5511331324819466e+01  5.9375594461144125e+01  2.3618160475007066e+01  4.1824933461734915e+01  5.7754752607737991e+01  2.8047906733903581e+01  8.4105081508425357e+01  3.6630859651907919e+01  9.0196253024447159e+01  4.1121122996526736e+01  3.8651371367675296e+01  3.8862305379092142e+01  3.8022435063269661e+01  2.0244363553006924e+01  1.9123800336342704e+01  2.4784820640350254e+01  4.1706910971085499e+01  2.2304361645187203e+01  2.2474343948646442e+01  2.7697935858796271e+01  3.0901173182631151e+01  2.4637076591085137e+01  4.5067129899795390e+01  1.2132500515473527e+01  9.3272344968575723e+01  4.1677952751972150e+01  8.9094790074319022e+01  3.3393110677177596e+01  2.4594855051135980e+01  2.8824301935654152e+01  3.0527127306370545e+01  3.0137575948090713e+01  2.8424796866788967e+01  5.1330764603134028e+01  1.0024470742967716e+02  4.1155681909337837e+01  1.5594750689622870e+01  7.6136905347305344e+01  2.1776821490508606e+01  7.3200065759287739e+01  2.8301053170422890e+01  1.9157878011613242e+01  5.6955925043598072e+01  5.3940995384581193e+01  1.6176570794312653e+01  1.0209024973451841e+02  3.9067395811738464e+01  8.3536743617892384e+01  3.3865688881760533e+01  7.3780493757030584e+01  1.1618446874720527e+02  1.3953713518533490e+02  3.4793292446494789e+01  2.9754762918154494e+01  3.6279507577830707e+01  3.7329911858220143e+01  4.0085343312149874e+01  3.6963316715079628e+01  8.1596443191416142e+01  3.6056979145036479e+01  3.9089453644122649e+01  3.0942443338170335e+01  4.3727766963170723e+01  4.5899679808602357e+01  3.6936648624451252e+01  1.9750674627765182e+01  2.2545747419154264e+01  3.4434083685814