<?xml version="1.0"?>
<VTKFile type="UnstructuredGrid"  version="0.1"  >
<UnstructuredGrid>
<Piece  NumberOfPoints="1419" NumberOfCells="2698">
<Points>
<DataArray  type="Float64"  NumberOfComponents="3"  format="ascii">0 0 0  0 0.41 0  2.5 0 0  2.5 0.41 0  0.6 0.19 0  0.6 0.21 0  0.25 0.2 0  0.15 0.2 0  0.2489897948556636 0.21 0  0.2489897948556636 0.19 0  0.6 0.2 0  0 0.3807142857143437 0  0 0.3514285714286952 0  0 0.3221428571430699 0  0 0.29285714285744 0  0 0.2635714285718054 0  0 0.2342857142861561 0  0 0.2050000000005308 0  0 0.175714285714732 0  0 0.1464285714289574 0  0 0.1171428571431897 0  0 0.08785714285737878 0  0 0.05857142857161107 0  0 0.02928571428580012 0  0.03015443760436003 0 0  0.06140001986583606 0 0  0.09377624077125973 0 0  0.1273239957535082 0 0  0.1620856860351972 0 0  0.1981052433264291 0 0  0.235428184091502 0 0  0.2741016576309132 0 0  0.3141745521465447 0 0  0.3556974926295285 0 0  0.3987229542472677 0 0  0.4433053055141081 0 0  0.4895008759286886 0 0  0.5373680609405097 0 0  0.5869673343216626 0 0  0.6383613676634521 0 0  0.6916151138468254 0 0  0.7467958595648856 0 0  0.8039733463919316 0 0  0.8632198139502143 0 0  0.9246101326867038 0 0  0.9882218810934433 0 0  1.054135445558498 0 0  1.122434100542598 0 0  1.193204177141305 0 0  1.266535089879536 0 0  1.342519516046404 0 0  1.421253448503939 0 0  1.502836389106271 0 0  1.587371439758838 0 0  1.674965418777374 0 0  1.765729001825544 0 0  1.859776908880082 0 0  1.957227977487062 0 0  2.058205329869943 0 0  2.162836591189951 0 0  2.271253957290865 0 0  2.383594446803425 0 0  2.5 0.1024999999997612 0  2.5 0.2049999999994743 0  2.5 0.3074999999997183 0  2.383594446803656 0.41 0  2.271253957291315 0.41 0  2.162836591190598 0.41 0  2.058205329870775 0.41 0  1.957227977488067 0.41 0  1.859776908881246 0.41 0  1.765729001826854 0.41 0  1.674965418778818 0.41 0  1.58737143976041 0.41 0  1.502836389107956 0.41 0  1.421253448505726 0.41 0  1.342519516048286 0.41 0  1.266535089881505 0.41 0  1.193204177143353 0.41 0  1.122434100544716 0.41 0  1.05413544556068 0.41 0  0.9882218810956305 0.41 0  0.9246101326886647 0.41 0  0.8632198139519631 0.41 0  0.8039733463934788 0.41 0  0.7467958595662458 0.41 0  0.6916151138480078 0.41 0  0.6383613676644679 0.41 0  0.5869673343225223 0.41 0  0.5373680609412221 0.41 0  0.4895008759292634 0.41 0  0.4433053055145528 0.41 0  0.3987229542475914 0.41 0  0.3556974926297398 0.41 0  0.3141745521466497 0.41 0  0.2741016576310038 0.41 0  0.2354281840915826 0.41 0  0.1981052433265003 0.41 0  0.1620856860352591 0.41 0  0.1273239957535623 0.41 0  0.09377624077128965 0.41 0  0.06140001986584975 0.41 0  0.03015443760436654 0.41 0  0.2497468076502589 0.2050254481002335 0  0.2497468076502614 0.1949745518997913 0  0.2469965252529372 0.1829317073451959 0  0.2439893735792749 0.1762316384219906 0  0.2400332147834255 0.1700443375285386 0  0.2352133972704371 0.1645032867342007 0  0.2296339016332438 0.1597280261969788 0  0.2234150974217223 0.1558215752574715 0  0.2166911463437691 0.1528682099456123 0  0.2096071079204251 0.1509316448471593 0  0.2023158100364996 0.1500536585536553 0  0.194974551899914 0.1502531923497262 0  0.1877417105387872 0.1515259415822739 0  0.1807733240461124 0.153844448527136 0  0.1742197252835808 0.15715869474974 0  0.1682222986673531 0.1613971801805478 0  0.162910430003803 0.1664684656256651 0  0.1583987151779087 0.1722631454351573 0  0.1547844879126891 0.178656207771761 0  0.1521457199348551 0.1855097315605723 0  0.1505393388476355 0.1926758619366523 0  0.1505393388476328 0.2073241380633295 0  0.1521457199348437 0.2144902684393899 0  0.1547844879126531 0.221343792228163 0  0.1583987151778488 0.2277368545647528 0  0.1629104300036858 0.2335315343742052 0  0.1682222986671726 0.2386028198193036 0  0.1742197252833576 0.2428413052501257 0  0.1807733240458683 0.2461555514727623 0  0.1877417105384929 0.2484740584176516 0  0.1949745518995776 0.2497468076502398 0  0.202315810036185 0.2499463414463592 0  0.2096071079201568 0.2490683551528932 0  0.2166911463435495 0.2471317900544655 0  0.2234150974215506 0.2441784247426195 0  0.2296339016331197 0.2402719738031125 0  0.2352133972703547 0.2354967132658811 0  0.2400332147833751 0.2299556624715287 0  0.2439893735792577 0.2237683615780412 0  0.246996525252926 0.2170682926548348 0  0.25645809709277 0.21 0  0.2639263993298655 0.21 0  0.271394701566961 0.21 0  0.2788630038040554 0.21 0  0.2863313060411479 0.21 0  0.2937996082782405 0.21 0  0.301267910515333 0.21 0  0.3087362127524279 0.21 0  0.3162045149895234 0.21 0  0.3236728172265972 0.21 0  0.3311411194636928 0.21 0  0.3386094217007701 0.21 0  0.3460777239378666 0.21 0  0.3535460261749672 0.21 0  0.3610143284120516 0.21 0  0.3684826306491596 0.21 0  0.3759509328862226 0.21 0  0.383419235123329 0.21 0  0.3908875373604028 0.21 0  0.3983558395975142 0.21 0  0.4058241418345938 0.21 0  0.4132924440716992 0.21 0  0.4207607463087888 0.21 0  0.4282290485459029 0.21 0  0.4356973507830418 0.21 0  0.4431656530201649 0.21 0  0.4506339552573136 0.21 0  0.4581022574944306 0.21 0  0.4655705597315852 0.21 0  0.4730388619686996 0.21 0  0.480507164205851 0.21 0  0.4879754664429498 0.21 0  0.4954437686800938 0.21 0  0.502912070917267 0.21 0  0.5103803731544119 0.21 0  0.5178486753915261 0.21 0  0.5253169776286404 0.21 0  0.5327852798657868 0.21 0  0.5402535821029386 0.21 0  0.54772188434007 0.21 0  0.5551901865771842 0.21 0  0.5626584888143201 0.21 0  0.5701267910514778 0.21 0  0.5775950932886138 0.21 0  0.5850633955257281 0.21 0  0.5925316977628483 0.21 0  0.6 0.2050000000000054 0  0.6 0.1950000000000217 0  0.5925316977628897 0.19 0  0.5850633955257988 0.19 0  0.5775950932887378 0.19 0  0.5701267910515998 0.19 0  0.5626584888145268 0.19 0  0.5551901865773963 0.19 0  0.547721884340339 0.19 0  0.5402535821032429 0.19 0  0.5327852798661811 0.19 0  0.5253169776290537 0.19 0  0.5178486753919799 0.19 0  0.5103803731549078 0.19 0  0.502912070917822 0.19 0  0.4954437686807294 0.19 0  0.4879754664436223 0.19 0  0.4805071642065402 0.19 0  0.4730388619694271 0.19 0  0.4655705597323621 0.19 0  0.4581022574952563 0.19 0  0.4506339552581777 0.19 0  0.4431656530210671 0.19 0  0.4356973507839815 0.19 0  0.4282290485468779 0.19 0  0.4207607463097617 0.19 0  0.4132924440726327 0.19 0  0.4058241418354857 0.19 0  0.3983558395983636 0.19 0  0.3908875373612097 0.19 0  0.3834192351240934 0.19 0  0.3759509328869369 0.19 0  0.3684826306498175 0.19 0  0.361014328412667 0.19 0  0.3535460261755617 0.19 0  0.3460777239384295 0.19 0  0.3386094217012945 0.19 0  0.3311411194641595 0.19 0  0.3236728172270245 0.19 0  0.3162045149898895 0.19 0  0.3087362127527544 0.19 0  0.3012679105156187 0.19 0  0.2937996082784807 0.19 0  0.2863313060413428 0.19 0  0.2788630038042048 0.19 0  0.2713947015670686 0.19 0  0.2639263993299336 0.19 0  0.2564580970927985 0.19 0  0.2607803159922026 0.2000727136295815 0  0.5887803774232762 0.2001272386983733 0  0.5745072403740523 0.2002044435018727 0  0.5511891430099709 0.2001122610077113 0  0.2751288526855082 0.20000000000002 0  0.5365194309847112 0.1999999999999436 0  0.2894621222999649 0.1998691686390484 0  0.5215828265105155 0.1999999999999228 0  0.3127789816668748 0.1998657885438805 0  0.3274069683451451 0.2000000000000796 0  0.5066462220363641 0.199999999999908 0  0.3650630746574081 0.199866017807523 0  0.476773013087985 0.1999999999998713 0  0.3417402379596385 0.1998691686391011 0  0.3796850840047755 0.200000000000134 0  0.4618364086138087 0.1999999999998546 0  0.4917096175621762 0.1999999999998808 0  0.3946216884789568 0.2000000000001512 0  0.446899804139621 0.1999999999998389 0  0.4089549580935208 0.1998691686391595 0  0.4322718174608562 0.200127451265745 0  0.4201487168029707 0.1999966199048527 0  0.3528922713220932 0.2000185703532356 0  0.5633122436674589 0.1999814296467508 0  0.3006558810093873 0.1999966199048318 0  0.5815926498168407 0.1966545283159175 0  0.2677053789419034 0.1964246479135325 0  0.5290511287476175 0.1970915826863981 0  0.5439877332217911 0.197091582686394 0  0.2825131256993216 0.2035478995978015 0  0.3199386661080599 0.202908417313604 0  0.4842413153250809 0.1970915826863873 0  0.5141145242734466 0.1970915826863843 0  0.3722167817676917 0.2029084173136195 0  0.4693047108508938 0.1970915826863783 0  0.3348752705822316 0.202908417313609 0  0.3871533862418661 0.2029084173136212 0  0.4543681063767183 0.1970915826863795 0  0.4991779197992749 0.1970915826863902 0  0.4020059614928624 0.203547899597858 0  0.4394315019025246 0.1970915826863714 0  0.2550657455369551 0.2034088125358657 0  0.2548908499171161 0.1966940311614271 0  0.5946539510196798 0.2024302972968126 0  0.267698176732111 0.2039977513680092 0  0.4261685417851465 0.196409292431739 0  0.3590076176283495 0.196411355804271 0  0.5571672426447437 0.2036011176410121 0  0.3066757059912147 0.1964092924317024 0  0.594380730180568 0.1966558399668133 0  0.4842413153245942 0.2040749161535287 0  0.4693047108503577 0.2040749161535231 0  0.3871533862424271 0.1959250838464788 0  0.372246743208829 0.1959123236376545 0  0.5141145242731028 0.2040749161535395 0  0.4543681063761134 0.2040749161535186 0  0.4019979587101454 0.1959834479682427 0  0.4394608940728603 0.2040870543693135 0  0.5439623148931173 0.2040856076781014 0  0.5290511287473298 0.2040749161535501 0  0.4991779197988497 0.2040749161535382 0  0.3347912413592433 0.1959225448935183 0  0.3199680582793816 0.1959123018030061 0  0.2825051229162361 0.1959834479681729 0  0.3590471196690275 0.2036304442587945 0  0.5571594006495384 0.1963685282145804 0  0.3067669986803285 0.203627750582736 0  0.4262598344738712 0.2036568242185335 0  0.5814408164431408 0.2041285596160068 0  0.5688286748170428 0.1961819304477386 0  0.4145905603063645 0.2038180695522843 0  0.3473758401724931 0.2038180695522752 0  0.2950977245128307 0.2038180695522663 0  0.5688286748170693 0.203818069552238 0  0.2950977245127906 0.1961819304477774 0  0.3473758401723931 0.1961819304478349 0  0.4145905603061963 0.1961819304479011 0  0.2601812407614425 0.2056861609747042
[...]
<PointData  Vectors="f_40-0"> 
<DataArray  type="Float64"  Name="f_40-0"  NumberOfComponents="3" format="ascii">0.0000000000000000e+00 0.0000000000000000e+00 0.0000000000000000e+00  0.0000000000000000e+00 0.0000000000000000e+00 0.0000000000000000e+00  0.0000000000000000e+00 0.0000000000000000e+00 0.0000000000000000e+00  0.0000000000000000e+00 0.0000000000000000e+00 0.0000000000000000e+00  4.8479489311516579e-05 -1.9767241011517614e-04 0.0000000000000000e+00  6.3436055458289349e-05 -1.9647091121241379e-04 0.0000000000000000e+00  0.0000000000000000e+00 0.0000000000000000e+00 0.0000000000000000e+00  0.0000000000000000e+00 0.0000000000000000e+00 0.0000000000000000e+00  0.0000000000000000e+00 0.0000000000000000e+00 0.0000000000000000e+00  0.0000000000000000e+00 0.0000000000000000e+00 0.0000000000000000e+00  5.5607603713893206e-05 -1.9706605173159714e-04 0.0000000000000000e+00  6.7935882108320064e-02 0.0000000000000000e+00 0.0000000000000000e+00  1.2542009004613766e-01 0.0000000000000000e+00 0.0000000000000000e+00  1.7245262381343934e-01 0.0000000000000000e+00 0.0000000000000000e+00  2.0903348341027950e-01 0.0000000000000000e+00 0.0000000000000000e+00  2.3516266883665335e-01 0.0000000000000000e+00 0.0000000000000000e+00  2.5084018009255948e-01 0.0000000000000000e+00 0.0000000000000000e+00  2.5606601717798211e-01 0.0000000000000000e+00 0.0000000000000000e+00  2.5084018009287645e-01 0.0000000000000000e+00 0.0000000000000000e+00  2.3516266883719783e-01 0.0000000000000000e+00 0.0000000000000000e+00  2.0903348341095371e-01 0.0000000000000000e+00 0.0000000000000000e+00  1.7245262381407986e-01 0.0000000000000000e+00 0.0000000000000000e+00  1.2542009004668425e-01 0.0000000000000000e+00 0.0000000000000000e+00  6.7935882108628040e-02 0.0000000000000000e+00 0.0000000000000000e+00  0.0000000000000000e+00 0.0000000000000000e+00 0.0000000000000000e+00  0.0000000000000000e+00 0.0000000000000000e+00 0.0000000000000000e+00  0.0000000000000000e+00 0.0000000000000000e+00 0.0000000000000000e+00  0.0000000000000000e+00 0.0000000000000000e+00 0.0000000000000000e+00  0.0000000000000000e+00 0.0000000000000000e+00 0.0000000000000000e+00  0.0000000000000000e+00 0.0000000000000000e+00 0.0000000000000000e+00  0.0000000000000000e+00 0.0000000000000000e+00 0.0000000000000000e+00  0.0000000000000000e+00 0.0000000000000000e+00 0.0000000000000000e+00  0.0000000000000000e+00 0.0000000000000000e+00 0.0000000000000000e+00  0.0000000000000000e+00 0.0000000000000000e+00 0.0000000000000000e+00  0.0000000000000000e+00 0.0000000000000000e+00 0.0000000000000000e+00  0.0000000000000000e+00 0.0000000000000000e+00 0.0000000000000000e+00  0.0000000000000000e+00 0.0000000000000000e+00 0.0000000000000000e+00  0.0000000000000000e+00 0.0000000000000000e+00 0.0000000000000000e+00  0.0000000000000000e+00 0.0000000000000000e+00 0.0000000000000000e+00  0.0000000000000000e+00 0.0000000000000000e+00 0.0000000000000000e+00  0.0000000000000000e+00 0.0000000000000000e+00 0.0000000000000000e+00  0.0000000000000000e+00 0.0000000000000000e+00 0.0000000000000000e+00  0.0000000000000000e+00 0.0000000000000000e+00 0.0000000000000000e+00  0.0000000000000000e+00 0.0000000000000000e+00 0.0000000000000000e+00  0.0000000000000000e+00 0.0000000000000000e+00 0.0000000000000000e+00  0.0000000000000000e+00 0.0000000000000000e+00 0.0000000000000000e+00  0.0000000000000000e+00 0.0000000000000000e+00 0.0000000000000000e+00  0.0000000000000000e+00 0.0000000000000000e+00 0.0000000000000000e+00  0.0000000000000000e+00 0.0000000000000000e+00 0.0000000000000000e+00  0.0000000000000000e+00 0.0000000000000000e+00 0.0000000000000000e+00  0.0000000000000000e+00 0.0000000000000000e+00 0.0000000000000000e+00  0.0000000000000000e+00 0.0000000000000000e+00 0.0000000000000000e+00  0.0000000000000000e+00 0.0000000000000000e+00 0.0000000000000000e+00  0.0000000000000000e+00 0.0000000000000000e+00 0.0000000000000000e+00  0.0000000000000000e+00 0.0000000000000000e+00 0.0000000000000000e+00  0.0000000000000000e+00 0.0000000000000000e+00 0.0000000000000000e+00  0.0000000000000000e+00 0.0000000000000000e+00 0.0000000000000000e+00  0.0000000000000000e+00 0.0000000000000000e+00 0.0000000000000000e+00  0.0000000000000000e+00 0.0000000000000000e+00 0.0000000000000000e+00  0.0000000000000000e+00 0.0000000000000000e+00 0.0000000000000000e+00  0.0000000000000000e+00 0.0000000000000000e+00 0.0000000000000000e+00  0.0000000000000000e+00 0.0000000000000000e+00 0.0000000000000000e+00  1.9082611718523285e-01 2.1828453849520200e-03 0.0000000000000000e+00  1.9559341592779783e-01 4.8374129643421890e-04 0.0000000000000000e+00  1.8952370127100021e-01 -2.9190551015365264e-03 0.0000000000000000e+00  0.0000000000000000e+00 0.0000000000000000e+00 0.0000000000000000e+00  0.0000000000000000e+00 0.0000000000000000e+00 0.0000000000000000e+00  0.0000000000000000e+00 0.0000000000000000e+00 0.0000000000000000e+00  0.0000000000000000e+00 0.0000000000000000e+00 0.0000000000000000e+00  0.0000000000000000e+00 0.0000000000000000e+00 0.0000000000000000e+00  0.0000000000000000e+00 0.0000000000000000e+00 0.0000000000000000e+00  0.0000000000000000e+00 0.0000000000000000e+00 0.0000000000000000e+00  0.0000000000000000e+00 0.0000000000000000e+00 0.0000000000000000e+00  0.0000000000000000e+00 0.0000000000000000e+00 0.0000000000000000e+00  0.0000000000000000e+00 0.0000000000000000e+00 0.0000000000000000e+00  0.0000000000000000e+00 0.0000000000000000e+00 0.0000000000000000e+00  0.0000000000000000e+00 0.0000000000000000e+00 0.0000000000000000e+00  0.0000000000000000e+00 0.0000000000000000e+00 0.0000000000000000e+00  0.0000000000000000e+00 0.0000000000000000e+00 0.0000000000000000e+00  0.0000000000000000e+00 0.0000000000000000e+00 0.0000000000000000e+00  0.0000000000000000e+00 0.0000000000000000e+00 0.0000000000000000e+00  0.0000000000000000e+00 0.0000000000000000e+00 0.0000000000000000e+00  0.0000000000000000e+00 0.0000000000000000e+00 0.0000000000000000e+00  0.0000000000000000e+00 0.0000000000000000e+00 0.0000000000000000e+00  0.0000000000000000e+00 0.0000000000000000e+00 0.0000000000000000e+00  0.0000000000000000e+00 0.0000000000000000e+00 0.0000000000000000e+00  0.0000000000000000e+00 0.0000000000000000e+00 0.0000000000000000e+00  0.0000000000000000e+00 0.0000000000000000e+00 0.0000000000000000e+00  0.0000000000000000e+00 0.0000000000000000e+00 0.0000000000000000e+00  0.0000000000000000e+00 0.0000000000000000e+00 0.0000000000000000e+00  0.0000000000000000e+00 0.0000000000000000e+00 0.0000000000000000e+00  0.0000000000000000e+00 0.0000000000000000e+00 0.0000000000000000e+00  0.0000000000000000e+00 0.0000000000000000e+00 0.0000000000000000e+00  0.0000000000000000e+00 0.0000000000000000e+00 0.0000000000000000e+00  0.0000000000000000e+00 0.0000000000000000e+00 0.0000000000000000e+00  0.0000000000000000e+00 0.0000000000000000e+00 0.0000000000000000e+00  0.0000000000000000e+00 0.0000000000000000e+00 0.0000000000000000e+00  0.0000000000000000e+00 0.0000000000000000e+00 0.0000000000000000e+00  0.0000000000000000e+00 0.0000000000000000e+00 0.0000000000000000e+00  0.0000000000000000e+00 0.0000000000000000e+00 0.0000000000000000e+00  0.0000000000000000e+00 0.0000000000000000e+00 0.0000000000000000e+00  0.0000000000000000e+00 0.0000000000000000e+00 0.0000000000000000e+00  0.0000000000000000e+00 0.0000000000000000e+00 0.0000000000000000e+00  0.0000000000000000e+00 0.0000000000000000e+00 0.0000000000000000e+00  0.0000000000000000e+00 0.0000000000000000e+00 0.0000000000000000e+00  0.0000000000000000e+00 0.0000000000000000e+00 0.0000000000000000e+00  0.0000000000000000e+00 0.0000000000000000e+00 0.0000000000000000e+00  0.0000000000000000e+00 0.0000000000000000e+00 0.0000000000000000e+00  0.0000000000000000e+00 0.0000000000000000e+00 0.0000000000000000e+00  0.0000000000000000e+00 0.0000000000000000e+00 0.0000000000000000e+00  0.0000000000000000e+00 0.0000000000000000e+00 0.0000000000000000e+00  0.0000000000000000e+00 0.0000000000000000e+00 0.0000000000000000e+00  0.0000000000000000e+00 0.0000000000000000e+00 0.0000000000000000e+00  0.0000000000000000e+00 0.0000000000000000e+00 0.0000000000000000e+00  0.0000000000000000e+00 0.0000000000000000e+00 0.0000000000000000e+00  0.0000000000000000e+00 0.0000000000000000e+00 0.0000000000000000e+00  0.0000000000000000e+00 0.0000000000000000e+00 0.0000000000000000e+00  0.0000000000000000e+00 0.0000000000000000e+00 0.0000000000000000e+00  0.0000000000000000e+00 0.0000000000000000e+00 0.0000000000000000e+00  0.0000000000000000e+00 0.0000000000000000e+00 0.0000000000000000e+00  0.0000000000000000e+00 0.0000000000000000e+00 0.0000000000000000e+00  0.0000000000000000e+00 0.0000000000000000e+00 0.0000000000000000e+00  0.0000000000000000e+00 0.0000000000000000e+00 0.0000000000000000e+00  0.0000000000000000e+00 0.0000000000000000e+00 0.0000000000000000e+00  0.0000000000000000e+00 0.0000000000000000e+00 0.0000000000000000e+00  0.0000000000000000e+00 0.0000000000000000e+00 0.0000000000000000e+00  0.0000000000000000e+00 0.0000000000000000e+00 0.0000000000000000e+00  0.0000000000000000e+00 0.0000000000000000e+00 0.0000000000000000e+00  0.0000000000000000e+00 0.0000000000000000e+00 0.0000000000000000e+00  0.0000000000000000e+00 0.0000000000000000e+00 0.0000000000000000e+00  0.0000000000000000e+00 0.0000000000000000e+00 0.0000000000000000e+00  0.0000000000000000e+00 0.0000000000000000e+00 0.0000000000000000e+00  0.0000000000000000e+00 0.0000000000000000e+00 0.0000000000000000e+00  0.0000000000000000e+00 0.0000000000000000e+00 0.0000000000000000e+00  0.0000000000000000e+00 0.0000000000000000e+00 0.0000000000000000e+00  0.0000000000000000e+00 0.0000000000000000e+00 0.0000000000000000e+00  0.0000000000000000e+00 0.0000000000000000e+00 0.0000000000000000e+00  0.0000000000000000e+00 0.0000000000000000e+00 0.0000000000000000e+00  0.0000000000000000e+00 0.0000000000000000e+00 0.0000000000000000e+00  0.0000000000000000e+00 0.0000000000000000e+00 0.0000000000000000e+00  0.0000000000000000e+00 0.0000000000000000e+00 0.0000000000000000e+00  0.0000000000000000e+00 0.0000000000000000e+00 0.0000000000000000e+00  0.0000000000000000e+00 0.0000000000000000e+00 0.0000000000000000e+00  1.5771077392004107e-06 1.4810994228184536e-07 0.0000000000000000e+00  3.3257968719999518e-06 -1.2838739461996191e-07 0.0000000000000000e+00  5.1019668787882209e-06 -7.0124726466070929e-07 0.0000000000000000e+00  6.9027483404182492e-06 -1.5369509343876141e-06 0.0000000000000000e+00  8.7270406988072966e-06 -2.6333699753590951e-06 0.0000000000000000e+00  1.0569230559315094e-05 -3.9939627801816999e-06 0.0000000000000000e+00  1.2419951612184893e-05 -5.6204915050560514e-06 0.0000000000000000e+00  1.4272103342835970e-05 -7.5135874159101032e-06 0.0000000000000000e+00  1.6119082543377694e-05 -9.6716792511171323e-06 0.0000000000000000e+00  1.7953386084713115e-05 -1.2091205007157385e-05 0.0000000000000000e+00  1.9771094790820844e-05 -1.4767734031787478e-05 0.0000000000000000e+00  2.1566384249773692e-05 -1.7694052478279182e-05 0.0000000000000000e+00  2.3336386899110787e-05 -2.0863164266543398e-05 0.0000000000000000e+00  2.5076745897225619e-05 -2.4264801693845712e-05 0.0000000000000000e+00  2.6786536655803350e-05 -2.7889835222980479e-05 0.0000000000000000e+00  2.8462434410500860e-05 -3.1727640120089743e-05 0.0000000000000000e+00  3.0102827217401248e-05 -3.5765949599223257e-05 0.0000000000000000e+00  3.1706933617285015e-05 -3.9993507915012811e-05 0.0000000000000000e+00  3.3273510823460772e-05 -4.4396946166369489e-05 0.0000000000000000e+00  3.4802222889032890e-05 -4.8964644361732897e-05 0.0000000000000000e+00  3.6292563012384331e-05 -5.3683105447951214e-05 0.0000000000000000e+00  3.7744461222477145e-05 -5.8540252255474876e-05 0.0000000000000000e+00  3.9157493725534799e-05 -6.3522428932637976e-05 0.0000000000000000e+00  4.0533452999683026e-05 -6.8618080578543389e-05 0.0000000000000000e+00  4.1871193173462489e-05 -7.3815223963932710e-05 0.0000000000000000e+00  4.3171672177061953e-05 -7.9101729002046839e-05 0.0000000000000000e+00  4.4435512668303701e-05 -8.4466100643187944e-05 0.0000000000000000e+00  4.5663378371877151e-05 -8.9897683280292233e-05 0.0000000000000000e+00  4.6856059825431549e-05 -9.5386068937325532e-05 0.0000000000000000e+00  4.8014309398247960e-05 -1.0092140004556795e-04 0.0000000000000000e+00  4.9138955279519546e-05 -1.0649480983283487e-04 0.0000000000000000e+00  5.0231011097880211e-05 -1.1209756724592190e-04 0.0000000000000000e+00  5.1291080467691742e-05 -1.1772211433514202e-04 0.0000000000000000e+00  5.2320414019844498e-05 -1.2336152858636009e-04 0.0000000000000000e+00  5.3319784952155266e-05 -1.2900933956097458e-04 0.0000000000000000e+00  5.4290044354559837e-05 -1.3466019750215253e-04 0.0000000000000000e+00  5.5232031143298893e-05 -1.4030948930433379e-04 0.0000000000000000e+00  5.6146651503251813e-05 -1.4595326657532005e-04 0.0000000000000000e+00  5.7034635504666411e-05 -1.5158867627640312e-04 0.0000000000000000e+00  5.7896735808267285e-05 -1.5721327387098228e-04 0.0000000000000000e+00  5.8733360426251204e-05 -1.6282580714353114e-04 0.0000000000000000e+00  5.9545053978518744e-05 -1.6842554377266759e-04 0.0000000000000000e+00  6.0331684635819861e-05 -1.7401259057678669e-04 0.0000000000000000e+00  6.1093055718966258e-05 -1.7958631530057422e-04 0.0000000000000000e+00  6.1834019692073280e-05 -1.8514551684333056e-04 0.0000000000000000e+00  6.2584464995517604e-05 -1.9070848579070843e-04 0.0000000000000000e+00  5.9412774647667924e-05 -1.9675623902087319e-04 0.0000000000000000e+00  5.1939285977246914e-05 -1.9737978578873887e-04 0.0000000000000000e+00  4.7636845394961849e-05 -1.9226426175336360e-04 0.0000000000000000e+00  4.6874422149892976e-05 -1.8665992514491816e-04 0.0000000000000000e+00  4.6117743319548666e-05 -1.8103920119247617e-04 0.0000000000000000e+00  4.5334816405912637e-05 -1.7541663496050783e-04 0.0000000000000000e+00  4.4522598294007603e-05 -1.6978682092773614e-04 0.0000000000000000e+00  4.3683411855368252e-05 -1.6414709923375206e-04 0.0000000000000000e+00  4.2819125764945459e-05 -1.5849656598828794e-04 0.0000000000000000e+00  4.1931951375606451e-05 -1.5283529476577126e-04 0.0000000000000000e+00  4.1023088260393443e-05 -1.4716454263541471e-04 0.0000000000000000e+00  4.0094509832436352e-05 -1.4148627457037587e-04 0.0000000000000000e+00  3.9147293932192953e-05 -1.3580327904439936e-04 0.0000000000000000e+00  3.8183204227077669e-05 -1.3011934472976578e-04 0.0000000000000000e+00  3.7203151537539518e-05 -1.2443882045471604e-04 0.0000000000000000e+00  3.6208719200505922e-05 -1.1876735308596258e-04 0.0000000000000000e+00  3.5200756799080782e-05 -1.1311073097237811e-04 0.0000000000000000e+00  3.4180647664040828e-05 -1.0747631318588490e-04 0.0000000000000000e+00  3.3149180474763129e-05 -1.0187131347739007e-04 0.0000000000000000e+00  3.2107582208024829e-05 -9.6304624424848963e-05 0.0000000000000000e+00  3.1056478135504865e-05 -9.0784719934124540e-05 0.0000000000000000e+00  2.9996928945099512e-05 -8.5322004899870081e-05 0.0000000000000000e+00  2.8929485124267323e-05 -7.9926078218591374e-05 0.0000000000000000e+00  2.7854998291413139e-05 -7.4608534534599988e-05 0.0000000000000000e+00  2.6774045622441139e-05 -6.9380100880093765e-05 0.0000000000000000e+00  2.5687681923698495e-05 -6.4253318433713056e-05 0.0000000000000000e+00  2.4594868800601430e-05 -5.9240081623737346e-05 0.0000000000000000e+00  2.3497394461382753e-05 -5.4352199834942292e-05 0.0000000000000000e+00  2.2395357805670751e-05 -4.9603216901030583e-05 0.0000000000000000e+00  2.1288810584533028e-05 -4.5005697808785215e-05 0.0000000000000000e+00  2.0178127429685987e-05 -4.0572814589786335e-05 0.0000000000000000e+00  1.9063441036289510e-05 -3.6317190138329077e-05 0.0000000000000000e+00  1.7944900918131177e-05 -3.2251770683185685e-05 0.0000000000000000e+00  1.6822718935442939e-05 -2.8388688213353158e-05 0.0000000000000000e+00  1.5697355411377397e-05 -2.4740721183580862e-05 0.0000000000000000e+00  1.4567857566904910e-05 -2.1318769644267780e-05 0.0000000000000000e+00  1.3435684671190448e-05 -1.8133445771169893e-05 0.0000000000000000e+00  1.2301110067770831e-05 -1.5194933693215690e-05 0.0000000000000000e+00  1.1164461737462527e-05 -1.2512249107043930e-05 0.0000000000000000e+00  1.0026863817476350e-05 -1.0092926449609448e-05 0.0000000000000000e+00  8.8892365176470194e-06 -7.9433184153856552e-06 0.0000000000000000e+00  7.7534579681012759e-06 -6.0680842332792848e-06 0.0000000000000000e+00  6.6211812538845149e-06 -4.4698825342032732e-06 0.0000000000000000e+00  5.4947746087862597e-06 -3.1493298571069170e-06 0.0000000000000000e+00  4.3764652860389618e-06 -2.1043943608001721e-06 0.0000000000000000e+00  3.2669545433615600e-06 -1.3299856573416896e-06 0.0000000000000000e+00  2.1599133833280705e-06 -8.1038680663849291e-07 0.0000000000000000e+00  1.0390549889347939e-06 -4.8596039309575018e-07 0.0000000000000000e+00  2.1748879016675108e-06 -1.6858884741475916e-07 0.0000000000000000e+00  5.4703088148181450e-05 -1.8867301515137304e-04 0.0000000000000000e+00  5.3368912980313110e-05 -1.7798865875832102e-04 0.0000000000000000e+00  5.0771152278437749e-05 -1.6046903747588806e-04 0.0000000000000000e+00  4.9128831810132466e-06 -1.2325866696100368e-06 0.0000000000000000e+00  4.8969554364966582e-05 -1.4939056624311620e-04 0.0000000000000000e+00  7.6978263792946661e-06 -3.2653886935606800e-06 0.0000000000000000e+00  4.7127549368424116e-05 -1.3806572132491098e-04 0.0000000000000000e+00  1.2318619361170713e-05 -8.7068654713790653e-06 0.0000000000000000e+00  1.5257146726831836e-05 -1.3458255134865219e-05 0.0000000000000000e+00  4.5193974092163138e-05 -1.2672657546462874e-04 0.0000000000000000e+00  2.2440243769888588e-05 -3.0081389969197612e-05 0.0000000000000000e+00  4.1058998778997312e-05 -1.0416540362001186e-04 0.0000000000000000e+00  1.8007363065406849e-05 -1.9077139674381545e-05 0.0000000000000000e+00  2.5206056799162388e-05 -3.8030313902887963e-05 0.0000000000000000e+00  3.8859383908029731e-05 -9.3054702081703572e-05 0.0000000000000000e+00  4.3170740809168168e-05 -1.1540993006056661e-04 0.0000000000000000e+00  2.7881398032081259e-05 -4.6878604631056493e-05 0.0000000000000000e+00  3.6572200030649076e-05 -8.2150655131353956e-05 0.0000000000000000e+00  3.0285028054023520e-05 -5.5968712479297609e-05 0.0000000000000000e+00  3.4336064468015742e-05 -7.1746806431685617e-05 0.0000000000000000e+00  3.2255430646426751e-05 -6.3405230030130245e-05 0.0000000000000000e+00  2.0217570547513748e-05 -2.4061009443349998e-05 0.0000000000000000e+00  5.2019635610664563e-05 -1.6960415211318656e-04 0.0000000000000000e+00  9.9421566312666428e-06 -5.5428501972791028e-06 0.0000000000000000e+00  5.1433499954534729e-05 -1.8355887712308367e-04 0.0000000000000000e+00  3.2118946466374499e-06 -7.0465639076932275e-07 0.0000000000000000e+00  4.5866242861361681e-05 -1.4390516339824516e-04 0.0000000000000000e+00  4.7667003071888572e-05 -1.5522333306429255e-04 0.0000000000000000e+00  6.8636069402195306e-06 -2.0772205395380297e-06 0.0000000000000000e+00  1.4718314244770507e-05 -1.0856010550322486e-05 0.0000000000000000e+00  3.9952795328296717e-05 -1.0992151233473827e-04 0.0000000000000000e+00  4.3977160021139341e-05 -1.3255994588381450e-04 0.0000000000000000e+00  2.5407138305948528e-05 -3.3806404893952304e-05 0.0000000000000000e+00  3.7824639776195796e-05 -9.8727124329489146e-05 0.0000000000000000e+00  1.7860596943756689e-05 -1.6218772813481381e-05 0.0000000000000000e+00  2.8265719897725570e-05 -4.2291321563879222e-05 0.0000000000000000e+00  3.5622802210626302e-05 -8.7701841125672239e-05 0.0000000000000000e+00  4.2004696322458298e-05 -1.2121767699267092e-04 0.0000000000000000e+00  3.1411834667287402e-05 -5.1387501121303383e-05 0.0000000000000000e+00  3.3349348544744324e-05 -7.6923563604516635e-05 0.0000000000000000e+00  1.1431918143309617e-06 6.4614912620476699e-08 0.0000000000000000e+00  9.8110793793268292e-07 -9.4476626487760071e-08 0.0000000000000000e+00  5.6955758874685320e-05 -1.9287748109288175e-04 0.0000000000000000e+00  3.7847281455332152e-06 -4.5520269819289729e-07 0.0000000000000000e+00  3.08089