<?xml version="1.0"?>
<VTKFile type="UnstructuredGrid"  version="0.1"  >
<UnstructuredGrid>
<Piece  NumberOfPoints="121" NumberOfCells="200">
<Points>
<DataArray  type="Float64"  NumberOfComponents="3"  format="ascii">0 0 0  0.1 0 0  0.2 0 0  0.3 0 0  0.4 0 0  0.5 0 0  0.6 0 0  0.7 0 0  0.8 0 0  0.9 0 0  1 0 0  0 0.1 0  0.1 0.1 0  0.2 0.1 0  0.3 0.1 0  0.4 0.1 0  0.5 0.1 0  0.6 0.1 0  0.7 0.1 0  0.8 0.1 0  0.9 0.1 0  1 0.1 0  0 0.2 0  0.1 0.2 0  0.2 0.2 0  0.3 0.2 0  0.4 0.2 0  0.5 0.2 0  0.6 0.2 0  0.7 0.2 0  0.8 0.2 0  0.9 0.2 0  1 0.2 0  0 0.3 0  0.1 0.3 0  0.2 0.3 0  0.3 0.3 0  0.4 0.3 0  0.5 0.3 0  0.6 0.3 0  0.7 0.3 0  0.8 0.3 0  0.9 0.3 0  1 0.3 0  0 0.4 0  0.1 0.4 0  0.2 0.4 0  0.3 0.4 0  0.4 0.4 0  0.5 0.4 0  0.6 0.4 0  0.7 0.4 0  0.8 0.4 0  0.9 0.4 0  1 0.4 0  0 0.5 0  0.1 0.5 0  0.2 0.5 0  0.3 0.5 0  0.4 0.5 0  0.5 0.5 0  0.6 0.5 0  0.7 0.5 0  0.8 0.5 0  0.9 0.5 0  1 0.5 0  0 0.6 0  0.1 0.6 0  0.2 0.6 0  0.3 0.6 0  0.4 0.6 0  0.5 0.6 0  0.6 0.6 0  0.7 0.6 0  0.8 0.6 0  0.9 0.6 0  1 0.6 0  0 0.7 0  0.1 0.7 0  0.2 0.7 0  0.3 0.7 0  0.4 0.7 0  0.5 0.7 0  0.6 0.7 0  0.7 0.7 0  0.8 0.7 0  0.9 0.7 0  1 0.7 0  0 0.8 0  0.1 0.8 0  0.2 0.8 0  0.3 0.8 0  0.4 0.8 0  0.5 0.8 0  0.6 0.8 0  0.7 0.8 0  0.8 0.8 0  0.9 0.8 0  1 0.8 0  0 0.9 0  0.1 0.9 0  0.2 0.9 0  0.3 0.9 0  0.4 0.9 0  0.5 0.9 0  0.6 0.9 0  0.7 0.9 0  0.8 0.9 0  0.9 0.9 0  1 0.9 0  0 1 0  0.1 1 0  0.2 1 0  0.3 1 0  0.4 1 0  0.5 1 0  0.6 1 0  0.7 1 0  0.8 1 0  0.9 1 0  1 1 0  </DataArray>
</Points>
<Cells>
<DataArray  type="UInt32"  Name="connectivity"  format="ascii">0 1 12  0 11 12  1 2 13  1 12 13  2 3 14  2 13 14  3 4 15  3 14 15  4 5 16  4 15 16  5 6 17  5 16 17  6 7 18  6 17 18  7 8 19  7 18 19  8 9 20  8 19 20  9 10 21  9 20 21  11 12 23  11 22 23  12 13 24  12 23 24  13 14 25  13 24 25  14 15 26  14 25 26  15 16 27  15 26 27  16 17 28  16 27 28  17 18 29  17 28 29  18 19 30  18 29 30  19 20 31  19 30 31  20 21 32  20 31 32  22 23 34  22 33 34  23 24 35  23 34 35  24 25 36  24 35 36  25 26 37  25 36 37  26 27 38  26 37 38  27 28 39  27 38 39  28 29 40  28 39 40  29 30 41  29 40 41  30 31 42  30 41 42  31 32 43  31 42 43  33 34 45  33 44 45  34 35 46  34 45 46  35 36 47  35 46 47  36 37 48  36 47 48  37 38 49  37 48 49  38 39 50  38 49 50  39 40 51  39 50 51  40 41 52  40 51 52  41 42 53  41 52 53  42 43 54  42 53 54  44 45 56  44 55 56  45 46 57  45 56 57  46 47 58  46 57 58  47 48 59  47 58 59  48 49 60  48 59 60  49 50 61  49 60 61  50 51 62  50 61 62  51 52 63  51 62 63  52 53 64  52 63 64  53 54 65  53 64 65  55 56 67  55 66 67  56 57 68  56 67 68  57 58 69  57 68 69  58 59 70  58 69 70  59 60 71  59 70 71  60 61 72  60 71 72  61 62 73  61 72 73  62 63 74  62 73 74  63 64 75  63 74 75  64 65 76  64 75 76  66 67 78  66 77 78  67 68 79  67 78 79  68 69 80  68 79 80  69 70 81  69 80 81  70 71 82  70 81 82  71 72 83  71 82 83  72 73 84  72 83 84  73 74 85  73 84 85  74 75 86  74 85 86  75 76 87  75 86 87  77 78 89  77 88 89  78 79 90  78 89 90  79 80 91  79 90 91  80 81 92  80 91 92  81 82 93  81 92 93  82 83 94  82 93 94  83 84 95  83 94 95  84 85 96  84 95 96  85 86 97  85 96 97  86 87 98  86 97 98  88 89 100  88 99 100  89 90 101  89 100 101  90 91 102  90 101 102  91 92 103  91 102 103  92 93 104  92 103 104  93 94 105  93 104 105  94 95 106  94 105 106  95 96 107  95 106 107  96 97 108  96 107 108  97 98 109  97 108 109  99 100 111  99 110 111  100 101 112  100 111 112  101 102 113  101 112 113  102 103 114  102 113 114  103 104 115  103 114 115  104 105 116  104 115 116  105 106 117  105 116 117  106 107 118  106 117 118  107 108 119  107 118 119  108 109 120  108 119 120  </DataArray>
<DataArray  type="UInt32"  Name="offsets"  format="ascii">3 6 9 12 15 18 21 24 27 30 33 36 39 42 45 48 51 54 57 60 63 66 69 72 75 78 81 84 87 90 93 96 99 102 105 108 111 114 117 120 123 126 129 132 135 138 141 144 147 150 153 156 159 162 165 168 171 174 177 180 183 186 189 192 195 198 201 204 207 210 213 216 219 222 225 228 231 234 237 240 243 246 249 252 255 258 261 264 267 270 273 276 279 282 285 288 291 294 297 300 303 306 309 312 315 318 321 324 327 330 333 336 339 342 345 348 351 354 357 360 363 366 369 372 375 378 381 384 387 390 393 396 399 402 405 408 411 414 417 420 423 426 429 432 435 438 441 444 447 450 453 456 459 462 465 468 471 474 477 480 483 486 489 492 495 498 501 504 507 510 513 516 519 522 525 528 531 534 537 540 543 546 549 552 555 558 561 564 567 570 573 576 579 582 585 588 591 594 597 600 </DataArray>
<DataArray  type="UInt8"  Name="types"  format="ascii">5 5 5 5 5 5 5 5 5 5 5 5 5 5 5 5 5 5 5 5 5 5 5 5 5 5 5 5 5 5 5 5 5 5 5 5 5 5 5 5 5 5 5 5 5 5 5 5 5 5 5 5 5 5 5 5 5 5 5 5 5 5 5 5 5 5 5 5 5 5 5 5 5 5 5 5 5 5 5 5 5 5 5 5 5 5 5 5 5 5 5 5 5 5 5 5 5 5 5 5 5 5 5 5 5 5 5 5 5 5 5 5 5 5 5 5 5 5 5 5 5 5 5 5 5 5 5 5 5 5 5 5 5 5 5 5 5 5 5 5 5 5 5 5 5 5 5 5 5 5 5 5 5 5 5 5 5 5 5 5 5 5 5 5 5 5 5 5 5 5 5 5 5 5 5 5 5 5 5 5 5 5 5 5 5 5 5 5 5 5 5 5 5 5 5 5 5 5 5 5 </DataArray>
</Cells>
<PointData  Vectors="f_22-0"> 
<DataArray  type="Float64"  Name="f_22-0"  NumberOfComponents="3" format="ascii">0.0000000000000000e+00 0.0000000000000000e+00 0.0000000000000000e+00  -1.1362410560900221e-06 2.2653355824225829e-05 0.0000000000000000e+00  -2.2062055748409663e-06 2.3265814994681759e-05 0.0000000000000000e+00  -3.0798909870673619e-06 1.7972855322254998e-05 0.0000000000000000e+00  -3.6433184567207687e-06 1.0044665939359411e-05 0.0000000000000000e+00  -3.8229754549249979e-06 7.3069554237006221e-07 0.0000000000000000e+00  -3.5811072755782602e-06 -8.8943455571931943e-06 0.0000000000000000e+00  -2.9336688571162125e-06 -1.7624964667520604e-05 0.0000000000000000e+00  -1.9608785880547704e-06 -2.3782010051186619e-05 0.0000000000000000e+00  -1.0618357245429906e-06 -2.3622188015208049e-05 0.0000000000000000e+00  0.0000000000000000e+00 0.0000000000000000e+00 0.0000000000000000e+00  0.0000000000000000e+00 0.0000000000000000e+00 0.0000000000000000e+00  -2.4571756805058923e-03 2.3663900775194513e-03 0.0000000000000000e+00  -5.1657359044700504e-03 2.0365702736466402e-03 0.0000000000000000e+00  -7.3336262278059427e-03 1.4948468716277146e-03 0.0000000000000000e+00  -8.7308989372009635e-03 8.0462232720666081e-04 0.0000000000000000e+00  -9.2183738982704426e-03 2.7785062774228245e-05 0.0000000000000000e+00  -8.7388353902656569e-03 -7.6787708272815672e-04 0.0000000000000000e+00  -7.3217469914046221e-03 -1.5092122624190394e-03 0.0000000000000000e+00  -5.1057667921263310e-03 -2.1136942771238522e-03 0.0000000000000000e+00  -2.3047971909618162e-03 -2.2646365016597805e-03 0.0000000000000000e+00  0.0000000000000000e+00 0.0000000000000000e+00 0.0000000000000000e+00  0.0000000000000000e+00 0.0000000000000000e+00 0.0000000000000000e+00  -2.8167003483155826e-03 5.4405755229730715e-03 0.0000000000000000e+00  -5.9569555962743987e-03 4.7474462073984324e-03 0.0000000000000000e+00  -8.5172731749002736e-03 3.4794815792235996e-03 0.0000000000000000e+00  -1.0190195451809514e-02 1.8790817424233339e-03 0.0000000000000000e+00  -1.0823350688954222e-02 8.5706145685245262e-05 0.0000000000000000e+00  -1.0344110894940058e-02 -1.7542465969847348e-03 0.0000000000000000e+00  -8.7567189056727453e-03 -3.4800585886980680e-03 0.0000000000000000e+00  -6.1897940714376234e-03 -4.9005087151172740e-03 0.0000000000000000e+00  -2.8799951090995391e-03 -5.4375418362459802e-03 0.0000000000000000e+00  0.0000000000000000e+00 0.0000000000000000e+00 0.0000000000000000e+00  0.0000000000000000e+00 0.0000000000000000e+00 0.0000000000000000e+00  -3.4974362145429130e-03 9.1081777639369504e-03 0.0000000000000000e+00  -7.3300509455623249e-03 7.9820822802410957e-03 0.0000000000000000e+00  -1.0421702595048227e-02 5.8303568760298399e-03 0.0000000000000000e+00  -1.2430968741514472e-02 3.1633322116683352e-03 0.0000000000000000e+00  -1.3220495189996869e-02 2.0232886812857214e-04 0.0000000000000000e+00  -1.2716044591452596e-02 -2.8526851189675743e-03 0.0000000000000000e+00  -1.0874608239032222e-02 -5.7775637013722974e-03 0.0000000000000000e+00  -7.7706895246336654e-03 -8.2557649049346191e-03 0.0000000000000000e+00  -3.6148465023980742e-03 -9.2921355431683280e-03 0.0000000000000000e+00  0.0000000000000000e+00 0.0000000000000000e+00 0.0000000000000000e+00  0.0000000000000000e+00 0.0000000000000000e+00 0.0000000000000000e+00  -4.6214626384165607e-03 1.3787160513527819e-02 0.0000000000000000e+00  -9.5643904454403537e-03 1.2025651451432352e-02 0.0000000000000000e+00  -1.3447725544355534e-02 8.7149207869928243e-03 0.0000000000000000e+00  -1.5915231927556922e-02 4.7433440802575810e-03 0.0000000000000000e+00  -1.6926646256518720e-02 4.2304175305622261e-04 0.0000000000000000e+00  -1.6456839310693444e-02 -4.0723414776033737e-03 0.0000000000000000e+00  -1.4338138645990588e-02 -8.5361181725922379e-03 0.0000000000000000e+00  -1.0445885299776279e-02 -1.2512785577360595e-02 0.0000000000000000e+00  -4.8817113032353851e-03 -1.4334335268890552e-02 0.0000000000000000e+00  0.0000000000000000e+00 0.0000000000000000e+00 0.0000000000000000e+00  0.0000000000000000e+00 0.0000000000000000e+00 0.0000000000000000e+00  -6.4541902410981920e-03 2.0048507104043899e-02 0.0000000000000000e+00  -1.3038303057512560e-02 1.7229446267255585e-02 0.0000000000000000e+00  -1.7909779329024163e-02 1.2256046436084836e-02 0.0000000000000000e+00  -2.0834413387380554e-02 6.6533761657864218e-03 0.0000000000000000e+00  -2.2099245801521252e-02 7.8471774555124399e-04 0.0000000000000000e+00  -2.1836309386728661e-02 -5.3254859282431894e-03 0.0000000000000000e+00  -1.9562179503525706e-02 -1.1702926556752863e-02 0.0000000000000000e+00  -1.4830405825089453e-02 -1.7861145451513925e-02 0.0000000000000000e+00  -7.1848940722702721e-03 -2.1282406921936805e-02 0.0000000000000000e+00  0.0000000000000000e+00 0.0000000000000000e+00 0.0000000000000000e+00  0.0000000000000000e+00 0.0000000000000000e+00 0.0000000000000000e+00  -9.7262095057873595e-03 2.8757524319091628e-02 0.0000000000000000e+00  -1.8638258802915430e-02 2.3979996468965866e-02 0.0000000000000000e+00  -2.4403642989209801e-02 1.6357774887150154e-02 0.0000000000000000e+00  -2.7392408079221105e-02 8.7216837485308146e-03 0.0000000000000000e+00  -2.8747897107344992e-02 1.3782368209887795e-03 0.0000000000000000e+00  -2.8607389369750422e-02 -6.0251472429775762e-03 0.0000000000000000e+00  -2.6868779002614748e-02 -1.4307081997514801e-02 0.0000000000000000e+00  -2.3086301906774721e-02 -2.4310765174650511e-02 0.0000000000000000e+00  -1.1964132192987016e-02 -3.2821995186929763e-02 0.0000000000000000e+00  0.0000000000000000e+00 0.0000000000000000e+00 0.0000000000000000e+00  0.0000000000000000e+00 0.0000000000000000e+00 0.0000000000000000e+00  -1.6464707287631289e-02 4.2191738289335506e-02 0.0000000000000000e+00  -2.8980893679894811e-02 3.2362211873205551e-02 0.0000000000000000e+00  -3.4466189720328659e-02 2.0150624778712732e-02 0.0000000000000000e+00  -3.6182130150472419e-02 1.0306569161818583e-02 0.0000000000000000e+00  -3.6904170176196897e-02 2.3012173303964194e-03 0.0000000000000000e+00  -3.7068127309862961e-02 -5.2054222501267764e-03 0.0000000000000000e+00  -3.9702106538580306e-02 -1.8538227653762212e-02 0.0000000000000000e+00  -3.8996771826669198e-02 -4.2657077422764936e-02 0.0000000000000000e+00  -1.4990506744195638e-02 -6.2100053710032042e-02 0.0000000000000000e+00  0.0000000000000000e+00 0.0000000000000000e+00 0.0000000000000000e+00  0.0000000000000000e+00 0.0000000000000000e+00 0.0000000000000000e+00  -3.0867876017605461e-02 6.0030617608638114e-02 0.0000000000000000e+00  -4.9704013896046013e-02 3.9010186123249205e-02 0.0000000000000000e+00  -5.1959665047109860e-02 2.0368919812084441e-02 0.0000000000000000e+00  -5.0757711280316926e-02 9.5766237679809092e-03 0.0000000000000000e+00  -5.0170754656623032e-02 2.3441291380629742e-03 0.0000000000000000e+00  -5.0769586915264918e-02 -4.4493367919680987e-03 0.0000000000000000e+00  -6.8062767021031201e-02 -1.1347418087976971e-02 0.0000000000000000e+00  -4.5138394279173454e-02 -1.5504584829467965e-02 0.0000000000000000e+00  -3.0585618274601392e-02 2.6421713477397496e-02 0.0000000000000000e+00  0.0000000000000000e+00 0.0000000000000000e+00 0.0000000000000000e+00  0.0000000000000000e+00 0.0000000000000000e+00 0.0000000000000000e+00  -1.1745530075498455e-02 6.6299588801252210e-02 0.0000000000000000e+00  -3.7945739960861730e-02 3.1450217375219115e-02 0.0000000000000000e+00  -4.5388438255914230e-02 1.5521853571439882e-02 0.0000000000000000e+00  -4.5378445925467345e-02 7.9540631204853256e-03 0.0000000000000000e+00  -4.6680796081320280e-02 3.5933596399636940e-03 0.0000000000000000e+00  -5.4049919246179128e-02 -1.2086437182678733e-03 0.0000000000000000e+00  -6.7318639862777793e-02 2.9195812047220259e-03 0.0000000000000000e+00  6.6579996689005360e-03 1.7355590969035883e-02 0.0000000000000000e+00  -3.1735201207855407e-01 -3.4415691398556619e-01 0.0000000000000000e+00  0.0000000000000000e+00 0.0000000000000000e+00 0.0000000000000000e+00  0.0000000000000000e+00 0.0000000000000000e+00 0.0000000000000000e+00  1.0000000000000000e+00 0.0000000000000000e+00 0.0000000000000000e+00  1.0000000000000000e+00 0.0000000000000000e+00 0.0000000000000000e+00  1.0000000000000000e+00 0.0000000000000000e+00 0.0000000000000000e+00  1.0000000000000000e+00 0.0000000000000000e+00 0.0000000000000000e+00  1.0000000000000000e+00 0.0000000000000000e+00 0.0000000000000000e+00  1.0000000000000000e+00 0.0000000000000000e+00 0.0000000000000000e+00  1.0000000000000000e+00 0.0000000000000000e+00 0.0000000000000000e+00  1.0000000000000000e+00 0.0000000000000000e+00 0.0000000000000000e+00  1.0000000000000000e+00 0.0000000000000000e+00 0.0000000000000000e+00  0.0000000000000000e+00 0.0000000000000000e+00 0.0000000000000000e+00  </DataArray> 
</PointData> 
</Piece>
</UnstructuredGrid>
</VTKFile>