<?xml version="1.0"?>
<VTKFile type="UnstructuredGrid"  version="0.1"  >
<UnstructuredGrid>
<Piece  NumberOfPoints="121" NumberOfCells="200">
<Points>
<DataArray  type="Float64"  NumberOfComponents="3"  format="ascii">0 0 0  0.1 0 0  0.2 0 0  0.3 0 0  0.4 0 0  0.5 0 0  0.6 0 0  0.7 0 0  0.8 0 0  0.9 0 0  1 0 0  0 0.1 0  0.1 0.1 0  0.2 0.1 0  0.3 0.1 0  0.4 0.1 0  0.5 0.1 0  0.6 0.1 0  0.7 0.1 0  0.8 0.1 0  0.9 0.1 0  1 0.1 0  0 0.2 0  0.1 0.2 0  0.2 0.2 0  0.3 0.2 0  0.4 0.2 0  0.5 0.2 0  0.6 0.2 0  0.7 0.2 0  0.8 0.2 0  0.9 0.2 0  1 0.2 0  0 0.3 0  0.1 0.3 0  0.2 0.3 0  0.3 0.3 0  0.4 0.3 0  0.5 0.3 0  0.6 0.3 0  0.7 0.3 0  0.8 0.3 0  0.9 0.3 0  1 0.3 0  0 0.4 0  0.1 0.4 0  0.2 0.4 0  0.3 0.4 0  0.4 0.4 0  0.5 0.4 0  0.6 0.4 0  0.7 0.4 0  0.8 0.4 0  0.9 0.4 0  1 0.4 0  0 0.5 0  0.1 0.5 0  0.2 0.5 0  0.3 0.5 0  0.4 0.5 0  0.5 0.5 0  0.6 0.5 0  0.7 0.5 0  0.8 0.5 0  0.9 0.5 0  1 0.5 0  0 0.6 0  0.1 0.6 0  0.2 0.6 0  0.3 0.6 0  0.4 0.6 0  0.5 0.6 0  0.6 0.6 0  0.7 0.6 0  0.8 0.6 0  0.9 0.6 0  1 0.6 0  0 0.7 0  0.1 0.7 0  0.2 0.7 0  0.3 0.7 0  0.4 0.7 0  0.5 0.7 0  0.6 0.7 0  0.7 0.7 0  0.8 0.7 0  0.9 0.7 0  1 0.7 0  0 0.8 0  0.1 0.8 0  0.2 0.8 0  0.3 0.8 0  0.4 0.8 0  0.5 0.8 0  0.6 0.8 0  0.7 0.8 0  0.8 0.8 0  0.9 0.8 0  1 0.8 0  0 0.9 0  0.1 0.9 0  0.2 0.9 0  0.3 0.9 0  0.4 0.9 0  0.5 0.9 0  0.6 0.9 0  0.7 0.9 0  0.8 0.9 0  0.9 0.9 0  1 0.9 0  0 1 0  0.1 1 0  0.2 1 0  0.3 1 0  0.4 1 0  0.5 1 0  0.6 1 0  0.7 1 0  0.8 1 0  0.9 1 0  1 1 0  </DataArray>
</Points>
<Cells>
<DataArray  type="UInt32"  Name="connectivity"  format="ascii">0 1 12  0 11 12  1 2 13  1 12 13  2 3 14  2 13 14  3 4 15  3 14 15  4 5 16  4 15 16  5 6 17  5 16 17  6 7 18  6 17 18  7 8 19  7 18 19  8 9 20  8 19 20  9 10 21  9 20 21  11 12 23  11 22 23  12 13 24  12 23 24  13 14 25  13 24 25  14 15 26  14 25 26  15 16 27  15 26 27  16 17 28  16 27 28  17 18 29  17 28 29  18 19 30  18 29 30  19 20 31  19 30 31  20 21 32  20 31 32  22 23 34  22 33 34  23 24 35  23 34 35  24 25 36  24 35 36  25 26 37  25 36 37  26 27 38  26 37 38  27 28 39  27 38 39  28 29 40  28 39 40  29 30 41  29 40 41  30 31 42  30 41 42  31 32 43  31 42 43  33 34 45  33 44 45  34 35 46  34 45 46  35 36 47  35 46 47  36 37 48  36 47 48  37 38 49  37 48 49  38 39 50  38 49 50  39 40 51  39 50 51  40 41 52  40 51 52  41 42 53  41 52 53  42 43 54  42 53 54  44 45 56  44 55 56  45 46 57  45 56 57  46 47 58  46 57 58  47 48 59  47 58 59  48 49 60  48 59 60  49 50 61  49 60 61  50 51 62  50 61 62  51 52 63  51 62 63  52 53 64  52 63 64  53 54 65  53 64 65  55 56 67  55 66 67  56 57 68  56 67 68  57 58 69  57 68 69  58 59 70  58 69 70  59 60 71  59 70 71  60 61 72  60 71 72  61 62 73  61 72 73  62 63 74  62 73 74  63 64 75  63 74 75  64 65 76  64 75 76  66 67 78  66 77 78  67 68 79  67 78 79  68 69 80  68 79 80  69 70 81  69 80 81  70 71 82  70 81 82  71 72 83  71 82 83  72 73 84  72 83 84  73 74 85  73 84 85  74 75 86  74 85 86  75 76 87  75 86 87  77 78 89  77 88 89  78 79 90  78 89 90  79 80 91  79 90 91  80 81 92  80 91 92  81 82 93  81 92 93  82 83 94  82 93 94  83 84 95  83 94 95  84 85 96  84 95 96  85 86 97  85 96 97  86 87 98  86 97 98  88 89 100  88 99 100  89 90 101  89 100 101  90 91 102  90 101 102  91 92 103  91 102 103  92 93 104  92 103 104  93 94 105  93 104 105  94 95 106  94 105 106  95 96 107  95 106 107  96 97 108  96 107 108  97 98 109  97 108 109  99 100 111  99 110 111  100 101 112  100 111 112  101 102 113  101 112 113  102 103 114  102 113 114  103 104 115  103 114 115  104 105 116  104 115 116  105 106 117  105 116 117  106 107 118  106 117 118  107 108 119  107 118 119  108 109 120  108 119 120  </DataArray>
<DataArray  type="UInt32"  Name="offsets"  format="ascii">3 6 9 12 15 18 21 24 27 30 33 36 39 42 45 48 51 54 57 60 63 66 69 72 75 78 81 84 87 90 93 96 99 102 105 108 111 114 117 120 123 126 129 132 135 138 141 144 147 150 153 156 159 162 165 168 171 174 177 180 183 186 189 192 195 198 201 204 207 210 213 216 219 222 225 228 231 234 237 240 243 246 249 252 255 258 261 264 267 270 273 276 279 282 285 288 291 294 297 300 303 306 309 312 315 318 321 324 327 330 333 336 339 342 345 348 351 354 357 360 363 366 369 372 375 378 381 384 387 390 393 396 399 402 405 408 411 414 417 420 423 426 429 432 435 438 441 444 447 450 453 456 459 462 465 468 471 474 477 480 483 486 489 492 495 498 501 504 507 510 513 516 519 522 525 528 531 534 537 540 543 546 549 552 555 558 561 564 567 570 573 576 579 582 585 588 591 594 597 600 </DataArray>
<DataArray  type="UInt8"  Name="types"  format="ascii">5 5 5 5 5 5 5 5 5 5 5 5 5 5 5 5 5 5 5 5 5 5 5 5 5 5 5 5 5 5 5 5 5 5 5 5 5 5 5 5 5 5 5 5 5 5 5 5 5 5 5 5 5 5 5 5 5 5 5 5 5 5 5 5 5 5 5 5 5 5 5 5 5 5 5 5 5 5 5 5 5 5 5 5 5 5 5 5 5 5 5 5 5 5 5 5 5 5 5 5 5 5 5 5 5 5 5 5 5 5 5 5 5 5 5 5 5 5 5 5 5 5 5 5 5 5 5 5 5 5 5 5 5 5 5 5 5 5 5 5 5 5 5 5 5 5 5 5 5 5 5 5 5 5 5 5 5 5 5 5 5 5 5 5 5 5 5 5 5 5 5 5 5 5 5 5 5 5 5 5 5 5 5 5 5 5 5 5 5 5 5 5 5 5 5 5 5 5 5 5 </DataArray>
</Cells>
<PointData  Vectors="f_22-0"> 
<DataArray  type="Float64"  Name="f_22-0"  NumberOfComponents="3" format="ascii">0.0000000000000000e+00 0.0000000000000000e+00 0.0000000000000000e+00  -1.3589274202506434e-06 3.1325958344138329e-05 0.0000000000000000e+00  -2.4065202119493908e-06 3.1754933941376094e-05 0.0000000000000000e+00  -3.1993646286807471e-06 2.4026014274670926e-05 0.0000000000000000e+00  -3.6582107457933775e-06 1.2896220791211326e-05 0.0000000000000000e+00  -3.7344102990379496e-06 2.0249760668308511e-07 0.0000000000000000e+00  -3.4183371582454967e-06 -1.2583211421924765e-05 0.0000000000000000e+00  -2.7454224165056495e-06 -2.3942408439020783e-05 0.0000000000000000e+00  -1.8183612974259262e-06 -3.1876092845352118e-05 0.0000000000000000e+00  -9.4314716553977938e-07 -3.1537498938977386e-05 0.0000000000000000e+00  0.0000000000000000e+00 0.0000000000000000e+00 0.0000000000000000e+00  0.0000000000000000e+00 0.0000000000000000e+00 0.0000000000000000e+00  -1.4818412910932016e-03 1.4083571774147776e-03 0.0000000000000000e+00  -2.8110888091750774e-03 1.2316376464275892e-03 0.0000000000000000e+00  -3.8738800727095898e-03 8.6326567268224053e-04 0.0000000000000000e+00  -4.5358574975132866e-03 4.1184720238593783e-04 0.0000000000000000e+00  -4.7327935340456167e-03 -7.8734803729882787e-05 0.0000000000000000e+00  -4.4456909819325235e-03 -5.6387506216978400e-04 0.0000000000000000e+00  -3.6994784236952546e-03 -9.9297294507735725e-04 0.0000000000000000e+00  -2.5668534445182777e-03 -1.2827711365267368e-03 0.0000000000000000e+00  -1.1715707507765523e-03 -1.1861057312798206e-03 0.0000000000000000e+00  0.0000000000000000e+00 0.0000000000000000e+00 0.0000000000000000e+00  0.0000000000000000e+00 0.0000000000000000e+00 0.0000000000000000e+00  -1.8186974112284458e-03 2.9558702205830828e-03 0.0000000000000000e+00  -3.5665037765743174e-03 2.7305358543082154e-03 0.0000000000000000e+00  -4.9549954077169065e-03 1.9479820220408993e-03 0.0000000000000000e+00  -5.8353329442232833e-03 9.6824049435231905e-04 0.0000000000000000e+00  -6.1254458027442359e-03 -9.9988147602685884e-05 0.0000000000000000e+00  -5.7984713928284463e-03 -1.1641332692669307e-03 0.0000000000000000e+00  -4.8757424242843938e-03 -2.1220155853564206e-03 0.0000000000000000e+00  -3.4358706739674870e-03 -2.8097926733497429e-03 0.0000000000000000e+00  -1.6303098188219143e-03 -2.7302454747494044e-03 0.0000000000000000e+00  0.0000000000000000e+00 0.0000000000000000e+00 0.0000000000000000e+00  0.0000000000000000e+00 0.0000000000000000e+00 0.0000000000000000e+00  -2.2979314001449610e-03 4.8502218306746021e-03 0.0000000000000000e+00  -4.4594768519927944e-03 4.5197686255409458e-03 0.0000000000000000e+00  -6.1664192197577053e-03 3.2382850910743972e-03 0.0000000000000000e+00  -7.2358453403535729e-03 1.6320286661768433e-03 0.0000000000000000e+00  -7.5930360459241231e-03 -1.1026317719218059e-04 0.0000000000000000e+00  -7.2118234617659970e-03 -1.8542869174145136e-03 0.0000000000000000e+00  -6.1004651446571554e-03 -3.4519380980701838e-03 0.0000000000000000e+00  -4.3253472842042263e-03 -4.6412611437959272e-03 0.0000000000000000e+00  -2.0558916444285238e-03 -4.5912923162682133e-03 0.0000000000000000e+00  0.0000000000000000e+00 0.0000000000000000e+00 0.0000000000000000e+00  0.0000000000000000e+00 0.0000000000000000e+00 0.0000000000000000e+00  -3.0697539115823258e-03 7.2806471871403322e-03 0.0000000000000000e+00  -5.8647894057616201e-03 6.7650378781250273e-03 0.0000000000000000e+00  -8.0095531877444111e-03 4.8127583188945109e-03 0.0000000000000000e+00  -9.3164392820345877e-03 2.4273917357031838e-03 0.0000000000000000e+00  -9.7524529238589789e-03 -1.1622081724121061e-04 0.0000000000000000e+00  -9.3103159311589620e-03 -2.6739558809442112e-03 0.0000000000000000e+00  -7.9549736815821524e-03 -5.0799393354798257e-03 0.0000000000000000e+00  -5.6964055243799152e-03 -6.9585924122529483e-03 0.0000000000000000e+00  -2.7069083798124788e-03 -6.9918916710878694e-03 0.0000000000000000e+00  0.0000000000000000e+00 0.0000000000000000e+00 0.0000000000000000e+00  0.0000000000000000e+00 0.0000000000000000e+00 0.0000000000000000e+00  -4.2995275147146217e-03 1.0548101360009672e-02 0.0000000000000000e+00  -8.0376494518333841e-03 9.6598538766489005e-03 0.0000000000000000e+00  -1.0745405182267730e-02 6.7352599420227944e-03 0.0000000000000000e+00  -1.2296063292467206e-02 3.3609457654408411e-03 0.0000000000000000e+00  -1.2808762605808672e-02 -1.0893744870490307e-04 0.0000000000000000e+00  -1.2352979869781944e-02 -3.6101098327426073e-03 0.0000000000000000e+00  -1.0781024941510339e-02 -7.0646387736155647e-03 0.0000000000000000e+00  -7.8842555793457551e-03 -9.9823199985504627e-03 0.0000000000000000e+00  -3.7681043960351474e-03 -1.0256384230827144e-02 0.0000000000000000e+00  0.0000000000000000e+00 0.0000000000000000e+00 0.0000000000000000e+00  0.0000000000000000e+00 0.0000000000000000e+00 0.0000000000000000e+00  -6.1801837453711707e-03 1.5137776897902003e-02 0.0000000000000000e+00  -1.1383912741157364e-02 1.3401921907759061e-02 0.0000000000000000e+00  -1.4695494770429732e-02 8.9416944075566343e-03 0.0000000000000000e+00  -1.6326081873754037e-02 4.3375474331004398e-03 0.0000000000000000e+00  -1.6865230221380454e-02 -6.8818244952502513e-05 0.0000000000000000e+00  -1.6547531018703748e-02 -4.5222850340700472e-03 0.0000000000000000e+00  -1.5173032829930067e-02 -9.3067933528119887e-03 0.0000000000000000e+00  -1.1648353692272340e-02 -1.3955637736792433e-02 0.0000000000000000e+00  -5.5391632633996187e-03 -1.4834488071164997e-02 0.0000000000000000e+00  0.0000000000000000e+00 0.0000000000000000e+00 0.0000000000000000e+00  0.0000000000000000e+00 0.0000000000000000e+00 0.0000000000000000e+00  -7.7612859301704239e-03 2.1918574050183336e-02 0.0000000000000000e+00  -1.5906756944499365e-02 1.7981923715839551e-02 0.0000000000000000e+00  -1.9479672182273651e-02 1.0985005211127925e-02 0.0000000000000000e+00  -2.0628034230058181e-02 5.0630453966215520e-03 0.0000000000000000e+00  -2.1032770932902865e-02 3.8688913834888342e-05 0.0000000000000000e+00  -2.1309809777875239e-02 -5.0538630821842226e-03 0.0000000000000000e+00  -2.1422821204394035e-02 -1.1200502927367729e-02 0.0000000000000000e+00  -1.9085782817053087e-02 -1.8294912956755161e-02 0.0000000000000000e+00  -8.8605103179921416e-03 -2.1475322128021494e-02 0.0000000000000000e+00  0.0000000000000000e+00 0.0000000000000000e+00 0.0000000000000000e+00  0.0000000000000000e+00 0.0000000000000000e+00 0.0000000000000000e+00  -3.1772755112409429e-04 3.1534517336926957e-02 0.0000000000000000e+00  -1.3248060097720326e-02 2.2060515200753826e-02 0.0000000000000000e+00  -1.5043741776561561e-02 1.1708486818831181e-02 0.0000000000000000e+00  -1.4623867559805945e-02 5.2188088721957576e-03 0.0000000000000000e+00  -1.4809704470948660e-02 5.7091629338963353e-04 0.0000000000000000e+00  -1.6244269754121545e-02 -4.2232802806185356e-03 0.0000000000000000e+00  -1.8955391611507343e-02 -1.0997048853097324e-02 0.0000000000000000e+00  -2.4919681968190003e-02 -1.8605046525353247e-02 0.0000000000000000e+00  -2.3834791698229683e-02 -3.0253325555745812e-02 0.0000000000000000e+00  0.0000000000000000e+00 0.0000000000000000e+00 0.0000000000000000e+00  0.0000000000000000e+00 0.0000000000000000e+00 0.0000000000000000e+00  5.2695152181259836e-02 5.7137468164396639e-02 0.0000000000000000e+00  8.4086154837593102e-02 2.3116880418627986e-02 0.0000000000000000e+00  9.4970605108189041e-02 1.1768643116835247e-02 0.0000000000000000e+00  9.9009422882272352e-02 6.9916445789029802e-03 0.0000000000000000e+00  9.9329958436476018e-02 4.2261843170100103e-03 0.0000000000000000e+00  9.7368971231377166e-02 1.7286834570251408e-03 0.0000000000000000e+00  9.4178494868176324e-02 -8.2225983833810097e-04 0.0000000000000000e+00  8.3639806870089997e-02 -1.0973989257960257e-02 0.0000000000000000e+00  -2.2125324323468053e-02 -5.8662693427667334e-02 0.0000000000000000e+00  0.0000000000000000e+00 0.0000000000000000e+00 0.0000000000000000e+00  0.0000000000000000e+00 0.0000000000000000e+00 0.0000000000000000e+00  1.0000000000000000e+00 0.0000000000000000e+00 0.0000000000000000e+00  1.0000000000000000e+00 0.0000000000000000e+00 0.0000000000000000e+00  1.0000000000000000e+00 0.0000000000000000e+00 0.0000000000000000e+00  1.0000000000000000e+00 0.0000000000000000e+00 0.0000000000000000e+00  1.0000000000000000e+00 0.0000000000000000e+00 0.0000000000000000e+00  1.0000000000000000e+00 0.0000000000000000e+00 0.0000000000000000e+00  1.0000000000000000e+00 0.0000000000000000e+00 0.0000000000000000e+00  1.0000000000000000e+00 0.0000000000000000e+00 0.0000000000000000e+00  1.0000000000000000e+00 0.0000000000000000e+00 0.0000000000000000e+00  0.0000000000000000e+00 0.0000000000000000e+00 0.0000000000000000e+00  </DataArray> 
</PointData> 
</Piece>
</UnstructuredGrid>
</VTKFile>