<?xml version="1.0"?>
<VTKFile type="UnstructuredGrid"  version="0.1"  >
<UnstructuredGrid>
<Piece  NumberOfPoints="121" NumberOfCells="200">
<Points>
<DataArray  type="Float64"  NumberOfComponents="3"  format="ascii">0 0 0  0.1 0 0  0.2 0 0  0.3 0 0  0.4 0 0  0.5 0 0  0.6 0 0  0.7 0 0  0.8 0 0  0.9 0 0  1 0 0  0 0.1 0  0.1 0.1 0  0.2 0.1 0  0.3 0.1 0  0.4 0.1 0  0.5 0.1 0  0.6 0.1 0  0.7 0.1 0  0.8 0.1 0  0.9 0.1 0  1 0.1 0  0 0.2 0  0.1 0.2 0  0.2 0.2 0  0.3 0.2 0  0.4 0.2 0  0.5 0.2 0  0.6 0.2 0  0.7 0.2 0  0.8 0.2 0  0.9 0.2 0  1 0.2 0  0 0.3 0  0.1 0.3 0  0.2 0.3 0  0.3 0.3 0  0.4 0.3 0  0.5 0.3 0  0.6 0.3 0  0.7 0.3 0  0.8 0.3 0  0.9 0.3 0  1 0.3 0  0 0.4 0  0.1 0.4 0  0.2 0.4 0  0.3 0.4 0  0.4 0.4 0  0.5 0.4 0  0.6 0.4 0  0.7 0.4 0  0.8 0.4 0  0.9 0.4 0  1 0.4 0  0 0.5 0  0.1 0.5 0  0.2 0.5 0  0.3 0.5 0  0.4 0.5 0  0.5 0.5 0  0.6 0.5 0  0.7 0.5 0  0.8 0.5 0  0.9 0.5 0  1 0.5 0  0 0.6 0  0.1 0.6 0  0.2 0.6 0  0.3 0.6 0  0.4 0.6 0  0.5 0.6 0  0.6 0.6 0  0.7 0.6 0  0.8 0.6 0  0.9 0.6 0  1 0.6 0  0 0.7 0  0.1 0.7 0  0.2 0.7 0  0.3 0.7 0  0.4 0.7 0  0.5 0.7 0  0.6 0.7 0  0.7 0.7 0  0.8 0.7 0  0.9 0.7 0  1 0.7 0  0 0.8 0  0.1 0.8 0  0.2 0.8 0  0.3 0.8 0  0.4 0.8 0  0.5 0.8 0  0.6 0.8 0  0.7 0.8 0  0.8 0.8 0  0.9 0.8 0  1 0.8 0  0 0.9 0  0.1 0.9 0  0.2 0.9 0  0.3 0.9 0  0.4 0.9 0  0.5 0.9 0  0.6 0.9 0  0.7 0.9 0  0.8 0.9 0  0.9 0.9 0  1 0.9 0  0 1 0  0.1 1 0  0.2 1 0  0.3 1 0  0.4 1 0  0.5 1 0  0.6 1 0  0.7 1 0  0.8 1 0  0.9 1 0  1 1 0  </DataArray>
</Points>
<Cells>
<DataArray  type="UInt32"  Name="connectivity"  format="ascii">0 1 12  0 11 12  1 2 13  1 12 13  2 3 14  2 13 14  3 4 15  3 14 15  4 5 16  4 15 16  5 6 17  5 16 17  6 7 18  6 17 18  7 8 19  7 18 19  8 9 20  8 19 20  9 10 21  9 20 21  11 12 23  11 22 23  12 13 24  12 23 24  13 14 25  13 24 25  14 15 26  14 25 26  15 16 27  15 26 27  16 17 28  16 27 28  17 18 29  17 28 29  18 19 30  18 29 30  19 20 31  19 30 31  20 21 32  20 31 32  22 23 34  22 33 34  23 24 35  23 34 35  24 25 36  24 35 36  25 26 37  25 36 37  26 27 38  26 37 38  27 28 39  27 38 39  28 29 40  28 39 40  29 30 41  29 40 41  30 31 42  30 41 42  31 32 43  31 42 43  33 34 45  33 44 45  34 35 46  34 45 46  35 36 47  35 46 47  36 37 48  36 47 48  37 38 49  37 48 49  38 39 50  38 49 50  39 40 51  39 50 51  40 41 52  40 51 52  41 42 53  41 52 53  42 43 54  42 53 54  44 45 56  44 55 56  45 46 57  45 56 57  46 47 58  46 57 58  47 48 59  47 58 59  48 49 60  48 59 60  49 50 61  49 60 61  50 51 62  50 61 62  51 52 63  51 62 63  52 53 64  52 63 64  53 54 65  53 64 65  55 56 67  55 66 67  56 57 68  56 67 68  57 58 69  57 68 69  58 59 70  58 69 70  59 60 71  59 70 71  60 61 72  60 71 72  61 62 73  61 72 73  62 63 74  62 73 74  63 64 75  63 74 75  64 65 76  64 75 76  66 67 78  66 77 78  67 68 79  67 78 79  68 69 80  68 79 80  69 70 81  69 80 81  70 71 82  70 81 82  71 72 83  71 82 83  72 73 84  72 83 84  73 74 85  73 84 85  74 75 86  74 85 86  75 76 87  75 86 87  77 78 89  77 88 89  78 79 90  78 89 90  79 80 91  79 90 91  80 81 92  80 91 92  81 82 93  81 92 93  82 83 94  82 93 94  83 84 95  83 94 95  84 85 96  84 95 96  85 86 97  85 96 97  86 87 98  86 97 98  88 89 100  88 99 100  89 90 101  89 100 101  90 91 102  90 101 102  91 92 103  91 102 103  92 93 104  92 103 104  93 94 105  93 104 105  94 95 106  94 105 106  95 96 107  95 106 107  96 97 108  96 107 108  97 98 109  97 108 109  99 100 111  99 110 111  100 101 112  100 111 112  101 102 113  101 112 113  102 103 114  102 113 114  103 104 115  103 114 115  104 105 116  104 115 116  105 106 117  105 116 117  106 107 118  106 117 118  107 108 119  107 118 119  108 109 120  108 119 120  </DataArray>
<DataArray  type="UInt32"  Name="offsets"  format="ascii">3 6 9 12 15 18 21 24 27 30 33 36 39 42 45 48 51 54 57 60 63 66 69 72 75 78 81 84 87 90 93 96 99 102 105 108 111 114 117 120 123 126 129 132 135 138 141 144 147 150 153 156 159 162 165 168 171 174 177 180 183 186 189 192 195 198 201 204 207 210 213 216 219 222 225 228 231 234 237 240 243 246 249 252 255 258 261 264 267 270 273 276 279 282 285 288 291 294 297 300 303 306 309 312 315 318 321 324 327 330 333 336 339 342 345 348 351 354 357 360 363 366 369 372 375 378 381 384 387 390 393 396 399 402 405 408 411 414 417 420 423 426 429 432 435 438 441 444 447 450 453 456 459 462 465 468 471 474 477 480 483 486 489 492 495 498 501 504 507 510 513 516 519 522 525 528 531 534 537 540 543 546 549 552 555 558 561 564 567 570 573 576 579 582 585 588 591 594 597 600 </DataArray>
<DataArray  type="UInt8"  Name="types"  format="ascii">5 5 5 5 5 5 5 5 5 5 5 5 5 5 5 5 5 5 5 5 5 5 5 5 5 5 5 5 5 5 5 5 5 5 5 5 5 5 5 5 5 5 5 5 5 5 5 5 5 5 5 5 5 5 5 5 5 5 5 5 5 5 5 5 5 5 5 5 5 5 5 5 5 5 5 5 5 5 5 5 5 5 5 5 5 5 5 5 5 5 5 5 5 5 5 5 5 5 5 5 5 5 5 5 5 5 5 5 5 5 5 5 5 5 5 5 5 5 5 5 5 5 5 5 5 5 5 5 5 5 5 5 5 5 5 5 5 5 5 5 5 5 5 5 5 5 5 5 5 5 5 5 5 5 5 5 5 5 5 5 5 5 5 5 5 5 5 5 5 5 5 5 5 5 5 5 5 5 5 5 5 5 5 5 5 5 5 5 5 5 5 5 5 5 5 5 5 5 5 5 </DataArray>
</Cells>
<PointData  Vectors="f_22-0"> 
<DataArray  type="Float64"  Name="f_22-0"  NumberOfComponents="3" format="ascii">0.0000000000000000e+00 0.0000000000000000e+00 0.0000000000000000e+00  -9.3421283181420020e-07 1.6101641790783719e-05 0.0000000000000000e+00  -2.0015229222576121e-06 1.6931347611646012e-05 0.0000000000000000e+00  -2.9712383359614492e-06 1.3568975967966052e-05 0.0000000000000000e+00  -3.6808313965252637e-06 8.1158773050283517e-06 0.0000000000000000e+00  -4.0126694728488964e-06 1.3146832446365902e-06 0.0000000000000000e+00  -3.8780206780170099e-06 -6.0700241762305030e-06 0.0000000000000000e+00  -3.2555733416867679e-06 -1.3003807920960595e-05 0.0000000000000000e+00  -2.2052713223741770e-06 -1.7941440908318976e-05 0.0000000000000000e+00  -1.1844357785924786e-06 -1.7858045952798825e-05 0.0000000000000000e+00  0.0000000000000000e+00 0.0000000000000000e+00 0.0000000000000000e+00  0.0000000000000000e+00 0.0000000000000000e+00 0.0000000000000000e+00  -3.3539352050384547e-03 3.2246161225052842e-03 0.0000000000000000e+00  -7.7835052678103585e-03 2.9121090013149889e-03 0.0000000000000000e+00  -1.1420033334735220e-02 2.2556942403647415e-03 0.0000000000000000e+00  -1.3918058498498526e-02 1.3547908491099601e-03 0.0000000000000000e+00  -1.4986508364411467e-02 2.6252847411198144e-04 0.0000000000000000e+00  -1.4435778472163836e-02 -9.4539684505719548e-04 0.0000000000000000e+00  -1.2207175869786847e-02 -2.1423132411734582e-03 0.0000000000000000e+00  -8.4775322368995897e-03 -3.1529877166668815e-03 0.0000000000000000e+00  -3.6431718121826932e-03 -3.5944595872419356e-03 0.0000000000000000e+00  0.0000000000000000e+00 0.0000000000000000e+00 0.0000000000000000e+00  0.0000000000000000e+00 0.0000000000000000e+00 0.0000000000000000e+00  -3.8231892990310819e-03 8.1073108106116017e-03 0.0000000000000000e+00  -8.7723347166403700e-03 7.2469097843084647e-03 0.0000000000000000e+00  -1.2926448235424999e-02 5.6004851802535366e-03 0.0000000000000000e+00  -1.5852367041615183e-02 3.3651112962095509e-03 0.0000000000000000e+00  -1.7239235978395443e-02 6.7045190365199120e-04 0.0000000000000000e+00  -1.6830865372516636e-02 -2.3266483887170912e-03 0.0000000000000000e+00  -1.4441893447986066e-02 -5.3302674930571746e-03 0.0000000000000000e+00  -1.0169835473737182e-02 -7.8629446481831497e-03 0.0000000000000000e+00  -4.4820029705160899e-03 -9.1709834523017227e-03 0.0000000000000000e+00  0.0000000000000000e+00 0.0000000000000000e+00 0.0000000000000000e+00  0.0000000000000000e+00 0.0000000000000000e+00 0.0000000000000000e+00  -4.6152925165828416e-03 1.3756437726933631e-02 0.0000000000000000e+00  -1.0565876587653121e-02 1.2328914428603299e-02 0.0000000000000000e+00  -1.5553878937773533e-02 9.5564805990002704e-03 0.0000000000000000e+00  -1.9164417409353929e-02 5.8475893853831033e-03 0.0000000000000000e+00  -2.1084583587830871e-02 1.3584744843738472e-03 0.0000000000000000e+00  -2.0943619356290143e-02 -3.6986706863704043e-03 0.0000000000000000e+00  -1.8348278431024777e-02 -8.8955763706784711e-03 0.0000000000000000e+00  -1.3188595038706384e-02 -1.3484437070257959e-02 0.0000000000000000e+00  -5.8866739017283320e-03 -1.6099818753538442e-02 0.0000000000000000e+00  0.0000000000000000e+00 0.0000000000000000e+00 0.0000000000000000e+00  0.0000000000000000e+00 0.0000000000000000e+00 0.0000000000000000e+00  -5.9066814859416606e-03 2.0762278860751580e-02 0.0000000000000000e+00  -1.3387803782095819e-02 1.8565823774915443e-02 0.0000000000000000e+00  -1.9589050698925265e-02 1.4413121917276606e-02 0.0000000000000000e+00  -2.4163797448511881e-02 9.0668761727511881e-03 0.0000000000000000e+00  -2.6818888084585060e-02 2.8494814273068948e-03 0.0000000000000000e+00  -2.7368676261718791e-02 -4.2117634794952390e-03 0.0000000000000000e+00  -2.5163670358666998e-02 -1.2446817673085430e-02 0.0000000000000000e+00  -1.8813117673404118e-02 -2.1106479961281462e-02 0.0000000000000000e+00  -8.3089722384478825e-03 -2.6360032847835013e-02 0.0000000000000000e+00  0.0000000000000000e+00 0.0000000000000000e+00 0.0000000000000000e+00  0.0000000000000000e+00 0.0000000000000000e+00 0.0000000000000000e+00  -7.9621119454995875e-03 2.9845529020717580e-02 0.0000000000000000e+00  -1.7650901478344232e-02 2.6393162508192163e-02 0.0000000000000000e+00  -2.5371239056646459e-02 2.0376589612385899e-02 0.0000000000000000e+00  -3.0766533801947573e-02 1.3374254200050307e-02 0.0000000000000000e+00  -3.4462768268224642e-02 5.3923346795013765e-03 0.0000000000000000e+00  -3.7564681429483542e-02 -6.1252451594726240e-03 0.0000000000000000e+00  -3.6658313786927472e-02 -2.1393578198828037e-02 0.0000000000000000e+00  -2.7737479201158710e-02 -3.4143931982358662e-02 0.0000000000000000e+00  -1.2069466455469569e-02 -3.8944248227073493e-02 0.0000000000000000e+00  0.0000000000000000e+00 0.0000000000000000e+00 0.0000000000000000e+00  0.0000000000000000e+00 0.0000000000000000e+00 0.0000000000000000e+00  -1.1476583856720591e-02 4.2092861625175941e-02 0.0000000000000000e+00  -2.4249915210957033e-02 3.6180010845267757e-02 0.0000000000000000e+00  -3.3266375892028271e-02 2.7238213913916703e-02 0.0000000000000000e+00  -3.8386443248814711e-02 1.8382636975319361e-02 0.0000000000000000e+00  -4.5462606258602399e-02 8.8524598565082983e-03 0.0000000000000000e+00  -5.1089745703122386e-02 -8.7101119771960446e-04 0.0000000000000000e+00  -4.8618062743079206e-02 -5.0748079583849623e-03 0.0000000000000000e+00  -4.5977760285952018e-02 -2.5628436213760743e-02 0.0000000000000000e+00  -2.6066065572615520e-02 -6.0693396097427958e-02 0.0000000000000000e+00  0.0000000000000000e+00 0.0000000000000000e+00 0.0000000000000000e+00  0.0000000000000000e+00 0.0000000000000000e+00 0.0000000000000000e+00  -1.8827664004044963e-02 5.9679047660679913e-02 0.0000000000000000e+00  -3.5572272940751631e-02 4.7589530227237296e-02 0.0000000000000000e+00  -4.3483582363166302e-02 3.3596768710076080e-02 0.0000000000000000e+00  -4.6873161834848215e-02 2.2753561700564463e-02 0.0000000000000000e+00  -5.6030111015988614e-02 1.4909033597327398e-02 0.0000000000000000e+00  -5.2687252694331714e-02 1.1091002279112692e-02 0.0000000000000000e+00  -7.4234378155431269e-02 -1.7506251189933771e-02 0.0000000000000000e+00  -1.0973254074097863e-01 -7.0461768599630242e-02 0.0000000000000000e+00  -2.4637572743468578e-02 -1.4247315159530430e-01 0.0000000000000000e+00  0.0000000000000000e+00 0.0000000000000000e+00 0.0000000000000000e+00  0.0000000000000000e+00 0.0000000000000000e+00 0.0000000000000000e+00  -4.7721373025914317e-02 8.1031157408835250e-02 0.0000000000000000e+00  -5.5684730227658637e-02 5.5703192753238595e-02 0.0000000000000000e+00  -5.5061688441723745e-02 3.6471660709947964e-02 0.0000000000000000e+00  -5.4078652026510417e-02 2.4987394464812518e-02 0.0000000000000000e+00  -5.5513408458505782e-02 1.8860721370542188e-02 0.0000000000000000e+00  -4.9051845798483984e-02 1.7976852063369471e-02 0.0000000000000000e+00  -8.2744812998340980e-02 3.6234528792137836e-02 0.0000000000000000e+00  -3.1492350342998959e-01 2.2735353243375545e-02 0.0000000000000000e+00  -2.8506827442453253e-01 -3.8333315260435313e-01 0.0000000000000000e+00  0.0000000000000000e+00 0.0000000000000000e+00 0.0000000000000000e+00  0.0000000000000000e+00 0.0000000000000000e+00 0.0000000000000000e+00  -6.0810493522285208e-02 7.9886638173388244e-02 0.0000000000000000e+00  -4.9409945879283566e-02 4.6853683852838154e-02 0.0000000000000000e+00  -4.7031405961424577e-02 2.9472748501632270e-02 0.0000000000000000e+00  -4.4590161252968039e-02 2.0422937669340762e-02 0.0000000000000000e+00  -4.0765122030266346e-02 1.5165415825941766e-02 0.0000000000000000e+00  -3.6695406385137332e-02 1.6906476143297593e-02 0.0000000000000000e+00  -6.5653968165295612e-03 3.0261548784151729e-02 0.0000000000000000e+00  -1.4302717465561894e-02 1.5282247519397574e-01 0.0000000000000000e+00  1.3220251660969247e-02 -1.5263048336558840e-01 0.0000000000000000e+00  0.0000000000000000e+00 0.0000000000000000e+00 0.0000000000000000e+00  0.0000000000000000e+00 0.0000000000000000e+00 0.0000000000000000e+00  1.0000000000000000e+00 0.0000000000000000e+00 0.0000000000000000e+00  1.0000000000000000e+00 0.0000000000000000e+00 0.0000000000000000e+00  1.0000000000000000e+00 0.0000000000000000e+00 0.0000000000000000e+00  1.0000000000000000e+00 0.0000000000000000e+00 0.0000000000000000e+00  1.0000000000000000e+00 0.0000000000000000e+00 0.0000000000000000e+00  1.0000000000000000e+00 0.0000000000000000e+00 0.0000000000000000e+00  1.0000000000000000e+00 0.0000000000000000e+00 0.0000000000000000e+00  1.0000000000000000e+00 0.0000000000000000e+00 0.0000000000000000e+00  1.0000000000000000e+00 0.0000000000000000e+00 0.0000000000000000e+00  0.0000000000000000e+00 0.0000000000000000e+00 0.0000000000000000e+00  </DataArray> 
</PointData> 
</Piece>
</UnstructuredGrid>
</VTKFile>