<?xml version="1.0"?>
<VTKFile type="UnstructuredGrid"  version="0.1"  >
<UnstructuredGrid>
<Piece  NumberOfPoints="121" NumberOfCells="200">
<Points>
<DataArray  type="Float64"  NumberOfComponents="3"  format="ascii">0 0 0  0.1 0 0  0.2 0 0  0.3 0 0  0.4 0 0  0.5 0 0  0.6 0 0  0.7 0 0  0.8 0 0  0.9 0 0  1 0 0  0 0.1 0  0.1 0.1 0  0.2 0.1 0  0.3 0.1 0  0.4 0.1 0  0.5 0.1 0  0.6 0.1 0  0.7 0.1 0  0.8 0.1 0  0.9 0.1 0  1 0.1 0  0 0.2 0  0.1 0.2 0  0.2 0.2 0  0.3 0.2 0  0.4 0.2 0  0.5 0.2 0  0.6 0.2 0  0.7 0.2 0  0.8 0.2 0  0.9 0.2 0  1 0.2 0  0 0.3 0  0.1 0.3 0  0.2 0.3 0  0.3 0.3 0  0.4 0.3 0  0.5 0.3 0  0.6 0.3 0  0.7 0.3 0  0.8 0.3 0  0.9 0.3 0  1 0.3 0  0 0.4 0  0.1 0.4 0  0.2 0.4 0  0.3 0.4 0  0.4 0.4 0  0.5 0.4 0  0.6 0.4 0  0.7 0.4 0  0.8 0.4 0  0.9 0.4 0  1 0.4 0  0 0.5 0  0.1 0.5 0  0.2 0.5 0  0.3 0.5 0  0.4 0.5 0  0.5 0.5 0  0.6 0.5 0  0.7 0.5 0  0.8 0.5 0  0.9 0.5 0  1 0.5 0  0 0.6 0  0.1 0.6 0  0.2 0.6 0  0.3 0.6 0  0.4 0.6 0  0.5 0.6 0  0.6 0.6 0  0.7 0.6 0  0.8 0.6 0  0.9 0.6 0  1 0.6 0  0 0.7 0  0.1 0.7 0  0.2 0.7 0  0.3 0.7 0  0.4 0.7 0  0.5 0.7 0  0.6 0.7 0  0.7 0.7 0  0.8 0.7 0  0.9 0.7 0  1 0.7 0  0 0.8 0  0.1 0.8 0  0.2 0.8 0  0.3 0.8 0  0.4 0.8 0  0.5 0.8 0  0.6 0.8 0  0.7 0.8 0  0.8 0.8 0  0.9 0.8 0  1 0.8 0  0 0.9 0  0.1 0.9 0  0.2 0.9 0  0.3 0.9 0  0.4 0.9 0  0.5 0.9 0  0.6 0.9 0  0.7 0.9 0  0.8 0.9 0  0.9 0.9 0  1 0.9 0  0 1 0  0.1 1 0  0.2 1 0  0.3 1 0  0.4 1 0  0.5 1 0  0.6 1 0  0.7 1 0  0.8 1 0  0.9 1 0  1 1 0  </DataArray>
</Points>
<Cells>
<DataArray  type="UInt32"  Name="connectivity"  format="ascii">0 1 12  0 11 12  1 2 13  1 12 13  2 3 14  2 13 14  3 4 15  3 14 15  4 5 16  4 15 16  5 6 17  5 16 17  6 7 18  6 17 18  7 8 19  7 18 19  8 9 20  8 19 20  9 10 21  9 20 21  11 12 23  11 22 23  12 13 24  12 23 24  13 14 25  13 24 25  14 15 26  14 25 26  15 16 27  15 26 27  16 17 28  16 27 28  17 18 29  17 28 29  18 19 30  18 29 30  19 20 31  19 30 31  20 21 32  20 31 32  22 23 34  22 33 34  23 24 35  23 34 35  24 25 36  24 35 36  25 26 37  25 36 37  26 27 38  26 37 38  27 28 39  27 38 39  28 29 40  28 39 40  29 30 41  29 40 41  30 31 42  30 41 42  31 32 43  31 42 43  33 34 45  33 44 45  34 35 46  34 45 46  35 36 47  35 46 47  36 37 48  36 47 48  37 38 49  37 48 49  38 39 50  38 49 50  39 40 51  39 50 51  40 41 52  40 51 52  41 42 53  41 52 53  42 43 54  42 53 54  44 45 56  44 55 56  45 46 57  45 56 57  46 47 58  46 57 58  47 48 59  47 58 59  48 49 60  48 59 60  49 50 61  49 60 61  50 51 62  50 61 62  51 52 63  51 62 63  52 53 64  52 63 64  53 54 65  53 64 65  55 56 67  55 66 67  56 57 68  56 67 68  57 58 69  57 68 69  58 59 70  58 69 70  59 60 71  59 70 71  60 61 72  60 71 72  61 62 73  61 72 73  62 63 74  62 73 74  63 64 75  63 74 75  64 65 76  64 75 76  66 67 78  66 77 78  67 68 79  67 78 79  68 69 80  68 79 80  69 70 81  69 80 81  70 71 82  70 81 82  71 72 83  71 82 83  72 73 84  72 83 84  73 74 85  73 84 85  74 75 86  74 85 86  75 76 87  75 86 87  77 78 89  77 88 89  78 79 90  78 89 90  79 80 91  79 90 91  80 81 92  80 91 92  81 82 93  81 92 93  82 83 94  82 93 94  83 84 95  83 94 95  84 85 96  84 95 96  85 86 97  85 96 97  86 87 98  86 97 98  88 89 100  88 99 100  89 90 101  89 100 101  90 91 102  90 101 102  91 92 103  91 102 103  92 93 104  92 103 104  93 94 105  93 104 105  94 95 106  94 105 106  95 96 107  95 106 107  96 97 108  96 107 108  97 98 109  97 108 109  99 100 111  99 110 111  100 101 112  100 111 112  101 102 113  101 112 113  102 103 114  102 113 114  103 104 115  103 114 115  104 105 116  104 115 116  105 106 117  105 116 117  106 107 118  106 117 118  107 108 119  107 118 119  108 109 120  108 119 120  </DataArray>
<DataArray  type="UInt32"  Name="offsets"  format="ascii">3 6 9 12 15 18 21 24 27 30 33 36 39 42 45 48 51 54 57 60 63 66 69 72 75 78 81 84 87 90 93 96 99 102 105 108 111 114 117 120 123 126 129 132 135 138 141 144 147 150 153 156 159 162 165 168 171 174 177 180 183 186 189 192 195 198 201 204 207 210 213 216 219 222 225 228 231 234 237 240 243 246 249 252 255 258 261 264 267 270 273 276 279 282 285 288 291 294 297 300 303 306 309 312 315 318 321 324 327 330 333 336 339 342 345 348 351 354 357 360 363 366 369 372 375 378 381 384 387 390 393 396 399 402 405 408 411 414 417 420 423 426 429 432 435 438 441 444 447 450 453 456 459 462 465 468 471 474 477 480 483 486 489 492 495 498 501 504 507 510 513 516 519 522 525 528 531 534 537 540 543 546 549 552 555 558 561 564 567 570 573 576 579 582 585 588 591 594 597 600 </DataArray>
<DataArray  type="UInt8"  Name="types"  format="ascii">5 5 5 5 5 5 5 5 5 5 5 5 5 5 5 5 5 5 5 5 5 5 5 5 5 5 5 5 5 5 5 5 5 5 5 5 5 5 5 5 5 5 5 5 5 5 5 5 5 5 5 5 5 5 5 5 5 5 5 5 5 5 5 5 5 5 5 5 5 5 5 5 5 5 5 5 5 5 5 5 5 5 5 5 5 5 5 5 5 5 5 5 5 5 5 5 5 5 5 5 5 5 5 5 5 5 5 5 5 5 5 5 5 5 5 5 5 5 5 5 5 5 5 5 5 5 5 5 5 5 5 5 5 5 5 5 5 5 5 5 5 5 5 5 5 5 5 5 5 5 5 5 5 5 5 5 5 5 5 5 5 5 5 5 5 5 5 5 5 5 5 5 5 5 5 5 5 5 5 5 5 5 5 5 5 5 5 5 5 5 5 5 5 5 5 5 5 5 5 5 </DataArray>
</Cells>
<PointData  Vectors="f_22-0"> 
<DataArray  type="Float64"  Name="f_22-0"  NumberOfComponents="3" format="ascii">0.0000000000000000e+00 0.0000000000000000e+00 0.0000000000000000e+00  -1.1013422998799776e-06 2.1577432943070707e-05 0.0000000000000000e+00  -2.1838958097478948e-06 2.2284626420926245e-05 0.0000000000000000e+00  -3.0912694520541695e-06 1.7380826553774460e-05 0.0000000000000000e+00  -3.6972047437460665e-06 9.9060977581266463e-06 0.0000000000000000e+00  -3.9167480036971961e-06 9.9756676982722215e-07 0.0000000000000000e+00  -3.6990175078507122e-06 -8.3332657767572761e-06 0.0000000000000000e+00  -3.0498395667978404e-06 -1.6897197360555657e-05 0.0000000000000000e+00  -2.0425348044346426e-06 -2.2992279591342241e-05 0.0000000000000000e+00  -1.1037630293700225e-06 -2.2913462606062922e-05 0.0000000000000000e+00  0.0000000000000000e+00 0.0000000000000000e+00 0.0000000000000000e+00  0.0000000000000000e+00 0.0000000000000000e+00 0.0000000000000000e+00  -2.6976204551911239e-03 2.5974330091659953e-03 0.0000000000000000e+00  -5.8067847689904509e-03 2.2482584641509680e-03 0.0000000000000000e+00  -8.3020577529167462e-03 1.6687425324983152e-03 0.0000000000000000e+00  -9.9307931008309602e-03 9.1979842266857374e-04 0.0000000000000000e+00  -1.0525622074690313e-02 6.5476451739272353e-05 0.0000000000000000e+00  -1.0009271473271516e-02 -8.2177465793311418e-04 0.0000000000000000e+00  -8.4019032537583065e-03 -1.6577204455141363e-03 0.0000000000000000e+00  -5.8566422324899184e-03 -2.3496342107381615e-03 0.0000000000000000e+00  -2.6199000147426117e-03 -2.5731874224251450e-03 0.0000000000000000e+00  0.0000000000000000e+00 0.0000000000000000e+00 0.0000000000000000e+00  0.0000000000000000e+00 0.0000000000000000e+00 0.0000000000000000e+00  -3.0719577063003278e-03 6.1002997661005857e-03 0.0000000000000000e+00  -6.6188525474202087e-03 5.3151792670946031e-03 0.0000000000000000e+00  -9.5262974569934010e-03 3.9375622673337041e-03 0.0000000000000000e+00  -1.1453879241656757e-02 2.1744013136008934e-03 0.0000000000000000e+00  -1.2221193619634195e-02 1.7308198999549306e-04 0.0000000000000000e+00  -1.1728549414179964e-02 -1.9091012907772411e-03 0.0000000000000000e+00  -9.9559062460595239e-03 -3.8867052169420145e-03 0.0000000000000000e+00  -7.0348983754206689e-03 -5.5334813271990376e-03 0.0000000000000000e+00  -3.2398646196817706e-03 -6.2603506134357185e-03 0.0000000000000000e+00  0.0000000000000000e+00 0.0000000000000000e+00 0.0000000000000000e+00  0.0000000000000000e+00 0.0000000000000000e+00 0.0000000000000000e+00  -3.7948336187181727e-03 1.0247585678302123e-02 0.0000000000000000e+00  -8.1168140724351377e-03 8.9641438215041572e-03 0.0000000000000000e+00  -1.1623173176258677e-02 6.6224690492159418e-03 0.0000000000000000e+00  -1.3948476396862830e-02 3.6849238276781232e-03 0.0000000000000000e+00  -1.4926043457022239e-02 3.7832898959044283e-04 0.0000000000000000e+00  -1.4445608430058324e-02 -3.0887727769630243e-03 0.0000000000000000e+00  -1.2419305981525372e-02 -6.4631644650430262e-03 0.0000000000000000e+00  -8.8927077530795394e-03 -9.3715245673805271e-03 0.0000000000000000e+00  -4.1003498912692482e-03 -1.0766183344544459e-02 0.0000000000000000e+00  0.0000000000000000e+00 0.0000000000000000e+00 0.0000000000000000e+00  0.0000000000000000e+00 0.0000000000000000e+00 0.0000000000000000e+00  -4.9866983420170929e-03 1.5513997134433260e-02 0.0000000000000000e+00  -1.0543236373393510e-02 1.3511863974568990e-02 0.0000000000000000e+00  -1.4942510403540476e-02 9.9196508645655688e-03 0.0000000000000000e+00  -1.7812147085450956e-02 5.5671132628876355e-03 0.0000000000000000e+00  -1.9099057547628504e-02 7.6729567798136146e-04 0.0000000000000000e+00  -1.8752530022330974e-02 -4.3309475215126117e-03 0.0000000000000000e+00  -1.6498814952767893e-02 -9.5453663549056964e-03 0.0000000000000000e+00  -1.2090351331499993e-02 -1.4292130495765137e-02 0.0000000000000000e+00  -5.5920034545072373e-03 -1.6732692521055796e-02 0.0000000000000000e+00  0.0000000000000000e+00 0.0000000000000000e+00 0.0000000000000000e+00  0.0000000000000000e+00 0.0000000000000000e+00 0.0000000000000000e+00  -6.9198331597609833e-03 2.2532234283330229e-02 0.0000000000000000e+00  -1.4295710817987629e-02 1.9340422343646271e-02 0.0000000000000000e+00  -1.9802122758285509e-02 1.3965206739723448e-02 0.0000000000000000e+00  -2.3222487925786767e-02 7.8826243196133596e-03 0.0000000000000000e+00  -2.4908087089665451e-02 1.4057929664369054e-03 0.0000000000000000e+00  -2.5040741593938758e-02 -5.5423180687334400e-03 0.0000000000000000e+00  -2.2736235837645263e-02 -1.3069242286371428e-02 0.0000000000000000e+00  -1.7309776280592659e-02 -2.0464979823965647e-02 0.0000000000000000e+00  -8.3704086149165580e-03 -2.4794191120704783e-02 0.0000000000000000e+00  0.0000000000000000e+00 0.0000000000000000e+00 0.0000000000000000e+00  0.0000000000000000e+00 0.0000000000000000e+00 0.0000000000000000e+00  -1.0339840696942548e-02 3.2261222531711292e-02 0.0000000000000000e+00  -2.0262482344552028e-02 2.6843739901539650e-02 0.0000000000000000e+00  -2.6745782177535961e-02 1.8646702089804304e-02 0.0000000000000000e+00  -3.0265965701297779e-02 1.0427185824260847e-02 0.0000000000000000e+00  -3.2278600538961491e-02 2.4030313612040262e-03 0.0000000000000000e+00  -3.2690283854231054e-02 -5.6523221005451161e-03 0.0000000000000000e+00  -3.1339903724528745e-02 -1.4285534432399404e-02 0.0000000000000000e+00  -2.7882301665124398e-02 -2.5347225843000767e-02 0.0000000000000000e+00  -1.4910488326873359e-02 -3.8779906329762526e-02 0.0000000000000000e+00  0.0000000000000000e+00 0.0000000000000000e+00 0.0000000000000000e+00  0.0000000000000000e+00 0.0000000000000000e+00 0.0000000000000000e+00  -1.7558152642185666e-02 4.7021850283293025e-02 0.0000000000000000e+00  -3.1054154828042458e-02 3.6048585141697655e-02 0.0000000000000000e+00  -3.6964241888533325e-02 2.3050615960399968e-02 0.0000000000000000e+00  -3.9077706168191256e-02 1.2573550657442057e-02 0.0000000000000000e+00  -4.0547081428976992e-02 4.0323165419105488e-03 0.0000000000000000e+00  -4.0193853808123341e-02 -3.5781755611981212e-03 0.0000000000000000e+00  -4.7250187972663206e-02 -2.0168083566329834e-02 0.0000000000000000e+00  -5.1962413055162901e-02 -5.9703448937974087e-02 0.0000000000000000e+00  -1.8469443575957725e-02 -8.3356689421696814e-02 0.0000000000000000e+00  0.0000000000000000e+00 0.0000000000000000e+00 0.0000000000000000e+00  0.0000000000000000e+00 0.0000000000000000e+00 0.0000000000000000e+00  -3.7462100973486664e-02 6.6353466035997302e-02 0.0000000000000000e+00  -5.2538778014133251e-02 4.3326051827209125e-02 0.0000000000000000e+00  -5.3826547436342610e-02 2.3885918723729582e-02 0.0000000000000000e+00  -5.2514355426428905e-02 1.2438142894954519e-02 0.0000000000000000e+00  -5.1814082209174848e-02 4.8546589201842122e-03 0.0000000000000000e+00  -5.0077390613161341e-02 -2.0810317257370444e-03 0.0000000000000000e+00  -8.2670639693528516e-02 -4.3932003910570191e-03 0.0000000000000000e+00  -3.9300131168536839e-02 1.9435222936610493e-02 0.0000000000000000e+00  -5.3021607301252653e-02 2.0679452215555755e-02 0.0000000000000000e+00  0.0000000000000000e+00 0.0000000000000000e+00 0.0000000000000000e+00  0.0000000000000000e+00 0.0000000000000000e+00 0.0000000000000000e+00  -2.2881150522965920e-02 6.8383082108756835e-02 0.0000000000000000e+00  -4.6015160002469760e-02 3.4976940330618829e-02 0.0000000000000000e+00  -5.4749870843943109e-02 1.8018959277402258e-02 0.0000000000000000e+00  -5.6102253166590670e-02 9.7525630808695616e-03 0.0000000000000000e+00  -5.7529795037776298e-02 5.0104310843046449e-03 0.0000000000000000e+00  -6.3745692554668471e-02 3.0727890598988020e-04 0.0000000000000000e+00  -7.6480361577875980e-02 6.3175885826502335e-03 0.0000000000000000e+00  1.4133766441279633e-02 3.4008858141493056e-02 0.0000000000000000e+00  -3.1527829515585531e-01 -4.0908034666369525e-01 0.0000000000000000e+00  0.0000000000000000e+00 0.0000000000000000e+00 0.0000000000000000e+00  0.0000000000000000e+00 0.0000000000000000e+00 0.0000000000000000e+00  1.0000000000000000e+00 0.0000000000000000e+00 0.0000000000000000e+00  1.0000000000000000e+00 0.0000000000000000e+00 0.0000000000000000e+00  1.0000000000000000e+00 0.0000000000000000e+00 0.0000000000000000e+00  1.0000000000000000e+00 0.0000000000000000e+00 0.0000000000000000e+00  1.0000000000000000e+00 0.0000000000000000e+00 0.0000000000000000e+00  1.0000000000000000e+00 0.0000000000000000e+00 0.0000000000000000e+00  1.0000000000000000e+00 0.0000000000000000e+00 0.0000000000000000e+00  1.0000000000000000e+00 0.0000000000000000e+00 0.0000000000000000e+00  1.0000000000000000e+00 0.0000000000000000e+00 0.0000000000000000e+00  0.0000000000000000e+00 0.0000000000000000e+00 0.0000000000000000e+00  </DataArray> 
</PointData> 
</Piece>
</UnstructuredGrid>
</VTKFile>