<?xml version="1.0"?>
<VTKFile type="UnstructuredGrid"  version="0.1"  >
<UnstructuredGrid>
<Piece  NumberOfPoints="121" NumberOfCells="200">
<Points>
<DataArray  type="Float64"  NumberOfComponents="3"  format="ascii">0 0 0  0.1 0 0  0.2 0 0  0.3 0 0  0.4 0 0  0.5 0 0  0.6 0 0  0.7 0 0  0.8 0 0  0.9 0 0  1 0 0  0 0.1 0  0.1 0.1 0  0.2 0.1 0  0.3 0.1 0  0.4 0.1 0  0.5 0.1 0  0.6 0.1 0  0.7 0.1 0  0.8 0.1 0  0.9 0.1 0  1 0.1 0  0 0.2 0  0.1 0.2 0  0.2 0.2 0  0.3 0.2 0  0.4 0.2 0  0.5 0.2 0  0.6 0.2 0  0.7 0.2 0  0.8 0.2 0  0.9 0.2 0  1 0.2 0  0 0.3 0  0.1 0.3 0  0.2 0.3 0  0.3 0.3 0  0.4 0.3 0  0.5 0.3 0  0.6 0.3 0  0.7 0.3 0  0.8 0.3 0  0.9 0.3 0  1 0.3 0  0 0.4 0  0.1 0.4 0  0.2 0.4 0  0.3 0.4 0  0.4 0.4 0  0.5 0.4 0  0.6 0.4 0  0.7 0.4 0  0.8 0.4 0  0.9 0.4 0  1 0.4 0  0 0.5 0  0.1 0.5 0  0.2 0.5 0  0.3 0.5 0  0.4 0.5 0  0.5 0.5 0  0.6 0.5 0  0.7 0.5 0  0.8 0.5 0  0.9 0.5 0  1 0.5 0  0 0.6 0  0.1 0.6 0  0.2 0.6 0  0.3 0.6 0  0.4 0.6 0  0.5 0.6 0  0.6 0.6 0  0.7 0.6 0  0.8 0.6 0  0.9 0.6 0  1 0.6 0  0 0.7 0  0.1 0.7 0  0.2 0.7 0  0.3 0.7 0  0.4 0.7 0  0.5 0.7 0  0.6 0.7 0  0.7 0.7 0  0.8 0.7 0  0.9 0.7 0  1 0.7 0  0 0.8 0  0.1 0.8 0  0.2 0.8 0  0.3 0.8 0  0.4 0.8 0  0.5 0.8 0  0.6 0.8 0  0.7 0.8 0  0.8 0.8 0  0.9 0.8 0  1 0.8 0  0 0.9 0  0.1 0.9 0  0.2 0.9 0  0.3 0.9 0  0.4 0.9 0  0.5 0.9 0  0.6 0.9 0  0.7 0.9 0  0.8 0.9 0  0.9 0.9 0  1 0.9 0  0 1 0  0.1 1 0  0.2 1 0  0.3 1 0  0.4 1 0  0.5 1 0  0.6 1 0  0.7 1 0  0.8 1 0  0.9 1 0  1 1 0  </DataArray>
</Points>
<Cells>
<DataArray  type="UInt32"  Name="connectivity"  format="ascii">0 1 12  0 11 12  1 2 13  1 12 13  2 3 14  2 13 14  3 4 15  3 14 15  4 5 16  4 15 16  5 6 17  5 16 17  6 7 18  6 17 18  7 8 19  7 18 19  8 9 20  8 19 20  9 10 21  9 20 21  11 12 23  11 22 23  12 13 24  12 23 24  13 14 25  13 24 25  14 15 26  14 25 26  15 16 27  15 26 27  16 17 28  16 27 28  17 18 29  17 28 29  18 19 30  18 29 30  19 20 31  19 30 31  20 21 32  20 31 32  22 23 34  22 33 34  23 24 35  23 34 35  24 25 36  24 35 36  25 26 37  25 36 37  26 27 38  26 37 38  27 28 39  27 38 39  28 29 40  28 39 40  29 30 41  29 40 41  30 31 42  30 41 42  31 32 43  31 42 43  33 34 45  33 44 45  34 35 46  34 45 46  35 36 47  35 46 47  36 37 48  36 47 48  37 38 49  37 48 49  38 39 50  38 49 50  39 40 51  39 50 51  40 41 52  40 51 52  41 42 53  41 52 53  42 43 54  42 53 54  44 45 56  44 55 56  45 46 57  45 56 57  46 47 58  46 57 58  47 48 59  47 58 59  48 49 60  48 59 60  49 50 61  49 60 61  50 51 62  50 61 62  51 52 63  51 62 63  52 53 64  52 63 64  53 54 65  53 64 65  55 56 67  55 66 67  56 57 68  56 67 68  57 58 69  57 68 69  58 59 70  58 69 70  59 60 71  59 70 71  60 61 72  60 71 72  61 62 73  61 72 73  62 63 74  62 73 74  63 64 75  63 74 75  64 65 76  64 75 76  66 67 78  66 77 78  67 68 79  67 78 79  68 69 80  68 79 80  69 70 81  69 80 81  70 71 82  70 81 82  71 72 83  71 82 83  72 73 84  72 83 84  73 74 85  73 84 85  74 75 86  74 85 86  75 76 87  75 86 87  77 78 89  77 88 89  78 79 90  78 89 90  79 80 91  79 90 91  80 81 92  80 91 92  81 82 93  81 92 93  82 83 94  82 93 94  83 84 95  83 94 95  84 85 96  84 95 96  85 86 97  85 96 97  86 87 98  86 97 98  88 89 100  88 99 100  89 90 101  89 100 101  90 91 102  90 101 102  91 92 103  91 102 103  92 93 104  92 103 104  93 94 105  93 104 105  94 95 106  94 105 106  95 96 107  95 106 107  96 97 108  96 107 108  97 98 109  97 108 109  99 100 111  99 110 111  100 101 112  100 111 112  101 102 113  101 112 113  102 103 114  102 113 114  103 104 115  103 114 115  104 105 116  104 115 116  105 106 117  105 116 117  106 107 118  106 117 118  107 108 119  107 118 119  108 109 120  108 119 120  </DataArray>
<DataArray  type="UInt32"  Name="offsets"  format="ascii">3 6 9 12 15 18 21 24 27 30 33 36 39 42 45 48 51 54 57 60 63 66 69 72 75 78 81 84 87 90 93 96 99 102 105 108 111 114 117 120 123 126 129 132 135 138 141 144 147 150 153 156 159 162 165 168 171 174 177 180 183 186 189 192 195 198 201 204 207 210 213 216 219 222 225 228 231 234 237 240 243 246 249 252 255 258 261 264 267 270 273 276 279 282 285 288 291 294 297 300 303 306 309 312 315 318 321 324 327 330 333 336 339 342 345 348 351 354 357 360 363 366 369 372 375 378 381 384 387 390 393 396 399 402 405 408 411 414 417 420 423 426 429 432 435 438 441 444 447 450 453 456 459 462 465 468 471 474 477 480 483 486 489 492 495 498 501 504 507 510 513 516 519 522 525 528 531 534 537 540 543 546 549 552 555 558 561 564 567 570 573 576 579 582 585 588 591 594 597 600 </DataArray>
<DataArray  type="UInt8"  Name="types"  format="ascii">5 5 5 5 5 5 5 5 5 5 5 5 5 5 5 5 5 5 5 5 5 5 5 5 5 5 5 5 5 5 5 5 5 5 5 5 5 5 5 5 5 5 5 5 5 5 5 5 5 5 5 5 5 5 5 5 5 5 5 5 5 5 5 5 5 5 5 5 5 5 5 5 5 5 5 5 5 5 5 5 5 5 5 5 5 5 5 5 5 5 5 5 5 5 5 5 5 5 5 5 5 5 5 5 5 5 5 5 5 5 5 5 5 5 5 5 5 5 5 5 5 5 5 5 5 5 5 5 5 5 5 5 5 5 5 5 5 5 5 5 5 5 5 5 5 5 5 5 5 5 5 5 5 5 5 5 5 5 5 5 5 5 5 5 5 5 5 5 5 5 5 5 5 5 5 5 5 5 5 5 5 5 5 5 5 5 5 5 5 5 5 5 5 5 5 5 5 5 5 5 </DataArray>
</Cells>
<PointData  Vectors="f_22-0"> 
<DataArray  type="Float64"  Name="f_22-0"  NumberOfComponents="3" format="ascii">0.0000000000000000e+00 0.0000000000000000e+00 0.0000000000000000e+00  -1.1646200459520329e-06 2.3580084560314112e-05 0.0000000000000000e+00  -2.2282814442308613e-06 2.4133228974059623e-05 0.0000000000000000e+00  -3.0820794874039559e-06 1.8533044401250296e-05 0.0000000000000000e+00  -3.6199424911784431e-06 1.0232947839025464e-05 0.0000000000000000e+00  -3.7753904015917856e-06 5.6591046063478120e-07 0.0000000000000000e+00  -3.5184467120529786e-06 -9.3439014433819135e-06 0.0000000000000000e+00  -2.8708035991625013e-06 -1.8269520640086068e-05 0.0000000000000000e+00  -1.9171075474552461e-06 -2.4530215539765246e-05 0.0000000000000000e+00  -1.0372083777454417e-06 -2.4317826791401850e-05 0.0000000000000000e+00  0.0000000000000000e+00 0.0000000000000000e+00 0.0000000000000000e+00  0.0000000000000000e+00 0.0000000000000000e+00 0.0000000000000000e+00  -2.2885102263055963e-03 2.2043558315086422e-03 0.0000000000000000e+00  -4.7325658104358436e-03 1.8944763886030499e-03 0.0000000000000000e+00  -6.6877226032114627e-03 1.3813881655741574e-03 0.0000000000000000e+00  -7.9389980565252143e-03 7.3293074175527137e-04 0.0000000000000000e+00  -8.3639030302359411e-03 8.3109683309220350e-06 0.0000000000000000e+00  -7.9154151730076224e-03 -7.2867577140954510e-04 0.0000000000000000e+00  -6.6255067763014482e-03 -1.4112042287752194e-03 0.0000000000000000e+00  -4.6212543201060727e-03 -1.9597409733347003e-03 0.0000000000000000e+00  -2.0968069997134358e-03 -2.0626370231918876e-03 0.0000000000000000e+00  0.0000000000000000e+00 0.0000000000000000e+00 0.0000000000000000e+00  0.0000000000000000e+00 0.0000000000000000e+00 0.0000000000000000e+00  -2.6403163537593354e-03 4.9924212427974544e-03 0.0000000000000000e+00  -5.5140602278481738e-03 4.3748844825363857e-03 0.0000000000000000e+00  -7.8500455239765999e-03 3.1877668908871608e-03 0.0000000000000000e+00  -9.3650221393094032e-03 1.6999452781300409e-03 0.0000000000000000e+00  -9.9224850432630442e-03 4.3926440083125316e-05 0.0000000000000000e+00  -9.4633314662567903e-03 -1.6431821078382789e-03 0.0000000000000000e+00  -8.0012483386373203e-03 -3.2155638175639352e-03 0.0000000000000000e+00  -5.6583521662001033e-03 -4.4963865346654844e-03 0.0000000000000000e+00  -2.6489924263048050e-03 -4.9108166233284203e-03 0.0000000000000000e+00  0.0000000000000000e+00 0.0000000000000000e+00 0.0000000000000000e+00  0.0000000000000000e+00 0.0000000000000000e+00 0.0000000000000000e+00  -3.2879847162445427e-03 8.3354713512137999e-03 0.0000000000000000e+00  -6.7975533858111864e-03 7.3378371399193719e-03 0.0000000000000000e+00  -9.6216919617111117e-03 5.3289514277764759e-03 0.0000000000000000e+00  -1.1438257191388515e-02 2.8513059717211260e-03 0.0000000000000000e+00  -1.2125444827247638e-02 1.1996288547362353e-04 0.0000000000000000e+00  -1.1626486604809536e-02 -2.6747167064863726e-03 0.0000000000000000e+00  -9.9184374732397048e-03 -5.3273467708895121e-03 0.0000000000000000e+00  -7.0820670476292921e-03 -7.5480160854681788e-03 0.0000000000000000e+00  -3.3135785505450524e-03 -8.3616818101390246e-03 0.0000000000000000e+00  0.0000000000000000e+00 0.0000000000000000e+00 0.0000000000000000e+00  0.0000000000000000e+00 0.0000000000000000e+00 0.0000000000000000e+00  -4.3575755984336028e-03 1.2609424655880190e-02 0.0000000000000000e+00  -8.8890079081025523e-03 1.1047417302871771e-02 0.0000000000000000e+00  -1.2436829755499224e-02 7.9542178354195213e-03 0.0000000000000000e+00  -1.4661669160906717e-02 4.2578336784741336e-03 0.0000000000000000e+00  -1.5526279755154970e-02 2.6434131641803161e-04 0.0000000000000000e+00  -1.5017641567956205e-02 -3.8460869599677835e-03 0.0000000000000000e+00  -1.3023861235438784e-02 -7.8692333021853234e-03 0.0000000000000000e+00  -9.4645529165968932e-03 -1.1405091555226416e-02 0.0000000000000000e+00  -4.4489704254828781e-03 -1.2854972552026089e-02 0.0000000000000000e+00  0.0000000000000000e+00 0.0000000000000000e+00 0.0000000000000000e+00  0.0000000000000000e+00 0.0000000000000000e+00 0.0000000000000000e+00  -6.1078435085060940e-03 1.8336229270720109e-02 0.0000000000000000e+00  -1.2154313211692065e-02 1.5831808166040708e-02 0.0000000000000000e+00  -1.6609697588421058e-02 1.1177326690353899e-02 0.0000000000000000e+00  -1.9236811411438449e-02 5.9402252142684202e-03 0.0000000000000000e+00  -2.0289433658676980e-02 5.0505639545330350e-04 0.0000000000000000e+00  -1.9872132302362185e-02 -5.0906035856470066e-03 0.0000000000000000e+00  -1.7673977420460039e-02 -1.0833962402075563e-02 0.0000000000000000e+00  -1.3354738905754364e-02 -1.6302607049264090e-02 0.0000000000000000e+00  -6.4700053756583699e-03 -1.9080638785715535e-02 0.0000000000000000e+00  0.0000000000000000e+00 0.0000000000000000e+00 0.0000000000000000e+00  0.0000000000000000e+00 0.0000000000000000e+00 0.0000000000000000e+00  -9.2481007262025811e-03 2.6321424817692445e-02 0.0000000000000000e+00  -1.7471472792312419e-02 2.2062392776038556e-02 0.0000000000000000e+00  -2.2771875264905556e-02 1.4906213523965347e-02 0.0000000000000000e+00  -2.5449871961467661e-02 7.7390853931523576e-03 0.0000000000000000e+00  -2.6504139029657810e-02 8.9463328187536760e-04 0.0000000000000000e+00  -2.6194746654045295e-02 -5.9774120832484911e-03 0.0000000000000000e+00  -2.4288455832420699e-02 -1.3717352841435044e-02 0.0000000000000000e+00  -2.0308367390081777e-02 -2.2816707137157111e-02 0.0000000000000000e+00  -1.0356467623978370e-02 -2.9075592799665526e-02 0.0000000000000000e+00  0.0000000000000000e+00 0.0000000000000000e+00 0.0000000000000000e+00  0.0000000000000000e+00 0.0000000000000000e+00 0.0000000000000000e+00  -1.5540106645368458e-02 3.8782679102584115e-02 0.0000000000000000e+00  -2.7389292560162658e-02 2.9832272765861395e-02 0.0000000000000000e+00  -3.2614506185529732e-02 1.8291106580798144e-02 0.0000000000000000e+00  -3.4156154438407152e-02 9.0076498685306098e-03 0.0000000000000000e+00  -3.4646239903930343e-02 1.4688052095239610e-03 0.0000000000000000e+00  -3.4802772432201236e-02 -5.8119132593027513e-03 0.0000000000000000e+00  -3.6227218642119766e-02 -1.7339904837735041e-02 0.0000000000000000e+00  -3.3152177696554541e-02 -3.4562951081327252e-02 0.0000000000000000e+00  -1.3065242082864338e-02 -5.0680303323089516e-02 0.0000000000000000e+00  0.0000000000000000e+00 0.0000000000000000e+00 0.0000000000000000e+00  0.0000000000000000e+00 0.0000000000000000e+00 0.0000000000000000e+00  -2.6285816642544160e-02 5.5414323716606713e-02 0.0000000000000000e+00  -4.6819077910973547e-02 3.5934260988925229e-02 0.0000000000000000e+00  -4.9605921687426231e-02 1.8211773467858718e-02 0.0000000000000000e+00  -4.8565358528611713e-02 8.0427283982145801e-03 0.0000000000000000e+00  -4.8198559845952428e-02 1.1986063202544695e-03 0.0000000000000000e+00  -4.9698552089970899e-02 -5.3698707200258130e-03 0.0000000000000000e+00  -5.9930336073594201e-02 -1.3938311922715644e-02 0.0000000000000000e+00  -5.0579082541882779e-02 -2.5507617819545542e-02 0.0000000000000000e+00  -2.6953821007011752e-02 1.4741031377757232e-02 0.0000000000000000e+00  0.0000000000000000e+00 0.0000000000000000e+00 0.0000000000000000e+00  0.0000000000000000e+00 0.0000000000000000e+00 0.0000000000000000e+00  -6.7602638778333649e-03 6.4490036950014887e-02 0.0000000000000000e+00  -2.8707340124061256e-02 2.9316384833073958e-02 0.0000000000000000e+00  -3.3641357671926109e-02 1.4309205343114381e-02 0.0000000000000000e+00  -3.2389161181662761e-02 7.2195568403234742e-03 0.0000000000000000e+00  -3.3448923721334269e-02 3.1311986694233201e-03 0.0000000000000000e+00  -4.0685069318342863e-02 -1.3533592422969082e-03 0.0000000000000000e+00  -5.2038972194463476e-02 1.2353959243858355e-03 0.0000000000000000e+00  5.2244687616479690e-03 7.9362286319663716e-03 0.0000000000000000e+00  -2.9847394372344649e-01 -2.8942245666479843e-01 0.0000000000000000e+00  0.0000000000000000e+00 0.0000000000000000e+00 0.0000000000000000e+00  0.0000000000000000e+00 0.0000000000000000e+00 0.0000000000000000e+00  1.0000000000000000e+00 0.0000000000000000e+00 0.0000000000000000e+00  1.0000000000000000e+00 0.0000000000000000e+00 0.0000000000000000e+00  1.0000000000000000e+00 0.0000000000000000e+00 0.0000000000000000e+00  1.0000000000000000e+00 0.0000000000000000e+00 0.0000000000000000e+00  1.0000000000000000e+00 0.0000000000000000e+00 0.0000000000000000e+00  1.0000000000000000e+00 0.0000000000000000e+00 0.0000000000000000e+00  1.0000000000000000e+00 0.0000000000000000e+00 0.0000000000000000e+00  1.0000000000000000e+00 0.0000000000000000e+00 0.0000000000000000e+00  1.0000000000000000e+00 0.0000000000000000e+00 0.0000000000000000e+00  0.0000000000000000e+00 0.0000000000000000e+00 0.0000000000000000e+00  </DataArray> 
</PointData> 
</Piece>
</UnstructuredGrid>
</VTKFile>