<?xml version="1.0"?>
<VTKFile type="UnstructuredGrid"  version="0.1"  >
<UnstructuredGrid>
<Piece  NumberOfPoints="121" NumberOfCells="200">
<Points>
<DataArray  type="Float64"  NumberOfComponents="3"  format="ascii">0 0 0  0.1 0 0  0.2 0 0  0.3 0 0  0.4 0 0  0.5 0 0  0.6 0 0  0.7 0 0  0.8 0 0  0.9 0 0  1 0 0  0 0.1 0  0.1 0.1 0  0.2 0.1 0  0.3 0.1 0  0.4 0.1 0  0.5 0.1 0  0.6 0.1 0  0.7 0.1 0  0.8 0.1 0  0.9 0.1 0  1 0.1 0  0 0.2 0  0.1 0.2 0  0.2 0.2 0  0.3 0.2 0  0.4 0.2 0  0.5 0.2 0  0.6 0.2 0  0.7 0.2 0  0.8 0.2 0  0.9 0.2 0  1 0.2 0  0 0.3 0  0.1 0.3 0  0.2 0.3 0  0.3 0.3 0  0.4 0.3 0  0.5 0.3 0  0.6 0.3 0  0.7 0.3 0  0.8 0.3 0  0.9 0.3 0  1 0.3 0  0 0.4 0  0.1 0.4 0  0.2 0.4 0  0.3 0.4 0  0.4 0.4 0  0.5 0.4 0  0.6 0.4 0  0.7 0.4 0  0.8 0.4 0  0.9 0.4 0  1 0.4 0  0 0.5 0  0.1 0.5 0  0.2 0.5 0  0.3 0.5 0  0.4 0.5 0  0.5 0.5 0  0.6 0.5 0  0.7 0.5 0  0.8 0.5 0  0.9 0.5 0  1 0.5 0  0 0.6 0  0.1 0.6 0  0.2 0.6 0  0.3 0.6 0  0.4 0.6 0  0.5 0.6 0  0.6 0.6 0  0.7 0.6 0  0.8 0.6 0  0.9 0.6 0  1 0.6 0  0 0.7 0  0.1 0.7 0  0.2 0.7 0  0.3 0.7 0  0.4 0.7 0  0.5 0.7 0  0.6 0.7 0  0.7 0.7 0  0.8 0.7 0  0.9 0.7 0  1 0.7 0  0 0.8 0  0.1 0.8 0  0.2 0.8 0  0.3 0.8 0  0.4 0.8 0  0.5 0.8 0  0.6 0.8 0  0.7 0.8 0  0.8 0.8 0  0.9 0.8 0  1 0.8 0  0 0.9 0  0.1 0.9 0  0.2 0.9 0  0.3 0.9 0  0.4 0.9 0  0.5 0.9 0  0.6 0.9 0  0.7 0.9 0  0.8 0.9 0  0.9 0.9 0  1 0.9 0  0 1 0  0.1 1 0  0.2 1 0  0.3 1 0  0.4 1 0  0.5 1 0  0.6 1 0  0.7 1 0  0.8 1 0  0.9 1 0  1 1 0  </DataArray>
</Points>
<Cells>
<DataArray  type="UInt32"  Name="connectivity"  format="ascii">0 1 12  0 11 12  1 2 13  1 12 13  2 3 14  2 13 14  3 4 15  3 14 15  4 5 16  4 15 16  5 6 17  5 16 17  6 7 18  6 17 18  7 8 19  7 18 19  8 9 20  8 19 20  9 10 21  9 20 21  11 12 23  11 22 23  12 13 24  12 23 24  13 14 25  13 24 25  14 15 26  14 25 26  15 16 27  15 26 27  16 17 28  16 27 28  17 18 29  17 28 29  18 19 30  18 29 30  19 20 31  19 30 31  20 21 32  20 31 32  22 23 34  22 33 34  23 24 35  23 34 35  24 25 36  24 35 36  25 26 37  25 36 37  26 27 38  26 37 38  27 28 39  27 38 39  28 29 40  28 39 40  29 30 41  29 40 41  30 31 42  30 41 42  31 32 43  31 42 43  33 34 45  33 44 45  34 35 46  34 45 46  35 36 47  35 46 47  36 37 48  36 47 48  37 38 49  37 48 49  38 39 50  38 49 50  39 40 51  39 50 51  40 41 52  40 51 52  41 42 53  41 52 53  42 43 54  42 53 54  44 45 56  44 55 56  45 46 57  45 56 57  46 47 58  46 57 58  47 48 59  47 58 59  48 49 60  48 59 60  49 50 61  49 60 61  50 51 62  50 61 62  51 52 63  51 62 63  52 53 64  52 63 64  53 54 65  53 64 65  55 56 67  55 66 67  56 57 68  56 67 68  57 58 69  57 68 69  58 59 70  58 69 70  59 60 71  59 70 71  60 61 72  60 71 72  61 62 73  61 72 73  62 63 74  62 73 74  63 64 75  63 74 75  64 65 76  64 75 76  66 67 78  66 77 78  67 68 79  67 78 79  68 69 80  68 79 80  69 70 81  69 80 81  70 71 82  70 81 82  71 72 83  71 82 83  72 73 84  72 83 84  73 74 85  73 84 85  74 75 86  74 85 86  75 76 87  75 86 87  77 78 89  77 88 89  78 79 90  78 89 90  79 80 91  79 90 91  80 81 92  80 91 92  81 82 93  81 92 93  82 83 94  82 93 94  83 84 95  83 94 95  84 85 96  84 95 96  85 86 97  85 96 97  86 87 98  86 97 98  88 89 100  88 99 100  89 90 101  89 100 101  90 91 102  90 101 102  91 92 103  91 102 103  92 93 104  92 103 104  93 94 105  93 104 105  94 95 106  94 105 106  95 96 107  95 106 107  96 97 108  96 107 108  97 98 109  97 108 109  99 100 111  99 110 111  100 101 112  100 111 112  101 102 113  101 112 113  102 103 114  102 113 114  103 104 115  103 114 115  104 105 116  104 115 116  105 106 117  105 116 117  106 107 118  106 117 118  107 108 119  107 118 119  108 109 120  108 119 120  </DataArray>
<DataArray  type="UInt32"  Name="offsets"  format="ascii">3 6 9 12 15 18 21 24 27 30 33 36 39 42 45 48 51 54 57 60 63 66 69 72 75 78 81 84 87 90 93 96 99 102 105 108 111 114 117 120 123 126 129 132 135 138 141 144 147 150 153 156 159 162 165 168 171 174 177 180 183 186 189 192 195 198 201 204 207 210 213 216 219 222 225 228 231 234 237 240 243 246 249 252 255 258 261 264 267 270 273 276 279 282 285 288 291 294 297 300 303 306 309 312 315 318 321 324 327 330 333 336 339 342 345 348 351 354 357 360 363 366 369 372 375 378 381 384 387 390 393 396 399 402 405 408 411 414 417 420 423 426 429 432 435 438 441 444 447 450 453 456 459 462 465 468 471 474 477 480 483 486 489 492 495 498 501 504 507 510 513 516 519 522 525 528 531 534 537 540 543 546 549 552 555 558 561 564 567 570 573 576 579 582 585 588 591 594 597 600 </DataArray>
<DataArray  type="UInt8"  Name="types"  format="ascii">5 5 5 5 5 5 5 5 5 5 5 5 5 5 5 5 5 5 5 5 5 5 5 5 5 5 5 5 5 5 5 5 5 5 5 5 5 5 5 5 5 5 5 5 5 5 5 5 5 5 5 5 5 5 5 5 5 5 5 5 5 5 5 5 5 5 5 5 5 5 5 5 5 5 5 5 5 5 5 5 5 5 5 5 5 5 5 5 5 5 5 5 5 5 5 5 5 5 5 5 5 5 5 5 5 5 5 5 5 5 5 5 5 5 5 5 5 5 5 5 5 5 5 5 5 5 5 5 5 5 5 5 5 5 5 5 5 5 5 5 5 5 5 5 5 5 5 5 5 5 5 5 5 5 5 5 5 5 5 5 5 5 5 5 5 5 5 5 5 5 5 5 5 5 5 5 5 5 5 5 5 5 5 5 5 5 5 5 5 5 5 5 5 5 5 5 5 5 5 5 </DataArray>
</Cells>
<PointData  Vectors="f_22-0"> 
<DataArray  type="Float64"  Name="f_22-0"  NumberOfComponents="3" format="ascii">0.0000000000000000e+00 0.0000000000000000e+00 0.0000000000000000e+00  -8.9949724764907647e-07 1.5191927247277012e-05 0.0000000000000000e+00  -1.9739718092537742e-06 1.6061931692028247e-05 0.0000000000000000e+00  -2.9786491749583433e-06 1.2970825143800636e-05 0.0000000000000000e+00  -3.7363919164073867e-06 7.8476918206834427e-06 0.0000000000000000e+00  -4.1103554077089498e-06 1.3563787765997075e-06 0.0000000000000000e+00  -3.9910671251181948e-06 -5.7642360019030797e-06 0.0000000000000000e+00  -3.3500203084118724e-06 -1.2455920249260389e-05 0.0000000000000000e+00  -2.2653389035885730e-06 -1.7158258081107480e-05 0.0000000000000000e+00  -1.1884572215006190e-06 -1.6959123676388630e-05 0.0000000000000000e+00  0.0000000000000000e+00 0.0000000000000000e+00 0.0000000000000000e+00  0.0000000000000000e+00 0.0000000000000000e+00 0.0000000000000000e+00  -3.5759726825487330e-03 3.4350002763846020e-03 0.0000000000000000e+00  -8.5796245710861481e-03 3.1944728698697555e-03 0.0000000000000000e+00  -1.2754132595223615e-02 2.5220658034906100e-03 0.0000000000000000e+00  -1.5688660232806871e-02 1.5646325235194303e-03 0.0000000000000000e+00  -1.7014797437459483e-02 3.6379663068565848e-04 0.0000000000000000e+00  -1.6464190446661406e-02 -1.0009840106957580e-03 0.0000000000000000e+00  -1.3928152718225098e-02 -2.3756472817974710e-03 0.0000000000000000e+00  -9.6044420222130451e-03 -3.5225142209870594e-03 0.0000000000000000e+00  -4.0188981577614340e-03 -3.9957166564131763e-03 0.0000000000000000e+00  0.0000000000000000e+00 0.0000000000000000e+00 0.0000000000000000e+00  0.0000000000000000e+00 0.0000000000000000e+00 0.0000000000000000e+00  -4.1337470540697419e-03 8.9120295282259752e-03 0.0000000000000000e+00  -9.7638191528617111e-03 8.1585961326381615e-03 0.0000000000000000e+00  -1.4554321077336814e-02 6.4239057628099156e-03 0.0000000000000000e+00  -1.8016333023041047e-02 3.9962063834072404e-03 0.0000000000000000e+00  -1.9753788488811517e-02 9.6899698012655974e-04 0.0000000000000000e+00  -1.9399317718945795e-02 -2.5258596384994400e-03 0.0000000000000000e+00  -1.6652769130893651e-02 -6.1140047058453268e-03 0.0000000000000000e+00  -1.1605040012649632e-02 -9.0834160294453563e-03 0.0000000000000000e+00  -4.9493468329513237e-03 -1.0446525581565311e-02 0.0000000000000000e+00  0.0000000000000000e+00 0.0000000000000000e+00 0.0000000000000000e+00  0.0000000000000000e+00 0.0000000000000000e+00 0.0000000000000000e+00  -4.9265170026509490e-03 1.5203204538941627e-02 0.0000000000000000e+00  -1.1633301302796458e-02 1.3945149332737586e-02 0.0000000000000000e+00  -1.7364059173859168e-02 1.1065362428351303e-02 0.0000000000000000e+00  -2.1697969524400347e-02 7.0470755921012724e-03 0.0000000000000000e+00  -2.4243877316447487e-02 1.8931953901879747e-03 0.0000000000000000e+00  -2.4339371208115579e-02 -4.2046754303739064e-03 0.0000000000000000e+00  -2.1321009640173239e-02 -1.0452893846710236e-02 0.0000000000000000e+00  -1.5076389324282253e-02 -1.5681479722783994e-02 0.0000000000000000e+00  -6.4981449709629897e-03 -1.8345620641267910e-02 0.0000000000000000e+00  0.0000000000000000e+00 0.0000000000000000e+00 0.0000000000000000e+00  0.0000000000000000e+00 0.0000000000000000e+00 0.0000000000000000e+00  -6.2065155615440900e-03 2.2895251297332112e-02 0.0000000000000000e+00  -1.4503613962818875e-02 2.0984607299926194e-02 0.0000000000000000e+00  -2.1585498167512918e-02 1.6777380424042872e-02 0.0000000000000000e+00  -2.7263343037114321e-02 1.1042498202826790e-02 0.0000000000000000e+00  -3.0920813785473067e-02 4.2191125072112276e-03 0.0000000000000000e+00  -3.2011035546288133e-02 -3.7474882661005047e-03 0.0000000000000000e+00  -2.9563014288055418e-02 -1.3795261400068917e-02 0.0000000000000000e+00  -2.1591173339389071e-02 -2.4628364732254323e-02 0.0000000000000000e+00  -9.2763161905855870e-03 -3.0527604491241880e-02 0.0000000000000000e+00  0.0000000000000000e+00 0.0000000000000000e+00 0.0000000000000000e+00  0.0000000000000000e+00 0.0000000000000000e+00 0.0000000000000000e+00  -8.2104825144278561e-03 3.2696801684677528e-02 0.0000000000000000e+00  -1.8715604192052111e-02 2.9694139481013571e-02 0.0000000000000000e+00  -2.7555353771944829e-02 2.3745046117557400e-02 0.0000000000000000e+00  -3.4342439392743319e-02 1.6632010749348999e-02 0.0000000000000000e+00  -3.8875648260711958e-02 8.4519381829673383e-03 0.0000000000000000e+00  -4.4820045803243475e-02 -5.4071481774245686e-03 0.0000000000000000e+00  -4.5363779519699013e-02 -2.5087778660232509e-02 0.0000000000000000e+00  -3.2162009147551074e-02 -4.2165791028523365e-02 0.0000000000000000e+00  -1.2071964783477596e-02 -4.7059081357777387e-02 0.0000000000000000e+00  0.0000000000000000e+00 0.0000000000000000e+00 0.0000000000000000e+00  0.0000000000000000e+00 0.0000000000000000e+00 0.0000000000000000e+00  -1.1563914304978214e-02 4.5637489155387741e-02 0.0000000000000000e+00  -2.5140636931882700e-02 4.0363193979407665e-02 0.0000000000000000e+00  -3.5487166479261048e-02 3.1773910184094506e-02 0.0000000000000000e+00  -4.1642794715664795e-02 2.3506031848174899e-02 0.0000000000000000e+00  -4.9416204852988553e-02 1.4544343359731727e-02 0.0000000000000000e+00  -6.5047419954163507e-02 1.0206360113376085e-03 0.0000000000000000e+00  -6.5148190958481692e-02 -2.0938509754512582e-02 0.0000000000000000e+00  -5.7173681354885958e-02 -5.0939279328309925e-02 0.0000000000000000e+00  -2.1745765924017127e-02 -7.2773942135203301e-02 0.0000000000000000e+00  0.0000000000000000e+00 0.0000000000000000e+00 0.0000000000000000e+00  0.0000000000000000e+00 0.0000000000000000e+00 0.0000000000000000e+00  -1.8251245229662795e-02 6.3669103784590800e-02 0.0000000000000000e+00  -3.6040676958824194e-02 5.2523262598654273e-02 0.0000000000000000e+00  -4.5095219280971238e-02 3.9125478745705350e-02 0.0000000000000000e+00  -4.9014115020870060e-02 2.9435487360650721e-02 0.0000000000000000e+00  -5.6998360847643238e-02 2.3120795346785964e-02 0.0000000000000000e+00  -8.9325798389532224e-02 2.6209746928801007e-02 0.0000000000000000e+00  -4.9288087400499649e-02 3.3288254399674588e-02 0.0000000000000000e+00  -1.7973608133897825e-01 -6.4899442483952477e-02 0.0000000000000000e+00  -6.6893780350749041e-02 -1.1324202109683303e-01 0.0000000000000000e+00  0.0000000000000000e+00 0.0000000000000000e+00 0.0000000000000000e+00  0.0000000000000000e+00 0.0000000000000000e+00 0.0000000000000000e+00  -4.4065136094543059e-02 8.5021049631268331e-02 0.0000000000000000e+00  -5.4319542037972957e-02 6.1000978817336064e-02 0.0000000000000000e+00  -5.4345560965001330e-02 4.2508076171120755e-02 0.0000000000000000e+00  -5.3405146400117121e-02 3.1952221301755762e-02 0.0000000000000000e+00  -5.3775981325455691e-02 2.8369603623888007e-02 0.0000000000000000e+00  -5.8763256749297582e-02 3.7870244912231260e-02 0.0000000000000000e+00  -3.0511765069831085e-02 8.6695437303897865e-02 0.0000000000000000e+00  -3.6916970493824208e-01 -6.9166744529984919e-02 0.0000000000000000e+00  -2.7184890478974461e-01 -5.5471352616258418e-01 0.0000000000000000e+00  0.0000000000000000e+00 0.0000000000000000e+00 0.0000000000000000e+00  0.0000000000000000e+00 0.0000000000000000e+00 0.0000000000000000e+00  -5.6077807637651855e-02 8.8789851270540357e-02 0.0000000000000000e+00  -4.3281357560284166e-02 5.2581015382160423e-02 0.0000000000000000e+00  -3.6557951637896970e-02 3.5262805217367965e-02 0.0000000000000000e+00  -2.9712235305802803e-02 2.6257907312210855e-02 0.0000000000000000e+00  -2.0132216187597664e-02 2.1873712563262291e-02 0.0000000000000000e+00  -5.1623938007482129e-03 2.9065224210012810e-02 0.0000000000000000e+00  3.2452066682416986e-02 6.8533984141508533e-02 0.0000000000000000e+00  -1.9225182766671921e-02 1.5882597339970125e-01 0.0000000000000000e+00  8.6540266977826283e-02 -1.5145758037501431e-02 0.0000000000000000e+00  0.0000000000000000e+00 0.0000000000000000e+00 0.0000000000000000e+00  0.0000000000000000e+00 0.0000000000000000e+00 0.0000000000000000e+00  1.0000000000000000e+00 0.0000000000000000e+00 0.0000000000000000e+00  1.0000000000000000e+00 0.0000000000000000e+00 0.0000000000000000e+00  1.0000000000000000e+00 0.0000000000000000e+00 0.0000000000000000e+00  1.0000000000000000e+00 0.0000000000000000e+00 0.0000000000000000e+00  1.0000000000000000e+00 0.0000000000000000e+00 0.0000000000000000e+00  1.0000000000000000e+00 0.0000000000000000e+00 0.0000000000000000e+00  1.0000000000000000e+00 0.0000000000000000e+00 0.0000000000000000e+00  1.0000000000000000e+00 0.0000000000000000e+00 0.0000000000000000e+00  1.0000000000000000e+00 0.0000000000000000e+00 0.0000000000000000e+00  0.0000000000000000e+00 0.0000000000000000e+00 0.0000000000000000e+00  </DataArray> 
</PointData> 
</Piece>
</UnstructuredGrid>
</VTKFile>