<?xml version="1.0"?>
<VTKFile type="UnstructuredGrid"  version="0.1"  >
<UnstructuredGrid>
<Piece  NumberOfPoints="121" NumberOfCells="200">
<Points>
<DataArray  type="Float64"  NumberOfComponents="3"  format="ascii">0 0 0  0.1 0 0  0.2 0 0  0.3 0 0  0.4 0 0  0.5 0 0  0.6 0 0  0.7 0 0  0.8 0 0  0.9 0 0  1 0 0  0 0.1 0  0.1 0.1 0  0.2 0.1 0  0.3 0.1 0  0.4 0.1 0  0.5 0.1 0  0.6 0.1 0  0.7 0.1 0  0.8 0.1 0  0.9 0.1 0  1 0.1 0  0 0.2 0  0.1 0.2 0  0.2 0.2 0  0.3 0.2 0  0.4 0.2 0  0.5 0.2 0  0.6 0.2 0  0.7 0.2 0  0.8 0.2 0  0.9 0.2 0  1 0.2 0  0 0.3 0  0.1 0.3 0  0.2 0.3 0  0.3 0.3 0  0.4 0.3 0  0.5 0.3 0  0.6 0.3 0  0.7 0.3 0  0.8 0.3 0  0.9 0.3 0  1 0.3 0  0 0.4 0  0.1 0.4 0  0.2 0.4 0  0.3 0.4 0  0.4 0.4 0  0.5 0.4 0  0.6 0.4 0  0.7 0.4 0  0.8 0.4 0  0.9 0.4 0  1 0.4 0  0 0.5 0  0.1 0.5 0  0.2 0.5 0  0.3 0.5 0  0.4 0.5 0  0.5 0.5 0  0.6 0.5 0  0.7 0.5 0  0.8 0.5 0  0.9 0.5 0  1 0.5 0  0 0.6 0  0.1 0.6 0  0.2 0.6 0  0.3 0.6 0  0.4 0.6 0  0.5 0.6 0  0.6 0.6 0  0.7 0.6 0  0.8 0.6 0  0.9 0.6 0  1 0.6 0  0 0.7 0  0.1 0.7 0  0.2 0.7 0  0.3 0.7 0  0.4 0.7 0  0.5 0.7 0  0.6 0.7 0  0.7 0.7 0  0.8 0.7 0  0.9 0.7 0  1 0.7 0  0 0.8 0  0.1 0.8 0  0.2 0.8 0  0.3 0.8 0  0.4 0.8 0  0.5 0.8 0  0.6 0.8 0  0.7 0.8 0  0.8 0.8 0  0.9 0.8 0  1 0.8 0  0 0.9 0  0.1 0.9 0  0.2 0.9 0  0.3 0.9 0  0.4 0.9 0  0.5 0.9 0  0.6 0.9 0  0.7 0.9 0  0.8 0.9 0  0.9 0.9 0  1 0.9 0  0 1 0  0.1 1 0  0.2 1 0  0.3 1 0  0.4 1 0  0.5 1 0  0.6 1 0  0.7 1 0  0.8 1 0  0.9 1 0  1 1 0  </DataArray>
</Points>
<Cells>
<DataArray  type="UInt32"  Name="connectivity"  format="ascii">0 1 12  0 11 12  1 2 13  1 12 13  2 3 14  2 13 14  3 4 15  3 14 15  4 5 16  4 15 16  5 6 17  5 16 17  6 7 18  6 17 18  7 8 19  7 18 19  8 9 20  8 19 20  9 10 21  9 20 21  11 12 23  11 22 23  12 13 24  12 23 24  13 14 25  13 24 25  14 15 26  14 25 26  15 16 27  15 26 27  16 17 28  16 27 28  17 18 29  17 28 29  18 19 30  18 29 30  19 20 31  19 30 31  20 21 32  20 31 32  22 23 34  22 33 34  23 24 35  23 34 35  24 25 36  24 35 36  25 26 37  25 36 37  26 27 38  26 37 38  27 28 39  27 38 39  28 29 40  28 39 40  29 30 41  29 40 41  30 31 42  30 41 42  31 32 43  31 42 43  33 34 45  33 44 45  34 35 46  34 45 46  35 36 47  35 46 47  36 37 48  36 47 48  37 38 49  37 48 49  38 39 50  38 49 50  39 40 51  39 50 51  40 41 52  40 51 52  41 42 53  41 52 53  42 43 54  42 53 54  44 45 56  44 55 56  45 46 57  45 56 57  46 47 58  46 57 58  47 48 59  47 58 59  48 49 60  48 59 60  49 50 61  49 60 61  50 51 62  50 61 62  51 52 63  51 62 63  52 53 64  52 63 64  53 54 65  53 64 65  55 56 67  55 66 67  56 57 68  56 67 68  57 58 69  57 68 69  58 59 70  58 69 70  59 60 71  59 70 71  60 61 72  60 71 72  61 62 73  61 72 73  62 63 74  62 73 74  63 64 75  63 74 75  64 65 76  64 75 76  66 67 78  66 77 78  67 68 79  67 78 79  68 69 80  68 79 80  69 70 81  69 80 81  70 71 82  70 81 82  71 72 83  71 82 83  72 73 84  72 83 84  73 74 85  73 84 85  74 75 86  74 85 86  75 76 87  75 86 87  77 78 89  77 88 89  78 79 90  78 89 90  79 80 91  79 90 91  80 81 92  80 91 92  81 82 93  81 92 93  82 83 94  82 93 94  83 84 95  83 94 95  84 85 96  84 95 96  85 86 97  85 96 97  86 87 98  86 97 98  88 89 100  88 99 100  89 90 101  89 100 101  90 91 102  90 101 102  91 92 103  91 102 103  92 93 104  92 103 104  93 94 105  93 104 105  94 95 106  94 105 106  95 96 107  95 106 107  96 97 108  96 107 108  97 98 109  97 108 109  99 100 111  99 110 111  100 101 112  100 111 112  101 102 113  101 112 113  102 103 114  102 113 114  103 104 115  103 114 115  104 105 116  104 115 116  105 106 117  105 116 117  106 107 118  106 117 118  107 108 119  107 118 119  108 109 120  108 119 120  </DataArray>
<DataArray  type="UInt32"  Name="offsets"  format="ascii">3 6 9 12 15 18 21 24 27 30 33 36 39 42 45 48 51 54 57 60 63 66 69 72 75 78 81 84 87 90 93 96 99 102 105 108 111 114 117 120 123 126 129 132 135 138 141 144 147 150 153 156 159 162 165 168 171 174 177 180 183 186 189 192 195 198 201 204 207 210 213 216 219 222 225 228 231 234 237 240 243 246 249 252 255 258 261 264 267 270 273 276 279 282 285 288 291 294 297 300 303 306 309 312 315 318 321 324 327 330 333 336 339 342 345 348 351 354 357 360 363 366 369 372 375 378 381 384 387 390 393 396 399 402 405 408 411 414 417 420 423 426 429 432 435 438 441 444 447 450 453 456 459 462 465 468 471 474 477 480 483 486 489 492 495 498 501 504 507 510 513 516 519 522 525 528 531 534 537 540 543 546 549 552 555 558 561 564 567 570 573 576 579 582 585 588 591 594 597 600 </DataArray>
<DataArray  type="UInt8"  Name="types"  format="ascii">5 5 5 5 5 5 5 5 5 5 5 5 5 5 5 5 5 5 5 5 5 5 5 5 5 5 5 5 5 5 5 5 5 5 5 5 5 5 5 5 5 5 5 5 5 5 5 5 5 5 5 5 5 5 5 5 5 5 5 5 5 5 5 5 5 5 5 5 5 5 5 5 5 5 5 5 5 5 5 5 5 5 5 5 5 5 5 5 5 5 5 5 5 5 5 5 5 5 5 5 5 5 5 5 5 5 5 5 5 5 5 5 5 5 5 5 5 5 5 5 5 5 5 5 5 5 5 5 5 5 5 5 5 5 5 5 5 5 5 5 5 5 5 5 5 5 5 5 5 5 5 5 5 5 5 5 5 5 5 5 5 5 5 5 5 5 5 5 5 5 5 5 5 5 5 5 5 5 5 5 5 5 5 5 5 5 5 5 5 5 5 5 5 5 5 5 5 5 5 5 </DataArray>
</Cells>
<PointData  Vectors="f_22-0"> 
<DataArray  type="Float64"  Name="f_22-0"  NumberOfComponents="3" format="ascii">0.0000000000000000e+00 0.0000000000000000e+00 0.0000000000000000e+00  -1.1568115309997699e-06 2.3319131597548900e-05 0.0000000000000000e+00  -2.2218554838093631e-06 2.3886801300396321e-05 0.0000000000000000e+00  -3.0804730207092888e-06 1.8370415092386341e-05 0.0000000000000000e+00  -3.6246047302670428e-06 1.0173258229756423e-05 0.0000000000000000e+00  -3.7860337885645360e-06 6.0601286608779960e-07 0.0000000000000000e+00  -3.5328868640533062e-06 -9.2206311948509604e-06 0.0000000000000000e+00  -2.8854787257174267e-06 -1.8086436606595349e-05 0.0000000000000000e+00  -1.9273372256334104e-06 -2.4313054309845327e-05 0.0000000000000000e+00  -1.0432479330426146e-06 -2.4113606283670604e-05 0.0000000000000000e+00  0.0000000000000000e+00 0.0000000000000000e+00 0.0000000000000000e+00  0.0000000000000000e+00 0.0000000000000000e+00 0.0000000000000000e+00  -2.3323807365739696e-03 2.2465141555379894e-03 0.0000000000000000e+00  -4.8439967400363921e-03 1.9310256742907158e-03 0.0000000000000000e+00  -6.8532875543278887e-03 1.4103554065649088e-03 0.0000000000000000e+00  -8.1414154665010209e-03 7.5101326942970427e-04 0.0000000000000000e+00  -8.5817621945575018e-03 1.2969678266117046e-05 0.0000000000000000e+00  -8.1249013732378299e-03 -7.3890754218168910e-04 0.0000000000000000e+00  -6.8024060435772438e-03 -1.4362629247212130e-03 0.0000000000000000e+00  -4.7444333738922515e-03 -1.9990474108116129e-03 0.0000000000000000e+00  -2.1500587530108128e-03 -2.1142006098869436e-03 0.0000000000000000e+00  0.0000000000000000e+00 0.0000000000000000e+00 0.0000000000000000e+00  0.0000000000000000e+00 0.0000000000000000e+00 0.0000000000000000e+00  -2.6860178515131328e-03 5.1078937436009912e-03 0.0000000000000000e+00  -5.6277559597202736e-03 4.4700541315565480e-03 0.0000000000000000e+00  -8.0207842411991279e-03 3.2616526959351939e-03 0.0000000000000000e+00  -9.5754620596989574e-03 1.7447151693586972e-03 0.0000000000000000e+00  -1.0151422043716406e-02 5.3595557535388575e-05 0.0000000000000000e+00  -9.6863987722981965e-03 -1.6721024118026549e-03 0.0000000000000000e+00  -8.1921032505268016e-03 -3.2828881425876959e-03 0.0000000000000000e+00  -5.7926132892288217e-03 -4.5988466333305340e-03 0.0000000000000000e+00  -2.7077613165487012e-03 -5.0443528696062093e-03 0.0000000000000000e+00  0.0000000000000000e+00 0.0000000000000000e+00 0.0000000000000000e+00  0.0000000000000000e+00 0.0000000000000000e+00 0.0000000000000000e+00  -3.3424975490354975e-03 8.5344467068004838e-03 0.0000000000000000e+00  -6.9345653314039002e-03 7.5023492243472675e-03 0.0000000000000000e+00  -9.8266567862004602e-03 5.4556931450520816e-03 0.0000000000000000e+00  -1.1691387463631946e-02 2.9289059289153109e-03 0.0000000000000000e+00  -1.2403260693993329e-02 1.3877965702131296e-04 0.0000000000000000e+00  -1.1901507481609785e-02 -2.7216063255687865e-03 0.0000000000000000e+00  -1.0158672361609276e-02 -5.4421654268097322e-03 0.0000000000000000e+00  -7.2547525322309691e-03 -7.7270460423055371e-03 0.0000000000000000e+00  -3.3894782226873473e-03 -8.5966435577703344e-03 0.0000000000000000e+00  0.0000000000000000e+00 0.0000000000000000e+00 0.0000000000000000e+00  0.0000000000000000e+00 0.0000000000000000e+00 0.0000000000000000e+00  -4.4266866382045612e-03 1.2913127243824809e-02 0.0000000000000000e+00  -9.0635736446978456e-03 1.1297390481561882e-02 0.0000000000000000e+00  -1.2696750104181254e-02 8.1463119185530165e-03 0.0000000000000000e+00  -1.4982043030158080e-02 4.3780109563030497e-03 0.0000000000000000e+00  -1.5881651619073386e-02 3.0031890899198183e-04 0.0000000000000000e+00  -1.5380033456970475e-02 -3.9074359113062404e-03 0.0000000000000000e+00  -1.3352349467025137e-02 -8.0393674170428000e-03 0.0000000000000000e+00  -9.7087536773254515e-03 -1.1683865188965539e-02 0.0000000000000000e+00  -4.5573905753817662e-03 -1.3226582359537286e-02 0.0000000000000000e+00  0.0000000000000000e+00 0.0000000000000000e+00 0.0000000000000000e+00  0.0000000000000000e+00 0.0000000000000000e+00 0.0000000000000000e+00  -6.1992128051901567e-03 1.8778847256817322e-02 0.0000000000000000e+00  -1.2383835419489930e-02 1.6189492990717119e-02 0.0000000000000000e+00  -1.6945216676955425e-02 1.1449709499261473e-02 0.0000000000000000e+00  -1.9646027758896345e-02 6.1158248794747454e-03 0.0000000000000000e+00  -2.0748333858923853e-02 5.6802645151466952e-04 0.0000000000000000e+00  -2.0362756499195847e-02 -5.1573826842804269e-03 0.0000000000000000e+00  -1.8141965111184669e-02 -1.1056056768731394e-02 0.0000000000000000e+00  -1.3721220445207575e-02 -1.6692931045607352e-02 0.0000000000000000e+00  -6.6479645874990469e-03 -1.9635803120498316e-02 0.0000000000000000e+00  0.0000000000000000e+00 0.0000000000000000e+00 0.0000000000000000e+00  0.0000000000000000e+00 0.0000000000000000e+00 0.0000000000000000e+00  -9.3760203824465004e-03 2.6951789657958788e-02 0.0000000000000000e+00  -1.7776603483705376e-02 2.2554797464466380e-02 0.0000000000000000e+00  -2.3194911362343435e-02 1.5273234818290045e-02 0.0000000000000000e+00  -2.5948915646657768e-02 7.9805491543657875e-03 0.0000000000000000e+00  -2.7070910864161996e-02 1.0049910552556445e-03 0.0000000000000000e+00  -2.6792619371410056e-02 -6.0081766913786640e-03 0.0000000000000000e+00  -2.4917137773566234e-02 -1.3901130558750098e-02 0.0000000000000000e+00  -2.0984047924301932e-02 -2.3244796713573709e-02 0.0000000000000000e+00  -1.0743230905633887e-02 -3.0015835480528170e-02 0.0000000000000000e+00  0.0000000000000000e+00 0.0000000000000000e+00 0.0000000000000000e+00  0.0000000000000000e+00 0.0000000000000000e+00 0.0000000000000000e+00  -1.5794022663647770e-02 3.9668606210639404e-02 0.0000000000000000e+00  -2.7816299338971239e-02 3.0486489021797732e-02 0.0000000000000000e+00  -3.3107348349607636e-02 1.8761692961228104e-02 0.0000000000000000e+00  -3.4686535637130408e-02 9.3248936527460143e-03 0.0000000000000000e+00  -3.5221420352619159e-02 1.6604487894339931e-03 0.0000000000000000e+00  -3.5390212629800952e-02 -5.6902454232181142e-03 0.0000000000000000e+00  -3.7033261832076357e-02 -1.7661639813602210e-02 0.0000000000000000e+00  -3.4447620927766598e-02 -3.6396317200601123e-02 0.0000000000000000e+00  -1.3502698453092099e-02 -5.3391990275341285e-02 0.0000000000000000e+00  0.0000000000000000e+00 0.0000000000000000e+00 0.0000000000000000e+00  0.0000000000000000e+00 0.0000000000000000e+00 0.0000000000000000e+00  -2.7470839158858194e-02 5.6626647177263678e-02 0.0000000000000000e+00  -4.7656386675666768e-02 3.6735786792252943e-02 0.0000000000000000e+00  -5.0320841144726319e-02 1.8746073290341985e-02 0.0000000000000000e+00  -4.9233130641201751e-02 8.4050151195595411e-03 0.0000000000000000e+00  -4.8804617094262898e-02 1.4526007248618416e-03 0.0000000000000000e+00  -5.0125938492124558e-02 -5.1802692046489188e-03 0.0000000000000000e+00  -6.1899118372827903e-02 -1.3421462477901644e-02 0.0000000000000000e+00  -4.9347713401681911e-02 -2.3761983999614360e-02 0.0000000000000000e+00  -2.7216375821118900e-02 1.8353526802849914e-02 0.0000000000000000e+00  0.0000000000000000e+00 0.0000000000000000e+00 0.0000000000000000e+00  0.0000000000000000e+00 0.0000000000000000e+00 0.0000000000000000e+00  -7.9173557339202519e-03 6.4976761717535927e-02 0.0000000000000000e+00  -3.1447616040986871e-02 2.9840990154792201e-02 0.0000000000000000e+00  -3.7135570130728088e-02 1.4583394009957904e-02 0.0000000000000000e+00  -3.6210553944445424e-02 7.3726068194754479e-03 0.0000000000000000e+00  -3.7339819986173181e-02 3.2137462651286000e-03 0.0000000000000000e+00  -4.4675881191007419e-02 -1.3732752921059603e-03 0.0000000000000000e+00  -5.6634508331537881e-02 1.6197984637964661e-03 0.0000000000000000e+00  5.2325270332168952e-03 1.0253287213262607e-02 0.0000000000000000e+00  -3.0486577588545311e-01 -3.0395936101073873e-01 0.0000000000000000e+00  0.0000000000000000e+00 0.0000000000000000e+00 0.0000000000000000e+00  0.0000000000000000e+00 0.0000000000000000e+00 0.0000000000000000e+00  1.0000000000000000e+00 0.0000000000000000e+00 0.0000000000000000e+00  1.0000000000000000e+00 0.0000000000000000e+00 0.0000000000000000e+00  1.0000000000000000e+00 0.0000000000000000e+00 0.0000000000000000e+00  1.0000000000000000e+00 0.0000000000000000e+00 0.0000000000000000e+00  1.0000000000000000e+00 0.0000000000000000e+00 0.0000000000000000e+00  1.0000000000000000e+00 0.0000000000000000e+00 0.0000000000000000e+00  1.0000000000000000e+00 0.0000000000000000e+00 0.0000000000000000e+00  1.0000000000000000e+00 0.0000000000000000e+00 0.0000000000000000e+00  1.0000000000000000e+00 0.0000000000000000e+00 0.0000000000000000e+00  0.0000000000000000e+00 0.0000000000000000e+00 0.0000000000000000e+00  </DataArray> 
</PointData> 
</Piece>
</UnstructuredGrid>
</VTKFile>