<?xml version="1.0"?>
<VTKFile type="UnstructuredGrid"  version="0.1"  >
<UnstructuredGrid>
<Piece  NumberOfPoints="121" NumberOfCells="200">
<Points>
<DataArray  type="Float64"  NumberOfComponents="3"  format="ascii">0 0 0  0.1 0 0  0.2 0 0  0.3 0 0  0.4 0 0  0.5 0 0  0.6 0 0  0.7 0 0  0.8 0 0  0.9 0 0  1 0 0  0 0.1 0  0.1 0.1 0  0.2 0.1 0  0.3 0.1 0  0.4 0.1 0  0.5 0.1 0  0.6 0.1 0  0.7 0.1 0  0.8 0.1 0  0.9 0.1 0  1 0.1 0  0 0.2 0  0.1 0.2 0  0.2 0.2 0  0.3 0.2 0  0.4 0.2 0  0.5 0.2 0  0.6 0.2 0  0.7 0.2 0  0.8 0.2 0  0.9 0.2 0  1 0.2 0  0 0.3 0  0.1 0.3 0  0.2 0.3 0  0.3 0.3 0  0.4 0.3 0  0.5 0.3 0  0.6 0.3 0  0.7 0.3 0  0.8 0.3 0  0.9 0.3 0  1 0.3 0  0 0.4 0  0.1 0.4 0  0.2 0.4 0  0.3 0.4 0  0.4 0.4 0  0.5 0.4 0  0.6 0.4 0  0.7 0.4 0  0.8 0.4 0  0.9 0.4 0  1 0.4 0  0 0.5 0  0.1 0.5 0  0.2 0.5 0  0.3 0.5 0  0.4 0.5 0  0.5 0.5 0  0.6 0.5 0  0.7 0.5 0  0.8 0.5 0  0.9 0.5 0  1 0.5 0  0 0.6 0  0.1 0.6 0  0.2 0.6 0  0.3 0.6 0  0.4 0.6 0  0.5 0.6 0  0.6 0.6 0  0.7 0.6 0  0.8 0.6 0  0.9 0.6 0  1 0.6 0  0 0.7 0  0.1 0.7 0  0.2 0.7 0  0.3 0.7 0  0.4 0.7 0  0.5 0.7 0  0.6 0.7 0  0.7 0.7 0  0.8 0.7 0  0.9 0.7 0  1 0.7 0  0 0.8 0  0.1 0.8 0  0.2 0.8 0  0.3 0.8 0  0.4 0.8 0  0.5 0.8 0  0.6 0.8 0  0.7 0.8 0  0.8 0.8 0  0.9 0.8 0  1 0.8 0  0 0.9 0  0.1 0.9 0  0.2 0.9 0  0.3 0.9 0  0.4 0.9 0  0.5 0.9 0  0.6 0.9 0  0.7 0.9 0  0.8 0.9 0  0.9 0.9 0  1 0.9 0  0 1 0  0.1 1 0  0.2 1 0  0.3 1 0  0.4 1 0  0.5 1 0  0.6 1 0  0.7 1 0  0.8 1 0  0.9 1 0  1 1 0  </DataArray>
</Points>
<Cells>
<DataArray  type="UInt32"  Name="connectivity"  format="ascii">0 1 12  0 11 12  1 2 13  1 12 13  2 3 14  2 13 14  3 4 15  3 14 15  4 5 16  4 15 16  5 6 17  5 16 17  6 7 18  6 17 18  7 8 19  7 18 19  8 9 20  8 19 20  9 10 21  9 20 21  11 12 23  11 22 23  12 13 24  12 23 24  13 14 25  13 24 25  14 15 26  14 25 26  15 16 27  15 26 27  16 17 28  16 27 28  17 18 29  17 28 29  18 19 30  18 29 30  19 20 31  19 30 31  20 21 32  20 31 32  22 23 34  22 33 34  23 24 35  23 34 35  24 25 36  24 35 36  25 26 37  25 36 37  26 27 38  26 37 38  27 28 39  27 38 39  28 29 40  28 39 40  29 30 41  29 40 41  30 31 42  30 41 42  31 32 43  31 42 43  33 34 45  33 44 45  34 35 46  34 45 46  35 36 47  35 46 47  36 37 48  36 47 48  37 38 49  37 48 49  38 39 50  38 49 50  39 40 51  39 50 51  40 41 52  40 51 52  41 42 53  41 52 53  42 43 54  42 53 54  44 45 56  44 55 56  45 46 57  45 56 57  46 47 58  46 57 58  47 48 59  47 58 59  48 49 60  48 59 60  49 50 61  49 60 61  50 51 62  50 61 62  51 52 63  51 62 63  52 53 64  52 63 64  53 54 65  53 64 65  55 56 67  55 66 67  56 57 68  56 67 68  57 58 69  57 68 69  58 59 70  58 69 70  59 60 71  59 70 71  60 61 72  60 71 72  61 62 73  61 72 73  62 63 74  62 73 74  63 64 75  63 74 75  64 65 76  64 75 76  66 67 78  66 77 78  67 68 79  67 78 79  68 69 80  68 79 80  69 70 81  69 80 81  70 71 82  70 81 82  71 72 83  71 82 83  72 73 84  72 83 84  73 74 85  73 84 85  74 75 86  74 85 86  75 76 87  75 86 87  77 78 89  77 88 89  78 79 90  78 89 90  79 80 91  79 90 91  80 81 92  80 91 92  81 82 93  81 92 93  82 83 94  82 93 94  83 84 95  83 94 95  84 85 96  84 95 96  85 86 97  85 96 97  86 87 98  86 97 98  88 89 100  88 99 100  89 90 101  89 100 101  90 91 102  90 101 102  91 92 103  91 102 103  92 93 104  92 103 104  93 94 105  93 104 105  94 95 106  94 105 106  95 96 107  95 106 107  96 97 108  96 107 108  97 98 109  97 108 109  99 100 111  99 110 111  100 101 112  100 111 112  101 102 113  101 112 113  102 103 114  102 113 114  103 104 115  103 114 115  104 105 116  104 115 116  105 106 117  105 116 117  106 107 118  106 117 118  107 108 119  107 118 119  108 109 120  108 119 120  </DataArray>
<DataArray  type="UInt32"  Name="offsets"  format="ascii">3 6 9 12 15 18 21 24 27 30 33 36 39 42 45 48 51 54 57 60 63 66 69 72 75 78 81 84 87 90 93 96 99 102 105 108 111 114 117 120 123 126 129 132 135 138 141 144 147 150 153 156 159 162 165 168 171 174 177 180 183 186 189 192 195 198 201 204 207 210 213 216 219 222 225 228 231 234 237 240 243 246 249 252 255 258 261 264 267 270 273 276 279 282 285 288 291 294 297 300 303 306 309 312 315 318 321 324 327 330 333 336 339 342 345 348 351 354 357 360 363 366 369 372 375 378 381 384 387 390 393 396 399 402 405 408 411 414 417 420 423 426 429 432 435 438 441 444 447 450 453 456 459 462 465 468 471 474 477 480 483 486 489 492 495 498 501 504 507 510 513 516 519 522 525 528 531 534 537 540 543 546 549 552 555 558 561 564 567 570 573 576 579 582 585 588 591 594 597 600 </DataArray>
<DataArray  type="UInt8"  Name="types"  format="ascii">5 5 5 5 5 5 5 5 5 5 5 5 5 5 5 5 5 5 5 5 5 5 5 5 5 5 5 5 5 5 5 5 5 5 5 5 5 5 5 5 5 5 5 5 5 5 5 5 5 5 5 5 5 5 5 5 5 5 5 5 5 5 5 5 5 5 5 5 5 5 5 5 5 5 5 5 5 5 5 5 5 5 5 5 5 5 5 5 5 5 5 5 5 5 5 5 5 5 5 5 5 5 5 5 5 5 5 5 5 5 5 5 5 5 5 5 5 5 5 5 5 5 5 5 5 5 5 5 5 5 5 5 5 5 5 5 5 5 5 5 5 5 5 5 5 5 5 5 5 5 5 5 5 5 5 5 5 5 5 5 5 5 5 5 5 5 5 5 5 5 5 5 5 5 5 5 5 5 5 5 5 5 5 5 5 5 5 5 5 5 5 5 5 5 5 5 5 5 5 5 </DataArray>
</Cells>
<PointData  Vectors="f_22-0"> 
<DataArray  type="Float64"  Name="f_22-0"  NumberOfComponents="3" format="ascii">0.0000000000000000e+00 0.0000000000000000e+00 0.0000000000000000e+00  -8.7480348200712588e-07 1.4233330518682016e-05 0.0000000000000000e+00  -1.9443988319626284e-06 1.5087838860619634e-05 0.0000000000000000e+00  -2.9566379251763616e-06 1.2216711436263990e-05 0.0000000000000000e+00  -3.7294243186858427e-06 7.4104356064928868e-06 0.0000000000000000e+00  -4.1188598982936346e-06 1.2834853909250358e-06 0.0000000000000000e+00  -4.0068645814266893e-06 -5.4556818560324570e-06 0.0000000000000000e+00  -3.3611822323233578e-06 -1.1775059378822634e-05 0.0000000000000000e+00  -2.2708093667018996e-06 -1.6166898164827181e-05 0.0000000000000000e+00  -1.1782270271381268e-06 -1.5884527179038995e-05 0.0000000000000000e+00  0.0000000000000000e+00 0.0000000000000000e+00 0.0000000000000000e+00  0.0000000000000000e+00 0.0000000000000000e+00 0.0000000000000000e+00  -3.6687448843457605e-03 3.5214078483073097e-03 0.0000000000000000e+00  -8.9266950950514339e-03 3.3225601409014988e-03 0.0000000000000000e+00  -1.3350120394445983e-02 2.6454129205627612e-03 0.0000000000000000e+00  -1.6491172083279330e-02 1.6618375877746042e-03 0.0000000000000000e+00  -1.7940583809106722e-02 4.0741015784408012e-04 0.0000000000000000e+00  -1.7386030724063428e-02 -1.0331313820146561e-03 0.0000000000000000e+00  -1.4696194515423082e-02 -2.4893967662882217e-03 0.0000000000000000e+00  -1.0085825041886725e-02 -3.6932092210188840e-03 0.0000000000000000e+00  -4.1624259421636422e-03 -4.1552633505066248e-03 0.0000000000000000e+00  0.0000000000000000e+00 0.0000000000000000e+00 0.0000000000000000e+00  0.0000000000000000e+00 0.0000000000000000e+00 0.0000000000000000e+00  -4.2785186098175734e-03 9.2637278475449260e-03 0.0000000000000000e+00  -1.0231844668647665e-02 8.5862903980135474e-03 0.0000000000000000e+00  -1.5333319562050932e-02 6.8145970756094305e-03 0.0000000000000000e+00  -1.9058404095056755e-02 4.2995332059751045e-03 0.0000000000000000e+00  -2.0965369992369996e-02 1.1172647345341030e-03 0.0000000000000000e+00  -2.0627565089029666e-02 -2.6191507344714444e-03 0.0000000000000000e+00  -1.7687465236826277e-02 -6.5001438112192974e-03 0.0000000000000000e+00  -1.2241122404954162e-02 -9.6797413748817111e-03 0.0000000000000000e+00  -5.1296203449387951e-03 -1.0997216175435734e-02 0.0000000000000000e+00  0.0000000000000000e+00 0.0000000000000000e+00 0.0000000000000000e+00  0.0000000000000000e+00 0.0000000000000000e+00 0.0000000000000000e+00  -5.0675468294660263e-03 1.5845306825933589e-02 0.0000000000000000e+00  -1.2126918563639295e-02 1.4708735896173386e-02 0.0000000000000000e+00  -1.8215703070611731e-02 1.1795188703873204e-02 0.0000000000000000e+00  -2.2905065609479587e-02 7.6422509914242992e-03 0.0000000000000000e+00  -2.5771258139130344e-02 2.1540113374191121e-03 0.0000000000000000e+00  -2.5996007175912959e-02 -4.4976592162968808e-03 0.0000000000000000e+00  -2.2751381801511105e-02 -1.1298252794360510e-02 0.0000000000000000e+00  -1.5887018231896671e-02 -1.6839937681358882e-02 0.0000000000000000e+00  -6.6708328283415653e-03 -1.9309008797470408e-02 0.0000000000000000e+00  0.0000000000000000e+00 0.0000000000000000e+00 0.0000000000000000e+00  0.0000000000000000e+00 0.0000000000000000e+00 0.0000000000000000e+00  -6.3349328369439817e-03 2.3834076627178659e-02 0.0000000000000000e+00  -1.5001635328999017e-02 2.2126799716984290e-02 0.0000000000000000e+00  -2.2475264588118996e-02 1.7941530899377636e-02 0.0000000000000000e+00  -2.8757389463332523e-02 1.2057040600891066e-02 0.0000000000000000e+00  -3.2970030213366329e-02 4.8489684905260715e-03 0.0000000000000000e+00  -3.4350019785153452e-02 -3.8840740036052627e-03 0.0000000000000000e+00  -3.1680446913099687e-02 -1.4960848656456902e-02 0.0000000000000000e+00  -2.2627952659583440e-02 -2.6431759275949422e-02 0.0000000000000000e+00  -9.5367647223035187e-03 -3.1873515844296492e-02 0.0000000000000000e+00  0.0000000000000000e+00 0.0000000000000000e+00 0.0000000000000000e+00  0.0000000000000000e+00 0.0000000000000000e+00 0.0000000000000000e+00  -8.3016753374854733e-03 3.3922108572329260e-02 0.0000000000000000e+00  -1.9131052197704411e-02 3.1236569980054099e-02 0.0000000000000000e+00  -2.8411267341466390e-02 2.5413994285238509e-02 0.0000000000000000e+00  -3.6211146138477389e-02 1.8264677724934526e-02 0.0000000000000000e+00  -4.1165186667503156e-02 1.0093970113088548e-02 0.0000000000000000e+00  -4.8624468948346232e-02 -3.7106799514626007e-03 0.0000000000000000e+00  -4.8841080445314142e-02 -2.5388776312164602e-02 0.0000000000000000e+00  -3.3702639001430411e-02 -4.5264095302676340e-02 0.0000000000000000e+00  -1.1987081190526390e-02 -5.0607930607532187e-02 0.0000000000000000e+00  0.0000000000000000e+00 0.0000000000000000e+00 0.0000000000000000e+00  0.0000000000000000e+00 0.0000000000000000e+00 0.0000000000000000e+00  -1.1556346026620885e-02 4.7099495412766736e-02 0.0000000000000000e+00  -2.5366332433023130e-02 4.2254571939484717e-02 0.0000000000000000e+00  -3.6150055273333204e-02 3.3955921974493680e-02 0.0000000000000000e+00  -4.3883604034221556e-02 2.6189882398302090e-02 0.0000000000000000e+00  -4.8820084243025211e-02 1.8025199582754704e-02 0.0000000000000000e+00  -7.4776276983913453e-02 1.6699217726869517e-03 0.0000000000000000e+00  -7.2691367560694942e-02 -2.8780958544005787e-02 0.0000000000000000e+00  -6.1096287247793181e-02 -6.4140383031394174e-02 0.0000000000000000e+00  -1.6474894777979521e-02 -7.7718035717485090e-02 0.0000000000000000e+00  0.0000000000000000e+00 0.0000000000000000e+00 0.0000000000000000e+00  0.0000000000000000e+00 0.0000000000000000e+00 0.0000000000000000e+00  -1.7890392983618181e-02 6.5199206354720415e-02 0.0000000000000000e+00  -3.5934737947842750e-02 5.4633683890263379e-02 0.0000000000000000e+00  -4.5340399402253220e-02 4.1712271746897490e-02 0.0000000000000000e+00  -5.0171400124420736e-02 3.2992799369472949e-02 0.0000000000000000e+00  -5.3843033177211799e-02 2.7985092652117936e-02 0.0000000000000000e+00  -1.0774753283883497e-01 3.3691222920369038e-02 0.0000000000000000e+00  -5.0374392838504228e-02 6.2540960109515792e-02 0.0000000000000000e+00  -2.6781439967631060e-01 -1.1973533750581711e-01 0.0000000000000000e+00  -1.0588594489841796e-01 -9.3087463910289575e-02 0.0000000000000000e+00  0.0000000000000000e+00 0.0000000000000000e+00 0.0000000000000000e+00  0.0000000000000000e+00 0.0000000000000000e+00 0.0000000000000000e+00  -4.1959543609399387e-02 8.6484008017205016e-02 0.0000000000000000e+00  -5.3254020382247837e-02 6.3182377654065425e-02 0.0000000000000000e+00  -5.3574413623025181e-02 4.5152571273824001e-02 0.0000000000000000e+00  -5.2379358318298451e-02 3.5315050627680783e-02 0.0000000000000000e+00  -5.1065622245896648e-02 3.3543329611282237e-02 0.0000000000000000e+00  -5.8634117712414537e-02 4.8095094017867830e-02 0.0000000000000000e+00  -2.2134492142518766e-02 1.1576705113038914e-01 0.0000000000000000e+00  -3.1256415077109456e-01 -6.0375621745015047e-02 0.0000000000000000e+00  -2.0787321365715783e-01 -5.6266441991704130e-01 0.0000000000000000e+00  0.0000000000000000e+00 0.0000000000000000e+00 0.0000000000000000e+00  0.0000000000000000e+00 0.0000000000000000e+00 0.0000000000000000e+00  -5.1957720753788385e-02 9.1745817842094526e-02 0.0000000000000000e+00  -3.9990396228021044e-02 5.5045524462578335e-02 0.0000000000000000e+00  -3.1813352709965048e-02 3.7697160419130293e-02 0.0000000000000000e+00  -2.2930397834542711e-02 2.8750291634311979e-02 0.0000000000000000e+00  -1.0977749445105925e-02 2.4939336911859466e-02 0.0000000000000000e+00  1.1771444158278639e-02 3.4285997564190811e-02 0.0000000000000000e+00  4.2260066971881741e-02 9.0298092866061289e-02 0.0000000000000000e+00  1.4339027448918068e-03 1.3337646478200049e-01 0.0000000000000000e+00  8.9268961171341865e-02 1.2693611997709959e-03 0.0000000000000000e+00  0.0000000000000000e+00 0.0000000000000000e+00 0.0000000000000000e+00  0.0000000000000000e+00 0.0000000000000000e+00 0.0000000000000000e+00  1.0000000000000000e+00 0.0000000000000000e+00 0.0000000000000000e+00  1.0000000000000000e+00 0.0000000000000000e+00 0.0000000000000000e+00  1.0000000000000000e+00 0.0000000000000000e+00 0.0000000000000000e+00  1.0000000000000000e+00 0.0000000000000000e+00 0.0000000000000000e+00  1.0000000000000000e+00 0.0000000000000000e+00 0.0000000000000000e+00  1.0000000000000000e+00 0.0000000000000000e+00 0.0000000000000000e+00  1.0000000000000000e+00 0.0000000000000000e+00 0.0000000000000000e+00  1.0000000000000000e+00 0.0000000000000000e+00 0.0000000000000000e+00  1.0000000000000000e+00 0.0000000000000000e+00 0.0000000000000000e+00  0.0000000000000000e+00 0.0000000000000000e+00 0.0000000000000000e+00  </DataArray> 
</PointData> 
</Piece>
</UnstructuredGrid>
</VTKFile>