<?xml version="1.0"?>
<VTKFile type="UnstructuredGrid"  version="0.1"  >
<UnstructuredGrid>
<Piece  NumberOfPoints="121" NumberOfCells="200">
<Points>
<DataArray  type="Float64"  NumberOfComponents="3"  format="ascii">0 0 0  0.1 0 0  0.2 0 0  0.3 0 0  0.4 0 0  0.5 0 0  0.6 0 0  0.7 0 0  0.8 0 0  0.9 0 0  1 0 0  0 0.1 0  0.1 0.1 0  0.2 0.1 0  0.3 0.1 0  0.4 0.1 0  0.5 0.1 0  0.6 0.1 0  0.7 0.1 0  0.8 0.1 0  0.9 0.1 0  1 0.1 0  0 0.2 0  0.1 0.2 0  0.2 0.2 0  0.3 0.2 0  0.4 0.2 0  0.5 0.2 0  0.6 0.2 0  0.7 0.2 0  0.8 0.2 0  0.9 0.2 0  1 0.2 0  0 0.3 0  0.1 0.3 0  0.2 0.3 0  0.3 0.3 0  0.4 0.3 0  0.5 0.3 0  0.6 0.3 0  0.7 0.3 0  0.8 0.3 0  0.9 0.3 0  1 0.3 0  0 0.4 0  0.1 0.4 0  0.2 0.4 0  0.3 0.4 0  0.4 0.4 0  0.5 0.4 0  0.6 0.4 0  0.7 0.4 0  0.8 0.4 0  0.9 0.4 0  1 0.4 0  0 0.5 0  0.1 0.5 0  0.2 0.5 0  0.3 0.5 0  0.4 0.5 0  0.5 0.5 0  0.6 0.5 0  0.7 0.5 0  0.8 0.5 0  0.9 0.5 0  1 0.5 0  0 0.6 0  0.1 0.6 0  0.2 0.6 0  0.3 0.6 0  0.4 0.6 0  0.5 0.6 0  0.6 0.6 0  0.7 0.6 0  0.8 0.6 0  0.9 0.6 0  1 0.6 0  0 0.7 0  0.1 0.7 0  0.2 0.7 0  0.3 0.7 0  0.4 0.7 0  0.5 0.7 0  0.6 0.7 0  0.7 0.7 0  0.8 0.7 0  0.9 0.7 0  1 0.7 0  0 0.8 0  0.1 0.8 0  0.2 0.8 0  0.3 0.8 0  0.4 0.8 0  0.5 0.8 0  0.6 0.8 0  0.7 0.8 0  0.8 0.8 0  0.9 0.8 0  1 0.8 0  0 0.9 0  0.1 0.9 0  0.2 0.9 0  0.3 0.9 0  0.4 0.9 0  0.5 0.9 0  0.6 0.9 0  0.7 0.9 0  0.8 0.9 0  0.9 0.9 0  1 0.9 0  0 1 0  0.1 1 0  0.2 1 0  0.3 1 0  0.4 1 0  0.5 1 0  0.6 1 0  0.7 1 0  0.8 1 0  0.9 1 0  1 1 0  </DataArray>
</Points>
<Cells>
<DataArray  type="UInt32"  Name="connectivity"  format="ascii">0 1 12  0 11 12  1 2 13  1 12 13  2 3 14  2 13 14  3 4 15  3 14 15  4 5 16  4 15 16  5 6 17  5 16 17  6 7 18  6 17 18  7 8 19  7 18 19  8 9 20  8 19 20  9 10 21  9 20 21  11 12 23  11 22 23  12 13 24  12 23 24  13 14 25  13 24 25  14 15 26  14 25 26  15 16 27  15 26 27  16 17 28  16 27 28  17 18 29  17 28 29  18 19 30  18 29 30  19 20 31  19 30 31  20 21 32  20 31 32  22 23 34  22 33 34  23 24 35  23 34 35  24 25 36  24 35 36  25 26 37  25 36 37  26 27 38  26 37 38  27 28 39  27 38 39  28 29 40  28 39 40  29 30 41  29 40 41  30 31 42  30 41 42  31 32 43  31 42 43  33 34 45  33 44 45  34 35 46  34 45 46  35 36 47  35 46 47  36 37 48  36 47 48  37 38 49  37 48 49  38 39 50  38 49 50  39 40 51  39 50 51  40 41 52  40 51 52  41 42 53  41 52 53  42 43 54  42 53 54  44 45 56  44 55 56  45 46 57  45 56 57  46 47 58  46 57 58  47 48 59  47 58 59  48 49 60  48 59 60  49 50 61  49 60 61  50 51 62  50 61 62  51 52 63  51 62 63  52 53 64  52 63 64  53 54 65  53 64 65  55 56 67  55 66 67  56 57 68  56 67 68  57 58 69  57 68 69  58 59 70  58 69 70  59 60 71  59 70 71  60 61 72  60 71 72  61 62 73  61 72 73  62 63 74  62 73 74  63 64 75  63 74 75  64 65 76  64 75 76  66 67 78  66 77 78  67 68 79  67 78 79  68 69 80  68 79 80  69 70 81  69 80 81  70 71 82  70 81 82  71 72 83  71 82 83  72 73 84  72 83 84  73 74 85  73 84 85  74 75 86  74 85 86  75 76 87  75 86 87  77 78 89  77 88 89  78 79 90  78 89 90  79 80 91  79 90 91  80 81 92  80 91 92  81 82 93  81 92 93  82 83 94  82 93 94  83 84 95  83 94 95  84 85 96  84 95 96  85 86 97  85 96 97  86 87 98  86 97 98  88 89 100  88 99 100  89 90 101  89 100 101  90 91 102  90 101 102  91 92 103  91 102 103  92 93 104  92 103 104  93 94 105  93 104 105  94 95 106  94 105 106  95 96 107  95 106 107  96 97 108  96 107 108  97 98 109  97 108 109  99 100 111  99 110 111  100 101 112  100 111 112  101 102 113  101 112 113  102 103 114  102 113 114  103 104 115  103 114 115  104 105 116  104 115 116  105 106 117  105 116 117  106 107 118  106 117 118  107 108 119  107 118 119  108 109 120  108 119 120  </DataArray>
<DataArray  type="UInt32"  Name="offsets"  format="ascii">3 6 9 12 15 18 21 24 27 30 33 36 39 42 45 48 51 54 57 60 63 66 69 72 75 78 81 84 87 90 93 96 99 102 105 108 111 114 117 120 123 126 129 132 135 138 141 144 147 150 153 156 159 162 165 168 171 174 177 180 183 186 189 192 195 198 201 204 207 210 213 216 219 222 225 228 231 234 237 240 243 246 249 252 255 258 261 264 267 270 273 276 279 282 285 288 291 294 297 300 303 306 309 312 315 318 321 324 327 330 333 336 339 342 345 348 351 354 357 360 363 366 369 372 375 378 381 384 387 390 393 396 399 402 405 408 411 414 417 420 423 426 429 432 435 438 441 444 447 450 453 456 459 462 465 468 471 474 477 480 483 486 489 492 495 498 501 504 507 510 513 516 519 522 525 528 531 534 537 540 543 546 549 552 555 558 561 564 567 570 573 576 579 582 585 588 591 594 597 600 </DataArray>
<DataArray  type="UInt8"  Name="types"  format="ascii">5 5 5 5 5 5 5 5 5 5 5 5 5 5 5 5 5 5 5 5 5 5 5 5 5 5 5 5 5 5 5 5 5 5 5 5 5 5 5 5 5 5 5 5 5 5 5 5 5 5 5 5 5 5 5 5 5 5 5 5 5 5 5 5 5 5 5 5 5 5 5 5 5 5 5 5 5 5 5 5 5 5 5 5 5 5 5 5 5 5 5 5 5 5 5 5 5 5 5 5 5 5 5 5 5 5 5 5 5 5 5 5 5 5 5 5 5 5 5 5 5 5 5 5 5 5 5 5 5 5 5 5 5 5 5 5 5 5 5 5 5 5 5 5 5 5 5 5 5 5 5 5 5 5 5 5 5 5 5 5 5 5 5 5 5 5 5 5 5 5 5 5 5 5 5 5 5 5 5 5 5 5 5 5 5 5 5 5 5 5 5 5 5 5 5 5 5 5 5 5 </DataArray>
</Cells>
<PointData  Vectors="f_22-0"> 
<DataArray  type="Float64"  Name="f_22-0"  NumberOfComponents="3" format="ascii">0.0000000000000000e+00 0.0000000000000000e+00 0.0000000000000000e+00  -1.1773503932926116e-06 2.4014825061421856e-05 0.0000000000000000e+00  -2.2391987593538039e-06 2.4546828408278510e-05 0.0000000000000000e+00  -3.0859950577605275e-06 1.8810843728002809e-05 0.0000000000000000e+00  -3.6146474578105764e-06 1.0341749654194195e-05 0.0000000000000000e+00  -3.7612382701721381e-06 5.0793963721410054e-07 0.0000000000000000e+00  -3.4985593320940720e-06 -9.5445833023680467e-06 0.0000000000000000e+00  -2.8502838269754038e-06 -1.8576692258029867e-05 0.0000000000000000e+00  -1.9027496227234028e-06 -2.4901022953182165e-05 0.0000000000000000e+00  -1.0282729427541442e-06 -2.4669759201442524e-05 0.0000000000000000e+00  0.0000000000000000e+00 0.0000000000000000e+00 0.0000000000000000e+00  0.0000000000000000e+00 0.0000000000000000e+00 0.0000000000000000e+00  -2.2203717096679365e-03 2.1388319315062106e-03 0.0000000000000000e+00  -4.5611570192647779e-03 1.8381791629895154e-03 0.0000000000000000e+00  -6.4337808354663958e-03 1.3370212024472539e-03 0.0000000000000000e+00  -7.6292306978518352e-03 7.0547890796837686e-04 0.0000000000000000e+00  -8.0311612159120870e-03 1.5035560869272172e-06 0.0000000000000000e+00  -7.5959897631434885e-03 -7.1280365805785520e-04 0.0000000000000000e+00  -6.3560127578371093e-03 -1.3728374026669278e-03 0.0000000000000000e+00  -4.4334647895421520e-03 -1.8995624693071060e-03 0.0000000000000000e+00  -2.0151153214143839e-03 -1.9837629078935811e-03 0.0000000000000000e+00  0.0000000000000000e+00 0.0000000000000000e+00 0.0000000000000000e+00  0.0000000000000000e+00 0.0000000000000000e+00 0.0000000000000000e+00  -2.5695580055573675e-03 4.8145228441727845e-03 0.0000000000000000e+00  -5.3394133770017175e-03 4.2292062440346129e-03 0.0000000000000000e+00  -7.5884375282219176e-03 3.0754424489039386e-03 0.0000000000000000e+00  -9.0434471622095215e-03 1.6325785407867964e-03 0.0000000000000000e+00  -9.5736034522838510e-03 3.0252595949818747e-05 0.0000000000000000e+00  -9.1242823449801946e-03 -1.5983757695855448e-03 0.0000000000000000e+00  -7.7116772980639486e-03 -3.1129094413826853e-03 0.0000000000000000e+00  -5.4545604608081119e-03 -4.3405151043179289e-03 0.0000000000000000e+00  -2.5592041495219428e-03 -4.7077789781009988e-03 0.0000000000000000e+00  0.0000000000000000e+00 0.0000000000000000e+00 0.0000000000000000e+00  0.0000000000000000e+00 0.0000000000000000e+00 0.0000000000000000e+00  -3.2033109498859460e-03 8.0291236437708656e-03 0.0000000000000000e+00  -6.5868080364359215e-03 7.0861442052038443e-03 0.0000000000000000e+00  -9.3074712823627195e-03 5.1366374306343211e-03 0.0000000000000000e+00  -1.1051645431520851e-02 2.7350750308568843e-03 0.0000000000000000e+00  -1.1702827120549132e-02 9.3760046814354487e-05 0.0000000000000000e+00  -1.1209762701879641e-02 -2.6014073703866021e-03 0.0000000000000000e+00  -9.5556676644684025e-03 -5.1520636956737488e-03 0.0000000000000000e+00  -6.8215827466057248e-03 -7.2762320521577639e-03 0.0000000000000000e+00  -3.1985437977468025e-03 -8.0055703173958995e-03 0.0000000000000000e+00  0.0000000000000000e+00 0.0000000000000000e+00 0.0000000000000000e+00  0.0000000000000000e+00 0.0000000000000000e+00 0.0000000000000000e+00  -4.2497122077515964e-03 1.2141356366384613e-02 0.0000000000000000e+00  -8.6196106255369449e-03 1.0664813214104549e-02 0.0000000000000000e+00  -1.2037355368372421e-02 7.6630250850363455e-03 0.0000000000000000e+00  -1.4171612293129635e-02 4.0785626799954991e-03 0.0000000000000000e+00  -1.4985806482450497e-02 2.1469435295727089e-04 0.0000000000000000e+00  -1.4469958838513028e-02 -3.7481964590704926e-03 0.0000000000000000e+00  -1.2530080987470799e-02 -7.6094735411797168e-03 0.0000000000000000e+00  -9.0984595028502785e-03 -1.0983591229432266e-02 0.0000000000000000e+00  -4.2854215040722199e-03 -1.2293924482781266e-02 0.0000000000000000e+00  0.0000000000000000e+00 0.0000000000000000e+00 0.0000000000000000e+00  0.0000000000000000e+00 0.0000000000000000e+00 0.0000000000000000e+00  -5.9643969918925250e-03 1.7652988714091478e-02 0.0000000000000000e+00  -1.1798814203067311e-02 1.5283687309405393e-02 0.0000000000000000e+00  -1.6092572719206541e-02 1.0764446186453974e-02 0.0000000000000000e+00  -1.8609988486394603e-02 5.6795118535177052e-03 0.0000000000000000e+00  -1.9592157059757982e-02 4.1859245369751773e-04 0.0000000000000000e+00  -1.9135970700035494e-02 -4.9802229826222608e-03 0.0000000000000000e+00  -1.6976272898189530e-02 -1.0493138911182510e-02 0.0000000000000000e+00  -1.2806980943496587e-02 -1.5713243891565410e-02 0.0000000000000000e+00  -6.2034189780922309e-03 -1.8240499016476879e-02 0.0000000000000000e+00  0.0000000000000000e+00 0.0000000000000000e+00 0.0000000000000000e+00  0.0000000000000000e+00 0.0000000000000000e+00 0.0000000000000000e+00  -9.0444818657693139e-03 2.5348207400419778e-02 0.0000000000000000e+00  -1.6995402761498524e-02 2.1305661476371307e-02 0.0000000000000000e+00  -2.2116690249341001e-02 1.4349330385000818e-02 0.0000000000000000e+00  -2.4682956143544023e-02 7.3813159586471264e-03 0.0000000000000000e+00  -2.5645196729464751e-02 7.4185596178894008e-04 0.0000000000000000e+00  -2.5301635810290175e-02 -5.9093488338810788e-03 0.0000000000000000e+00  -2.3366514296641955e-02 -1.3401694657893457e-02 0.0000000000000000e+00  -1.9322543044328285e-02 -2.2113311847070428e-02 0.0000000000000000e+00  -9.7950458140087758e-03 -2.7661056229440813e-02 0.0000000000000000e+00  0.0000000000000000e+00 0.0000000000000000e+00 0.0000000000000000e+00  0.0000000000000000e+00 0.0000000000000000e+00 0.0000000000000000e+00  -1.5125188314462338e-02 3.7408820714543857e-02 0.0000000000000000e+00  -2.6704966728289092e-02 2.8821071965200059e-02 0.0000000000000000e+00  -3.1829050411353303e-02 1.7577787312843964e-02 0.0000000000000000e+00  -3.3321893130998897e-02 8.5413992186136028e-03 0.0000000000000000e+00  -3.3759066531546401e-02 1.2016691134140341e-03 0.0000000000000000e+00  -3.3893123525882370e-02 -5.9561858843675932e-03 0.0000000000000000e+00  -3.5072485643087431e-02 -1.6828085028795282e-02 0.0000000000000000e+00  -3.1410468732544716e-02 -3.2047725549254696e-02 0.0000000000000000e+00  -1.2477118680556447e-02 -4.6797365580668195e-02 0.0000000000000000e+00  0.0000000000000000e+00 0.0000000000000000e+00 0.0000000000000000e+00  0.0000000000000000e+00 0.0000000000000000e+00 0.0000000000000000e+00  -2.4448931774354542e-02 5.3515404255807281e-02 0.0000000000000000e+00  -4.5381889799847169e-02 3.4690044364746590e-02 0.0000000000000000e+00  -4.8333548177251003e-02 1.7420686031998315e-02 0.0000000000000000e+00  -4.7371229511184589e-02 7.5298346360066310e-03 0.0000000000000000e+00  -4.7101352962454032e-02 8.6073920799988729e-04 0.0000000000000000e+00  -4.8810381554365637e-02 -5.6018567752567656e-03 0.0000000000000000e+00  -5.7028660123344684e-02 -1.4549177034596706e-02 0.0000000000000000e+00  -5.2101666992631052e-02 -2.7297436351461812e-02 0.0000000000000000e+00  -2.7221523227065940e-02 8.7877759848498122e-03 0.0000000000000000e+00  0.0000000000000000e+00 0.0000000000000000e+00 0.0000000000000000e+00  0.0000000000000000e+00 0.0000000000000000e+00 0.0000000000000000e+00  -5.0363996372488626e-03 6.3730964103989929e-02 0.0000000000000000e+00  -2.3933978445796929e-02 2.8545683720259920e-02 0.0000000000000000e+00  -2.7583045911779406e-02 1.3937019837941531e-02 0.0000000000000000e+00  -2.5831836949684592e-02 7.0310970883634537e-03 0.0000000000000000e+00  -2.6777994371612122e-02 3.0514942150368526e-03 0.0000000000000000e+00  -3.3779843164148018e-02 -1.2557219674621304e-03 0.0000000000000000e+00  -4.4109157901030163e-02 7.1035209743962812e-04 0.0000000000000000e+00  5.7999826281382267e-03 4.5314660629963083e-03 0.0000000000000000e+00  -2.8650256459175599e-01 -2.6666007841388917e-01 0.0000000000000000e+00  0.0000000000000000e+00 0.0000000000000000e+00 0.0000000000000000e+00  0.0000000000000000e+00 0.0000000000000000e+00 0.0000000000000000e+00  1.0000000000000000e+00 0.0000000000000000e+00 0.0000000000000000e+00  1.0000000000000000e+00 0.0000000000000000e+00 0.0000000000000000e+00  1.0000000000000000e+00 0.0000000000000000e+00 0.0000000000000000e+00  1.0000000000000000e+00 0.0000000000000000e+00 0.0000000000000000e+00  1.0000000000000000e+00 0.0000000000000000e+00 0.0000000000000000e+00  1.0000000000000000e+00 0.0000000000000000e+00 0.0000000000000000e+00  1.0000000000000000e+00 0.0000000000000000e+00 0.0000000000000000e+00  1.0000000000000000e+00 0.0000000000000000e+00 0.0000000000000000e+00  1.0000000000000000e+00 0.0000000000000000e+00 0.0000000000000000e+00  0.0000000000000000e+00 0.0000000000000000e+00 0.0000000000000000e+00  </DataArray> 
</PointData> 
</Piece>
</UnstructuredGrid>
</VTKFile>