<?xml version="1.0"?>
<VTKFile type="UnstructuredGrid"  version="0.1"  >
<UnstructuredGrid>
<Piece  NumberOfPoints="121" NumberOfCells="200">
<Points>
<DataArray  type="Float64"  NumberOfComponents="3"  format="ascii">0 0 0  0.1 0 0  0.2 0 0  0.3 0 0  0.4 0 0  0.5 0 0  0.6 0 0  0.7 0 0  0.8 0 0  0.9 0 0  1 0 0  0 0.1 0  0.1 0.1 0  0.2 0.1 0  0.3 0.1 0  0.4 0.1 0  0.5 0.1 0  0.6 0.1 0  0.7 0.1 0  0.8 0.1 0  0.9 0.1 0  1 0.1 0  0 0.2 0  0.1 0.2 0  0.2 0.2 0  0.3 0.2 0  0.4 0.2 0  0.5 0.2 0  0.6 0.2 0  0.7 0.2 0  0.8 0.2 0  0.9 0.2 0  1 0.2 0  0 0.3 0  0.1 0.3 0  0.2 0.3 0  0.3 0.3 0  0.4 0.3 0  0.5 0.3 0  0.6 0.3 0  0.7 0.3 0  0.8 0.3 0  0.9 0.3 0  1 0.3 0  0 0.4 0  0.1 0.4 0  0.2 0.4 0  0.3 0.4 0  0.4 0.4 0  0.5 0.4 0  0.6 0.4 0  0.7 0.4 0  0.8 0.4 0  0.9 0.4 0  1 0.4 0  0 0.5 0  0.1 0.5 0  0.2 0.5 0  0.3 0.5 0  0.4 0.5 0  0.5 0.5 0  0.6 0.5 0  0.7 0.5 0  0.8 0.5 0  0.9 0.5 0  1 0.5 0  0 0.6 0  0.1 0.6 0  0.2 0.6 0  0.3 0.6 0  0.4 0.6 0  0.5 0.6 0  0.6 0.6 0  0.7 0.6 0  0.8 0.6 0  0.9 0.6 0  1 0.6 0  0 0.7 0  0.1 0.7 0  0.2 0.7 0  0.3 0.7 0  0.4 0.7 0  0.5 0.7 0  0.6 0.7 0  0.7 0.7 0  0.8 0.7 0  0.9 0.7 0  1 0.7 0  0 0.8 0  0.1 0.8 0  0.2 0.8 0  0.3 0.8 0  0.4 0.8 0  0.5 0.8 0  0.6 0.8 0  0.7 0.8 0  0.8 0.8 0  0.9 0.8 0  1 0.8 0  0 0.9 0  0.1 0.9 0  0.2 0.9 0  0.3 0.9 0  0.4 0.9 0  0.5 0.9 0  0.6 0.9 0  0.7 0.9 0  0.8 0.9 0  0.9 0.9 0  1 0.9 0  0 1 0  0.1 1 0  0.2 1 0  0.3 1 0  0.4 1 0  0.5 1 0  0.6 1 0  0.7 1 0  0.8 1 0  0.9 1 0  1 1 0  </DataArray>
</Points>
<Cells>
<DataArray  type="UInt32"  Name="connectivity"  format="ascii">0 1 12  0 11 12  1 2 13  1 12 13  2 3 14  2 13 14  3 4 15  3 14 15  4 5 16  4 15 16  5 6 17  5 16 17  6 7 18  6 17 18  7 8 19  7 18 19  8 9 20  8 19 20  9 10 21  9 20 21  11 12 23  11 22 23  12 13 24  12 23 24  13 14 25  13 24 25  14 15 26  14 25 26  15 16 27  15 26 27  16 17 28  16 27 28  17 18 29  17 28 29  18 19 30  18 29 30  19 20 31  19 30 31  20 21 32  20 31 32  22 23 34  22 33 34  23 24 35  23 34 35  24 25 36  24 35 36  25 26 37  25 36 37  26 27 38  26 37 38  27 28 39  27 38 39  28 29 40  28 39 40  29 30 41  29 40 41  30 31 42  30 41 42  31 32 43  31 42 43  33 34 45  33 44 45  34 35 46  34 45 46  35 36 47  35 46 47  36 37 48  36 47 48  37 38 49  37 48 49  38 39 50  38 49 50  39 40 51  39 50 51  40 41 52  40 51 52  41 42 53  41 52 53  42 43 54  42 53 54  44 45 56  44 55 56  45 46 57  45 56 57  46 47 58  46 57 58  47 48 59  47 58 59  48 49 60  48 59 60  49 50 61  49 60 61  50 51 62  50 61 62  51 52 63  51 62 63  52 53 64  52 63 64  53 54 65  53 64 65  55 56 67  55 66 67  56 57 68  56 67 68  57 58 69  57 68 69  58 59 70  58 69 70  59 60 71  59 70 71  60 61 72  60 71 72  61 62 73  61 72 73  62 63 74  62 73 74  63 64 75  63 74 75  64 65 76  64 75 76  66 67 78  66 77 78  67 68 79  67 78 79  68 69 80  68 79 80  69 70 81  69 80 81  70 71 82  70 81 82  71 72 83  71 82 83  72 73 84  72 83 84  73 74 85  73 84 85  74 75 86  74 85 86  75 76 87  75 86 87  77 78 89  77 88 89  78 79 90  78 89 90  79 80 91  79 90 91  80 81 92  80 91 92  81 82 93  81 92 93  82 83 94  82 93 94  83 84 95  83 94 95  84 85 96  84 95 96  85 86 97  85 96 97  86 87 98  86 97 98  88 89 100  88 99 100  89 90 101  89 100 101  90 91 102  90 101 102  91 92 103  91 102 103  92 93 104  92 103 104  93 94 105  93 104 105  94 95 106  94 105 106  95 96 107  95 106 107  96 97 108  96 107 108  97 98 109  97 108 109  99 100 111  99 110 111  100 101 112  100 111 112  101 102 113  101 112 113  102 103 114  102 113 114  103 104 115  103 114 115  104 105 116  104 115 116  105 106 117  105 116 117  106 107 118  106 117 118  107 108 119  107 118 119  108 109 120  108 119 120  </DataArray>
<DataArray  type="UInt32"  Name="offsets"  format="ascii">3 6 9 12 15 18 21 24 27 30 33 36 39 42 45 48 51 54 57 60 63 66 69 72 75 78 81 84 87 90 93 96 99 102 105 108 111 114 117 120 123 126 129 132 135 138 141 144 147 150 153 156 159 162 165 168 171 174 177 180 183 186 189 192 195 198 201 204 207 210 213 216 219 222 225 228 231 234 237 240 243 246 249 252 255 258 261 264 267 270 273 276 279 282 285 288 291 294 297 300 303 306 309 312 315 318 321 324 327 330 333 336 339 342 345 348 351 354 357 360 363 366 369 372 375 378 381 384 387 390 393 396 399 402 405 408 411 414 417 420 423 426 429 432 435 438 441 444 447 450 453 456 459 462 465 468 471 474 477 480 483 486 489 492 495 498 501 504 507 510 513 516 519 522 525 528 531 534 537 540 543 546 549 552 555 558 561 564 567 570 573 576 579 582 585 588 591 594 597 600 </DataArray>
<DataArray  type="UInt8"  Name="types"  format="ascii">5 5 5 5 5 5 5 5 5 5 5 5 5 5 5 5 5 5 5 5 5 5 5 5 5 5 5 5 5 5 5 5 5 5 5 5 5 5 5 5 5 5 5 5 5 5 5 5 5 5 5 5 5 5 5 5 5 5 5 5 5 5 5 5 5 5 5 5 5 5 5 5 5 5 5 5 5 5 5 5 5 5 5 5 5 5 5 5 5 5 5 5 5 5 5 5 5 5 5 5 5 5 5 5 5 5 5 5 5 5 5 5 5 5 5 5 5 5 5 5 5 5 5 5 5 5 5 5 5 5 5 5 5 5 5 5 5 5 5 5 5 5 5 5 5 5 5 5 5 5 5 5 5 5 5 5 5 5 5 5 5 5 5 5 5 5 5 5 5 5 5 5 5 5 5 5 5 5 5 5 5 5 5 5 5 5 5 5 5 5 5 5 5 5 5 5 5 5 5 5 </DataArray>
</Cells>
<PointData  Vectors="f_22-0"> 
<DataArray  type="Float64"  Name="f_22-0"  NumberOfComponents="3" format="ascii">0.0000000000000000e+00 0.0000000000000000e+00 0.0000000000000000e+00  -1.1729663276993599e-06 2.3863845698455335e-05 0.0000000000000000e+00  -2.2353847292348257e-06 2.4402797139839483e-05 0.0000000000000000e+00  -3.0844836813796061e-06 1.8713483684010564e-05 0.0000000000000000e+00  -3.6161791942505484e-06 1.0302758460431661e-05 0.0000000000000000e+00  -3.7657060050166818e-06 5.2693324282476887e-07 0.0000000000000000e+00  -3.5049442147729254e-06 -9.4754939842494727e-06 0.0000000000000000e+00  -2.8569186683352142e-06 -1.8469740930605961e-05 0.0000000000000000e+00  -1.9074017164926293e-06 -2.4771087498476709e-05 0.0000000000000000e+00  -1.0312370448399349e-06 -2.4546030328420902e-05 0.0000000000000000e+00  0.0000000000000000e+00 0.0000000000000000e+00 0.0000000000000000e+00  0.0000000000000000e+00 0.0000000000000000e+00 0.0000000000000000e+00  -2.2434060506409653e-03 2.1609901913087824e-03 0.0000000000000000e+00  -4.6188791192821495e-03 1.8571519509623254e-03 0.0000000000000000e+00  -6.5191992200663894e-03 1.3519416563136338e-03 0.0000000000000000e+00  -7.7333363080866599e-03 7.1468084887254233e-04 0.0000000000000000e+00  -8.1429034832077168e-03 3.7536396623206439e-06 0.0000000000000000e+00  -7.7031928981917764e-03 -7.1816304651509360e-04 0.0000000000000000e+00  -6.4464288789044030e-03 -1.3857344816781856e-03 0.0000000000000000e+00  -4.4964887626739742e-03 -1.9197950201223460e-03 0.0000000000000000e+00  -2.0426009347506279e-03 -2.0102687888889355e-03 0.0000000000000000e+00  0.0000000000000000e+00 0.0000000000000000e+00 0.0000000000000000e+00  0.0000000000000000e+00 0.0000000000000000e+00 0.0000000000000000e+00  -2.5934484003062360e-03 4.8744687506199601e-03 0.0000000000000000e+00  -5.3981960298790767e-03 4.2781768246862193e-03 0.0000000000000000e+00  -7.6764041011947335e-03 3.1131004921974284e-03 0.0000000000000000e+00  -9.1514663630171290e-03 1.6550760347521188e-03 0.0000000000000000e+00  -9.6906718488551230e-03 3.4708743274136040e-05 0.0000000000000000e+00  -9.2379385159381266e-03 -1.6134994072301212e-03 0.0000000000000000e+00  -7.8086837941816287e-03 -3.1473584255315877e-03 0.0000000000000000e+00  -5.5228469430617759e-03 -4.3927842086569817e-03 0.0000000000000000e+00  -2.5893714520179001e-03 -4.7758449716211390e-03 0.0000000000000000e+00  0.0000000000000000e+00 0.0000000000000000e+00 0.0000000000000000e+00  0.0000000000000000e+00 0.0000000000000000e+00 0.0000000000000000e+00  -3.2319335563616943e-03 8.1323244580975354e-03 0.0000000000000000e+00  -6.6577717436854334e-03 7.1707319381211195e-03 0.0000000000000000e+00  -9.4131439709885210e-03 5.2010621447679322e-03 0.0000000000000000e+00  -1.1181476610884552e-02 2.7738166222406740e-03 0.0000000000000000e+00  -1.1844530235610048e-02 1.0223757631487364e-04 0.0000000000000000e+00  -1.1349279199708307e-02 -2.6262376315913656e-03 0.0000000000000000e+00  -9.6769650014806342e-03 -5.2109103770247049e-03 0.0000000000000000e+00  -6.9086496396483154e-03 -7.3672923387354738e-03 0.0000000000000000e+00  -3.2370720563367509e-03 -8.1248030129492926e-03 0.0000000000000000e+00  0.0000000000000000e+00 0.0000000000000000e+00 0.0000000000000000e+00  0.0000000000000000e+00 0.0000000000000000e+00 0.0000000000000000e+00  -4.2862394862527436e-03 1.2299095830729932e-02 0.0000000000000000e+00  -8.7104355004076449e-03 1.0793415055048701e-02 0.0000000000000000e+00  -1.2171823053281549e-02 7.7605339985474036e-03 0.0000000000000000e+00  -1.4336270954506068e-02 4.1382175698847726e-03 0.0000000000000000e+00  -1.5166998239698953e-02 2.3068765549530862e-04 0.0000000000000000e+00  -1.4653114370122027e-02 -3.7816002603480005e-03 0.0000000000000000e+00  -1.2694877504236014e-02 -7.6966854015147407e-03 0.0000000000000000e+00  -9.2205296034606442e-03 -1.1124592714426517e-02 0.0000000000000000e+00  -4.3400948738919034e-03 -1.2481498796872881e-02 0.0000000000000000e+00  0.0000000000000000e+00 0.0000000000000000e+00 0.0000000000000000e+00  0.0000000000000000e+00 0.0000000000000000e+00 0.0000000000000000e+00  -6.0130857242402897e-03 1.7883366474659358e-02 0.0000000000000000e+00  -1.1918838273614826e-02 1.5468008620412839e-02 0.0000000000000000e+00  -1.6266832216031337e-02 1.0902700419839857e-02 0.0000000000000000e+00  -1.8820704423178281e-02 5.7660994336748974e-03 0.0000000000000000e+00  -1.9825824716410565e-02 4.4639051411064697e-04 0.0000000000000000e+00  -1.9381441414384321e-02 -5.0183743211019019e-03 0.0000000000000000e+00  -1.7208320665778674e-02 -1.0607837866200700e-02 0.0000000000000000e+00  -1.2989362947851239e-02 -1.5910364633354594e-02 0.0000000000000000e+00  -6.2922706344945003e-03 -1.8521609460381162e-02 0.0000000000000000e+00  0.0000000000000000e+00 0.0000000000000000e+00 0.0000000000000000e+00  0.0000000000000000e+00 0.0000000000000000e+00 0.0000000000000000e+00  -9.1139922749222547e-03 2.5676353276710234e-02 0.0000000000000000e+00  -1.7156633926661773e-02 2.1560423382555559e-02 0.0000000000000000e+00  -2.2337942538833186e-02 1.4535871523354862e-02 0.0000000000000000e+00  -2.4941144952757073e-02 7.5000284857833681e-03 0.0000000000000000e+00  -2.5932785286068759e-02 7.9110973630328344e-04 0.0000000000000000e+00  -2.5599029571913096e-02 -5.9348629300183470e-03 0.0000000000000000e+00  -2.3671062903773143e-02 -1.3511978932112242e-02 0.0000000000000000e+00  -1.9647298356300046e-02 -2.2355585732730891e-02 0.0000000000000000e+00  -9.9797184172359336e-03 -2.8133147564172234e-02 0.0000000000000000e+00  0.0000000000000000e+00 0.0000000000000000e+00 0.0000000000000000e+00  0.0000000000000000e+00 0.0000000000000000e+00 0.0000000000000000e+00  -1.5268368260637794e-02 3.7872950015643482e-02 0.0000000000000000e+00  -2.6939355746089532e-02 2.9162265855598488e-02 0.0000000000000000e+00  -3.2097553037495771e-02 1.7816567432502695e-02 0.0000000000000000e+00  -3.3605686084943777e-02 8.6955231071328843e-03 0.0000000000000000e+00  -3.4058693533569023e-02 1.2880119260860251e-03 0.0000000000000000e+00  -3.4200391416843841e-02 -5.9132278186502883e-03 0.0000000000000000e+00  -3.5451495640966529e-02 -1.7002571854433012e-02 0.0000000000000000e+00  -3.1964903850209843e-02 -3.2855315939213321e-02 0.0000000000000000e+00  -1.2663711886515640e-02 -4.8067054464651343e-02 0.0000000000000000e+00  0.0000000000000000e+00 0.0000000000000000e+00 0.0000000000000000e+00  0.0000000000000000e+00 0.0000000000000000e+00 0.0000000000000000e+00  -2.5069862044748360e-02 5.4159550063290353e-02 0.0000000000000000e+00  -4.5887168824084563e-02 3.5110415436917806e-02 0.0000000000000000e+00  -4.8786712437140410e-02 1.7682781117137565e-02 0.0000000000000000e+00  -4.7797384229875284e-02 7.6965178476940876e-03 0.0000000000000000e+00  -4.7494829902761972e-02 9.6747818177689055e-04 0.0000000000000000e+00  -4.9141961849437088e-02 -5.5316253803222989e-03 0.0000000000000000e+00  -5.7991238411148630e-02 -1.4367485936308827e-02 0.0000000000000000e+00  -5.1644919403107371e-02 -2.6805117568369074e-02 0.0000000000000000e+00  -2.7053126172623704e-02 1.0827108594456236e-02 0.0000000000000000e+00  0.0000000000000000e+00 0.0000000000000000e+00 0.0000000000000000e+00  0.0000000000000000e+00 0.0000000000000000e+00 0.0000000000000000e+00  -5.6161298026252216e-03 6.3986947900839072e-02 0.0000000000000000e+00  -2.5620408683318430e-02 2.8800152221961976e-02 0.0000000000000000e+00  -2.9717916096057714e-02 1.4055770353587925e-02 0.0000000000000000e+00  -2.8133466696660583e-02 7.0882955595359702e-03 0.0000000000000000e+00  -2.9118668206249976e-02 3.0720351219309435e-03 0.0000000000000000e+00  -3.6209837612286890e-02 -1.2971508603316121e-03 0.0000000000000000e+00  -4.6894130498805246e-02 8.7821167973340926e-04 0.0000000000000000e+00  5.5205991065507805e-03 5.6548339504384646e-03 0.0000000000000000e+00  -2.9082652346996857e-01 -2.7436906144310680e-01 0.0000000000000000e+00  0.0000000000000000e+00 0.0000000000000000e+00 0.0000000000000000e+00  0.0000000000000000e+00 0.0000000000000000e+00 0.0000000000000000e+00  1.0000000000000000e+00 0.0000000000000000e+00 0.0000000000000000e+00  1.0000000000000000e+00 0.0000000000000000e+00 0.0000000000000000e+00  1.0000000000000000e+00 0.0000000000000000e+00 0.0000000000000000e+00  1.0000000000000000e+00 0.0000000000000000e+00 0.0000000000000000e+00  1.0000000000000000e+00 0.0000000000000000e+00 0.0000000000000000e+00  1.0000000000000000e+00 0.0000000000000000e+00 0.0000000000000000e+00  1.0000000000000000e+00 0.0000000000000000e+00 0.0000000000000000e+00  1.0000000000000000e+00 0.0000000000000000e+00 0.0000000000000000e+00  1.0000000000000000e+00 0.0000000000000000e+00 0.0000000000000000e+00  0.0000000000000000e+00 0.0000000000000000e+00 0.0000000000000000e+00  </DataArray> 
</PointData> 
</Piece>
</UnstructuredGrid>
</VTKFile>