<?xml version="1.0"?>
<VTKFile type="UnstructuredGrid"  version="0.1"  >
<UnstructuredGrid>
<Piece  NumberOfPoints="121" NumberOfCells="200">
<Points>
<DataArray  type="Float64"  NumberOfComponents="3"  format="ascii">0 0 0  0.1 0 0  0.2 0 0  0.3 0 0  0.4 0 0  0.5 0 0  0.6 0 0  0.7 0 0  0.8 0 0  0.9 0 0  1 0 0  0 0.1 0  0.1 0.1 0  0.2 0.1 0  0.3 0.1 0  0.4 0.1 0  0.5 0.1 0  0.6 0.1 0  0.7 0.1 0  0.8 0.1 0  0.9 0.1 0  1 0.1 0  0 0.2 0  0.1 0.2 0  0.2 0.2 0  0.3 0.2 0  0.4 0.2 0  0.5 0.2 0  0.6 0.2 0  0.7 0.2 0  0.8 0.2 0  0.9 0.2 0  1 0.2 0  0 0.3 0  0.1 0.3 0  0.2 0.3 0  0.3 0.3 0  0.4 0.3 0  0.5 0.3 0  0.6 0.3 0  0.7 0.3 0  0.8 0.3 0  0.9 0.3 0  1 0.3 0  0 0.4 0  0.1 0.4 0  0.2 0.4 0  0.3 0.4 0  0.4 0.4 0  0.5 0.4 0  0.6 0.4 0  0.7 0.4 0  0.8 0.4 0  0.9 0.4 0  1 0.4 0  0 0.5 0  0.1 0.5 0  0.2 0.5 0  0.3 0.5 0  0.4 0.5 0  0.5 0.5 0  0.6 0.5 0  0.7 0.5 0  0.8 0.5 0  0.9 0.5 0  1 0.5 0  0 0.6 0  0.1 0.6 0  0.2 0.6 0  0.3 0.6 0  0.4 0.6 0  0.5 0.6 0  0.6 0.6 0  0.7 0.6 0  0.8 0.6 0  0.9 0.6 0  1 0.6 0  0 0.7 0  0.1 0.7 0  0.2 0.7 0  0.3 0.7 0  0.4 0.7 0  0.5 0.7 0  0.6 0.7 0  0.7 0.7 0  0.8 0.7 0  0.9 0.7 0  1 0.7 0  0 0.8 0  0.1 0.8 0  0.2 0.8 0  0.3 0.8 0  0.4 0.8 0  0.5 0.8 0  0.6 0.8 0  0.7 0.8 0  0.8 0.8 0  0.9 0.8 0  1 0.8 0  0 0.9 0  0.1 0.9 0  0.2 0.9 0  0.3 0.9 0  0.4 0.9 0  0.5 0.9 0  0.6 0.9 0  0.7 0.9 0  0.8 0.9 0  0.9 0.9 0  1 0.9 0  0 1 0  0.1 1 0  0.2 1 0  0.3 1 0  0.4 1 0  0.5 1 0  0.6 1 0  0.7 1 0  0.8 1 0  0.9 1 0  1 1 0  </DataArray>
</Points>
<Cells>
<DataArray  type="UInt32"  Name="connectivity"  format="ascii">0 1 12  0 11 12  1 2 13  1 12 13  2 3 14  2 13 14  3 4 15  3 14 15  4 5 16  4 15 16  5 6 17  5 16 17  6 7 18  6 17 18  7 8 19  7 18 19  8 9 20  8 19 20  9 10 21  9 20 21  11 12 23  11 22 23  12 13 24  12 23 24  13 14 25  13 24 25  14 15 26  14 25 26  15 16 27  15 26 27  16 17 28  16 27 28  17 18 29  17 28 29  18 19 30  18 29 30  19 20 31  19 30 31  20 21 32  20 31 32  22 23 34  22 33 34  23 24 35  23 34 35  24 25 36  24 35 36  25 26 37  25 36 37  26 27 38  26 37 38  27 28 39  27 38 39  28 29 40  28 39 40  29 30 41  29 40 41  30 31 42  30 41 42  31 32 43  31 42 43  33 34 45  33 44 45  34 35 46  34 45 46  35 36 47  35 46 47  36 37 48  36 47 48  37 38 49  37 48 49  38 39 50  38 49 50  39 40 51  39 50 51  40 41 52  40 51 52  41 42 53  41 52 53  42 43 54  42 53 54  44 45 56  44 55 56  45 46 57  45 56 57  46 47 58  46 57 58  47 48 59  47 58 59  48 49 60  48 59 60  49 50 61  49 60 61  50 51 62  50 61 62  51 52 63  51 62 63  52 53 64  52 63 64  53 54 65  53 64 65  55 56 67  55 66 67  56 57 68  56 67 68  57 58 69  57 68 69  58 59 70  58 69 70  59 60 71  59 70 71  60 61 72  60 71 72  61 62 73  61 72 73  62 63 74  62 73 74  63 64 75  63 74 75  64 65 76  64 75 76  66 67 78  66 77 78  67 68 79  67 78 79  68 69 80  68 79 80  69 70 81  69 80 81  70 71 82  70 81 82  71 72 83  71 82 83  72 73 84  72 83 84  73 74 85  73 84 85  74 75 86  74 85 86  75 76 87  75 86 87  77 78 89  77 88 89  78 79 90  78 89 90  79 80 91  79 90 91  80 81 92  80 91 92  81 82 93  81 92 93  82 83 94  82 93 94  83 84 95  83 94 95  84 85 96  84 95 96  85 86 97  85 96 97  86 87 98  86 97 98  88 89 100  88 99 100  89 90 101  89 100 101  90 91 102  90 101 102  91 92 103  91 102 103  92 93 104  92 103 104  93 94 105  93 104 105  94 95 106  94 105 106  95 96 107  95 106 107  96 97 108  96 107 108  97 98 109  97 108 109  99 100 111  99 110 111  100 101 112  100 111 112  101 102 113  101 112 113  102 103 114  102 113 114  103 104 115  103 114 115  104 105 116  104 115 116  105 106 117  105 116 117  106 107 118  106 117 118  107 108 119  107 118 119  108 109 120  108 119 120  </DataArray>
<DataArray  type="UInt32"  Name="offsets"  format="ascii">3 6 9 12 15 18 21 24 27 30 33 36 39 42 45 48 51 54 57 60 63 66 69 72 75 78 81 84 87 90 93 96 99 102 105 108 111 114 117 120 123 126 129 132 135 138 141 144 147 150 153 156 159 162 165 168 171 174 177 180 183 186 189 192 195 198 201 204 207 210 213 216 219 222 225 228 231 234 237 240 243 246 249 252 255 258 261 264 267 270 273 276 279 282 285 288 291 294 297 300 303 306 309 312 315 318 321 324 327 330 333 336 339 342 345 348 351 354 357 360 363 366 369 372 375 378 381 384 387 390 393 396 399 402 405 408 411 414 417 420 423 426 429 432 435 438 441 444 447 450 453 456 459 462 465 468 471 474 477 480 483 486 489 492 495 498 501 504 507 510 513 516 519 522 525 528 531 534 537 540 543 546 549 552 555 558 561 564 567 570 573 576 579 582 585 588 591 594 597 600 </DataArray>
<DataArray  type="UInt8"  Name="types"  format="ascii">5 5 5 5 5 5 5 5 5 5 5 5 5 5 5 5 5 5 5 5 5 5 5 5 5 5 5 5 5 5 5 5 5 5 5 5 5 5 5 5 5 5 5 5 5 5 5 5 5 5 5 5 5 5 5 5 5 5 5 5 5 5 5 5 5 5 5 5 5 5 5 5 5 5 5 5 5 5 5 5 5 5 5 5 5 5 5 5 5 5 5 5 5 5 5 5 5 5 5 5 5 5 5 5 5 5 5 5 5 5 5 5 5 5 5 5 5 5 5 5 5 5 5 5 5 5 5 5 5 5 5 5 5 5 5 5 5 5 5 5 5 5 5 5 5 5 5 5 5 5 5 5 5 5 5 5 5 5 5 5 5 5 5 5 5 5 5 5 5 5 5 5 5 5 5 5 5 5 5 5 5 5 5 5 5 5 5 5 5 5 5 5 5 5 5 5 5 5 5 5 </DataArray>
</Cells>
<PointData  Vectors="f_22-0"> 
<DataArray  type="Float64"  Name="f_22-0"  NumberOfComponents="3" format="ascii">0.0000000000000000e+00 0.0000000000000000e+00 0.0000000000000000e+00  -1.0711749830633094e-06 2.0619455113798512e-05 0.0000000000000000e+00  -2.1623446894074667e-06 2.1396402921646266e-05 0.0000000000000000e+00  -3.0971432566570877e-06 1.6821848847521580e-05 0.0000000000000000e+00  -3.7390151581318981e-06 9.7404004054307930e-06 0.0000000000000000e+00  -3.9933260738018391e-06 1.1950860931390960e-06 0.0000000000000000e+00  -3.7977614019805062e-06 -7.8568313700780854e-06 0.0000000000000000e+00  -3.1490013174102535e-06 -1.6243166866473754e-05 0.0000000000000000e+00  -2.1144886769879456e-06 -2.2250406856627160e-05 0.0000000000000000e+00  -1.1402128154810293e-06 -2.2224778649329349e-05 0.0000000000000000e+00  0.0000000000000000e+00 0.0000000000000000e+00 0.0000000000000000e+00  0.0000000000000000e+00 0.0000000000000000e+00 0.0000000000000000e+00  -2.8890881907258285e-03 2.7814344570098134e-03 0.0000000000000000e+00  -6.3398345951538281e-03 2.4264940161491453e-03 0.0000000000000000e+00  -9.1205430551073545e-03 1.8202002092581021e-03 0.0000000000000000e+00  -1.0958237609484124e-02 1.0257991998355838e-03 0.0000000000000000e+00  -1.1658436520802897e-02 1.0704154159946167e-04 0.0000000000000000e+00  -1.1121709538056598e-02 -8.6130465700962652e-04 0.0000000000000000e+00  -9.3544396582136771e-03 -1.7846016822218055e-03 0.0000000000000000e+00  -6.5185358438657609e-03 -2.5556092253761647e-03 0.0000000000000000e+00  -2.8910646962854673e-03 -2.8403702673053853e-03 0.0000000000000000e+00  0.0000000000000000e+00 0.0000000000000000e+00 0.0000000000000000e+00  0.0000000000000000e+00 0.0000000000000000e+00 0.0000000000000000e+00  -3.2796824105464188e-03 6.6455210185528387e-03 0.0000000000000000e+00  -7.1781170666817343e-03 5.8060232919597329e-03 0.0000000000000000e+00  -1.0391183822439540e-02 4.3466137688389752e-03 0.0000000000000000e+00  -1.2553269029808417e-02 2.4525447668623571e-03 0.0000000000000000e+00  -1.3456120043400977e-02 2.7384964639776105e-04 0.0000000000000000e+00  -1.2969791335342606e-02 -2.0268161293337059e-03 0.0000000000000000e+00  -1.1043110809568941e-02 -4.2411386973188652e-03 0.0000000000000000e+00  -7.8034096031919988e-03 -6.0991828233462331e-03 0.0000000000000000e+00  -3.5606558622823295e-03 -6.9902773315828641e-03 0.0000000000000000e+00  0.0000000000000000e+00 0.0000000000000000e+00 0.0000000000000000e+00  0.0000000000000000e+00 0.0000000000000000e+00 0.0000000000000000e+00  -4.0304394519824240e-03 1.1191242026396500e-02 0.0000000000000000e+00  -8.7697644798331014e-03 9.8133051291056234e-03 0.0000000000000000e+00  -1.2640994997125149e-02 7.3342159422502499e-03 0.0000000000000000e+00  -1.5261710234981402e-02 4.1818666474566467e-03 0.0000000000000000e+00  -1.6435065048763735e-02 5.8189818791034046e-04 0.0000000000000000e+00  -1.6009558427083050e-02 -3.2555022918952970e-03 0.0000000000000000e+00  -1.3842411511948635e-02 -7.0525247890902707e-03 0.0000000000000000e+00  -9.9364862871468944e-03 -1.0372694727218018e-02 0.0000000000000000e+00  -4.5488090205179311e-03 -1.2093697652997814e-02 0.0000000000000000e+00  0.0000000000000000e+00 0.0000000000000000e+00 0.0000000000000000e+00  0.0000000000000000e+00 0.0000000000000000e+00 0.0000000000000000e+00  -5.2657923033598434e-03 1.6934250063992587e-02 0.0000000000000000e+00  -1.1333559614156080e-02 1.4791040963169497e-02 0.0000000000000000e+00  -1.6181066044815850e-02 1.1003810528739518e-02 0.0000000000000000e+00  -1.9431016535476766e-02 6.3628866038567483e-03 0.0000000000000000e+00  -2.1004056183422212e-02 1.1704726146765929e-03 0.0000000000000000e+00  -2.0829551452727878e-02 -4.4549247238301467e-03 0.0000000000000000e+00  -1.8529424713365085e-02 -1.0387973827700625e-02 0.0000000000000000e+00  -1.3671259923630082e-02 -1.5923826469565711e-02 0.0000000000000000e+00  -6.2603293052659933e-03 -1.8972203849042066e-02 0.0000000000000000e+00  0.0000000000000000e+00 0.0000000000000000e+00 0.0000000000000000e+00  0.0000000000000000e+00 0.0000000000000000e+00 0.0000000000000000e+00  -7.2609834263552804e-03 2.4545434086204434e-02 0.0000000000000000e+00  -1.5281872308191074e-02 2.1143264539279769e-02 0.0000000000000000e+00  -2.1334216524821641e-02 1.5505430047394485e-02 0.0000000000000000e+00  -2.5215032202386529e-02 9.0884662131387982e-03 0.0000000000000000e+00  -2.7358609243071184e-02 2.1504570462730138e-03 0.0000000000000000e+00  -2.7986433923918225e-02 -5.6223702705188163e-03 0.0000000000000000e+00  -2.5783413204063594e-02 -1.4422781460931648e-02 0.0000000000000000e+00  -1.9705552745820507e-02 -2.3078994023582353e-02 0.0000000000000000e+00  -9.4680877514276857e-03 -2.8021736088790036e-02 0.0000000000000000e+00  0.0000000000000000e+00 0.0000000000000000e+00 0.0000000000000000e+00  0.0000000000000000e+00 0.0000000000000000e+00 0.0000000000000000e+00  -1.0763313844908874e-02 3.5050770503024055e-02 0.0000000000000000e+00  -2.1504524752044337e-02 2.9260882815484598e-02 0.0000000000000000e+00  -2.8606093909309866e-02 2.0700902809549813e-02 0.0000000000000000e+00  -3.2612070480789332e-02 1.2119100186405756e-02 0.0000000000000000e+00  -3.5416393208211834e-02 3.5812429247102239e-03 0.0000000000000000e+00  -3.6635191265011684e-02 -4.8405062107718718e-03 0.0000000000000000e+00  -3.5517013352908869e-02 -1.2976819268555454e-02 0.0000000000000000e+00  -3.2396729961077265e-02 -2.4756455038264246e-02 0.0000000000000000e+00  -1.7930787833964155e-02 -4.4049074247158350e-02 0.0000000000000000e+00  0.0000000000000000e+00 0.0000000000000000e+00 0.0000000000000000e+00  0.0000000000000000e+00 0.0000000000000000e+00 0.0000000000000000e+00  -1.8236202609132265e-02 5.0778709352960562e-02 0.0000000000000000e+00  -3.2566479342009701e-02 3.9083986149449343e-02 0.0000000000000000e+00  -3.8885424453631974e-02 2.5602933379169062e-02 0.0000000000000000e+00  -4.1414747124639807e-02 1.4793230646699677e-02 0.0000000000000000e+00  -4.4079465416323772e-02 6.0275551553418145e-03 0.0000000000000000e+00  -4.2261043402881497e-02 -1.4705409343696591e-03 0.0000000000000000e+00  -5.6374380293761114e-02 -2.1819594845741214e-02 0.0000000000000000e+00  -6.6701240423039668e-02 -7.7542778577492061e-02 0.0000000000000000e+00  -2.0870337827141271e-02 -1.0410204015588800e-01 0.0000000000000000e+00  0.0000000000000000e+00 0.0000000000000000e+00 0.0000000000000000e+00  0.0000000000000000e+00 0.0000000000000000e+00 0.0000000000000000e+00  -4.2369179018363158e-02 7.1055531608411410e-02 0.0000000000000000e+00  -5.4063483951859038e-02 4.6692633547836697e-02 0.0000000000000000e+00  -5.4521006298631089e-02 2.7011777182775559e-02 0.0000000000000000e+00  -5.3225574613515556e-02 1.5292116366596387e-02 0.0000000000000000e+00  -5.2767506746081175e-02 7.6906298986061201e-03 0.0000000000000000e+00  -4.8523037795208467e-02 9.4460228498135341e-04 0.0000000000000000e+00  -9.5979755820903165e-02 3.8045084285485693e-03 0.0000000000000000e+00  -5.0329141737132085e-02 6.5753042697422159e-02 0.0000000000000000e+00  -9.1461975965111339e-02 -2.3576210191440784e-02 0.0000000000000000e+00  0.0000000000000000e+00 0.0000000000000000e+00 0.0000000000000000e+00  0.0000000000000000e+00 0.0000000000000000e+00 0.0000000000000000e+00  -3.5382854460057178e-02 6.9856284120525441e-02 0.0000000000000000e+00  -4.9427160229959487e-02 3.8068613140570751e-02 0.0000000000000000e+00  -5.6878946869571650e-02 2.0623253141541488e-02 0.0000000000000000e+00  -5.8517022557041824e-02 1.1898015773244452e-02 0.0000000000000000e+00  -5.9631149124038413e-02 6.8837645986455937e-03 0.0000000000000000e+00  -6.3754400566231731e-02 2.9487558153646243e-03 0.0000000000000000e+00  -7.1533689666807773e-02 9.9372762675006658e-03 0.0000000000000000e+00  2.1409372521306591e-02 5.3073544879505649e-02 0.0000000000000000e+00  -2.7734762560323367e-01 -4.2704387988486053e-01 0.0000000000000000e+00  0.0000000000000000e+00 0.0000000000000000e+00 0.0000000000000000e+00  0.0000000000000000e+00 0.0000000000000000e+00 0.0000000000000000e+00  1.0000000000000000e+00 0.0000000000000000e+00 0.0000000000000000e+00  1.0000000000000000e+00 0.0000000000000000e+00 0.0000000000000000e+00  1.0000000000000000e+00 0.0000000000000000e+00 0.0000000000000000e+00  1.0000000000000000e+00 0.0000000000000000e+00 0.0000000000000000e+00  1.0000000000000000e+00 0.0000000000000000e+00 0.0000000000000000e+00  1.0000000000000000e+00 0.0000000000000000e+00 0.0000000000000000e+00  1.0000000000000000e+00 0.0000000000000000e+00 0.0000000000000000e+00  1.0000000000000000e+00 0.0000000000000000e+00 0.0000000000000000e+00  1.0000000000000000e+00 0.0000000000000000e+00 0.0000000000000000e+00  0.0000000000000000e+00 0.0000000000000000e+00 0.0000000000000000e+00  </DataArray> 
</PointData> 
</Piece>
</UnstructuredGrid>
</VTKFile>