<?xml version="1.0"?>
<VTKFile type="UnstructuredGrid"  version="0.1"  >
<UnstructuredGrid>
<Piece  NumberOfPoints="121" NumberOfCells="200">
<Points>
<DataArray  type="Float64"  NumberOfComponents="3"  format="ascii">0 0 0  0.1 0 0  0.2 0 0  0.3 0 0  0.4 0 0  0.5 0 0  0.6 0 0  0.7 0 0  0.8 0 0  0.9 0 0  1 0 0  0 0.1 0  0.1 0.1 0  0.2 0.1 0  0.3 0.1 0  0.4 0.1 0  0.5 0.1 0  0.6 0.1 0  0.7 0.1 0  0.8 0.1 0  0.9 0.1 0  1 0.1 0  0 0.2 0  0.1 0.2 0  0.2 0.2 0  0.3 0.2 0  0.4 0.2 0  0.5 0.2 0  0.6 0.2 0  0.7 0.2 0  0.8 0.2 0  0.9 0.2 0  1 0.2 0  0 0.3 0  0.1 0.3 0  0.2 0.3 0  0.3 0.3 0  0.4 0.3 0  0.5 0.3 0  0.6 0.3 0  0.7 0.3 0  0.8 0.3 0  0.9 0.3 0  1 0.3 0  0 0.4 0  0.1 0.4 0  0.2 0.4 0  0.3 0.4 0  0.4 0.4 0  0.5 0.4 0  0.6 0.4 0  0.7 0.4 0  0.8 0.4 0  0.9 0.4 0  1 0.4 0  0 0.5 0  0.1 0.5 0  0.2 0.5 0  0.3 0.5 0  0.4 0.5 0  0.5 0.5 0  0.6 0.5 0  0.7 0.5 0  0.8 0.5 0  0.9 0.5 0  1 0.5 0  0 0.6 0  0.1 0.6 0  0.2 0.6 0  0.3 0.6 0  0.4 0.6 0  0.5 0.6 0  0.6 0.6 0  0.7 0.6 0  0.8 0.6 0  0.9 0.6 0  1 0.6 0  0 0.7 0  0.1 0.7 0  0.2 0.7 0  0.3 0.7 0  0.4 0.7 0  0.5 0.7 0  0.6 0.7 0  0.7 0.7 0  0.8 0.7 0  0.9 0.7 0  1 0.7 0  0 0.8 0  0.1 0.8 0  0.2 0.8 0  0.3 0.8 0  0.4 0.8 0  0.5 0.8 0  0.6 0.8 0  0.7 0.8 0  0.8 0.8 0  0.9 0.8 0  1 0.8 0  0 0.9 0  0.1 0.9 0  0.2 0.9 0  0.3 0.9 0  0.4 0.9 0  0.5 0.9 0  0.6 0.9 0  0.7 0.9 0  0.8 0.9 0  0.9 0.9 0  1 0.9 0  0 1 0  0.1 1 0  0.2 1 0  0.3 1 0  0.4 1 0  0.5 1 0  0.6 1 0  0.7 1 0  0.8 1 0  0.9 1 0  1 1 0  </DataArray>
</Points>
<Cells>
<DataArray  type="UInt32"  Name="connectivity"  format="ascii">0 1 12  0 11 12  1 2 13  1 12 13  2 3 14  2 13 14  3 4 15  3 14 15  4 5 16  4 15 16  5 6 17  5 16 17  6 7 18  6 17 18  7 8 19  7 18 19  8 9 20  8 19 20  9 10 21  9 20 21  11 12 23  11 22 23  12 13 24  12 23 24  13 14 25  13 24 25  14 15 26  14 25 26  15 16 27  15 26 27  16 17 28  16 27 28  17 18 29  17 28 29  18 19 30  18 29 30  19 20 31  19 30 31  20 21 32  20 31 32  22 23 34  22 33 34  23 24 35  23 34 35  24 25 36  24 35 36  25 26 37  25 36 37  26 27 38  26 37 38  27 28 39  27 38 39  28 29 40  28 39 40  29 30 41  29 40 41  30 31 42  30 41 42  31 32 43  31 42 43  33 34 45  33 44 45  34 35 46  34 45 46  35 36 47  35 46 47  36 37 48  36 47 48  37 38 49  37 48 49  38 39 50  38 49 50  39 40 51  39 50 51  40 41 52  40 51 52  41 42 53  41 52 53  42 43 54  42 53 54  44 45 56  44 55 56  45 46 57  45 56 57  46 47 58  46 57 58  47 48 59  47 58 59  48 49 60  48 59 60  49 50 61  49 60 61  50 51 62  50 61 62  51 52 63  51 62 63  52 53 64  52 63 64  53 54 65  53 64 65  55 56 67  55 66 67  56 57 68  56 67 68  57 58 69  57 68 69  58 59 70  58 69 70  59 60 71  59 70 71  60 61 72  60 71 72  61 62 73  61 72 73  62 63 74  62 73 74  63 64 75  63 74 75  64 65 76  64 75 76  66 67 78  66 77 78  67 68 79  67 78 79  68 69 80  68 79 80  69 70 81  69 80 81  70 71 82  70 81 82  71 72 83  71 82 83  72 73 84  72 83 84  73 74 85  73 84 85  74 75 86  74 85 86  75 76 87  75 86 87  77 78 89  77 88 89  78 79 90  78 89 90  79 80 91  79 90 91  80 81 92  80 91 92  81 82 93  81 92 93  82 83 94  82 93 94  83 84 95  83 94 95  84 85 96  84 95 96  85 86 97  85 96 97  86 87 98  86 97 98  88 89 100  88 99 100  89 90 101  89 100 101  90 91 102  90 101 102  91 92 103  91 102 103  92 93 104  92 103 104  93 94 105  93 104 105  94 95 106  94 105 106  95 96 107  95 106 107  96 97 108  96 107 108  97 98 109  97 108 109  99 100 111  99 110 111  100 101 112  100 111 112  101 102 113  101 112 113  102 103 114  102 113 114  103 104 115  103 114 115  104 105 116  104 115 116  105 106 117  105 116 117  106 107 118  106 117 118  107 108 119  107 118 119  108 109 120  108 119 120  </DataArray>
<DataArray  type="UInt32"  Name="offsets"  format="ascii">3 6 9 12 15 18 21 24 27 30 33 36 39 42 45 48 51 54 57 60 63 66 69 72 75 78 81 84 87 90 93 96 99 102 105 108 111 114 117 120 123 126 129 132 135 138 141 144 147 150 153 156 159 162 165 168 171 174 177 180 183 186 189 192 195 198 201 204 207 210 213 216 219 222 225 228 231 234 237 240 243 246 249 252 255 258 261 264 267 270 273 276 279 282 285 288 291 294 297 300 303 306 309 312 315 318 321 324 327 330 333 336 339 342 345 348 351 354 357 360 363 366 369 372 375 378 381 384 387 390 393 396 399 402 405 408 411 414 417 420 423 426 429 432 435 438 441 444 447 450 453 456 459 462 465 468 471 474 477 480 483 486 489 492 495 498 501 504 507 510 513 516 519 522 525 528 531 534 537 540 543 546 549 552 555 558 561 564 567 570 573 576 579 582 585 588 591 594 597 600 </DataArray>
<DataArray  type="UInt8"  Name="types"  format="ascii">5 5 5 5 5 5 5 5 5 5 5 5 5 5 5 5 5 5 5 5 5 5 5 5 5 5 5 5 5 5 5 5 5 5 5 5 5 5 5 5 5 5 5 5 5 5 5 5 5 5 5 5 5 5 5 5 5 5 5 5 5 5 5 5 5 5 5 5 5 5 5 5 5 5 5 5 5 5 5 5 5 5 5 5 5 5 5 5 5 5 5 5 5 5 5 5 5 5 5 5 5 5 5 5 5 5 5 5 5 5 5 5 5 5 5 5 5 5 5 5 5 5 5 5 5 5 5 5 5 5 5 5 5 5 5 5 5 5 5 5 5 5 5 5 5 5 5 5 5 5 5 5 5 5 5 5 5 5 5 5 5 5 5 5 5 5 5 5 5 5 5 5 5 5 5 5 5 5 5 5 5 5 5 5 5 5 5 5 5 5 5 5 5 5 5 5 5 5 5 5 </DataArray>
</Cells>
<PointData  Vectors="f_22-0"> 
<DataArray  type="Float64"  Name="f_22-0"  NumberOfComponents="3" format="ascii">0.0000000000000000e+00 0.0000000000000000e+00 0.0000000000000000e+00  -1.2675644603859683e-06 2.7354121349922257e-05 0.0000000000000000e+00  -2.3216192331793983e-06 2.7795932483335814e-05 0.0000000000000000e+00  -3.1345781426385584e-06 2.1106732625088434e-05 0.0000000000000000e+00  -3.6182993113307044e-06 1.1398991854781831e-05 0.0000000000000000e+00  -3.7207069363271042e-06 2.7248763458568254e-07 0.0000000000000000e+00  -3.4271686989817715e-06 -1.0973271448856363e-05 0.0000000000000000e+00  -2.7697186486571822e-06 -2.0983712287081451e-05 0.0000000000000000e+00  -1.8439322539021611e-06 -2.7959647574180807e-05 0.0000000000000000e+00  -9.8009327840967650e-07 -2.7648415641510173e-05 0.0000000000000000e+00  0.0000000000000000e+00 0.0000000000000000e+00 0.0000000000000000e+00  0.0000000000000000e+00 0.0000000000000000e+00 0.0000000000000000e+00  -1.8009982832906544e-03 1.7314217354669366e-03 0.0000000000000000e+00  -3.5462065835547897e-03 1.4974303388592121e-03 0.0000000000000000e+00  -4.9446244600858400e-03 1.0719060724786679e-03 0.0000000000000000e+00  -5.8257861372491612e-03 5.4381004337670114e-04 0.0000000000000000e+00  -6.1053618248608915e-03 -3.7374782524850729e-05 0.0000000000000000e+00  -5.7555324257409276e-03 -6.1996223816399661e-04 0.0000000000000000e+00  -4.8055729065786881e-03 -1.1492760726638171e-03 0.0000000000000000e+00  -3.3481886582446985e-03 -1.5446092025642229e-03 0.0000000000000000e+00  -1.5308504395869056e-03 -1.5224613345787513e-03 0.0000000000000000e+00  0.0000000000000000e+00 0.0000000000000000e+00 0.0000000000000000e+00  0.0000000000000000e+00 0.0000000000000000e+00 0.0000000000000000e+00  -2.1395228791903998e-03 3.7509577465472941e-03 0.0000000000000000e+00  -4.3089451480922050e-03 3.3719381189734649e-03 0.0000000000000000e+00  -6.0561346672144698e-03 2.4280031305246646e-03 0.0000000000000000e+00  -7.1746342764166110e-03 1.2535794490515409e-03 0.0000000000000000e+00  -7.5621630093248311e-03 -3.6937174164756810e-05 0.0000000000000000e+00  -7.1830436312990444e-03 -1.3347625222646050e-03 0.0000000000000000e+00  -6.0591252103001361e-03 -2.5255135816399650e-03 0.0000000000000000e+00  -4.2850855233883146e-03 -3.4464102119210762e-03 0.0000000000000000e+00  -2.0287819815873434e-03 -3.5492599773766097e-03 0.0000000000000000e+00  0.0000000000000000e+00 0.0000000000000000e+00 0.0000000000000000e+00  0.0000000000000000e+00 0.0000000000000000e+00 0.0000000000000000e+00  -2.6849659657496535e-03 6.2045329138837703e-03 0.0000000000000000e+00  -5.3438293845944791e-03 5.6113605507293494e-03 0.0000000000000000e+00  -7.4709667177125690e-03 4.0385147353485017e-03 0.0000000000000000e+00  -8.8166021021671113e-03 2.0953738702481849e-03 0.0000000000000000e+00  -9.2891936529773764e-03 -2.1470636935804883e-05 0.0000000000000000e+00  -8.8565311201954117e-03 -2.1564477912708628e-03 0.0000000000000000e+00  -7.5229592950522440e-03 -4.1463315477909277e-03 0.0000000000000000e+00  -5.3600240970580479e-03 -5.7308440621321134e-03 0.0000000000000000e+00  -2.5374946096368965e-03 -5.9959599248190854e-03 0.0000000000000000e+00  0.0000000000000000e+00 0.0000000000000000e+00 0.0000000000000000e+00  0.0000000000000000e+00 0.0000000000000000e+00 0.0000000000000000e+00  -3.5798468471336794e-03 9.3487808905782319e-03 0.0000000000000000e+00  -7.0164637856830357e-03 8.4224229630973542e-03 0.0000000000000000e+00  -9.6881131874814765e-03 6.0081440699044563e-03 0.0000000000000000e+00  -1.1330610223686874e-02 3.1087848252821736e-03 0.0000000000000000e+00  -1.1909222838043840e-02 1.1862475697301970e-05 0.0000000000000000e+00  -1.1416802300171667e-02 -3.1205962071619480e-03 0.0000000000000000e+00  -9.8150538348688639e-03 -6.1162265428844108e-03 0.0000000000000000e+00  -7.0878960958644949e-03 -8.6159852907542085e-03 0.0000000000000000e+00  -3.3627062427799884e-03 -9.1633638534121056e-03 0.0000000000000000e+00  0.0000000000000000e+00 0.0000000000000000e+00 0.0000000000000000e+00  0.0000000000000000e+00 0.0000000000000000e+00 0.0000000000000000e+00  -5.0503364073144087e-03 1.3570282316966711e-02 0.0000000000000000e+00  -9.6490955469740632e-03 1.2057842215714957e-02 0.0000000000000000e+00  -1.3016202156152335e-02 8.4198928832800637e-03 0.0000000000000000e+00  -1.4956063533649205e-02 4.2978390609649912e-03 0.0000000000000000e+00  -1.5631908593943197e-02 7.4847144995418650e-05 0.0000000000000000e+00  -1.5129199470982554e-02 -4.2031199805343854e-03 0.0000000000000000e+00  -1.3274112192910196e-02 -8.4843358067193449e-03 0.0000000000000000e+00  -9.8648346835022334e-03 -1.2370368609487169e-02 0.0000000000000000e+00  -4.7511504213772491e-03 -1.3532498666799560e-02 0.0000000000000000e+00  0.0000000000000000e+00 0.0000000000000000e+00 0.0000000000000000e+00  0.0000000000000000e+00 0.0000000000000000e+00 0.0000000000000000e+00  -7.6288549351558061e-03 1.9535475934432955e-02 0.0000000000000000e+00  -1.3975360788163350e-02 1.6802652181131892e-02 0.0000000000000000e+00  -1.8068531160754776e-02 1.1185479378843793e-02 0.0000000000000000e+00  -2.0075503151328961e-02 5.5193364393464435e-03 0.0000000000000000e+00  -2.0727485709582955e-02 1.5342062385079766e-04 0.0000000000000000e+00  -2.0377032480028666e-02 -5.1906441955438106e-03 0.0000000000000000e+00  -1.8681840631800062e-02 -1.1105274613303268e-02 0.0000000000000000e+00  -1.4616374486187206e-02 -1.7402148986172823e-02 0.0000000000000000e+00  -7.1173448222771659e-03 -1.9951492400869835e-02 0.0000000000000000e+00  0.0000000000000000e+00 0.0000000000000000e+00 0.0000000000000000e+00  0.0000000000000000e+00 0.0000000000000000e+00 0.0000000000000000e+00  -1.1806017789124519e-02 2.8913873185212997e-02 0.0000000000000000e+00  -2.1635648486942629e-02 2.2684491975495439e-02 0.0000000000000000e+00  -2.6060868212040993e-02 1.3612779363665355e-02 0.0000000000000000e+00  -2.7392182679204281e-02 6.2656813201830853e-03 0.0000000000000000e+00  -2.7760731080029664e-02 2.0606769299380065e-04 0.0000000000000000e+00  -2.7918039573659938e-02 -5.9024633173260779e-03 0.0000000000000000e+00  -2.8602142773409910e-02 -1.3584523722542159e-02 0.0000000000000000e+00  -2.4803990480740251e-02 -2.2542704970662603e-02 0.0000000000000000e+00  -1.0509661265489851e-02 -2.9587956971938334e-02 0.0000000000000000e+00  0.0000000000000000e+00 0.0000000000000000e+00 0.0000000000000000e+00  0.0000000000000000e+00 0.0000000000000000e+00 0.0000000000000000e+00  -1.2402196623872477e-02 4.1299968677006117e-02 0.0000000000000000e+00  -3.1773585030648685e-02 2.7220505863816490e-02 0.0000000000000000e+00  -3.4882348649643354e-02 1.3607786567321482e-02 0.0000000000000000e+00  -3.4384007417775524e-02 5.6033146398759897e-03 0.0000000000000000e+00  -3.4543735292055400e-02 6.8417400881113250e-05 0.0000000000000000e+00  -3.6358573510572541e-02 -5.6068647640320143e-03 0.0000000000000000e+00  -3.9417429217378890e-02 -1.4355983721557693e-02 0.0000000000000000e+00  -4.7645876314734645e-02 -2.4989725753295937e-02 0.0000000000000000e+00  -3.2388477159873023e-02 -2.1702008028859330e-02 0.0000000000000000e+00  0.0000000000000000e+00 0.0000000000000000e+00 0.0000000000000000e+00  0.0000000000000000e+00 0.0000000000000000e+00 0.0000000000000000e+00  1.2789471367173653e-02 5.9875735215857907e-02 0.0000000000000000e+00  2.2267395063894781e-02 2.5010417008704339e-02 0.0000000000000000e+00  2.7831011531096704e-02 1.2716591804072065e-02 0.0000000000000000e+00  3.1794165377267355e-02 6.9218411196599501e-03 0.0000000000000000e+00  3.1602511129315947e-02 3.6016736802881328e-03 0.0000000000000000e+00  2.7373653376245075e-02 4.5385288865868031e-04 0.0000000000000000e+00  2.2880272964552230e-02 -8.2011936904076226e-04 0.0000000000000000e+00  3.1082094529746768e-02 -9.4317130339839263e-03 0.0000000000000000e+00  -1.6222703069494848e-01 -1.3393195078751760e-01 0.0000000000000000e+00  0.0000000000000000e+00 0.0000000000000000e+00 0.0000000000000000e+00  0.0000000000000000e+00 0.0000000000000000e+00 0.0000000000000000e+00  1.0000000000000000e+00 0.0000000000000000e+00 0.0000000000000000e+00  1.0000000000000000e+00 0.0000000000000000e+00 0.0000000000000000e+00  1.0000000000000000e+00 0.0000000000000000e+00 0.0000000000000000e+00  1.0000000000000000e+00 0.0000000000000000e+00 0.0000000000000000e+00  1.0000000000000000e+00 0.0000000000000000e+00 0.0000000000000000e+00  1.0000000000000000e+00 0.0000000000000000e+00 0.0000000000000000e+00  1.0000000000000000e+00 0.0000000000000000e+00 0.0000000000000000e+00  1.0000000000000000e+00 0.0000000000000000e+00 0.0000000000000000e+00  1.0000000000000000e+00 0.0000000000000000e+00 0.0000000000000000e+00  0.0000000000000000e+00 0.0000000000000000e+00 0.0000000000000000e+00  </DataArray> 
</PointData> 
</Piece>
</UnstructuredGrid>
</VTKFile>