<?xml version="1.0"?>
<VTKFile type="UnstructuredGrid"  version="0.1"  >
<UnstructuredGrid>
<Piece  NumberOfPoints="121" NumberOfCells="200">
<Points>
<DataArray  type="Float64"  NumberOfComponents="3"  format="ascii">0 0 0  0.1 0 0  0.2 0 0  0.3 0 0  0.4 0 0  0.5 0 0  0.6 0 0  0.7 0 0  0.8 0 0  0.9 0 0  1 0 0  0 0.1 0  0.1 0.1 0  0.2 0.1 0  0.3 0.1 0  0.4 0.1 0  0.5 0.1 0  0.6 0.1 0  0.7 0.1 0  0.8 0.1 0  0.9 0.1 0  1 0.1 0  0 0.2 0  0.1 0.2 0  0.2 0.2 0  0.3 0.2 0  0.4 0.2 0  0.5 0.2 0  0.6 0.2 0  0.7 0.2 0  0.8 0.2 0  0.9 0.2 0  1 0.2 0  0 0.3 0  0.1 0.3 0  0.2 0.3 0  0.3 0.3 0  0.4 0.3 0  0.5 0.3 0  0.6 0.3 0  0.7 0.3 0  0.8 0.3 0  0.9 0.3 0  1 0.3 0  0 0.4 0  0.1 0.4 0  0.2 0.4 0  0.3 0.4 0  0.4 0.4 0  0.5 0.4 0  0.6 0.4 0  0.7 0.4 0  0.8 0.4 0  0.9 0.4 0  1 0.4 0  0 0.5 0  0.1 0.5 0  0.2 0.5 0  0.3 0.5 0  0.4 0.5 0  0.5 0.5 0  0.6 0.5 0  0.7 0.5 0  0.8 0.5 0  0.9 0.5 0  1 0.5 0  0 0.6 0  0.1 0.6 0  0.2 0.6 0  0.3 0.6 0  0.4 0.6 0  0.5 0.6 0  0.6 0.6 0  0.7 0.6 0  0.8 0.6 0  0.9 0.6 0  1 0.6 0  0 0.7 0  0.1 0.7 0  0.2 0.7 0  0.3 0.7 0  0.4 0.7 0  0.5 0.7 0  0.6 0.7 0  0.7 0.7 0  0.8 0.7 0  0.9 0.7 0  1 0.7 0  0 0.8 0  0.1 0.8 0  0.2 0.8 0  0.3 0.8 0  0.4 0.8 0  0.5 0.8 0  0.6 0.8 0  0.7 0.8 0  0.8 0.8 0  0.9 0.8 0  1 0.8 0  0 0.9 0  0.1 0.9 0  0.2 0.9 0  0.3 0.9 0  0.4 0.9 0  0.5 0.9 0  0.6 0.9 0  0.7 0.9 0  0.8 0.9 0  0.9 0.9 0  1 0.9 0  0 1 0  0.1 1 0  0.2 1 0  0.3 1 0  0.4 1 0  0.5 1 0  0.6 1 0  0.7 1 0  0.8 1 0  0.9 1 0  1 1 0  </DataArray>
</Points>
<Cells>
<DataArray  type="UInt32"  Name="connectivity"  format="ascii">0 1 12  0 11 12  1 2 13  1 12 13  2 3 14  2 13 14  3 4 15  3 14 15  4 5 16  4 15 16  5 6 17  5 16 17  6 7 18  6 17 18  7 8 19  7 18 19  8 9 20  8 19 20  9 10 21  9 20 21  11 12 23  11 22 23  12 13 24  12 23 24  13 14 25  13 24 25  14 15 26  14 25 26  15 16 27  15 26 27  16 17 28  16 27 28  17 18 29  17 28 29  18 19 30  18 29 30  19 20 31  19 30 31  20 21 32  20 31 32  22 23 34  22 33 34  23 24 35  23 34 35  24 25 36  24 35 36  25 26 37  25 36 37  26 27 38  26 37 38  27 28 39  27 38 39  28 29 40  28 39 40  29 30 41  29 40 41  30 31 42  30 41 42  31 32 43  31 42 43  33 34 45  33 44 45  34 35 46  34 45 46  35 36 47  35 46 47  36 37 48  36 47 48  37 38 49  37 48 49  38 39 50  38 49 50  39 40 51  39 50 51  40 41 52  40 51 52  41 42 53  41 52 53  42 43 54  42 53 54  44 45 56  44 55 56  45 46 57  45 56 57  46 47 58  46 57 58  47 48 59  47 58 59  48 49 60  48 59 60  49 50 61  49 60 61  50 51 62  50 61 62  51 52 63  51 62 63  52 53 64  52 63 64  53 54 65  53 64 65  55 56 67  55 66 67  56 57 68  56 67 68  57 58 69  57 68 69  58 59 70  58 69 70  59 60 71  59 70 71  60 61 72  60 71 72  61 62 73  61 72 73  62 63 74  62 73 74  63 64 75  63 74 75  64 65 76  64 75 76  66 67 78  66 77 78  67 68 79  67 78 79  68 69 80  68 79 80  69 70 81  69 80 81  70 71 82  70 81 82  71 72 83  71 82 83  72 73 84  72 83 84  73 74 85  73 84 85  74 75 86  74 85 86  75 76 87  75 86 87  77 78 89  77 88 89  78 79 90  78 89 90  79 80 91  79 90 91  80 81 92  80 91 92  81 82 93  81 92 93  82 83 94  82 93 94  83 84 95  83 94 95  84 85 96  84 95 96  85 86 97  85 96 97  86 87 98  86 97 98  88 89 100  88 99 100  89 90 101  89 100 101  90 91 102  90 101 102  91 92 103  91 102 103  92 93 104  92 103 104  93 94 105  93 104 105  94 95 106  94 105 106  95 96 107  95 106 107  96 97 108  96 107 108  97 98 109  97 108 109  99 100 111  99 110 111  100 101 112  100 111 112  101 102 113  101 112 113  102 103 114  102 113 114  103 104 115  103 114 115  104 105 116  104 115 116  105 106 117  105 116 117  106 107 118  106 117 118  107 108 119  107 118 119  108 109 120  108 119 120  </DataArray>
<DataArray  type="UInt32"  Name="offsets"  format="ascii">3 6 9 12 15 18 21 24 27 30 33 36 39 42 45 48 51 54 57 60 63 66 69 72 75 78 81 84 87 90 93 96 99 102 105 108 111 114 117 120 123 126 129 132 135 138 141 144 147 150 153 156 159 162 165 168 171 174 177 180 183 186 189 192 195 198 201 204 207 210 213 216 219 222 225 228 231 234 237 240 243 246 249 252 255 258 261 264 267 270 273 276 279 282 285 288 291 294 297 300 303 306 309 312 315 318 321 324 327 330 333 336 339 342 345 348 351 354 357 360 363 366 369 372 375 378 381 384 387 390 393 396 399 402 405 408 411 414 417 420 423 426 429 432 435 438 441 444 447 450 453 456 459 462 465 468 471 474 477 480 483 486 489 492 495 498 501 504 507 510 513 516 519 522 525 528 531 534 537 540 543 546 549 552 555 558 561 564 567 570 573 576 579 582 585 588 591 594 597 600 </DataArray>
<DataArray  type="UInt8"  Name="types"  format="ascii">5 5 5 5 5 5 5 5 5 5 5 5 5 5 5 5 5 5 5 5 5 5 5 5 5 5 5 5 5 5 5 5 5 5 5 5 5 5 5 5 5 5 5 5 5 5 5 5 5 5 5 5 5 5 5 5 5 5 5 5 5 5 5 5 5 5 5 5 5 5 5 5 5 5 5 5 5 5 5 5 5 5 5 5 5 5 5 5 5 5 5 5 5 5 5 5 5 5 5 5 5 5 5 5 5 5 5 5 5 5 5 5 5 5 5 5 5 5 5 5 5 5 5 5 5 5 5 5 5 5 5 5 5 5 5 5 5 5 5 5 5 5 5 5 5 5 5 5 5 5 5 5 5 5 5 5 5 5 5 5 5 5 5 5 5 5 5 5 5 5 5 5 5 5 5 5 5 5 5 5 5 5 5 5 5 5 5 5 5 5 5 5 5 5 5 5 5 5 5 5 </DataArray>
</Cells>
<PointData  Vectors="f_22-0"> 
<DataArray  type="Float64"  Name="f_22-0"  NumberOfComponents="3" format="ascii">0.0000000000000000e+00 0.0000000000000000e+00 0.0000000000000000e+00  -8.8924802514463991e-07 1.4799352488315114e-05 0.0000000000000000e+00  -1.9631400278966749e-06 1.5666464953022859e-05 0.0000000000000000e+00  -2.9734893147785236e-06 1.2669068704777258e-05 0.0000000000000000e+00  -3.7404136071836915e-06 7.6771019347047409e-06 0.0000000000000000e+00  -4.1230568235951670e-06 1.3322324500209409e-06 0.0000000000000000e+00  -4.0072364429799750e-06 -5.6387085550057324e-06 0.0000000000000000e+00  -3.3625444512521757e-06 -1.2184720339709425e-05 0.0000000000000000e+00  -2.2726890581711724e-06 -1.6762318823094339e-05 0.0000000000000000e+00  -1.1855723935973578e-06 -1.6524193283107164e-05 0.0000000000000000e+00  0.0000000000000000e+00 0.0000000000000000e+00 0.0000000000000000e+00  0.0000000000000000e+00 0.0000000000000000e+00 0.0000000000000000e+00  -3.6242808149574406e-03 3.4802633669050809e-03 0.0000000000000000e+00  -8.7581683800061604e-03 3.2603476354599310e-03 0.0000000000000000e+00  -1.3059390465990285e-02 2.5853161762224861e-03 0.0000000000000000e+00  -1.6098813382614003e-02 1.6145513813437453e-03 0.0000000000000000e+00  -1.7487659047459098e-02 3.8666575539887476e-04 0.0000000000000000e+00  -1.6935753477263712e-02 -1.0166846204467817e-03 0.0000000000000000e+00  -1.4322593163014105e-02 -2.4334595667015483e-03 0.0000000000000000e+00  -9.8538928592634516e-03 -3.6102150776359974e-03 0.0000000000000000e+00  -4.0951457330659904e-03 -4.0799268928213422e-03 0.0000000000000000e+00  0.0000000000000000e+00 0.0000000000000000e+00 0.0000000000000000e+00  0.0000000000000000e+00 0.0000000000000000e+00 0.0000000000000000e+00  -4.2075260327602993e-03 9.0928413256037011e-03 0.0000000000000000e+00  -1.0001351448681296e-02 8.3763192942939158e-03 0.0000000000000000e+00  -1.4948800726011348e-02 6.6227242822394132e-03 0.0000000000000000e+00  -1.8543848642568830e-02 4.1508070820925015e-03 0.0000000000000000e+00  -2.0367576117903536e-02 1.0446980281422300e-03 0.0000000000000000e+00  -2.0023379396028003e-02 -2.5727374872884547e-03 0.0000000000000000e+00  -1.7181116413865251e-02 -6.3097064316518289e-03 0.0000000000000000e+00  -1.1933107113200407e-02 -9.3863870318740186e-03 0.0000000000000000e+00  -5.0450211109091076e-03 -1.0731577308269730e-02 0.0000000000000000e+00  0.0000000000000000e+00 0.0000000000000000e+00 0.0000000000000000e+00  0.0000000000000000e+00 0.0000000000000000e+00 0.0000000000000000e+00  -4.9985640421088846e-03 1.5531842254204143e-02 0.0000000000000000e+00  -1.1884194356717146e-02 1.4332970429528790e-02 0.0000000000000000e+00  -1.7795890784066386e-02 1.1435557579451498e-02 0.0000000000000000e+00  -2.2309611921134481e-02 7.3483982756797446e-03 0.0000000000000000e+00  -2.5018250049073314e-02 2.0252356490684477e-03 0.0000000000000000e+00  -2.5178519215083666e-02 -4.3526863912002525e-03 0.0000000000000000e+00  -2.2047363968119186e-02 -1.0877243693372977e-02 0.0000000000000000e+00  -1.5495730668981458e-02 -1.6259240798097513e-02 0.0000000000000000e+00  -6.5969843205376019e-03 -1.8840575079435248e-02 0.0000000000000000e+00  0.0000000000000000e+00 0.0000000000000000e+00 0.0000000000000000e+00  0.0000000000000000e+00 0.0000000000000000e+00 0.0000000000000000e+00  -6.2724569962793039e-03 2.3375809636300576e-02 0.0000000000000000e+00  -1.4756819430362512e-02 2.1564268066380461e-02 0.0000000000000000e+00  -2.2040508234969999e-02 1.7365658422935467e-02 0.0000000000000000e+00  -2.8019256682966561e-02 1.1552025137150104e-02 0.0000000000000000e+00  -3.1956520339178000e-02 4.5475121508655554e-03 0.0000000000000000e+00  -3.3188253653422754e-02 -3.7617807949476981e-03 0.0000000000000000e+00  -3.0629493589394059e-02 -1.4330563201289429e-02 0.0000000000000000e+00  -2.2138697997424333e-02 -2.5532157508164816e-02 0.0000000000000000e+00  -9.4292713724688244e-03 -3.1273358867843083e-02 0.0000000000000000e+00  0.0000000000000000e+00 0.0000000000000000e+00 0.0000000000000000e+00  0.0000000000000000e+00 0.0000000000000000e+00 0.0000000000000000e+00  -8.2578845481360644e-03 3.3325626966294118e-02 0.0000000000000000e+00  -1.8929279370009260e-02 3.0477392462536938e-02 0.0000000000000000e+00  -2.8006845354023379e-02 2.4585273853838106e-02 0.0000000000000000e+00  -3.5265877941038908e-02 1.7454713907840959e-02 0.0000000000000000e+00  -4.0014466786985232e-02 9.2832541139783002e-03 0.0000000000000000e+00  -4.6721478288205574e-02 -4.6429116093194833e-03 0.0000000000000000e+00  -4.7247925377332890e-02 -2.5224514274001873e-02 0.0000000000000000e+00  -3.2954462528246679e-02 -4.3819974204841461e-02 0.0000000000000000e+00  -1.1992677998278018e-02 -4.8936503128756616e-02 0.0000000000000000e+00  0.0000000000000000e+00 0.0000000000000000e+00 0.0000000000000000e+00  0.0000000000000000e+00 0.0000000000000000e+00 0.0000000000000000e+00  -1.1561972742787047e-02 4.6391495926037300e-02 0.0000000000000000e+00  -2.5264583634333329e-02 4.1327187478231289e-02 0.0000000000000000e+00  -3.5863573611975570e-02 3.2878274340279325e-02 0.0000000000000000e+00  -4.2688567783049990e-02 2.4850373788405961e-02 0.0000000000000000e+00  -4.9301094890802762e-02 1.6247989818624388e-02 0.0000000000000000e+00  -6.9610930466050505e-02 1.3622530021656606e-03 0.0000000000000000e+00  -6.9662520934829428e-02 -2.5814563824859665e-02 0.0000000000000000e+00  -5.9322290949935921e-02 -5.7756839066413823e-02 0.0000000000000000e+00  -1.9140649396003552e-02 -7.5295666291532656e-02 0.0000000000000000e+00  0.0000000000000000e+00 0.0000000000000000e+00 0.0000000000000000e+00  0.0000000000000000e+00 0.0000000000000000e+00 0.0000000000000000e+00  -1.8070225976085770e-02 6.4465418594780513e-02 0.0000000000000000e+00  -3.6005501284695929e-02 5.3608238344188486e-02 0.0000000000000000e+00  -4.5262015505632559e-02 4.0441890406113019e-02 0.0000000000000000e+00  -4.9565868774868890e-02 3.1216338927914887e-02 0.0000000000000000e+00  -5.5561873627471683e-02 2.5491893671682968e-02 0.0000000000000000e+00  -9.9428690434941985e-02 2.9993320730421488e-02 0.0000000000000000e+00  -4.7051793357241141e-02 4.9172165147795398e-02 0.0000000000000000e+00  -2.2151393179319523e-01 -9.0509653567685117e-02 0.0000000000000000e+00  -8.5560373808317255e-02 -1.0118343730311438e-01 0.0000000000000000e+00  0.0000000000000000e+00 0.0000000000000000e+00 0.0000000000000000e+00  0.0000000000000000e+00 0.0000000000000000e+00 0.0000000000000000e+00  -4.2984454407371538e-02 8.5788246266668644e-02 0.0000000000000000e+00  -5.3797297857529687e-02 6.2134242651307681e-02 0.0000000000000000e+00  -5.3984592352341640e-02 4.3867263477800393e-02 0.0000000000000000e+00  -5.2944678294252340e-02 3.3651580925747951e-02 0.0000000000000000e+00  -5.2509830483433925e-02 3.0924320915460702e-02 0.0000000000000000e+00  -5.9530307883077900e-02 4.3006108036697459e-02 0.0000000000000000e+00  -2.4199626242352716e-02 1.0101670421411722e-01 0.0000000000000000e+00  -3.4357283277620587e-01 -6.7433170172124884e-02 0.0000000000000000e+00  -2.4073702978356321e-01 -5.6498296130900139e-01 0.0000000000000000e+00  0.0000000000000000e+00 0.0000000000000000e+00 0.0000000000000000e+00  0.0000000000000000e+00 0.0000000000000000e+00 0.0000000000000000e+00  -5.3978717641643685e-02 9.0400531791309149e-02 0.0000000000000000e+00  -4.1595873479587583e-02 5.3861146256509777e-02 0.0000000000000000e+00  -3.4121217845502941e-02 3.6527799319665342e-02 0.0000000000000000e+00  -2.6240370424189665e-02 2.7543919058864594e-02 0.0000000000000000e+00  -1.5419149201927848e-02 2.3447004477694284e-02 0.0000000000000000e+00  3.3836321457546680e-03 3.1768302575211883e-02 0.0000000000000000e+00  3.7760792580737890e-02 7.9853707503460061e-02 0.0000000000000000e+00  -1.0440937172162174e-02 1.4679343771225603e-01 0.0000000000000000e+00  8.9857881809724663e-02 -3.5339852507690062e-03 0.0000000000000000e+00  0.0000000000000000e+00 0.0000000000000000e+00 0.0000000000000000e+00  0.0000000000000000e+00 0.0000000000000000e+00 0.0000000000000000e+00  1.0000000000000000e+00 0.0000000000000000e+00 0.0000000000000000e+00  1.0000000000000000e+00 0.0000000000000000e+00 0.0000000000000000e+00  1.0000000000000000e+00 0.0000000000000000e+00 0.0000000000000000e+00  1.0000000000000000e+00 0.0000000000000000e+00 0.0000000000000000e+00  1.0000000000000000e+00 0.0000000000000000e+00 0.0000000000000000e+00  1.0000000000000000e+00 0.0000000000000000e+00 0.0000000000000000e+00  1.0000000000000000e+00 0.0000000000000000e+00 0.0000000000000000e+00  1.0000000000000000e+00 0.0000000000000000e+00 0.0000000000000000e+00  1.0000000000000000e+00 0.0000000000000000e+00 0.0000000000000000e+00  0.0000000000000000e+00 0.0000000000000000e+00 0.0000000000000000e+00  </DataArray> 
</PointData> 
</Piece>
</UnstructuredGrid>
</VTKFile>