<?xml version="1.0"?>
<VTKFile type="UnstructuredGrid"  version="0.1"  >
<UnstructuredGrid>
<Piece  NumberOfPoints="121" NumberOfCells="200">
<Points>
<DataArray  type="Float64"  NumberOfComponents="3"  format="ascii">0 0 0  0.1 0 0  0.2 0 0  0.3 0 0  0.4 0 0  0.5 0 0  0.6 0 0  0.7 0 0  0.8 0 0  0.9 0 0  1 0 0  0 0.1 0  0.1 0.1 0  0.2 0.1 0  0.3 0.1 0  0.4 0.1 0  0.5 0.1 0  0.6 0.1 0  0.7 0.1 0  0.8 0.1 0  0.9 0.1 0  1 0.1 0  0 0.2 0  0.1 0.2 0  0.2 0.2 0  0.3 0.2 0  0.4 0.2 0  0.5 0.2 0  0.6 0.2 0  0.7 0.2 0  0.8 0.2 0  0.9 0.2 0  1 0.2 0  0 0.3 0  0.1 0.3 0  0.2 0.3 0  0.3 0.3 0  0.4 0.3 0  0.5 0.3 0  0.6 0.3 0  0.7 0.3 0  0.8 0.3 0  0.9 0.3 0  1 0.3 0  0 0.4 0  0.1 0.4 0  0.2 0.4 0  0.3 0.4 0  0.4 0.4 0  0.5 0.4 0  0.6 0.4 0  0.7 0.4 0  0.8 0.4 0  0.9 0.4 0  1 0.4 0  0 0.5 0  0.1 0.5 0  0.2 0.5 0  0.3 0.5 0  0.4 0.5 0  0.5 0.5 0  0.6 0.5 0  0.7 0.5 0  0.8 0.5 0  0.9 0.5 0  1 0.5 0  0 0.6 0  0.1 0.6 0  0.2 0.6 0  0.3 0.6 0  0.4 0.6 0  0.5 0.6 0  0.6 0.6 0  0.7 0.6 0  0.8 0.6 0  0.9 0.6 0  1 0.6 0  0 0.7 0  0.1 0.7 0  0.2 0.7 0  0.3 0.7 0  0.4 0.7 0  0.5 0.7 0  0.6 0.7 0  0.7 0.7 0  0.8 0.7 0  0.9 0.7 0  1 0.7 0  0 0.8 0  0.1 0.8 0  0.2 0.8 0  0.3 0.8 0  0.4 0.8 0  0.5 0.8 0  0.6 0.8 0  0.7 0.8 0  0.8 0.8 0  0.9 0.8 0  1 0.8 0  0 0.9 0  0.1 0.9 0  0.2 0.9 0  0.3 0.9 0  0.4 0.9 0  0.5 0.9 0  0.6 0.9 0  0.7 0.9 0  0.8 0.9 0  0.9 0.9 0  1 0.9 0  0 1 0  0.1 1 0  0.2 1 0  0.3 1 0  0.4 1 0  0.5 1 0  0.6 1 0  0.7 1 0  0.8 1 0  0.9 1 0  1 1 0  </DataArray>
</Points>
<Cells>
<DataArray  type="UInt32"  Name="connectivity"  format="ascii">0 1 12  0 11 12  1 2 13  1 12 13  2 3 14  2 13 14  3 4 15  3 14 15  4 5 16  4 15 16  5 6 17  5 16 17  6 7 18  6 17 18  7 8 19  7 18 19  8 9 20  8 19 20  9 10 21  9 20 21  11 12 23  11 22 23  12 13 24  12 23 24  13 14 25  13 24 25  14 15 26  14 25 26  15 16 27  15 26 27  16 17 28  16 27 28  17 18 29  17 28 29  18 19 30  18 29 30  19 20 31  19 30 31  20 21 32  20 31 32  22 23 34  22 33 34  23 24 35  23 34 35  24 25 36  24 35 36  25 26 37  25 36 37  26 27 38  26 37 38  27 28 39  27 38 39  28 29 40  28 39 40  29 30 41  29 40 41  30 31 42  30 41 42  31 32 43  31 42 43  33 34 45  33 44 45  34 35 46  34 45 46  35 36 47  35 46 47  36 37 48  36 47 48  37 38 49  37 48 49  38 39 50  38 49 50  39 40 51  39 50 51  40 41 52  40 51 52  41 42 53  41 52 53  42 43 54  42 53 54  44 45 56  44 55 56  45 46 57  45 56 57  46 47 58  46 57 58  47 48 59  47 58 59  48 49 60  48 59 60  49 50 61  49 60 61  50 51 62  50 61 62  51 52 63  51 62 63  52 53 64  52 63 64  53 54 65  53 64 65  55 56 67  55 66 67  56 57 68  56 67 68  57 58 69  57 68 69  58 59 70  58 69 70  59 60 71  59 70 71  60 61 72  60 71 72  61 62 73  61 72 73  62 63 74  62 73 74  63 64 75  63 74 75  64 65 76  64 75 76  66 67 78  66 77 78  67 68 79  67 78 79  68 69 80  68 79 80  69 70 81  69 80 81  70 71 82  70 81 82  71 72 83  71 82 83  72 73 84  72 83 84  73 74 85  73 84 85  74 75 86  74 85 86  75 76 87  75 86 87  77 78 89  77 88 89  78 79 90  78 89 90  79 80 91  79 90 91  80 81 92  80 91 92  81 82 93  81 92 93  82 83 94  82 93 94  83 84 95  83 94 95  84 85 96  84 95 96  85 86 97  85 96 97  86 87 98  86 97 98  88 89 100  88 99 100  89 90 101  89 100 101  90 91 102  90 101 102  91 92 103  91 102 103  92 93 104  92 103 104  93 94 105  93 104 105  94 95 106  94 105 106  95 96 107  95 106 107  96 97 108  96 107 108  97 98 109  97 108 109  99 100 111  99 110 111  100 101 112  100 111 112  101 102 113  101 112 113  102 103 114  102 113 114  103 104 115  103 114 115  104 105 116  104 115 116  105 106 117  105 116 117  106 107 118  106 117 118  107 108 119  107 118 119  108 109 120  108 119 120  </DataArray>
<DataArray  type="UInt32"  Name="offsets"  format="ascii">3 6 9 12 15 18 21 24 27 30 33 36 39 42 45 48 51 54 57 60 63 66 69 72 75 78 81 84 87 90 93 96 99 102 105 108 111 114 117 120 123 126 129 132 135 138 141 144 147 150 153 156 159 162 165 168 171 174 177 180 183 186 189 192 195 198 201 204 207 210 213 216 219 222 225 228 231 234 237 240 243 246 249 252 255 258 261 264 267 270 273 276 279 282 285 288 291 294 297 300 303 306 309 312 315 318 321 324 327 330 333 336 339 342 345 348 351 354 357 360 363 366 369 372 375 378 381 384 387 390 393 396 399 402 405 408 411 414 417 420 423 426 429 432 435 438 441 444 447 450 453 456 459 462 465 468 471 474 477 480 483 486 489 492 495 498 501 504 507 510 513 516 519 522 525 528 531 534 537 540 543 546 549 552 555 558 561 564 567 570 573 576 579 582 585 588 591 594 597 600 </DataArray>
<DataArray  type="UInt8"  Name="types"  format="ascii">5 5 5 5 5 5 5 5 5 5 5 5 5 5 5 5 5 5 5 5 5 5 5 5 5 5 5 5 5 5 5 5 5 5 5 5 5 5 5 5 5 5 5 5 5 5 5 5 5 5 5 5 5 5 5 5 5 5 5 5 5 5 5 5 5 5 5 5 5 5 5 5 5 5 5 5 5 5 5 5 5 5 5 5 5 5 5 5 5 5 5 5 5 5 5 5 5 5 5 5 5 5 5 5 5 5 5 5 5 5 5 5 5 5 5 5 5 5 5 5 5 5 5 5 5 5 5 5 5 5 5 5 5 5 5 5 5 5 5 5 5 5 5 5 5 5 5 5 5 5 5 5 5 5 5 5 5 5 5 5 5 5 5 5 5 5 5 5 5 5 5 5 5 5 5 5 5 5 5 5 5 5 5 5 5 5 5 5 5 5 5 5 5 5 5 5 5 5 5 5 </DataArray>
</Cells>
<PointData  Vectors="f_22-0"> 
<DataArray  type="Float64"  Name="f_22-0"  NumberOfComponents="3" format="ascii">0.0000000000000000e+00 0.0000000000000000e+00 0.0000000000000000e+00  -8.9220541806979040e-07 1.4914831554464345e-05 0.0000000000000000e+00  -1.9665843610287426e-06 1.5783626844265369e-05 0.0000000000000000e+00  -2.9758606783292532e-06 1.2759546686925488e-05 0.0000000000000000e+00  -3.7407884965994393e-06 7.7293501418281800e-06 0.0000000000000000e+00  -4.1214307964936181e-06 1.3407509377231355e-06 0.0000000000000000e+00  -4.0047098725737337e-06 -5.6757902908972011e-06 0.0000000000000000e+00  -3.3606864405443459e-06 -1.2266302603013716e-05 0.0000000000000000e+00  -2.2716911841559972e-06 -1.6881219553344573e-05 0.0000000000000000e+00  -1.1866810673991201e-06 -1.6653425663009480e-05 0.0000000000000000e+00  0.0000000000000000e+00 0.0000000000000000e+00 0.0000000000000000e+00  0.0000000000000000e+00 0.0000000000000000e+00 0.0000000000000000e+00  -3.6125282599024609e-03 3.4692965913225640e-03 0.0000000000000000e+00  -8.7143987234073288e-03 3.2441758282849933e-03 0.0000000000000000e+00  -1.2984317838375394e-02 2.5697520808248635e-03 0.0000000000000000e+00  -1.5997775156265718e-02 1.6022777690248033e-03 0.0000000000000000e+00  -1.7371102820909277e-02 3.8111890325963880e-04 0.0000000000000000e+00  -1.6819630180055167e-02 -1.0126921264554749e-03 0.0000000000000000e+00  -1.4225730704962735e-02 -2.4191457810287245e-03 0.0000000000000000e+00  -9.7930264853126215e-03 -3.5886617370883768e-03 0.0000000000000000e+00  -4.0768604583231562e-03 -4.0596364621073074e-03 0.0000000000000000e+00  0.0000000000000000e+00 0.0000000000000000e+00 0.0000000000000000e+00  0.0000000000000000e+00 0.0000000000000000e+00 0.0000000000000000e+00  -4.1893036906448617e-03 9.0485002808342319e-03 0.0000000000000000e+00  -9.9425380501461120e-03 8.3225142859606836e-03 0.0000000000000000e+00  -1.4850962822057378e-02 6.5735634879729842e-03 0.0000000000000000e+00  -1.8412965323700556e-02 4.1125906031861930e-03 0.0000000000000000e+00  -2.0215351134243439e-02 1.0259671098353251e-03 0.0000000000000000e+00  -1.9868878206908934e-02 -2.5611116999430992e-03 0.0000000000000000e+00  -1.7050754796321236e-02 -6.2611643901052854e-03 0.0000000000000000e+00  -1.1852752885286118e-02 -9.3113137417687730e-03 0.0000000000000000e+00  -5.0220631683233234e-03 -1.0661947369547052e-02 0.0000000000000000e+00  0.0000000000000000e+00 0.0000000000000000e+00 0.0000000000000000e+00  0.0000000000000000e+00 0.0000000000000000e+00 0.0000000000000000e+00  -4.9808093987571810e-03 1.5451012990353351e-02 0.0000000000000000e+00  -1.1822170752084528e-02 1.4236992317461282e-02 0.0000000000000000e+00  -1.7688936374683495e-02 1.1343796189968036e-02 0.0000000000000000e+00  -2.2158015528806741e-02 7.2735570378603008e-03 0.0000000000000000e+00  -2.4826292130774859e-02 1.9924764834729292e-03 0.0000000000000000e+00  -2.4970301165378940e-02 -4.3157060286810470e-03 0.0000000000000000e+00  -2.1867375062969770e-02 -1.0771083837584872e-02 0.0000000000000000e+00  -1.5393309487378935e-02 -1.6114211725255820e-02 0.0000000000000000e+00  -6.5745604788658143e-03 -1.8719232777885630e-02 0.0000000000000000e+00  0.0000000000000000e+00 0.0000000000000000e+00 0.0000000000000000e+00  0.0000000000000000e+00 0.0000000000000000e+00 0.0000000000000000e+00  -6.2562804882410799e-03 2.3257664313966676e-02 0.0000000000000000e+00  -1.4694314149404676e-02 2.1420753482019675e-02 0.0000000000000000e+00  -2.1928579231717451e-02 1.7219449596311980e-02 0.0000000000000000e+00  -2.7831667768441676e-02 1.1424753621493700e-02 0.0000000000000000e+00  -3.1698971204309701e-02 4.4675073317840611e-03 0.0000000000000000e+00  -3.2895061750384272e-02 -3.7485946670378530e-03 0.0000000000000000e+00  -3.0364226036880510e-02 -1.4187388970719451e-02 0.0000000000000000e+00  -2.2007258281331449e-02 -2.5306100775783210e-02 0.0000000000000000e+00  -9.3950734395746548e-03 -3.1100197430264129e-02 0.0000000000000000e+00  0.0000000000000000e+00 0.0000000000000000e+00 0.0000000000000000e+00  0.0000000000000000e+00 0.0000000000000000e+00 0.0000000000000000e+00  -8.2463906461768977e-03 3.3171391330644853e-02 0.0000000000000000e+00  -1.8877166434953050e-02 3.0283613238279272e-02 0.0000000000000000e+00  -2.7898174358911846e-02 2.4375968744934032e-02 0.0000000000000000e+00  -3.5033036316523533e-02 1.7249879985286206e-02 0.0000000000000000e+00  -3.9727878721035260e-02 9.0763272415114241e-03 0.0000000000000000e+00  -4.6245747076558659e-02 -4.8539113572471258e-03 0.0000000000000000e+00  -4.6803055291323524e-02 -2.5198724680704714e-02 0.0000000000000000e+00  -3.2763700722933768e-02 -4.3423144326948361e-02 0.0000000000000000e+00  -1.2007737496851353e-02 -4.8482933144445836e-02 0.0000000000000000e+00  0.0000000000000000e+00 0.0000000000000000e+00 0.0000000000000000e+00  0.0000000000000000e+00 0.0000000000000000e+00 0.0000000000000000e+00  -1.1562883973180655e-02 4.6207336317615332e-02 0.0000000000000000e+00  -2.5236050503469963e-02 4.1089476834953849e-02 0.0000000000000000e+00  -3.5777600670915011e-02 3.2604366675797976e-02 0.0000000000000000e+00  -4.2413007389017772e-02 2.4513985869689170e-02 0.0000000000000000e+00  -4.9369065279051695e-02 1.5814035300845620e-02 0.0000000000000000e+00  -6.8417245308635910e-02 1.2809775251345866e-03 0.0000000000000000e+00  -6.8630067603616243e-02 -2.4731160620468155e-02 0.0000000000000000e+00  -5.8841873930734132e-02 -5.6097658809386296e-02 0.0000000000000000e+00  -1.9815459643298998e-02 -7.4681025378057042e-02 0.0000000000000000e+00  0.0000000000000000e+00 0.0000000000000000e+00 0.0000000000000000e+00  0.0000000000000000e+00 0.0000000000000000e+00 0.0000000000000000e+00  -1.8115590536796150e-02 6.4272418794536990e-02 0.0000000000000000e+00  -3.6018101682207378e-02 5.3342561552965503e-02 0.0000000000000000e+00  -4.5228779971534398e-02 4.0116766409565401e-02 0.0000000000000000e+00  -4.9422819761167448e-02 3.0770448238408198e-02 0.0000000000000000e+00  -5.5959224152254093e-02 2.4886891195817051e-02 0.0000000000000000e+00  -9.7030452069059192e-02 2.9057612847947337e-02 0.0000000000000000e+00  -4.7162096922078525e-02 4.5349804099827376e-02 0.0000000000000000e+00  -2.1040264608246526e-01 -8.3477079822063954e-02 0.0000000000000000e+00  -8.0713470465464954e-02 -1.0402382315863649e-01 0.0000000000000000e+00  0.0000000000000000e+00 0.0000000000000000e+00 0.0000000000000000e+00  0.0000000000000000e+00 0.0000000000000000e+00 0.0000000000000000e+00  -4.3250816511302102e-02 8.5603392044992552e-02 0.0000000000000000e+00  -5.3930690215650549e-02 6.1858840341623138e-02 0.0000000000000000e+00  -5.4080061724611800e-02 4.3534197086147086e-02 0.0000000000000000e+00  -5.3070169631173642e-02 3.3229824811599716e-02 0.0000000000000000e+00  -5.2847949777120394e-02 3.0279643143643901e-02 0.0000000000000000e+00  -5.9480423279755293e-02 4.1725676205696248e-02 0.0000000000000000e+00  -2.5413110815093620e-02 9.7383921710517782e-02 0.0000000000000000e+00  -3.5067308655320512e-01 -6.8471349722701566e-02 0.0000000000000000e+00  -2.4885489691285201e-01 -5.6365956677723439e-01 0.0000000000000000e+00  0.0000000000000000e+00 0.0000000000000000e+00 0.0000000000000000e+00  0.0000000000000000e+00 0.0000000000000000e+00 0.0000000000000000e+00  -5.4501663890272146e-02 9.0023524065825311e-02 0.0000000000000000e+00  -4.2011778636868891e-02 5.3549556736026294e-02 0.0000000000000000e+00  -3.4719175545375937e-02 3.6220164316954295e-02 0.0000000000000000e+00  -2.7093904334960912e-02 2.7229854123221802e-02 0.0000000000000000e+00  -1.6571669227360409e-02 2.3061033467373770e-02 0.0000000000000000e+00  1.2531042301921907e-03 3.1111542440317969e-02 0.0000000000000000e+00  3.6536381147273270e-02 7.7073102066383389e-02 0.0000000000000000e+00  -1.2959413004310891e-02 1.5001587826463508e-01 0.0000000000000000e+00  8.9411090961205045e-02 -5.7646188638811107e-03 0.0000000000000000e+00  0.0000000000000000e+00 0.0000000000000000e+00 0.0000000000000000e+00  0.0000000000000000e+00 0.0000000000000000e+00 0.0000000000000000e+00  1.0000000000000000e+00 0.0000000000000000e+00 0.0000000000000000e+00  1.0000000000000000e+00 0.0000000000000000e+00 0.0000000000000000e+00  1.0000000000000000e+00 0.0000000000000000e+00 0.0000000000000000e+00  1.0000000000000000e+00 0.0000000000000000e+00 0.0000000000000000e+00  1.0000000000000000e+00 0.0000000000000000e+00 0.0000000000000000e+00  1.0000000000000000e+00 0.0000000000000000e+00 0.0000000000000000e+00  1.0000000000000000e+00 0.0000000000000000e+00 0.0000000000000000e+00  1.0000000000000000e+00 0.0000000000000000e+00 0.0000000000000000e+00  1.0000000000000000e+00 0.0000000000000000e+00 0.0000000000000000e+00  0.0000000000000000e+00 0.0000000000000000e+00 0.0000000000000000e+00  </DataArray> 
</PointData> 
</Piece>
</UnstructuredGrid>
</VTKFile>