<?xml version="1.0"?>
<VTKFile type="UnstructuredGrid"  version="0.1"  >
<UnstructuredGrid>
<Piece  NumberOfPoints="121" NumberOfCells="200">
<Points>
<DataArray  type="Float64"  NumberOfComponents="3"  format="ascii">0 0 0  0.1 0 0  0.2 0 0  0.3 0 0  0.4 0 0  0.5 0 0  0.6 0 0  0.7 0 0  0.8 0 0  0.9 0 0  1 0 0  0 0.1 0  0.1 0.1 0  0.2 0.1 0  0.3 0.1 0  0.4 0.1 0  0.5 0.1 0  0.6 0.1 0  0.7 0.1 0  0.8 0.1 0  0.9 0.1 0  1 0.1 0  0 0.2 0  0.1 0.2 0  0.2 0.2 0  0.3 0.2 0  0.4 0.2 0  0.5 0.2 0  0.6 0.2 0  0.7 0.2 0  0.8 0.2 0  0.9 0.2 0  1 0.2 0  0 0.3 0  0.1 0.3 0  0.2 0.3 0  0.3 0.3 0  0.4 0.3 0  0.5 0.3 0  0.6 0.3 0  0.7 0.3 0  0.8 0.3 0  0.9 0.3 0  1 0.3 0  0 0.4 0  0.1 0.4 0  0.2 0.4 0  0.3 0.4 0  0.4 0.4 0  0.5 0.4 0  0.6 0.4 0  0.7 0.4 0  0.8 0.4 0  0.9 0.4 0  1 0.4 0  0 0.5 0  0.1 0.5 0  0.2 0.5 0  0.3 0.5 0  0.4 0.5 0  0.5 0.5 0  0.6 0.5 0  0.7 0.5 0  0.8 0.5 0  0.9 0.5 0  1 0.5 0  0 0.6 0  0.1 0.6 0  0.2 0.6 0  0.3 0.6 0  0.4 0.6 0  0.5 0.6 0  0.6 0.6 0  0.7 0.6 0  0.8 0.6 0  0.9 0.6 0  1 0.6 0  0 0.7 0  0.1 0.7 0  0.2 0.7 0  0.3 0.7 0  0.4 0.7 0  0.5 0.7 0  0.6 0.7 0  0.7 0.7 0  0.8 0.7 0  0.9 0.7 0  1 0.7 0  0 0.8 0  0.1 0.8 0  0.2 0.8 0  0.3 0.8 0  0.4 0.8 0  0.5 0.8 0  0.6 0.8 0  0.7 0.8 0  0.8 0.8 0  0.9 0.8 0  1 0.8 0  0 0.9 0  0.1 0.9 0  0.2 0.9 0  0.3 0.9 0  0.4 0.9 0  0.5 0.9 0  0.6 0.9 0  0.7 0.9 0  0.8 0.9 0  0.9 0.9 0  1 0.9 0  0 1 0  0.1 1 0  0.2 1 0  0.3 1 0  0.4 1 0  0.5 1 0  0.6 1 0  0.7 1 0  0.8 1 0  0.9 1 0  1 1 0  </DataArray>
</Points>
<Cells>
<DataArray  type="UInt32"  Name="connectivity"  format="ascii">0 1 12  0 11 12  1 2 13  1 12 13  2 3 14  2 13 14  3 4 15  3 14 15  4 5 16  4 15 16  5 6 17  5 16 17  6 7 18  6 17 18  7 8 19  7 18 19  8 9 20  8 19 20  9 10 21  9 20 21  11 12 23  11 22 23  12 13 24  12 23 24  13 14 25  13 24 25  14 15 26  14 25 26  15 16 27  15 26 27  16 17 28  16 27 28  17 18 29  17 28 29  18 19 30  18 29 30  19 20 31  19 30 31  20 21 32  20 31 32  22 23 34  22 33 34  23 24 35  23 34 35  24 25 36  24 35 36  25 26 37  25 36 37  26 27 38  26 37 38  27 28 39  27 38 39  28 29 40  28 39 40  29 30 41  29 40 41  30 31 42  30 41 42  31 32 43  31 42 43  33 34 45  33 44 45  34 35 46  34 45 46  35 36 47  35 46 47  36 37 48  36 47 48  37 38 49  37 48 49  38 39 50  38 49 50  39 40 51  39 50 51  40 41 52  40 51 52  41 42 53  41 52 53  42 43 54  42 53 54  44 45 56  44 55 56  45 46 57  45 56 57  46 47 58  46 57 58  47 48 59  47 58 59  48 49 60  48 59 60  49 50 61  49 60 61  50 51 62  50 61 62  51 52 63  51 62 63  52 53 64  52 63 64  53 54 65  53 64 65  55 56 67  55 66 67  56 57 68  56 67 68  57 58 69  57 68 69  58 59 70  58 69 70  59 60 71  59 70 71  60 61 72  60 71 72  61 62 73  61 72 73  62 63 74  62 73 74  63 64 75  63 74 75  64 65 76  64 75 76  66 67 78  66 77 78  67 68 79  67 78 79  68 69 80  68 79 80  69 70 81  69 80 81  70 71 82  70 81 82  71 72 83  71 82 83  72 73 84  72 83 84  73 74 85  73 84 85  74 75 86  74 85 86  75 76 87  75 86 87  77 78 89  77 88 89  78 79 90  78 89 90  79 80 91  79 90 91  80 81 92  80 91 92  81 82 93  81 92 93  82 83 94  82 93 94  83 84 95  83 94 95  84 85 96  84 95 96  85 86 97  85 96 97  86 87 98  86 97 98  88 89 100  88 99 100  89 90 101  89 100 101  90 91 102  90 101 102  91 92 103  91 102 103  92 93 104  92 103 104  93 94 105  93 104 105  94 95 106  94 105 106  95 96 107  95 106 107  96 97 108  96 107 108  97 98 109  97 108 109  99 100 111  99 110 111  100 101 112  100 111 112  101 102 113  101 112 113  102 103 114  102 113 114  103 104 115  103 114 115  104 105 116  104 115 116  105 106 117  105 116 117  106 107 118  106 117 118  107 108 119  107 118 119  108 109 120  108 119 120  </DataArray>
<DataArray  type="UInt32"  Name="offsets"  format="ascii">3 6 9 12 15 18 21 24 27 30 33 36 39 42 45 48 51 54 57 60 63 66 69 72 75 78 81 84 87 90 93 96 99 102 105 108 111 114 117 120 123 126 129 132 135 138 141 144 147 150 153 156 159 162 165 168 171 174 177 180 183 186 189 192 195 198 201 204 207 210 213 216 219 222 225 228 231 234 237 240 243 246 249 252 255 258 261 264 267 270 273 276 279 282 285 288 291 294 297 300 303 306 309 312 315 318 321 324 327 330 333 336 339 342 345 348 351 354 357 360 363 366 369 372 375 378 381 384 387 390 393 396 399 402 405 408 411 414 417 420 423 426 429 432 435 438 441 444 447 450 453 456 459 462 465 468 471 474 477 480 483 486 489 492 495 498 501 504 507 510 513 516 519 522 525 528 531 534 537 540 543 546 549 552 555 558 561 564 567 570 573 576 579 582 585 588 591 594 597 600 </DataArray>
<DataArray  type="UInt8"  Name="types"  format="ascii">5 5 5 5 5 5 5 5 5 5 5 5 5 5 5 5 5 5 5 5 5 5 5 5 5 5 5 5 5 5 5 5 5 5 5 5 5 5 5 5 5 5 5 5 5 5 5 5 5 5 5 5 5 5 5 5 5 5 5 5 5 5 5 5 5 5 5 5 5 5 5 5 5 5 5 5 5 5 5 5 5 5 5 5 5 5 5 5 5 5 5 5 5 5 5 5 5 5 5 5 5 5 5 5 5 5 5 5 5 5 5 5 5 5 5 5 5 5 5 5 5 5 5 5 5 5 5 5 5 5 5 5 5 5 5 5 5 5 5 5 5 5 5 5 5 5 5 5 5 5 5 5 5 5 5 5 5 5 5 5 5 5 5 5 5 5 5 5 5 5 5 5 5 5 5 5 5 5 5 5 5 5 5 5 5 5 5 5 5 5 5 5 5 5 5 5 5 5 5 5 </DataArray>
</Cells>
<PointData  Vectors="f_22-0"> 
<DataArray  type="Float64"  Name="f_22-0"  NumberOfComponents="3" format="ascii">0.0000000000000000e+00 0.0000000000000000e+00 0.0000000000000000e+00  -1.0598314573445993e-06 2.0241318922885030e-05 0.0000000000000000e+00  -2.1521227678163964e-06 2.1035157209927992e-05 0.0000000000000000e+00  -3.0942530164057072e-06 1.6577547978278921e-05 0.0000000000000000e+00  -3.7465149650117729e-06 9.6429322356860685e-06 0.0000000000000000e+00  -4.0113922789435655e-06 1.2426657674420623e-06 0.0000000000000000e+00  -3.8231301207069683e-06 -7.6853101294261022e-06 0.0000000000000000e+00  -3.1756349150615813e-06 -1.5978251249973645e-05 0.0000000000000000e+00  -2.1345601776560183e-06 -2.1926703254897370e-05 0.0000000000000000e+00  -1.1506357319079574e-06 -2.1911426765264150e-05 0.0000000000000000e+00  0.0000000000000000e+00 0.0000000000000000e+00 0.0000000000000000e+00  0.0000000000000000e+00 0.0000000000000000e+00 0.0000000000000000e+00  -2.9469297018003809e-03 2.8369494944211933e-03 0.0000000000000000e+00  -6.5056659672968900e-03 2.4822663424946051e-03 0.0000000000000000e+00  -9.3779478611642642e-03 1.8685490938905984e-03 0.0000000000000000e+00  -1.1284045361368554e-02 1.0607041404035525e-03 0.0000000000000000e+00  -1.2020274335446333e-02 1.2196724440072795e-04 0.0000000000000000e+00  -1.1479199913981410e-02 -8.7247762800957433e-04 0.0000000000000000e+00  -9.6617328671657690e-03 -1.8246100308610660e-03 0.0000000000000000e+00  -6.7318881310540280e-03 -2.6215420710967484e-03 0.0000000000000000e+00  -2.9771268161584859e-03 -2.9254329164922666e-03 0.0000000000000000e+00  0.0000000000000000e+00 0.0000000000000000e+00 0.0000000000000000e+00  0.0000000000000000e+00 0.0000000000000000e+00 0.0000000000000000e+00  -3.3435023039973862e-03 6.8144708125615610e-03 0.0000000000000000e+00  -7.3542511253228797e-03 5.9625729724393393e-03 0.0000000000000000e+00  -1.0666036372522046e-02 4.4793716951180380e-03 0.0000000000000000e+00  -1.2905715429780236e-02 2.5454235118045347e-03 0.0000000000000000e+00  -1.3855455966979870e-02 3.1062548914813142e-04 0.0000000000000000e+00  -1.3374303367296407e-02 -2.0614946261446245e-03 0.0000000000000000e+00  -1.1399329645010552e-02 -4.3549426167807642e-03 0.0000000000000000e+00  -8.0553248229158023e-03 -6.2832859922740784e-03 0.0000000000000000e+00  -3.6643859936596108e-03 -7.2262598622180110e-03 0.0000000000000000e+00  0.0000000000000000e+00 0.0000000000000000e+00 0.0000000000000000e+00  0.0000000000000000e+00 0.0000000000000000e+00 0.0000000000000000e+00  -4.1015389798020356e-03 1.1484327400619212e-02 0.0000000000000000e+00  -8.9728946126594305e-03 1.0084395056566864e-02 0.0000000000000000e+00  -1.2961813565758519e-02 7.5662020986318511e-03 0.0000000000000000e+00  -1.5681030406100641e-02 4.3487971995448300e-03 0.0000000000000000e+00  -1.6923243475085774e-02 6.5593555257820429e-04 0.0000000000000000e+00  -1.6521393087405873e-02 -3.3024876361780289e-03 0.0000000000000000e+00  -1.4311985953348906e-02 -7.2405208830212033e-03 0.0000000000000000e+00  -1.0282083102080682e-02 -1.0698657207353801e-02 0.0000000000000000e+00  -4.6965618594372264e-03 -1.2526114159172434e-02 0.0000000000000000e+00  0.0000000000000000e+00 0.0000000000000000e+00 0.0000000000000000e+00  0.0000000000000000e+00 0.0000000000000000e+00 0.0000000000000000e+00  -5.3479289114426462e-03 1.7373637689678218e-02 0.0000000000000000e+00  -1.1574903974066015e-02 1.5198394218165266e-02 0.0000000000000000e+00  -1.6565879328494720e-02 1.1357499076895514e-02 0.0000000000000000e+00  -1.9943667762195836e-02 6.6319848555164585e-03 0.0000000000000000e+00  -2.1616515377533289e-02 1.3188711829343858e-03 0.0000000000000000e+00  -2.1508676544781131e-02 -4.4737287522769245e-03 0.0000000000000000e+00  -1.9207541708047778e-02 -1.0646537766311560e-02 0.0000000000000000e+00  -1.4204711797847505e-02 -1.6461522628973699e-02 0.0000000000000000e+00  -6.4826079164888289e-03 -1.9721277570959091e-02 0.0000000000000000e+00  0.0000000000000000e+00 0.0000000000000000e+00 0.0000000000000000e+00  0.0000000000000000e+00 0.0000000000000000e+00 0.0000000000000000e+00  -7.3582851412146745e-03 2.5162752063591573e-02 0.0000000000000000e+00  -1.5576413465821505e-02 2.1714546706958448e-02 0.0000000000000000e+00  -2.1802825178464196e-02 1.6008656629863425e-02 0.0000000000000000e+00  -2.5835397122710164e-02 9.5003182936807210e-03 0.0000000000000000e+00  -2.8140964243994305e-02 2.4278365959968882e-03 0.0000000000000000e+00  -2.8956656527990565e-02 -5.6389683766130709e-03 0.0000000000000000e+00  -2.6817860160475885e-02 -1.4921708759505114e-02 0.0000000000000000e+00  -2.0519247457005743e-02 -2.4009991532672404e-02 0.0000000000000000e+00  -9.8220257859453434e-03 -2.9096695013740320e-02 0.0000000000000000e+00  0.0000000000000000e+00 0.0000000000000000e+00 0.0000000000000000e+00  0.0000000000000000e+00 0.0000000000000000e+00 0.0000000000000000e+00  -1.0878514325554799e-02 3.5894512792217247e-02 0.0000000000000000e+00  -2.1868389584934152e-02 3.0022024056684138e-02 0.0000000000000000e+00  -2.9166524321165704e-02 2.1371439065155869e-02 0.0000000000000000e+00  -3.3325348449201250e-02 1.2702388236927159e-02 0.0000000000000000e+00  -3.6437006749137871e-02 4.0137993657053308e-03 0.0000000000000000e+00  -3.7975645872501934e-02 -4.4896810436199572e-03 0.0000000000000000e+00  -3.6872916342554622e-02 -1.2255382348322491e-02 0.0000000000000000e+00  -3.3885436783639609e-02 -2.4300541519252525e-02 0.0000000000000000e+00  -1.8970580239031500e-02 -4.5746577122751805e-02 0.0000000000000000e+00  0.0000000000000000e+00 0.0000000000000000e+00 0.0000000000000000e+00  0.0000000000000000e+00 0.0000000000000000e+00 0.0000000000000000e+00  -1.8402759332948222e-02 5.1893913474035221e-02 0.0000000000000000e+00  -3.2999080122000646e-02 4.0029137616348472e-02 0.0000000000000000e+00  -3.9458639358716512e-02 2.6427085838364811e-02 0.0000000000000000e+00  -4.2120504444908051e-02 1.5548617921780654e-02 0.0000000000000000e+00  -4.5294289758755484e-02 6.7671120808535518e-03 0.0000000000000000e+00  -4.2773209837712038e-02 -6.5085635383998976e-04 0.0000000000000000e+00  -5.9669087785401871e-02 -2.2446504253691508e-02 0.0000000000000000e+00  -7.1976730444850728e-02 -8.3160069143876011e-02 0.0000000000000000e+00  -2.1362826543012151e-02 -1.1076554576125545e-01 0.0000000000000000e+00  0.0000000000000000e+00 0.0000000000000000e+00 0.0000000000000000e+00  0.0000000000000000e+00 0.0000000000000000e+00 0.0000000000000000e+00  -4.3685318029581005e-02 7.2402247083092203e-02 0.0000000000000000e+00  -5.4431795996468767e-02 4.7709488489447970e-02 0.0000000000000000e+00  -5.4649581311635095e-02 2.8014162891153480e-02 0.0000000000000000e+00  -5.3373477845510706e-02 1.6257166928474443e-02 0.0000000000000000e+00  -5.3063084953170414e-02 8.7056993214316442e-03 0.0000000000000000e+00  -4.8029584605498346e-02 2.1102872971078624e-03 0.0000000000000000e+00  -9.9782132534333129e-02 6.5626764632605054e-03 0.0000000000000000e+00  -6.0196070076968901e-02 8.0445287724716985e-02 0.0000000000000000e+00  -1.0762779865456019e-01 -4.7478270594390859e-02 0.0000000000000000e+00  0.0000000000000000e+00 0.0000000000000000e+00 0.0000000000000000e+00  0.0000000000000000e+00 0.0000000000000000e+00 0.0000000000000000e+00  -3.9500450421830445e-02 7.0406399196073596e-02 0.0000000000000000e+00  -5.0074928934611559e-02 3.9035995706203135e-02 0.0000000000000000e+00  -5.6737585184685968e-02 2.1509552034048380e-02 0.0000000000000000e+00  -5.8269124887884133e-02 1.2680998691447447e-02 0.0000000000000000e+00  -5.9167975533585208e-02 7.5941038622983383e-03 0.0000000000000000e+00  -6.2487016243890470e-02 4.0330412274582313e-03 0.0000000000000000e+00  -6.7730641622973195e-02 1.1234708490232668e-02 0.0000000000000000e+00  2.2485553017350474e-02 6.0588734016162514e-02 0.0000000000000000e+00  -2.5607215448387360e-01 -4.2052327710584003e-01 0.0000000000000000e+00  0.0000000000000000e+00 0.0000000000000000e+00 0.0000000000000000e+00  0.0000000000000000e+00 0.0000000000000000e+00 0.0000000000000000e+00  1.0000000000000000e+00 0.0000000000000000e+00 0.0000000000000000e+00  1.0000000000000000e+00 0.0000000000000000e+00 0.0000000000000000e+00  1.0000000000000000e+00 0.0000000000000000e+00 0.0000000000000000e+00  1.0000000000000000e+00 0.0000000000000000e+00 0.0000000000000000e+00  1.0000000000000000e+00 0.0000000000000000e+00 0.0000000000000000e+00  1.0000000000000000e+00 0.0000000000000000e+00 0.0000000000000000e+00  1.0000000000000000e+00 0.0000000000000000e+00 0.0000000000000000e+00  1.0000000000000000e+00 0.0000000000000000e+00 0.0000000000000000e+00  1.0000000000000000e+00 0.0000000000000000e+00 0.0000000000000000e+00  0.0000000000000000e+00 0.0000000000000000e+00 0.0000000000000000e+00  </DataArray> 
</PointData> 
</Piece>
</UnstructuredGrid>
</VTKFile>