<?xml version="1.0"?>
<VTKFile type="UnstructuredGrid"  version="0.1"  >
<UnstructuredGrid>
<Piece  NumberOfPoints="121" NumberOfCells="200">
<Points>
<DataArray  type="Float64"  NumberOfComponents="3"  format="ascii">0 0 0  0.1 0 0  0.2 0 0  0.3 0 0  0.4 0 0  0.5 0 0  0.6 0 0  0.7 0 0  0.8 0 0  0.9 0 0  1 0 0  0 0.1 0  0.1 0.1 0  0.2 0.1 0  0.3 0.1 0  0.4 0.1 0  0.5 0.1 0  0.6 0.1 0  0.7 0.1 0  0.8 0.1 0  0.9 0.1 0  1 0.1 0  0 0.2 0  0.1 0.2 0  0.2 0.2 0  0.3 0.2 0  0.4 0.2 0  0.5 0.2 0  0.6 0.2 0  0.7 0.2 0  0.8 0.2 0  0.9 0.2 0  1 0.2 0  0 0.3 0  0.1 0.3 0  0.2 0.3 0  0.3 0.3 0  0.4 0.3 0  0.5 0.3 0  0.6 0.3 0  0.7 0.3 0  0.8 0.3 0  0.9 0.3 0  1 0.3 0  0 0.4 0  0.1 0.4 0  0.2 0.4 0  0.3 0.4 0  0.4 0.4 0  0.5 0.4 0  0.6 0.4 0  0.7 0.4 0  0.8 0.4 0  0.9 0.4 0  1 0.4 0  0 0.5 0  0.1 0.5 0  0.2 0.5 0  0.3 0.5 0  0.4 0.5 0  0.5 0.5 0  0.6 0.5 0  0.7 0.5 0  0.8 0.5 0  0.9 0.5 0  1 0.5 0  0 0.6 0  0.1 0.6 0  0.2 0.6 0  0.3 0.6 0  0.4 0.6 0  0.5 0.6 0  0.6 0.6 0  0.7 0.6 0  0.8 0.6 0  0.9 0.6 0  1 0.6 0  0 0.7 0  0.1 0.7 0  0.2 0.7 0  0.3 0.7 0  0.4 0.7 0  0.5 0.7 0  0.6 0.7 0  0.7 0.7 0  0.8 0.7 0  0.9 0.7 0  1 0.7 0  0 0.8 0  0.1 0.8 0  0.2 0.8 0  0.3 0.8 0  0.4 0.8 0  0.5 0.8 0  0.6 0.8 0  0.7 0.8 0  0.8 0.8 0  0.9 0.8 0  1 0.8 0  0 0.9 0  0.1 0.9 0  0.2 0.9 0  0.3 0.9 0  0.4 0.9 0  0.5 0.9 0  0.6 0.9 0  0.7 0.9 0  0.8 0.9 0  0.9 0.9 0  1 0.9 0  0 1 0  0.1 1 0  0.2 1 0  0.3 1 0  0.4 1 0  0.5 1 0  0.6 1 0  0.7 1 0  0.8 1 0  0.9 1 0  1 1 0  </DataArray>
</Points>
<Cells>
<DataArray  type="UInt32"  Name="connectivity"  format="ascii">0 1 12  0 11 12  1 2 13  1 12 13  2 3 14  2 13 14  3 4 15  3 14 15  4 5 16  4 15 16  5 6 17  5 16 17  6 7 18  6 17 18  7 8 19  7 18 19  8 9 20  8 19 20  9 10 21  9 20 21  11 12 23  11 22 23  12 13 24  12 23 24  13 14 25  13 24 25  14 15 26  14 25 26  15 16 27  15 26 27  16 17 28  16 27 28  17 18 29  17 28 29  18 19 30  18 29 30  19 20 31  19 30 31  20 21 32  20 31 32  22 23 34  22 33 34  23 24 35  23 34 35  24 25 36  24 35 36  25 26 37  25 36 37  26 27 38  26 37 38  27 28 39  27 38 39  28 29 40  28 39 40  29 30 41  29 40 41  30 31 42  30 41 42  31 32 43  31 42 43  33 34 45  33 44 45  34 35 46  34 45 46  35 36 47  35 46 47  36 37 48  36 47 48  37 38 49  37 48 49  38 39 50  38 49 50  39 40 51  39 50 51  40 41 52  40 51 52  41 42 53  41 52 53  42 43 54  42 53 54  44 45 56  44 55 56  45 46 57  45 56 57  46 47 58  46 57 58  47 48 59  47 58 59  48 49 60  48 59 60  49 50 61  49 60 61  50 51 62  50 61 62  51 52 63  51 62 63  52 53 64  52 63 64  53 54 65  53 64 65  55 56 67  55 66 67  56 57 68  56 67 68  57 58 69  57 68 69  58 59 70  58 69 70  59 60 71  59 70 71  60 61 72  60 71 72  61 62 73  61 72 73  62 63 74  62 73 74  63 64 75  63 74 75  64 65 76  64 75 76  66 67 78  66 77 78  67 68 79  67 78 79  68 69 80  68 79 80  69 70 81  69 80 81  70 71 82  70 81 82  71 72 83  71 82 83  72 73 84  72 83 84  73 74 85  73 84 85  74 75 86  74 85 86  75 76 87  75 86 87  77 78 89  77 88 89  78 79 90  78 89 90  79 80 91  79 90 91  80 81 92  80 91 92  81 82 93  81 92 93  82 83 94  82 93 94  83 84 95  83 94 95  84 85 96  84 95 96  85 86 97  85 96 97  86 87 98  86 97 98  88 89 100  88 99 100  89 90 101  89 100 101  90 91 102  90 101 102  91 92 103  91 102 103  92 93 104  92 103 104  93 94 105  93 104 105  94 95 106  94 105 106  95 96 107  95 106 107  96 97 108  96 107 108  97 98 109  97 108 109  99 100 111  99 110 111  100 101 112  100 111 112  101 102 113  101 112 113  102 103 114  102 113 114  103 104 115  103 114 115  104 105 116  104 115 116  105 106 117  105 116 117  106 107 118  106 117 118  107 108 119  107 118 119  108 109 120  108 119 120  </DataArray>
<DataArray  type="UInt32"  Name="offsets"  format="ascii">3 6 9 12 15 18 21 24 27 30 33 36 39 42 45 48 51 54 57 60 63 66 69 72 75 78 81 84 87 90 93 96 99 102 105 108 111 114 117 120 123 126 129 132 135 138 141 144 147 150 153 156 159 162 165 168 171 174 177 180 183 186 189 192 195 198 201 204 207 210 213 216 219 222 225 228 231 234 237 240 243 246 249 252 255 258 261 264 267 270 273 276 279 282 285 288 291 294 297 300 303 306 309 312 315 318 321 324 327 330 333 336 339 342 345 348 351 354 357 360 363 366 369 372 375 378 381 384 387 390 393 396 399 402 405 408 411 414 417 420 423 426 429 432 435 438 441 444 447 450 453 456 459 462 465 468 471 474 477 480 483 486 489 492 495 498 501 504 507 510 513 516 519 522 525 528 531 534 537 540 543 546 549 552 555 558 561 564 567 570 573 576 579 582 585 588 591 594 597 600 </DataArray>
<DataArray  type="UInt8"  Name="types"  format="ascii">5 5 5 5 5 5 5 5 5 5 5 5 5 5 5 5 5 5 5 5 5 5 5 5 5 5 5 5 5 5 5 5 5 5 5 5 5 5 5 5 5 5 5 5 5 5 5 5 5 5 5 5 5 5 5 5 5 5 5 5 5 5 5 5 5 5 5 5 5 5 5 5 5 5 5 5 5 5 5 5 5 5 5 5 5 5 5 5 5 5 5 5 5 5 5 5 5 5 5 5 5 5 5 5 5 5 5 5 5 5 5 5 5 5 5 5 5 5 5 5 5 5 5 5 5 5 5 5 5 5 5 5 5 5 5 5 5 5 5 5 5 5 5 5 5 5 5 5 5 5 5 5 5 5 5 5 5 5 5 5 5 5 5 5 5 5 5 5 5 5 5 5 5 5 5 5 5 5 5 5 5 5 5 5 5 5 5 5 5 5 5 5 5 5 5 5 5 5 5 5 </DataArray>
</Cells>
<PointData  Vectors="f_22-0"> 
<DataArray  type="Float64"  Name="f_22-0"  NumberOfComponents="3" format="ascii">0.0000000000000000e+00 0.0000000000000000e+00 0.0000000000000000e+00  -8.8766747934092321e-07 1.4737383587443281e-05 0.0000000000000000e+00  -1.9612266004053975e-06 1.5603419291632020e-05 0.0000000000000000e+00  -2.9720216815581039e-06 1.2620160227722687e-05 0.0000000000000000e+00  -3.7398648581437989e-06 7.6486377948370333e-06 0.0000000000000000e+00  -4.1234634213543712e-06 1.3273740331633576e-06 0.0000000000000000e+00  -4.0081019449762860e-06 -5.6187677429537341e-06 0.0000000000000000e+00  -3.3631395930408096e-06 -1.2140557142534755e-05 0.0000000000000000e+00  -2.2729664284956941e-06 -1.6698007493577453e-05 0.0000000000000000e+00  -1.1849120209409658e-06 -1.6454585403829801e-05 0.0000000000000000e+00  0.0000000000000000e+00 0.0000000000000000e+00 0.0000000000000000e+00  0.0000000000000000e+00 0.0000000000000000e+00 0.0000000000000000e+00  -3.6300676779082845e-03 3.4856507676959379e-03 0.0000000000000000e+00  -8.7798199858218646e-03 3.2683483369443976e-03 0.0000000000000000e+00  -1.3096588919414735e-02 2.5930249892459054e-03 0.0000000000000000e+00  -1.6148919161623598e-02 1.6206270497202302e-03 0.0000000000000000e+00  -1.7545474557140166e-02 3.8938977820738571e-04 0.0000000000000000e+00  -1.6993321130752814e-02 -1.0186982297967788e-03 0.0000000000000000e+00  -1.4370540209224236e-02 -2.4405727593588256e-03 0.0000000000000000e+00  -9.8839183426836976e-03 -3.6208822403339200e-03 0.0000000000000000e+00  -4.1040794814687243e-03 -4.0898653360430196e-03 0.0000000000000000e+00  0.0000000000000000e+00 0.0000000000000000e+00 0.0000000000000000e+00  0.0000000000000000e+00 0.0000000000000000e+00 0.0000000000000000e+00  -4.2165725101968206e-03 9.1147805115453420e-03 0.0000000000000000e+00  -1.0030594765255691e-02 8.4030417292567852e-03 0.0000000000000000e+00  -1.4997489115140848e-02 6.6471435677935486e-03 0.0000000000000000e+00  -1.8608990524164305e-02 4.1697796726186745e-03 0.0000000000000000e+00  -2.0443318600280508e-02 1.0539924953549570e-03 0.0000000000000000e+00  -2.0100170822093828e-02 -2.5785369038674334e-03 0.0000000000000000e+00  -1.7245787839680338e-02 -6.3338554124440791e-03 0.0000000000000000e+00  -1.1972817777302251e-02 -9.4237031486136460e-03 0.0000000000000000e+00  -5.0562413863889290e-03 -1.0765941685838280e-02 0.0000000000000000e+00  0.0000000000000000e+00 0.0000000000000000e+00 0.0000000000000000e+00  0.0000000000000000e+00 0.0000000000000000e+00 0.0000000000000000e+00  -5.0073700578756614e-03 1.5571903140578302e-02 0.0000000000000000e+00  -1.1915015730738953e-02 1.4380679289024098e-02 0.0000000000000000e+00  -1.7849088312911425e-02 1.1481194194385841e-02 0.0000000000000000e+00  -2.2385033493162173e-02 7.3856480849549874e-03 0.0000000000000000e+00  -2.5113732749073286e-02 2.0415378130763601e-03 0.0000000000000000e+00  -2.5282129810553135e-02 -4.3711108023561842e-03 0.0000000000000000e+00  -2.2136847860729079e-02 -1.0930251316005345e-02 0.0000000000000000e+00  -1.5546286250753218e-02 -1.6331833041767219e-02 0.0000000000000000e+00  -6.6076082593171329e-03 -1.8900625827603920e-02 0.0000000000000000e+00  0.0000000000000000e+00 0.0000000000000000e+00 0.0000000000000000e+00  0.0000000000000000e+00 0.0000000000000000e+00 0.0000000000000000e+00  -6.2804645222237282e-03 2.3434361744456914e-02 0.0000000000000000e+00  -1.4787875036364063e-02 2.1635627322489050e-02 0.0000000000000000e+00  -2.2095997970439180e-02 1.7438477777149818e-02 0.0000000000000000e+00  -2.8112638362104071e-02 1.1615562007142498e-02 0.0000000000000000e+00  -3.2084791494153338e-02 4.5868889527652555e-03 0.0000000000000000e+00  -3.3334474101819861e-02 -3.7709433435452475e-03 0.0000000000000000e+00  -3.0761771133132720e-02 -1.4404411494236805e-02 0.0000000000000000e+00  -2.2203050579747471e-02 -2.5645094785641101e-02 0.0000000000000000e+00  -9.4453066325702571e-03 -3.1356516483321585e-02 0.0000000000000000e+00  0.0000000000000000e+00 0.0000000000000000e+00 0.0000000000000000e+00  0.0000000000000000e+00 0.0000000000000000e+00 0.0000000000000000e+00  -8.2635473056427173e-03 3.3401987889783588e-02 0.0000000000000000e+00  -1.8955051229699555e-02 3.0573721395916662e-02 0.0000000000000000e+00  -2.8060079767166120e-02 2.4689663729452280e-02 0.0000000000000000e+00  -3.5382812288103707e-02 1.7556835555189519e-02 0.0000000000000000e+00  -4.0158095195768156e-02 9.3862506928060890e-03 0.0000000000000000e+00  -4.6959319655964941e-02 -4.5332420103647323e-03 0.0000000000000000e+00  -4.7463389035032194e-02 -2.5237767482404846e-02 0.0000000000000000e+00  -3.3048699750880872e-02 -4.4013625099023596e-02 0.0000000000000000e+00  -1.1986847404066976e-02 -4.9158530854609778e-02 0.0000000000000000e+00  0.0000000000000000e+00 0.0000000000000000e+00 0.0000000000000000e+00  0.0000000000000000e+00 0.0000000000000000e+00 0.0000000000000000e+00  -1.1561430403885138e-02 4.6482497004257876e-02 0.0000000000000000e+00  -2.5278320160827331e-02 4.1445186159645618e-02 0.0000000000000000e+00  -3.5904449728784066e-02 3.3014603981567837e-02 0.0000000000000000e+00  -4.2829912956374082e-02 2.5018468705926250e-02 0.0000000000000000e+00  -4.9258290917386212e-02 1.6466723416966977e-02 0.0000000000000000e+00  -7.0221815811222402e-02 1.4020394948103180e-03 0.0000000000000000e+00  -7.0144950572893716e-02 -2.6311852621019181e-02 0.0000000000000000e+00  -5.9551576112905284e-02 -5.8575662930178955e-02 0.0000000000000000e+00  -1.8801114680845974e-02 -7.5600440206183103e-02 0.0000000000000000e+00  0.0000000000000000e+00 0.0000000000000000e+00 0.0000000000000000e+00  0.0000000000000000e+00 0.0000000000000000e+00 0.0000000000000000e+00  -1.8047569871038647e-02 6.4560449515699087e-02 0.0000000000000000e+00  -3.5998358044099767e-02 5.3739678263040776e-02 0.0000000000000000e+00  -4.5276553323183186e-02 4.0603372905292721e-02 0.0000000000000000e+00  -4.9638708649939828e-02 3.1439198542435313e-02 0.0000000000000000e+00  -5.5356210031557607e-02 2.5797291638419002e-02 0.0000000000000000e+00  -1.0058656757642304e-01 3.0458873187256409e-02 0.0000000000000000e+00  -4.7125888299825260e-02 5.1026358395931226e-02 0.0000000000000000e+00  -2.2718471212191982e-01 -9.4120261025214091e-02 0.0000000000000000e+00  -8.8021715084304231e-02 -9.9848506284235569e-02 0.0000000000000000e+00  0.0000000000000000e+00 0.0000000000000000e+00 0.0000000000000000e+00  0.0000000000000000e+00 0.0000000000000000e+00 0.0000000000000000e+00  -4.2852580682644310e-02 8.5878994971385153e-02 0.0000000000000000e+00  -5.3730098190452769e-02 6.2269942653178735e-02 0.0000000000000000e+00  -5.3935690775009940e-02 4.4032062105767961e-02 0.0000000000000000e+00  -5.2879457229865236e-02 3.3861613614562455e-02 0.0000000000000000e+00  -5.2336442133358273e-02 3.1248151187419117e-02 0.0000000000000000e+00  -5.9516294061028423e-02 4.3645179707741157e-02 0.0000000000000000e+00  -2.3691750702879408e-02 1.0284464366592143e-01 0.0000000000000000e+00  -3.3989307961012533e-01 -6.6787279199944566e-02 0.0000000000000000e+00  -2.3663675485284449e-01 -5.6534716841986798e-01 0.0000000000000000e+00  0.0000000000000000e+00 0.0000000000000000e+00 0.0000000000000000e+00  0.0000000000000000e+00 0.0000000000000000e+00 0.0000000000000000e+00  -5.3719065062310979e-02 9.0582766962113939e-02 0.0000000000000000e+00  -4.1389782636894121e-02 5.4014697942696373e-02 0.0000000000000000e+00  -3.3825251164804407e-02 3.6679376021477694e-02 0.0000000000000000e+00  -2.5817397707005550e-02 2.7699075942017069e-02 0.0000000000000000e+00  -1.4849347378279840e-02 2.3638067575366836e-02 0.0000000000000000e+00  4.4453762045057839e-03 3.2092163000591652e-02 0.0000000000000000e+00  3.8353298409867446e-02 8.1224036723488879e-02 0.0000000000000000e+00  -9.1081225771888000e-03 1.4514822856838136e-01 0.0000000000000000e+00  8.9989280971630864e-02 -2.5788684499327193e-03 0.0000000000000000e+00  0.0000000000000000e+00 0.0000000000000000e+00 0.0000000000000000e+00  0.0000000000000000e+00 0.0000000000000000e+00 0.0000000000000000e+00  1.0000000000000000e+00 0.0000000000000000e+00 0.0000000000000000e+00  1.0000000000000000e+00 0.0000000000000000e+00 0.0000000000000000e+00  1.0000000000000000e+00 0.0000000000000000e+00 0.0000000000000000e+00  1.0000000000000000e+00 0.0000000000000000e+00 0.0000000000000000e+00  1.0000000000000000e+00 0.0000000000000000e+00 0.0000000000000000e+00  1.0000000000000000e+00 0.0000000000000000e+00 0.0000000000000000e+00  1.0000000000000000e+00 0.0000000000000000e+00 0.0000000000000000e+00  1.0000000000000000e+00 0.0000000000000000e+00 0.0000000000000000e+00  1.0000000000000000e+00 0.0000000000000000e+00 0.0000000000000000e+00  0.0000000000000000e+00 0.0000000000000000e+00 0.0000000000000000e+00  </DataArray> 
</PointData> 
</Piece>
</UnstructuredGrid>
</VTKFile>