<?xml version="1.0"?>
<VTKFile type="UnstructuredGrid"  version="0.1"  >
<UnstructuredGrid>
<Piece  NumberOfPoints="121" NumberOfCells="200">
<Points>
<DataArray  type="Float64"  NumberOfComponents="3"  format="ascii">0 0 0  0.1 0 0  0.2 0 0  0.3 0 0  0.4 0 0  0.5 0 0  0.6 0 0  0.7 0 0  0.8 0 0  0.9 0 0  1 0 0  0 0.1 0  0.1 0.1 0  0.2 0.1 0  0.3 0.1 0  0.4 0.1 0  0.5 0.1 0  0.6 0.1 0  0.7 0.1 0  0.8 0.1 0  0.9 0.1 0  1 0.1 0  0 0.2 0  0.1 0.2 0  0.2 0.2 0  0.3 0.2 0  0.4 0.2 0  0.5 0.2 0  0.6 0.2 0  0.7 0.2 0  0.8 0.2 0  0.9 0.2 0  1 0.2 0  0 0.3 0  0.1 0.3 0  0.2 0.3 0  0.3 0.3 0  0.4 0.3 0  0.5 0.3 0  0.6 0.3 0  0.7 0.3 0  0.8 0.3 0  0.9 0.3 0  1 0.3 0  0 0.4 0  0.1 0.4 0  0.2 0.4 0  0.3 0.4 0  0.4 0.4 0  0.5 0.4 0  0.6 0.4 0  0.7 0.4 0  0.8 0.4 0  0.9 0.4 0  1 0.4 0  0 0.5 0  0.1 0.5 0  0.2 0.5 0  0.3 0.5 0  0.4 0.5 0  0.5 0.5 0  0.6 0.5 0  0.7 0.5 0  0.8 0.5 0  0.9 0.5 0  1 0.5 0  0 0.6 0  0.1 0.6 0  0.2 0.6 0  0.3 0.6 0  0.4 0.6 0  0.5 0.6 0  0.6 0.6 0  0.7 0.6 0  0.8 0.6 0  0.9 0.6 0  1 0.6 0  0 0.7 0  0.1 0.7 0  0.2 0.7 0  0.3 0.7 0  0.4 0.7 0  0.5 0.7 0  0.6 0.7 0  0.7 0.7 0  0.8 0.7 0  0.9 0.7 0  1 0.7 0  0 0.8 0  0.1 0.8 0  0.2 0.8 0  0.3 0.8 0  0.4 0.8 0  0.5 0.8 0  0.6 0.8 0  0.7 0.8 0  0.8 0.8 0  0.9 0.8 0  1 0.8 0  0 0.9 0  0.1 0.9 0  0.2 0.9 0  0.3 0.9 0  0.4 0.9 0  0.5 0.9 0  0.6 0.9 0  0.7 0.9 0  0.8 0.9 0  0.9 0.9 0  1 0.9 0  0 1 0  0.1 1 0  0.2 1 0  0.3 1 0  0.4 1 0  0.5 1 0  0.6 1 0  0.7 1 0  0.8 1 0  0.9 1 0  1 1 0  </DataArray>
</Points>
<Cells>
<DataArray  type="UInt32"  Name="connectivity"  format="ascii">0 1 12  0 11 12  1 2 13  1 12 13  2 3 14  2 13 14  3 4 15  3 14 15  4 5 16  4 15 16  5 6 17  5 16 17  6 7 18  6 17 18  7 8 19  7 18 19  8 9 20  8 19 20  9 10 21  9 20 21  11 12 23  11 22 23  12 13 24  12 23 24  13 14 25  13 24 25  14 15 26  14 25 26  15 16 27  15 26 27  16 17 28  16 27 28  17 18 29  17 28 29  18 19 30  18 29 30  19 20 31  19 30 31  20 21 32  20 31 32  22 23 34  22 33 34  23 24 35  23 34 35  24 25 36  24 35 36  25 26 37  25 36 37  26 27 38  26 37 38  27 28 39  27 38 39  28 29 40  28 39 40  29 30 41  29 40 41  30 31 42  30 41 42  31 32 43  31 42 43  33 34 45  33 44 45  34 35 46  34 45 46  35 36 47  35 46 47  36 37 48  36 47 48  37 38 49  37 48 49  38 39 50  38 49 50  39 40 51  39 50 51  40 41 52  40 51 52  41 42 53  41 52 53  42 43 54  42 53 54  44 45 56  44 55 56  45 46 57  45 56 57  46 47 58  46 57 58  47 48 59  47 58 59  48 49 60  48 59 60  49 50 61  49 60 61  50 51 62  50 61 62  51 52 63  51 62 63  52 53 64  52 63 64  53 54 65  53 64 65  55 56 67  55 66 67  56 57 68  56 67 68  57 58 69  57 68 69  58 59 70  58 69 70  59 60 71  59 70 71  60 61 72  60 71 72  61 62 73  61 72 73  62 63 74  62 73 74  63 64 75  63 74 75  64 65 76  64 75 76  66 67 78  66 77 78  67 68 79  67 78 79  68 69 80  68 79 80  69 70 81  69 80 81  70 71 82  70 81 82  71 72 83  71 82 83  72 73 84  72 83 84  73 74 85  73 84 85  74 75 86  74 85 86  75 76 87  75 86 87  77 78 89  77 88 89  78 79 90  78 89 90  79 80 91  79 90 91  80 81 92  80 91 92  81 82 93  81 92 93  82 83 94  82 93 94  83 84 95  83 94 95  84 85 96  84 95 96  85 86 97  85 96 97  86 87 98  86 97 98  88 89 100  88 99 100  89 90 101  89 100 101  90 91 102  90 101 102  91 92 103  91 102 103  92 93 104  92 103 104  93 94 105  93 104 105  94 95 106  94 105 106  95 96 107  95 106 107  96 97 108  96 107 108  97 98 109  97 108 109  99 100 111  99 110 111  100 101 112  100 111 112  101 102 113  101 112 113  102 103 114  102 113 114  103 104 115  103 114 115  104 105 116  104 115 116  105 106 117  105 116 117  106 107 118  106 117 118  107 108 119  107 118 119  108 109 120  108 119 120  </DataArray>
<DataArray  type="UInt32"  Name="offsets"  format="ascii">3 6 9 12 15 18 21 24 27 30 33 36 39 42 45 48 51 54 57 60 63 66 69 72 75 78 81 84 87 90 93 96 99 102 105 108 111 114 117 120 123 126 129 132 135 138 141 144 147 150 153 156 159 162 165 168 171 174 177 180 183 186 189 192 195 198 201 204 207 210 213 216 219 222 225 228 231 234 237 240 243 246 249 252 255 258 261 264 267 270 273 276 279 282 285 288 291 294 297 300 303 306 309 312 315 318 321 324 327 330 333 336 339 342 345 348 351 354 357 360 363 366 369 372 375 378 381 384 387 390 393 396 399 402 405 408 411 414 417 420 423 426 429 432 435 438 441 444 447 450 453 456 459 462 465 468 471 474 477 480 483 486 489 492 495 498 501 504 507 510 513 516 519 522 525 528 531 534 537 540 543 546 549 552 555 558 561 564 567 570 573 576 579 582 585 588 591 594 597 600 </DataArray>
<DataArray  type="UInt8"  Name="types"  format="ascii">5 5 5 5 5 5 5 5 5 5 5 5 5 5 5 5 5 5 5 5 5 5 5 5 5 5 5 5 5 5 5 5 5 5 5 5 5 5 5 5 5 5 5 5 5 5 5 5 5 5 5 5 5 5 5 5 5 5 5 5 5 5 5 5 5 5 5 5 5 5 5 5 5 5 5 5 5 5 5 5 5 5 5 5 5 5 5 5 5 5 5 5 5 5 5 5 5 5 5 5 5 5 5 5 5 5 5 5 5 5 5 5 5 5 5 5 5 5 5 5 5 5 5 5 5 5 5 5 5 5 5 5 5 5 5 5 5 5 5 5 5 5 5 5 5 5 5 5 5 5 5 5 5 5 5 5 5 5 5 5 5 5 5 5 5 5 5 5 5 5 5 5 5 5 5 5 5 5 5 5 5 5 5 5 5 5 5 5 5 5 5 5 5 5 5 5 5 5 5 5 </DataArray>
</Cells>
<PointData  Vectors="f_22-0"> 
<DataArray  type="Float64"  Name="f_22-0"  NumberOfComponents="3" format="ascii">0.0000000000000000e+00 0.0000000000000000e+00 0.0000000000000000e+00  -1.1394028005328128e-06 2.2753662405998082e-05 0.0000000000000000e+00  -2.2084759810123528e-06 2.3358587893000752e-05 0.0000000000000000e+00  -3.0795977237022937e-06 1.8030986702310151e-05 0.0000000000000000e+00  -3.6397685065135338e-06 1.0061627856875891e-05 0.0000000000000000e+00  -3.8163640702621642e-06 7.0963378188402382e-07 0.0000000000000000e+00  -3.5726259831312391e-06 -8.9446987470577692e-06 0.0000000000000000e+00  -2.9252564419316397e-06 -1.7693904886822328e-05 0.0000000000000000e+00  -1.9550203967038084e-06 -2.3859664936683910e-05 0.0000000000000000e+00  -1.0586885101447134e-06 -2.3693215705582216e-05 0.0000000000000000e+00  0.0000000000000000e+00 0.0000000000000000e+00 0.0000000000000000e+00  0.0000000000000000e+00 0.0000000000000000e+00 0.0000000000000000e+00  -2.4370467886896271e-03 2.3470558280338626e-03 0.0000000000000000e+00  -5.1133537158936379e-03 2.0193720409306427e-03 0.0000000000000000e+00  -7.2551797165711458e-03 1.4809872847793288e-03 0.0000000000000000e+00  -8.6343893427587911e-03 7.9573218770707499e-04 0.0000000000000000e+00  -9.1139150682144499e-03 2.5215292311505491e-05 0.0000000000000000e+00  -8.6379019042582533e-03 -7.6322992719720197e-04 0.0000000000000000e+00  -7.2362613148170465e-03 -1.4972700229934689e-03 0.0000000000000000e+00  -5.0463134628068980e-03 -2.0948905183595175e-03 0.0000000000000000e+00  -2.2794834570156780e-03 -2.2399695513198349e-03 0.0000000000000000e+00  0.0000000000000000e+00 0.0000000000000000e+00 0.0000000000000000e+00  0.0000000000000000e+00 0.0000000000000000e+00 0.0000000000000000e+00  -2.7955492311453659e-03 5.3864833291224767e-03 0.0000000000000000e+00  -5.9032507338556686e-03 4.7019884067764275e-03 0.0000000000000000e+00  -8.4360499354284874e-03 3.4435229384880937e-03 0.0000000000000000e+00  -1.0089328190481981e-02 1.8566429341280596e-03 0.0000000000000000e+00  -1.0712757806125683e-02 8.0009601344486656e-05 0.0000000000000000e+00  -1.0235530381793595e-02 -1.7410363177961033e-03 0.0000000000000000e+00  -8.6632974447424915e-03 -3.4476640600128827e-03 0.0000000000000000e+00  -6.1240628736089339e-03 -4.8507532020681194e-03 0.0000000000000000e+00  -2.8516473160887026e-03 -5.3727057325922544e-03 0.0000000000000000e+00  0.0000000000000000e+00 0.0000000000000000e+00 0.0000000000000000e+00  0.0000000000000000e+00 0.0000000000000000e+00 0.0000000000000000e+00  -3.4724645936215388e-03 9.0148492659359626e-03 0.0000000000000000e+00  -7.2656817231245199e-03 7.9034511577212013e-03 0.0000000000000000e+00  -1.0324483556331610e-02 5.7684108104443113e-03 0.0000000000000000e+00  -1.2309630038533444e-02 3.1240362853079957e-03 0.0000000000000000e+00  -1.3085823816005060e-02 1.9096992513947225e-04 0.0000000000000000e+00  -1.2581219183862612e-02 -2.8318355001448179e-03 0.0000000000000000e+00  -1.0755616252889864e-02 -5.7225638711686849e-03 0.0000000000000000e+00  -7.6847799713920632e-03 -8.1684014956198772e-03 0.0000000000000000e+00  -3.5774452237958059e-03 -9.1770626080839388e-03 0.0000000000000000e+00  0.0000000000000000e+00 0.0000000000000000e+00 0.0000000000000000e+00  0.0000000000000000e+00 0.0000000000000000e+00 0.0000000000000000e+00  -4.5902511903113553e-03 1.3645167424080135e-02 0.0000000000000000e+00  -9.4832211696864697e-03 1.1906367848472620e-02 0.0000000000000000e+00  -1.3325441776025286e-02 8.6208385592211317e-03 0.0000000000000000e+00  -1.5762461636347185e-02 4.6818731212549250e-03 0.0000000000000000e+00  -1.6754532696893625e-02 4.0100582042056586e-04 0.0000000000000000e+00  -1.6278301854251567e-02 -4.0468637464880896e-03 0.0000000000000000e+00  -1.4173597549848684e-02 -8.4547024059440611e-03 0.0000000000000000e+00  -1.0322339124110128e-02 -1.2375213926151275e-02 0.0000000000000000e+00  -4.8276426244746222e-03 -1.4150169121814040e-02 0.0000000000000000e+00  0.0000000000000000e+00 0.0000000000000000e+00 0.0000000000000000e+00  0.0000000000000000e+00 0.0000000000000000e+00 0.0000000000000000e+00  -6.4136023828528683e-03 1.9842726028011588e-02 0.0000000000000000e+00  -1.2932666235429338e-02 1.7059337182051208e-02 0.0000000000000000e+00  -1.7753253124206718e-02 1.2122620865078607e-02 0.0000000000000000e+00  -2.0640309679785585e-02 6.5625574457059384e-03 0.0000000000000000e+00  -2.1876635854366642e-02 7.4560030693253019e-04 0.0000000000000000e+00  -2.1590450329991757e-02 -5.3007532218436650e-03 0.0000000000000000e+00  -1.9323654436070471e-02 -1.1596748486592270e-02 0.0000000000000000e+00  -1.4644319215390821e-02 -1.7666107271241276e-02 0.0000000000000000e+00  -7.0949935309318401e-03 -2.1009643610374482e-02 0.0000000000000000e+00  0.0000000000000000e+00 0.0000000000000000e+00 0.0000000000000000e+00  0.0000000000000000e+00 0.0000000000000000e+00 0.0000000000000000e+00  -9.6711181224174488e-03 2.8465253833671919e-02 0.0000000000000000e+00  -1.8499966375870779e-02 2.3747530675400558e-02 0.0000000000000000e+00  -2.4208180024920374e-02 1.6178526409163525e-02 0.0000000000000000e+00  -2.7157174584007480e-02 8.5962788591389273e-03 0.0000000000000000e+00  -2.8470623386383172e-02 1.3115875236122620e-03 0.0000000000000000e+00  -2.8302269171413364e-02 -6.0304291944730457e-03 0.0000000000000000e+00  -2.6537072573063016e-02 -1.4255688681169609e-02 0.0000000000000000e+00  -2.2729099715735793e-02 -2.4157181350147702e-02 0.0000000000000000e+00  -1.1754351310830755e-02 -3.2356050789702308e-02 0.0000000000000000e+00  0.0000000000000000e+00 0.0000000000000000e+00 0.0000000000000000e+00  0.0000000000000000e+00 0.0000000000000000e+00 0.0000000000000000e+00  -1.6361462339642356e-02 4.1784767299569731e-02 0.0000000000000000e+00  -2.8797637353538144e-02 3.2058118786731621e-02 0.0000000000000000e+00  -3.4250688774497190e-02 1.9921451739161874e-02 0.0000000000000000e+00  -3.5941395035630985e-02 1.0139904430656398e-02 0.0000000000000000e+00  -3.6626262791599806e-02 2.1875095109146563e-03 0.0000000000000000e+00  -3.6797365702573033e-02 -5.2985105099786029e-03 0.0000000000000000e+00  -3.9226842865167109e-02 -1.8400622157006167e-02 0.0000000000000000e+00  -3.8170060481970948e-02 -4.1535278747226068e-02 0.0000000000000000e+00  -1.4728042191734859e-02 -6.0591333523044140e-02 0.0000000000000000e+00  0.0000000000000000e+00 0.0000000000000000e+00 0.0000000000000000e+00  0.0000000000000000e+00 0.0000000000000000e+00 0.0000000000000000e+00  -3.0316967368815805e-02 5.9486257755881795e-02 0.0000000000000000e+00  -4.9404602792137729e-02 3.8644347985823793e-02 0.0000000000000000e+00  -5.1731666202199815e-02 2.0097162038186636e-02 0.0000000000000000e+00  -5.0545823881655072e-02 9.3733376216442177e-03 0.0000000000000000e+00  -4.9981725860420205e-02 2.1826030863029556e-03 0.0000000000000000e+00  -5.0719741674467064e-02 -4.5877332084463133e-03 0.0000000000000000e+00  -6.7005800440124816e-02 -1.1747118105414591e-02 0.0000000000000000e+00  -4.5856854410799446e-02 -1.7216014523157325e-02 0.0000000000000000e+00  -2.9732899901656822e-02 2.5433043862814978e-02 0.0000000000000000e+00  0.0000000000000000e+00 0.0000000000000000e+00 0.0000000000000000e+00  0.0000000000000000e+00 0.0000000000000000e+00 0.0000000000000000e+00  -1.1056329626133668e-02 6.6095319217836623e-02 0.0000000000000000e+00  -3.7019170445140095e-02 3.1179342104424416e-02 0.0000000000000000e+00  -4.4222384787088981e-02 1.5354137993803963e-02 0.0000000000000000e+00  -4.4069161936060988e-02 7.8450252493653169e-03 0.0000000000000000e+00  -4.5346768964977607e-02 3.5169287789668436e-03 0.0000000000000000e+00  -5.2737576174759979e-02 -1.2597747986226020e-03 0.0000000000000000e+00  -6.5847634288942039e-02 2.6888995397335992e-03 0.0000000000000000e+00  6.2987562977557914e-03 1.6157065640368225e-02 0.0000000000000000e+00  -3.1591436380604854e-01 -3.3783566389067238e-01 0.0000000000000000e+00  0.0000000000000000e+00 0.0000000000000000e+00 0.0000000000000000e+00  0.0000000000000000e+00 0.0000000000000000e+00 0.0000000000000000e+00  1.0000000000000000e+00 0.0000000000000000e+00 0.0000000000000000e+00  1.0000000000000000e+00 0.0000000000000000e+00 0.0000000000000000e+00  1.0000000000000000e+00 0.0000000000000000e+00 0.0000000000000000e+00  1.0000000000000000e+00 0.0000000000000000e+00 0.0000000000000000e+00  1.0000000000000000e+00 0.0000000000000000e+00 0.0000000000000000e+00  1.0000000000000000e+00 0.0000000000000000e+00 0.0000000000000000e+00  1.0000000000000000e+00 0.0000000000000000e+00 0.0000000000000000e+00  1.0000000000000000e+00 0.0000000000000000e+00 0.0000000000000000e+00  1.0000000000000000e+00 0.0000000000000000e+00 0.0000000000000000e+00  0.0000000000000000e+00 0.0000000000000000e+00 0.0000000000000000e+00  </DataArray> 
</PointData> 
</Piece>
</UnstructuredGrid>
</VTKFile>