<?xml version="1.0"?>
<VTKFile type="UnstructuredGrid"  version="0.1"  >
<UnstructuredGrid>
<Piece  NumberOfPoints="121" NumberOfCells="200">
<Points>
<DataArray  type="Float64"  NumberOfComponents="3"  format="ascii">0 0 0  0.1 0 0  0.2 0 0  0.3 0 0  0.4 0 0  0.5 0 0  0.6 0 0  0.7 0 0  0.8 0 0  0.9 0 0  1 0 0  0 0.1 0  0.1 0.1 0  0.2 0.1 0  0.3 0.1 0  0.4 0.1 0  0.5 0.1 0  0.6 0.1 0  0.7 0.1 0  0.8 0.1 0  0.9 0.1 0  1 0.1 0  0 0.2 0  0.1 0.2 0  0.2 0.2 0  0.3 0.2 0  0.4 0.2 0  0.5 0.2 0  0.6 0.2 0  0.7 0.2 0  0.8 0.2 0  0.9 0.2 0  1 0.2 0  0 0.3 0  0.1 0.3 0  0.2 0.3 0  0.3 0.3 0  0.4 0.3 0  0.5 0.3 0  0.6 0.3 0  0.7 0.3 0  0.8 0.3 0  0.9 0.3 0  1 0.3 0  0 0.4 0  0.1 0.4 0  0.2 0.4 0  0.3 0.4 0  0.4 0.4 0  0.5 0.4 0  0.6 0.4 0  0.7 0.4 0  0.8 0.4 0  0.9 0.4 0  1 0.4 0  0 0.5 0  0.1 0.5 0  0.2 0.5 0  0.3 0.5 0  0.4 0.5 0  0.5 0.5 0  0.6 0.5 0  0.7 0.5 0  0.8 0.5 0  0.9 0.5 0  1 0.5 0  0 0.6 0  0.1 0.6 0  0.2 0.6 0  0.3 0.6 0  0.4 0.6 0  0.5 0.6 0  0.6 0.6 0  0.7 0.6 0  0.8 0.6 0  0.9 0.6 0  1 0.6 0  0 0.7 0  0.1 0.7 0  0.2 0.7 0  0.3 0.7 0  0.4 0.7 0  0.5 0.7 0  0.6 0.7 0  0.7 0.7 0  0.8 0.7 0  0.9 0.7 0  1 0.7 0  0 0.8 0  0.1 0.8 0  0.2 0.8 0  0.3 0.8 0  0.4 0.8 0  0.5 0.8 0  0.6 0.8 0  0.7 0.8 0  0.8 0.8 0  0.9 0.8 0  1 0.8 0  0 0.9 0  0.1 0.9 0  0.2 0.9 0  0.3 0.9 0  0.4 0.9 0  0.5 0.9 0  0.6 0.9 0  0.7 0.9 0  0.8 0.9 0  0.9 0.9 0  1 0.9 0  0 1 0  0.1 1 0  0.2 1 0  0.3 1 0  0.4 1 0  0.5 1 0  0.6 1 0  0.7 1 0  0.8 1 0  0.9 1 0  1 1 0  </DataArray>
</Points>
<Cells>
<DataArray  type="UInt32"  Name="connectivity"  format="ascii">0 1 12  0 11 12  1 2 13  1 12 13  2 3 14  2 13 14  3 4 15  3 14 15  4 5 16  4 15 16  5 6 17  5 16 17  6 7 18  6 17 18  7 8 19  7 18 19  8 9 20  8 19 20  9 10 21  9 20 21  11 12 23  11 22 23  12 13 24  12 23 24  13 14 25  13 24 25  14 15 26  14 25 26  15 16 27  15 26 27  16 17 28  16 27 28  17 18 29  17 28 29  18 19 30  18 29 30  19 20 31  19 30 31  20 21 32  20 31 32  22 23 34  22 33 34  23 24 35  23 34 35  24 25 36  24 35 36  25 26 37  25 36 37  26 27 38  26 37 38  27 28 39  27 38 39  28 29 40  28 39 40  29 30 41  29 40 41  30 31 42  30 41 42  31 32 43  31 42 43  33 34 45  33 44 45  34 35 46  34 45 46  35 36 47  35 46 47  36 37 48  36 47 48  37 38 49  37 48 49  38 39 50  38 49 50  39 40 51  39 50 51  40 41 52  40 51 52  41 42 53  41 52 53  42 43 54  42 53 54  44 45 56  44 55 56  45 46 57  45 56 57  46 47 58  46 57 58  47 48 59  47 58 59  48 49 60  48 59 60  49 50 61  49 60 61  50 51 62  50 61 62  51 52 63  51 62 63  52 53 64  52 63 64  53 54 65  53 64 65  55 56 67  55 66 67  56 57 68  56 67 68  57 58 69  57 68 69  58 59 70  58 69 70  59 60 71  59 70 71  60 61 72  60 71 72  61 62 73  61 72 73  62 63 74  62 73 74  63 64 75  63 74 75  64 65 76  64 75 76  66 67 78  66 77 78  67 68 79  67 78 79  68 69 80  68 79 80  69 70 81  69 80 81  70 71 82  70 81 82  71 72 83  71 82 83  72 73 84  72 83 84  73 74 85  73 84 85  74 75 86  74 85 86  75 76 87  75 86 87  77 78 89  77 88 89  78 79 90  78 89 90  79 80 91  79 90 91  80 81 92  80 91 92  81 82 93  81 92 93  82 83 94  82 93 94  83 84 95  83 94 95  84 85 96  84 95 96  85 86 97  85 96 97  86 87 98  86 97 98  88 89 100  88 99 100  89 90 101  89 100 101  90 91 102  90 101 102  91 92 103  91 102 103  92 93 104  92 103 104  93 94 105  93 104 105  94 95 106  94 105 106  95 96 107  95 106 107  96 97 108  96 107 108  97 98 109  97 108 109  99 100 111  99 110 111  100 101 112  100 111 112  101 102 113  101 112 113  102 103 114  102 113 114  103 104 115  103 114 115  104 105 116  104 115 116  105 106 117  105 116 117  106 107 118  106 117 118  107 108 119  107 118 119  108 109 120  108 119 120  </DataArray>
<DataArray  type="UInt32"  Name="offsets"  format="ascii">3 6 9 12 15 18 21 24 27 30 33 36 39 42 45 48 51 54 57 60 63 66 69 72 75 78 81 84 87 90 93 96 99 102 105 108 111 114 117 120 123 126 129 132 135 138 141 144 147 150 153 156 159 162 165 168 171 174 177 180 183 186 189 192 195 198 201 204 207 210 213 216 219 222 225 228 231 234 237 240 243 246 249 252 255 258 261 264 267 270 273 276 279 282 285 288 291 294 297 300 303 306 309 312 315 318 321 324 327 330 333 336 339 342 345 348 351 354 357 360 363 366 369 372 375 378 381 384 387 390 393 396 399 402 405 408 411 414 417 420 423 426 429 432 435 438 441 444 447 450 453 456 459 462 465 468 471 474 477 480 483 486 489 492 495 498 501 504 507 510 513 516 519 522 525 528 531 534 537 540 543 546 549 552 555 558 561 564 567 570 573 576 579 582 585 588 591 594 597 600 </DataArray>
<DataArray  type="UInt8"  Name="types"  format="ascii">5 5 5 5 5 5 5 5 5 5 5 5 5 5 5 5 5 5 5 5 5 5 5 5 5 5 5 5 5 5 5 5 5 5 5 5 5 5 5 5 5 5 5 5 5 5 5 5 5 5 5 5 5 5 5 5 5 5 5 5 5 5 5 5 5 5 5 5 5 5 5 5 5 5 5 5 5 5 5 5 5 5 5 5 5 5 5 5 5 5 5 5 5 5 5 5 5 5 5 5 5 5 5 5 5 5 5 5 5 5 5 5 5 5 5 5 5 5 5 5 5 5 5 5 5 5 5 5 5 5 5 5 5 5 5 5 5 5 5 5 5 5 5 5 5 5 5 5 5 5 5 5 5 5 5 5 5 5 5 5 5 5 5 5 5 5 5 5 5 5 5 5 5 5 5 5 5 5 5 5 5 5 5 5 5 5 5 5 5 5 5 5 5 5 5 5 5 5 5 5 </DataArray>
</Cells>
<PointData  Vectors="f_22-0"> 
<DataArray  type="Float64"  Name="f_22-0"  NumberOfComponents="3" format="ascii">0.0000000000000000e+00 0.0000000000000000e+00 0.0000000000000000e+00  -9.0145276245882613e-07 1.5261949284448823e-05 0.0000000000000000e+00  -1.9755518331501220e-06 1.6131114014193704e-05 0.0000000000000000e+00  -2.9782833999856562e-06 1.3021844052254721e-05 0.0000000000000000e+00  -3.7332765735866118e-06 7.8747213224474386e-06 0.0000000000000000e+00  -4.1048145724447143e-06 1.3583339978186224e-06 0.0000000000000000e+00  -3.9847106939029209e-06 -5.7864219370522633e-06 0.0000000000000000e+00  -3.3449427441238921e-06 -1.2501393258360437e-05 0.0000000000000000e+00  -2.2622231872969275e-06 -1.7224917246998624e-05 0.0000000000000000e+00  -1.1886048833738009e-06 -1.7034521369614771e-05 0.0000000000000000e+00  0.0000000000000000e+00 0.0000000000000000e+00 0.0000000000000000e+00  0.0000000000000000e+00 0.0000000000000000e+00 0.0000000000000000e+00  -3.5634020610635902e-03 3.4231542236649514e-03 0.0000000000000000e+00  -8.5336379583357217e-03 3.1775752479757716e-03 0.0000000000000000e+00  -1.2675901958511681e-02 2.5059054664768612e-03 0.0000000000000000e+00  -1.5583837469050555e-02 1.5518670321112095e-03 0.0000000000000000e+00  -1.6894086477793158e-02 3.5783588475214029e-04 0.0000000000000000e+00  -1.6343649793694400e-02 -9.9716905906091784e-04 0.0000000000000000e+00  -1.3826899413343009e-02 -2.3610177921402865e-03 0.0000000000000000e+00  -9.5397775281667319e-03 -3.5000696944148765e-03 0.0000000000000000e+00  -3.9986254827521633e-03 -3.9734885767939952e-03 0.0000000000000000e+00  0.0000000000000000e+00 0.0000000000000000e+00 0.0000000000000000e+00  0.0000000000000000e+00 0.0000000000000000e+00 0.0000000000000000e+00  -4.1149848823494786e-03 8.8654801876373729e-03 0.0000000000000000e+00  -9.7036083412758833e-03 8.1032619636820027e-03 0.0000000000000000e+00  -1.4454600496561406e-02 6.3734443403694833e-03 0.0000000000000000e+00  -1.7883091314925749e-02 3.9569943509163465e-03 0.0000000000000000e+00  -1.9598684272105489e-02 9.4987511643860440e-04 0.0000000000000000e+00  -1.9241248285409455e-02 -2.5139403472628362e-03 0.0000000000000000e+00  -1.6518262632065982e-02 -6.0646020848528753e-03 0.0000000000000000e+00  -1.1520550729397614e-02 -9.0068664574026736e-03 0.0000000000000000e+00  -4.9239374763886852e-03 -1.0372779586794540e-02 0.0000000000000000e+00  0.0000000000000000e+00 0.0000000000000000e+00 0.0000000000000000e+00  0.0000000000000000e+00 0.0000000000000000e+00 0.0000000000000000e+00  -4.9081169784871070e-03 1.5118946255321824e-02 0.0000000000000000e+00  -1.1569501763195645e-02 1.3846778168504182e-02 0.0000000000000000e+00  -1.7254596187909747e-02 1.0971780004018418e-02 0.0000000000000000e+00  -2.1543155884946517e-02 6.9712116797652863e-03 0.0000000000000000e+00  -2.4048089706206106e-02 1.8598670443241113e-03 0.0000000000000000e+00  -2.4127594525364650e-02 -4.1679902562715776e-03 0.0000000000000000e+00  -2.1137372048648781e-02 -1.0347475995657936e-02 0.0000000000000000e+00  -1.4967835056078863e-02 -1.5538401099635554e-02 0.0000000000000000e+00  -6.4697435686101408e-03 -1.8218003027419754e-02 0.0000000000000000e+00  0.0000000000000000e+00 0.0000000000000000e+00 0.0000000000000000e+00  0.0000000000000000e+00 0.0000000000000000e+00 0.0000000000000000e+00  -6.1895325279589042e-03 2.2771907854572671e-02 0.0000000000000000e+00  -1.4438970237499108e-02 2.0837638640584091e-02 0.0000000000000000e+00  -2.1468825405573856e-02 1.6629285516009694e-02 0.0000000000000000e+00  -2.7072436899227628e-02 1.0915341741789734e-02 0.0000000000000000e+00  -3.0660505404841297e-02 4.1341489968112080e-03 0.0000000000000000e+00  -3.1715596976475059e-02 -3.7585791711327362e-03 0.0000000000000000e+00  -2.9294243764985951e-02 -1.3677177697624308e-02 0.0000000000000000e+00  -2.1445272850236650e-02 -2.4403272098647170e-02 0.0000000000000000e+00  -9.2316736811890229e-03 -3.0319780034921445e-02 0.0000000000000000e+00  0.0000000000000000e+00 0.0000000000000000e+00 0.0000000000000000e+00  0.0000000000000000e+00 0.0000000000000000e+00 0.0000000000000000e+00  -8.1979990167477656e-03 3.2534715167116840e-02 0.0000000000000000e+00  -1.8659769392554572e-02 2.9495241683269648e-02 0.0000000000000000e+00  -2.7435787382426913e-02 2.3534163103380707e-02 0.0000000000000000e+00  -3.4114733479181196e-02 1.6425454789093973e-02 0.0000000000000000e+00  -3.8594581821310626e-02 8.2440701300974979e-03 0.0000000000000000e+00  -4.4346396737230599e-02 -5.5613312566824176e-03 0.0000000000000000e+00  -4.4853178976530600e-02 -2.5026153620776051e-02 0.0000000000000000e+00  -3.1948156699269536e-02 -4.1726978605365034e-02 0.0000000000000000e+00  -1.2096636078638706e-02 -4.6568110153076533e-02 0.0000000000000000e+00  0.0000000000000000e+00 0.0000000000000000e+00 0.0000000000000000e+00  0.0000000000000000e+00 0.0000000000000000e+00 0.0000000000000000e+00  -1.1563558582466266e-02 4.5441690418796865e-02 0.0000000000000000e+00  -2.5105077989259459e-02 4.0116921986988185e-02 0.0000000000000000e+00  -3.5380043107656162e-02 3.1494672916241861e-02 0.0000000000000000e+00  -4.1404085537266537e-02 2.3171476639881367e-02 0.0000000000000000e+00  -4.9375153038116203e-02 1.4133229649584923e-02 0.0000000000000000e+00  -6.3989781246388877e-02 9.2756286875848425e-04 0.0000000000000000e+00  -6.3914591141140481e-02 -1.9559275465894376e-02 0.0000000000000000e+00  -5.6536772435840474e-02 -4.9163876098841597e-02 0.0000000000000000e+00  -2.2338459981867387e-02 -7.2110454067447885e-02 0.0000000000000000e+00  0.0000000000000000e+00 0.0000000000000000e+00 0.0000000000000000e+00  0.0000000000000000e+00 0.0000000000000000e+00 0.0000000000000000e+00  -1.8295963316048994e-02 6.3459559684467037e-02 0.0000000000000000e+00  -3.6042464914664313e-02 5.2242797810619128e-02 0.0000000000000000e+00  -4.5039229251775233e-02 3.8790306524897497e-02 0.0000000000000000e+00  -4.8883994015747237e-02 2.8992947002588060e-02 0.0000000000000000e+00  -5.7279674114749851e-02 2.2549122680679691e-02 0.0000000000000000e+00  -8.6645970243267978e-02 2.5247318825938114e-02 0.0000000000000000e+00  -5.0490422799522587e-02 2.9184866564000711e-02 0.0000000000000000e+00  -1.7066010328686201e-01 -5.9874716521603991e-02 0.0000000000000000e+00  -6.2580111022749033e-02 -1.1633355633291337e-01 0.0000000000000000e+00  0.0000000000000000e+00 0.0000000000000000e+00 0.0000000000000000e+00  0.0000000000000000e+00 0.0000000000000000e+00 0.0000000000000000e+00  -4.4339189176748423e-02 8.4817297946606432e-02 0.0000000000000000e+00  -5.4444086666832911e-02 6.0704669298511503e-02 0.0000000000000000e+00  -5.4426279821764345e-02 4.2157428181596270e-02 0.0000000000000000e+00  -5.3502351615681364e-02 3.1522763705615998e-02 0.0000000000000000e+00  -5.4050751402504697e-02 2.7741069793892788e-02 0.0000000000000000e+00  -5.8358411307772778e-02 3.6582313907839198e-02 0.0000000000000000e+00  -3.2655021053358733e-02 8.3203520611575044e-02 0.0000000000000000e+00  -3.7411428349279507e-01 -6.8442108308151589e-02 0.0000000000000000e+00  -2.7877150503762260e-01 -5.5000827493432991e-01 0.0000000000000000e+00  0.0000000000000000e+00 0.0000000000000000e+00 0.0000000000000000e+00  0.0000000000000000e+00 0.0000000000000000e+00 0.0000000000000000e+00  -5.6596283787764587e-02 8.8343884615224091e-02 0.0000000000000000e+00  -4.3708568774093320e-02 5.2247793646616296e-02 0.0000000000000000e+00  -3.7184520774205913e-02 3.4932780966009665e-02 0.0000000000000000e+00  -3.0602980816373398e-02 2.5924190224246843e-02 0.0000000000000000e+00  -2.1352437753339074e-02 2.1468909974310661e-02 0.0000000000000000e+00  -7.2967232045369973e-03 2.8357612295455775e-02 0.0000000000000000e+00  3.0919767125215353e-02 6.5668360358389952e-02 0.0000000000000000e+00  -2.0846801557681718e-02 1.6135812804656149e-01 0.0000000000000000e+00  8.5047681391718602e-02 -1.9221350192025817e-02 0.0000000000000000e+00  0.0000000000000000e+00 0.0000000000000000e+00 0.0000000000000000e+00  0.0000000000000000e+00 0.0000000000000000e+00 0.0000000000000000e+00  1.0000000000000000e+00 0.0000000000000000e+00 0.0000000000000000e+00  1.0000000000000000e+00 0.0000000000000000e+00 0.0000000000000000e+00  1.0000000000000000e+00 0.0000000000000000e+00 0.0000000000000000e+00  1.0000000000000000e+00 0.0000000000000000e+00 0.0000000000000000e+00  1.0000000000000000e+00 0.0000000000000000e+00 0.0000000000000000e+00  1.0000000000000000e+00 0.0000000000000000e+00 0.0000000000000000e+00  1.0000000000000000e+00 0.0000000000000000e+00 0.0000000000000000e+00  1.0000000000000000e+00 0.0000000000000000e+00 0.0000000000000000e+00  1.0000000000000000e+00 0.0000000000000000e+00 0.0000000000000000e+00  0.0000000000000000e+00 0.0000000000000000e+00 0.0000000000000000e+00  </DataArray> 
</PointData> 
</Piece>
</UnstructuredGrid>
</VTKFile>