<?xml version="1.0"?>
<VTKFile type="UnstructuredGrid"  version="0.1"  >
<UnstructuredGrid>
<Piece  NumberOfPoints="121" NumberOfCells="200">
<Points>
<DataArray  type="Float64"  NumberOfComponents="3"  format="ascii">0 0 0  0.1 0 0  0.2 0 0  0.3 0 0  0.4 0 0  0.5 0 0  0.6 0 0  0.7 0 0  0.8 0 0  0.9 0 0  1 0 0  0 0.1 0  0.1 0.1 0  0.2 0.1 0  0.3 0.1 0  0.4 0.1 0  0.5 0.1 0  0.6 0.1 0  0.7 0.1 0  0.8 0.1 0  0.9 0.1 0  1 0.1 0  0 0.2 0  0.1 0.2 0  0.2 0.2 0  0.3 0.2 0  0.4 0.2 0  0.5 0.2 0  0.6 0.2 0  0.7 0.2 0  0.8 0.2 0  0.9 0.2 0  1 0.2 0  0 0.3 0  0.1 0.3 0  0.2 0.3 0  0.3 0.3 0  0.4 0.3 0  0.5 0.3 0  0.6 0.3 0  0.7 0.3 0  0.8 0.3 0  0.9 0.3 0  1 0.3 0  0 0.4 0  0.1 0.4 0  0.2 0.4 0  0.3 0.4 0  0.4 0.4 0  0.5 0.4 0  0.6 0.4 0  0.7 0.4 0  0.8 0.4 0  0.9 0.4 0  1 0.4 0  0 0.5 0  0.1 0.5 0  0.2 0.5 0  0.3 0.5 0  0.4 0.5 0  0.5 0.5 0  0.6 0.5 0  0.7 0.5 0  0.8 0.5 0  0.9 0.5 0  1 0.5 0  0 0.6 0  0.1 0.6 0  0.2 0.6 0  0.3 0.6 0  0.4 0.6 0  0.5 0.6 0  0.6 0.6 0  0.7 0.6 0  0.8 0.6 0  0.9 0.6 0  1 0.6 0  0 0.7 0  0.1 0.7 0  0.2 0.7 0  0.3 0.7 0  0.4 0.7 0  0.5 0.7 0  0.6 0.7 0  0.7 0.7 0  0.8 0.7 0  0.9 0.7 0  1 0.7 0  0 0.8 0  0.1 0.8 0  0.2 0.8 0  0.3 0.8 0  0.4 0.8 0  0.5 0.8 0  0.6 0.8 0  0.7 0.8 0  0.8 0.8 0  0.9 0.8 0  1 0.8 0  0 0.9 0  0.1 0.9 0  0.2 0.9 0  0.3 0.9 0  0.4 0.9 0  0.5 0.9 0  0.6 0.9 0  0.7 0.9 0  0.8 0.9 0  0.9 0.9 0  1 0.9 0  0 1 0  0.1 1 0  0.2 1 0  0.3 1 0  0.4 1 0  0.5 1 0  0.6 1 0  0.7 1 0  0.8 1 0  0.9 1 0  1 1 0  </DataArray>
</Points>
<Cells>
<DataArray  type="UInt32"  Name="connectivity"  format="ascii">0 1 12  0 11 12  1 2 13  1 12 13  2 3 14  2 13 14  3 4 15  3 14 15  4 5 16  4 15 16  5 6 17  5 16 17  6 7 18  6 17 18  7 8 19  7 18 19  8 9 20  8 19 20  9 10 21  9 20 21  11 12 23  11 22 23  12 13 24  12 23 24  13 14 25  13 24 25  14 15 26  14 25 26  15 16 27  15 26 27  16 17 28  16 27 28  17 18 29  17 28 29  18 19 30  18 29 30  19 20 31  19 30 31  20 21 32  20 31 32  22 23 34  22 33 34  23 24 35  23 34 35  24 25 36  24 35 36  25 26 37  25 36 37  26 27 38  26 37 38  27 28 39  27 38 39  28 29 40  28 39 40  29 30 41  29 40 41  30 31 42  30 41 42  31 32 43  31 42 43  33 34 45  33 44 45  34 35 46  34 45 46  35 36 47  35 46 47  36 37 48  36 47 48  37 38 49  37 48 49  38 39 50  38 49 50  39 40 51  39 50 51  40 41 52  40 51 52  41 42 53  41 52 53  42 43 54  42 53 54  44 45 56  44 55 56  45 46 57  45 56 57  46 47 58  46 57 58  47 48 59  47 58 59  48 49 60  48 59 60  49 50 61  49 60 61  50 51 62  50 61 62  51 52 63  51 62 63  52 53 64  52 63 64  53 54 65  53 64 65  55 56 67  55 66 67  56 57 68  56 67 68  57 58 69  57 68 69  58 59 70  58 69 70  59 60 71  59 70 71  60 61 72  60 71 72  61 62 73  61 72 73  62 63 74  62 73 74  63 64 75  63 74 75  64 65 76  64 75 76  66 67 78  66 77 78  67 68 79  67 78 79  68 69 80  68 79 80  69 70 81  69 80 81  70 71 82  70 81 82  71 72 83  71 82 83  72 73 84  72 83 84  73 74 85  73 84 85  74 75 86  74 85 86  75 76 87  75 86 87  77 78 89  77 88 89  78 79 90  78 89 90  79 80 91  79 90 91  80 81 92  80 91 92  81 82 93  81 92 93  82 83 94  82 93 94  83 84 95  83 94 95  84 85 96  84 95 96  85 86 97  85 96 97  86 87 98  86 97 98  88 89 100  88 99 100  89 90 101  89 100 101  90 91 102  90 101 102  91 92 103  91 102 103  92 93 104  92 103 104  93 94 105  93 104 105  94 95 106  94 105 106  95 96 107  95 106 107  96 97 108  96 107 108  97 98 109  97 108 109  99 100 111  99 110 111  100 101 112  100 111 112  101 102 113  101 112 113  102 103 114  102 113 114  103 104 115  103 114 115  104 105 116  104 115 116  105 106 117  105 116 117  106 107 118  106 117 118  107 108 119  107 118 119  108 109 120  108 119 120  </DataArray>
<DataArray  type="UInt32"  Name="offsets"  format="ascii">3 6 9 12 15 18 21 24 27 30 33 36 39 42 45 48 51 54 57 60 63 66 69 72 75 78 81 84 87 90 93 96 99 102 105 108 111 114 117 120 123 126 129 132 135 138 141 144 147 150 153 156 159 162 165 168 171 174 177 180 183 186 189 192 195 198 201 204 207 210 213 216 219 222 225 228 231 234 237 240 243 246 249 252 255 258 261 264 267 270 273 276 279 282 285 288 291 294 297 300 303 306 309 312 315 318 321 324 327 330 333 336 339 342 345 348 351 354 357 360 363 366 369 372 375 378 381 384 387 390 393 396 399 402 405 408 411 414 417 420 423 426 429 432 435 438 441 444 447 450 453 456 459 462 465 468 471 474 477 480 483 486 489 492 495 498 501 504 507 510 513 516 519 522 525 528 531 534 537 540 543 546 549 552 555 558 561 564 567 570 573 576 579 582 585 588 591 594 597 600 </DataArray>
<DataArray  type="UInt8"  Name="types"  format="ascii">5 5 5 5 5 5 5 5 5 5 5 5 5 5 5 5 5 5 5 5 5 5 5 5 5 5 5 5 5 5 5 5 5 5 5 5 5 5 5 5 5 5 5 5 5 5 5 5 5 5 5 5 5 5 5 5 5 5 5 5 5 5 5 5 5 5 5 5 5 5 5 5 5 5 5 5 5 5 5 5 5 5 5 5 5 5 5 5 5 5 5 5 5 5 5 5 5 5 5 5 5 5 5 5 5 5 5 5 5 5 5 5 5 5 5 5 5 5 5 5 5 5 5 5 5 5 5 5 5 5 5 5 5 5 5 5 5 5 5 5 5 5 5 5 5 5 5 5 5 5 5 5 5 5 5 5 5 5 5 5 5 5 5 5 5 5 5 5 5 5 5 5 5 5 5 5 5 5 5 5 5 5 5 5 5 5 5 5 5 5 5 5 5 5 5 5 5 5 5 5 </DataArray>
</Cells>
<PointData  Vectors="f_22-0"> 
<DataArray  type="Float64"  Name="f_22-0"  NumberOfComponents="3" format="ascii">0.0000000000000000e+00 0.0000000000000000e+00 0.0000000000000000e+00  -1.0842046072571948e-06 2.1042074438063823e-05 0.0000000000000000e+00  -2.1725716932400558e-06 2.1793072167609595e-05 0.0000000000000000e+00  -3.0967721180377739e-06 1.7079149350925101e-05 0.0000000000000000e+00  -3.7243966794664668e-06 9.8279745068065636e-06 0.0000000000000000e+00  -3.9646797359024156e-06 1.1216580316575895e-06 0.0000000000000000e+00  -3.7599028057054443e-06 -8.0595226257259842e-06 0.0000000000000000e+00  -3.1104463997822241e-06 -1.6534666441096425e-05 0.0000000000000000e+00  -2.0861244946346241e-06 -2.2591552705532656e-05 0.0000000000000000e+00  -1.1257402045012631e-06 -2.2547400133040070e-05 0.0000000000000000e+00  0.0000000000000000e+00 0.0000000000000000e+00 0.0000000000000000e+00  0.0000000000000000e+00 0.0000000000000000e+00 0.0000000000000000e+00  -2.8126137102796860e-03 2.7079661603357586e-03 0.0000000000000000e+00  -6.1242203364244739e-03 2.3541712926297849e-03 0.0000000000000000e+00  -8.7878999217257392e-03 1.7581789762961531e-03 0.0000000000000000e+00  -1.0539123329783117e-02 9.8176347519640639e-04 0.0000000000000000e+00  -1.1194812475394464e-02 8.9044172312255661e-05 0.0000000000000000e+00  -1.0665143975774264e-02 -8.4596577223609696e-04 0.0000000000000000e+00  -8.9627720157751598e-03 -1.7329354314381924e-03 0.0000000000000000e+00  -6.2464317005191811e-03 -2.4711696036363662e-03 0.0000000000000000e+00  -2.7803281541703760e-03 -2.7311075845400032e-03 0.0000000000000000e+00  0.0000000000000000e+00 0.0000000000000000e+00 0.0000000000000000e+00  0.0000000000000000e+00 0.0000000000000000e+00 0.0000000000000000e+00  -3.1961290139728166e-03 6.4253710977334837e-03 0.0000000000000000e+00  -6.9507248599454613e-03 5.6052581372121888e-03 0.0000000000000000e+00  -1.0038112363157584e-02 4.1779297165774557e-03 0.0000000000000000e+00  -1.2102665188546025e-02 2.3363006389451771e-03 0.0000000000000000e+00  -1.2947919317338491e-02 2.2986813566591111e-04 0.0000000000000000e+00  -1.2457088256173126e-02 -1.9804213526586896e-03 0.0000000000000000e+00  -1.0592826259540028e-02 -4.0957974226184775e-03 0.0000000000000000e+00  -7.4849452084208836e-03 -5.8656803618757324e-03 0.0000000000000000e+00  -3.4284648534498850e-03 -6.6897827987139136e-03 0.0000000000000000e+00  0.0000000000000000e+00 0.0000000000000000e+00 0.0000000000000000e+00  0.0000000000000000e+00 0.0000000000000000e+00 0.0000000000000000e+00  -3.9364275237864449e-03 1.0809896566850961e-02 0.0000000000000000e+00  -8.5057234115086533e-03 9.4658992343287698e-03 0.0000000000000000e+00  -1.2226990891988362e-02 7.0401835347059230e-03 0.0000000000000000e+00  -1.4724409629981934e-02 3.9736205843547761e-03 0.0000000000000000e+00  -1.5813958174866583e-02 4.9313226157703431e-04 0.0000000000000000e+00  -1.5362278013269748e-02 -3.1912165253830923e-03 0.0000000000000000e+00  -1.3250917511063781e-02 -6.8117020337642433e-03 0.0000000000000000e+00  -9.5017628891109276e-03 -9.9592568031612073e-03 0.0000000000000000e+00  -4.3623711225981290e-03 -1.1545184686119720e-02 0.0000000000000000e+00  0.0000000000000000e+00 0.0000000000000000e+00 0.0000000000000000e+00  0.0000000000000000e+00 0.0000000000000000e+00 0.0000000000000000e+00  -5.1556546868638904e-03 1.6361368158699010e-02 0.0000000000000000e+00  -1.1016593704335595e-02 1.4268345997904728e-02 0.0000000000000000e+00  -1.5680538739264803e-02 1.0555775069903300e-02 0.0000000000000000e+00  -1.8771216736093995e-02 6.0283482287955253e-03 0.0000000000000000e+00  -2.0222176868935089e-02 9.9392775340304126e-04 0.0000000000000000e+00  -1.9970204576653765e-02 -4.4159998356146932e-03 0.0000000000000000e+00  -1.7680853029593838e-02 -1.0048431066999444e-02 0.0000000000000000e+00  -1.3007090274339918e-02 -1.5246194581620236e-02 0.0000000000000000e+00  -5.9812420820795501e-03 -1.8036351260932094e-02 0.0000000000000000e+00  0.0000000000000000e+00 0.0000000000000000e+00 0.0000000000000000e+00  0.0000000000000000e+00 0.0000000000000000e+00 0.0000000000000000e+00  -7.1281686123807033e-03 2.3736696074701955e-02 0.0000000000000000e+00  -1.4890102834605254e-02 2.0408234817997285e-02 0.0000000000000000e+00  -2.0719390562483821e-02 1.4868561210300116e-02 0.0000000000000000e+00  -2.4408906810391748e-02 8.5794328783386949e-03 0.0000000000000000e+00  -2.6355347795530056e-02 1.8225956452905848e-03 0.0000000000000000e+00  -2.6763700146372721e-02 -5.5974320852868803e-03 0.0000000000000000e+00  -2.4501739960278220e-02 -1.3837359232751301e-02 0.0000000000000000e+00  -1.8696502879181603e-02 -2.1958674451728322e-02 0.0000000000000000e+00  -9.0143580979487117e-03 -2.6676658629442261e-02 0.0000000000000000e+00  0.0000000000000000e+00 0.0000000000000000e+00 0.0000000000000000e+00  0.0000000000000000e+00 0.0000000000000000e+00 0.0000000000000000e+00  -1.0601692453441733e-02 3.3936831454296268e-02 0.0000000000000000e+00  -2.1015075432361988e-02 2.8278313397249656e-02 0.0000000000000000e+00  -2.7864332233199583e-02 1.9852093528411364e-02 0.0000000000000000e+00  -3.1671392949548786e-02 1.1402177640434578e-02 0.0000000000000000e+00  -3.4123123392480095e-02 3.0667200240489644e-03 0.0000000000000000e+00  -3.4974941793236611e-02 -5.2272112976378031e-03 0.0000000000000000e+00  -3.3789473594860168e-02 -1.3680330195599113e-02 0.0000000000000000e+00  -3.0518001226253422e-02 -2.5164191375846339e-02 0.0000000000000000e+00  -1.6646462844202500e-02 -4.1884602622797987e-02 0.0000000000000000e+00  0.0000000000000000e+00 0.0000000000000000e+00 0.0000000000000000e+00  0.0000000000000000e+00 0.0000000000000000e+00 0.0000000000000000e+00  -1.7987559945466879e-02 4.9290405876313600e-02 0.0000000000000000e+00  -3.1976937961899078e-02 3.7857092253111443e-02 0.0000000000000000e+00  -3.8123267695525903e-02 2.4553846271652312e-02 0.0000000000000000e+00  -4.0479981881796967e-02 1.3857714070927996e-02 0.0000000000000000e+00  -4.2584784064854497e-02 5.1531073001397825e-03 0.0000000000000000e+00  -4.1502790857174308e-02 -2.4131950434446189e-03 0.0000000000000000e+00  -5.2377784473756496e-02 -2.1086269740908666e-02 0.0000000000000000e+00  -6.0319192358289295e-02 -7.0116152499664033e-02 0.0000000000000000e+00  -2.0026744362743841e-02 -9.5499759406447393e-02 0.0000000000000000e+00  0.0000000000000000e+00 0.0000000000000000e+00 0.0000000000000000e+00  0.0000000000000000e+00 0.0000000000000000e+00 0.0000000000000000e+00  -4.0488868154062836e-02 6.9220753944141816e-02 0.0000000000000000e+00  -5.3515047502159865e-02 4.5351880703196124e-02 0.0000000000000000e+00  -5.4301671939956622e-02 2.5729445242203768e-02 0.0000000000000000e+00  -5.2989992874842247e-02 1.4090529605039983e-02 0.0000000000000000e+00  -5.2391427320308506e-02 6.4637682759171250e-03 0.0000000000000000e+00  -4.9184858823380452e-02 -4.0483590341902582e-04 0.0000000000000000e+00  -9.0654614708087278e-02 3.1354815153532707e-04 0.0000000000000000e+00  -4.2804413773681632e-02 4.5996455539294108e-02 0.0000000000000000e+00  -7.3531424763976977e-02 -1.3368256661184377e-04 0.0000000000000000e+00  0.0000000000000000e+00 0.0000000000000000e+00 0.0000000000000000e+00  0.0000000000000000e+00 0.0000000000000000e+00 0.0000000000000000e+00  -3.0104652989609619e-02 6.9236379339315646e-02 0.0000000000000000e+00  -4.8315453330877889e-02 3.6811954420855421e-02 0.0000000000000000e+00  -5.6530836694072654e-02 1.9521700104878928e-02 0.0000000000000000e+00  -5.8164985950325675e-02 1.0960787245270323e-02 0.0000000000000000e+00  -5.9468016601392830e-02 6.0500229687763234e-03 0.0000000000000000e+00  -6.4541182398001579e-02 1.7245290114210941e-03 0.0000000000000000e+00  -7.4888388246530158e-02 8.3813450826864394e-03 0.0000000000000000e+00  1.8838740068828699e-02 4.4540007293666119e-02 0.0000000000000000e+00  -2.9777703599320698e-01 -4.2588389836921503e-01 0.0000000000000000e+00  0.0000000000000000e+00 0.0000000000000000e+00 0.0000000000000000e+00  0.0000000000000000e+00 0.0000000000000000e+00 0.0000000000000000e+00  1.0000000000000000e+00 0.0000000000000000e+00 0.0000000000000000e+00  1.0000000000000000e+00 0.0000000000000000e+00 0.0000000000000000e+00  1.0000000000000000e+00 0.0000000000000000e+00 0.0000000000000000e+00  1.0000000000000000e+00 0.0000000000000000e+00 0.0000000000000000e+00  1.0000000000000000e+00 0.0000000000000000e+00 0.0000000000000000e+00  1.0000000000000000e+00 0.0000000000000000e+00 0.0000000000000000e+00  1.0000000000000000e+00 0.0000000000000000e+00 0.0000000000000000e+00  1.0000000000000000e+00 0.0000000000000000e+00 0.0000000000000000e+00  1.0000000000000000e+00 0.0000000000000000e+00 0.0000000000000000e+00  0.0000000000000000e+00 0.0000000000000000e+00 0.0000000000000000e+00  </DataArray> 
</PointData> 
</Piece>
</UnstructuredGrid>
</VTKFile>