<?xml version="1.0"?>
<VTKFile type="UnstructuredGrid"  version="0.1"  >
<UnstructuredGrid>
<Piece  NumberOfPoints="1419" NumberOfCells="2698">
<Points>
<DataArray  type="Float64"  NumberOfComponents="3"  format="ascii">0 0 0  0 0.41 0  2.5 0 0  2.5 0.41 0  0.6 0.19 0  0.6 0.21 0  0.25 0.2 0  0.15 0.2 0  0.2489897948556636 0.21 0  0.2489897948556636 0.19 0  0.6 0.2 0  0 0.3807142857143437 0  0 0.3514285714286952 0  0 0.3221428571430699 0  0 0.29285714285744 0  0 0.2635714285718054 0  0 0.2342857142861561 0  0 0.2050000000005308 0  0 0.175714285714732 0  0 0.1464285714289574 0  0 0.1171428571431897 0  0 0.08785714285737878 0  0 0.05857142857161107 0  0 0.02928571428580012 0  0.03015443760436003 0 0  0.06140001986583606 0 0  0.09377624077125973 0 0  0.1273239957535082 0 0  0.1620856860351972 0 0  0.1981052433264291 0 0  0.235428184091502 0 0  0.2741016576309132 0 0  0.3141745521465447 0 0  0.3556974926295285 0 0  0.3987229542472677 0 0  0.4433053055141081 0 0  0.4895008759286886 0 0  0.5373680609405097 0 0  0.5869673343216626 0 0  0.6383613676634521 0 0  0.6916151138468254 0 0  0.7467958595648856 0 0  0.8039733463919316 0 0  0.8632198139502143 0 0  0.9246101326867038 0 0  0.9882218810934433 0 0  1.054135445558498 0 0  1.122434100542598 0 0  1.193204177141305 0 0  1.266535089879536 0 0  1.342519516046404 0 0  1.421253448503939 0 0  1.502836389106271 0 0  1.587371439758838 0 0  1.674965418777374 0 0  1.765729001825544 0 0  1.859776908880082 0 0  1.957227977487062 0 0  2.058205329869943 0 0  2.162836591189951 0 0  2.271253957290865 0 0  2.383594446803425 0 0  2.5 0.1024999999997612 0  2.5 0.2049999999994743 0  2.5 0.3074999999997183 0  2.383594446803656 0.41 0  2.271253957291315 0.41 0  2.162836591190598 0.41 0  2.058205329870775 0.41 0  1.957227977488067 0.41 0  1.859776908881246 0.41 0  1.765729001826854 0.41 0  1.674965418778818 0.41 0  1.58737143976041 0.41 0  1.502836389107956 0.41 0  1.421253448505726 0.41 0  1.342519516048286 0.41 0  1.266535089881505 0.41 0  1.193204177143353 0.41 0  1.122434100544716 0.41 0  1.05413544556068 0.41 0  0.9882218810956305 0.41 0  0.9246101326886647 0.41 0  0.8632198139519631 0.41 0  0.8039733463934788 0.41 0  0.7467958595662458 0.41 0  0.6916151138480078 0.41 0  0.6383613676644679 0.41 0  0.5869673343225223 0.41 0  0.5373680609412221 0.41 0  0.4895008759292634 0.41 0  0.4433053055145528 0.41 0  0.3987229542475914 0.41 0  0.3556974926297398 0.41 0  0.3141745521466497 0.41 0  0.2741016576310038 0.41 0  0.2354281840915826 0.41 0  0.1981052433265003 0.41 0  0.1620856860352591 0.41 0  0.1273239957535623 0.41 0  0.09377624077128965 0.41 0  0.06140001986584975 0.41 0  0.03015443760436654 0.41 0  0.2497468076502589 0.2050254481002335 0  0.2497468076502614 0.1949745518997913 0  0.2469965252529372 0.1829317073451959 0  0.2439893735792749 0.1762316384219906 0  0.2400332147834255 0.1700443375285386 0  0.2352133972704371 0.1645032867342007 0  0.2296339016332438 0.1597280261969788 0  0.2234150974217223 0.1558215752574715 0  0.2166911463437691 0.1528682099456123 0  0.2096071079204251 0.1509316448471593 0  0.2023158100364996 0.1500536585536553 0  0.194974551899914 0.1502531923497262 0  0.1877417105387872 0.1515259415822739 0  0.1807733240461124 0.153844448527136 0  0.1742197252835808 0.15715869474974 0  0.1682222986673531 0.1613971801805478 0  0.162910430003803 0.1664684656256651 0  0.1583987151779087 0.1722631454351573 0  0.1547844879126891 0.178656207771761 0  0.1521457199348551 0.1855097315605723 0  0.1505393388476355 0.1926758619366523 0  0.1505393388476328 0.2073241380633295 0  0.1521457199348437 0.2144902684393899 0  0.1547844879126531 0.221343792228163 0  0.1583987151778488 0.2277368545647528 0  0.1629104300036858 0.2335315343742052 0  0.1682222986671726 0.2386028198193036 0  0.1742197252833576 0.2428413052501257 0  0.1807733240458683 0.2461555514727623 0  0.1877417105384929 0.2484740584176516 0  0.1949745518995776 0.2497468076502398 0  0.202315810036185 0.2499463414463592 0  0.2096071079201568 0.2490683551528932 0  0.2166911463435495 0.2471317900544655 0  0.2234150974215506 0.2441784247426195 0  0.2296339016331197 0.2402719738031125 0  0.2352133972703547 0.2354967132658811 0  0.2400332147833751 0.2299556624715287 0  0.2439893735792577 0.2237683615780412 0  0.246996525252926 0.2170682926548348 0  0.25645809709277 0.21 0  0.2639263993298655 0.21 0  0.271394701566961 0.21 0  0.2788630038040554 0.21 0  0.2863313060411479 0.21 0  0.2937996082782405 0.21 0  0.301267910515333 0.21 0  0.3087362127524279 0.21 0  0.3162045149895234 0.21 0  0.3236728172265972 0.21 0  0.3311411194636928 0.21 0  0.3386094217007701 0.21 0  0.3460777239378666 0.21 0  0.3535460261749672 0.21 0  0.3610143284120516 0.21 0  0.3684826306491596 0.21 0  0.3759509328862226 0.21 0  0.383419235123329 0.21 0  0.3908875373604028 0.21 0  0.3983558395975142 0.21 0  0.4058241418345938 0.21 0  0.4132924440716992 0.21 0  0.4207607463087888 0.21 0  0.4282290485459029 0.21 0  0.4356973507830418 0.21 0  0.4431656530201649 0.21 0  0.4506339552573136 0.21 0  0.4581022574944306 0.21 0  0.4655705597315852 0.21 0  0.4730388619686996 0.21 0  0.480507164205851 0.21 0  0.4879754664429498 0.21 0  0.4954437686800938 0.21 0  0.502912070917267 0.21 0  0.5103803731544119 0.21 0  0.5178486753915261 0.21 0  0.5253169776286404 0.21 0  0.5327852798657868 0.21 0  0.5402535821029386 0.21 0  0.54772188434007 0.21 0  0.5551901865771842 0.21 0  0.5626584888143201 0.21 0  0.5701267910514778 0.21 0  0.5775950932886138 0.21 0  0.5850633955257281 0.21 0  0.5925316977628483 0.21 0  0.6 0.2050000000000054 0  0.6 0.1950000000000217 0  0.5925316977628897 0.19 0  0.5850633955257988 0.19 0  0.5775950932887378 0.19 0  0.5701267910515998 0.19 0  0.5626584888145268 0.19 0  0.5551901865773963 0.19 0  0.547721884340339 0.19 0  0.5402535821032429 0.19 0  0.5327852798661811 0.19 0  0.5253169776290537 0.19 0  0.5178486753919799 0.19 0  0.5103803731549078 0.19 0  0.502912070917822 0.19 0  0.4954437686807294 0.19 0  0.4879754664436223 0.19 0  0.4805071642065402 0.19 0  0.4730388619694271 0.19 0  0.4655705597323621 0.19 0  0.4581022574952563 0.19 0  0.4506339552581777 0.19 0  0.4431656530210671 0.19 0  0.4356973507839815 0.19 0  0.4282290485468779 0.19 0  0.4207607463097617 0.19 0  0.4132924440726327 0.19 0  0.4058241418354857 0.19 0  0.3983558395983636 0.19 0  0.3908875373612097 0.19 0  0.3834192351240934 0.19 0  0.3759509328869369 0.19 0  0.3684826306498175 0.19 0  0.361014328412667 0.19 0  0.3535460261755617 0.19 0  0.3460777239384295 0.19 0  0.3386094217012945 0.19 0  0.3311411194641595 0.19 0  0.3236728172270245 0.19 0  0.3162045149898895 0.19 0  0.3087362127527544 0.19 0  0.3012679105156187 0.19 0  0.2937996082784807 0.19 0  0.2863313060413428 0.19 0  0.2788630038042048 0.19 0  0.2713947015670686 0.19 0  0.2639263993299336 0.19 0  0.2564580970927985 0.19 0  0.2607803159922026 0.2000727136295815 0  0.5887803774232762 0.2001272386983733 0  0.5745072403740523 0.2002044435018727 0  0.5511891430099709 0.2001122610077113 0  0.2751288526855082 0.20000000000002 0  0.5365194309847112 0.1999999999999436 0  0.2894621222999649 0.1998691686390484 0  0.5215828265105155 0.1999999999999228 0  0.3127789816668748 0.1998657885438805 0  0.3274069683451451 0.2000000000000796 0  0.5066462220363641 0.199999999999908 0  0.3650630746574081 0.199866017807523 0  0.476773013087985 0.1999999999998713 0  0.3417402379596385 0.1998691686391011 0  0.3796850840047755 0.200000000000134 0  0.4618364086138087 0.1999999999998546 0  0.4917096175621762 0.1999999999998808 0  0.3946216884789568 0.2000000000001512 0  0.446899804139621 0.1999999999998389 0  0.4089549580935208 0.1998691686391595 0  0.4322718174608562 0.200127451265745 0  0.4201487168029707 0.1999966199048527 0  0.3528922713220932 0.2000185703532356 0  0.5633122436674589 0.1999814296467508 0  0.3006558810093873 0.1999966199048318 0  0.5815926498168407 0.1966545283159175 0  0.2677053789419034 0.1964246479135325 0  0.5290511287476175 0.1970915826863981 0  0.5439877332217911 0.197091582686394 0  0.2825131256993216 0.2035478995978015 0  0.3199386661080599 0.202908417313604 0  0.4842413153250809 0.1970915826863873 0  0.5141145242734466 0.1970915826863843 0  0.3722167817676917 0.2029084173136195 0  0.4693047108508938 0.1970915826863783 0  0.3348752705822316 0.202908417313609 0  0.3871533862418661 0.2029084173136212 0  0.4543681063767183 0.1970915826863795 0  0.4991779197992749 0.1970915826863902 0  0.4020059614928624 0.203547899597858 0  0.4394315019025246 0.1970915826863714 0  0.2550657455369551 0.2034088125358657 0  0.2548908499171161 0.1966940311614271 0  0.5946539510196798 0.2024302972968126 0  0.267698176732111 0.2039977513680092 0  0.4261685417851465 0.196409292431739 0  0.3590076176283495 0.196411355804271 0  0.5571672426447437 0.2036011176410121 0  0.3066757059912147 0.1964092924317024 0  0.594380730180568 0.1966558399668133 0  0.4842413153245942 0.2040749161535287 0  0.4693047108503577 0.2040749161535231 0  0.3871533862424271 0.1959250838464788 0  0.372246743208829 0.1959123236376545 0  0.5141145242731028 0.2040749161535395 0  0.4543681063761134 0.2040749161535186 0  0.4019979587101454 0.1959834479682427 0  0.4394608940728603 0.2040870543693135 0  0.5439623148931173 0.2040856076781014 0  0.5290511287473298 0.2040749161535501 0  0.4991779197988497 0.2040749161535382 0  0.3347912413592433 0.1959225448935183 0  0.3199680582793816 0.1959123018030061 0  0.2825051229162361 0.1959834479681729 0  0.3590471196690275 0.2036304442587945 0  0.5571594006495384 0.1963685282145804 0  0.3067669986803285 0.203627750582736 0  0.4262598344738712 0.2036568242185335 0  0.5814408164431408 0.2041285596160068 0  0.5688286748170428 0.1961819304477386 0  0.4145905603063645 0.2038180695522843 0  0.3473758401724931 0.2038180695522752 0  0.2950977245128307 0.2038180695522663 0  0.5688286748170693 0.203818069552238 0  0.2950977245127906 0.1961819304477774 0  0.3473758401723931 0.1961819304478349 0  0.4145905603061963 0.1961819304479011 0  0.2601812407614425 0.2056861609747042
[...]
<PointData  Vectors="f_40-1"> 
<DataArray  type="Float64"  Name="f_40-1"  NumberOfComponents="3" format="ascii">0.0000000000000000e+00 0.0000000000000000e+00 0.0000000000000000e+00  0.0000000000000000e+00 0.0000000000000000e+00 0.0000000000000000e+00  0.0000000000000000e+00 0.0000000000000000e+00 0.0000000000000000e+00  0.0000000000000000e+00 0.0000000000000000e+00 0.0000000000000000e+00  -1.8110646498459430e-05 -5.3402394572193241e-04 0.0000000000000000e+00  2.3821240388393515e-05 -5.3803637058029864e-04 0.0000000000000000e+00  0.0000000000000000e+00 0.0000000000000000e+00 0.0000000000000000e+00  0.0000000000000000e+00 0.0000000000000000e+00 0.0000000000000000e+00  0.0000000000000000e+00 0.0000000000000000e+00 0.0000000000000000e+00  0.0000000000000000e+00 0.0000000000000000e+00 0.0000000000000000e+00  2.4926665254840394e-06 -5.3602401407030825e-04 0.0000000000000000e+00  0.0000000000000000e+00 0.0000000000000000e+00 0.0000000000000000e+00  0.0000000000000000e+00 0.0000000000000000e+00 0.0000000000000000e+00  0.0000000000000000e+00 0.0000000000000000e+00 0.0000000000000000e+00  0.0000000000000000e+00 0.0000000000000000e+00 0.0000000000000000e+00  0.0000000000000000e+00 0.0000000000000000e+00 0.0000000000000000e+00  0.0000000000000000e+00 0.0000000000000000e+00 0.0000000000000000e+00  0.0000000000000000e+00 0.0000000000000000e+00 0.0000000000000000e+00  0.0000000000000000e+00 0.0000000000000000e+00 0.0000000000000000e+00  0.0000000000000000e+00 0.0000000000000000e+00 0.0000000000000000e+00  0.0000000000000000e+00 0.0000000000000000e+00 0.0000000000000000e+00  0.0000000000000000e+00 0.0000000000000000e+00 0.0000000000000000e+00  0.0000000000000000e+00 0.0000000000000000e+00 0.0000000000000000e+00  0.0000000000000000e+00 0.0000000000000000e+00 0.0000000000000000e+00  0.0000000000000000e+00 0.0000000000000000e+00 0.0000000000000000e+00  0.0000000000000000e+00 0.0000000000000000e+00 0.0000000000000000e+00  0.0000000000000000e+00 0.0000000000000000e+00 0.0000000000000000e+00  0.0000000000000000e+00 0.0000000000000000e+00 0.0000000000000000e+00  0.0000000000000000e+00 0.0000000000000000e+00 0.0000000000000000e+00  0.0000000000000000e+00 0.0000000000000000e+00 0.0000000000000000e+00  0.0000000000000000e+00 0.0000000000000000e+00 0.0000000000000000e+00  0.0000000000000000e+00 0.0000000000000000e+00 0.0000000000000000e+00  0.0000000000000000e+00 0.0000000000000000e+00 0.0000000000000000e+00  0.0000000000000000e+00 0.0000000000000000e+00 0.0000000000000000e+00  0.0000000000000000e+00 0.0000000000000000e+00 0.0000000000000000e+00  0.0000000000000000e+00 0.0000000000000000e+00 0.0000000000000000e+00  0.0000000000000000e+00 0.0000000000000000e+00 0.0000000000000000e+00  0.0000000000000000e+00 0.0000000000000000e+00 0.0000000000000000e+00  0.0000000000000000e+00 0.0000000000000000e+00 0.0000000000000000e+00  0.0000000000000000e+00 0.0000000000000000e+00 0.0000000000000000e+00  0.0000000000000000e+00 0.0000000000000000e+00 0.0000000000000000e+00  0.0000000000000000e+00 0.0000000000000000e+00 0.0000000000000000e+00  0.0000000000000000e+00 0.0000000000000000e+00 0.0000000000000000e+00  0.0000000000000000e+00 0.0000000000000000e+00 0.0000000000000000e+00  0.0000000000000000e+00 0.0000000000000000e+00 0.0000000000000000e+00  0.0000000000000000e+00 0.0000000000000000e+00 0.0000000000000000e+00  0.0000000000000000e+00 0.0000000000000000e+00 0.0000000000000000e+00  0.0000000000000000e+00 0.0000000000000000e+00 0.0000000000000000e+00  0.0000000000000000e+00 0.0000000000000000e+00 0.0000000000000000e+00  0.0000000000000000e+00 0.0000000000000000e+00 0.0000000000000000e+00  0.0000000000000000e+00 0.0000000000000000e+00 0.0000000000000000e+00  0.0000000000000000e+00 0.0000000000000000e+00 0.0000000000000000e+00  0.0000000000000000e+00 0.0000000000000000e+00 0.0000000000000000e+00  0.0000000000000000e+00 0.0000000000000000e+00 0.0000000000000000e+00  0.0000000000000000e+00 0.0000000000000000e+00 0.0000000000000000e+00  0.0000000000000000e+00 0.0000000000000000e+00 0.0000000000000000e+00  0.0000000000000000e+00 0.0000000000000000e+00 0.0000000000000000e+00  0.0000000000000000e+00 0.0000000000000000e+00 0.0000000000000000e+00  0.0000000000000000e+00 0.0000000000000000e+00 0.0000000000000000e+00  0.0000000000000000e+00 0.0000000000000000e+00 0.0000000000000000e+00  0.0000000000000000e+00 0.0000000000000000e+00 0.0000000000000000e+00  0.0000000000000000e+00 0.0000000000000000e+00 0.0000000000000000e+00  0.0000000000000000e+00 0.0000000000000000e+00 0.0000000000000000e+00  0.0000000000000000e+00 0.0000000000000000e+00 0.0000000000000000e+00  0.0000000000000000e+00 0.0000000000000000e+00 0.0000000000000000e+00  0.0000000000000000e+00 0.0000000000000000e+00 0.0000000000000000e+00  0.0000000000000000e+00 0.0000000000000000e+00 0.0000000000000000e+00  0.0000000000000000e+00 0.0000000000000000e+00 0.0000000000000000e+00  0.0000000000000000e+00 0.0000000000000000e+00 0.0000000000000000e+00  0.0000000000000000e+00 0.0000000000000000e+00 0.0000000000000000e+00  0.0000000000000000e+00 0.0000000000000000e+00 0.0000000000000000e+00  0.0000000000000000e+00 0.0000000000000000e+00 0.0000000000000000e+00  0.0000000000000000e+00 0.0000000000000000e+00 0.0000000000000000e+00  0.0000000000000000e+00 0.0000000000000000e+00 0.0000000000000000e+00  0.0000000000000000e+00 0.0000000000000000e+00 0.0000000000000000e+00  0.0000000000000000e+00 0.0000000000000000e+00 0.0000000000000000e+00  0.0000000000000000e+00 0.0000000000000000e+00 0.0000000000000000e+00  0.0000000000000000e+00 0.0000000000000000e+00 0.0000000000000000e+00  0.0000000000000000e+00 0.0000000000000000e+00 0.0000000000000000e+00  0.0000000000000000e+00 0.0000000000000000e+00 0.0000000000000000e+00  0.0000000000000000e+00 0.0000000000000000e+00 0.0000000000000000e+00  0.0000000000000000e+00 0.0000000000000000e+00 0.0000000000000000e+00  0.0000000000000000e+00 0.0000000000000000e+00 0.0000000000000000e+00  0.0000000000000000e+00 0.0000000000000000e+00 0.0000000000000000e+00  0.0000000000000000e+00 0.0000000000000000e+00 0.0000000000000000e+00  0.0000000000000000e+00 0.0000000000000000e+00 0.0000000000000000e+00  0.0000000000000000e+00 0.0000000000000000e+00 0.0000000000000000e+00  0.0000000000000000e+00 0.0000000000000000e+00 0.0000000000000000e+00  0.0000000000000000e+00 0.0000000000000000e+00 0.0000000000000000e+00  0.0000000000000000e+00 0.0000000000000000e+00 0.0000000000000000e+00  0.0000000000000000e+00 0.0000000000000000e+00 0.0000000000000000e+00  0.0000000000000000e+00 0.0000000000000000e+00 0.0000000000000000e+00  0.0000000000000000e+00 0.0000000000000000e+00 0.0000000000000000e+00  0.0000000000000000e+00 0.0000000000000000e+00 0.0000000000000000e+00  0.0000000000000000e+00 0.0000000000000000e+00 0.0000000000000000e+00  0.0000000000000000e+00 0.0000000000000000e+00 0.0000000000000000e+00  0.0000000000000000e+00 0.0000000000000000e+00 0.0000000000000000e+00  0.0000000000000000e+00 0.0000000000000000e+00 0.0000000000000000e+00  0.0000000000000000e+00 0.0000000000000000e+00 0.0000000000000000e+00  0.0000000000000000e+00 0.0000000000000000e+00 0.0000000000000000e+00  0.0000000000000000e+00 0.0000000000000000e+00 0.0000000000000000e+00  0.0000000000000000e+00 0.0000000000000000e+00 0.0000000000000000e+00  0.0000000000000000e+00 0.0000000000000000e+00 0.0000000000000000e+00  0.0000000000000000e+00 0.0000000000000000e+00 0.0000000000000000e+00  0.0000000000000000e+00 0.0000000000000000e+00 0.0000000000000000e+00  0.0000000000000000e+00 0.0000000000000000e+00 0.0000000000000000e+00  0.0000000000000000e+00 0.0000000000000000e+00 0.0000000000000000e+00  0.0000000000000000e+00 0.0000000000000000e+00 0.0000000000000000e+00  0.0000000000000000e+00 0.0000000000000000e+00 0.0000000000000000e+00  0.0000000000000000e+00 0.0000000000000000e+00 0.0000000000000000e+00  0.0000000000000000e+00 0.0000000000000000e+00 0.0000000000000000e+00  0.0000000000000000e+00 0.0000000000000000e+00 0.0000000000000000e+00  0.0000000000000000e+00 0.0000000000000000e+00 0.0000000000000000e+00  0.0000000000000000e+00 0.0000000000000000e+00 0.0000000000000000e+00  0.0000000000000000e+00 0.0000000000000000e+00 0.0000000000000000e+00  0.0000000000000000e+00 0.0000000000000000e+00 0.0000000000000000e+00  0.0000000000000000e+00 0.0000000000000000e+00 0.0000000000000000e+00  0.0000000000000000e+00 0.0000000000000000e+00 0.0000000000000000e+00  0.0000000000000000e+00 0.0000000000000000e+00 0.0000000000000000e+00  0.0000000000000000e+00 0.0000000000000000e+00 0.0000000000000000e+00  0.0000000000000000e+00 0.0000000000000000e+00 0.0000000000000000e+00  0.0000000000000000e+00 0.0000000000000000e+00 0.0000000000000000e+00  0.0000000000000000e+00 0.0000000000000000e+00 0.0000000000000000e+00  0.0000000000000000e+00 0.0000000000000000e+00 0.0000000000000000e+00  0.0000000000000000e+00 0.0000000000000000e+00 0.0000000000000000e+00  0.0000000000000000e+00 0.0000000000000000e+00 0.0000000000000000e+00  0.0000000000000000e+00 0.0000000000000000e+00 0.0000000000000000e+00  0.0000000000000000e+00 0.0000000000000000e+00 0.0000000000000000e+00  0.0000000000000000e+00 0.0000000000000000e+00 0.0000000000000000e+00  0.0000000000000000e+00 0.0000000000000000e+00 0.0000000000000000e+00  0.0000000000000000e+00 0.0000000000000000e+00 0.0000000000000000e+00  0.0000000000000000e+00 0.0000000000000000e+00 0.0000000000000000e+00  0.0000000000000000e+00 0.0000000000000000e+00 0.0000000000000000e+00  0.0000000000000000e+00 0.0000000000000000e+00 0.0000000000000000e+00  0.0000000000000000e+00 0.0000000000000000e+00 0.0000000000000000e+00  0.0000000000000000e+00 0.0000000000000000e+00 0.0000000000000000e+00  0.0000000000000000e+00 0.0000000000000000e+00 0.0000000000000000e+00  0.0000000000000000e+00 0.0000000000000000e+00 0.0000000000000000e+00  0.0000000000000000e+00 0.0000000000000000e+00 0.0000000000000000e+00  0.0000000000000000e+00 0.0000000000000000e+00 0.0000000000000000e+00  0.0000000000000000e+00 0.0000000000000000e+00 0.0000000000000000e+00  0.0000000000000000e+00 0.0000000000000000e+00 0.0000000000000000e+00  0.0000000000000000e+00 0.0000000000000000e+00 0.0000000000000000e+00  1.0672112582869816e-06 -4.0807923617666035e-06 0.0000000000000000e+00  2.4127355144952348e-06 -5.3949760789769278e-06 0.0000000000000000e+00  3.8641514483636696e-06 -7.2917034322095074e-06 0.0000000000000000e+00  5.5357954530011104e-06 -9.8774059718512379e-06 0.0000000000000000e+00  7.0971956241751510e-06 -1.3197619770824379e-05 0.0000000000000000e+00  8.8289465754510217e-06 -1.7329034011222634e-05 0.0000000000000000e+00  1.0359325522282685e-05 -2.2068079228573517e-05 0.0000000000000000e+00  1.1887909679732017e-05 -2.7620840635196886e-05 0.0000000000000000e+00  1.3575656177288045e-05 -3.3803015149495551e-05 0.0000000000000000e+00  1.5013321634543961e-05 -4.0651706801892697e-05 0.0000000000000000e+00  1.6647790914840231e-05 -4.8169894239754835e-05 0.0000000000000000e+00  1.8016468313267307e-05 -5.6305739793154684e-05 0.0000000000000000e+00  1.9523760871203905e-05 -6.5053071825821253e-05 0.0000000000000000e+00  2.0821197866156757e-05 -7.4295674800843424e-05 0.0000000000000000e+00  2.2072169996787268e-05 -8.4153097703076131e-05 0.0000000000000000e+00  2.3399931150641849e-05 -9.4481878446572596e-05 0.0000000000000000e+00  2.4493370878649732e-05 -1.0527585116870767e-04 0.0000000000000000e+00  2.5674061672360160e-05 -1.1655996734894389e-04 0.0000000000000000e+00  2.6624168006488138e-05 -1.2823417386815362e-04 0.0000000000000000e+00  2.7629571881773744e-05 -1.4032581127782290e-04 0.0000000000000000e+00  2.8453513304452349e-05 -1.5276342173480223e-04 0.0000000000000000e+00  2.9271987579985388e-05 -1.6557419255310336e-04 0.0000000000000000e+00  2.9940063944832117e-05 -1.7864336784421400e-04 0.0000000000000000e+00  3.0528263754683197e-05 -1.9204072405206674e-04 0.0000000000000000e+00  3.1111811733662940e-05 -2.0567194073947183e-04 0.0000000000000000e+00  3.1553000276555100e-05 -2.1953899743294586e-04 0.0000000000000000e+00  3.1934459311597128e-05 -2.3366357811910188e-04 0.0000000000000000e+00  3.2215721785601708e-05 -2.4793816259081956e-04 0.0000000000000000e+00  3.2434154998593565e-05 -2.6243738029452154e-04 0.0000000000000000e+00  3.2559233532068816e-05 -2.7705287377691098e-04 0.0000000000000000e+00  3.2619459580143799e-05 -2.9185645531565980e-04 0.0000000000000000e+00  3.2590293501124356e-05 -3.0674334861022500e-04 0.0000000000000000e+00  3.2497539732555338e-05 -3.2178675434737380e-04 0.0000000000000000e+00  3.2318229829084378e-05 -3.3688206565435954e-04 0.0000000000000000e+00  3.2071975969820516e-05 -3.5211054247403291e-04 0.0000000000000000e+00  3.1746922562814050e-05 -3.6736860521375099e-04 0.0000000000000000e+00  3.1356813326309367e-05 -3.8273237851640311e-04 0.0000000000000000e+00  3.0891233932232031e-05 -3.9810647886577739e-04 0.0000000000000000e+00  3.0358724818229843e-05 -4.1356641245380150e-04 0.0000000000000000e+00  2.9751626684719245e-05 -4.2902071808996033e-04 0.0000000000000000e+00  2.9070343490575214e-05 -4.4453184609923415e-04 0.0000000000000000e+00  2.8331025738075496e-05 -4.6004582553899325e-04 0.0000000000000000e+00  2.7514546159763934e-05 -4.7558478153220509e-04 0.0000000000000000e+00  2.6658110603921778e-05 -4.9113203363875446e-04 0.0000000000000000e+00  2.5720359181933231e-05 -5.0666424282707311e-04 0.0000000000000000e+00  2.4748054834525796e-05 -5.2224808110093392e-04 0.0000000000000000e+00  1.3026961121012840e-05 -5.3702930584203037e-04 0.0000000000000000e+00  -7.9229666886721220e-06 -5.3502479612000829e-04 0.0000000000000000e+00  -1.7162134955569526e-05 -5.1849339516846964e-04 0.0000000000000000e+00  -1.6158060198904564e-05 -5.0278172052556195e-04 0.0000000000000000e+00  -1.5189960826101468e-05 -4.8704522722444040e-04 0.0000000000000000e+00  -1.4287276135754684e-05 -4.7134601981802410e-04 0.0000000000000000e+00  -1.3425157617657559e-05 -4.5565890413698230e-04 0.0000000000000000e+00  -1.2631314247244574e-05 -4.3999378333258224e-04 0.0000000000000000e+00  -1.1871260695434754e-05 -4.2435975427975809e-04 0.0000000000000000e+00  -1.1180724987348299e-05 -4.0873377273337457e-04 0.0000000000000000e+00  -1.0525671168668818e-05 -3.9317803415235715e-04 0.0000000000000000e+00  -9.9343343098273375e-06 -3.7763088398170126e-04 0.0000000000000000e+00  -9.3687826901397703e-06 -3.6217170803108477e-04 0.0000000000000000e+00  -8.8709189221666680e-06 -3.4674152551363507e-04 0.0000000000000000e+00  -8.3887849285306623e-06 -3.3142121208053736e-04 0.0000000000000000e+00  -7.9774672707104450e-06 -3.1615450528331917e-04 0.0000000000000000e+00  -7.5691293347151584e-06 -3.0101993630896409e-04 0.0000000000000000e+00  -7.2383698872038831e-06 -2.8596658223366576e-04 0.0000000000000000e+00  -6.8975451523842403e-06 -2.7107278826306823e-04 0.0000000000000000e+00  -6.6418357839638451e-06 -2.5629257877340825e-04 0.0000000000000000e+00  -6.3609429166218558e-06 -2.4170648907602494e-04 0.0000000000000000e+00  -6.1725133139827836e-06 -2.2727173944114463e-04 0.0000000000000000e+00  -5.9394072715267250e-06 -2.1306678748398404e-04 0.0000000000000000e+00  -5.8076714421275605e-06 -1.9905739400161509e-04 0.0000000000000000e+00  -5.6244915455916824e-06 -1.8531220828861856e-04 0.0000000000000000e+00  -5.5212822639868075e-06 -1.7180277848018212e-04 0.0000000000000000e+00  -5.4475165793703915e-06 -1.5863403949981471e-04 0.0000000000000000e+00  -5.3022221596442730e-06 -1.4572217363768386e-04 0.0000000000000000e+00  -5.2312096915028094e-06 -1.3318097165494202e-04 0.0000000000000000e+00  -5.1220966887596974e-06 -1.2101407311569423e-04 0.0000000000000000e+00  -5.0593108149098672e-06 -1.0924251722451119e-04 0.0000000000000000e+00  -4.9548229140470183e-06 -9.7910140708193472e-05 0.0000000000000000e+00  -4.8901629024023903e-06 -8.7014573858298450e-05 0.0000000000000000e+00  -4.7251174400683823e-06 -7.6673124124791638e-05 0.0000000000000000e+00  -4.6679328051988665e-06 -6.6762297090275363e-05 0.0000000000000000e+00  -4.6064143165281271e-06 -5.7495590423987686e-05 0.0000000000000000e+00  -4.3976064668892037e-06 -4.8690078157328350e-05 0.0000000000000000e+00  -4.2576762044282611e-06 -4.0557916439381859e-05 0.0000000000000000e+00  -4.0357621735437124e-06 -3.3040603914847806e-05 0.0000000000000000e+00  -3.8544690512959590e-06 -2.6168144434501706e-05 0.0000000000000000e+00  -3.5225098222892922e-06 -2.0043597267122486e-05 0.0000000000000000e+00  -3.3270580520952516e-06 -1.4502988950394518e-05 0.0000000000000000e+00  -3.1162611240308402e-06 -9.7938807743025935e-06 0.0000000000000000e+00  -2.7116524357812140e-06 -5.6741809280014511e-06 0.0000000000000000e+00  -2.4179455084389249e-06 -2.3348434378079479e-06 0.0000000000000000e+00  -1.9310809839073952e-06 2.4505523514772151e-07 0.0000000000000000e+00  -1.4928139531748668e-06 1.9590005152351635e-06 0.0000000000000000e+00  -7.3759750882037671e-07 2.7300204225171317e-06 0.0000000000000000e+00  -3.0401593531001879e-07 -6.7920306634686274e-07 0.0000000000000000e+00  4.4096388464789622e-06 -5.1252599321652671e-04 0.0000000000000000e+00  6.4733941046441579e-06 -4.8265727122162962e-04 0.0000000000000000e+00  8.7890422666146857e-06 -4.3392340225392495e-04 0.0000000000000000e+00  1.2320922403582234e-06 -4.2286765894634688e-06 0.0000000000000000e+00  9.8237241934263274e-06 -4.0336274495270265e-04 0.0000000000000000e+00  2.4019678218494043e-06 -1.0529142466341276e-05 0.0000000000000000e+00  1.0889201901679661e-05 -3.7242850764274501e-04 0.0000000000000000e+00  4.4121711679225290e-06 -2.6577104037113163e-05 0.0000000000000000e+00  5.8188832642359433e-06 -4.0116049205099956e-05 0.0000000000000000e+00  1.1721870791312460e-05 -3.4172522748584881e-04 0.0000000000000000e+00  8.7626205975641170e-06 -8.5571723493647138e-05 0.0000000000000000e+00  1.2700624687219842e-05 -2.8137918192751331e-04 0.0000000000000000e+00  6.9130005449327747e-06 -5.5656198664940120e-05 0.0000000000000000e+00  9.9954228434050385e-06 -1.0690548746659013e-04 0.0000000000000000e+00  1.2852473380863903e-05 -2.5195941648476427e-04 0.0000000000000000e+00  1.2324839564052217e-05 -3.1134119768122797e-04 0.0000000000000000e+00  1.0930475670580065e-05 -1.3038708454057724e-04 0.0000000000000000e+00  1.2783101789618404e-05 -2.2322172664194861e-04 0.0000000000000000e+00  1.1453973267654585e-05 -1.5431970283558502e-04 0.0000000000000000e+00  1.2748744022628671e-05 -1.9592729821583103e-04 0.0000000000000000e+00  1.2113706422280053e-05 -1.7399227967431058e-04 0.0000000000000000e+00  8.0041134498282078e-06 -6.9440786266468098e-05 0.0000000000000000e+00  7.2620062965571343e-06 -4.5920448676887337e-04 0.0000000000000000e+00  3.4422271223354748e-06 -1.7528368692266379e-05 0.0000000000000000e+00  -1.8618566218959745e-06 -4.9679336572220701e-04 0.0000000000000000e+00  -3.5659886567303588e-07 -7.1724931193820729e-07 0.0000000000000000e+00  4.3738425605021302e-06 -3.8714749917844485e-04 0.0000000000000000e+00  3.1592571762697906e-06 -4.1820535394397938e-04 0.0000000000000000e+00  3.4273769795388663e-06 -8.5708917781513351e-06 0.0000000000000000e+00  7.8217099046273485e-06 -3.4075749367400084e-05 0.0000000000000000e+00  6.7253820377637145e-06 -2.9546756977080914e-04 0.0000000000000000e+00  5.3699571139322411e-06 -3.5628132719285068e-04 0.0000000000000000e+00  1.3677923690935957e-05 -9.6927454978922066e-05 0.0000000000000000e+00  7.0971829686818823e-06 -2.6572577755278569e-04 0.0000000000000000e+00  9.6063378015379532e-06 -4.9118551105047617e-05 0.0000000000000000e+00  1.5019293954574698e-05 -1.1953620223624196e-04 0.0000000000000000e+00  7.2726451228195836e-06 -2.3659564009948552e-04 0.0000000000000000e+00  6.1514475723712015e-06 -3.2568945687289096e-04 0.0000000000000000e+00  1.7231011474791832e-05 -1.4387722795002362e-04 0.0000000000000000e+00  7.2589042523696984e-06 -2.0822441068420292e-04 0.0000000000000000e+00  -3.9251759219381191e-07 -9.3380766204291250e-07 0.0000000000000000e+00  -6.9058851747814328e-07 6.4827753226424889e-07 0.0000000000000000e+00  8.3793305088306214e-06 -5.2527113280116092e-04 0.0000000000000000e+00  1.5161362000354322e-06 -3.68