<?xml version="1.0"?>
<VTKFile type="UnstructuredGrid"  version="0.1"  >
<UnstructuredGrid>
<Piece  NumberOfPoints="1419" NumberOfCells="2698">
<Points>
<DataArray  type="Float64"  NumberOfComponents="3"  format="ascii">0 0 0  0 0.41 0  2.5 0 0  2.5 0.41 0  0.6 0.19 0  0.6 0.21 0  0.25 0.2 0  0.15 0.2 0  0.2489897948556636 0.21 0  0.2489897948556636 0.19 0  0.6 0.2 0  0 0.3807142857143437 0  0 0.3514285714286952 0  0 0.3221428571430699 0  0 0.29285714285744 0  0 0.2635714285718054 0  0 0.2342857142861561 0  0 0.2050000000005308 0  0 0.175714285714732 0  0 0.1464285714289574 0  0 0.1171428571431897 0  0 0.08785714285737878 0  0 0.05857142857161107 0  0 0.02928571428580012 0  0.03015443760436003 0 0  0.06140001986583606 0 0  0.09377624077125973 0 0  0.1273239957535082 0 0  0.1620856860351972 0 0  0.1981052433264291 0 0  0.235428184091502 0 0  0.2741016576309132 0 0  0.3141745521465447 0 0  0.3556974926295285 0 0  0.3987229542472677 0 0  0.4433053055141081 0 0  0.4895008759286886 0 0  0.5373680609405097 0 0  0.5869673343216626 0 0  0.6383613676634521 0 0  0.6916151138468254 0 0  0.7467958595648856 0 0  0.8039733463919316 0 0  0.8632198139502143 0 0  0.9246101326867038 0 0  0.9882218810934433 0 0  1.054135445558498 0 0  1.122434100542598 0 0  1.193204177141305 0 0  1.266535089879536 0 0  1.342519516046404 0 0  1.421253448503939 0 0  1.502836389106271 0 0  1.587371439758838 0 0  1.674965418777374 0 0  1.765729001825544 0 0  1.859776908880082 0 0  1.957227977487062 0 0  2.058205329869943 0 0  2.162836591189951 0 0  2.271253957290865 0 0  2.383594446803425 0 0  2.5 0.1024999999997612 0  2.5 0.2049999999994743 0  2.5 0.3074999999997183 0  2.383594446803656 0.41 0  2.271253957291315 0.41 0  2.162836591190598 0.41 0  2.058205329870775 0.41 0  1.957227977488067 0.41 0  1.859776908881246 0.41 0  1.765729001826854 0.41 0  1.674965418778818 0.41 0  1.58737143976041 0.41 0  1.502836389107956 0.41 0  1.421253448505726 0.41 0  1.342519516048286 0.41 0  1.266535089881505 0.41 0  1.193204177143353 0.41 0  1.122434100544716 0.41 0  1.05413544556068 0.41 0  0.9882218810956305 0.41 0  0.9246101326886647 0.41 0  0.8632198139519631 0.41 0  0.8039733463934788 0.41 0  0.7467958595662458 0.41 0  0.6916151138480078 0.41 0  0.6383613676644679 0.41 0  0.5869673343225223 0.41 0  0.5373680609412221 0.41 0  0.4895008759292634 0.41 0  0.4433053055145528 0.41 0  0.3987229542475914 0.41 0  0.3556974926297398 0.41 0  0.3141745521466497 0.41 0  0.2741016576310038 0.41 0  0.2354281840915826 0.41 0  0.1981052433265003 0.41 0  0.1620856860352591 0.41 0  0.1273239957535623 0.41 0  0.09377624077128965 0.41 0  0.06140001986584975 0.41 0  0.03015443760436654 0.41 0  0.2497468076502589 0.2050254481002335 0  0.2497468076502614 0.1949745518997913 0  0.2469965252529372 0.1829317073451959 0  0.2439893735792749 0.1762316384219906 0  0.2400332147834255 0.1700443375285386 0  0.2352133972704371 0.1645032867342007 0  0.2296339016332438 0.1597280261969788 0  0.2234150974217223 0.1558215752574715 0  0.2166911463437691 0.1528682099456123 0  0.2096071079204251 0.1509316448471593 0  0.2023158100364996 0.1500536585536553 0  0.194974551899914 0.1502531923497262 0  0.1877417105387872 0.1515259415822739 0  0.1807733240461124 0.153844448527136 0  0.1742197252835808 0.15715869474974 0  0.1682222986673531 0.1613971801805478 0  0.162910430003803 0.1664684656256651 0  0.1583987151779087 0.1722631454351573 0  0.1547844879126891 0.178656207771761 0  0.1521457199348551 0.1855097315605723 0  0.1505393388476355 0.1926758619366523 0  0.1505393388476328 0.2073241380633295 0  0.1521457199348437 0.2144902684393899 0  0.1547844879126531 0.221343792228163 0  0.1583987151778488 0.2277368545647528 0  0.1629104300036858 0.2335315343742052 0  0.1682222986671726 0.2386028198193036 0  0.1742197252833576 0.2428413052501257 0  0.1807733240458683 0.2461555514727623 0  0.1877417105384929 0.2484740584176516 0  0.1949745518995776 0.2497468076502398 0  0.202315810036185 0.2499463414463592 0  0.2096071079201568 0.2490683551528932 0  0.2166911463435495 0.2471317900544655 0  0.2234150974215506 0.2441784247426195 0  0.2296339016331197 0.2402719738031125 0  0.2352133972703547 0.2354967132658811 0  0.2400332147833751 0.2299556624715287 0  0.2439893735792577 0.2237683615780412 0  0.246996525252926 0.2170682926548348 0  0.25645809709277 0.21 0  0.2639263993298655 0.21 0  0.271394701566961 0.21 0  0.2788630038040554 0.21 0  0.2863313060411479 0.21 0  0.2937996082782405 0.21 0  0.301267910515333 0.21 0  0.3087362127524279 0.21 0  0.3162045149895234 0.21 0  0.3236728172265972 0.21 0  0.3311411194636928 0.21 0  0.3386094217007701 0.21 0  0.3460777239378666 0.21 0  0.3535460261749672 0.21 0  0.3610143284120516 0.21 0  0.3684826306491596 0.21 0  0.3759509328862226 0.21 0  0.383419235123329 0.21 0  0.3908875373604028 0.21 0  0.3983558395975142 0.21 0  0.4058241418345938 0.21 0  0.4132924440716992 0.21 0  0.4207607463087888 0.21 0  0.4282290485459029 0.21 0  0.4356973507830418 0.21 0  0.4431656530201649 0.21 0  0.4506339552573136 0.21 0  0.4581022574944306 0.21 0  0.4655705597315852 0.21 0  0.4730388619686996 0.21 0  0.480507164205851 0.21 0  0.4879754664429498 0.21 0  0.4954437686800938 0.21 0  0.502912070917267 0.21 0  0.5103803731544119 0.21 0  0.5178486753915261 0.21 0  0.5253169776286404 0.21 0  0.5327852798657868 0.21 0  0.5402535821029386 0.21 0  0.54772188434007 0.21 0  0.5551901865771842 0.21 0  0.5626584888143201 0.21 0  0.5701267910514778 0.21 0  0.5775950932886138 0.21 0  0.5850633955257281 0.21 0  0.5925316977628483 0.21 0  0.6 0.2050000000000054 0  0.6 0.1950000000000217 0  0.5925316977628897 0.19 0  0.5850633955257988 0.19 0  0.5775950932887378 0.19 0  0.5701267910515998 0.19 0  0.5626584888145268 0.19 0  0.5551901865773963 0.19 0  0.547721884340339 0.19 0  0.5402535821032429 0.19 0  0.5327852798661811 0.19 0  0.5253169776290537 0.19 0  0.5178486753919799 0.19 0  0.5103803731549078 0.19 0  0.502912070917822 0.19 0  0.4954437686807294 0.19 0  0.4879754664436223 0.19 0  0.4805071642065402 0.19 0  0.4730388619694271 0.19 0  0.4655705597323621 0.19 0  0.4581022574952563 0.19 0  0.4506339552581777 0.19 0  0.4431656530210671 0.19 0  0.4356973507839815 0.19 0  0.4282290485468779 0.19 0  0.4207607463097617 0.19 0  0.4132924440726327 0.19 0  0.4058241418354857 0.19 0  0.3983558395983636 0.19 0  0.3908875373612097 0.19 0  0.3834192351240934 0.19 0  0.3759509328869369 0.19 0  0.3684826306498175 0.19 0  0.361014328412667 0.19 0  0.3535460261755617 0.19 0  0.3460777239384295 0.19 0  0.3386094217012945 0.19 0  0.3311411194641595 0.19 0  0.3236728172270245 0.19 0  0.3162045149898895 0.19 0  0.3087362127527544 0.19 0  0.3012679105156187 0.19 0  0.2937996082784807 0.19 0  0.2863313060413428 0.19 0  0.2788630038042048 0.19 0  0.2713947015670686 0.19 0  0.2639263993299336 0.19 0  0.2564580970927985 0.19 0  0.2607803159922026 0.2000727136295815 0  0.5887803774232762 0.2001272386983733 0  0.5745072403740523 0.2002044435018727 0  0.5511891430099709 0.2001122610077113 0  0.2751288526855082 0.20000000000002 0  0.5365194309847112 0.1999999999999436 0  0.2894621222999649 0.1998691686390484 0  0.5215828265105155 0.1999999999999228 0  0.3127789816668748 0.1998657885438805 0  0.3274069683451451 0.2000000000000796 0  0.5066462220363641 0.199999999999908 0  0.3650630746574081 0.199866017807523 0  0.476773013087985 0.1999999999998713 0  0.3417402379596385 0.1998691686391011 0  0.3796850840047755 0.200000000000134 0  0.4618364086138087 0.1999999999998546 0  0.4917096175621762 0.1999999999998808 0  0.3946216884789568 0.2000000000001512 0  0.446899804139621 0.1999999999998389 0  0.4089549580935208 0.1998691686391595 0  0.4322718174608562 0.200127451265745 0  0.4201487168029707 0.1999966199048527 0  0.3528922713220932 0.2000185703532356 0  0.5633122436674589 0.1999814296467508 0  0.3006558810093873 0.1999966199048318 0  0.5815926498168407 0.1966545283159175 0  0.2677053789419034 0.1964246479135325 0  0.5290511287476175 0.1970915826863981 0  0.5439877332217911 0.197091582686394 0  0.2825131256993216 0.2035478995978015 0  0.3199386661080599 0.202908417313604 0  0.4842413153250809 0.1970915826863873 0  0.5141145242734466 0.1970915826863843 0  0.3722167817676917 0.2029084173136195 0  0.4693047108508938 0.1970915826863783 0  0.3348752705822316 0.202908417313609 0  0.3871533862418661 0.2029084173136212 0  0.4543681063767183 0.1970915826863795 0  0.4991779197992749 0.1970915826863902 0  0.4020059614928624 0.203547899597858 0  0.4394315019025246 0.1970915826863714 0  0.2550657455369551 0.2034088125358657 0  0.2548908499171161 0.1966940311614271 0  0.5946539510196798 0.2024302972968126 0  0.267698176732111 0.2039977513680092 0  0.4261685417851465 0.196409292431739 0  0.3590076176283495 0.196411355804271 0  0.5571672426447437 0.2036011176410121 0  0.3066757059912147 0.1964092924317024 0  0.594380730180568 0.1966558399668133 0  0.4842413153245942 0.2040749161535287 0  0.4693047108503577 0.2040749161535231 0  0.3871533862424271 0.1959250838464788 0  0.372246743208829 0.1959123236376545 0  0.5141145242731028 0.2040749161535395 0  0.4543681063761134 0.2040749161535186 0  0.4019979587101454 0.1959834479682427 0  0.4394608940728603 0.2040870543693135 0  0.5439623148931173 0.2040856076781014 0  0.5290511287473298 0.2040749161535501 0  0.4991779197988497 0.2040749161535382 0  0.3347912413592433 0.1959225448935183 0  0.3199680582793816 0.1959123018030061 0  0.2825051229162361 0.1959834479681729 0  0.3590471196690275 0.2036304442587945 0  0.5571594006495384 0.1963685282145804 0  0.3067669986803285 0.203627750582736 0  0.4262598344738712 0.2036568242185335 0  0.5814408164431408 0.2041285596160068 0  0.5688286748170428 0.1961819304477386 0  0.4145905603063645 0.2038180695522843 0  0.3473758401724931 0.2038180695522752 0  0.2950977245128307 0.2038180695522663 0  0.5688286748170693 0.203818069552238 0  0.2950977245127906 0.1961819304477774 0  0.3473758401723931 0.1961819304478349 0  0.4145905603061963 0.1961819304479011 0  0.2601812407614425 0.2056861609747042
[...]
<PointData  Vectors="f_40-1"> 
<DataArray  type="Float64"  Name="f_40-1"  NumberOfComponents="3" format="ascii">0.0000000000000000e+00 0.0000000000000000e+00 0.0000000000000000e+00  0.0000000000000000e+00 0.0000000000000000e+00 0.0000000000000000e+00  0.0000000000000000e+00 0.0000000000000000e+00 0.0000000000000000e+00  0.0000000000000000e+00 0.0000000000000000e+00 0.0000000000000000e+00  -1.3022797101972423e-05 -2.8521307423385597e-04 0.0000000000000000e+00  9.0376200893724328e-06 -2.8864452000312732e-04 0.0000000000000000e+00  0.0000000000000000e+00 0.0000000000000000e+00 0.0000000000000000e+00  0.0000000000000000e+00 0.0000000000000000e+00 0.0000000000000000e+00  0.0000000000000000e+00 0.0000000000000000e+00 0.0000000000000000e+00  0.0000000000000000e+00 0.0000000000000000e+00 0.0000000000000000e+00  -2.2609103378053521e-06 -2.8692589107658838e-04 0.0000000000000000e+00  0.0000000000000000e+00 0.0000000000000000e+00 0.0000000000000000e+00  0.0000000000000000e+00 0.0000000000000000e+00 0.0000000000000000e+00  0.0000000000000000e+00 0.0000000000000000e+00 0.0000000000000000e+00  0.0000000000000000e+00 0.0000000000000000e+00 0.0000000000000000e+00  0.0000000000000000e+00 0.0000000000000000e+00 0.0000000000000000e+00  0.0000000000000000e+00 0.0000000000000000e+00 0.0000000000000000e+00  0.0000000000000000e+00 0.0000000000000000e+00 0.0000000000000000e+00  0.0000000000000000e+00 0.0000000000000000e+00 0.0000000000000000e+00  0.0000000000000000e+00 0.0000000000000000e+00 0.0000000000000000e+00  0.0000000000000000e+00 0.0000000000000000e+00 0.0000000000000000e+00  0.0000000000000000e+00 0.0000000000000000e+00 0.0000000000000000e+00  0.0000000000000000e+00 0.0000000000000000e+00 0.0000000000000000e+00  0.0000000000000000e+00 0.0000000000000000e+00 0.0000000000000000e+00  0.0000000000000000e+00 0.0000000000000000e+00 0.0000000000000000e+00  0.0000000000000000e+00 0.0000000000000000e+00 0.0000000000000000e+00  0.0000000000000000e+00 0.0000000000000000e+00 0.0000000000000000e+00  0.0000000000000000e+00 0.0000000000000000e+00 0.0000000000000000e+00  0.0000000000000000e+00 0.0000000000000000e+00 0.0000000000000000e+00  0.0000000000000000e+00 0.0000000000000000e+00 0.0000000000000000e+00  0.0000000000000000e+00 0.0000000000000000e+00 0.0000000000000000e+00  0.0000000000000000e+00 0.0000000000000000e+00 0.0000000000000000e+00  0.0000000000000000e+00 0.0000000000000000e+00 0.0000000000000000e+00  0.0000000000000000e+00 0.0000000000000000e+00 0.0000000000000000e+00  0.0000000000000000e+00 0.0000000000000000e+00 0.0000000000000000e+00  0.0000000000000000e+00 0.0000000000000000e+00 0.0000000000000000e+00  0.0000000000000000e+00 0.0000000000000000e+00 0.0000000000000000e+00  0.0000000000000000e+00 0.0000000000000000e+00 0.0000000000000000e+00  0.0000000000000000e+00 0.0000000000000000e+00 0.0000000000000000e+00  0.0000000000000000e+00 0.0000000000000000e+00 0.0000000000000000e+00  0.0000000000000000e+00 0.0000000000000000e+00 0.0000000000000000e+00  0.0000000000000000e+00 0.0000000000000000e+00 0.0000000000000000e+00  0.0000000000000000e+00 0.0000000000000000e+00 0.0000000000000000e+00  0.0000000000000000e+00 0.0000000000000000e+00 0.0000000000000000e+00  0.0000000000000000e+00 0.0000000000000000e+00 0.0000000000000000e+00  0.0000000000000000e+00 0.0000000000000000e+00 0.0000000000000000e+00  0.0000000000000000e+00 0.0000000000000000e+00 0.0000000000000000e+00  0.0000000000000000e+00 0.0000000000000000e+00 0.0000000000000000e+00  0.0000000000000000e+00 0.0000000000000000e+00 0.0000000000000000e+00  0.0000000000000000e+00 0.0000000000000000e+00 0.0000000000000000e+00  0.0000000000000000e+00 0.0000000000000000e+00 0.0000000000000000e+00  0.0000000000000000e+00 0.0000000000000000e+00 0.0000000000000000e+00  0.0000000000000000e+00 0.0000000000000000e+00 0.0000000000000000e+00  0.0000000000000000e+00 0.0000000000000000e+00 0.0000000000000000e+00  0.0000000000000000e+00 0.0000000000000000e+00 0.0000000000000000e+00  0.0000000000000000e+00 0.0000000000000000e+00 0.0000000000000000e+00  0.0000000000000000e+00 0.0000000000000000e+00 0.0000000000000000e+00  0.0000000000000000e+00 0.0000000000000000e+00 0.0000000000000000e+00  0.0000000000000000e+00 0.0000000000000000e+00 0.0000000000000000e+00  0.0000000000000000e+00 0.0000000000000000e+00 0.0000000000000000e+00  0.0000000000000000e+00 0.0000000000000000e+00 0.0000000000000000e+00  0.0000000000000000e+00 0.0000000000000000e+00 0.0000000000000000e+00  0.0000000000000000e+00 0.0000000000000000e+00 0.0000000000000000e+00  0.0000000000000000e+00 0.0000000000000000e+00 0.0000000000000000e+00  0.0000000000000000e+00 0.0000000000000000e+00 0.0000000000000000e+00  0.0000000000000000e+00 0.0000000000000000e+00 0.0000000000000000e+00  0.0000000000000000e+00 0.0000000000000000e+00 0.0000000000000000e+00  0.0000000000000000e+00 0.0000000000000000e+00 0.0000000000000000e+00  0.0000000000000000e+00 0.0000000000000000e+00 0.0000000000000000e+00  0.0000000000000000e+00 0.0000000000000000e+00 0.0000000000000000e+00  0.0000000000000000e+00 0.0000000000000000e+00 0.0000000000000000e+00  0.0000000000000000e+00 0.0000000000000000e+00 0.0000000000000000e+00  0.0000000000000000e+00 0.0000000000000000e+00 0.0000000000000000e+00  0.0000000000000000e+00 0.0000000000000000e+00 0.0000000000000000e+00  0.0000000000000000e+00 0.0000000000000000e+00 0.0000000000000000e+00  0.0000000000000000e+00 0.0000000000000000e+00 0.0000000000000000e+00  0.0000000000000000e+00 0.0000000000000000e+00 0.0000000000000000e+00  0.0000000000000000e+00 0.0000000000000000e+00 0.0000000000000000e+00  0.0000000000000000e+00 0.0000000000000000e+00 0.0000000000000000e+00  0.0000000000000000e+00 0.0000000000000000e+00 0.0000000000000000e+00  0.0000000000000000e+00 0.0000000000000000e+00 0.0000000000000000e+00  0.0000000000000000e+00 0.0000000000000000e+00 0.0000000000000000e+00  0.0000000000000000e+00 0.0000000000000000e+00 0.0000000000000000e+00  0.0000000000000000e+00 0.0000000000000000e+00 0.0000000000000000e+00  0.0000000000000000e+00 0.0000000000000000e+00 0.0000000000000000e+00  0.0000000000000000e+00 0.0000000000000000e+00 0.0000000000000000e+00  0.0000000000000000e+00 0.0000000000000000e+00 0.0000000000000000e+00  0.0000000000000000e+00 0.0000000000000000e+00 0.0000000000000000e+00  0.0000000000000000e+00 0.0000000000000000e+00 0.0000000000000000e+00  0.0000000000000000e+00 0.0000000000000000e+00 0.0000000000000000e+00  0.0000000000000000e+00 0.0000000000000000e+00 0.0000000000000000e+00  0.0000000000000000e+00 0.0000000000000000e+00 0.0000000000000000e+00  0.0000000000000000e+00 0.0000000000000000e+00 0.0000000000000000e+00  0.0000000000000000e+00 0.0000000000000000e+00 0.0000000000000000e+00  0.0000000000000000e+00 0.0000000000000000e+00 0.0000000000000000e+00  0.0000000000000000e+00 0.0000000000000000e+00 0.0000000000000000e+00  0.0000000000000000e+00 0.0000000000000000e+00 0.0000000000000000e+00  0.0000000000000000e+00 0.0000000000000000e+00 0.0000000000000000e+00  0.0000000000000000e+00 0.0000000000000000e+00 0.0000000000000000e+00  0.0000000000000000e+00 0.0000000000000000e+00 0.0000000000000000e+00  0.0000000000000000e+00 0.0000000000000000e+00 0.0000000000000000e+00  0.0000000000000000e+00 0.0000000000000000e+00 0.0000000000000000e+00  0.0000000000000000e+00 0.0000000000000000e+00 0.0000000000000000e+00  0.0000000000000000e+00 0.0000000000000000e+00 0.0000000000000000e+00  0.0000000000000000e+00 0.0000000000000000e+00 0.0000000000000000e+00  0.0000000000000000e+00 0.0000000000000000e+00 0.0000000000000000e+00  0.0000000000000000e+00 0.0000000000000000e+00 0.0000000000000000e+00  0.0000000000000000e+00 0.0000000000000000e+00 0.0000000000000000e+00  0.0000000000000000e+00 0.0000000000000000e+00 0.0000000000000000e+00  0.0000000000000000e+00 0.0000000000000000e+00 0.0000000000000000e+00  0.0000000000000000e+00 0.0000000000000000e+00 0.0000000000000000e+00  0.0000000000000000e+00 0.0000000000000000e+00 0.0000000000000000e+00  0.0000000000000000e+00 0.0000000000000000e+00 0.0000000000000000e+00  0.0000000000000000e+00 0.0000000000000000e+00 0.0000000000000000e+00  0.0000000000000000e+00 0.0000000000000000e+00 0.0000000000000000e+00  0.0000000000000000e+00 0.0000000000000000e+00 0.0000000000000000e+00  0.0000000000000000e+00 0.0000000000000000e+00 0.0000000000000000e+00  0.0000000000000000e+00 0.0000000000000000e+00 0.0000000000000000e+00  0.0000000000000000e+00 0.0000000000000000e+00 0.0000000000000000e+00  0.0000000000000000e+00 0.0000000000000000e+00 0.0000000000000000e+00  0.0000000000000000e+00 0.0000000000000000e+00 0.0000000000000000e+00  0.0000000000000000e+00 0.0000000000000000e+00 0.0000000000000000e+00  0.0000000000000000e+00 0.0000000000000000e+00 0.0000000000000000e+00  0.0000000000000000e+00 0.0000000000000000e+00 0.0000000000000000e+00  0.0000000000000000e+00 0.0000000000000000e+00 0.0000000000000000e+00  0.0000000000000000e+00 0.0000000000000000e+00 0.0000000000000000e+00  0.0000000000000000e+00 0.0000000000000000e+00 0.0000000000000000e+00  0.0000000000000000e+00 0.0000000000000000e+00 0.0000000000000000e+00  0.0000000000000000e+00 0.0000000000000000e+00 0.0000000000000000e+00  0.0000000000000000e+00 0.0000000000000000e+00 0.0000000000000000e+00  0.0000000000000000e+00 0.0000000000000000e+00 0.0000000000000000e+00  0.0000000000000000e+00 0.0000000000000000e+00 0.0000000000000000e+00  0.0000000000000000e+00 0.0000000000000000e+00 0.0000000000000000e+00  0.0000000000000000e+00 0.0000000000000000e+00 0.0000000000000000e+00  0.0000000000000000e+00 0.0000000000000000e+00 0.0000000000000000e+00  0.0000000000000000e+00 0.0000000000000000e+00 0.0000000000000000e+00  0.0000000000000000e+00 0.0000000000000000e+00 0.0000000000000000e+00  0.0000000000000000e+00 0.0000000000000000e+00 0.0000000000000000e+00  0.0000000000000000e+00 0.0000000000000000e+00 0.0000000000000000e+00  0.0000000000000000e+00 0.0000000000000000e+00 0.0000000000000000e+00  0.0000000000000000e+00 0.0000000000000000e+00 0.0000000000000000e+00  0.0000000000000000e+00 0.0000000000000000e+00 0.0000000000000000e+00  0.0000000000000000e+00 0.0000000000000000e+00 0.0000000000000000e+00  7.7951660522822901e-07 -3.6174077405224368e-06 0.0000000000000000e+00  1.7498901747538196e-06 -4.5470912763641235e-06 0.0000000000000000e+00  2.8257926920706687e-06 -5.7567605750653413e-06 0.0000000000000000e+00  4.0417838664205143e-06 -7.3363124981000217e-06 0.0000000000000000e+00  5.1839888208126175e-06 -9.3235284360330419e-06 0.0000000000000000e+00  6.3913412404588485e-06 -1.1774154855180558e-05 0.0000000000000000e+00  7.4658407608769825e-06 -1.4549085080213761e-05 0.0000000000000000e+00  8.5062625178394127e-06 -1.7755666972230997e-05 0.0000000000000000e+00  9.6062273660527168e-06 -2.1293159048308179e-05 0.0000000000000000e+00  1.0540433265787511e-05 -2.5163055920069983e-05 0.0000000000000000e+00  1.1544683350569955e-05 -2.9387465144327747e-05 0.0000000000000000e+00  1.2382991807381809e-05 -3.3905029286785902e-05 0.0000000000000000e+00  1.3255847986285660e-05 -3.8734801109938544e-05 0.0000000000000000e+00  1.4001993435859439e-05 -4.3808490326848092e-05 0.0000000000000000e+00  1.4691676587031303e-05 -4.9179716151043284e-05 0.0000000000000000e+00  1.5397866663569715e-05 -5.4786164112896572e-05 0.0000000000000000e+00  1.5961622773171742e-05 -6.0606890185958674e-05 0.0000000000000000e+00  1.6542703261834386e-05 -6.6679351854116199e-05 0.0000000000000000e+00  1.6991055369844815e-05 -7.2924573826717298e-05 0.0000000000000000e+00  1.7444584387095052e-05 -7.9385017274536361e-05 0.0000000000000000e+00  1.7791378966308675e-05 -8.5999136545012535e-05 0.0000000000000000e+00  1.8113548292943922e-05 -9.2800416885654218e-05 0.0000000000000000e+00  1.8351685499791941e-05 -9.9726497100061703e-05 0.0000000000000000e+00  1.8531460640147424e-05 -1.0680956035189982e-04 0.0000000000000000e+00  1.8697672034087685e-05 -1.1401086877824586e-04 0.0000000000000000e+00  1.8777171080009944e-05 -1.2132030553431776e-04 0.0000000000000000e+00  1.8813087600235809e-05 -1.2876638819000227e-04 0.0000000000000000e+00  1.8786379384962735e-05 -1.3627716948551744e-04 0.0000000000000000e+00  1.8715259394763108e-05 -1.4390792049473350e-04 0.0000000000000000e+00  1.8585486753553797e-05 -1.5158880206297550e-04 0.0000000000000000e+00  1.8410680137132596e-05 -1.5937142009821029e-04 0.0000000000000000e+00  1.8178859053018575e-05 -1.6718818780471535e-04 0.0000000000000000e+00  1.7903336326065364e-05 -1.7509161795947617e-04 0.0000000000000000e+00  1.7571633139381921e-05 -1.8301310382535634e-04 0.0000000000000000e+00  1.7193608692240640e-05 -1.9101077727246845e-04 0.0000000000000000e+00  1.6763821329559867e-05 -1.9901598176901529e-04 0.0000000000000000e+00  1.6289183008974683e-05 -2.0708304157958924e-04 0.0000000000000000e+00  1.5763997187668927e-05 -2.1514837137027716e-04 0.0000000000000000e+00  1.5192252190164942e-05 -2.2326563308759279e-04 0.0000000000000000e+00  1.4569350575650616e-05 -2.3137301075967638e-04 0.0000000000000000e+00  1.3894052596222068e-05 -2.3951471227968120e-04 0.0000000000000000e+00  1.3179337673009407e-05 -2.4765573198934040e-04 0.0000000000000000e+00  1.2409553949536526e-05 -2.5581101728923991e-04 0.0000000000000000e+00  1.1611530440893588e-05 -2.6397051337996087e-04 0.0000000000000000e+00  1.0756354461901576e-05 -2.7211804078276791e-04 0.0000000000000000e+00  9.8786968351015157e-06 -2.8030336683407590e-04 0.0000000000000000e+00  3.2923244863695917e-06 -2.8778450494654147e-04 0.0000000000000000e+00  -7.7265616791874072e-06 -2.8607123938964195e-04 0.0000000000000000e+00  -1.2168151583991411e-05 -2.7707943170566986e-04 0.0000000000000000e+00  -1.1270007425935820e-05 -2.6880170147868638e-04 0.0000000000000000e+00  -1.0396725280279081e-05 -2.6050483338754495e-04 0.0000000000000000e+00  -9.5720590750905623e-06 -2.5223313799875141e-04 0.0000000000000000e+00  -8.7767053029278680e-06 -2.4396855408227882e-04 0.0000000000000000e+00  -8.0325424988782533e-06 -2.3571631950818894e-04 0.0000000000000000e+00  -7.3155764623575176e-06 -2.2748297846269633e-04 0.0000000000000000e+00  -6.6488504092185709e-06 -2.1925011591737316e-04 0.0000000000000000e+00  -6.0126872494198724e-06 -2.1106110366654553e-04 0.0000000000000000e+00  -5.4217181707556489e-06 -2.0286936609310697e-04 0.0000000000000000e+00  -4.8563209676911881e-06 -1.9473094874744272e-04 0.0000000000000000e+00  -4.3381032274693308e-06 -1.8659997639839101e-04 0.0000000000000000e+00  -3.8404395395752303e-06 -1.7853307652731365e-04 0.0000000000000000e+00  -3.3912268963604858e-06 -1.7048589655660964e-04 0.0000000000000000e+00  -2.9562164147480510e-06 -1.6251349193300354e-04 0.0000000000000000e+00  -2.5731849016847486e-06 -1.5457381147620196e-04 0.0000000000000000e+00  -2.1983304687981996e-06 -1.4672195154102435e-04 0.0000000000000000e+00  -1.8795174236263717e-06 -1.3891795502980590e-04 0.0000000000000000e+00  -1.5620101559502987e-06 -1.3121876235287915e-04 0.0000000000000000e+00  -1.3045647592752496e-06 -1.2358527217044097e-04 0.0000000000000000e+00  -1.0398577791908126e-06 -1.1607337818179416e-04 0.0000000000000000e+00  -8.4041578739117773e-07 -1.0864750522304444e-04 0.0000000000000000e+00  -6.3387492109229849e-07 -1.0135529799870493e-04 0.0000000000000000e+00  -4.7976957892377023e-07 -9.4173733562581577e-05 0.0000000000000000e+00  -3.6086063283366188e-07 -8.7156240455300965e-05 0.0000000000000000e+00  -2.2011885876189518e-07 -8.0262810304337475e-05 0.0000000000000000e+00  -1.3789894978685000e-07 -7.3538875445908094e-05 0.0000000000000000e+00  -5.6709456518639453e-08 -6.7004908344716011e-05 0.0000000000000000e+00  -1.8843671355364177e-08 -6.0644193302784692e-05 0.0000000000000000e+00  1.7335992395629778e-08 -5.4506986758928239e-05 0.0000000000000000e+00  1.1624562477484161e-08 -4.8563085839402984e-05 0.0000000000000000e+00  2.8682781446617162e-08 -4.2895950868413882e-05 0.0000000000000000e+00  -2.2852614243761036e-08 -3.7430428197523330e-05 0.0000000000000000e+00  -1.0006686494943971e-07 -3.2281589728000819e-05 0.0000000000000000e+00  -1.1984328484065817e-07 -2.7358479988708452e-05 0.0000000000000000e+00  -2.0075323711753160e-07 -2.2764394738045596e-05 0.0000000000000000e+00  -2.6174447904010225e-07 -1.8492510844560340e-05 0.0000000000000000e+00  -3.6261953344991288e-07 -1.4537213080097740e-05 0.0000000000000000e+00  -4.0436174087949841e-07 -1.0977979038201154e-05 0.0000000000000000e+00  -5.2642944479428294e-07 -7.7254736944894949e-06 0.0000000000000000e+00  -6.5468567435891695e-07 -4.9224069045722717e-06 0.0000000000000000e+00  -6.7941658359038972e-07 -2.4449013509448810e-06 0.0000000000000000e+00  -7.6938078089076859e-07 -3.9584610419104393e-07 0.0000000000000000e+00  -7.2975739481145048e-07 1.2147175263443113e-06 0.0000000000000000e+00  -6.8021916833443321e-07 2.2737948282468928e-06 0.0000000000000000e+00  -3.6643544057089980e-07 2.7022370658775992e-06 0.0000000000000000e+00  -2.0689965455162930e-07 -4.8904176894795099e-07 0.0000000000000000e+00  -6.6496386277556790e-07 -2.7457147110863397e-04 0.0000000000000000e+00  1.1326023180098522e-06 -2.5886832435333742e-04 0.0000000000000000e+00  3.3930401453686853e-06 -2.3323882153098889e-04 0.0000000000000000e+00  1.3082312594823099e-06 -2.7282055176991253e-06 0.0000000000000000e+00  4.5316411424355481e-06 -2.1716368827195533e-04 0.0000000000000000e+00  2.4605402138194278e-06 -6.5456295853101671e-06 0.0000000000000000e+00  5.6527388108475116e-06 -2.0090034809231062e-04 0.0000000000000000e+00  4.2680017978551273e-06 -1.5962314066202906e-05 0.0000000000000000e+00  5.3742895205350788e-06 -2.3703200804374979e-05 0.0000000000000000e+00  6.6058626082099393e-06 -1.8475698026419602e-04 0.0000000000000000e+00  7.4131178690305293e-06 -4.8860778988482426e-05 0.0000000000000000e+00  8.0157404027596513e-06 -1.5301013656511539e-04 0.0000000000000000e+00  6.2115079417315193e-06 -3.2398701511436360e-05 0.0000000000000000e+00  8.0882438799119838e-06 -6.0445096102892816e-05 0.0000000000000000e+00  8.4748917042470273e-06 -1.3751426395058457e-04 0.0000000000000000e+00  7.3930879152916384e-06 -1.6877691716777436e-04 0.0000000000000000e+00  8.5241164895136258e-06 -7.3068498383022744e-05 0.0000000000000000e+00  8.7701583069687461e-06 -1.2235645979677314e-04 0.0000000000000000e+00  8.6757429151562434e-06 -8.5834896054267100e-05 0.0000000000000000e+00  9.0303999166138576e-06 -1.0794197408664052e-04 0.0000000000000000e+00  8.8790894305208255e-06 -9.6303564059880702e-05 0.0000000000000000e+00  6.9207150563032387e-06 -4.0037926603546438e-05 0.0000000000000000e+00  2.0582979819769428e-06 -2.4652164651467576e-04 0.0000000000000000e+00  3.3882716960307660e-06 -1.0708213782348510e-05 0.0000000000000000e+00  -3.5966771950099333e-06 -2.6607480230711537e-04 0.0000000000000000e+00  6.8210764092833665e-08 -1.0647255391185176e-07 0.0000000000000000e+00  1.9522152310072963e-06 -2.0841858058047539e-04 0.0000000000000000e+00  7.2994216294246608e-07 -2.2475505509273871e-04 0.0000000000000000e+00  2.8636280398018431e-06 -5.7942675855544680e-06 0.0000000000000000e+00  6.3685702968959408e-06 -2.0616348813595565e-05 0.0000000000000000e+00  4.6635757349258476e-06 -1.6018057091675479e-04 0.0000000000000000e+00  3.0135136430989746e-06 -1.9218232757994375e-04 0.0000000000000000e+00  1.0092478370381225e-05 -5.5356471016745738e-05 0.0000000000000000e+00  5.2584892034382934e-06 -1.4451462017913214e-04 0.0000000000000000e+00  7.6222934877162702e-06 -2.9101148493530174e-05 0.0000000000000000e+00  1.0766599163073089e-05 -6.7546655707764066e-05 0.0000000000000000e+00  5.7021253685110477e-06 -1.2915277226281403e-04 0.0000000000000000e+00  3.9159935927413206e-06 -1.7608735176926293e-04 0.0000000000000000e+00  1.1832640447998203e-05 -8.0635067403741852e-05 0.0000000000000000e+00  5.9961731777720797e-06 -1.1416488381056050e-04 0.0000000000000000e+00  -3.7613033750606187e-07 -8.6045603008645963e-07 0.0000000000000000e+00  -5.6113598223380533e-07 6.0531677025872971e-07 0.0000000000000000e+00  1.1162626503149506e-06 -2.8142095314802719e-04 0.0000000000000000e+00  1.2238713719072742e-06 -2.8504