<?xml version="1.0"?>
<VTKFile type="UnstructuredGrid"  version="0.1"  >
<UnstructuredGrid>
<Piece  NumberOfPoints="1419" NumberOfCells="2698">
<Points>
<DataArray  type="Float64"  NumberOfComponents="3"  format="ascii">0 0 0  0 0.41 0  2.5 0 0  2.5 0.41 0  0.6 0.19 0  0.6 0.21 0  0.25 0.2 0  0.15 0.2 0  0.2489897948556636 0.21 0  0.2489897948556636 0.19 0  0.6 0.2 0  0 0.3807142857143437 0  0 0.3514285714286952 0  0 0.3221428571430699 0  0 0.29285714285744 0  0 0.2635714285718054 0  0 0.2342857142861561 0  0 0.2050000000005308 0  0 0.175714285714732 0  0 0.1464285714289574 0  0 0.1171428571431897 0  0 0.08785714285737878 0  0 0.05857142857161107 0  0 0.02928571428580012 0  0.03015443760436003 0 0  0.06140001986583606 0 0  0.09377624077125973 0 0  0.1273239957535082 0 0  0.1620856860351972 0 0  0.1981052433264291 0 0  0.235428184091502 0 0  0.2741016576309132 0 0  0.3141745521465447 0 0  0.3556974926295285 0 0  0.3987229542472677 0 0  0.4433053055141081 0 0  0.4895008759286886 0 0  0.5373680609405097 0 0  0.5869673343216626 0 0  0.6383613676634521 0 0  0.6916151138468254 0 0  0.7467958595648856 0 0  0.8039733463919316 0 0  0.8632198139502143 0 0  0.9246101326867038 0 0  0.9882218810934433 0 0  1.054135445558498 0 0  1.122434100542598 0 0  1.193204177141305 0 0  1.266535089879536 0 0  1.342519516046404 0 0  1.421253448503939 0 0  1.502836389106271 0 0  1.587371439758838 0 0  1.674965418777374 0 0  1.765729001825544 0 0  1.859776908880082 0 0  1.957227977487062 0 0  2.058205329869943 0 0  2.162836591189951 0 0  2.271253957290865 0 0  2.383594446803425 0 0  2.5 0.1024999999997612 0  2.5 0.2049999999994743 0  2.5 0.3074999999997183 0  2.383594446803656 0.41 0  2.271253957291315 0.41 0  2.162836591190598 0.41 0  2.058205329870775 0.41 0  1.957227977488067 0.41 0  1.859776908881246 0.41 0  1.765729001826854 0.41 0  1.674965418778818 0.41 0  1.58737143976041 0.41 0  1.502836389107956 0.41 0  1.421253448505726 0.41 0  1.342519516048286 0.41 0  1.266535089881505 0.41 0  1.193204177143353 0.41 0  1.122434100544716 0.41 0  1.05413544556068 0.41 0  0.9882218810956305 0.41 0  0.9246101326886647 0.41 0  0.8632198139519631 0.41 0  0.8039733463934788 0.41 0  0.7467958595662458 0.41 0  0.6916151138480078 0.41 0  0.6383613676644679 0.41 0  0.5869673343225223 0.41 0  0.5373680609412221 0.41 0  0.4895008759292634 0.41 0  0.4433053055145528 0.41 0  0.3987229542475914 0.41 0  0.3556974926297398 0.41 0  0.3141745521466497 0.41 0  0.2741016576310038 0.41 0  0.2354281840915826 0.41 0  0.1981052433265003 0.41 0  0.1620856860352591 0.41 0  0.1273239957535623 0.41 0  0.09377624077128965 0.41 0  0.06140001986584975 0.41 0  0.03015443760436654 0.41 0  0.2497468076502589 0.2050254481002335 0  0.2497468076502614 0.1949745518997913 0  0.2469965252529372 0.1829317073451959 0  0.2439893735792749 0.1762316384219906 0  0.2400332147834255 0.1700443375285386 0  0.2352133972704371 0.1645032867342007 0  0.2296339016332438 0.1597280261969788 0  0.2234150974217223 0.1558215752574715 0  0.2166911463437691 0.1528682099456123 0  0.2096071079204251 0.1509316448471593 0  0.2023158100364996 0.1500536585536553 0  0.194974551899914 0.1502531923497262 0  0.1877417105387872 0.1515259415822739 0  0.1807733240461124 0.153844448527136 0  0.1742197252835808 0.15715869474974 0  0.1682222986673531 0.1613971801805478 0  0.162910430003803 0.1664684656256651 0  0.1583987151779087 0.1722631454351573 0  0.1547844879126891 0.178656207771761 0  0.1521457199348551 0.1855097315605723 0  0.1505393388476355 0.1926758619366523 0  0.1505393388476328 0.2073241380633295 0  0.1521457199348437 0.2144902684393899 0  0.1547844879126531 0.221343792228163 0  0.1583987151778488 0.2277368545647528 0  0.1629104300036858 0.2335315343742052 0  0.1682222986671726 0.2386028198193036 0  0.1742197252833576 0.2428413052501257 0  0.1807733240458683 0.2461555514727623 0  0.1877417105384929 0.2484740584176516 0  0.1949745518995776 0.2497468076502398 0  0.202315810036185 0.2499463414463592 0  0.2096071079201568 0.2490683551528932 0  0.2166911463435495 0.2471317900544655 0  0.2234150974215506 0.2441784247426195 0  0.2296339016331197 0.2402719738031125 0  0.2352133972703547 0.2354967132658811 0  0.2400332147833751 0.2299556624715287 0  0.2439893735792577 0.2237683615780412 0  0.246996525252926 0.2170682926548348 0  0.25645809709277 0.21 0  0.2639263993298655 0.21 0  0.271394701566961 0.21 0  0.2788630038040554 0.21 0  0.2863313060411479 0.21 0  0.2937996082782405 0.21 0  0.301267910515333 0.21 0  0.3087362127524279 0.21 0  0.3162045149895234 0.21 0  0.3236728172265972 0.21 0  0.3311411194636928 0.21 0  0.3386094217007701 0.21 0  0.3460777239378666 0.21 0  0.3535460261749672 0.21 0  0.3610143284120516 0.21 0  0.3684826306491596 0.21 0  0.3759509328862226 0.21 0  0.383419235123329 0.21 0  0.3908875373604028 0.21 0  0.3983558395975142 0.21 0  0.4058241418345938 0.21 0  0.4132924440716992 0.21 0  0.4207607463087888 0.21 0  0.4282290485459029 0.21 0  0.4356973507830418 0.21 0  0.4431656530201649 0.21 0  0.4506339552573136 0.21 0  0.4581022574944306 0.21 0  0.4655705597315852 0.21 0  0.4730388619686996 0.21 0  0.480507164205851 0.21 0  0.4879754664429498 0.21 0  0.4954437686800938 0.21 0  0.502912070917267 0.21 0  0.5103803731544119 0.21 0  0.5178486753915261 0.21 0  0.5253169776286404 0.21 0  0.5327852798657868 0.21 0  0.5402535821029386 0.21 0  0.54772188434007 0.21 0  0.5551901865771842 0.21 0  0.5626584888143201 0.21 0  0.5701267910514778 0.21 0  0.5775950932886138 0.21 0  0.5850633955257281 0.21 0  0.5925316977628483 0.21 0  0.6 0.2050000000000054 0  0.6 0.1950000000000217 0  0.5925316977628897 0.19 0  0.5850633955257988 0.19 0  0.5775950932887378 0.19 0  0.5701267910515998 0.19 0  0.5626584888145268 0.19 0  0.5551901865773963 0.19 0  0.547721884340339 0.19 0  0.5402535821032429 0.19 0  0.5327852798661811 0.19 0  0.5253169776290537 0.19 0  0.5178486753919799 0.19 0  0.5103803731549078 0.19 0  0.502912070917822 0.19 0  0.4954437686807294 0.19 0  0.4879754664436223 0.19 0  0.4805071642065402 0.19 0  0.4730388619694271 0.19 0  0.4655705597323621 0.19 0  0.4581022574952563 0.19 0  0.4506339552581777 0.19 0  0.4431656530210671 0.19 0  0.4356973507839815 0.19 0  0.4282290485468779 0.19 0  0.4207607463097617 0.19 0  0.4132924440726327 0.19 0  0.4058241418354857 0.19 0  0.3983558395983636 0.19 0  0.3908875373612097 0.19 0  0.3834192351240934 0.19 0  0.3759509328869369 0.19 0  0.3684826306498175 0.19 0  0.361014328412667 0.19 0  0.3535460261755617 0.19 0  0.3460777239384295 0.19 0  0.3386094217012945 0.19 0  0.3311411194641595 0.19 0  0.3236728172270245 0.19 0  0.3162045149898895 0.19 0  0.3087362127527544 0.19 0  0.3012679105156187 0.19 0  0.2937996082784807 0.19 0  0.2863313060413428 0.19 0  0.2788630038042048 0.19 0  0.2713947015670686 0.19 0  0.2639263993299336 0.19 0  0.2564580970927985 0.19 0  0.2607803159922026 0.2000727136295815 0  0.5887803774232762 0.2001272386983733 0  0.5745072403740523 0.2002044435018727 0  0.5511891430099709 0.2001122610077113 0  0.2751288526855082 0.20000000000002 0  0.5365194309847112 0.1999999999999436 0  0.2894621222999649 0.1998691686390484 0  0.5215828265105155 0.1999999999999228 0  0.3127789816668748 0.1998657885438805 0  0.3274069683451451 0.2000000000000796 0  0.5066462220363641 0.199999999999908 0  0.3650630746574081 0.199866017807523 0  0.476773013087985 0.1999999999998713 0  0.3417402379596385 0.1998691686391011 0  0.3796850840047755 0.200000000000134 0  0.4618364086138087 0.1999999999998546 0  0.4917096175621762 0.1999999999998808 0  0.3946216884789568 0.2000000000001512 0  0.446899804139621 0.1999999999998389 0  0.4089549580935208 0.1998691686391595 0  0.4322718174608562 0.200127451265745 0  0.4201487168029707 0.1999966199048527 0  0.3528922713220932 0.2000185703532356 0  0.5633122436674589 0.1999814296467508 0  0.3006558810093873 0.1999966199048318 0  0.5815926498168407 0.1966545283159175 0  0.2677053789419034 0.1964246479135325 0  0.5290511287476175 0.1970915826863981 0  0.5439877332217911 0.197091582686394 0  0.2825131256993216 0.2035478995978015 0  0.3199386661080599 0.202908417313604 0  0.4842413153250809 0.1970915826863873 0  0.5141145242734466 0.1970915826863843 0  0.3722167817676917 0.2029084173136195 0  0.4693047108508938 0.1970915826863783 0  0.3348752705822316 0.202908417313609 0  0.3871533862418661 0.2029084173136212 0  0.4543681063767183 0.1970915826863795 0  0.4991779197992749 0.1970915826863902 0  0.4020059614928624 0.203547899597858 0  0.4394315019025246 0.1970915826863714 0  0.2550657455369551 0.2034088125358657 0  0.2548908499171161 0.1966940311614271 0  0.5946539510196798 0.2024302972968126 0  0.267698176732111 0.2039977513680092 0  0.4261685417851465 0.196409292431739 0  0.3590076176283495 0.196411355804271 0  0.5571672426447437 0.2036011176410121 0  0.3066757059912147 0.1964092924317024 0  0.594380730180568 0.1966558399668133 0  0.4842413153245942 0.2040749161535287 0  0.4693047108503577 0.2040749161535231 0  0.3871533862424271 0.1959250838464788 0  0.372246743208829 0.1959123236376545 0  0.5141145242731028 0.2040749161535395 0  0.4543681063761134 0.2040749161535186 0  0.4019979587101454 0.1959834479682427 0  0.4394608940728603 0.2040870543693135 0  0.5439623148931173 0.2040856076781014 0  0.5290511287473298 0.2040749161535501 0  0.4991779197988497 0.2040749161535382 0  0.3347912413592433 0.1959225448935183 0  0.3199680582793816 0.1959123018030061 0  0.2825051229162361 0.1959834479681729 0  0.3590471196690275 0.2036304442587945 0  0.5571594006495384 0.1963685282145804 0  0.3067669986803285 0.203627750582736 0  0.4262598344738712 0.2036568242185335 0  0.5814408164431408 0.2041285596160068 0  0.5688286748170428 0.1961819304477386 0  0.4145905603063645 0.2038180695522843 0  0.3473758401724931 0.2038180695522752 0  0.2950977245128307 0.2038180695522663 0  0.5688286748170693 0.203818069552238 0  0.2950977245127906 0.1961819304477774 0  0.3473758401723931 0.1961819304478349 0  0.4145905603061963 0.1961819304479011 0  0.2601812407614425 0.2056861609747042
[...]
<PointData  Vectors="f_40-1"> 
<DataArray  type="Float64"  Name="f_40-1"  NumberOfComponents="3" format="ascii">0.0000000000000000e+00 0.0000000000000000e+00 0.0000000000000000e+00  0.0000000000000000e+00 0.0000000000000000e+00 0.0000000000000000e+00  0.0000000000000000e+00 0.0000000000000000e+00 0.0000000000000000e+00  0.0000000000000000e+00 0.0000000000000000e+00 0.0000000000000000e+00  -5.2103749066630035e-06 -1.5893123231110785e-06 0.0000000000000000e+00  -5.0518177787050842e-06 -2.1781427390547421e-06 0.0000000000000000e+00  0.0000000000000000e+00 0.0000000000000000e+00 0.0000000000000000e+00  0.0000000000000000e+00 0.0000000000000000e+00 0.0000000000000000e+00  0.0000000000000000e+00 0.0000000000000000e+00 0.0000000000000000e+00  0.0000000000000000e+00 0.0000000000000000e+00 0.0000000000000000e+00  -5.1459803155054832e-06 -1.8835126198037470e-06 0.0000000000000000e+00  0.0000000000000000e+00 0.0000000000000000e+00 0.0000000000000000e+00  0.0000000000000000e+00 0.0000000000000000e+00 0.0000000000000000e+00  0.0000000000000000e+00 0.0000000000000000e+00 0.0000000000000000e+00  0.0000000000000000e+00 0.0000000000000000e+00 0.0000000000000000e+00  0.0000000000000000e+00 0.0000000000000000e+00 0.0000000000000000e+00  0.0000000000000000e+00 0.0000000000000000e+00 0.0000000000000000e+00  0.0000000000000000e+00 0.0000000000000000e+00 0.0000000000000000e+00  0.0000000000000000e+00 0.0000000000000000e+00 0.0000000000000000e+00  0.0000000000000000e+00 0.0000000000000000e+00 0.0000000000000000e+00  0.0000000000000000e+00 0.0000000000000000e+00 0.0000000000000000e+00  0.0000000000000000e+00 0.0000000000000000e+00 0.0000000000000000e+00  0.0000000000000000e+00 0.0000000000000000e+00 0.0000000000000000e+00  0.0000000000000000e+00 0.0000000000000000e+00 0.0000000000000000e+00  0.0000000000000000e+00 0.0000000000000000e+00 0.0000000000000000e+00  0.0000000000000000e+00 0.0000000000000000e+00 0.0000000000000000e+00  0.0000000000000000e+00 0.0000000000000000e+00 0.0000000000000000e+00  0.0000000000000000e+00 0.0000000000000000e+00 0.0000000000000000e+00  0.0000000000000000e+00 0.0000000000000000e+00 0.0000000000000000e+00  0.0000000000000000e+00 0.0000000000000000e+00 0.0000000000000000e+00  0.0000000000000000e+00 0.0000000000000000e+00 0.0000000000000000e+00  0.0000000000000000e+00 0.0000000000000000e+00 0.0000000000000000e+00  0.0000000000000000e+00 0.0000000000000000e+00 0.0000000000000000e+00  0.0000000000000000e+00 0.0000000000000000e+00 0.0000000000000000e+00  0.0000000000000000e+00 0.0000000000000000e+00 0.0000000000000000e+00  0.0000000000000000e+00 0.0000000000000000e+00 0.0000000000000000e+00  0.0000000000000000e+00 0.0000000000000000e+00 0.0000000000000000e+00  0.0000000000000000e+00 0.0000000000000000e+00 0.0000000000000000e+00  0.0000000000000000e+00 0.0000000000000000e+00 0.0000000000000000e+00  0.0000000000000000e+00 0.0000000000000000e+00 0.0000000000000000e+00  0.0000000000000000e+00 0.0000000000000000e+00 0.0000000000000000e+00  0.0000000000000000e+00 0.0000000000000000e+00 0.0000000000000000e+00  0.0000000000000000e+00 0.0000000000000000e+00 0.0000000000000000e+00  0.0000000000000000e+00 0.0000000000000000e+00 0.0000000000000000e+00  0.0000000000000000e+00 0.0000000000000000e+00 0.0000000000000000e+00  0.0000000000000000e+00 0.0000000000000000e+00 0.0000000000000000e+00  0.0000000000000000e+00 0.0000000000000000e+00 0.0000000000000000e+00  0.0000000000000000e+00 0.0000000000000000e+00 0.0000000000000000e+00  0.0000000000000000e+00 0.0000000000000000e+00 0.0000000000000000e+00  0.0000000000000000e+00 0.0000000000000000e+00 0.0000000000000000e+00  0.0000000000000000e+00 0.0000000000000000e+00 0.0000000000000000e+00  0.0000000000000000e+00 0.0000000000000000e+00 0.0000000000000000e+00  0.0000000000000000e+00 0.0000000000000000e+00 0.0000000000000000e+00  0.0000000000000000e+00 0.0000000000000000e+00 0.0000000000000000e+00  0.0000000000000000e+00 0.0000000000000000e+00 0.0000000000000000e+00  0.0000000000000000e+00 0.0000000000000000e+00 0.0000000000000000e+00  0.0000000000000000e+00 0.0000000000000000e+00 0.0000000000000000e+00  0.0000000000000000e+00 0.0000000000000000e+00 0.0000000000000000e+00  0.0000000000000000e+00 0.0000000000000000e+00 0.0000000000000000e+00  0.0000000000000000e+00 0.0000000000000000e+00 0.0000000000000000e+00  0.0000000000000000e+00 0.0000000000000000e+00 0.0000000000000000e+00  0.0000000000000000e+00 0.0000000000000000e+00 0.0000000000000000e+00  0.0000000000000000e+00 0.0000000000000000e+00 0.0000000000000000e+00  0.0000000000000000e+00 0.0000000000000000e+00 0.0000000000000000e+00  0.0000000000000000e+00 0.0000000000000000e+00 0.0000000000000000e+00  0.0000000000000000e+00 0.0000000000000000e+00 0.0000000000000000e+00  0.0000000000000000e+00 0.0000000000000000e+00 0.0000000000000000e+00  0.0000000000000000e+00 0.0000000000000000e+00 0.0000000000000000e+00  0.0000000000000000e+00 0.0000000000000000e+00 0.0000000000000000e+00  0.0000000000000000e+00 0.0000000000000000e+00 0.0000000000000000e+00  0.0000000000000000e+00 0.0000000000000000e+00 0.0000000000000000e+00  0.0000000000000000e+00 0.0000000000000000e+00 0.0000000000000000e+00  0.0000000000000000e+00 0.0000000000000000e+00 0.0000000000000000e+00  0.0000000000000000e+00 0.0000000000000000e+00 0.0000000000000000e+00  0.0000000000000000e+00 0.0000000000000000e+00 0.0000000000000000e+00  0.0000000000000000e+00 0.0000000000000000e+00 0.0000000000000000e+00  0.0000000000000000e+00 0.0000000000000000e+00 0.0000000000000000e+00  0.0000000000000000e+00 0.0000000000000000e+00 0.0000000000000000e+00  0.0000000000000000e+00 0.0000000000000000e+00 0.0000000000000000e+00  0.0000000000000000e+00 0.0000000000000000e+00 0.0000000000000000e+00  0.0000000000000000e+00 0.0000000000000000e+00 0.0000000000000000e+00  0.0000000000000000e+00 0.0000000000000000e+00 0.0000000000000000e+00  0.0000000000000000e+00 0.0000000000000000e+00 0.0000000000000000e+00  0.0000000000000000e+00 0.0000000000000000e+00 0.0000000000000000e+00  0.0000000000000000e+00 0.0000000000000000e+00 0.0000000000000000e+00  0.0000000000000000e+00 0.0000000000000000e+00 0.0000000000000000e+00  0.0000000000000000e+00 0.0000000000000000e+00 0.0000000000000000e+00  0.0000000000000000e+00 0.0000000000000000e+00 0.0000000000000000e+00  0.0000000000000000e+00 0.0000000000000000e+00 0.0000000000000000e+00  0.0000000000000000e+00 0.0000000000000000e+00 0.0000000000000000e+00  0.0000000000000000e+00 0.0000000000000000e+00 0.0000000000000000e+00  0.0000000000000000e+00 0.0000000000000000e+00 0.0000000000000000e+00  0.0000000000000000e+00 0.0000000000000000e+00 0.0000000000000000e+00  0.0000000000000000e+00 0.0000000000000000e+00 0.0000000000000000e+00  0.0000000000000000e+00 0.0000000000000000e+00 0.0000000000000000e+00  0.0000000000000000e+00 0.0000000000000000e+00 0.0000000000000000e+00  0.0000000000000000e+00 0.0000000000000000e+00 0.0000000000000000e+00  0.0000000000000000e+00 0.0000000000000000e+00 0.0000000000000000e+00  0.0000000000000000e+00 0.0000000000000000e+00 0.0000000000000000e+00  0.0000000000000000e+00 0.0000000000000000e+00 0.0000000000000000e+00  0.0000000000000000e+00 0.0000000000000000e+00 0.0000000000000000e+00  0.0000000000000000e+00 0.0000000000000000e+00 0.0000000000000000e+00  0.0000000000000000e+00 0.0000000000000000e+00 0.0000000000000000e+00  0.0000000000000000e+00 0.0000000000000000e+00 0.0000000000000000e+00  0.0000000000000000e+00 0.0000000000000000e+00 0.0000000000000000e+00  0.0000000000000000e+00 0.0000000000000000e+00 0.0000000000000000e+00  0.0000000000000000e+00 0.0000000000000000e+00 0.0000000000000000e+00  0.0000000000000000e+00 0.0000000000000000e+00 0.0000000000000000e+00  0.0000000000000000e+00 0.0000000000000000e+00 0.0000000000000000e+00  0.0000000000000000e+00 0.0000000000000000e+00 0.0000000000000000e+00  0.0000000000000000e+00 0.0000000000000000e+00 0.0000000000000000e+00  0.0000000000000000e+00 0.0000000000000000e+00 0.0000000000000000e+00  0.0000000000000000e+00 0.0000000000000000e+00 0.0000000000000000e+00  0.0000000000000000e+00 0.0000000000000000e+00 0.0000000000000000e+00  0.0000000000000000e+00 0.0000000000000000e+00 0.0000000000000000e+00  0.0000000000000000e+00 0.0000000000000000e+00 0.0000000000000000e+00  0.0000000000000000e+00 0.0000000000000000e+00 0.0000000000000000e+00  0.0000000000000000e+00 0.0000000000000000e+00 0.0000000000000000e+00  0.0000000000000000e+00 0.0000000000000000e+00 0.0000000000000000e+00  0.0000000000000000e+00 0.0000000000000000e+00 0.0000000000000000e+00  0.0000000000000000e+00 0.0000000000000000e+00 0.0000000000000000e+00  0.0000000000000000e+00 0.0000000000000000e+00 0.0000000000000000e+00  0.0000000000000000e+00 0.0000000000000000e+00 0.0000000000000000e+00  0.0000000000000000e+00 0.0000000000000000e+00 0.0000000000000000e+00  0.0000000000000000e+00 0.0000000000000000e+00 0.0000000000000000e+00  0.0000000000000000e+00 0.0000000000000000e+00 0.0000000000000000e+00  0.0000000000000000e+00 0.0000000000000000e+00 0.0000000000000000e+00  0.0000000000000000e+00 0.0000000000000000e+00 0.0000000000000000e+00  0.0000000000000000e+00 0.0000000000000000e+00 0.0000000000000000e+00  0.0000000000000000e+00 0.0000000000000000e+00 0.0000000000000000e+00  0.0000000000000000e+00 0.0000000000000000e+00 0.0000000000000000e+00  0.0000000000000000e+00 0.0000000000000000e+00 0.0000000000000000e+00  0.0000000000000000e+00 0.0000000000000000e+00 0.0000000000000000e+00  0.0000000000000000e+00 0.0000000000000000e+00 0.0000000000000000e+00  0.0000000000000000e+00 0.0000000000000000e+00 0.0000000000000000e+00  0.0000000000000000e+00 0.0000000000000000e+00 0.0000000000000000e+00  0.0000000000000000e+00 0.0000000000000000e+00 0.0000000000000000e+00  0.0000000000000000e+00 0.0000000000000000e+00 0.0000000000000000e+00  0.0000000000000000e+00 0.0000000000000000e+00 0.0000000000000000e+00  0.0000000000000000e+00 0.0000000000000000e+00 0.0000000000000000e+00  0.0000000000000000e+00 0.0000000000000000e+00 0.0000000000000000e+00  0.0000000000000000e+00 0.0000000000000000e+00 0.0000000000000000e+00  0.0000000000000000e+00 0.0000000000000000e+00 0.0000000000000000e+00  -8.1111251134218698e-08 -4.7426941419388914e-07 0.0000000000000000e+00  -1.5204158719794111e-07 -5.1324241733114005e-07 0.0000000000000000e+00  -2.0098640999516289e-07 -5.2856478027601896e-07 0.0000000000000000e+00  -2.3883479401784656e-07 -5.3107345379037802e-07 0.0000000000000000e+00  -2.7424119337575058e-07 -5.3600368031943628e-07 0.0000000000000000e+00  -3.1314203259066797e-07 -5.4759997002672416e-07 0.0000000000000000e+00  -3.5500838849844260e-07 -5.6088056375311098e-07 0.0000000000000000e+00  -4.0113934390805008e-07 -5.7676587192334903e-07 0.0000000000000000e+00  -4.4923268228382289e-07 -5.9506636283248768e-07 0.0000000000000000e+00  -5.0194345283962118e-07 -6.1446186312354806e-07 0.0000000000000000e+00  -5.5737757502700820e-07 -6.3759899334886713e-07 0.0000000000000000e+00  -6.1712022234325795e-07 -6.6094622307976558e-07 0.0000000000000000e+00  -6.8035641545694299e-07 -6.8702634948987094e-07 0.0000000000000000e+00  -7.4687568102685611e-07 -7.1471511373222154e-07 0.0000000000000000e+00  -8.1803563779822970e-07 -7.4386020710753608e-07 0.0000000000000000e+00  -8.9154193627118346e-07 -7.7522136935624842e-07 0.0000000000000000e+00  -9.6971779308326002e-07 -8.0647799886741240e-07 0.0000000000000000e+00  -1.0511679130719133e-06 -8.4123015362244946e-07 0.0000000000000000e+00  -1.1367874664398616e-06 -8.7495149611052415e-07 0.0000000000000000e+00  -1.2256897513247424e-06 -9.1208953708444534e-07 0.0000000000000000e+00  -1.3186903416457586e-06 -9.4822152489472432e-07 0.0000000000000000e+00  -1.4157714068698417e-06 -9.8654971985050011e-07 0.0000000000000000e+00  -1.5157355403615750e-06 -1.0256615252818717e-06 0.0000000000000000e+00  -1.6203964985884604e-06 -1.0653061317158173e-06 0.0000000000000000e+00  -1.7275623359372198e-06 -1.1066216985315882e-06 0.0000000000000000e+00  -1.8392812194616085e-06 -1.1470376239101303e-06 0.0000000000000000e+00  -1.9547605128644278e-06 -1.1906645808077920e-06 0.0000000000000000e+00  -2.0740041615479174e-06 -1.2325089425635184e-06 0.0000000000000000e+00  -2.1969913098175685e-06 -1.2773342833444989e-06 0.0000000000000000e+00  -2.3236835593313695e-06 -1.3207036498505038e-06 0.0000000000000000e+00  -2.4540872680108390e-06 -1.3668544173207076e-06 0.0000000000000000e+00  -2.5883317461228897e-06 -1.4115539787830452e-06 0.0000000000000000e+00  -2.7260966464907429e-06 -1.4591593043029359e-06 0.0000000000000000e+00  -2.8678536544987020e-06 -1.5049223830198999e-06 0.0000000000000000e+00  -3.0135101590751146e-06 -1.5538525044539516e-06 0.0000000000000000e+00  -3.1628885944151962e-06 -1.6011319236537494e-06 0.0000000000000000e+00  -3.3159267915204642e-06 -1.6512866788114378e-06 0.0000000000000000e+00  -3.4727843642320977e-06 -1.6998306197494092e-06 0.0000000000000000e+00  -3.6335272479766017e-06 -1.7511310220581492e-06 0.0000000000000000e+00  -3.7983174064610103e-06 -1.8008292112260248e-06 0.0000000000000000e+00  -3.9674626309579577e-06 -1.8524049098666214e-06 0.0000000000000000e+00  -4.1395724039197847e-06 -1.9035997839407885e-06 0.0000000000000000e+00  -4.3167043669208337e-06 -1.9555232368594481e-06 0.0000000000000000e+00  -4.4961401679526365e-06 -2.0076845717025239e-06 0.0000000000000000e+00  -4.6801531674203424e-06 -2.0590073555486916e-06 0.0000000000000000e+00  -4.8665500580862229e-06 -2.1129649044306278e-06 0.0000000000000000e+00  -5.1046788806022701e-06 -2.0309247978460508e-06 0.0000000000000000e+00  -5.1830659297382832e-06 -1.7362882259993027e-06 0.0000000000000000e+00  -5.0241479723853050e-06 -1.5361095628765270e-06 0.0000000000000000e+00  -4.8364955188859747e-06 -1.4725755304272551e-06 0.0000000000000000e+00  -4.6514492623109359e-06 -1.4076468873974253e-06 0.0000000000000000e+00  -4.4706821293413442e-06 -1.3442149656513751e-06 0.0000000000000000e+00  -4.2924488087015082e-06 -1.2811354051343804e-06 0.0000000000000000e+00  -4.1192815034309746e-06 -1.2185757099477830e-06 0.0000000000000000e+00  -3.9488564625741446e-06 -1.1569723419966150e-06 0.0000000000000000e+00  -3.7828819467314199e-06 -1.0947938004922043e-06 0.0000000000000000e+00  -3.6204555395817347e-06 -1.0349943399594193e-06 0.0000000000000000e+00  -3.4619999649820338e-06 -9.7369025322228304e-07 0.0000000000000000e+00  -3.3071302242565705e-06 -9.1507397464553224e-07 0.0000000000000000e+00  -3.1562878295236052e-06 -8.5508457637045000e-07 0.0000000000000000e+00  -3.0089802578852208e-06 -7.9783946578539756e-07 0.0000000000000000e+00  -2.8655988920872515e-06 -7.3923404846903677e-07 0.0000000000000000e+00  -2.7256920797982339e-06 -6.8334696346463186e-07 0.0000000000000000e+00  -2.5897524684722354e-06 -6.2607752602117384e-07 0.0000000000000000e+00  -2.4573620584622261e-06 -5.7151232729687953e-07 0.0000000000000000e+00  -2.3289631772001524e-06 -5.1561507105698744e-07 0.0000000000000000e+00  -2.2040275839156288e-06 -4.6252598332639016e-07 0.0000000000000000e+00  -2.0829925178842635e-06 -4.0815597735576298e-07 0.0000000000000000e+00  -1.9653564024067917e-06 -3.5652801803744451e-07 0.0000000000000000e+00  -1.8516293433623806e-06 -3.0377786540706547e-07 0.0000000000000000e+00  -1.7417613310228938e-06 -2.5302325393571335e-07 0.0000000000000000e+00  -1.6348861861369704e-06 -2.0260952406880298e-07 0.0000000000000000e+00  -1.5326731401372597e-06 -1.5335035748180455e-07 0.0000000000000000e+00  -1.4325538657658013e-06 -1.0526442886348384e-07 0.0000000000000000e+00  -1.3368385312740691e-06 -5.7152536045631849e-08 0.0000000000000000e+00  -1.2444311675923168e-06 -1.2189416873025253e-08 0.0000000000000000e+00  -1.1557914990220360e-06 3.3926909106379348e-08 0.0000000000000000e+00  -1.0706201310454893e-06 7.6391234480248743e-08 0.0000000000000000e+00  -9.8907104772880312e-07 1.1975988916253424e-07 0.0000000000000000e+00  -9.1118213765577456e-07 1.5992901474615116e-07 0.0000000000000000e+00  -8.3604716746430145e-07 1.9959533126118866e-07 0.0000000000000000e+00  -7.6528024732265468e-07 2.3691870891713639e-07 0.0000000000000000e+00  -6.9642181754735996e-07 2.7277110736074791e-07 0.0000000000000000e+00  -6.3181878080633775e-07 3.0717598424684892e-07 0.0000000000000000e+00  -5.7037129693850132e-07 3.3780065643538877e-07 0.0000000000000000e+00  -5.1241138272160341e-07 3.6810366892047064e-07 0.0000000000000000e+00  -4.5766685821501871e-07 3.9479154577971532e-07 0.0000000000000000e+00  -4.0567041452112127e-07 4.1986741371220552e-07 0.0000000000000000e+00  -3.5768576150342111e-07 4.4192277194313971e-07 0.0000000000000000e+00  -3.1099963859177928e-07 4.6147279826904895e-07 0.0000000000000000e+00  -2.6876439065767505e-07 4.8211133841666774e-07 0.0000000000000000e+00  -2.2230239242846798e-07 4.9871570819410449e-07 0.0000000000000000e+00  -1.6692238001051522e-07 4.9701699596146285e-07 0.0000000000000000e+00  -8.9802251163108168e-08 4.6490350696269953e-07 0.0000000000000000e+00  -2.1753364205179076e-07 -6.9355434164349787e-09 0.0000000000000000e+00  -4.8557724563805789e-06 -1.7983247690385567e-06 0.0000000000000000e+00  -4.4982229601005570e-06 -1.6895040076946468e-06 0.0000000000000000e+00  -3.9519807162150595e-06 -1.5083857404045018e-06 0.0000000000000000e+00  -2.3579374765714350e-07 -1.7728148703304234e-08 0.0000000000000000e+00  -3.6284450468315898e-06 -1.3947162111396747e-06 0.0000000000000000e+00  -3.1065971202784035e-07 -3.5104227113305510e-08 0.0000000000000000e+00  -3.3129430139303841e-06 -1.2848072880375881e-06 0.0000000000000000e+00  -4.5807161889614674e-07 -9.4902899345259805e-08 0.0000000000000000e+00  -5.6633083843993762e-07 -1.5019053972949330e-07 0.0000000000000000e+00  -3.0126265871213859e-06 -1.1774747378052142e-06 0.0000000000000000e+00  -9.0668586041701273e-07 -3.0415973853785427e-07 0.0000000000000000e+00  -2.4571969315336489e-06 -9.7074932359915507e-07 0.0000000000000000e+00  -6.8534998567444276e-07 -1.9944387110572753e-07 0.0000000000000000e+00  -1.0627932181435007e-06 -3.8334610212188708e-07 0.0000000000000000e+00  -2.2019458750322750e-06 -8.7147040813478079e-07 0.0000000000000000e+00  -2.7273949288959188e-06 -1.0727544688074910e-06 0.0000000000000000e+00  -1.2367999868523463e-06 -4.6314127843604534e-07 0.0000000000000000e+00  -1.9616006170625276e-06 -7.7503070437759499e-07 0.0000000000000000e+00  -1.4179919738856704e-06 -5.3849381288188476e-07 0.0000000000000000e+00  -1.7394822978602359e-06 -6.8855324469637201e-07 0.0000000000000000e+00  -1.5689765195442928e-06 -6.0991358989825952e-07 0.0000000000000000e+00  -7.8726321832719871e-07 -2.5468922031417462e-07 0.0000000000000000e+00  -4.2337652537564801e-06 -1.5966064483261521e-06 0.0000000000000000e+00  -3.7835572488601886e-07 -6.7631814225747257e-08 0.0000000000000000e+00  -4.7009322904686601e-06 -1.6398724224497483e-06 0.0000000000000000e+00  -2.1598041800074088e-07 1.8234115195097916e-07 0.0000000000000000e+00  -3.4902860774322685e-06 -1.2419098745433341e-06 0.0000000000000000e+00  -3.8138049013938598e-06 -1.3560135096557738e-06 0.0000000000000000e+00  -2.6702768167927308e-07 -2.0707913711469058e-07 0.0000000000000000e+00  -4.9987289844728413e-07 -2.6368157863681218e-07 0.0000000000000000e+00  -2.6104267910248921e-06 -9.1466427384126720e-07 0.0000000000000000e+00  -3.1819207639493139e-06 -1.1301823477182103e-06 0.0000000000000000e+00  -9.6681239169985987e-07 -4.7467492685464383e-07 0.0000000000000000e+00  -2.3471661420896829e-06 -8.1096221068123522e-07 0.0000000000000000e+00  -6.1557426543962462e-07 -3.1494185598901027e-07 0.0000000000000000e+00  -1.1327534031414550e-06 -5.4915143994265714e-07 0.0000000000000000e+00  -2.0988429691330105e-06 -7.1007714255920774e-07 0.0000000000000000e+00  -2.8886800402496981e-06 -1.0210771296082870e-06 0.0000000000000000e+00  -1.3083871852902774e-06 -6.5518024534800858e-07 0.0000000000000000e+00  -1.8652568835493923e-06 -6.1212031548759085e-07 0.0000000000000000e+00  -1.5927889626726843e-07 -1.1342564643751299e-07 0.0000000000000000e+00  -1.5675101391954613e-07 1.0024883537181334e-07 0.0000000000000000e+00  -4.9888312498639344e-06 -1.9