<?xml version="1.0"?>
<VTKFile type="UnstructuredGrid"  version="0.1"  >
<UnstructuredGrid>
<Piece  NumberOfPoints="1419" NumberOfCells="2698">
<Points>
<DataArray  type="Float64"  NumberOfComponents="3"  format="ascii">0 0 0  0 0.41 0  2.5 0 0  2.5 0.41 0  0.6 0.19 0  0.6 0.21 0  0.25 0.2 0  0.15 0.2 0  0.2489897948556636 0.21 0  0.2489897948556636 0.19 0  0.6 0.2 0  0 0.3807142857143437 0  0 0.3514285714286952 0  0 0.3221428571430699 0  0 0.29285714285744 0  0 0.2635714285718054 0  0 0.2342857142861561 0  0 0.2050000000005308 0  0 0.175714285714732 0  0 0.1464285714289574 0  0 0.1171428571431897 0  0 0.08785714285737878 0  0 0.05857142857161107 0  0 0.02928571428580012 0  0.03015443760436003 0 0  0.06140001986583606 0 0  0.09377624077125973 0 0  0.1273239957535082 0 0  0.1620856860351972 0 0  0.1981052433264291 0 0  0.235428184091502 0 0  0.2741016576309132 0 0  0.3141745521465447 0 0  0.3556974926295285 0 0  0.3987229542472677 0 0  0.4433053055141081 0 0  0.4895008759286886 0 0  0.5373680609405097 0 0  0.5869673343216626 0 0  0.6383613676634521 0 0  0.6916151138468254 0 0  0.7467958595648856 0 0  0.8039733463919316 0 0  0.8632198139502143 0 0  0.9246101326867038 0 0  0.9882218810934433 0 0  1.054135445558498 0 0  1.122434100542598 0 0  1.193204177141305 0 0  1.266535089879536 0 0  1.342519516046404 0 0  1.421253448503939 0 0  1.502836389106271 0 0  1.587371439758838 0 0  1.674965418777374 0 0  1.765729001825544 0 0  1.859776908880082 0 0  1.957227977487062 0 0  2.058205329869943 0 0  2.162836591189951 0 0  2.271253957290865 0 0  2.383594446803425 0 0  2.5 0.1024999999997612 0  2.5 0.2049999999994743 0  2.5 0.3074999999997183 0  2.383594446803656 0.41 0  2.271253957291315 0.41 0  2.162836591190598 0.41 0  2.058205329870775 0.41 0  1.957227977488067 0.41 0  1.859776908881246 0.41 0  1.765729001826854 0.41 0  1.674965418778818 0.41 0  1.58737143976041 0.41 0  1.502836389107956 0.41 0  1.421253448505726 0.41 0  1.342519516048286 0.41 0  1.266535089881505 0.41 0  1.193204177143353 0.41 0  1.122434100544716 0.41 0  1.05413544556068 0.41 0  0.9882218810956305 0.41 0  0.9246101326886647 0.41 0  0.8632198139519631 0.41 0  0.8039733463934788 0.41 0  0.7467958595662458 0.41 0  0.6916151138480078 0.41 0  0.6383613676644679 0.41 0  0.5869673343225223 0.41 0  0.5373680609412221 0.41 0  0.4895008759292634 0.41 0  0.4433053055145528 0.41 0  0.3987229542475914 0.41 0  0.3556974926297398 0.41 0  0.3141745521466497 0.41 0  0.2741016576310038 0.41 0  0.2354281840915826 0.41 0  0.1981052433265003 0.41 0  0.1620856860352591 0.41 0  0.1273239957535623 0.41 0  0.09377624077128965 0.41 0  0.06140001986584975 0.41 0  0.03015443760436654 0.41 0  0.2497468076502589 0.2050254481002335 0  0.2497468076502614 0.1949745518997913 0  0.2469965252529372 0.1829317073451959 0  0.2439893735792749 0.1762316384219906 0  0.2400332147834255 0.1700443375285386 0  0.2352133972704371 0.1645032867342007 0  0.2296339016332438 0.1597280261969788 0  0.2234150974217223 0.1558215752574715 0  0.2166911463437691 0.1528682099456123 0  0.2096071079204251 0.1509316448471593 0  0.2023158100364996 0.1500536585536553 0  0.194974551899914 0.1502531923497262 0  0.1877417105387872 0.1515259415822739 0  0.1807733240461124 0.153844448527136 0  0.1742197252835808 0.15715869474974 0  0.1682222986673531 0.1613971801805478 0  0.162910430003803 0.1664684656256651 0  0.1583987151779087 0.1722631454351573 0  0.1547844879126891 0.178656207771761 0  0.1521457199348551 0.1855097315605723 0  0.1505393388476355 0.1926758619366523 0  0.1505393388476328 0.2073241380633295 0  0.1521457199348437 0.2144902684393899 0  0.1547844879126531 0.221343792228163 0  0.1583987151778488 0.2277368545647528 0  0.1629104300036858 0.2335315343742052 0  0.1682222986671726 0.2386028198193036 0  0.1742197252833576 0.2428413052501257 0  0.1807733240458683 0.2461555514727623 0  0.1877417105384929 0.2484740584176516 0  0.1949745518995776 0.2497468076502398 0  0.202315810036185 0.2499463414463592 0  0.2096071079201568 0.2490683551528932 0  0.2166911463435495 0.2471317900544655 0  0.2234150974215506 0.2441784247426195 0  0.2296339016331197 0.2402719738031125 0  0.2352133972703547 0.2354967132658811 0  0.2400332147833751 0.2299556624715287 0  0.2439893735792577 0.2237683615780412 0  0.246996525252926 0.2170682926548348 0  0.25645809709277 0.21 0  0.2639263993298655 0.21 0  0.271394701566961 0.21 0  0.2788630038040554 0.21 0  0.2863313060411479 0.21 0  0.2937996082782405 0.21 0  0.301267910515333 0.21 0  0.3087362127524279 0.21 0  0.3162045149895234 0.21 0  0.3236728172265972 0.21 0  0.3311411194636928 0.21 0  0.3386094217007701 0.21 0  0.3460777239378666 0.21 0  0.3535460261749672 0.21 0  0.3610143284120516 0.21 0  0.3684826306491596 0.21 0  0.3759509328862226 0.21 0  0.383419235123329 0.21 0  0.3908875373604028 0.21 0  0.3983558395975142 0.21 0  0.4058241418345938 0.21 0  0.4132924440716992 0.21 0  0.4207607463087888 0.21 0  0.4282290485459029 0.21 0  0.4356973507830418 0.21 0  0.4431656530201649 0.21 0  0.4506339552573136 0.21 0  0.4581022574944306 0.21 0  0.4655705597315852 0.21 0  0.4730388619686996 0.21 0  0.480507164205851 0.21 0  0.4879754664429498 0.21 0  0.4954437686800938 0.21 0  0.502912070917267 0.21 0  0.5103803731544119 0.21 0  0.5178486753915261 0.21 0  0.5253169776286404 0.21 0  0.5327852798657868 0.21 0  0.5402535821029386 0.21 0  0.54772188434007 0.21 0  0.5551901865771842 0.21 0  0.5626584888143201 0.21 0  0.5701267910514778 0.21 0  0.5775950932886138 0.21 0  0.5850633955257281 0.21 0  0.5925316977628483 0.21 0  0.6 0.2050000000000054 0  0.6 0.1950000000000217 0  0.5925316977628897 0.19 0  0.5850633955257988 0.19 0  0.5775950932887378 0.19 0  0.5701267910515998 0.19 0  0.5626584888145268 0.19 0  0.5551901865773963 0.19 0  0.547721884340339 0.19 0  0.5402535821032429 0.19 0  0.5327852798661811 0.19 0  0.5253169776290537 0.19 0  0.5178486753919799 0.19 0  0.5103803731549078 0.19 0  0.502912070917822 0.19 0  0.4954437686807294 0.19 0  0.4879754664436223 0.19 0  0.4805071642065402 0.19 0  0.4730388619694271 0.19 0  0.4655705597323621 0.19 0  0.4581022574952563 0.19 0  0.4506339552581777 0.19 0  0.4431656530210671 0.19 0  0.4356973507839815 0.19 0  0.4282290485468779 0.19 0  0.4207607463097617 0.19 0  0.4132924440726327 0.19 0  0.4058241418354857 0.19 0  0.3983558395983636 0.19 0  0.3908875373612097 0.19 0  0.3834192351240934 0.19 0  0.3759509328869369 0.19 0  0.3684826306498175 0.19 0  0.361014328412667 0.19 0  0.3535460261755617 0.19 0  0.3460777239384295 0.19 0  0.3386094217012945 0.19 0  0.3311411194641595 0.19 0  0.3236728172270245 0.19 0  0.3162045149898895 0.19 0  0.3087362127527544 0.19 0  0.3012679105156187 0.19 0  0.2937996082784807 0.19 0  0.2863313060413428 0.19 0  0.2788630038042048 0.19 0  0.2713947015670686 0.19 0  0.2639263993299336 0.19 0  0.2564580970927985 0.19 0  0.2607803159922026 0.2000727136295815 0  0.5887803774232762 0.2001272386983733 0  0.5745072403740523 0.2002044435018727 0  0.5511891430099709 0.2001122610077113 0  0.2751288526855082 0.20000000000002 0  0.5365194309847112 0.1999999999999436 0  0.2894621222999649 0.1998691686390484 0  0.5215828265105155 0.1999999999999228 0  0.3127789816668748 0.1998657885438805 0  0.3274069683451451 0.2000000000000796 0  0.5066462220363641 0.199999999999908 0  0.3650630746574081 0.199866017807523 0  0.476773013087985 0.1999999999998713 0  0.3417402379596385 0.1998691686391011 0  0.3796850840047755 0.200000000000134 0  0.4618364086138087 0.1999999999998546 0  0.4917096175621762 0.1999999999998808 0  0.3946216884789568 0.2000000000001512 0  0.446899804139621 0.1999999999998389 0  0.4089549580935208 0.1998691686391595 0  0.4322718174608562 0.200127451265745 0  0.4201487168029707 0.1999966199048527 0  0.3528922713220932 0.2000185703532356 0  0.5633122436674589 0.1999814296467508 0  0.3006558810093873 0.1999966199048318 0  0.5815926498168407 0.1966545283159175 0  0.2677053789419034 0.1964246479135325 0  0.5290511287476175 0.1970915826863981 0  0.5439877332217911 0.197091582686394 0  0.2825131256993216 0.2035478995978015 0  0.3199386661080599 0.202908417313604 0  0.4842413153250809 0.1970915826863873 0  0.5141145242734466 0.1970915826863843 0  0.3722167817676917 0.2029084173136195 0  0.4693047108508938 0.1970915826863783 0  0.3348752705822316 0.202908417313609 0  0.3871533862418661 0.2029084173136212 0  0.4543681063767183 0.1970915826863795 0  0.4991779197992749 0.1970915826863902 0  0.4020059614928624 0.203547899597858 0  0.4394315019025246 0.1970915826863714 0  0.2550657455369551 0.2034088125358657 0  0.2548908499171161 0.1966940311614271 0  0.5946539510196798 0.2024302972968126 0  0.267698176732111 0.2039977513680092 0  0.4261685417851465 0.196409292431739 0  0.3590076176283495 0.196411355804271 0  0.5571672426447437 0.2036011176410121 0  0.3066757059912147 0.1964092924317024 0  0.594380730180568 0.1966558399668133 0  0.4842413153245942 0.2040749161535287 0  0.4693047108503577 0.2040749161535231 0  0.3871533862424271 0.1959250838464788 0  0.372246743208829 0.1959123236376545 0  0.5141145242731028 0.2040749161535395 0  0.4543681063761134 0.2040749161535186 0  0.4019979587101454 0.1959834479682427 0  0.4394608940728603 0.2040870543693135 0  0.5439623148931173 0.2040856076781014 0  0.5290511287473298 0.2040749161535501 0  0.4991779197988497 0.2040749161535382 0  0.3347912413592433 0.1959225448935183 0  0.3199680582793816 0.1959123018030061 0  0.2825051229162361 0.1959834479681729 0  0.3590471196690275 0.2036304442587945 0  0.5571594006495384 0.1963685282145804 0  0.3067669986803285 0.203627750582736 0  0.4262598344738712 0.2036568242185335 0  0.5814408164431408 0.2041285596160068 0  0.5688286748170428 0.1961819304477386 0  0.4145905603063645 0.2038180695522843 0  0.3473758401724931 0.2038180695522752 0  0.2950977245128307 0.2038180695522663 0  0.5688286748170693 0.203818069552238 0  0.2950977245127906 0.1961819304477774 0  0.3473758401723931 0.1961819304478349 0  0.4145905603061963 0.1961819304479011 0  0.2601812407614425 0.2056861609747042
[...]
<PointData  Vectors="f_40-1"> 
<DataArray  type="Float64"  Name="f_40-1"  NumberOfComponents="3" format="ascii">0.0000000000000000e+00 0.0000000000000000e+00 0.0000000000000000e+00  0.0000000000000000e+00 0.0000000000000000e+00 0.0000000000000000e+00  0.0000000000000000e+00 0.0000000000000000e+00 0.0000000000000000e+00  0.0000000000000000e+00 0.0000000000000000e+00 0.0000000000000000e+00  -3.9977746631805901e-06 -5.3304998878296674e-07 0.0000000000000000e+00  -3.9386106442671999e-06 -9.5067247451654891e-07 0.0000000000000000e+00  0.0000000000000000e+00 0.0000000000000000e+00 0.0000000000000000e+00  0.0000000000000000e+00 0.0000000000000000e+00 0.0000000000000000e+00  0.0000000000000000e+00 0.0000000000000000e+00 0.0000000000000000e+00  0.0000000000000000e+00 0.0000000000000000e+00 0.0000000000000000e+00  -3.9765107041444486e-06 -7.4169025110689358e-07 0.0000000000000000e+00  0.0000000000000000e+00 0.0000000000000000e+00 0.0000000000000000e+00  0.0000000000000000e+00 0.0000000000000000e+00 0.0000000000000000e+00  0.0000000000000000e+00 0.0000000000000000e+00 0.0000000000000000e+00  0.0000000000000000e+00 0.0000000000000000e+00 0.0000000000000000e+00  0.0000000000000000e+00 0.0000000000000000e+00 0.0000000000000000e+00  0.0000000000000000e+00 0.0000000000000000e+00 0.0000000000000000e+00  0.0000000000000000e+00 0.0000000000000000e+00 0.0000000000000000e+00  0.0000000000000000e+00 0.0000000000000000e+00 0.0000000000000000e+00  0.0000000000000000e+00 0.0000000000000000e+00 0.0000000000000000e+00  0.0000000000000000e+00 0.0000000000000000e+00 0.0000000000000000e+00  0.0000000000000000e+00 0.0000000000000000e+00 0.0000000000000000e+00  0.0000000000000000e+00 0.0000000000000000e+00 0.0000000000000000e+00  0.0000000000000000e+00 0.0000000000000000e+00 0.0000000000000000e+00  0.0000000000000000e+00 0.0000000000000000e+00 0.0000000000000000e+00  0.0000000000000000e+00 0.0000000000000000e+00 0.0000000000000000e+00  0.0000000000000000e+00 0.0000000000000000e+00 0.0000000000000000e+00  0.0000000000000000e+00 0.0000000000000000e+00 0.0000000000000000e+00  0.0000000000000000e+00 0.0000000000000000e+00 0.0000000000000000e+00  0.0000000000000000e+00 0.0000000000000000e+00 0.0000000000000000e+00  0.0000000000000000e+00 0.0000000000000000e+00 0.0000000000000000e+00  0.0000000000000000e+00 0.0000000000000000e+00 0.0000000000000000e+00  0.0000000000000000e+00 0.0000000000000000e+00 0.0000000000000000e+00  0.0000000000000000e+00 0.0000000000000000e+00 0.0000000000000000e+00  0.0000000000000000e+00 0.0000000000000000e+00 0.0000000000000000e+00  0.0000000000000000e+00 0.0000000000000000e+00 0.0000000000000000e+00  0.0000000000000000e+00 0.0000000000000000e+00 0.0000000000000000e+00  0.0000000000000000e+00 0.0000000000000000e+00 0.0000000000000000e+00  0.0000000000000000e+00 0.0000000000000000e+00 0.0000000000000000e+00  0.0000000000000000e+00 0.0000000000000000e+00 0.0000000000000000e+00  0.0000000000000000e+00 0.0000000000000000e+00 0.0000000000000000e+00  0.0000000000000000e+00 0.0000000000000000e+00 0.0000000000000000e+00  0.0000000000000000e+00 0.0000000000000000e+00 0.0000000000000000e+00  0.0000000000000000e+00 0.0000000000000000e+00 0.0000000000000000e+00  0.0000000000000000e+00 0.0000000000000000e+00 0.0000000000000000e+00  0.0000000000000000e+00 0.0000000000000000e+00 0.0000000000000000e+00  0.0000000000000000e+00 0.0000000000000000e+00 0.0000000000000000e+00  0.0000000000000000e+00 0.0000000000000000e+00 0.0000000000000000e+00  0.0000000000000000e+00 0.0000000000000000e+00 0.0000000000000000e+00  0.0000000000000000e+00 0.0000000000000000e+00 0.0000000000000000e+00  0.0000000000000000e+00 0.0000000000000000e+00 0.0000000000000000e+00  0.0000000000000000e+00 0.0000000000000000e+00 0.0000000000000000e+00  0.0000000000000000e+00 0.0000000000000000e+00 0.0000000000000000e+00  0.0000000000000000e+00 0.0000000000000000e+00 0.0000000000000000e+00  0.0000000000000000e+00 0.0000000000000000e+00 0.0000000000000000e+00  0.0000000000000000e+00 0.0000000000000000e+00 0.0000000000000000e+00  0.0000000000000000e+00 0.0000000000000000e+00 0.0000000000000000e+00  0.0000000000000000e+00 0.0000000000000000e+00 0.0000000000000000e+00  0.0000000000000000e+00 0.0000000000000000e+00 0.0000000000000000e+00  0.0000000000000000e+00 0.0000000000000000e+00 0.0000000000000000e+00  0.0000000000000000e+00 0.0000000000000000e+00 0.0000000000000000e+00  0.0000000000000000e+00 0.0000000000000000e+00 0.0000000000000000e+00  0.0000000000000000e+00 0.0000000000000000e+00 0.0000000000000000e+00  0.0000000000000000e+00 0.0000000000000000e+00 0.0000000000000000e+00  0.0000000000000000e+00 0.0000000000000000e+00 0.0000000000000000e+00  0.0000000000000000e+00 0.0000000000000000e+00 0.0000000000000000e+00  0.0000000000000000e+00 0.0000000000000000e+00 0.0000000000000000e+00  0.0000000000000000e+00 0.0000000000000000e+00 0.0000000000000000e+00  0.0000000000000000e+00 0.0000000000000000e+00 0.0000000000000000e+00  0.0000000000000000e+00 0.0000000000000000e+00 0.0000000000000000e+00  0.0000000000000000e+00 0.0000000000000000e+00 0.0000000000000000e+00  0.0000000000000000e+00 0.0000000000000000e+00 0.0000000000000000e+00  0.0000000000000000e+00 0.0000000000000000e+00 0.0000000000000000e+00  0.0000000000000000e+00 0.0000000000000000e+00 0.0000000000000000e+00  0.0000000000000000e+00 0.0000000000000000e+00 0.0000000000000000e+00  0.0000000000000000e+00 0.0000000000000000e+00 0.0000000000000000e+00  0.0000000000000000e+00 0.0000000000000000e+00 0.0000000000000000e+00  0.0000000000000000e+00 0.0000000000000000e+00 0.0000000000000000e+00  0.0000000000000000e+00 0.0000000000000000e+00 0.0000000000000000e+00  0.0000000000000000e+00 0.0000000000000000e+00 0.0000000000000000e+00  0.0000000000000000e+00 0.0000000000000000e+00 0.0000000000000000e+00  0.0000000000000000e+00 0.0000000000000000e+00 0.0000000000000000e+00  0.0000000000000000e+00 0.0000000000000000e+00 0.0000000000000000e+00  0.0000000000000000e+00 0.0000000000000000e+00 0.0000000000000000e+00  0.0000000000000000e+00 0.0000000000000000e+00 0.0000000000000000e+00  0.0000000000000000e+00 0.0000000000000000e+00 0.0000000000000000e+00  0.0000000000000000e+00 0.0000000000000000e+00 0.0000000000000000e+00  0.0000000000000000e+00 0.0000000000000000e+00 0.0000000000000000e+00  0.0000000000000000e+00 0.0000000000000000e+00 0.0000000000000000e+00  0.0000000000000000e+00 0.0000000000000000e+00 0.0000000000000000e+00  0.0000000000000000e+00 0.0000000000000000e+00 0.0000000000000000e+00  0.0000000000000000e+00 0.0000000000000000e+00 0.0000000000000000e+00  0.0000000000000000e+00 0.0000000000000000e+00 0.0000000000000000e+00  0.0000000000000000e+00 0.0000000000000000e+00 0.0000000000000000e+00  0.0000000000000000e+00 0.0000000000000000e+00 0.0000000000000000e+00  0.0000000000000000e+00 0.0000000000000000e+00 0.0000000000000000e+00  0.0000000000000000e+00 0.0000000000000000e+00 0.0000000000000000e+00  0.0000000000000000e+00 0.0000000000000000e+00 0.0000000000000000e+00  0.0000000000000000e+00 0.0000000000000000e+00 0.0000000000000000e+00  0.0000000000000000e+00 0.0000000000000000e+00 0.0000000000000000e+00  0.0000000000000000e+00 0.0000000000000000e+00 0.0000000000000000e+00  0.0000000000000000e+00 0.0000000000000000e+00 0.0000000000000000e+00  0.0000000000000000e+00 0.0000000000000000e+00 0.0000000000000000e+00  0.0000000000000000e+00 0.0000000000000000e+00 0.0000000000000000e+00  0.0000000000000000e+00 0.0000000000000000e+00 0.0000000000000000e+00  0.0000000000000000e+00 0.0000000000000000e+00 0.0000000000000000e+00  0.0000000000000000e+00 0.0000000000000000e+00 0.0000000000000000e+00  0.0000000000000000e+00 0.0000000000000000e+00 0.0000000000000000e+00  0.0000000000000000e+00 0.0000000000000000e+00 0.0000000000000000e+00  0.0000000000000000e+00 0.0000000000000000e+00 0.0000000000000000e+00  0.0000000000000000e+00 0.0000000000000000e+00 0.0000000000000000e+00  0.0000000000000000e+00 0.0000000000000000e+00 0.0000000000000000e+00  0.0000000000000000e+00 0.0000000000000000e+00 0.0000000000000000e+00  0.0000000000000000e+00 0.0000000000000000e+00 0.0000000000000000e+00  0.0000000000000000e+00 0.0000000000000000e+00 0.0000000000000000e+00  0.0000000000000000e+00 0.0000000000000000e+00 0.0000000000000000e+00  0.0000000000000000e+00 0.0000000000000000e+00 0.0000000000000000e+00  0.0000000000000000e+00 0.0000000000000000e+00 0.0000000000000000e+00  0.0000000000000000e+00 0.0000000000000000e+00 0.0000000000000000e+00  0.0000000000000000e+00 0.0000000000000000e+00 0.0000000000000000e+00  0.0000000000000000e+00 0.0000000000000000e+00 0.0000000000000000e+00  0.0000000000000000e+00 0.0000000000000000e+00 0.0000000000000000e+00  0.0000000000000000e+00 0.0000000000000000e+00 0.0000000000000000e+00  0.0000000000000000e+00 0.0000000000000000e+00 0.0000000000000000e+00  0.0000000000000000e+00 0.0000000000000000e+00 0.0000000000000000e+00  0.0000000000000000e+00 0.0000000000000000e+00 0.0000000000000000e+00  0.0000000000000000e+00 0.0000000000000000e+00 0.0000000000000000e+00  0.0000000000000000e+00 0.0000000000000000e+00 0.0000000000000000e+00  0.0000000000000000e+00 0.0000000000000000e+00 0.0000000000000000e+00  0.0000000000000000e+00 0.0000000000000000e+00 0.0000000000000000e+00  0.0000000000000000e+00 0.0000000000000000e+00 0.0000000000000000e+00  0.0000000000000000e+00 0.0000000000000000e+00 0.0000000000000000e+00  0.0000000000000000e+00 0.0000000000000000e+00 0.0000000000000000e+00  0.0000000000000000e+00 0.0000000000000000e+00 0.0000000000000000e+00  0.0000000000000000e+00 0.0000000000000000e+00 0.0000000000000000e+00  0.0000000000000000e+00 0.0000000000000000e+00 0.0000000000000000e+00  0.0000000000000000e+00 0.0000000000000000e+00 0.0000000000000000e+00  0.0000000000000000e+00 0.0000000000000000e+00 0.0000000000000000e+00  0.0000000000000000e+00 0.0000000000000000e+00 0.0000000000000000e+00  0.0000000000000000e+00 0.0000000000000000e+00 0.0000000000000000e+00  0.0000000000000000e+00 0.0000000000000000e+00 0.0000000000000000e+00  0.0000000000000000e+00 0.0000000000000000e+00 0.0000000000000000e+00  0.0000000000000000e+00 0.0000000000000000e+00 0.0000000000000000e+00  -6.7481773187677598e-08 -3.3091009854522158e-07 0.0000000000000000e+00  -1.2849480216248639e-07 -3.5760709473079899e-07 0.0000000000000000e+00  -1.7428120377872444e-07 -3.6742510643142213e-07 0.0000000000000000e+00  -2.1238358165886489e-07 -3.6766960657576578e-07 0.0000000000000000e+00  -2.4859567836535875e-07 -3.6914753906538296e-07 0.0000000000000000e+00  -2.8730724553912631e-07 -3.7462017138001957e-07 0.0000000000000000e+00  -3.2786179818189427e-07 -3.8077566193865659e-07 0.0000000000000000e+00  -3.7131434108640052e-07 -3.8804742810197379e-07 0.0000000000000000e+00  -4.1621752589066025e-07 -3.9640353150173131e-07 0.0000000000000000e+00  -4.6399750862125985e-07 -4.0493939332911539e-07 0.0000000000000000e+00  -5.1379118733700208e-07 -4.1531715261640693e-07 0.0000000000000000e+00  -5.6622820212467488e-07 -4.2527275906565045e-07 0.0000000000000000e+00  -6.2116388256659499e-07 -4.3639023901562090e-07 0.0000000000000000e+00  -6.7808858114381444e-07 -4.4805270094298001e-07 0.0000000000000000e+00  -7.3813416743084811e-07 -4.5999841772490945e-07 0.0000000000000000e+00  -7.9986473706828329e-07 -4.7285328303817900e-07 0.0000000000000000e+00  -8.6446808832873053e-07 -4.8507327521822540e-07 0.0000000000000000e+00  -9.3142290795556621e-07 -4.9896016081982160e-07 0.0000000000000000e+00  -1.0009046234219477e-06 -5.1162549946598370e-07 0.0000000000000000e+00  -1.0727183787061871e-06 -5.2595394545635852e-07 0.0000000000000000e+00  -1.1470636140556229e-06 -5.3907921661489070e-07 0.0000000000000000e+00  -1.2242094027014999e-06 -5.5305199846533395e-07 0.0000000000000000e+00  -1.3030803483819144e-06 -5.6710352540784035e-07 0.0000000000000000e+00  -1.3850864000961356e-06 -5.8092373651372044e-07 0.0000000000000000e+00  -1.4688132833004407e-06 -5.9542628816694661e-07 0.0000000000000000e+00  -1.5554131761338921e-06 -6.0884539638561178e-07 0.0000000000000000e+00  -1.6445014531481143e-06 -6.2392455799440917e-07 0.0000000000000000e+00  -1.7359951291528145e-06 -6.3744384632214574e-07 0.0000000000000000e+00  -1.8299584360019641e-06 -6.5251304873924928e-07 0.0000000000000000e+00  -1.9262909078410946e-06 -6.6629556885756516e-07 0.0000000000000000e+00  -2.0250631495637275e-06 -6.8154901569919096e-07 0.0000000000000000e+00  -2.1263016710321763e-06 -6.9558849735023060e-07 0.0000000000000000e+00  -2.2298416120532254e-06 -7.1124296263648581e-07 0.0000000000000000e+00  -2.3359582371069538e-06 -7.2547691315796347e-07 0.0000000000000000e+00  -2.4446356368953294e-06 -7.4156099445728131e-07 0.0000000000000000e+00  -2.5557091479093680e-06 -7.5641818793910615e-07 0.0000000000000000e+00  -2.6691722117633290e-06 -7.7298552183026725e-07 0.0000000000000000e+00  -2.7851033693053156e-06 -7.8839243749603735e-07 0.0000000000000000e+00  -2.9035760779331351e-06 -8.0547283733662666e-07 0.0000000000000000e+00  -3.0246778397072253e-06 -8.2145267332094803e-07 0.0000000000000000e+00  -3.1486225234922031e-06 -8.3857760782523179e-07 0.0000000000000000e+00  -3.2744755814636917e-06 -8.5542521060570412e-07 0.0000000000000000e+00  -3.4036719080244800e-06 -8.7270620738326186e-07 0.0000000000000000e+00  -3.5343783556583237e-06 -8.9013789293409171e-07 0.0000000000000000e+00  -3.6680768057200196e-06 -9.0703521929164829e-07 0.0000000000000000e+00  -3.8035029884383725e-06 -9.2552167836898867e-07 0.0000000000000000e+00  -3.9608845483867314e-06 -8.4626888554260353e-07 0.0000000000000000e+00  -3.9899263722511199e-06 -6.3722028208512692e-07 0.0000000000000000e+00  -3.8620607407702385e-06 -5.1394307052919741e-07 0.0000000000000000e+00  -3.7258865483835070e-06 -4.8886060888736954e-07 0.0000000000000000e+00  -3.5915628734759240e-06 -4.6291170463632386e-07 0.0000000000000000e+00  -3.4600665299390598e-06 -4.3787570838483083e-07 0.0000000000000000e+00  -3.3302386783672818e-06 -4.1304712148764719e-07 0.0000000000000000e+00  -3.2038045865229048e-06 -3.8851914052950940e-07 0.0000000000000000e+00  -3.0791926423407396e-06 -3.6456432601003199e-07 0.0000000000000000e+00  -2.9575035343970873e-06 -3.4019983409345391e-07 0.0000000000000000e+00  -2.8382019298122189e-06 -3.1727592871445592e-07 0.0000000000000000e+00  -2.7215067314204342e-06 -2.9328922507312896e-07 0.0000000000000000e+00  -2.6072554394984643e-06 -2.7090752809387800e-07 0.0000000000000000e+00  -2.4956385735274867e-06 -2.4750703508864609e-07 0.0000000000000000e+00  -2.3864490151229279e-06 -2.2570453590787961e-07 0.0000000000000000e+00  -2.2798098464190303e-06 -2.0283115546027064e-07 0.0000000000000000e+00  -2.1755803307052011e-06 -1.8148219388649245e-07 0.0000000000000000e+00  -2.0739123084111510e-06 -1.5898647006999441e-07 0.0000000000000000e+00  -1.9747299656671258e-06 -1.3794318709546919e-07 0.0000000000000000e+00  -1.8781101460905550e-06 -1.1573002839963073e-07 0.0000000000000000e+00  -1.7839362766095451e-06 -9.4980393224683897e-08 0.0000000000000000e+00  -1.6922345205907639e-06 -7.3033916819139256e-08 0.0000000000000000e+00  -1.6029510944005157e-06 -5.2446519030907341e-08 0.0000000000000000e+00  -1.5161260333480815e-06 -3.0713972994311652e-08 0.0000000000000000e+00  -1.4320232317388519e-06 -9.7955798668722111e-09 0.0000000000000000e+00  -1.3497848109895322e-06 1.1330047557057560e-08 0.0000000000000000e+00  -1.2706862789680390e-06 3.2284127413209344e-08 0.0000000000000000e+00  -1.1930965263334379e-06 5.2889076493970976e-08 0.0000000000000000e+00  -1.1183276484201223e-06 7.4095918630616239e-08 0.0000000000000000e+00  -1.0458157334731505e-06 9.3785607135458363e-08 0.0000000000000000e+00  -9.7574271493224634e-07 1.1480539625994984e-07 0.0000000000000000e+00  -9.0802579070725386e-07 1.3400357579507879e-07 0.0000000000000000e+00  -8.4264300560982786e-07 1.5434715881211400e-07 0.0000000000000000e+00  -7.7977801045619913e-07 1.7325433979319912e-07 0.0000000000000000e+00  -7.1858005578646825e-07 1.9231961740181621e-07 0.0000000000000000e+00  -6.6030463072989117e-07 2.1054564145302626e-07 0.0000000000000000e+00  -6.0341248763144464e-07 2.2828743698952277e-07 0.0000000000000000e+00  -5.4922019476750720e-07 2.4571370435024509e-07 0.0000000000000000e+00  -4.9714839992661602e-07 2.6124622261746446e-07 0.0000000000000000e+00  -4.4729835624376598e-07 2.7710619127519791e-07 0.0000000000000000e+00  -3.9963648848097153e-07 2.9122252733433459e-07 0.0000000000000000e+00  -3.5363258726704359e-07 3.0472534487194885e-07 0.0000000000000000e+00  -3.1028735997222077e-07 3.1685828270773574e-07 0.0000000000000000e+00  -2.6787513646920334e-07 3.2775025619602808e-07 0.0000000000000000e+00  -2.2829686369854556e-07 3.3999510917848887e-07 0.0000000000000000e+00  -1.8570088979106061e-07 3.5008179072035838e-07 0.0000000000000000e+00  -1.3666821884018417e-07 3.4780042618885668e-07 0.0000000000000000e+00  -7.2592758767958943e-08 3.2489655375988733e-07 0.0000000000000000e+00  -1.6829339082552384e-07 -4.6607555434376215e-09 0.0000000000000000e+00  -3.7670836111773262e-06 -7.1118516030621990e-07 0.0000000000000000e+00  -3.5081661636088849e-06 -6.7187696033064433e-07 0.0000000000000000e+00  -3.1092837769941834e-06 -6.0489305156072121e-07 0.0000000000000000e+00  -2.0207406303909015e-07 -1.0288175103281373e-08 0.0000000000000000e+00  -2.8714410746403089e-06 -5.6260029373157561e-07 0.0000000000000000e+00  -2.7502453334121776e-07 -1.8530991790907048e-08 0.0000000000000000e+00  -2.6387075778586315e-06 -5.2319060994296160e-07 0.0000000000000000e+00  -4.1073612953342453e-07 -4.9223468840748321e-08 0.0000000000000000e+00  -5.0636788316159451e-07 -7.7725839194712005e-08 0.0000000000000000e+00  -2.4159780192908705e-06 -4.8492030534086996e-07 0.0000000000000000e+00  -7.9297515059822849e-07 -1.4745457634188983e-07 0.0000000000000000e+00  -2.0003155373634683e-06 -4.1108027219585660e-07 0.0000000000000000e+00  -6.0846938108338401e-07 -9.9742592090353664e-08 0.0000000000000000e+00  -9.2023780722927501e-07 -1.8359477206376243e-07 0.0000000000000000e+00  -1.8072985174341470e-06 -3.7510733826928168e-07 0.0000000000000000e+00  -2.2031905526112075e-06 -4.4760499002835814e-07 0.0000000000000000e+00  -1.0596970353986213e-06 -2.1723019446783674e-07 0.0000000000000000e+00  -1.6241081283474098e-06 -3.3951494057527103e-07 0.0000000000000000e+00  -1.2027094869731613e-06 -2.4634059527031490e-07 0.0000000000000000e+00  -1.4536766427007992e-06 -3.0849047498865882e-07 0.0000000000000000e+00  -1.3209308151207096e-06 -2.7631399492311784e-07 0.0000000000000000e+00  -6.9420209773684417e-07 -1.2688506569786530e-07 0.0000000000000000e+00  -3.3147651936211350e-06 -6.3554821169306011e-07 0.0000000000000000e+00  -3.3815785171667727e-07 -3.6596922849709520e-08 0.0000000000000000e+00  -3.6454451133109788e-06 -6.1748848688215005e-07 0.0000000000000000e+00  -1.7687852514020008e-07 1.2827131615782985e-07 0.0000000000000000e+00  -2.7616013691050327e-06 -4.7364808953746767e-07 0.0000000000000000e+00  -2.9995422238737888e-06 -5.1567728643426360e-07 0.0000000000000000e+00  -2.3561170653219924e-07 -1.4075489399602729e-07 0.0000000000000000e+00  -4.5186637299928903e-07 -1.6255905932244876e-07 0.0000000000000000e+00  -2.1077782647595517e-06 -3.5389786805401869e-07 0.0000000000000000e+00  -2.5336820539384303e-06 -4.3271995817341198e-07 0.0000000000000000e+00  -8.4785634313749472e-07 -2.5776783203671822e-07 0.0000000000000000e+00  -1.9097205011396396e-06 -3.1559799809970159e-07 0.0000000000000000e+00  -5.5329257086544703e-07 -1.8677810864991713e-07 0.0000000000000000e+00  -9.8243349595249698e-07 -2.8899260463623119e-07 0.0000000000000000e+00  -1.7215588979461610e-06 -2.7778624152999076e-07 0.0000000000000000e+00  -2.3157698079096284e-06 -3.9286271894092930e-07 0.0000000000000000e+00  -1.1241684361643725e-06 -3.3999689247599739e-07 0.0000000000000000e+00  -1.5431482494169807e-06 -2.4030198449109483e-07 0.0000000000000000e+00  -1.1916407548372755e-07 -7.9109554425082011e-08 0.0000000000000000e+00  -1.1695877569261704e-07 6.9850914365962187e-08 0.0000000000000000e+00  -3.8696357619591409e-06 -7.759728