<?xml version="1.0"?>
<VTKFile type="UnstructuredGrid"  version="0.1"  >
<UnstructuredGrid>
<Piece  NumberOfPoints="1419" NumberOfCells="2698">
<Points>
<DataArray  type="Float64"  NumberOfComponents="3"  format="ascii">0 0 0  0 0.41 0  2.5 0 0  2.5 0.41 0  0.6 0.19 0  0.6 0.21 0  0.25 0.2 0  0.15 0.2 0  0.2489897948556636 0.21 0  0.2489897948556636 0.19 0  0.6 0.2 0  0 0.3807142857143437 0  0 0.3514285714286952 0  0 0.3221428571430699 0  0 0.29285714285744 0  0 0.2635714285718054 0  0 0.2342857142861561 0  0 0.2050000000005308 0  0 0.175714285714732 0  0 0.1464285714289574 0  0 0.1171428571431897 0  0 0.08785714285737878 0  0 0.05857142857161107 0  0 0.02928571428580012 0  0.03015443760436003 0 0  0.06140001986583606 0 0  0.09377624077125973 0 0  0.1273239957535082 0 0  0.1620856860351972 0 0  0.1981052433264291 0 0  0.235428184091502 0 0  0.2741016576309132 0 0  0.3141745521465447 0 0  0.3556974926295285 0 0  0.3987229542472677 0 0  0.4433053055141081 0 0  0.4895008759286886 0 0  0.5373680609405097 0 0  0.5869673343216626 0 0  0.6383613676634521 0 0  0.6916151138468254 0 0  0.7467958595648856 0 0  0.8039733463919316 0 0  0.8632198139502143 0 0  0.9246101326867038 0 0  0.9882218810934433 0 0  1.054135445558498 0 0  1.122434100542598 0 0  1.193204177141305 0 0  1.266535089879536 0 0  1.342519516046404 0 0  1.421253448503939 0 0  1.502836389106271 0 0  1.587371439758838 0 0  1.674965418777374 0 0  1.765729001825544 0 0  1.859776908880082 0 0  1.957227977487062 0 0  2.058205329869943 0 0  2.162836591189951 0 0  2.271253957290865 0 0  2.383594446803425 0 0  2.5 0.1024999999997612 0  2.5 0.2049999999994743 0  2.5 0.3074999999997183 0  2.383594446803656 0.41 0  2.271253957291315 0.41 0  2.162836591190598 0.41 0  2.058205329870775 0.41 0  1.957227977488067 0.41 0  1.859776908881246 0.41 0  1.765729001826854 0.41 0  1.674965418778818 0.41 0  1.58737143976041 0.41 0  1.502836389107956 0.41 0  1.421253448505726 0.41 0  1.342519516048286 0.41 0  1.266535089881505 0.41 0  1.193204177143353 0.41 0  1.122434100544716 0.41 0  1.05413544556068 0.41 0  0.9882218810956305 0.41 0  0.9246101326886647 0.41 0  0.8632198139519631 0.41 0  0.8039733463934788 0.41 0  0.7467958595662458 0.41 0  0.6916151138480078 0.41 0  0.6383613676644679 0.41 0  0.5869673343225223 0.41 0  0.5373680609412221 0.41 0  0.4895008759292634 0.41 0  0.4433053055145528 0.41 0  0.3987229542475914 0.41 0  0.3556974926297398 0.41 0  0.3141745521466497 0.41 0  0.2741016576310038 0.41 0  0.2354281840915826 0.41 0  0.1981052433265003 0.41 0  0.1620856860352591 0.41 0  0.1273239957535623 0.41 0  0.09377624077128965 0.41 0  0.06140001986584975 0.41 0  0.03015443760436654 0.41 0  0.2497468076502589 0.2050254481002335 0  0.2497468076502614 0.1949745518997913 0  0.2469965252529372 0.1829317073451959 0  0.2439893735792749 0.1762316384219906 0  0.2400332147834255 0.1700443375285386 0  0.2352133972704371 0.1645032867342007 0  0.2296339016332438 0.1597280261969788 0  0.2234150974217223 0.1558215752574715 0  0.2166911463437691 0.1528682099456123 0  0.2096071079204251 0.1509316448471593 0  0.2023158100364996 0.1500536585536553 0  0.194974551899914 0.1502531923497262 0  0.1877417105387872 0.1515259415822739 0  0.1807733240461124 0.153844448527136 0  0.1742197252835808 0.15715869474974 0  0.1682222986673531 0.1613971801805478 0  0.162910430003803 0.1664684656256651 0  0.1583987151779087 0.1722631454351573 0  0.1547844879126891 0.178656207771761 0  0.1521457199348551 0.1855097315605723 0  0.1505393388476355 0.1926758619366523 0  0.1505393388476328 0.2073241380633295 0  0.1521457199348437 0.2144902684393899 0  0.1547844879126531 0.221343792228163 0  0.1583987151778488 0.2277368545647528 0  0.1629104300036858 0.2335315343742052 0  0.1682222986671726 0.2386028198193036 0  0.1742197252833576 0.2428413052501257 0  0.1807733240458683 0.2461555514727623 0  0.1877417105384929 0.2484740584176516 0  0.1949745518995776 0.2497468076502398 0  0.202315810036185 0.2499463414463592 0  0.2096071079201568 0.2490683551528932 0  0.2166911463435495 0.2471317900544655 0  0.2234150974215506 0.2441784247426195 0  0.2296339016331197 0.2402719738031125 0  0.2352133972703547 0.2354967132658811 0  0.2400332147833751 0.2299556624715287 0  0.2439893735792577 0.2237683615780412 0  0.246996525252926 0.2170682926548348 0  0.25645809709277 0.21 0  0.2639263993298655 0.21 0  0.271394701566961 0.21 0  0.2788630038040554 0.21 0  0.2863313060411479 0.21 0  0.2937996082782405 0.21 0  0.301267910515333 0.21 0  0.3087362127524279 0.21 0  0.3162045149895234 0.21 0  0.3236728172265972 0.21 0  0.3311411194636928 0.21 0  0.3386094217007701 0.21 0  0.3460777239378666 0.21 0  0.3535460261749672 0.21 0  0.3610143284120516 0.21 0  0.3684826306491596 0.21 0  0.3759509328862226 0.21 0  0.383419235123329 0.21 0  0.3908875373604028 0.21 0  0.3983558395975142 0.21 0  0.4058241418345938 0.21 0  0.4132924440716992 0.21 0  0.4207607463087888 0.21 0  0.4282290485459029 0.21 0  0.4356973507830418 0.21 0  0.4431656530201649 0.21 0  0.4506339552573136 0.21 0  0.4581022574944306 0.21 0  0.4655705597315852 0.21 0  0.4730388619686996 0.21 0  0.480507164205851 0.21 0  0.4879754664429498 0.21 0  0.4954437686800938 0.21 0  0.502912070917267 0.21 0  0.5103803731544119 0.21 0  0.5178486753915261 0.21 0  0.5253169776286404 0.21 0  0.5327852798657868 0.21 0  0.5402535821029386 0.21 0  0.54772188434007 0.21 0  0.5551901865771842 0.21 0  0.5626584888143201 0.21 0  0.5701267910514778 0.21 0  0.5775950932886138 0.21 0  0.5850633955257281 0.21 0  0.5925316977628483 0.21 0  0.6 0.2050000000000054 0  0.6 0.1950000000000217 0  0.5925316977628897 0.19 0  0.5850633955257988 0.19 0  0.5775950932887378 0.19 0  0.5701267910515998 0.19 0  0.5626584888145268 0.19 0  0.5551901865773963 0.19 0  0.547721884340339 0.19 0  0.5402535821032429 0.19 0  0.5327852798661811 0.19 0  0.5253169776290537 0.19 0  0.5178486753919799 0.19 0  0.5103803731549078 0.19 0  0.502912070917822 0.19 0  0.4954437686807294 0.19 0  0.4879754664436223 0.19 0  0.4805071642065402 0.19 0  0.4730388619694271 0.19 0  0.4655705597323621 0.19 0  0.4581022574952563 0.19 0  0.4506339552581777 0.19 0  0.4431656530210671 0.19 0  0.4356973507839815 0.19 0  0.4282290485468779 0.19 0  0.4207607463097617 0.19 0  0.4132924440726327 0.19 0  0.4058241418354857 0.19 0  0.3983558395983636 0.19 0  0.3908875373612097 0.19 0  0.3834192351240934 0.19 0  0.3759509328869369 0.19 0  0.3684826306498175 0.19 0  0.361014328412667 0.19 0  0.3535460261755617 0.19 0  0.3460777239384295 0.19 0  0.3386094217012945 0.19 0  0.3311411194641595 0.19 0  0.3236728172270245 0.19 0  0.3162045149898895 0.19 0  0.3087362127527544 0.19 0  0.3012679105156187 0.19 0  0.2937996082784807 0.19 0  0.2863313060413428 0.19 0  0.2788630038042048 0.19 0  0.2713947015670686 0.19 0  0.2639263993299336 0.19 0  0.2564580970927985 0.19 0  0.2607803159922026 0.2000727136295815 0  0.5887803774232762 0.2001272386983733 0  0.5745072403740523 0.2002044435018727 0  0.5511891430099709 0.2001122610077113 0  0.2751288526855082 0.20000000000002 0  0.5365194309847112 0.1999999999999436 0  0.2894621222999649 0.1998691686390484 0  0.5215828265105155 0.1999999999999228 0  0.3127789816668748 0.1998657885438805 0  0.3274069683451451 0.2000000000000796 0  0.5066462220363641 0.199999999999908 0  0.3650630746574081 0.199866017807523 0  0.476773013087985 0.1999999999998713 0  0.3417402379596385 0.1998691686391011 0  0.3796850840047755 0.200000000000134 0  0.4618364086138087 0.1999999999998546 0  0.4917096175621762 0.1999999999998808 0  0.3946216884789568 0.2000000000001512 0  0.446899804139621 0.1999999999998389 0  0.4089549580935208 0.1998691686391595 0  0.4322718174608562 0.200127451265745 0  0.4201487168029707 0.1999966199048527 0  0.3528922713220932 0.2000185703532356 0  0.5633122436674589 0.1999814296467508 0  0.3006558810093873 0.1999966199048318 0  0.5815926498168407 0.1966545283159175 0  0.2677053789419034 0.1964246479135325 0  0.5290511287476175 0.1970915826863981 0  0.5439877332217911 0.197091582686394 0  0.2825131256993216 0.2035478995978015 0  0.3199386661080599 0.202908417313604 0  0.4842413153250809 0.1970915826863873 0  0.5141145242734466 0.1970915826863843 0  0.3722167817676917 0.2029084173136195 0  0.4693047108508938 0.1970915826863783 0  0.3348752705822316 0.202908417313609 0  0.3871533862418661 0.2029084173136212 0  0.4543681063767183 0.1970915826863795 0  0.4991779197992749 0.1970915826863902 0  0.4020059614928624 0.203547899597858 0  0.4394315019025246 0.1970915826863714 0  0.2550657455369551 0.2034088125358657 0  0.2548908499171161 0.1966940311614271 0  0.5946539510196798 0.2024302972968126 0  0.267698176732111 0.2039977513680092 0  0.4261685417851465 0.196409292431739 0  0.3590076176283495 0.196411355804271 0  0.5571672426447437 0.2036011176410121 0  0.3066757059912147 0.1964092924317024 0  0.594380730180568 0.1966558399668133 0  0.4842413153245942 0.2040749161535287 0  0.4693047108503577 0.2040749161535231 0  0.3871533862424271 0.1959250838464788 0  0.372246743208829 0.1959123236376545 0  0.5141145242731028 0.2040749161535395 0  0.4543681063761134 0.2040749161535186 0  0.4019979587101454 0.1959834479682427 0  0.4394608940728603 0.2040870543693135 0  0.5439623148931173 0.2040856076781014 0  0.5290511287473298 0.2040749161535501 0  0.4991779197988497 0.2040749161535382 0  0.3347912413592433 0.1959225448935183 0  0.3199680582793816 0.1959123018030061 0  0.2825051229162361 0.1959834479681729 0  0.3590471196690275 0.2036304442587945 0  0.5571594006495384 0.1963685282145804 0  0.3067669986803285 0.203627750582736 0  0.4262598344738712 0.2036568242185335 0  0.5814408164431408 0.2041285596160068 0  0.5688286748170428 0.1961819304477386 0  0.4145905603063645 0.2038180695522843 0  0.3473758401724931 0.2038180695522752 0  0.2950977245128307 0.2038180695522663 0  0.5688286748170693 0.203818069552238 0  0.2950977245127906 0.1961819304477774 0  0.3473758401723931 0.1961819304478349 0  0.4145905603061963 0.1961819304479011 0  0.2601812407614425 0.2056861609747042
[...]
<PointData  Vectors="f_40-1"> 
<DataArray  type="Float64"  Name="f_40-1"  NumberOfComponents="3" format="ascii">0.0000000000000000e+00 0.0000000000000000e+00 0.0000000000000000e+00  0.0000000000000000e+00 0.0000000000000000e+00 0.0000000000000000e+00  0.0000000000000000e+00 0.0000000000000000e+00 0.0000000000000000e+00  0.0000000000000000e+00 0.0000000000000000e+00 0.0000000000000000e+00  -1.4248280345845005e-05 -3.8366869409451341e-04 0.0000000000000000e+00  1.5419743644168572e-05 -3.8738119070512260e-04 0.0000000000000000e+00  0.0000000000000000e+00 0.0000000000000000e+00 0.0000000000000000e+00  0.0000000000000000e+00 0.0000000000000000e+00 0.0000000000000000e+00  0.0000000000000000e+00 0.0000000000000000e+00 0.0000000000000000e+00  0.0000000000000000e+00 0.0000000000000000e+00 0.0000000000000000e+00  2.7592634043291692e-07 -3.8552081406070587e-04 0.0000000000000000e+00  0.0000000000000000e+00 0.0000000000000000e+00 0.0000000000000000e+00  0.0000000000000000e+00 0.0000000000000000e+00 0.0000000000000000e+00  0.0000000000000000e+00 0.0000000000000000e+00 0.0000000000000000e+00  0.0000000000000000e+00 0.0000000000000000e+00 0.0000000000000000e+00  0.0000000000000000e+00 0.0000000000000000e+00 0.0000000000000000e+00  0.0000000000000000e+00 0.0000000000000000e+00 0.0000000000000000e+00  0.0000000000000000e+00 0.0000000000000000e+00 0.0000000000000000e+00  0.0000000000000000e+00 0.0000000000000000e+00 0.0000000000000000e+00  0.0000000000000000e+00 0.0000000000000000e+00 0.0000000000000000e+00  0.0000000000000000e+00 0.0000000000000000e+00 0.0000000000000000e+00  0.0000000000000000e+00 0.0000000000000000e+00 0.0000000000000000e+00  0.0000000000000000e+00 0.0000000000000000e+00 0.0000000000000000e+00  0.0000000000000000e+00 0.0000000000000000e+00 0.0000000000000000e+00  0.0000000000000000e+00 0.0000000000000000e+00 0.0000000000000000e+00  0.0000000000000000e+00 0.0000000000000000e+00 0.0000000000000000e+00  0.0000000000000000e+00 0.0000000000000000e+00 0.0000000000000000e+00  0.0000000000000000e+00 0.0000000000000000e+00 0.0000000000000000e+00  0.0000000000000000e+00 0.0000000000000000e+00 0.0000000000000000e+00  0.0000000000000000e+00 0.0000000000000000e+00 0.0000000000000000e+00  0.0000000000000000e+00 0.0000000000000000e+00 0.0000000000000000e+00  0.0000000000000000e+00 0.0000000000000000e+00 0.0000000000000000e+00  0.0000000000000000e+00 0.0000000000000000e+00 0.0000000000000000e+00  0.0000000000000000e+00 0.0000000000000000e+00 0.0000000000000000e+00  0.0000000000000000e+00 0.0000000000000000e+00 0.0000000000000000e+00  0.0000000000000000e+00 0.0000000000000000e+00 0.0000000000000000e+00  0.0000000000000000e+00 0.0000000000000000e+00 0.0000000000000000e+00  0.0000000000000000e+00 0.0000000000000000e+00 0.0000000000000000e+00  0.0000000000000000e+00 0.0000000000000000e+00 0.0000000000000000e+00  0.0000000000000000e+00 0.0000000000000000e+00 0.0000000000000000e+00  0.0000000000000000e+00 0.0000000000000000e+00 0.0000000000000000e+00  0.0000000000000000e+00 0.0000000000000000e+00 0.0000000000000000e+00  0.0000000000000000e+00 0.0000000000000000e+00 0.0000000000000000e+00  0.0000000000000000e+00 0.0000000000000000e+00 0.0000000000000000e+00  0.0000000000000000e+00 0.0000000000000000e+00 0.0000000000000000e+00  0.0000000000000000e+00 0.0000000000000000e+00 0.0000000000000000e+00  0.0000000000000000e+00 0.0000000000000000e+00 0.0000000000000000e+00  0.0000000000000000e+00 0.0000000000000000e+00 0.0000000000000000e+00  0.0000000000000000e+00 0.0000000000000000e+00 0.0000000000000000e+00  0.0000000000000000e+00 0.0000000000000000e+00 0.0000000000000000e+00  0.0000000000000000e+00 0.0000000000000000e+00 0.0000000000000000e+00  0.0000000000000000e+00 0.0000000000000000e+00 0.0000000000000000e+00  0.0000000000000000e+00 0.0000000000000000e+00 0.0000000000000000e+00  0.0000000000000000e+00 0.0000000000000000e+00 0.0000000000000000e+00  0.0000000000000000e+00 0.0000000000000000e+00 0.0000000000000000e+00  0.0000000000000000e+00 0.0000000000000000e+00 0.0000000000000000e+00  0.0000000000000000e+00 0.0000000000000000e+00 0.0000000000000000e+00  0.0000000000000000e+00 0.0000000000000000e+00 0.0000000000000000e+00  0.0000000000000000e+00 0.0000000000000000e+00 0.0000000000000000e+00  0.0000000000000000e+00 0.0000000000000000e+00 0.0000000000000000e+00  0.0000000000000000e+00 0.0000000000000000e+00 0.0000000000000000e+00  0.0000000000000000e+00 0.0000000000000000e+00 0.0000000000000000e+00  0.0000000000000000e+00 0.0000000000000000e+00 0.0000000000000000e+00  0.0000000000000000e+00 0.0000000000000000e+00 0.0000000000000000e+00  0.0000000000000000e+00 0.0000000000000000e+00 0.0000000000000000e+00  0.0000000000000000e+00 0.0000000000000000e+00 0.0000000000000000e+00  0.0000000000000000e+00 0.0000000000000000e+00 0.0000000000000000e+00  0.0000000000000000e+00 0.0000000000000000e+00 0.0000000000000000e+00  0.0000000000000000e+00 0.0000000000000000e+00 0.0000000000000000e+00  0.0000000000000000e+00 0.0000000000000000e+00 0.0000000000000000e+00  0.0000000000000000e+00 0.0000000000000000e+00 0.0000000000000000e+00  0.0000000000000000e+00 0.0000000000000000e+00 0.0000000000000000e+00  0.0000000000000000e+00 0.0000000000000000e+00 0.0000000000000000e+00  0.0000000000000000e+00 0.0000000000000000e+00 0.0000000000000000e+00  0.0000000000000000e+00 0.0000000000000000e+00 0.0000000000000000e+00  0.0000000000000000e+00 0.0000000000000000e+00 0.0000000000000000e+00  0.0000000000000000e+00 0.0000000000000000e+00 0.0000000000000000e+00  0.0000000000000000e+00 0.0000000000000000e+00 0.0000000000000000e+00  0.0000000000000000e+00 0.0000000000000000e+00 0.0000000000000000e+00  0.0000000000000000e+00 0.0000000000000000e+00 0.0000000000000000e+00  0.0000000000000000e+00 0.0000000000000000e+00 0.0000000000000000e+00  0.0000000000000000e+00 0.0000000000000000e+00 0.0000000000000000e+00  0.0000000000000000e+00 0.0000000000000000e+00 0.0000000000000000e+00  0.0000000000000000e+00 0.0000000000000000e+00 0.0000000000000000e+00  0.0000000000000000e+00 0.0000000000000000e+00 0.0000000000000000e+00  0.0000000000000000e+00 0.0000000000000000e+00 0.0000000000000000e+00  0.0000000000000000e+00 0.0000000000000000e+00 0.0000000000000000e+00  0.0000000000000000e+00 0.0000000000000000e+00 0.0000000000000000e+00  0.0000000000000000e+00 0.0000000000000000e+00 0.0000000000000000e+00  0.0000000000000000e+00 0.0000000000000000e+00 0.0000000000000000e+00  0.0000000000000000e+00 0.0000000000000000e+00 0.0000000000000000e+00  0.0000000000000000e+00 0.0000000000000000e+00 0.0000000000000000e+00  0.0000000000000000e+00 0.0000000000000000e+00 0.0000000000000000e+00  0.0000000000000000e+00 0.0000000000000000e+00 0.0000000000000000e+00  0.0000000000000000e+00 0.0000000000000000e+00 0.0000000000000000e+00  0.0000000000000000e+00 0.0000000000000000e+00 0.0000000000000000e+00  0.0000000000000000e+00 0.0000000000000000e+00 0.0000000000000000e+00  0.0000000000000000e+00 0.0000000000000000e+00 0.0000000000000000e+00  0.0000000000000000e+00 0.0000000000000000e+00 0.0000000000000000e+00  0.0000000000000000e+00 0.0000000000000000e+00 0.0000000000000000e+00  0.0000000000000000e+00 0.0000000000000000e+00 0.0000000000000000e+00  0.0000000000000000e+00 0.0000000000000000e+00 0.0000000000000000e+00  0.0000000000000000e+00 0.0000000000000000e+00 0.0000000000000000e+00  0.0000000000000000e+00 0.0000000000000000e+00 0.0000000000000000e+00  0.0000000000000000e+00 0.0000000000000000e+00 0.0000000000000000e+00  0.0000000000000000e+00 0.0000000000000000e+00 0.0000000000000000e+00  0.0000000000000000e+00 0.0000000000000000e+00 0.0000000000000000e+00  0.0000000000000000e+00 0.0000000000000000e+00 0.0000000000000000e+00  0.0000000000000000e+00 0.0000000000000000e+00 0.0000000000000000e+00  0.0000000000000000e+00 0.0000000000000000e+00 0.0000000000000000e+00  0.0000000000000000e+00 0.0000000000000000e+00 0.0000000000000000e+00  0.0000000000000000e+00 0.0000000000000000e+00 0.0000000000000000e+00  0.0000000000000000e+00 0.0000000000000000e+00 0.0000000000000000e+00  0.0000000000000000e+00 0.0000000000000000e+00 0.0000000000000000e+00  0.0000000000000000e+00 0.0000000000000000e+00 0.0000000000000000e+00  0.0000000000000000e+00 0.0000000000000000e+00 0.0000000000000000e+00  0.0000000000000000e+00 0.0000000000000000e+00 0.0000000000000000e+00  0.0000000000000000e+00 0.0000000000000000e+00 0.0000000000000000e+00  0.0000000000000000e+00 0.0000000000000000e+00 0.0000000000000000e+00  0.0000000000000000e+00 0.0000000000000000e+00 0.0000000000000000e+00  0.0000000000000000e+00 0.0000000000000000e+00 0.0000000000000000e+00  0.0000000000000000e+00 0.0000000000000000e+00 0.0000000000000000e+00  0.0000000000000000e+00 0.0000000000000000e+00 0.0000000000000000e+00  0.0000000000000000e+00 0.0000000000000000e+00 0.0000000000000000e+00  0.0000000000000000e+00 0.0000000000000000e+00 0.0000000000000000e+00  0.0000000000000000e+00 0.0000000000000000e+00 0.0000000000000000e+00  0.0000000000000000e+00 0.0000000000000000e+00 0.0000000000000000e+00  0.0000000000000000e+00 0.0000000000000000e+00 0.0000000000000000e+00  0.0000000000000000e+00 0.0000000000000000e+00 0.0000000000000000e+00  0.0000000000000000e+00 0.0000000000000000e+00 0.0000000000000000e+00  0.0000000000000000e+00 0.0000000000000000e+00 0.0000000000000000e+00  0.0000000000000000e+00 0.0000000000000000e+00 0.0000000000000000e+00  0.0000000000000000e+00 0.0000000000000000e+00 0.0000000000000000e+00  0.0000000000000000e+00 0.0000000000000000e+00 0.0000000000000000e+00  0.0000000000000000e+00 0.0000000000000000e+00 0.0000000000000000e+00  0.0000000000000000e+00 0.0000000000000000e+00 0.0000000000000000e+00  0.0000000000000000e+00 0.0000000000000000e+00 0.0000000000000000e+00  0.0000000000000000e+00 0.0000000000000000e+00 0.0000000000000000e+00  0.0000000000000000e+00 0.0000000000000000e+00 0.0000000000000000e+00  0.0000000000000000e+00 0.0000000000000000e+00 0.0000000000000000e+00  0.0000000000000000e+00 0.0000000000000000e+00 0.0000000000000000e+00  0.0000000000000000e+00 0.0000000000000000e+00 0.0000000000000000e+00  0.0000000000000000e+00 0.0000000000000000e+00 0.0000000000000000e+00  9.6783531122949124e-07 -3.9323507687526489e-06 0.0000000000000000e+00  2.1650211316206203e-06 -5.0811744066047725e-06 0.0000000000000000e+00  3.4638280413618154e-06 -6.6509525461939578e-06 0.0000000000000000e+00  4.9346849793322023e-06 -8.7391687273732382e-06 0.0000000000000000e+00  6.3101503786769186e-06 -1.1378973991374949e-05 0.0000000000000000e+00  7.7901558052813133e-06 -1.4633300989855175e-05 0.0000000000000000e+00  9.1040016791467470e-06 -1.8328895490143966e-05 0.0000000000000000e+00  1.0392800118685267e-05 -2.2610387723034856e-05 0.0000000000000000e+00  1.1776556217158265e-05 -2.7339587291500483e-05 0.0000000000000000e+00  1.2956493584733963e-05 -3.2527407592972180e-05 0.0000000000000000e+00  1.4250230485667663e-05 -3.8188347717548847e-05 0.0000000000000000e+00  1.5335834526827486e-05 -4.4258597937437867e-05 0.0000000000000000e+00  1.6488699714567353e-05 -5.0748524877693761e-05 0.0000000000000000e+00  1.7480688478984430e-05 -5.7570211334166298e-05 0.0000000000000000e+00  1.8414361165400128e-05 -6.4798787106216059e-05 0.0000000000000000e+00  1.9381175666477139e-05 -7.2343920510231755e-05 0.0000000000000000e+00  2.0168390416700915e-05 -8.0186105639722699e-05 0.0000000000000000e+00  2.0991627759482627e-05 -8.8362723886066397e-05 0.0000000000000000e+00  2.1644519400370009e-05 -9.6781396409747442e-05 0.0000000000000000e+00  2.2314751908158529e-05 -1.0548518436641890e-04 0.0000000000000000e+00  2.2849139771527669e-05 -1.1440343789020028e-04 0.0000000000000000e+00  2.3360460701011076e-05 -1.2357172244507102e-04 0.0000000000000000e+00  2.3763395740790445e-05 -1.3290878984329764e-04 0.0000000000000000e+00  2.4096819768655950e-05 -1.4245892137155217e-04 0.0000000000000000e+00  2.4417308619316623e-05 -1.5216625962713126e-04 0.0000000000000000e+00  2.4629370441651649e-05 -1.6202269727048126e-04 0.0000000000000000e+00  2.4789992680120334e-05 -1.7205769782760211e-04 0.0000000000000000e+00  2.4873325500999910e-05 -1.8218427209119425e-04 0.0000000000000000e+00  2.4904037440742266e-05 -1.9246716309328154e-04 0.0000000000000000e+00  2.4862870659004694e-05 -2.0282126285760884e-04 0.0000000000000000e+00  2.4768236807273386e-05 -2.1330727432214959e-04 0.0000000000000000e+00  2.4604281350563734e-05 -2.2384301429013864e-04 0.0000000000000000e+00  2.4388469963608246e-05 -2.3448996194574081e-04 0.0000000000000000e+00  2.4104833881914733e-05 -2.4516544130442891e-04 0.0000000000000000e+00  2.3766578204129974e-05 -2.5593738040775594e-04 0.0000000000000000e+00  2.3366163596445018e-05 -2.6672348748532838e-04 0.0000000000000000e+00  2.2912798320685891e-05 -2.7758721699966372e-04 0.0000000000000000e+00  2.2399169953011269e-05 -2.8845252320522499e-04 0.0000000000000000e+00  2.1830781102163252e-05 -2.9938219228302278e-04 0.0000000000000000e+00  2.1201899406354934e-05 -3.1030262140833330e-04 0.0000000000000000e+00  2.0511660831210856e-05 -3.2126561311878181e-04 0.0000000000000000e+00  1.9774587440785480e-05 -3.3222885058726556e-04 0.0000000000000000e+00  1.8973304252333393e-05 -3.4321017028657796e-04 0.0000000000000000e+00  1.8138865995760783e-05 -3.5419707166494920e-04 0.0000000000000000e+00  1.7237180176304182e-05 -3.6517034030068168e-04 0.0000000000000000e+00  1.6308062416575066e-05 -3.7618721346656977e-04 0.0000000000000000e+00  7.7369658632425828e-06 -3.8645023118054063e-04 0.0000000000000000e+00  -7.0838352583607052e-06 -3.8459621262431341e-04 0.0000000000000000e+00  -1.3343268565752237e-05 -3.7270500733096215e-04 0.0000000000000000e+00  -1.2389343305908206e-05 -3.6158046392830047e-04 0.0000000000000000e+00  -1.1465042455184955e-05 -3.5043417081507996e-04 0.0000000000000000e+00  -1.0596873414109136e-05 -3.3931802530576564e-04 0.0000000000000000e+00  -9.7628760346851982e-06 -3.2821082730647929e-04 0.0000000000000000e+00  -8.9876033268455775e-06 -3.1711944894313444e-04 0.0000000000000000e+00  -8.2428828011198917e-06 -3.0605151744664787e-04 0.0000000000000000e+00  -7.5565540439862174e-06 -2.9498618483294985e-04 0.0000000000000000e+00  -6.9038038871693593e-06 -2.8397464937172050e-04 0.0000000000000000e+00  -6.3038895266529203e-06 -2.7296336859379186e-04 0.0000000000000000e+00  -5.7309469814590170e-06 -2.6201812559549238e-04 0.0000000000000000e+00  -5.2135214080893093e-06 -2.5108668546712265e-04 0.0000000000000000e+00  -4.7164098451577568e-06 -2.4023577851709578e-04 0.0000000000000000e+00  -4.2767522278224070e-06 -2.2941498279872841e-04 0.0000000000000000e+00  -3.8489849487894736e-06 -2.1868918752909549e-04 0.0000000000000000e+00  -3.4834370813179890e-06 -2.0801117188303444e-04 0.0000000000000000e+00  -3.1215896333467320e-06 -1.9744596275440737e-04 0.0000000000000000e+00  -2.8275001370730168e-06 -1.8694910271956633e-04 0.0000000000000000e+00  -2.5278979055905690e-06 -1.7658800172292433e-04 0.0000000000000000e+00  -2.3015305152027646e-06 -1.6631931443886116e-04 0.0000000000000000e+00  -2.0578690490394468e-06 -1.5620933090702065e-04 0.0000000000000000e+00  -1.8942913690229268e-06 -1.4621951647023049e-04 0.0000000000000000e+00  -1.7121434354224539e-06 -1.3640703972479253e-04 0.0000000000000000e+00  -1.5941778043802795e-06 -1.2674543234943839e-04 0.0000000000000000e+00  -1.5134394060257551e-06 -1.1730586732996016e-04 0.0000000000000000e+00  -1.3968869003536693e-06 -1.0803398109060275e-04 0.0000000000000000e+00  -1.3483310511075805e-06 -9.8996280672986370e-05 0.0000000000000000e+00  -1.2913645291016647e-06 -9.0211467005666622e-05 0.0000000000000000e+00  -1.2822898696559486e-06 -8.1670854708211320e-05 0.0000000000000000e+00  -1.2638103425574685e-06 -7.3428091099577781e-05 0.0000000000000000e+00  -1.2895631694632972e-06 -6.5458323645472207e-05 0.0000000000000000e+00  -1.2689195589741385e-06 -5.7861451257314177e-05 0.0000000000000000e+00  -1.3316410291764253e-06 -5.0544469144353698e-05 0.0000000000000000e+00  -1.4112435658545985e-06 -4.3659261150401017e-05 0.0000000000000000e+00  -1.4019172555974565e-06 -3.7083208877293151e-05 0.0000000000000000e+00  -1.4557685952374007e-06 -3.0960986025523724e-05 0.0000000000000000e+00  -1.4657885264476102e-06 -2.5268950374506959e-05 0.0000000000000000e+00  -1.5130034258244506e-06 -2.0017727980578784e-05 0.0000000000000000e+00  -1.4617722168118516e-06 -1.5298295794656542e-05 0.0000000000000000e+00  -1.5087732961947951e-06 -1.0995992078138070e-05 0.0000000000000000e+00  -1.5477112285157754e-06 -7.2987135806367348e-06 0.0000000000000000e+00  -1.4399964318952844e-06 -4.0369426656478772e-06 0.0000000000000000e+00  -1.4090766132628394e-06 -1.3559860961930161e-06 0.0000000000000000e+00  -1.2109453755698815e-06 7.4531939510340074e-07 0.0000000000000000e+00  -1.0199608785022460e-06 2.1436709902072642e-06 0.0000000000000000e+00  -5.2550645309004225e-07 2.7590800052324663e-06 0.0000000000000000e+00  -2.0995446188321188e-07 -6.1726455153276535e-07 0.0000000000000000e+00  2.0200942460181998e-06 -3.6890055335611779e-04 0.0000000000000000e+00  3.9490041648950437e-06 -3.4777471712647471e-04 0.0000000000000000e+00  6.2710694336862377e-06 -3.1329915586752918e-04 0.0000000000000000e+00  1.4110534496207633e-06 -3.5472495612129879e-06 0.0000000000000000e+00  7.3918028298852766e-06 -2.9167583652559687e-04 0.0000000000000000e+00  2.6624273196779163e-06 -8.5878248963633092e-06 0.0000000000000000e+00  8.5115970134952661e-06 -2.6979076914833590e-04 0.0000000000000000e+00  4.7119592060622082e-06 -2.1083028304678244e-05 0.0000000000000000e+00  6.0406913023419045e-06 -3.1398056475947820e-05 0.0000000000000000e+00  9.4361553626003999e-06 -2.4806349142478674e-04 0.0000000000000000e+00  8.6551100163304549e-06 -6.5127511363108069e-05 0.0000000000000000e+00  1.0707731347889468e-05 -2.0532447101305004e-04 0.0000000000000000e+00  7.0706688284772615e-06 -4.3043134582408329e-05 0.0000000000000000e+00  9.6105452559395451e-06 -8.0688013153782124e-05 0.0000000000000000e+00  1.1057016415160741e-05 -1.8445837737462520e-04 0.0000000000000000e+00  1.0167765308992520e-05 -2.2655226998414627e-04 0.0000000000000000e+00  1.0287561266330843e-05 -9.7671615425408450e-05 0.0000000000000000e+00  1.1215007625956827e-05 -1.6404478340831401e-04 0.0000000000000000e+00  1.0613927971800766e-05 -1.1486712974641809e-04 0.0000000000000000e+00  1.1358633178318335e-05 -1.4462257466687787e-04 0.0000000000000000e+00  1.1009177480222865e-05 -1.2895604238557723e-04 0.0000000000000000e+00  7.9964705248993548e-06 -5.3272861388518972e-05 0.0000000000000000e+00  4.8422199678733055e-06 -3.3117546399411582e-04 0.0000000000000000e+00  3.7138004682279801e-06 -1.4089414120722669e-05 0.0000000000000000e+00  -2.1748797291303996e-06 -3.5762385515584561e-04 0.0000000000000000e+00  -5.1331405851008951e-08 -4.3893114551504701e-07 0.0000000000000000e+00  3.7225112394213825e-06 -2.8005857374733856e-04 0.0000000000000000e+00  2.4826197809016352e-06 -3.0203486399165298e-04 0.0000000000000000e+00  3.3212407899270247e-06 -7.2748419740876359e-06 0.0000000000000000e+00  7.4353133450463143e-06 -2.7034314022368641e-05 0.0000000000000000e+00  6.3402203073388817e-06 -2.1514628778703250e-04 0.0000000000000000e+00  4.7766474872515486e-06 -2.5821375330904695e-04 0.0000000000000000e+00  1.2274198254755235e-05 -7.3634345223901203e-05 0.0000000000000000e+00  6.8570116400358596e-06 -1.9405808793135192e-04 0.0000000000000000e+00  8.9945662049500271e-06 -3.8383209414497863e-05 0.0000000000000000e+00  1.3253761657702315e-05 -9.0035777137952339e-05 0.0000000000000000e+00  7.1997216050561085e-06 -1.7337644206654333e-04 0.0000000000000000e+00  5.6476428450590223e-06 -2.3655533768019639e-04 0.0000000000000000e+00  1.4799755796960922e-05 -1.0761437651298026e-04 0.0000000000000000e+00  7.3704932925742636e-06 -1.5319602031378007e-04 0.0000000000000000e+00  -3.6927854942172041e-07 -9.2661270475972045e-07 0.0000000000000000e+00  -6.1297017304245446e-07 6.2770468504266758e-07 0.0000000000000000e+00  4.6260341617251618e-06 -3.7801341474124239e-04 0.0000000000000000e+00  1.4638923885618200e-06 -3.34