<?xml version="1.0"?>
<VTKFile type="UnstructuredGrid"  version="0.1"  >
<UnstructuredGrid>
<Piece  NumberOfPoints="1419" NumberOfCells="2698">
<Points>
<DataArray  type="Float64"  NumberOfComponents="3"  format="ascii">0 0 0  0 0.41 0  2.5 0 0  2.5 0.41 0  0.6 0.19 0  0.6 0.21 0  0.25 0.2 0  0.15 0.2 0  0.2489897948556636 0.21 0  0.2489897948556636 0.19 0  0.6 0.2 0  0 0.3807142857143437 0  0 0.3514285714286952 0  0 0.3221428571430699 0  0 0.29285714285744 0  0 0.2635714285718054 0  0 0.2342857142861561 0  0 0.2050000000005308 0  0 0.175714285714732 0  0 0.1464285714289574 0  0 0.1171428571431897 0  0 0.08785714285737878 0  0 0.05857142857161107 0  0 0.02928571428580012 0  0.03015443760436003 0 0  0.06140001986583606 0 0  0.09377624077125973 0 0  0.1273239957535082 0 0  0.1620856860351972 0 0  0.1981052433264291 0 0  0.235428184091502 0 0  0.2741016576309132 0 0  0.3141745521465447 0 0  0.3556974926295285 0 0  0.3987229542472677 0 0  0.4433053055141081 0 0  0.4895008759286886 0 0  0.5373680609405097 0 0  0.5869673343216626 0 0  0.6383613676634521 0 0  0.6916151138468254 0 0  0.7467958595648856 0 0  0.8039733463919316 0 0  0.8632198139502143 0 0  0.9246101326867038 0 0  0.9882218810934433 0 0  1.054135445558498 0 0  1.122434100542598 0 0  1.193204177141305 0 0  1.266535089879536 0 0  1.342519516046404 0 0  1.421253448503939 0 0  1.502836389106271 0 0  1.587371439758838 0 0  1.674965418777374 0 0  1.765729001825544 0 0  1.859776908880082 0 0  1.957227977487062 0 0  2.058205329869943 0 0  2.162836591189951 0 0  2.271253957290865 0 0  2.383594446803425 0 0  2.5 0.1024999999997612 0  2.5 0.2049999999994743 0  2.5 0.3074999999997183 0  2.383594446803656 0.41 0  2.271253957291315 0.41 0  2.162836591190598 0.41 0  2.058205329870775 0.41 0  1.957227977488067 0.41 0  1.859776908881246 0.41 0  1.765729001826854 0.41 0  1.674965418778818 0.41 0  1.58737143976041 0.41 0  1.502836389107956 0.41 0  1.421253448505726 0.41 0  1.342519516048286 0.41 0  1.266535089881505 0.41 0  1.193204177143353 0.41 0  1.122434100544716 0.41 0  1.05413544556068 0.41 0  0.9882218810956305 0.41 0  0.9246101326886647 0.41 0  0.8632198139519631 0.41 0  0.8039733463934788 0.41 0  0.7467958595662458 0.41 0  0.6916151138480078 0.41 0  0.6383613676644679 0.41 0  0.5869673343225223 0.41 0  0.5373680609412221 0.41 0  0.4895008759292634 0.41 0  0.4433053055145528 0.41 0  0.3987229542475914 0.41 0  0.3556974926297398 0.41 0  0.3141745521466497 0.41 0  0.2741016576310038 0.41 0  0.2354281840915826 0.41 0  0.1981052433265003 0.41 0  0.1620856860352591 0.41 0  0.1273239957535623 0.41 0  0.09377624077128965 0.41 0  0.06140001986584975 0.41 0  0.03015443760436654 0.41 0  0.2497468076502589 0.2050254481002335 0  0.2497468076502614 0.1949745518997913 0  0.2469965252529372 0.1829317073451959 0  0.2439893735792749 0.1762316384219906 0  0.2400332147834255 0.1700443375285386 0  0.2352133972704371 0.1645032867342007 0  0.2296339016332438 0.1597280261969788 0  0.2234150974217223 0.1558215752574715 0  0.2166911463437691 0.1528682099456123 0  0.2096071079204251 0.1509316448471593 0  0.2023158100364996 0.1500536585536553 0  0.194974551899914 0.1502531923497262 0  0.1877417105387872 0.1515259415822739 0  0.1807733240461124 0.153844448527136 0  0.1742197252835808 0.15715869474974 0  0.1682222986673531 0.1613971801805478 0  0.162910430003803 0.1664684656256651 0  0.1583987151779087 0.1722631454351573 0  0.1547844879126891 0.178656207771761 0  0.1521457199348551 0.1855097315605723 0  0.1505393388476355 0.1926758619366523 0  0.1505393388476328 0.2073241380633295 0  0.1521457199348437 0.2144902684393899 0  0.1547844879126531 0.221343792228163 0  0.1583987151778488 0.2277368545647528 0  0.1629104300036858 0.2335315343742052 0  0.1682222986671726 0.2386028198193036 0  0.1742197252833576 0.2428413052501257 0  0.1807733240458683 0.2461555514727623 0  0.1877417105384929 0.2484740584176516 0  0.1949745518995776 0.2497468076502398 0  0.202315810036185 0.2499463414463592 0  0.2096071079201568 0.2490683551528932 0  0.2166911463435495 0.2471317900544655 0  0.2234150974215506 0.2441784247426195 0  0.2296339016331197 0.2402719738031125 0  0.2352133972703547 0.2354967132658811 0  0.2400332147833751 0.2299556624715287 0  0.2439893735792577 0.2237683615780412 0  0.246996525252926 0.2170682926548348 0  0.25645809709277 0.21 0  0.2639263993298655 0.21 0  0.271394701566961 0.21 0  0.2788630038040554 0.21 0  0.2863313060411479 0.21 0  0.2937996082782405 0.21 0  0.301267910515333 0.21 0  0.3087362127524279 0.21 0  0.3162045149895234 0.21 0  0.3236728172265972 0.21 0  0.3311411194636928 0.21 0  0.3386094217007701 0.21 0  0.3460777239378666 0.21 0  0.3535460261749672 0.21 0  0.3610143284120516 0.21 0  0.3684826306491596 0.21 0  0.3759509328862226 0.21 0  0.383419235123329 0.21 0  0.3908875373604028 0.21 0  0.3983558395975142 0.21 0  0.4058241418345938 0.21 0  0.4132924440716992 0.21 0  0.4207607463087888 0.21 0  0.4282290485459029 0.21 0  0.4356973507830418 0.21 0  0.4431656530201649 0.21 0  0.4506339552573136 0.21 0  0.4581022574944306 0.21 0  0.4655705597315852 0.21 0  0.4730388619686996 0.21 0  0.480507164205851 0.21 0  0.4879754664429498 0.21 0  0.4954437686800938 0.21 0  0.502912070917267 0.21 0  0.5103803731544119 0.21 0  0.5178486753915261 0.21 0  0.5253169776286404 0.21 0  0.5327852798657868 0.21 0  0.5402535821029386 0.21 0  0.54772188434007 0.21 0  0.5551901865771842 0.21 0  0.5626584888143201 0.21 0  0.5701267910514778 0.21 0  0.5775950932886138 0.21 0  0.5850633955257281 0.21 0  0.5925316977628483 0.21 0  0.6 0.2050000000000054 0  0.6 0.1950000000000217 0  0.5925316977628897 0.19 0  0.5850633955257988 0.19 0  0.5775950932887378 0.19 0  0.5701267910515998 0.19 0  0.5626584888145268 0.19 0  0.5551901865773963 0.19 0  0.547721884340339 0.19 0  0.5402535821032429 0.19 0  0.5327852798661811 0.19 0  0.5253169776290537 0.19 0  0.5178486753919799 0.19 0  0.5103803731549078 0.19 0  0.502912070917822 0.19 0  0.4954437686807294 0.19 0  0.4879754664436223 0.19 0  0.4805071642065402 0.19 0  0.4730388619694271 0.19 0  0.4655705597323621 0.19 0  0.4581022574952563 0.19 0  0.4506339552581777 0.19 0  0.4431656530210671 0.19 0  0.4356973507839815 0.19 0  0.4282290485468779 0.19 0  0.4207607463097617 0.19 0  0.4132924440726327 0.19 0  0.4058241418354857 0.19 0  0.3983558395983636 0.19 0  0.3908875373612097 0.19 0  0.3834192351240934 0.19 0  0.3759509328869369 0.19 0  0.3684826306498175 0.19 0  0.361014328412667 0.19 0  0.3535460261755617 0.19 0  0.3460777239384295 0.19 0  0.3386094217012945 0.19 0  0.3311411194641595 0.19 0  0.3236728172270245 0.19 0  0.3162045149898895 0.19 0  0.3087362127527544 0.19 0  0.3012679105156187 0.19 0  0.2937996082784807 0.19 0  0.2863313060413428 0.19 0  0.2788630038042048 0.19 0  0.2713947015670686 0.19 0  0.2639263993299336 0.19 0  0.2564580970927985 0.19 0  0.2607803159922026 0.2000727136295815 0  0.5887803774232762 0.2001272386983733 0  0.5745072403740523 0.2002044435018727 0  0.5511891430099709 0.2001122610077113 0  0.2751288526855082 0.20000000000002 0  0.5365194309847112 0.1999999999999436 0  0.2894621222999649 0.1998691686390484 0  0.5215828265105155 0.1999999999999228 0  0.3127789816668748 0.1998657885438805 0  0.3274069683451451 0.2000000000000796 0  0.5066462220363641 0.199999999999908 0  0.3650630746574081 0.199866017807523 0  0.476773013087985 0.1999999999998713 0  0.3417402379596385 0.1998691686391011 0  0.3796850840047755 0.200000000000134 0  0.4618364086138087 0.1999999999998546 0  0.4917096175621762 0.1999999999998808 0  0.3946216884789568 0.2000000000001512 0  0.446899804139621 0.1999999999998389 0  0.4089549580935208 0.1998691686391595 0  0.4322718174608562 0.200127451265745 0  0.4201487168029707 0.1999966199048527 0  0.3528922713220932 0.2000185703532356 0  0.5633122436674589 0.1999814296467508 0  0.3006558810093873 0.1999966199048318 0  0.5815926498168407 0.1966545283159175 0  0.2677053789419034 0.1964246479135325 0  0.5290511287476175 0.1970915826863981 0  0.5439877332217911 0.197091582686394 0  0.2825131256993216 0.2035478995978015 0  0.3199386661080599 0.202908417313604 0  0.4842413153250809 0.1970915826863873 0  0.5141145242734466 0.1970915826863843 0  0.3722167817676917 0.2029084173136195 0  0.4693047108508938 0.1970915826863783 0  0.3348752705822316 0.202908417313609 0  0.3871533862418661 0.2029084173136212 0  0.4543681063767183 0.1970915826863795 0  0.4991779197992749 0.1970915826863902 0  0.4020059614928624 0.203547899597858 0  0.4394315019025246 0.1970915826863714 0  0.2550657455369551 0.2034088125358657 0  0.2548908499171161 0.1966940311614271 0  0.5946539510196798 0.2024302972968126 0  0.267698176732111 0.2039977513680092 0  0.4261685417851465 0.196409292431739 0  0.3590076176283495 0.196411355804271 0  0.5571672426447437 0.2036011176410121 0  0.3066757059912147 0.1964092924317024 0  0.594380730180568 0.1966558399668133 0  0.4842413153245942 0.2040749161535287 0  0.4693047108503577 0.2040749161535231 0  0.3871533862424271 0.1959250838464788 0  0.372246743208829 0.1959123236376545 0  0.5141145242731028 0.2040749161535395 0  0.4543681063761134 0.2040749161535186 0  0.4019979587101454 0.1959834479682427 0  0.4394608940728603 0.2040870543693135 0  0.5439623148931173 0.2040856076781014 0  0.5290511287473298 0.2040749161535501 0  0.4991779197988497 0.2040749161535382 0  0.3347912413592433 0.1959225448935183 0  0.3199680582793816 0.1959123018030061 0  0.2825051229162361 0.1959834479681729 0  0.3590471196690275 0.2036304442587945 0  0.5571594006495384 0.1963685282145804 0  0.3067669986803285 0.203627750582736 0  0.4262598344738712 0.2036568242185335 0  0.5814408164431408 0.2041285596160068 0  0.5688286748170428 0.1961819304477386 0  0.4145905603063645 0.2038180695522843 0  0.3473758401724931 0.2038180695522752 0  0.2950977245128307 0.2038180695522663 0  0.5688286748170693 0.203818069552238 0  0.2950977245127906 0.1961819304477774 0  0.3473758401723931 0.1961819304478349 0  0.4145905603061963 0.1961819304479011 0  0.2601812407614425 0.2056861609747042
[...]
<PointData  Vectors="f_40-1"> 
<DataArray  type="Float64"  Name="f_40-1"  NumberOfComponents="3" format="ascii">0.0000000000000000e+00 0.0000000000000000e+00 0.0000000000000000e+00  0.0000000000000000e+00 0.0000000000000000e+00 0.0000000000000000e+00  0.0000000000000000e+00 0.0000000000000000e+00 0.0000000000000000e+00  0.0000000000000000e+00 0.0000000000000000e+00 0.0000000000000000e+00  -1.1848630038819873e-05 -1.1904613597727551e-04 0.0000000000000000e+00  -2.5614183744791370e-06 -1.2168020661030631e-04 0.0000000000000000e+00  0.0000000000000000e+00 0.0000000000000000e+00 0.0000000000000000e+00  0.0000000000000000e+00 0.0000000000000000e+00 0.0000000000000000e+00  0.0000000000000000e+00 0.0000000000000000e+00 0.0000000000000000e+00  0.0000000000000000e+00 0.0000000000000000e+00 0.0000000000000000e+00  -7.3783135684121682e-06 -1.2036224259834110e-04 0.0000000000000000e+00  0.0000000000000000e+00 0.0000000000000000e+00 0.0000000000000000e+00  0.0000000000000000e+00 0.0000000000000000e+00 0.0000000000000000e+00  0.0000000000000000e+00 0.0000000000000000e+00 0.0000000000000000e+00  0.0000000000000000e+00 0.0000000000000000e+00 0.0000000000000000e+00  0.0000000000000000e+00 0.0000000000000000e+00 0.0000000000000000e+00  0.0000000000000000e+00 0.0000000000000000e+00 0.0000000000000000e+00  0.0000000000000000e+00 0.0000000000000000e+00 0.0000000000000000e+00  0.0000000000000000e+00 0.0000000000000000e+00 0.0000000000000000e+00  0.0000000000000000e+00 0.0000000000000000e+00 0.0000000000000000e+00  0.0000000000000000e+00 0.0000000000000000e+00 0.0000000000000000e+00  0.0000000000000000e+00 0.0000000000000000e+00 0.0000000000000000e+00  0.0000000000000000e+00 0.0000000000000000e+00 0.0000000000000000e+00  0.0000000000000000e+00 0.0000000000000000e+00 0.0000000000000000e+00  0.0000000000000000e+00 0.0000000000000000e+00 0.0000000000000000e+00  0.0000000000000000e+00 0.0000000000000000e+00 0.0000000000000000e+00  0.0000000000000000e+00 0.0000000000000000e+00 0.0000000000000000e+00  0.0000000000000000e+00 0.0000000000000000e+00 0.0000000000000000e+00  0.0000000000000000e+00 0.0000000000000000e+00 0.0000000000000000e+00  0.0000000000000000e+00 0.0000000000000000e+00 0.0000000000000000e+00  0.0000000000000000e+00 0.0000000000000000e+00 0.0000000000000000e+00  0.0000000000000000e+00 0.0000000000000000e+00 0.0000000000000000e+00  0.0000000000000000e+00 0.0000000000000000e+00 0.0000000000000000e+00  0.0000000000000000e+00 0.0000000000000000e+00 0.0000000000000000e+00  0.0000000000000000e+00 0.0000000000000000e+00 0.0000000000000000e+00  0.0000000000000000e+00 0.0000000000000000e+00 0.0000000000000000e+00  0.0000000000000000e+00 0.0000000000000000e+00 0.0000000000000000e+00  0.0000000000000000e+00 0.0000000000000000e+00 0.0000000000000000e+00  0.0000000000000000e+00 0.0000000000000000e+00 0.0000000000000000e+00  0.0000000000000000e+00 0.0000000000000000e+00 0.0000000000000000e+00  0.0000000000000000e+00 0.0000000000000000e+00 0.0000000000000000e+00  0.0000000000000000e+00 0.0000000000000000e+00 0.0000000000000000e+00  0.0000000000000000e+00 0.0000000000000000e+00 0.0000000000000000e+00  0.0000000000000000e+00 0.0000000000000000e+00 0.0000000000000000e+00  0.0000000000000000e+00 0.0000000000000000e+00 0.0000000000000000e+00  0.0000000000000000e+00 0.0000000000000000e+00 0.0000000000000000e+00  0.0000000000000000e+00 0.0000000000000000e+00 0.0000000000000000e+00  0.0000000000000000e+00 0.0000000000000000e+00 0.0000000000000000e+00  0.0000000000000000e+00 0.0000000000000000e+00 0.0000000000000000e+00  0.0000000000000000e+00 0.0000000000000000e+00 0.0000000000000000e+00  0.0000000000000000e+00 0.0000000000000000e+00 0.0000000000000000e+00  0.0000000000000000e+00 0.0000000000000000e+00 0.0000000000000000e+00  0.0000000000000000e+00 0.0000000000000000e+00 0.0000000000000000e+00  0.0000000000000000e+00 0.0000000000000000e+00 0.0000000000000000e+00  0.0000000000000000e+00 0.0000000000000000e+00 0.0000000000000000e+00  0.0000000000000000e+00 0.0000000000000000e+00 0.0000000000000000e+00  0.0000000000000000e+00 0.0000000000000000e+00 0.0000000000000000e+00  0.0000000000000000e+00 0.0000000000000000e+00 0.0000000000000000e+00  0.0000000000000000e+00 0.0000000000000000e+00 0.0000000000000000e+00  0.0000000000000000e+00 0.0000000000000000e+00 0.0000000000000000e+00  0.0000000000000000e+00 0.0000000000000000e+00 0.0000000000000000e+00  0.0000000000000000e+00 0.0000000000000000e+00 0.0000000000000000e+00  0.0000000000000000e+00 0.0000000000000000e+00 0.0000000000000000e+00  0.0000000000000000e+00 0.0000000000000000e+00 0.0000000000000000e+00  0.0000000000000000e+00 0.0000000000000000e+00 0.0000000000000000e+00  0.0000000000000000e+00 0.0000000000000000e+00 0.0000000000000000e+00  0.0000000000000000e+00 0.0000000000000000e+00 0.0000000000000000e+00  0.0000000000000000e+00 0.0000000000000000e+00 0.0000000000000000e+00  0.0000000000000000e+00 0.0000000000000000e+00 0.0000000000000000e+00  0.0000000000000000e+00 0.0000000000000000e+00 0.0000000000000000e+00  0.0000000000000000e+00 0.0000000000000000e+00 0.0000000000000000e+00  0.0000000000000000e+00 0.0000000000000000e+00 0.0000000000000000e+00  0.0000000000000000e+00 0.0000000000000000e+00 0.0000000000000000e+00  0.0000000000000000e+00 0.0000000000000000e+00 0.0000000000000000e+00  0.0000000000000000e+00 0.0000000000000000e+00 0.0000000000000000e+00  0.0000000000000000e+00 0.0000000000000000e+00 0.0000000000000000e+00  0.0000000000000000e+00 0.0000000000000000e+00 0.0000000000000000e+00  0.0000000000000000e+00 0.0000000000000000e+00 0.0000000000000000e+00  0.0000000000000000e+00 0.0000000000000000e+00 0.0000000000000000e+00  0.0000000000000000e+00 0.0000000000000000e+00 0.0000000000000000e+00  0.0000000000000000e+00 0.0000000000000000e+00 0.0000000000000000e+00  0.0000000000000000e+00 0.0000000000000000e+00 0.0000000000000000e+00  0.0000000000000000e+00 0.0000000000000000e+00 0.0000000000000000e+00  0.0000000000000000e+00 0.0000000000000000e+00 0.0000000000000000e+00  0.0000000000000000e+00 0.0000000000000000e+00 0.0000000000000000e+00  0.0000000000000000e+00 0.0000000000000000e+00 0.0000000000000000e+00  0.0000000000000000e+00 0.0000000000000000e+00 0.0000000000000000e+00  0.0000000000000000e+00 0.0000000000000000e+00 0.0000000000000000e+00  0.0000000000000000e+00 0.0000000000000000e+00 0.0000000000000000e+00  0.0000000000000000e+00 0.0000000000000000e+00 0.0000000000000000e+00  0.0000000000000000e+00 0.0000000000000000e+00 0.0000000000000000e+00  0.0000000000000000e+00 0.0000000000000000e+00 0.0000000000000000e+00  0.0000000000000000e+00 0.0000000000000000e+00 0.0000000000000000e+00  0.0000000000000000e+00 0.0000000000000000e+00 0.0000000000000000e+00  0.0000000000000000e+00 0.0000000000000000e+00 0.0000000000000000e+00  0.0000000000000000e+00 0.0000000000000000e+00 0.0000000000000000e+00  0.0000000000000000e+00 0.0000000000000000e+00 0.0000000000000000e+00  0.0000000000000000e+00 0.0000000000000000e+00 0.0000000000000000e+00  0.0000000000000000e+00 0.0000000000000000e+00 0.0000000000000000e+00  0.0000000000000000e+00 0.0000000000000000e+00 0.0000000000000000e+00  0.0000000000000000e+00 0.0000000000000000e+00 0.0000000000000000e+00  0.0000000000000000e+00 0.0000000000000000e+00 0.0000000000000000e+00  0.0000000000000000e+00 0.0000000000000000e+00 0.0000000000000000e+00  0.0000000000000000e+00 0.0000000000000000e+00 0.0000000000000000e+00  0.0000000000000000e+00 0.0000000000000000e+00 0.0000000000000000e+00  0.0000000000000000e+00 0.0000000000000000e+00 0.0000000000000000e+00  0.0000000000000000e+00 0.0000000000000000e+00 0.0000000000000000e+00  0.0000000000000000e+00 0.0000000000000000e+00 0.0000000000000000e+00  0.0000000000000000e+00 0.0000000000000000e+00 0.0000000000000000e+00  0.0000000000000000e+00 0.0000000000000000e+00 0.0000000000000000e+00  0.0000000000000000e+00 0.0000000000000000e+00 0.0000000000000000e+00  0.0000000000000000e+00 0.0000000000000000e+00 0.0000000000000000e+00  0.0000000000000000e+00 0.0000000000000000e+00 0.0000000000000000e+00  0.0000000000000000e+00 0.0000000000000000e+00 0.0000000000000000e+00  0.0000000000000000e+00 0.0000000000000000e+00 0.0000000000000000e+00  0.0000000000000000e+00 0.0000000000000000e+00 0.0000000000000000e+00  0.0000000000000000e+00 0.0000000000000000e+00 0.0000000000000000e+00  0.0000000000000000e+00 0.0000000000000000e+00 0.0000000000000000e+00  0.0000000000000000e+00 0.0000000000000000e+00 0.0000000000000000e+00  0.0000000000000000e+00 0.0000000000000000e+00 0.0000000000000000e+00  0.0000000000000000e+00 0.0000000000000000e+00 0.0000000000000000e+00  0.0000000000000000e+00 0.0000000000000000e+00 0.0000000000000000e+00  0.0000000000000000e+00 0.0000000000000000e+00 0.0000000000000000e+00  0.0000000000000000e+00 0.0000000000000000e+00 0.0000000000000000e+00  0.0000000000000000e+00 0.0000000000000000e+00 0.0000000000000000e+00  0.0000000000000000e+00 0.0000000000000000e+00 0.0000000000000000e+00  0.0000000000000000e+00 0.0000000000000000e+00 0.0000000000000000e+00  0.0000000000000000e+00 0.0000000000000000e+00 0.0000000000000000e+00  0.0000000000000000e+00 0.0000000000000000e+00 0.0000000000000000e+00  0.0000000000000000e+00 0.0000000000000000e+00 0.0000000000000000e+00  0.0000000000000000e+00 0.0000000000000000e+00 0.0000000000000000e+00  0.0000000000000000e+00 0.0000000000000000e+00 0.0000000000000000e+00  0.0000000000000000e+00 0.0000000000000000e+00 0.0000000000000000e+00  0.0000000000000000e+00 0.0000000000000000e+00 0.0000000000000000e+00  0.0000000000000000e+00 0.0000000000000000e+00 0.0000000000000000e+00  0.0000000000000000e+00 0.0000000000000000e+00 0.0000000000000000e+00  0.0000000000000000e+00 0.0000000000000000e+00 0.0000000000000000e+00  0.0000000000000000e+00 0.0000000000000000e+00 0.0000000000000000e+00  0.0000000000000000e+00 0.0000000000000000e+00 0.0000000000000000e+00  0.0000000000000000e+00 0.0000000000000000e+00 0.0000000000000000e+00  0.0000000000000000e+00 0.0000000000000000e+00 0.0000000000000000e+00  0.0000000000000000e+00 0.0000000000000000e+00 0.0000000000000000e+00  0.0000000000000000e+00 0.0000000000000000e+00 0.0000000000000000e+00  3.0519875123950426e-07 -2.5871201813162512e-06 0.0000000000000000e+00  7.1942401838017426e-07 -3.0593122678745054e-06 0.0000000000000000e+00  1.2271275317419355e-06 -3.5850294974208912e-06 0.0000000000000000e+00  1.8130682715912015e-06 -4.2324492520285923e-06 0.0000000000000000e+00  2.3676075553274879e-06 -5.0454187527431743e-06 0.0000000000000000e+00  2.9319422207271779e-06 -6.0629420533699492e-06 0.0000000000000000e+00  3.4298677038315579e-06 -7.2145568805990486e-06 0.0000000000000000e+00  3.8956366417567764e-06 -8.5460887770169666e-06 0.0000000000000000e+00  4.3750928996581044e-06 -1.0017909445567117e-05 0.0000000000000000e+00  4.7707518327472786e-06 -1.1624324147836018e-05 0.0000000000000000e+00  5.1824066052544604e-06 -1.3385578972422718e-05 0.0000000000000000e+00  5.5134487411143513e-06 -1.5262476228868725e-05 0.0000000000000000e+00  5.8455610081843427e-06 -1.7273309573452162e-05 0.0000000000000000e+00  6.1171324403790280e-06 -1.9385927679572549e-05 0.0000000000000000e+00  6.3525062220250710e-06 -2.1621148597978207e-05 0.0000000000000000e+00  6.5872638970116774e-06 -2.3956663087568180e-05 0.0000000000000000e+00  6.7518916705326187e-06 -2.6376834770956291e-05 0.0000000000000000e+00  6.9141779375139818e-06 -2.8907811552591289e-05 0.0000000000000000e+00  7.0121041248256008e-06 -3.1504417910321260e-05 0.0000000000000000e+00  7.1032429689595927e-06 -3.4197038272691722e-05 0.0000000000000000e+00  7.1406467879447326e-06 -3.6948141056761838e-05 0.0000000000000000e+00  7.1573398769211402e-06 -3.9780906868344913e-05 0.0000000000000000e+00  7.1324338562615507e-06 -4.2666083079277549e-05 0.0000000000000000e+00  7.0722526479183115e-06 -4.5616177951719751e-05 0.0000000000000000e+00  6.9998829854000783e-06 -4.8618764010381003e-05 0.0000000000000000e+00  6.8803362531434824e-06 -5.1662776018653912e-05 0.0000000000000000e+00  6.7331685045986840e-06 -5.4771041359623193e-05 0.0000000000000000e+00  6.5505676211657370e-06 -5.7900750466213619e-05 0.0000000000000000e+00  6.3400047591349699e-06 -6.1087305401340576e-05 0.0000000000000000e+00  6.0956822654485559e-06 -6.4290045592097070e-05 0.0000000000000000e+00  5.8231990676378197e-06 -6.7541688677970075e-05 0.0000000000000000e+00  5.5173048838778723e-06 -7.0802834223436333e-05 0.0000000000000000e+00  5.1841610861952741e-06 -7.4107061435983403e-05 0.0000000000000000e+00  4.8175870363257894e-06 -7.7413397053101320e-05 0.0000000000000000e+00  4.4218212509610601e-06 -8.0759149235114938e-05 0.0000000000000000e+00  3.9950210887045037e-06 -8.4102998791409770e-05 0.0000000000000000e+00  3.5401758975963096e-06 -8.7479668893998655e-05 0.0000000000000000e+00  3.0545532240741544e-06 -9.0850837814225317e-05 0.0000000000000000e+00  2.5396233422436083e-06 -9.4250579985984140e-05 0.0000000000000000e+00  1.9930441913774401e-06 -9.7641410709208704e-05 0.0000000000000000e+00  1.4133487814908203e-06 -1.0105120096693016e-04 0.0000000000000000e+00  8.0958950331354352e-07 -1.0445946998684332e-04 0.0000000000000000e+00  1.7062006057200655e-07 -1.0787531461724063e-04 0.0000000000000000e+00  -4.8591961035555093e-07 -1.1129324812789535e-04 0.0000000000000000e+00  -1.1779149937233044e-06 -1.1470356024654027e-04 0.0000000000000000e+00  -1.8824046478071849e-06 -1.1813880510646023e-04 0.0000000000000000e+00  -5.0321944028250538e-06 -1.2102072301894223e-04 0.0000000000000000e+00  -9.6682872200980839e-06 -1.1970603489423152e-04 0.0000000000000000e+00  -1.1161709203672890e-05 -1.1565401088298344e-04 0.0000000000000000e+00  -1.0444805661636093e-05 -1.1216003897006823e-04 0.0000000000000000e+00  -9.7426417355312675e-06 -1.0865337994958172e-04 0.0000000000000000e+00  -9.0718609499463298e-06 -1.0516166317747132e-04 0.0000000000000000e+00  -8.4197314701945381e-06 -1.0167378554799095e-04 0.0000000000000000e+00  -7.8015453958239625e-06 -9.8192177358929122e-05 0.0000000000000000e+00  -7.2020713519125636e-06 -9.4720888034919350e-05 0.0000000000000000e+00  -6.6350476707376898e-06 -9.1247533160742066e-05 0.0000000000000000e+00  -6.0901443849991690e-06 -8.7798839645970755e-05 0.0000000000000000e+00  -5.5741651723532130e-06 -8.4344225486387623e-05 0.0000000000000000e+00  -5.0782107866430004e-06 -8.0918862043251615e-05 0.0000000000000000e+00  -4.6120622141927718e-06 -7.7491918934910662e-05 0.0000000000000000e+00  -4.1637856347369805e-06 -7.4098632978784480e-05 0.0000000000000000e+00  -3.7456065262895772e-06 -7.0708986888464465e-05 0.0000000000000000e+00  -3.3425406880898367e-06 -6.7357420478286222e-05 0.0000000000000000e+00  -2.9710807168485866e-06 -6.4014795136388129e-05 0.0000000000000000e+00  -2.6123619178044301e-06 -6.0715549702201100e-05 0.0000000000000000e+00  -2.2868764657668614e-06 -5.7431478936201556e-05 0.0000000000000000e+00  -1.9710904786620444e-06 -5.4197908363939937e-05 0.0000000000000000e+00  -1.6900284508343668e-06 -5.0987118571817598e-05 0.0000000000000000e+00  -1.4150817211350076e-06 -4.7833658335840311e-05 0.0000000000000000e+00  -1.1770100008109262e-06 -4.4711677931528446e-05 0.0000000000000000e+00  -9.4644164997120930e-07 -4.1649829831044355e-05 0.0000000000000000e+00  -7.4525534140979007e-07 -3.8633544110433210e-05 0.0000000000000000e+00  -5.7025906946771141e-07 -3.5686761390851372e-05 0.0000000000000000e+00  -3.9242466543746504e-07 -3.2793168375208235e-05 0.0000000000000000e+00  -2.5034382202914593e-07 -2.9967384575479040e-05 0.0000000000000000e+00  -1.1796861119212425e-07 -2.7226655024247946e-05 0.0000000000000000e+00  -1.3436505638966403e-08 -2.4551609807015531e-05 0.0000000000000000e+00  8.0614541182167366e-08 -2.1975886081307556e-05 0.0000000000000000e+00  1.4740216212199182e-07 -1.9473749046669490e-05 0.0000000000000000e+00  2.1228551908779573e-07 -1.7090596954706723e-05 0.0000000000000000e+00  2.4152344641540678e-07 -1.4788214369602298e-05 0.0000000000000000e+00  2.4759827993595724e-07 -1.2617736983193649e-05 0.0000000000000000e+00  2.7029890276327951e-07 -1.0540410956588989e-05 0.0000000000000000e+00  2.5393604573746882e-07 -8.5959124368481010e-06 0.0000000000000000e+00  2.3424863306737571e-07 -6.7910178553500372e-06 0.0000000000000000e+00  1.8494912067468303e-07 -5.1095934734211563e-06 0.0000000000000000e+00  1.4587220245090811e-07 -3.5965689261909324e-06 0.0000000000000000e+00  6.3207600949291063e-08 -2.2086215807214665e-06 0.0000000000000000e+00  -3.8937787244176037e-08 -1.0084134814980497e-06 0.0000000000000000e+00  -1.0719891984395903e-07 5.4395483127931764e-08 0.0000000000000000e+00  -2.1968512428746591e-07 9.4765449922965970e-07 0.0000000000000000e+00  -2.7584112583223906e-07 1.6494033757736775e-06 0.0000000000000000e+00  -3.1000696986352158e-07 2.0849690093960176e-06 0.0000000000000000e+00  -1.8508410915761035e-07 2.1876954930594680e-06 0.0000000000000000e+00  -3.1642676523458016e-07 -2.1900311025986475e-07 0.0000000000000000e+00  -6.1735535622989242e-06 -1.1516836309570684e-04 0.0000000000000000e+00  -4.7651005047703710e-06 -1.0856755128002004e-04 0.0000000000000000e+00  -2.8452548203454642e-06 -9.7789006309987047e-05 0.0000000000000000e+00  6.0982667509525474e-07 -1.1623760419661159e-06 0.0000000000000000e+00  -1.8067745993717523e-06 -9.1028720135856203e-05 0.0000000000000000e+00  1.2373352318486914e-06 -2.7610823873127566e-06 0.0000000000000000e+00  -8.0264538004430250e-07 -8.4200366179004504e-05 0.0000000000000000e+00  2.1169007616330704e-06 -6.7296487176984408e-06 0.0000000000000000e+00  2.5895840552916131e-06 -9.9958852555905343e-06 0.0000000000000000e+00  9.2623904572189409e-08 -7.7426611515677817e-05 0.0000000000000000e+00  3.2679854715599220e-06 -2.0525566258498978e-05 0.0000000000000000e+00  1.5607859628289275e-06 -6.4117297662634581e-05 0.0000000000000000e+00  2.9068607898636331e-06 -1.3630022750874088e-05 0.0000000000000000e+00  3.4113986791549346e-06 -2.5384791978632906e-05 0.0000000000000000e+00  2.1352622746943835e-06 -5.7626102640373191e-05 0.0000000000000000e+00  8.8017912899256310e-07 -7.0725303143161775e-05 0.0000000000000000e+00  3.4157747227244397e-06 -3.0663332262173525e-05 0.0000000000000000e+00  2.6036357500374340e-06 -5.1279739996702662e-05 0.0000000000000000e+00  3.2743948837350151e-06 -3.5989567781628182e-05 0.0000000000000000e+00  3.0151274101076065e-06 -4.5258100360934250e-05 0.0000000000000000e+00  3.1716694782249382e-06 -4.0378978295247083e-05 0.0000000000000000e+00  3.1448511108847061e-06 -1.6845815793576564e-05 0.0000000000000000e+00  -3.9018848219864094e-06 -1.0336334367387009e-04 0.0000000000000000e+00  1.6967081614382998e-06 -4.5311629092956678e-06 0.0000000000000000e+00  -7.0719828458505326e-06 -1.1139367688373237e-04 0.0000000000000000e+00  -2.9910627899474000e-08 3.7599341447415117e-07 0.0000000000000000e+00  -2.6183937930797732e-06 -8.7160088153161717e-05 0.0000000000000000e+00  -3.6848832299308419e-06 -9.4028195568365025e-05 0.0000000000000000e+00  1.3449925289793008e-06 -2.8516813264987838e-06 0.0000000000000000e+00  3.0086804340724205e-06 -8.9976892917324146e-06 0.0000000000000000e+00  -4.9517848171488224e-08 -6.6903820859352380e-05 0.0000000000000000e+00  -1.6578230647497038e-06 -8.0338107984376570e-05 0.0000000000000000e+00  4.3252901134822759e-06 -2.3527177856688379e-05 0.0000000000000000e+00  6.0129935864326685e-07 -6.0332705791540430e-05 0.0000000000000000e+00  3.5196940757229136e-06 -1.2550612342584691e-05 0.0000000000000000e+00  4.4471207850665612e-06 -2.8618917091432664e-05 0.0000000000000000e+00  1.1510755559304115e-06 -5.3892277066962375e-05 0.0000000000000000e+00  -8.0218931638042771e-07 -7.3579472913755744e-05 0.0000000000000000e+00  4.6980080695121891e-06 -3.4141495784963509e-05 0.0000000000000000e+00  1.6010586803944775e-06 -4.7611786406089379e-05 0.0000000000000000e+00  -3.9322910982208918e-07 -6.1959772885130219e-07 0.0000000000000000e+00  -4.6759515067167379e-07 4.8214451075250524e-07 0.0000000000000000e+00  -5.7029047483289884e-06 -1.1818239309069513e-04 0.0000000000000000e+00  4.6347736773618010e-07 -