<?xml version="1.0"?>
<VTKFile type="UnstructuredGrid"  version="0.1"  >
<UnstructuredGrid>
<Piece  NumberOfPoints="1419" NumberOfCells="2698">
<Points>
<DataArray  type="Float64"  NumberOfComponents="3"  format="ascii">0 0 0  0 0.41 0  2.5 0 0  2.5 0.41 0  0.6 0.19 0  0.6 0.21 0  0.25 0.2 0  0.15 0.2 0  0.2489897948556636 0.21 0  0.2489897948556636 0.19 0  0.6 0.2 0  0 0.3807142857143437 0  0 0.3514285714286952 0  0 0.3221428571430699 0  0 0.29285714285744 0  0 0.2635714285718054 0  0 0.2342857142861561 0  0 0.2050000000005308 0  0 0.175714285714732 0  0 0.1464285714289574 0  0 0.1171428571431897 0  0 0.08785714285737878 0  0 0.05857142857161107 0  0 0.02928571428580012 0  0.03015443760436003 0 0  0.06140001986583606 0 0  0.09377624077125973 0 0  0.1273239957535082 0 0  0.1620856860351972 0 0  0.1981052433264291 0 0  0.235428184091502 0 0  0.2741016576309132 0 0  0.3141745521465447 0 0  0.3556974926295285 0 0  0.3987229542472677 0 0  0.4433053055141081 0 0  0.4895008759286886 0 0  0.5373680609405097 0 0  0.5869673343216626 0 0  0.6383613676634521 0 0  0.6916151138468254 0 0  0.7467958595648856 0 0  0.8039733463919316 0 0  0.8632198139502143 0 0  0.9246101326867038 0 0  0.9882218810934433 0 0  1.054135445558498 0 0  1.122434100542598 0 0  1.193204177141305 0 0  1.266535089879536 0 0  1.342519516046404 0 0  1.421253448503939 0 0  1.502836389106271 0 0  1.587371439758838 0 0  1.674965418777374 0 0  1.765729001825544 0 0  1.859776908880082 0 0  1.957227977487062 0 0  2.058205329869943 0 0  2.162836591189951 0 0  2.271253957290865 0 0  2.383594446803425 0 0  2.5 0.1024999999997612 0  2.5 0.2049999999994743 0  2.5 0.3074999999997183 0  2.383594446803656 0.41 0  2.271253957291315 0.41 0  2.162836591190598 0.41 0  2.058205329870775 0.41 0  1.957227977488067 0.41 0  1.859776908881246 0.41 0  1.765729001826854 0.41 0  1.674965418778818 0.41 0  1.58737143976041 0.41 0  1.502836389107956 0.41 0  1.421253448505726 0.41 0  1.342519516048286 0.41 0  1.266535089881505 0.41 0  1.193204177143353 0.41 0  1.122434100544716 0.41 0  1.05413544556068 0.41 0  0.9882218810956305 0.41 0  0.9246101326886647 0.41 0  0.8632198139519631 0.41 0  0.8039733463934788 0.41 0  0.7467958595662458 0.41 0  0.6916151138480078 0.41 0  0.6383613676644679 0.41 0  0.5869673343225223 0.41 0  0.5373680609412221 0.41 0  0.4895008759292634 0.41 0  0.4433053055145528 0.41 0  0.3987229542475914 0.41 0  0.3556974926297398 0.41 0  0.3141745521466497 0.41 0  0.2741016576310038 0.41 0  0.2354281840915826 0.41 0  0.1981052433265003 0.41 0  0.1620856860352591 0.41 0  0.1273239957535623 0.41 0  0.09377624077128965 0.41 0  0.06140001986584975 0.41 0  0.03015443760436654 0.41 0  0.2497468076502589 0.2050254481002335 0  0.2497468076502614 0.1949745518997913 0  0.2469965252529372 0.1829317073451959 0  0.2439893735792749 0.1762316384219906 0  0.2400332147834255 0.1700443375285386 0  0.2352133972704371 0.1645032867342007 0  0.2296339016332438 0.1597280261969788 0  0.2234150974217223 0.1558215752574715 0  0.2166911463437691 0.1528682099456123 0  0.2096071079204251 0.1509316448471593 0  0.2023158100364996 0.1500536585536553 0  0.194974551899914 0.1502531923497262 0  0.1877417105387872 0.1515259415822739 0  0.1807733240461124 0.153844448527136 0  0.1742197252835808 0.15715869474974 0  0.1682222986673531 0.1613971801805478 0  0.162910430003803 0.1664684656256651 0  0.1583987151779087 0.1722631454351573 0  0.1547844879126891 0.178656207771761 0  0.1521457199348551 0.1855097315605723 0  0.1505393388476355 0.1926758619366523 0  0.1505393388476328 0.2073241380633295 0  0.1521457199348437 0.2144902684393899 0  0.1547844879126531 0.221343792228163 0  0.1583987151778488 0.2277368545647528 0  0.1629104300036858 0.2335315343742052 0  0.1682222986671726 0.2386028198193036 0  0.1742197252833576 0.2428413052501257 0  0.1807733240458683 0.2461555514727623 0  0.1877417105384929 0.2484740584176516 0  0.1949745518995776 0.2497468076502398 0  0.202315810036185 0.2499463414463592 0  0.2096071079201568 0.2490683551528932 0  0.2166911463435495 0.2471317900544655 0  0.2234150974215506 0.2441784247426195 0  0.2296339016331197 0.2402719738031125 0  0.2352133972703547 0.2354967132658811 0  0.2400332147833751 0.2299556624715287 0  0.2439893735792577 0.2237683615780412 0  0.246996525252926 0.2170682926548348 0  0.25645809709277 0.21 0  0.2639263993298655 0.21 0  0.271394701566961 0.21 0  0.2788630038040554 0.21 0  0.2863313060411479 0.21 0  0.2937996082782405 0.21 0  0.301267910515333 0.21 0  0.3087362127524279 0.21 0  0.3162045149895234 0.21 0  0.3236728172265972 0.21 0  0.3311411194636928 0.21 0  0.3386094217007701 0.21 0  0.3460777239378666 0.21 0  0.3535460261749672 0.21 0  0.3610143284120516 0.21 0  0.3684826306491596 0.21 0  0.3759509328862226 0.21 0  0.383419235123329 0.21 0  0.3908875373604028 0.21 0  0.3983558395975142 0.21 0  0.4058241418345938 0.21 0  0.4132924440716992 0.21 0  0.4207607463087888 0.21 0  0.4282290485459029 0.21 0  0.4356973507830418 0.21 0  0.4431656530201649 0.21 0  0.4506339552573136 0.21 0  0.4581022574944306 0.21 0  0.4655705597315852 0.21 0  0.4730388619686996 0.21 0  0.480507164205851 0.21 0  0.4879754664429498 0.21 0  0.4954437686800938 0.21 0  0.502912070917267 0.21 0  0.5103803731544119 0.21 0  0.5178486753915261 0.21 0  0.5253169776286404 0.21 0  0.5327852798657868 0.21 0  0.5402535821029386 0.21 0  0.54772188434007 0.21 0  0.5551901865771842 0.21 0  0.5626584888143201 0.21 0  0.5701267910514778 0.21 0  0.5775950932886138 0.21 0  0.5850633955257281 0.21 0  0.5925316977628483 0.21 0  0.6 0.2050000000000054 0  0.6 0.1950000000000217 0  0.5925316977628897 0.19 0  0.5850633955257988 0.19 0  0.5775950932887378 0.19 0  0.5701267910515998 0.19 0  0.5626584888145268 0.19 0  0.5551901865773963 0.19 0  0.547721884340339 0.19 0  0.5402535821032429 0.19 0  0.5327852798661811 0.19 0  0.5253169776290537 0.19 0  0.5178486753919799 0.19 0  0.5103803731549078 0.19 0  0.502912070917822 0.19 0  0.4954437686807294 0.19 0  0.4879754664436223 0.19 0  0.4805071642065402 0.19 0  0.4730388619694271 0.19 0  0.4655705597323621 0.19 0  0.4581022574952563 0.19 0  0.4506339552581777 0.19 0  0.4431656530210671 0.19 0  0.4356973507839815 0.19 0  0.4282290485468779 0.19 0  0.4207607463097617 0.19 0  0.4132924440726327 0.19 0  0.4058241418354857 0.19 0  0.3983558395983636 0.19 0  0.3908875373612097 0.19 0  0.3834192351240934 0.19 0  0.3759509328869369 0.19 0  0.3684826306498175 0.19 0  0.361014328412667 0.19 0  0.3535460261755617 0.19 0  0.3460777239384295 0.19 0  0.3386094217012945 0.19 0  0.3311411194641595 0.19 0  0.3236728172270245 0.19 0  0.3162045149898895 0.19 0  0.3087362127527544 0.19 0  0.3012679105156187 0.19 0  0.2937996082784807 0.19 0  0.2863313060413428 0.19 0  0.2788630038042048 0.19 0  0.2713947015670686 0.19 0  0.2639263993299336 0.19 0  0.2564580970927985 0.19 0  0.2607803159922026 0.2000727136295815 0  0.5887803774232762 0.2001272386983733 0  0.5745072403740523 0.2002044435018727 0  0.5511891430099709 0.2001122610077113 0  0.2751288526855082 0.20000000000002 0  0.5365194309847112 0.1999999999999436 0  0.2894621222999649 0.1998691686390484 0  0.5215828265105155 0.1999999999999228 0  0.3127789816668748 0.1998657885438805 0  0.3274069683451451 0.2000000000000796 0  0.5066462220363641 0.199999999999908 0  0.3650630746574081 0.199866017807523 0  0.476773013087985 0.1999999999998713 0  0.3417402379596385 0.1998691686391011 0  0.3796850840047755 0.200000000000134 0  0.4618364086138087 0.1999999999998546 0  0.4917096175621762 0.1999999999998808 0  0.3946216884789568 0.2000000000001512 0  0.446899804139621 0.1999999999998389 0  0.4089549580935208 0.1998691686391595 0  0.4322718174608562 0.200127451265745 0  0.4201487168029707 0.1999966199048527 0  0.3528922713220932 0.2000185703532356 0  0.5633122436674589 0.1999814296467508 0  0.3006558810093873 0.1999966199048318 0  0.5815926498168407 0.1966545283159175 0  0.2677053789419034 0.1964246479135325 0  0.5290511287476175 0.1970915826863981 0  0.5439877332217911 0.197091582686394 0  0.2825131256993216 0.2035478995978015 0  0.3199386661080599 0.202908417313604 0  0.4842413153250809 0.1970915826863873 0  0.5141145242734466 0.1970915826863843 0  0.3722167817676917 0.2029084173136195 0  0.4693047108508938 0.1970915826863783 0  0.3348752705822316 0.202908417313609 0  0.3871533862418661 0.2029084173136212 0  0.4543681063767183 0.1970915826863795 0  0.4991779197992749 0.1970915826863902 0  0.4020059614928624 0.203547899597858 0  0.4394315019025246 0.1970915826863714 0  0.2550657455369551 0.2034088125358657 0  0.2548908499171161 0.1966940311614271 0  0.5946539510196798 0.2024302972968126 0  0.267698176732111 0.2039977513680092 0  0.4261685417851465 0.196409292431739 0  0.3590076176283495 0.196411355804271 0  0.5571672426447437 0.2036011176410121 0  0.3066757059912147 0.1964092924317024 0  0.594380730180568 0.1966558399668133 0  0.4842413153245942 0.2040749161535287 0  0.4693047108503577 0.2040749161535231 0  0.3871533862424271 0.1959250838464788 0  0.372246743208829 0.1959123236376545 0  0.5141145242731028 0.2040749161535395 0  0.4543681063761134 0.2040749161535186 0  0.4019979587101454 0.1959834479682427 0  0.4394608940728603 0.2040870543693135 0  0.5439623148931173 0.2040856076781014 0  0.5290511287473298 0.2040749161535501 0  0.4991779197988497 0.2040749161535382 0  0.3347912413592433 0.1959225448935183 0  0.3199680582793816 0.1959123018030061 0  0.2825051229162361 0.1959834479681729 0  0.3590471196690275 0.2036304442587945 0  0.5571594006495384 0.1963685282145804 0  0.3067669986803285 0.203627750582736 0  0.4262598344738712 0.2036568242185335 0  0.5814408164431408 0.2041285596160068 0  0.5688286748170428 0.1961819304477386 0  0.4145905603063645 0.2038180695522843 0  0.3473758401724931 0.2038180695522752 0  0.2950977245128307 0.2038180695522663 0  0.5688286748170693 0.203818069552238 0  0.2950977245127906 0.1961819304477774 0  0.3473758401723931 0.1961819304478349 0  0.4145905603061963 0.1961819304479011 0  0.2601812407614425 0.2056861609747042
[...]
<PointData  Vectors="f_40-1"> 
<DataArray  type="Float64"  Name="f_40-1"  NumberOfComponents="3" format="ascii">0.0000000000000000e+00 0.0000000000000000e+00 0.0000000000000000e+00  0.0000000000000000e+00 0.0000000000000000e+00 0.0000000000000000e+00  0.0000000000000000e+00 0.0000000000000000e+00 0.0000000000000000e+00  0.0000000000000000e+00 0.0000000000000000e+00 0.0000000000000000e+00  -5.0979206322655527e-06 -1.4521793726032782e-06 0.0000000000000000e+00  -4.9520499465793196e-06 -2.0237474569772617e-06 0.0000000000000000e+00  0.0000000000000000e+00 0.0000000000000000e+00 0.0000000000000000e+00  0.0000000000000000e+00 0.0000000000000000e+00 0.0000000000000000e+00  0.0000000000000000e+00 0.0000000000000000e+00 0.0000000000000000e+00  0.0000000000000000e+00 0.0000000000000000e+00 0.0000000000000000e+00  -5.0391389856609093e-06 -1.7377525565853275e-06 0.0000000000000000e+00  0.0000000000000000e+00 0.0000000000000000e+00 0.0000000000000000e+00  0.0000000000000000e+00 0.0000000000000000e+00 0.0000000000000000e+00  0.0000000000000000e+00 0.0000000000000000e+00 0.0000000000000000e+00  0.0000000000000000e+00 0.0000000000000000e+00 0.0000000000000000e+00  0.0000000000000000e+00 0.0000000000000000e+00 0.0000000000000000e+00  0.0000000000000000e+00 0.0000000000000000e+00 0.0000000000000000e+00  0.0000000000000000e+00 0.0000000000000000e+00 0.0000000000000000e+00  0.0000000000000000e+00 0.0000000000000000e+00 0.0000000000000000e+00  0.0000000000000000e+00 0.0000000000000000e+00 0.0000000000000000e+00  0.0000000000000000e+00 0.0000000000000000e+00 0.0000000000000000e+00  0.0000000000000000e+00 0.0000000000000000e+00 0.0000000000000000e+00  0.0000000000000000e+00 0.0000000000000000e+00 0.0000000000000000e+00  0.0000000000000000e+00 0.0000000000000000e+00 0.0000000000000000e+00  0.0000000000000000e+00 0.0000000000000000e+00 0.0000000000000000e+00  0.0000000000000000e+00 0.0000000000000000e+00 0.0000000000000000e+00  0.0000000000000000e+00 0.0000000000000000e+00 0.0000000000000000e+00  0.0000000000000000e+00 0.0000000000000000e+00 0.0000000000000000e+00  0.0000000000000000e+00 0.0000000000000000e+00 0.0000000000000000e+00  0.0000000000000000e+00 0.0000000000000000e+00 0.0000000000000000e+00  0.0000000000000000e+00 0.0000000000000000e+00 0.0000000000000000e+00  0.0000000000000000e+00 0.0000000000000000e+00 0.0000000000000000e+00  0.0000000000000000e+00 0.0000000000000000e+00 0.0000000000000000e+00  0.0000000000000000e+00 0.0000000000000000e+00 0.0000000000000000e+00  0.0000000000000000e+00 0.0000000000000000e+00 0.0000000000000000e+00  0.0000000000000000e+00 0.0000000000000000e+00 0.0000000000000000e+00  0.0000000000000000e+00 0.0000000000000000e+00 0.0000000000000000e+00  0.0000000000000000e+00 0.0000000000000000e+00 0.0000000000000000e+00  0.0000000000000000e+00 0.0000000000000000e+00 0.0000000000000000e+00  0.0000000000000000e+00 0.0000000000000000e+00 0.0000000000000000e+00  0.0000000000000000e+00 0.0000000000000000e+00 0.0000000000000000e+00  0.0000000000000000e+00 0.0000000000000000e+00 0.0000000000000000e+00  0.0000000000000000e+00 0.0000000000000000e+00 0.0000000000000000e+00  0.0000000000000000e+00 0.0000000000000000e+00 0.0000000000000000e+00  0.0000000000000000e+00 0.0000000000000000e+00 0.0000000000000000e+00  0.0000000000000000e+00 0.0000000000000000e+00 0.0000000000000000e+00  0.0000000000000000e+00 0.0000000000000000e+00 0.0000000000000000e+00  0.0000000000000000e+00 0.0000000000000000e+00 0.0000000000000000e+00  0.0000000000000000e+00 0.0000000000000000e+00 0.0000000000000000e+00  0.0000000000000000e+00 0.0000000000000000e+00 0.0000000000000000e+00  0.0000000000000000e+00 0.0000000000000000e+00 0.0000000000000000e+00  0.0000000000000000e+00 0.0000000000000000e+00 0.0000000000000000e+00  0.0000000000000000e+00 0.0000000000000000e+00 0.0000000000000000e+00  0.0000000000000000e+00 0.0000000000000000e+00 0.0000000000000000e+00  0.0000000000000000e+00 0.0000000000000000e+00 0.0000000000000000e+00  0.0000000000000000e+00 0.0000000000000000e+00 0.0000000000000000e+00  0.0000000000000000e+00 0.0000000000000000e+00 0.0000000000000000e+00  0.0000000000000000e+00 0.0000000000000000e+00 0.0000000000000000e+00  0.0000000000000000e+00 0.0000000000000000e+00 0.0000000000000000e+00  0.0000000000000000e+00 0.0000000000000000e+00 0.0000000000000000e+00  0.0000000000000000e+00 0.0000000000000000e+00 0.0000000000000000e+00  0.0000000000000000e+00 0.0000000000000000e+00 0.0000000000000000e+00  0.0000000000000000e+00 0.0000000000000000e+00 0.0000000000000000e+00  0.0000000000000000e+00 0.0000000000000000e+00 0.0000000000000000e+00  0.0000000000000000e+00 0.0000000000000000e+00 0.0000000000000000e+00  0.0000000000000000e+00 0.0000000000000000e+00 0.0000000000000000e+00  0.0000000000000000e+00 0.0000000000000000e+00 0.0000000000000000e+00  0.0000000000000000e+00 0.0000000000000000e+00 0.0000000000000000e+00  0.0000000000000000e+00 0.0000000000000000e+00 0.0000000000000000e+00  0.0000000000000000e+00 0.0000000000000000e+00 0.0000000000000000e+00  0.0000000000000000e+00 0.0000000000000000e+00 0.0000000000000000e+00  0.0000000000000000e+00 0.0000000000000000e+00 0.0000000000000000e+00  0.0000000000000000e+00 0.0000000000000000e+00 0.0000000000000000e+00  0.0000000000000000e+00 0.0000000000000000e+00 0.0000000000000000e+00  0.0000000000000000e+00 0.0000000000000000e+00 0.0000000000000000e+00  0.0000000000000000e+00 0.0000000000000000e+00 0.0000000000000000e+00  0.0000000000000000e+00 0.0000000000000000e+00 0.0000000000000000e+00  0.0000000000000000e+00 0.0000000000000000e+00 0.0000000000000000e+00  0.0000000000000000e+00 0.0000000000000000e+00 0.0000000000000000e+00  0.0000000000000000e+00 0.0000000000000000e+00 0.0000000000000000e+00  0.0000000000000000e+00 0.0000000000000000e+00 0.0000000000000000e+00  0.0000000000000000e+00 0.0000000000000000e+00 0.0000000000000000e+00  0.0000000000000000e+00 0.0000000000000000e+00 0.0000000000000000e+00  0.0000000000000000e+00 0.0000000000000000e+00 0.0000000000000000e+00  0.0000000000000000e+00 0.0000000000000000e+00 0.0000000000000000e+00  0.0000000000000000e+00 0.0000000000000000e+00 0.0000000000000000e+00  0.0000000000000000e+00 0.0000000000000000e+00 0.0000000000000000e+00  0.0000000000000000e+00 0.0000000000000000e+00 0.0000000000000000e+00  0.0000000000000000e+00 0.0000000000000000e+00 0.0000000000000000e+00  0.0000000000000000e+00 0.0000000000000000e+00 0.0000000000000000e+00  0.0000000000000000e+00 0.0000000000000000e+00 0.0000000000000000e+00  0.0000000000000000e+00 0.0000000000000000e+00 0.0000000000000000e+00  0.0000000000000000e+00 0.0000000000000000e+00 0.0000000000000000e+00  0.0000000000000000e+00 0.0000000000000000e+00 0.0000000000000000e+00  0.0000000000000000e+00 0.0000000000000000e+00 0.0000000000000000e+00  0.0000000000000000e+00 0.0000000000000000e+00 0.0000000000000000e+00  0.0000000000000000e+00 0.0000000000000000e+00 0.0000000000000000e+00  0.0000000000000000e+00 0.0000000000000000e+00 0.0000000000000000e+00  0.0000000000000000e+00 0.0000000000000000e+00 0.0000000000000000e+00  0.0000000000000000e+00 0.0000000000000000e+00 0.0000000000000000e+00  0.0000000000000000e+00 0.0000000000000000e+00 0.0000000000000000e+00  0.0000000000000000e+00 0.0000000000000000e+00 0.0000000000000000e+00  0.0000000000000000e+00 0.0000000000000000e+00 0.0000000000000000e+00  0.0000000000000000e+00 0.0000000000000000e+00 0.0000000000000000e+00  0.0000000000000000e+00 0.0000000000000000e+00 0.0000000000000000e+00  0.0000000000000000e+00 0.0000000000000000e+00 0.0000000000000000e+00  0.0000000000000000e+00 0.0000000000000000e+00 0.0000000000000000e+00  0.0000000000000000e+00 0.0000000000000000e+00 0.0000000000000000e+00  0.0000000000000000e+00 0.0000000000000000e+00 0.0000000000000000e+00  0.0000000000000000e+00 0.0000000000000000e+00 0.0000000000000000e+00  0.0000000000000000e+00 0.0000000000000000e+00 0.0000000000000000e+00  0.0000000000000000e+00 0.0000000000000000e+00 0.0000000000000000e+00  0.0000000000000000e+00 0.0000000000000000e+00 0.0000000000000000e+00  0.0000000000000000e+00 0.0000000000000000e+00 0.0000000000000000e+00  0.0000000000000000e+00 0.0000000000000000e+00 0.0000000000000000e+00  0.0000000000000000e+00 0.0000000000000000e+00 0.0000000000000000e+00  0.0000000000000000e+00 0.0000000000000000e+00 0.0000000000000000e+00  0.0000000000000000e+00 0.0000000000000000e+00 0.0000000000000000e+00  0.0000000000000000e+00 0.0000000000000000e+00 0.0000000000000000e+00  0.0000000000000000e+00 0.0000000000000000e+00 0.0000000000000000e+00  0.0000000000000000e+00 0.0000000000000000e+00 0.0000000000000000e+00  0.0000000000000000e+00 0.0000000000000000e+00 0.0000000000000000e+00  0.0000000000000000e+00 0.0000000000000000e+00 0.0000000000000000e+00  0.0000000000000000e+00 0.0000000000000000e+00 0.0000000000000000e+00  0.0000000000000000e+00 0.0000000000000000e+00 0.0000000000000000e+00  0.0000000000000000e+00 0.0000000000000000e+00 0.0000000000000000e+00  0.0000000000000000e+00 0.0000000000000000e+00 0.0000000000000000e+00  0.0000000000000000e+00 0.0000000000000000e+00 0.0000000000000000e+00  0.0000000000000000e+00 0.0000000000000000e+00 0.0000000000000000e+00  0.0000000000000000e+00 0.0000000000000000e+00 0.0000000000000000e+00  0.0000000000000000e+00 0.0000000000000000e+00 0.0000000000000000e+00  0.0000000000000000e+00 0.0000000000000000e+00 0.0000000000000000e+00  0.0000000000000000e+00 0.0000000000000000e+00 0.0000000000000000e+00  0.0000000000000000e+00 0.0000000000000000e+00 0.0000000000000000e+00  0.0000000000000000e+00 0.0000000000000000e+00 0.0000000000000000e+00  0.0000000000000000e+00 0.0000000000000000e+00 0.0000000000000000e+00  0.0000000000000000e+00 0.0000000000000000e+00 0.0000000000000000e+00  0.0000000000000000e+00 0.0000000000000000e+00 0.0000000000000000e+00  0.0000000000000000e+00 0.0000000000000000e+00 0.0000000000000000e+00  0.0000000000000000e+00 0.0000000000000000e+00 0.0000000000000000e+00  0.0000000000000000e+00 0.0000000000000000e+00 0.0000000000000000e+00  0.0000000000000000e+00 0.0000000000000000e+00 0.0000000000000000e+00  0.0000000000000000e+00 0.0000000000000000e+00 0.0000000000000000e+00  -8.0089715706052449e-08 -4.5959795432542318e-07 0.0000000000000000e+00  -1.5040103240078863e-07 -4.9727568445690956e-07 0.0000000000000000e+00  -1.9941951351384208e-07 -5.1196741187532149e-07 0.0000000000000000e+00  -2.3769436928754741e-07 -5.1414116248615160e-07 0.0000000000000000e+00  -2.7357472909315593e-07 -5.1858702534173136e-07 0.0000000000000000e+00  -3.1285293130824259e-07 -5.2939115214907764e-07 0.0000000000000000e+00  -3.5497109719179549e-07 -5.4175096579367289e-07 0.0000000000000000e+00  -4.0121161039551075e-07 -5.5652708480398713e-07 0.0000000000000000e+00  -4.4936771231314100e-07 -5.7355259265063108e-07 0.0000000000000000e+00  -5.0194864967217812e-07 -5.9154934925461286e-07 0.0000000000000000e+00  -5.5718790872297471e-07 -6.1305826614561271e-07 0.0000000000000000e+00  -6.1655004990810182e-07 -6.3468335138750328e-07 0.0000000000000000e+00  -6.7930922467169999e-07 -6.5884668928271949e-07 0.0000000000000000e+00  -7.4520672967417844e-07 -6.8448277961604460e-07 0.0000000000000000e+00  -8.1558575571006239e-07 -7.1142038288693964e-07 0.0000000000000000e+00  -8.8824746524134557e-07 -7.4041159458307404e-07 0.0000000000000000e+00  -9.6537964189301037e-07 -7.6921606748039508e-07 0.0000000000000000e+00  -1.0456969165273598e-06 -8.0129563313785916e-07 0.0000000000000000e+00  -1.1300001197747515e-06 -8.3229912409705680e-07 0.0000000000000000e+00  -1.2174928754454232e-06 -8.6650900923549004e-07 0.0000000000000000e+00  -1.3089107222280492e-06 -8.9966718248312219e-07 0.0000000000000000e+00  -1.4042783391775385e-06 -9.3485339942731158e-07 0.0000000000000000e+00  -1.5023989703105037e-06 -9.7072948458001290e-07 0.0000000000000000e+00  -1.6050514765319787e-06 -1.0070316788620906e-06 0.0000000000000000e+00  -1.7101290564567940e-06 -1.0448824332539079e-06 0.0000000000000000e+00  -1.8195762861451322e-06 -1.0817920007642242e-06 0.0000000000000000e+00  -1.9326494440310346e-06 -1.1217292313458146e-06 0.0000000000000000e+00  -2.0493394393164825e-06 -1.1598902749151229e-06 0.0000000000000000e+00  -2.1696377656718996e-06 -1.2008632170439192e-06 0.0000000000000000e+00  -2.2934962151675911e-06 -1.2403838281165966e-06 0.0000000000000000e+00  -2.4209307674986926e-06 -1.2825318073226819e-06 0.0000000000000000e+00  -2.5520572844177259e-06 -1.3232422858447587e-06 0.0000000000000000e+00  -2.6865739673538234e-06 -1.3667093413429214e-06 0.0000000000000000e+00  -2.8249298368267263e-06 -1.4083695903507847e-06 0.0000000000000000e+00  -2.9670422996087460e-06 -1.4530476699910590e-06 0.0000000000000000e+00  -3.1127334505773371e-06 -1.4961134813691827e-06 0.0000000000000000e+00  -3.2619484943383884e-06 -1.5419237256377842e-06 0.0000000000000000e+00  -3.4148373474430511e-06 -1.5861665208088524e-06 0.0000000000000000e+00  -3.5714678259647410e-06 -1.6330454713452688e-06 0.0000000000000000e+00  -3.7319932518924608e-06 -1.6783730283738152e-06 0.0000000000000000e+00  -3.8967121393636317e-06 -1.7254968275471177e-06 0.0000000000000000e+00  -4.0642816186974573e-06 -1.7722495343655846e-06 0.0000000000000000e+00  -4.2366951676174739e-06 -1.8196978416142577e-06 0.0000000000000000e+00  -4.4113277667639633e-06 -1.8673742282906200e-06 0.0000000000000000e+00  -4.5903682452972163e-06 -1.9142446186114202e-06 0.0000000000000000e+00  -4.7717260794369147e-06 -1.9636354489844183e-06 0.0000000000000000e+00  -5.0011028855499527e-06 -1.8808468242938648e-06 0.0000000000000000e+00  -5.0731848959724632e-06 -1.5948372515074450e-06 0.0000000000000000e+00  -4.9166756519003407e-06 -1.4033721901535655e-06 0.0000000000000000e+00  -4.7341182226679985e-06 -1.3447139454212129e-06 0.0000000000000000e+00  -4.5540895481858991e-06 -1.2847180851133135e-06 0.0000000000000000e+00  -4.3781861151553903e-06 -1.2261551386065699e-06 0.0000000000000000e+00  -4.2047245277492568e-06 -1.1679283649586165e-06 0.0000000000000000e+00  -4.0361527558813380e-06 -1.1101965644566293e-06 0.0000000000000000e+00  -3.8702262823896945e-06 -1.0533783814217116e-06 0.0000000000000000e+00  -3.7085878272976393e-06 -9.9600063194208522e-07 0.0000000000000000e+00  -3.5503763127136900e-06 -9.4089807514396931e-07 0.0000000000000000e+00  -3.3959901445282271e-06 -8.8433391866098020e-07 0.0000000000000000e+00  -3.2450716890170649e-06 -8.3033671730248331e-07 0.0000000000000000e+00  -3.0980317258955468e-06 -7.7499823455080619e-07 0.0000000000000000e+00  -2.9544130290647457e-06 -7.2227441434500752e-07 0.0000000000000000e+00  -2.8145728973289177e-06 -6.6821264203034488e-07 0.0000000000000000e+00  -2.6780993556708917e-06 -6.1673207981213494e-07 0.0000000000000000e+00  -2.5454414522457177e-06 -5.6388315612925279e-07 0.0000000000000000e+00  -2.4162260252982239e-06 -5.1359256340282300e-07 0.0000000000000000e+00  -2.2908473544059255e-06 -4.6197360179632292e-07 0.0000000000000000e+00  -2.1688309744228662e-06 -4.1300455684295746e-07 0.0000000000000000e+00  -2.0505594483988112e-06 -3.6274730600561669e-07 0.0000000000000000e+00  -1.9355907182577358e-06 -3.1506709669214225e-07 0.0000000000000000e+00  -1.8243721341544605e-06 -2.6624356309807687e-07 0.0000000000000000e+00  -1.7168999663127099e-06 -2.1926931644192683e-07 0.0000000000000000e+00  -1.6122964859870171e-06 -1.7255891766807500e-07 0.0000000000000000e+00  -1.5121957406663529e-06 -1.2687312721072018e-07 0.0000000000000000e+00  -1.4141326930309354e-06 -8.2254922735014427e-08 0.0000000000000000e+00  -1.3203027335193103e-06 -3.7523518119158098e-08 0.0000000000000000e+00  -1.2296730696068702e-06 4.2554690517018527e-09 0.0000000000000000e+00  -1.1426685402028365e-06 4.7232201535758335e-08 0.0000000000000000e+00  -1.0590177507935396e-06 8.6775775228916914e-08 0.0000000000000000e+00  -9.7885088478361685e-07 1.2727441210189811e-07 0.0000000000000000e+00  -9.0222864443592641e-07 1.6478941948709913e-07 0.0000000000000000e+00  -8.2823920745999945e-07 2.0189375254639710e-07 0.0000000000000000e+00  -7.5846614760718259e-07 2.3684572374806390e-07 0.0000000000000000e+00  -6.9055236124962875e-07 2.7045301896795869e-07 0.0000000000000000e+00  -6.2672549391485033e-07 3.0276240439804596e-07 0.0000000000000000e+00  -5.6594762998135367e-07 3.3151821212467808e-07 0.0000000000000000e+00  -5.0852087049858433e-07 3.6004747808182916e-07 0.0000000000000000e+00  -4.5420599788643351e-07 3.8519012006765356e-07 0.0000000000000000e+00  -4.0251756142498780e-07 4.0884886305790282e-07 0.0000000000000000e+00  -3.5469881251804747e-07 4.2969358589147858e-07 0.0000000000000000e+00  -3.0814611070894417e-07 4.4818844729103827e-07 0.0000000000000000e+00  -2.6586961558532647e-07 4.6783254079368271e-07 0.0000000000000000e+00  -2.1949181616827163e-07 4.8366872027605318e-07 0.0000000000000000e+00  -1.6444154991869470e-07 4.8183658608169816e-07 0.0000000000000000e+00  -8.8344518915907790e-08 4.5062419727348457e-07 0.0000000000000000e+00  -2.1303577237311576e-07 -6.6796750065870633e-09 0.0000000000000000e+00  -4.7569726850463355e-06 -1.6595739175845297e-06 0.0000000000000000e+00  -4.4092042971576149e-06 -1.5596587131184954e-06 0.0000000000000000e+00  -3.8774460160257951e-06 -1.3931322785154422e-06 0.0000000000000000e+00  -2.3356584526089555e-07 -1.6804636629344838e-08 0.0000000000000000e+00  -3.5622703980358318e-06 -1.2885846822014422e-06 0.0000000000000000e+00  -3.0891010295578259e-07 -3.2992312011075044e-08 0.0000000000000000e+00  -3.2548158627902147e-06 -1.1877228261135923e-06 0.0000000000000000e+00  -4.5620155314737621e-07 -8.9151377981064443e-08 0.0000000000000000e+00  -5.6383310956160777e-07 -1.4112610501826190e-07 0.0000000000000000e+00  -2.9619960657818463e-06 -1.0892616007288135e-06 0.0000000000000000e+00  -9.0031402337865330e-07 -2.8444393174498696e-07 0.0000000000000000e+00  -2.4199226909608109e-06 -8.9961554082295929e-07 0.0000000000000000e+00  -6.8174863115701078e-07 -1.8691295867260476e-07 0.0000000000000000e+00  -1.0540847155711172e-06 -3.5822794865288635e-07 0.0000000000000000e+00  -2.1705375545601402e-06 -8.0846902788367830e-07 0.0000000000000000e+00  -2.6837145325416005e-06 -9.9320443698545261e-07 0.0000000000000000e+00  -1.2251597501235813e-06 -4.3216421914460359e-07 0.0000000000000000e+00  -1.9355191600569621e-06 -7.1983713744038250e-07 0.0000000000000000e+00  -1.4029967763522366e-06 -5.0158836302173298e-07 0.0000000000000000e+00  -1.7181738869348392e-06 -6.4050275740162225e-07 0.0000000000000000e+00  -1.5510652772072920e-06 -5.6776156919876679e-07 0.0000000000000000e+00  -7.8249480107586357e-07 -2.3866962873461768e-07 0.0000000000000000e+00  -4.1517137084177522e-06 -1.4739474875641991e-06 0.0000000000000000e+00  -3.7666152971939511e-07 -6.3756636034938001e-08 0.0000000000000000e+00  -4.6049372387849746e-06 -1.5085951723531548e-06 0.0000000000000000e+00  -2.1281423827706816e-07 1.7689775862220708e-07 0.0000000000000000e+00  -3.4264454772948704e-06 -1.1431950504200474e-06 0.0000000000000000e+00  -3.7416149709456761e-06 -1.2480775562421191e-06 0.0000000000000000e+00  -2.6544870566451932e-07 -2.0002016573018280e-07 0.0000000000000000e+00  -4.9837764564454546e-07 -2.5200045607478670e-07 0.0000000000000000e+00  -2.5683809950148028e-06 -8.4253596504016747e-07 0.0000000000000000e+00  -3.1258853991046074e-06 -1.0405340199329531e-06 0.0000000000000000e+00  -9.6040936310585786e-07 -4.4833910304777089e-07 0.0000000000000000e+00  -2.3113117298216320e-06 -7.4721468051820101e-07 0.0000000000000000e+00  -6.1330908248699856e-07 -2.9984793797215285e-07 0.0000000000000000e+00  -1.1237747825016213e-06 -5.1731370028990851e-07 0.0000000000000000e+00  -2.0686468427089694e-06 -6.5440487669177503e-07 0.0000000000000000e+00  -2.8399076854592917e-06 -9.4030305963243800e-07 0.0000000000000000e+00  -1.2966061607905802e-06 -6.1653199776010436e-07 0.0000000000000000e+00  -1.8401916303505955e-06 -5.6417848628285493e-07 0.0000000000000000e+00  -1.5544193454378030e-07 -1.0991255946578850e-07 0.0000000000000000e+00  -1.5292625792466583e-07 9.7141792287455530e-08 0.0000000000000000e+00  -4.8873252183425787e-06 -1.76