<?xml version="1.0"?>
<VTKFile type="UnstructuredGrid"  version="0.1"  >
<UnstructuredGrid>
<Piece  NumberOfPoints="1419" NumberOfCells="2698">
<Points>
<DataArray  type="Float64"  NumberOfComponents="3"  format="ascii">0 0 0  0 0.41 0  2.5 0 0  2.5 0.41 0  0.6 0.19 0  0.6 0.21 0  0.25 0.2 0  0.15 0.2 0  0.2489897948556636 0.21 0  0.2489897948556636 0.19 0  0.6 0.2 0  0 0.3807142857143437 0  0 0.3514285714286952 0  0 0.3221428571430699 0  0 0.29285714285744 0  0 0.2635714285718054 0  0 0.2342857142861561 0  0 0.2050000000005308 0  0 0.175714285714732 0  0 0.1464285714289574 0  0 0.1171428571431897 0  0 0.08785714285737878 0  0 0.05857142857161107 0  0 0.02928571428580012 0  0.03015443760436003 0 0  0.06140001986583606 0 0  0.09377624077125973 0 0  0.1273239957535082 0 0  0.1620856860351972 0 0  0.1981052433264291 0 0  0.235428184091502 0 0  0.2741016576309132 0 0  0.3141745521465447 0 0  0.3556974926295285 0 0  0.3987229542472677 0 0  0.4433053055141081 0 0  0.4895008759286886 0 0  0.5373680609405097 0 0  0.5869673343216626 0 0  0.6383613676634521 0 0  0.6916151138468254 0 0  0.7467958595648856 0 0  0.8039733463919316 0 0  0.8632198139502143 0 0  0.9246101326867038 0 0  0.9882218810934433 0 0  1.054135445558498 0 0  1.122434100542598 0 0  1.193204177141305 0 0  1.266535089879536 0 0  1.342519516046404 0 0  1.421253448503939 0 0  1.502836389106271 0 0  1.587371439758838 0 0  1.674965418777374 0 0  1.765729001825544 0 0  1.859776908880082 0 0  1.957227977487062 0 0  2.058205329869943 0 0  2.162836591189951 0 0  2.271253957290865 0 0  2.383594446803425 0 0  2.5 0.1024999999997612 0  2.5 0.2049999999994743 0  2.5 0.3074999999997183 0  2.383594446803656 0.41 0  2.271253957291315 0.41 0  2.162836591190598 0.41 0  2.058205329870775 0.41 0  1.957227977488067 0.41 0  1.859776908881246 0.41 0  1.765729001826854 0.41 0  1.674965418778818 0.41 0  1.58737143976041 0.41 0  1.502836389107956 0.41 0  1.421253448505726 0.41 0  1.342519516048286 0.41 0  1.266535089881505 0.41 0  1.193204177143353 0.41 0  1.122434100544716 0.41 0  1.05413544556068 0.41 0  0.9882218810956305 0.41 0  0.9246101326886647 0.41 0  0.8632198139519631 0.41 0  0.8039733463934788 0.41 0  0.7467958595662458 0.41 0  0.6916151138480078 0.41 0  0.6383613676644679 0.41 0  0.5869673343225223 0.41 0  0.5373680609412221 0.41 0  0.4895008759292634 0.41 0  0.4433053055145528 0.41 0  0.3987229542475914 0.41 0  0.3556974926297398 0.41 0  0.3141745521466497 0.41 0  0.2741016576310038 0.41 0  0.2354281840915826 0.41 0  0.1981052433265003 0.41 0  0.1620856860352591 0.41 0  0.1273239957535623 0.41 0  0.09377624077128965 0.41 0  0.06140001986584975 0.41 0  0.03015443760436654 0.41 0  0.2497468076502589 0.2050254481002335 0  0.2497468076502614 0.1949745518997913 0  0.2469965252529372 0.1829317073451959 0  0.2439893735792749 0.1762316384219906 0  0.2400332147834255 0.1700443375285386 0  0.2352133972704371 0.1645032867342007 0  0.2296339016332438 0.1597280261969788 0  0.2234150974217223 0.1558215752574715 0  0.2166911463437691 0.1528682099456123 0  0.2096071079204251 0.1509316448471593 0  0.2023158100364996 0.1500536585536553 0  0.194974551899914 0.1502531923497262 0  0.1877417105387872 0.1515259415822739 0  0.1807733240461124 0.153844448527136 0  0.1742197252835808 0.15715869474974 0  0.1682222986673531 0.1613971801805478 0  0.162910430003803 0.1664684656256651 0  0.1583987151779087 0.1722631454351573 0  0.1547844879126891 0.178656207771761 0  0.1521457199348551 0.1855097315605723 0  0.1505393388476355 0.1926758619366523 0  0.1505393388476328 0.2073241380633295 0  0.1521457199348437 0.2144902684393899 0  0.1547844879126531 0.221343792228163 0  0.1583987151778488 0.2277368545647528 0  0.1629104300036858 0.2335315343742052 0  0.1682222986671726 0.2386028198193036 0  0.1742197252833576 0.2428413052501257 0  0.1807733240458683 0.2461555514727623 0  0.1877417105384929 0.2484740584176516 0  0.1949745518995776 0.2497468076502398 0  0.202315810036185 0.2499463414463592 0  0.2096071079201568 0.2490683551528932 0  0.2166911463435495 0.2471317900544655 0  0.2234150974215506 0.2441784247426195 0  0.2296339016331197 0.2402719738031125 0  0.2352133972703547 0.2354967132658811 0  0.2400332147833751 0.2299556624715287 0  0.2439893735792577 0.2237683615780412 0  0.246996525252926 0.2170682926548348 0  0.25645809709277 0.21 0  0.2639263993298655 0.21 0  0.271394701566961 0.21 0  0.2788630038040554 0.21 0  0.2863313060411479 0.21 0  0.2937996082782405 0.21 0  0.301267910515333 0.21 0  0.3087362127524279 0.21 0  0.3162045149895234 0.21 0  0.3236728172265972 0.21 0  0.3311411194636928 0.21 0  0.3386094217007701 0.21 0  0.3460777239378666 0.21 0  0.3535460261749672 0.21 0  0.3610143284120516 0.21 0  0.3684826306491596 0.21 0  0.3759509328862226 0.21 0  0.383419235123329 0.21 0  0.3908875373604028 0.21 0  0.3983558395975142 0.21 0  0.4058241418345938 0.21 0  0.4132924440716992 0.21 0  0.4207607463087888 0.21 0  0.4282290485459029 0.21 0  0.4356973507830418 0.21 0  0.4431656530201649 0.21 0  0.4506339552573136 0.21 0  0.4581022574944306 0.21 0  0.4655705597315852 0.21 0  0.4730388619686996 0.21 0  0.480507164205851 0.21 0  0.4879754664429498 0.21 0  0.4954437686800938 0.21 0  0.502912070917267 0.21 0  0.5103803731544119 0.21 0  0.5178486753915261 0.21 0  0.5253169776286404 0.21 0  0.5327852798657868 0.21 0  0.5402535821029386 0.21 0  0.54772188434007 0.21 0  0.5551901865771842 0.21 0  0.5626584888143201 0.21 0  0.5701267910514778 0.21 0  0.5775950932886138 0.21 0  0.5850633955257281 0.21 0  0.5925316977628483 0.21 0  0.6 0.2050000000000054 0  0.6 0.1950000000000217 0  0.5925316977628897 0.19 0  0.5850633955257988 0.19 0  0.5775950932887378 0.19 0  0.5701267910515998 0.19 0  0.5626584888145268 0.19 0  0.5551901865773963 0.19 0  0.547721884340339 0.19 0  0.5402535821032429 0.19 0  0.5327852798661811 0.19 0  0.5253169776290537 0.19 0  0.5178486753919799 0.19 0  0.5103803731549078 0.19 0  0.502912070917822 0.19 0  0.4954437686807294 0.19 0  0.4879754664436223 0.19 0  0.4805071642065402 0.19 0  0.4730388619694271 0.19 0  0.4655705597323621 0.19 0  0.4581022574952563 0.19 0  0.4506339552581777 0.19 0  0.4431656530210671 0.19 0  0.4356973507839815 0.19 0  0.4282290485468779 0.19 0  0.4207607463097617 0.19 0  0.4132924440726327 0.19 0  0.4058241418354857 0.19 0  0.3983558395983636 0.19 0  0.3908875373612097 0.19 0  0.3834192351240934 0.19 0  0.3759509328869369 0.19 0  0.3684826306498175 0.19 0  0.361014328412667 0.19 0  0.3535460261755617 0.19 0  0.3460777239384295 0.19 0  0.3386094217012945 0.19 0  0.3311411194641595 0.19 0  0.3236728172270245 0.19 0  0.3162045149898895 0.19 0  0.3087362127527544 0.19 0  0.3012679105156187 0.19 0  0.2937996082784807 0.19 0  0.2863313060413428 0.19 0  0.2788630038042048 0.19 0  0.2713947015670686 0.19 0  0.2639263993299336 0.19 0  0.2564580970927985 0.19 0  0.2607803159922026 0.2000727136295815 0  0.5887803774232762 0.2001272386983733 0  0.5745072403740523 0.2002044435018727 0  0.5511891430099709 0.2001122610077113 0  0.2751288526855082 0.20000000000002 0  0.5365194309847112 0.1999999999999436 0  0.2894621222999649 0.1998691686390484 0  0.5215828265105155 0.1999999999999228 0  0.3127789816668748 0.1998657885438805 0  0.3274069683451451 0.2000000000000796 0  0.5066462220363641 0.199999999999908 0  0.3650630746574081 0.199866017807523 0  0.476773013087985 0.1999999999998713 0  0.3417402379596385 0.1998691686391011 0  0.3796850840047755 0.200000000000134 0  0.4618364086138087 0.1999999999998546 0  0.4917096175621762 0.1999999999998808 0  0.3946216884789568 0.2000000000001512 0  0.446899804139621 0.1999999999998389 0  0.4089549580935208 0.1998691686391595 0  0.4322718174608562 0.200127451265745 0  0.4201487168029707 0.1999966199048527 0  0.3528922713220932 0.2000185703532356 0  0.5633122436674589 0.1999814296467508 0  0.3006558810093873 0.1999966199048318 0  0.5815926498168407 0.1966545283159175 0  0.2677053789419034 0.1964246479135325 0  0.5290511287476175 0.1970915826863981 0  0.5439877332217911 0.197091582686394 0  0.2825131256993216 0.2035478995978015 0  0.3199386661080599 0.202908417313604 0  0.4842413153250809 0.1970915826863873 0  0.5141145242734466 0.1970915826863843 0  0.3722167817676917 0.2029084173136195 0  0.4693047108508938 0.1970915826863783 0  0.3348752705822316 0.202908417313609 0  0.3871533862418661 0.2029084173136212 0  0.4543681063767183 0.1970915826863795 0  0.4991779197992749 0.1970915826863902 0  0.4020059614928624 0.203547899597858 0  0.4394315019025246 0.1970915826863714 0  0.2550657455369551 0.2034088125358657 0  0.2548908499171161 0.1966940311614271 0  0.5946539510196798 0.2024302972968126 0  0.267698176732111 0.2039977513680092 0  0.4261685417851465 0.196409292431739 0  0.3590076176283495 0.196411355804271 0  0.5571672426447437 0.2036011176410121 0  0.3066757059912147 0.1964092924317024 0  0.594380730180568 0.1966558399668133 0  0.4842413153245942 0.2040749161535287 0  0.4693047108503577 0.2040749161535231 0  0.3871533862424271 0.1959250838464788 0  0.372246743208829 0.1959123236376545 0  0.5141145242731028 0.2040749161535395 0  0.4543681063761134 0.2040749161535186 0  0.4019979587101454 0.1959834479682427 0  0.4394608940728603 0.2040870543693135 0  0.5439623148931173 0.2040856076781014 0  0.5290511287473298 0.2040749161535501 0  0.4991779197988497 0.2040749161535382 0  0.3347912413592433 0.1959225448935183 0  0.3199680582793816 0.1959123018030061 0  0.2825051229162361 0.1959834479681729 0  0.3590471196690275 0.2036304442587945 0  0.5571594006495384 0.1963685282145804 0  0.3067669986803285 0.203627750582736 0  0.4262598344738712 0.2036568242185335 0  0.5814408164431408 0.2041285596160068 0  0.5688286748170428 0.1961819304477386 0  0.4145905603063645 0.2038180695522843 0  0.3473758401724931 0.2038180695522752 0  0.2950977245128307 0.2038180695522663 0  0.5688286748170693 0.203818069552238 0  0.2950977245127906 0.1961819304477774 0  0.3473758401723931 0.1961819304478349 0  0.4145905603061963 0.1961819304479011 0  0.2601812407614425 0.2056861609747042
[...]
<PointData  Vectors="f_40-1"> 
<DataArray  type="Float64"  Name="f_40-1"  NumberOfComponents="3" format="ascii">0.0000000000000000e+00 0.0000000000000000e+00 0.0000000000000000e+00  0.0000000000000000e+00 0.0000000000000000e+00 0.0000000000000000e+00  0.0000000000000000e+00 0.0000000000000000e+00 0.0000000000000000e+00  0.0000000000000000e+00 0.0000000000000000e+00 0.0000000000000000e+00  -1.5272447453215412e-05 -4.3589414670916742e-04 0.0000000000000000e+00  1.8516735705128417e-05 -4.3972405963019386e-04 0.0000000000000000e+00  0.0000000000000000e+00 0.0000000000000000e+00 0.0000000000000000e+00  0.0000000000000000e+00 0.0000000000000000e+00 0.0000000000000000e+00  0.0000000000000000e+00 0.0000000000000000e+00 0.0000000000000000e+00  0.0000000000000000e+00 0.0000000000000000e+00 0.0000000000000000e+00  1.2929915827270972e-06 -4.3780431166162438e-04 0.0000000000000000e+00  0.0000000000000000e+00 0.0000000000000000e+00 0.0000000000000000e+00  0.0000000000000000e+00 0.0000000000000000e+00 0.0000000000000000e+00  0.0000000000000000e+00 0.0000000000000000e+00 0.0000000000000000e+00  0.0000000000000000e+00 0.0000000000000000e+00 0.0000000000000000e+00  0.0000000000000000e+00 0.0000000000000000e+00 0.0000000000000000e+00  0.0000000000000000e+00 0.0000000000000000e+00 0.0000000000000000e+00  0.0000000000000000e+00 0.0000000000000000e+00 0.0000000000000000e+00  0.0000000000000000e+00 0.0000000000000000e+00 0.0000000000000000e+00  0.0000000000000000e+00 0.0000000000000000e+00 0.0000000000000000e+00  0.0000000000000000e+00 0.0000000000000000e+00 0.0000000000000000e+00  0.0000000000000000e+00 0.0000000000000000e+00 0.0000000000000000e+00  0.0000000000000000e+00 0.0000000000000000e+00 0.0000000000000000e+00  0.0000000000000000e+00 0.0000000000000000e+00 0.0000000000000000e+00  0.0000000000000000e+00 0.0000000000000000e+00 0.0000000000000000e+00  0.0000000000000000e+00 0.0000000000000000e+00 0.0000000000000000e+00  0.0000000000000000e+00 0.0000000000000000e+00 0.0000000000000000e+00  0.0000000000000000e+00 0.0000000000000000e+00 0.0000000000000000e+00  0.0000000000000000e+00 0.0000000000000000e+00 0.0000000000000000e+00  0.0000000000000000e+00 0.0000000000000000e+00 0.0000000000000000e+00  0.0000000000000000e+00 0.0000000000000000e+00 0.0000000000000000e+00  0.0000000000000000e+00 0.0000000000000000e+00 0.0000000000000000e+00  0.0000000000000000e+00 0.0000000000000000e+00 0.0000000000000000e+00  0.0000000000000000e+00 0.0000000000000000e+00 0.0000000000000000e+00  0.0000000000000000e+00 0.0000000000000000e+00 0.0000000000000000e+00  0.0000000000000000e+00 0.0000000000000000e+00 0.0000000000000000e+00  0.0000000000000000e+00 0.0000000000000000e+00 0.0000000000000000e+00  0.0000000000000000e+00 0.0000000000000000e+00 0.0000000000000000e+00  0.0000000000000000e+00 0.0000000000000000e+00 0.0000000000000000e+00  0.0000000000000000e+00 0.0000000000000000e+00 0.0000000000000000e+00  0.0000000000000000e+00 0.0000000000000000e+00 0.0000000000000000e+00  0.0000000000000000e+00 0.0000000000000000e+00 0.0000000000000000e+00  0.0000000000000000e+00 0.0000000000000000e+00 0.0000000000000000e+00  0.0000000000000000e+00 0.0000000000000000e+00 0.0000000000000000e+00  0.0000000000000000e+00 0.0000000000000000e+00 0.0000000000000000e+00  0.0000000000000000e+00 0.0000000000000000e+00 0.0000000000000000e+00  0.0000000000000000e+00 0.0000000000000000e+00 0.0000000000000000e+00  0.0000000000000000e+00 0.0000000000000000e+00 0.0000000000000000e+00  0.0000000000000000e+00 0.0000000000000000e+00 0.0000000000000000e+00  0.0000000000000000e+00 0.0000000000000000e+00 0.0000000000000000e+00  0.0000000000000000e+00 0.0000000000000000e+00 0.0000000000000000e+00  0.0000000000000000e+00 0.0000000000000000e+00 0.0000000000000000e+00  0.0000000000000000e+00 0.0000000000000000e+00 0.0000000000000000e+00  0.0000000000000000e+00 0.0000000000000000e+00 0.0000000000000000e+00  0.0000000000000000e+00 0.0000000000000000e+00 0.0000000000000000e+00  0.0000000000000000e+00 0.0000000000000000e+00 0.0000000000000000e+00  0.0000000000000000e+00 0.0000000000000000e+00 0.0000000000000000e+00  0.0000000000000000e+00 0.0000000000000000e+00 0.0000000000000000e+00  0.0000000000000000e+00 0.0000000000000000e+00 0.0000000000000000e+00  0.0000000000000000e+00 0.0000000000000000e+00 0.0000000000000000e+00  0.0000000000000000e+00 0.0000000000000000e+00 0.0000000000000000e+00  0.0000000000000000e+00 0.0000000000000000e+00 0.0000000000000000e+00  0.0000000000000000e+00 0.0000000000000000e+00 0.0000000000000000e+00  0.0000000000000000e+00 0.0000000000000000e+00 0.0000000000000000e+00  0.0000000000000000e+00 0.0000000000000000e+00 0.0000000000000000e+00  0.0000000000000000e+00 0.0000000000000000e+00 0.0000000000000000e+00  0.0000000000000000e+00 0.0000000000000000e+00 0.0000000000000000e+00  0.0000000000000000e+00 0.0000000000000000e+00 0.0000000000000000e+00  0.0000000000000000e+00 0.0000000000000000e+00 0.0000000000000000e+00  0.0000000000000000e+00 0.0000000000000000e+00 0.0000000000000000e+00  0.0000000000000000e+00 0.0000000000000000e+00 0.0000000000000000e+00  0.0000000000000000e+00 0.0000000000000000e+00 0.0000000000000000e+00  0.0000000000000000e+00 0.0000000000000000e+00 0.0000000000000000e+00  0.0000000000000000e+00 0.0000000000000000e+00 0.0000000000000000e+00  0.0000000000000000e+00 0.0000000000000000e+00 0.0000000000000000e+00  0.0000000000000000e+00 0.0000000000000000e+00 0.0000000000000000e+00  0.0000000000000000e+00 0.0000000000000000e+00 0.0000000000000000e+00  0.0000000000000000e+00 0.0000000000000000e+00 0.0000000000000000e+00  0.0000000000000000e+00 0.0000000000000000e+00 0.0000000000000000e+00  0.0000000000000000e+00 0.0000000000000000e+00 0.0000000000000000e+00  0.0000000000000000e+00 0.0000000000000000e+00 0.0000000000000000e+00  0.0000000000000000e+00 0.0000000000000000e+00 0.0000000000000000e+00  0.0000000000000000e+00 0.0000000000000000e+00 0.0000000000000000e+00  0.0000000000000000e+00 0.0000000000000000e+00 0.0000000000000000e+00  0.0000000000000000e+00 0.0000000000000000e+00 0.0000000000000000e+00  0.0000000000000000e+00 0.0000000000000000e+00 0.0000000000000000e+00  0.0000000000000000e+00 0.0000000000000000e+00 0.0000000000000000e+00  0.0000000000000000e+00 0.0000000000000000e+00 0.0000000000000000e+00  0.0000000000000000e+00 0.0000000000000000e+00 0.0000000000000000e+00  0.0000000000000000e+00 0.0000000000000000e+00 0.0000000000000000e+00  0.0000000000000000e+00 0.0000000000000000e+00 0.0000000000000000e+00  0.0000000000000000e+00 0.0000000000000000e+00 0.0000000000000000e+00  0.0000000000000000e+00 0.0000000000000000e+00 0.0000000000000000e+00  0.0000000000000000e+00 0.0000000000000000e+00 0.0000000000000000e+00  0.0000000000000000e+00 0.0000000000000000e+00 0.0000000000000000e+00  0.0000000000000000e+00 0.0000000000000000e+00 0.0000000000000000e+00  0.0000000000000000e+00 0.0000000000000000e+00 0.0000000000000000e+00  0.0000000000000000e+00 0.0000000000000000e+00 0.0000000000000000e+00  0.0000000000000000e+00 0.0000000000000000e+00 0.0000000000000000e+00  0.0000000000000000e+00 0.0000000000000000e+00 0.0000000000000000e+00  0.0000000000000000e+00 0.0000000000000000e+00 0.0000000000000000e+00  0.0000000000000000e+00 0.0000000000000000e+00 0.0000000000000000e+00  0.0000000000000000e+00 0.0000000000000000e+00 0.0000000000000000e+00  0.0000000000000000e+00 0.0000000000000000e+00 0.0000000000000000e+00  0.0000000000000000e+00 0.0000000000000000e+00 0.0000000000000000e+00  0.0000000000000000e+00 0.0000000000000000e+00 0.0000000000000000e+00  0.0000000000000000e+00 0.0000000000000000e+00 0.0000000000000000e+00  0.0000000000000000e+00 0.0000000000000000e+00 0.0000000000000000e+00  0.0000000000000000e+00 0.0000000000000000e+00 0.0000000000000000e+00  0.0000000000000000e+00 0.0000000000000000e+00 0.0000000000000000e+00  0.0000000000000000e+00 0.0000000000000000e+00 0.0000000000000000e+00  0.0000000000000000e+00 0.0000000000000000e+00 0.0000000000000000e+00  0.0000000000000000e+00 0.0000000000000000e+00 0.0000000000000000e+00  0.0000000000000000e+00 0.0000000000000000e+00 0.0000000000000000e+00  0.0000000000000000e+00 0.0000000000000000e+00 0.0000000000000000e+00  0.0000000000000000e+00 0.0000000000000000e+00 0.0000000000000000e+00  0.0000000000000000e+00 0.0000000000000000e+00 0.0000000000000000e+00  0.0000000000000000e+00 0.0000000000000000e+00 0.0000000000000000e+00  0.0000000000000000e+00 0.0000000000000000e+00 0.0000000000000000e+00  0.0000000000000000e+00 0.0000000000000000e+00 0.0000000000000000e+00  0.0000000000000000e+00 0.0000000000000000e+00 0.0000000000000000e+00  0.0000000000000000e+00 0.0000000000000000e+00 0.0000000000000000e+00  0.0000000000000000e+00 0.0000000000000000e+00 0.0000000000000000e+00  0.0000000000000000e+00 0.0000000000000000e+00 0.0000000000000000e+00  0.0000000000000000e+00 0.0000000000000000e+00 0.0000000000000000e+00  0.0000000000000000e+00 0.0000000000000000e+00 0.0000000000000000e+00  0.0000000000000000e+00 0.0000000000000000e+00 0.0000000000000000e+00  0.0000000000000000e+00 0.0000000000000000e+00 0.0000000000000000e+00  0.0000000000000000e+00 0.0000000000000000e+00 0.0000000000000000e+00  0.0000000000000000e+00 0.0000000000000000e+00 0.0000000000000000e+00  0.0000000000000000e+00 0.0000000000000000e+00 0.0000000000000000e+00  0.0000000000000000e+00 0.0000000000000000e+00 0.0000000000000000e+00  0.0000000000000000e+00 0.0000000000000000e+00 0.0000000000000000e+00  0.0000000000000000e+00 0.0000000000000000e+00 0.0000000000000000e+00  0.0000000000000000e+00 0.0000000000000000e+00 0.0000000000000000e+00  0.0000000000000000e+00 0.0000000000000000e+00 0.0000000000000000e+00  0.0000000000000000e+00 0.0000000000000000e+00 0.0000000000000000e+00  0.0000000000000000e+00 0.0000000000000000e+00 0.0000000000000000e+00  0.0000000000000000e+00 0.0000000000000000e+00 0.0000000000000000e+00  0.0000000000000000e+00 0.0000000000000000e+00 0.0000000000000000e+00  0.0000000000000000e+00 0.0000000000000000e+00 0.0000000000000000e+00  0.0000000000000000e+00 0.0000000000000000e+00 0.0000000000000000e+00  0.0000000000000000e+00 0.0000000000000000e+00 0.0000000000000000e+00  1.0318495656122061e-06 -4.0282134682369744e-06 0.0000000000000000e+00  2.3114334759632357e-06 -5.2640076353234783e-06 0.0000000000000000e+00  3.6912475454024918e-06 -6.9881901265250827e-06 0.0000000000000000e+00  5.2596724074448924e-06 -9.3017180380048338e-06 0.0000000000000000e+00  6.7239275487287343e-06 -1.2238093723382551e-05 0.0000000000000000e+00  8.3148215383945831e-06 -1.5864626465301698e-05 0.0000000000000000e+00  9.7242919204167916e-06 -1.9993613904760113e-05 0.0000000000000000e+00  1.1115308778211678e-05 -2.4790464576106062e-05 0.0000000000000000e+00  1.2622108286865515e-05 -3.0098608945224580e-05 0.0000000000000000e+00  1.3907089003528398e-05 -3.5936082146088661e-05 0.0000000000000000e+00  1.5332330840034979e-05 -4.2312679459179767e-05 0.0000000000000000e+00  1.6528556543494793e-05 -4.9166293782273563e-05 0.0000000000000000e+00  1.7813636026272431e-05 -5.6501313277453769e-05 0.0000000000000000e+00  1.8920618708895679e-05 -6.4219552493823440e-05 0.0000000000000000e+00  1.9971494858437653e-05 -7.2409326542730278e-05 0.0000000000000000e+00  2.1067613783482227e-05 -8.0963237674437115e-05 0.0000000000000000e+00  2.1965502661287154e-05 -8.9864558092015722e-05 0.0000000000000000e+00  2.2913340746668463e-05 -9.9147769808971144e-05 0.0000000000000000e+00  2.3671058697714696e-05 -1.0871600480370121e-04 0.0000000000000000e+00  2.4455867935992573e-05 -1.1860928250986824e-04 0.0000000000000000e+00  2.5089716538583408e-05 -1.2875460513000578e-04 0.0000000000000000e+00  2.5703896169955615e-05 -1.3918640197200054e-04 0.0000000000000000e+00  2.6196342699107049e-05 -1.4981298994732697e-04 0.0000000000000000e+00  2.6614641768336813e-05 -1.6068593651864167e-04 0.0000000000000000e+00  2.7021406120656663e-05 -1.7173863581269454e-04 0.0000000000000000e+00  2.7308366718211485e-05 -1.8296505620466762e-04 0.0000000000000000e+00  2.7540313908147025e-05 -1.9439381770108708e-04 0.0000000000000000e+00  2.7687249908783308e-05 -2.0593046825761799e-04 0.0000000000000000e+00  2.7777577343623293e-05 -2.1764407200438064e-04 0.0000000000000000e+00  2.7788937826464516e-05 -2.2944157608177388e-04 0.0000000000000000e+00  2.7742599226192645e-05 -2.4138807401864791e-04 0.0000000000000000e+00  2.7620343535788714e-05 -2.5339373268385568e-04 0.0000000000000000e+00  2.7442056346688192e-05 -2.6552444240333977e-04 0.0000000000000000e+00  2.7189754409662077e-05 -2.7769013921988240e-04 0.0000000000000000e+00  2.6878574738793710e-05 -2.8996360887352166e-04 0.0000000000000000e+00  2.6499764962430935e-05 -3.0225544278485948e-04 0.0000000000000000e+00  2.6063864060777844e-05 -3.1463360944246934e-04 0.0000000000000000e+00  2.5562666090649234e-05 -3.2701560924627707e-04 0.0000000000000000e+00  2.5002558777471385e-05 -3.3946872109679116e-04 0.0000000000000000e+00  2.4377231248997819e-05 -3.5191333982677764e-04 0.0000000000000000e+00  2.3686118997784211e-05 -3.6440499457846096e-04 0.0000000000000000e+00  2.2944420637565574e-05 -3.7689756160508303e-04 0.0000000000000000e+00  2.2134036331752058e-05 -3.8941033872833035e-04 0.0000000000000000e+00  2.1288115804460913e-05 -4.0192950847383284e-04 0.0000000000000000e+00  2.0370035942564249e-05 -4.1443439335987992e-04 0.0000000000000000e+00  1.9422069208908913e-05 -4.2698570050458680e-04 0.0000000000000000e+00  9.7870301868169231e-06 -4.3876337720470540e-04 0.0000000000000000e+00  -7.0933899363778941e-06 -4.3685049383298017e-04 0.0000000000000000e+00  -1.4348760539166338e-05 -4.2339634652265013e-04 0.0000000000000000e+00  -1.3373693349367134e-05 -4.1073013234884721e-04 0.0000000000000000e+00  -1.2430532289960138e-05 -3.9804100144677029e-04 0.0000000000000000e+00  -1.1546968560620935e-05 -3.8538448734539864e-04 0.0000000000000000e+00  -1.0699889739326796e-05 -3.7273791590481390e-04 0.0000000000000000e+00  -9.9150517768703608e-06 -3.6010907155783307e-04 0.0000000000000000e+00  -9.1621731943493004e-06 -3.4750609466361368e-04 0.0000000000000000e+00  -8.4716395578999553e-06 -3.3490712655940121e-04 0.0000000000000000e+00  -7.8158009399139239e-06 -3.2236721314871504e-04 0.0000000000000000e+00  -7.2165913289354847e-06 -3.0982963129530858e-04 0.0000000000000000e+00  -6.6445620574194920e-06 -2.9736495474791072e-04 0.0000000000000000e+00  -6.1322663496480822e-06 -2.8491812869685271e-04 0.0000000000000000e+00  -5.6395458572495399e-06 -2.7256089893539924e-04 0.0000000000000000e+00  -5.2088985444733508e-06 -2.6024019796137143e-04 0.0000000000000000e+00  -4.7881908380328422e-06 -2.4802582115920018e-04 0.0000000000000000e+00  -4.4350085550678072e-06 -2.3586845859982502e-04 0.0000000000000000e+00  -4.0822633936166895e-06 -2.2383806156050555e-04 0.0000000000000000e+00  -3.8033335846726779e-06 -2.1188856847808752e-04 0.0000000000000000e+00  -3.5141005638664982e-06 -2.0009247312346797e-04 0.0000000000000000e+00  -3.3048369407092095e-06 -1.8840518995502520e-04 0.0000000000000000e+00  -3.0713888823296094e-06 -1.7689791601999019e-04 0.0000000000000000e+00  -2.9254707440995594e-06 -1.6553187295706301e-04 0.0000000000000000e+00  -2.7527653643476023e-06 -1.5436875528880437e-04 0.0000000000000000e+00  -2.6498618270418434e-06 -1.4338086080373930e-04 0.0000000000000000e+00  -2.5833499734937806e-06 -1.3264958010762785e-04 0.0000000000000000e+00  -2.4713861697195738e-06 -1.2211201833570238e-04 0.0000000000000000e+00  -2.4305673606969233e-06 -1.1184819257395222e-04 0.0000000000000000e+00  -2.3735506277681921e-06 -1.0187363291586884e-04 0.0000000000000000e+00  -2.3647506754617305e-06 -9.2187401113965749e-05 0.0000000000000000e+00  -2.3374952130132412e-06 -8.2841800786369684e-05 0.0000000000000000e+00  -2.3534272590546833e-06 -7.3818219507974315e-05 0.0000000000000000e+00  -2.3064364326117396e-06 -6.5223253120846517e-05 0.0000000000000000e+00  -2.3500551164614381e-06 -5.6954766815158128e-05 0.0000000000000000e+00  -2.4033261050679880e-06 -4.9184846441507287e-05 0.0000000000000000e+00  -2.3484043847833145e-06 -4.1772394115865065e-05 0.0000000000000000e+00  -2.3568943711517771e-06 -3.4885200523066998e-05 0.0000000000000000e+00  -2.3074785690672934e-06 -2.8488636017549837e-05 0.0000000000000000e+00  -2.2943079005561890e-06 -2.2602148785296009e-05 0.0000000000000000e+00  -2.1621059495281584e-06 -1.7321463866532661e-05 0.0000000000000000e+00  -2.1393234635095073e-06 -1.2516923158074188e-05 0.0000000000000000e+00  -2.1030047565137631e-06 -8.3991425848886833e-06 0.0000000000000000e+00  -1.8999305311809992e-06 -4.7736097490920242e-06 0.0000000000000000e+00  -1.7827827444136195e-06 -1.8053754082114959e-06 0.0000000000000000e+00  -1.4839579081236997e-06 5.1321048504799939e-07 0.0000000000000000e+00  -1.2047705387307524e-06 2.0595710565853842e-06 0.0000000000000000e+00  -6.1023646763437160e-07 2.7542450034833976e-06 0.0000000000000000e+00  -2.3174903459210277e-07 -6.6250371900871454e-07 0.0000000000000000e+00  3.1024241846332615e-06 -4.1887297133374487e-04 0.0000000000000000e+00  5.0850194390932324e-06 -3.9480930844081405e-04 0.0000000000000000e+00  7.4165421634923987e-06 -3.5554178123774644e-04 0.0000000000000000e+00  1.3882584582595595e-06 -3.8886034331599355e-06 0.0000000000000000e+00  8.5147138064864090e-06 -3.3091352166530428e-04 0.0000000000000000e+00  2.6384449361070916e-06 -9.4827852988107460e-06 0.0000000000000000e+00  9.6220841791341921e-06 -3.0598415271428558e-04 0.0000000000000000e+00  4.7246730899138646e-06 -2.3438069640376007e-05 0.0000000000000000e+00  6.1152030928135321e-06 -3.5017019784696349e-05 0.0000000000000000e+00  1.0520808189951522e-05 -2.8123424514762019e-04 0.0000000000000000e+00  8.9232232934466016e-06 -7.3114888048050330e-05 0.0000000000000000e+00  1.1700670293084573e-05 -2.3255154113918243e-04 0.0000000000000000e+00  7.1988207643331253e-06 -4.8143788159484471e-05 0.0000000000000000e+00  1.0000032849738321e-05 -9.0751022963911628e-05 0.0000000000000000e+00  1.1984311325594972e-05 -2.0878688971080224e-04 0.0000000000000000e+00  1.1213223549779522e-05 -2.5673082439076376e-04 0.0000000000000000e+00  1.0786434834891006e-05 -1.1003379323504477e-04 0.0000000000000000e+00  1.2063950157513429e-05 -1.8554173136289524e-04 0.0000000000000000e+00  1.1195185724867908e-05 -1.2958266263801311e-04 0.0000000000000000e+00  1.2143082286449392e-05 -1.6342810468453854e-04 0.0000000000000000e+00  1.1689260070226794e-05 -1.4560434160108365e-04 0.0000000000000000e+00  8.2066987748393721e-06 -5.9695278917102851e-05 0.0000000000000000e+00  5.9487981209422848e-06 -3.7590669351657101e-04 0.0000000000000000e+00  3.7107090991501090e-06 -1.5610897200800122e-05 0.0000000000000000e+00  -1.7860040475942047e-06 -4.0609613682471182e-04 0.0000000000000000e+00  -1.4933989743379369e-07 -5.8395471906481136e-07 0.0000000000000000e+00  4.2492663104696655e-06 -3.1774686169116958e-04 0.0000000000000000e+00  3.0121024070840615e-06 -3.4277741455653678e-04 0.0000000000000000e+00  3.4377438799988443e-06 -7.8974875804696099e-06 0.0000000000000000e+00  7.7309795599161680e-06 -3.0007962857784019e-05 0.0000000000000000e+00  6.7882985862739987e-06 -2.4381259979238258e-04 0.0000000000000000e+00  5.2887527675380797e-06 -2.9286561608800495e-04 0.0000000000000000e+00  1.3019440942932646e-05 -8.2656887470055766e-05 0.0000000000000000e+00  7.2565576717554733e-06 -2.1979596474895944e-04 0.0000000000000000e+00  9.4006942243666813e-06 -4.2781515297797612e-05 0.0000000000000000e+00  1.4141723068003275e-05 -1.0127036321369019e-04 0.0000000000000000e+00  7.5404875868618701e-06 -1.9624581478025490e-04 0.0000000000000000e+00  6.1333746243778181e-06 -2.6819671708376829e-04 0.0000000000000000e+00  1.5931406554009723e-05 -1.2122564712971833e-04 0.0000000000000000e+00  7.6431749617939164e-06 -1.7327177662396890e-04 0.0000000000000000e+00  -3.7179993350252157e-07 -9.4189636277531442e-07 0.0000000000000000e+00  -6.4089037745283610e-07 6.3411958745418362e-07 0.0000000000000000e+00  6.1629173306426827e-06 -4.2920818835925624e-04 0.0000000000000000e+00  1.5261581028391163e-06 -3.53