<?xml version="1.0"?>
<VTKFile type="UnstructuredGrid"  version="0.1"  >
<UnstructuredGrid>
<Piece  NumberOfPoints="1419" NumberOfCells="2698">
<Points>
<DataArray  type="Float64"  NumberOfComponents="3"  format="ascii">0 0 0  0 0.41 0  2.5 0 0  2.5 0.41 0  0.6 0.19 0  0.6 0.21 0  0.25 0.2 0  0.15 0.2 0  0.2489897948556636 0.21 0  0.2489897948556636 0.19 0  0.6 0.2 0  0 0.3807142857143437 0  0 0.3514285714286952 0  0 0.3221428571430699 0  0 0.29285714285744 0  0 0.2635714285718054 0  0 0.2342857142861561 0  0 0.2050000000005308 0  0 0.175714285714732 0  0 0.1464285714289574 0  0 0.1171428571431897 0  0 0.08785714285737878 0  0 0.05857142857161107 0  0 0.02928571428580012 0  0.03015443760436003 0 0  0.06140001986583606 0 0  0.09377624077125973 0 0  0.1273239957535082 0 0  0.1620856860351972 0 0  0.1981052433264291 0 0  0.235428184091502 0 0  0.2741016576309132 0 0  0.3141745521465447 0 0  0.3556974926295285 0 0  0.3987229542472677 0 0  0.4433053055141081 0 0  0.4895008759286886 0 0  0.5373680609405097 0 0  0.5869673343216626 0 0  0.6383613676634521 0 0  0.6916151138468254 0 0  0.7467958595648856 0 0  0.8039733463919316 0 0  0.8632198139502143 0 0  0.9246101326867038 0 0  0.9882218810934433 0 0  1.054135445558498 0 0  1.122434100542598 0 0  1.193204177141305 0 0  1.266535089879536 0 0  1.342519516046404 0 0  1.421253448503939 0 0  1.502836389106271 0 0  1.587371439758838 0 0  1.674965418777374 0 0  1.765729001825544 0 0  1.859776908880082 0 0  1.957227977487062 0 0  2.058205329869943 0 0  2.162836591189951 0 0  2.271253957290865 0 0  2.383594446803425 0 0  2.5 0.1024999999997612 0  2.5 0.2049999999994743 0  2.5 0.3074999999997183 0  2.383594446803656 0.41 0  2.271253957291315 0.41 0  2.162836591190598 0.41 0  2.058205329870775 0.41 0  1.957227977488067 0.41 0  1.859776908881246 0.41 0  1.765729001826854 0.41 0  1.674965418778818 0.41 0  1.58737143976041 0.41 0  1.502836389107956 0.41 0  1.421253448505726 0.41 0  1.342519516048286 0.41 0  1.266535089881505 0.41 0  1.193204177143353 0.41 0  1.122434100544716 0.41 0  1.05413544556068 0.41 0  0.9882218810956305 0.41 0  0.9246101326886647 0.41 0  0.8632198139519631 0.41 0  0.8039733463934788 0.41 0  0.7467958595662458 0.41 0  0.6916151138480078 0.41 0  0.6383613676644679 0.41 0  0.5869673343225223 0.41 0  0.5373680609412221 0.41 0  0.4895008759292634 0.41 0  0.4433053055145528 0.41 0  0.3987229542475914 0.41 0  0.3556974926297398 0.41 0  0.3141745521466497 0.41 0  0.2741016576310038 0.41 0  0.2354281840915826 0.41 0  0.1981052433265003 0.41 0  0.1620856860352591 0.41 0  0.1273239957535623 0.41 0  0.09377624077128965 0.41 0  0.06140001986584975 0.41 0  0.03015443760436654 0.41 0  0.2497468076502589 0.2050254481002335 0  0.2497468076502614 0.1949745518997913 0  0.2469965252529372 0.1829317073451959 0  0.2439893735792749 0.1762316384219906 0  0.2400332147834255 0.1700443375285386 0  0.2352133972704371 0.1645032867342007 0  0.2296339016332438 0.1597280261969788 0  0.2234150974217223 0.1558215752574715 0  0.2166911463437691 0.1528682099456123 0  0.2096071079204251 0.1509316448471593 0  0.2023158100364996 0.1500536585536553 0  0.194974551899914 0.1502531923497262 0  0.1877417105387872 0.1515259415822739 0  0.1807733240461124 0.153844448527136 0  0.1742197252835808 0.15715869474974 0  0.1682222986673531 0.1613971801805478 0  0.162910430003803 0.1664684656256651 0  0.1583987151779087 0.1722631454351573 0  0.1547844879126891 0.178656207771761 0  0.1521457199348551 0.1855097315605723 0  0.1505393388476355 0.1926758619366523 0  0.1505393388476328 0.2073241380633295 0  0.1521457199348437 0.2144902684393899 0  0.1547844879126531 0.221343792228163 0  0.1583987151778488 0.2277368545647528 0  0.1629104300036858 0.2335315343742052 0  0.1682222986671726 0.2386028198193036 0  0.1742197252833576 0.2428413052501257 0  0.1807733240458683 0.2461555514727623 0  0.1877417105384929 0.2484740584176516 0  0.1949745518995776 0.2497468076502398 0  0.202315810036185 0.2499463414463592 0  0.2096071079201568 0.2490683551528932 0  0.2166911463435495 0.2471317900544655 0  0.2234150974215506 0.2441784247426195 0  0.2296339016331197 0.2402719738031125 0  0.2352133972703547 0.2354967132658811 0  0.2400332147833751 0.2299556624715287 0  0.2439893735792577 0.2237683615780412 0  0.246996525252926 0.2170682926548348 0  0.25645809709277 0.21 0  0.2639263993298655 0.21 0  0.271394701566961 0.21 0  0.2788630038040554 0.21 0  0.2863313060411479 0.21 0  0.2937996082782405 0.21 0  0.301267910515333 0.21 0  0.3087362127524279 0.21 0  0.3162045149895234 0.21 0  0.3236728172265972 0.21 0  0.3311411194636928 0.21 0  0.3386094217007701 0.21 0  0.3460777239378666 0.21 0  0.3535460261749672 0.21 0  0.3610143284120516 0.21 0  0.3684826306491596 0.21 0  0.3759509328862226 0.21 0  0.383419235123329 0.21 0  0.3908875373604028 0.21 0  0.3983558395975142 0.21 0  0.4058241418345938 0.21 0  0.4132924440716992 0.21 0  0.4207607463087888 0.21 0  0.4282290485459029 0.21 0  0.4356973507830418 0.21 0  0.4431656530201649 0.21 0  0.4506339552573136 0.21 0  0.4581022574944306 0.21 0  0.4655705597315852 0.21 0  0.4730388619686996 0.21 0  0.480507164205851 0.21 0  0.4879754664429498 0.21 0  0.4954437686800938 0.21 0  0.502912070917267 0.21 0  0.5103803731544119 0.21 0  0.5178486753915261 0.21 0  0.5253169776286404 0.21 0  0.5327852798657868 0.21 0  0.5402535821029386 0.21 0  0.54772188434007 0.21 0  0.5551901865771842 0.21 0  0.5626584888143201 0.21 0  0.5701267910514778 0.21 0  0.5775950932886138 0.21 0  0.5850633955257281 0.21 0  0.5925316977628483 0.21 0  0.6 0.2050000000000054 0  0.6 0.1950000000000217 0  0.5925316977628897 0.19 0  0.5850633955257988 0.19 0  0.5775950932887378 0.19 0  0.5701267910515998 0.19 0  0.5626584888145268 0.19 0  0.5551901865773963 0.19 0  0.547721884340339 0.19 0  0.5402535821032429 0.19 0  0.5327852798661811 0.19 0  0.5253169776290537 0.19 0  0.5178486753919799 0.19 0  0.5103803731549078 0.19 0  0.502912070917822 0.19 0  0.4954437686807294 0.19 0  0.4879754664436223 0.19 0  0.4805071642065402 0.19 0  0.4730388619694271 0.19 0  0.4655705597323621 0.19 0  0.4581022574952563 0.19 0  0.4506339552581777 0.19 0  0.4431656530210671 0.19 0  0.4356973507839815 0.19 0  0.4282290485468779 0.19 0  0.4207607463097617 0.19 0  0.4132924440726327 0.19 0  0.4058241418354857 0.19 0  0.3983558395983636 0.19 0  0.3908875373612097 0.19 0  0.3834192351240934 0.19 0  0.3759509328869369 0.19 0  0.3684826306498175 0.19 0  0.361014328412667 0.19 0  0.3535460261755617 0.19 0  0.3460777239384295 0.19 0  0.3386094217012945 0.19 0  0.3311411194641595 0.19 0  0.3236728172270245 0.19 0  0.3162045149898895 0.19 0  0.3087362127527544 0.19 0  0.3012679105156187 0.19 0  0.2937996082784807 0.19 0  0.2863313060413428 0.19 0  0.2788630038042048 0.19 0  0.2713947015670686 0.19 0  0.2639263993299336 0.19 0  0.2564580970927985 0.19 0  0.2607803159922026 0.2000727136295815 0  0.5887803774232762 0.2001272386983733 0  0.5745072403740523 0.2002044435018727 0  0.5511891430099709 0.2001122610077113 0  0.2751288526855082 0.20000000000002 0  0.5365194309847112 0.1999999999999436 0  0.2894621222999649 0.1998691686390484 0  0.5215828265105155 0.1999999999999228 0  0.3127789816668748 0.1998657885438805 0  0.3274069683451451 0.2000000000000796 0  0.5066462220363641 0.199999999999908 0  0.3650630746574081 0.199866017807523 0  0.476773013087985 0.1999999999998713 0  0.3417402379596385 0.1998691686391011 0  0.3796850840047755 0.200000000000134 0  0.4618364086138087 0.1999999999998546 0  0.4917096175621762 0.1999999999998808 0  0.3946216884789568 0.2000000000001512 0  0.446899804139621 0.1999999999998389 0  0.4089549580935208 0.1998691686391595 0  0.4322718174608562 0.200127451265745 0  0.4201487168029707 0.1999966199048527 0  0.3528922713220932 0.2000185703532356 0  0.5633122436674589 0.1999814296467508 0  0.3006558810093873 0.1999966199048318 0  0.5815926498168407 0.1966545283159175 0  0.2677053789419034 0.1964246479135325 0  0.5290511287476175 0.1970915826863981 0  0.5439877332217911 0.197091582686394 0  0.2825131256993216 0.2035478995978015 0  0.3199386661080599 0.202908417313604 0  0.4842413153250809 0.1970915826863873 0  0.5141145242734466 0.1970915826863843 0  0.3722167817676917 0.2029084173136195 0  0.4693047108508938 0.1970915826863783 0  0.3348752705822316 0.202908417313609 0  0.3871533862418661 0.2029084173136212 0  0.4543681063767183 0.1970915826863795 0  0.4991779197992749 0.1970915826863902 0  0.4020059614928624 0.203547899597858 0  0.4394315019025246 0.1970915826863714 0  0.2550657455369551 0.2034088125358657 0  0.2548908499171161 0.1966940311614271 0  0.5946539510196798 0.2024302972968126 0  0.267698176732111 0.2039977513680092 0  0.4261685417851465 0.196409292431739 0  0.3590076176283495 0.196411355804271 0  0.5571672426447437 0.2036011176410121 0  0.3066757059912147 0.1964092924317024 0  0.594380730180568 0.1966558399668133 0  0.4842413153245942 0.2040749161535287 0  0.4693047108503577 0.2040749161535231 0  0.3871533862424271 0.1959250838464788 0  0.372246743208829 0.1959123236376545 0  0.5141145242731028 0.2040749161535395 0  0.4543681063761134 0.2040749161535186 0  0.4019979587101454 0.1959834479682427 0  0.4394608940728603 0.2040870543693135 0  0.5439623148931173 0.2040856076781014 0  0.5290511287473298 0.2040749161535501 0  0.4991779197988497 0.2040749161535382 0  0.3347912413592433 0.1959225448935183 0  0.3199680582793816 0.1959123018030061 0  0.2825051229162361 0.1959834479681729 0  0.3590471196690275 0.2036304442587945 0  0.5571594006495384 0.1963685282145804 0  0.3067669986803285 0.203627750582736 0  0.4262598344738712 0.2036568242185335 0  0.5814408164431408 0.2041285596160068 0  0.5688286748170428 0.1961819304477386 0  0.4145905603063645 0.2038180695522843 0  0.3473758401724931 0.2038180695522752 0  0.2950977245128307 0.2038180695522663 0  0.5688286748170693 0.203818069552238 0  0.2950977245127906 0.1961819304477774 0  0.3473758401723931 0.1961819304478349 0  0.4145905603061963 0.1961819304479011 0  0.2601812407614425 0.2056861609747042
[...]
<PointData  Vectors="f_40-1"> 
<DataArray  type="Float64"  Name="f_40-1"  NumberOfComponents="3" format="ascii">0.0000000000000000e+00 0.0000000000000000e+00 0.0000000000000000e+00  0.0000000000000000e+00 0.0000000000000000e+00 0.0000000000000000e+00  0.0000000000000000e+00 0.0000000000000000e+00 0.0000000000000000e+00  0.0000000000000000e+00 0.0000000000000000e+00 0.0000000000000000e+00  -1.1201609406167242e-05 -7.1297984302417180e-05 0.0000000000000000e+00  -5.5877082755851773e-06 -7.3525752148083980e-05 0.0000000000000000e+00  0.0000000000000000e+00 0.0000000000000000e+00 0.0000000000000000e+00  0.0000000000000000e+00 0.0000000000000000e+00 0.0000000000000000e+00  0.0000000000000000e+00 0.0000000000000000e+00 0.0000000000000000e+00  0.0000000000000000e+00 0.0000000000000000e+00 0.0000000000000000e+00  -8.5274872556980357e-06 -7.2411370052473522e-05 0.0000000000000000e+00  0.0000000000000000e+00 0.0000000000000000e+00 0.0000000000000000e+00  0.0000000000000000e+00 0.0000000000000000e+00 0.0000000000000000e+00  0.0000000000000000e+00 0.0000000000000000e+00 0.0000000000000000e+00  0.0000000000000000e+00 0.0000000000000000e+00 0.0000000000000000e+00  0.0000000000000000e+00 0.0000000000000000e+00 0.0000000000000000e+00  0.0000000000000000e+00 0.0000000000000000e+00 0.0000000000000000e+00  0.0000000000000000e+00 0.0000000000000000e+00 0.0000000000000000e+00  0.0000000000000000e+00 0.0000000000000000e+00 0.0000000000000000e+00  0.0000000000000000e+00 0.0000000000000000e+00 0.0000000000000000e+00  0.0000000000000000e+00 0.0000000000000000e+00 0.0000000000000000e+00  0.0000000000000000e+00 0.0000000000000000e+00 0.0000000000000000e+00  0.0000000000000000e+00 0.0000000000000000e+00 0.0000000000000000e+00  0.0000000000000000e+00 0.0000000000000000e+00 0.0000000000000000e+00  0.0000000000000000e+00 0.0000000000000000e+00 0.0000000000000000e+00  0.0000000000000000e+00 0.0000000000000000e+00 0.0000000000000000e+00  0.0000000000000000e+00 0.0000000000000000e+00 0.0000000000000000e+00  0.0000000000000000e+00 0.0000000000000000e+00 0.0000000000000000e+00  0.0000000000000000e+00 0.0000000000000000e+00 0.0000000000000000e+00  0.0000000000000000e+00 0.0000000000000000e+00 0.0000000000000000e+00  0.0000000000000000e+00 0.0000000000000000e+00 0.0000000000000000e+00  0.0000000000000000e+00 0.0000000000000000e+00 0.0000000000000000e+00  0.0000000000000000e+00 0.0000000000000000e+00 0.0000000000000000e+00  0.0000000000000000e+00 0.0000000000000000e+00 0.0000000000000000e+00  0.0000000000000000e+00 0.0000000000000000e+00 0.0000000000000000e+00  0.0000000000000000e+00 0.0000000000000000e+00 0.0000000000000000e+00  0.0000000000000000e+00 0.0000000000000000e+00 0.0000000000000000e+00  0.0000000000000000e+00 0.0000000000000000e+00 0.0000000000000000e+00  0.0000000000000000e+00 0.0000000000000000e+00 0.0000000000000000e+00  0.0000000000000000e+00 0.0000000000000000e+00 0.0000000000000000e+00  0.0000000000000000e+00 0.0000000000000000e+00 0.0000000000000000e+00  0.0000000000000000e+00 0.0000000000000000e+00 0.0000000000000000e+00  0.0000000000000000e+00 0.0000000000000000e+00 0.0000000000000000e+00  0.0000000000000000e+00 0.0000000000000000e+00 0.0000000000000000e+00  0.0000000000000000e+00 0.0000000000000000e+00 0.0000000000000000e+00  0.0000000000000000e+00 0.0000000000000000e+00 0.0000000000000000e+00  0.0000000000000000e+00 0.0000000000000000e+00 0.0000000000000000e+00  0.0000000000000000e+00 0.0000000000000000e+00 0.0000000000000000e+00  0.0000000000000000e+00 0.0000000000000000e+00 0.0000000000000000e+00  0.0000000000000000e+00 0.0000000000000000e+00 0.0000000000000000e+00  0.0000000000000000e+00 0.0000000000000000e+00 0.0000000000000000e+00  0.0000000000000000e+00 0.0000000000000000e+00 0.0000000000000000e+00  0.0000000000000000e+00 0.0000000000000000e+00 0.0000000000000000e+00  0.0000000000000000e+00 0.0000000000000000e+00 0.0000000000000000e+00  0.0000000000000000e+00 0.0000000000000000e+00 0.0000000000000000e+00  0.0000000000000000e+00 0.0000000000000000e+00 0.0000000000000000e+00  0.0000000000000000e+00 0.0000000000000000e+00 0.0000000000000000e+00  0.0000000000000000e+00 0.0000000000000000e+00 0.0000000000000000e+00  0.0000000000000000e+00 0.0000000000000000e+00 0.0000000000000000e+00  0.0000000000000000e+00 0.0000000000000000e+00 0.0000000000000000e+00  0.0000000000000000e+00 0.0000000000000000e+00 0.0000000000000000e+00  0.0000000000000000e+00 0.0000000000000000e+00 0.0000000000000000e+00  0.0000000000000000e+00 0.0000000000000000e+00 0.0000000000000000e+00  0.0000000000000000e+00 0.0000000000000000e+00 0.0000000000000000e+00  0.0000000000000000e+00 0.0000000000000000e+00 0.0000000000000000e+00  0.0000000000000000e+00 0.0000000000000000e+00 0.0000000000000000e+00  0.0000000000000000e+00 0.0000000000000000e+00 0.0000000000000000e+00  0.0000000000000000e+00 0.0000000000000000e+00 0.0000000000000000e+00  0.0000000000000000e+00 0.0000000000000000e+00 0.0000000000000000e+00  0.0000000000000000e+00 0.0000000000000000e+00 0.0000000000000000e+00  0.0000000000000000e+00 0.0000000000000000e+00 0.0000000000000000e+00  0.0000000000000000e+00 0.0000000000000000e+00 0.0000000000000000e+00  0.0000000000000000e+00 0.0000000000000000e+00 0.0000000000000000e+00  0.0000000000000000e+00 0.0000000000000000e+00 0.0000000000000000e+00  0.0000000000000000e+00 0.0000000000000000e+00 0.0000000000000000e+00  0.0000000000000000e+00 0.0000000000000000e+00 0.0000000000000000e+00  0.0000000000000000e+00 0.0000000000000000e+00 0.0000000000000000e+00  0.0000000000000000e+00 0.0000000000000000e+00 0.0000000000000000e+00  0.0000000000000000e+00 0.0000000000000000e+00 0.0000000000000000e+00  0.0000000000000000e+00 0.0000000000000000e+00 0.0000000000000000e+00  0.0000000000000000e+00 0.0000000000000000e+00 0.0000000000000000e+00  0.0000000000000000e+00 0.0000000000000000e+00 0.0000000000000000e+00  0.0000000000000000e+00 0.0000000000000000e+00 0.0000000000000000e+00  0.0000000000000000e+00 0.0000000000000000e+00 0.0000000000000000e+00  0.0000000000000000e+00 0.0000000000000000e+00 0.0000000000000000e+00  0.0000000000000000e+00 0.0000000000000000e+00 0.0000000000000000e+00  0.0000000000000000e+00 0.0000000000000000e+00 0.0000000000000000e+00  0.0000000000000000e+00 0.0000000000000000e+00 0.0000000000000000e+00  0.0000000000000000e+00 0.0000000000000000e+00 0.0000000000000000e+00  0.0000000000000000e+00 0.0000000000000000e+00 0.0000000000000000e+00  0.0000000000000000e+00 0.0000000000000000e+00 0.0000000000000000e+00  0.0000000000000000e+00 0.0000000000000000e+00 0.0000000000000000e+00  0.0000000000000000e+00 0.0000000000000000e+00 0.0000000000000000e+00  0.0000000000000000e+00 0.0000000000000000e+00 0.0000000000000000e+00  0.0000000000000000e+00 0.0000000000000000e+00 0.0000000000000000e+00  0.0000000000000000e+00 0.0000000000000000e+00 0.0000000000000000e+00  0.0000000000000000e+00 0.0000000000000000e+00 0.0000000000000000e+00  0.0000000000000000e+00 0.0000000000000000e+00 0.0000000000000000e+00  0.0000000000000000e+00 0.0000000000000000e+00 0.0000000000000000e+00  0.0000000000000000e+00 0.0000000000000000e+00 0.0000000000000000e+00  0.0000000000000000e+00 0.0000000000000000e+00 0.0000000000000000e+00  0.0000000000000000e+00 0.0000000000000000e+00 0.0000000000000000e+00  0.0000000000000000e+00 0.0000000000000000e+00 0.0000000000000000e+00  0.0000000000000000e+00 0.0000000000000000e+00 0.0000000000000000e+00  0.0000000000000000e+00 0.0000000000000000e+00 0.0000000000000000e+00  0.0000000000000000e+00 0.0000000000000000e+00 0.0000000000000000e+00  0.0000000000000000e+00 0.0000000000000000e+00 0.0000000000000000e+00  0.0000000000000000e+00 0.0000000000000000e+00 0.0000000000000000e+00  0.0000000000000000e+00 0.0000000000000000e+00 0.0000000000000000e+00  0.0000000000000000e+00 0.0000000000000000e+00 0.0000000000000000e+00  0.0000000000000000e+00 0.0000000000000000e+00 0.0000000000000000e+00  0.0000000000000000e+00 0.0000000000000000e+00 0.0000000000000000e+00  0.0000000000000000e+00 0.0000000000000000e+00 0.0000000000000000e+00  0.0000000000000000e+00 0.0000000000000000e+00 0.0000000000000000e+00  0.0000000000000000e+00 0.0000000000000000e+00 0.0000000000000000e+00  0.0000000000000000e+00 0.0000000000000000e+00 0.0000000000000000e+00  0.0000000000000000e+00 0.0000000000000000e+00 0.0000000000000000e+00  0.0000000000000000e+00 0.0000000000000000e+00 0.0000000000000000e+00  0.0000000000000000e+00 0.0000000000000000e+00 0.0000000000000000e+00  0.0000000000000000e+00 0.0000000000000000e+00 0.0000000000000000e+00  0.0000000000000000e+00 0.0000000000000000e+00 0.0000000000000000e+00  0.0000000000000000e+00 0.0000000000000000e+00 0.0000000000000000e+00  0.0000000000000000e+00 0.0000000000000000e+00 0.0000000000000000e+00  0.0000000000000000e+00 0.0000000000000000e+00 0.0000000000000000e+00  0.0000000000000000e+00 0.0000000000000000e+00 0.0000000000000000e+00  0.0000000000000000e+00 0.0000000000000000e+00 0.0000000000000000e+00  0.0000000000000000e+00 0.0000000000000000e+00 0.0000000000000000e+00  0.0000000000000000e+00 0.0000000000000000e+00 0.0000000000000000e+00  0.0000000000000000e+00 0.0000000000000000e+00 0.0000000000000000e+00  0.0000000000000000e+00 0.0000000000000000e+00 0.0000000000000000e+00  0.0000000000000000e+00 0.0000000000000000e+00 0.0000000000000000e+00  0.0000000000000000e+00 0.0000000000000000e+00 0.0000000000000000e+00  0.0000000000000000e+00 0.0000000000000000e+00 0.0000000000000000e+00  0.0000000000000000e+00 0.0000000000000000e+00 0.0000000000000000e+00  0.0000000000000000e+00 0.0000000000000000e+00 0.0000000000000000e+00  0.0000000000000000e+00 0.0000000000000000e+00 0.0000000000000000e+00  0.0000000000000000e+00 0.0000000000000000e+00 0.0000000000000000e+00  0.0000000000000000e+00 0.0000000000000000e+00 0.0000000000000000e+00  0.0000000000000000e+00 0.0000000000000000e+00 0.0000000000000000e+00  0.0000000000000000e+00 0.0000000000000000e+00 0.0000000000000000e+00  0.0000000000000000e+00 0.0000000000000000e+00 0.0000000000000000e+00  0.0000000000000000e+00 0.0000000000000000e+00 0.0000000000000000e+00  0.0000000000000000e+00 0.0000000000000000e+00 0.0000000000000000e+00  1.3793901217134473e-07 -2.0938745961997178e-06 0.0000000000000000e+00  3.5461080868637270e-07 -2.4162990105351584e-06 0.0000000000000000e+00  6.5286671167325681e-07 -2.7388144940046767e-06 0.0000000000000000e+00  1.0090618644756746e-06 -3.1168584977606359e-06 0.0000000000000000e+00  1.3484496961028969e-06 -3.5930979531393264e-06 0.0000000000000000e+00  1.6874151359874499e-06 -4.1971869789168346e-06 0.0000000000000000e+00  1.9830667781946004e-06 -4.8813680329096393e-06 0.0000000000000000e+00  2.2534904397524721e-06 -5.6734198534743906e-06 0.0000000000000000e+00  2.5285539864055145e-06 -6.5503102608623847e-06 0.0000000000000000e+00  2.7482302320651281e-06 -7.5064197606317633e-06 0.0000000000000000e+00  2.9729885677848903e-06 -8.5578416688853404e-06 0.0000000000000000e+00  3.1448676480686839e-06 -9.6761476407556716e-06 0.0000000000000000e+00  3.3122803451946704e-06 -1.0876140848341942e-05 0.0000000000000000e+00  3.4399060698674140e-06 -1.2137275491764264e-05 0.0000000000000000e+00  3.5401940673612966e-06 -1.3471459509014923e-05 0.0000000000000000e+00  3.6367418724137016e-06 -1.4866966352539536e-05 0.0000000000000000e+00  3.6859563697751452e-06 -1.6311245040655146e-05 0.0000000000000000e+00  3.7292085196215298e-06 -1.7825044280687938e-05 0.0000000000000000e+00  3.7291711367279445e-06 -1.9375329861794831e-05 0.0000000000000000e+00  3.7206083474400640e-06 -2.0986553777697698e-05 0.0000000000000000e+00  3.6749749205113403e-06 -2.2630271559451197e-05 0.0000000000000000e+00  3.6115673585721731e-06 -2.4324952222274006e-05 0.0000000000000000e+00  3.5197599408643244e-06 -2.6051372285393836e-05 0.0000000000000000e+00  3.4010586952631445e-06 -2.7816556850917823e-05 0.0000000000000000e+00  3.2716832888072985e-06 -2.9614898238485929e-05 0.0000000000000000e+00  3.1083014954295033e-06 -3.1436248679087104e-05 0.0000000000000000e+00  2.9234919031613428e-06 -3.3299879431040815e-05 0.0000000000000000e+00  2.7126509121930203e-06 -3.5173579344600027e-05 0.0000000000000000e+00  2.4802092010731839e-06 -3.7084891194304266e-05 0.0000000000000000e+00  2.2227816140352151e-06 -3.9003611529517182e-05 0.0000000000000000e+00  1.9436799223832374e-06 -4.0955030546528567e-05 0.0000000000000000e+00  1.6396284720326123e-06 -4.2909892617991225e-05 0.0000000000000000e+00  1.3146552907175126e-06 -4.4894209984854911e-05 0.0000000000000000e+00  9.6453290979605860e-07 -4.6877154538833728e-05 0.0000000000000000e+00  5.9188800824897074e-07 -4.8887713947568811e-05 0.0000000000000000e+00  1.9583302074527348e-07 -5.0894727131440201e-05 0.0000000000000000e+00  -2.2177539978340897e-07 -5.2925092700414442e-05 0.0000000000000000e+00  -6.6277331095279961e-07 -5.4949896907258578e-05 0.0000000000000000e+00  -1.1263675812317361e-06 -5.6995443751307495e-05 0.0000000000000000e+00  -1.6141711309400315e-06 -5.9033390394561014e-05 0.0000000000000000e+00  -2.1275094913614435e-06 -6.1085161540137687e-05 0.0000000000000000e+00  -2.6591426281386726e-06 -6.3135487832571130e-05 0.0000000000000000e+00  -3.2181266591975518e-06 -6.5191290968494260e-05 0.0000000000000000e+00  -3.7905416461515177e-06 -6.7248598230098275e-05 0.0000000000000000e+00  -4.3900433615839186e-06 -6.9300125848217322e-05 0.0000000000000000e+00  -4.9987700148154786e-06 -7.1371064808754736e-05 0.0000000000000000e+00  -7.1056366615529873e-06 -7.2968205594017271e-05 0.0000000000000000e+00  -9.9066151155539477e-06 -7.1856200663073544e-05 0.0000000000000000e+00  -1.0606666329708842e-05 -6.9262469815091238e-05 0.0000000000000000e+00  -9.9884760319858906e-06 -6.7145793929544674e-05 0.0000000000000000e+00  -9.3814258142668970e-06 -6.5019327334545410e-05 0.0000000000000000e+00  -8.7986980549171953e-06 -6.2904013522916408e-05 0.0000000000000000e+00  -8.2303797618744122e-06 -6.0791481736852240e-05 0.0000000000000000e+00  -7.6887905201447328e-06 -5.8683354874627894e-05 0.0000000000000000e+00  -7.1620707615649537e-06 -5.6582686458778223e-05 0.0000000000000000e+00  -6.6606314496496093e-06 -5.4479784084898264e-05 0.0000000000000000e+00  -6.1771393098998775e-06 -5.2394923733731210e-05 0.0000000000000000e+00  -5.7161428957530280e-06 -5.0304270054149797e-05 0.0000000000000000e+00  -5.2718666462064531e-06 -4.8234776929935784e-05 0.0000000000000000e+00  -4.8506619610526350e-06 -4.6162168276722061e-05 0.0000000000000000e+00  -4.4448607656785601e-06 -4.4113327963911958e-05 0.0000000000000000e+00  -4.0621868211407940e-06 -4.2064496801167712e-05 0.0000000000000000e+00  -3.6932178325500127e-06 -4.0042037391665414e-05 0.0000000000000000e+00  -3.3483159535163987e-06 -3.8022697954726860e-05 0.0000000000000000e+00  -3.0158043711728251e-06 -3.6032853751193070e-05 0.0000000000000000e+00  -2.7083199588545251e-06 -3.4049827235167030e-05 0.0000000000000000e+00  -2.4113301454376099e-06 -3.2100576725111387e-05 0.0000000000000000e+00  -2.1401631633155284e-06 -3.0162712212695155e-05 0.0000000000000000e+00  -1.8773358018580733e-06 -2.8262576155919521e-05 0.0000000000000000e+00  -1.6416063275072565e-06 -2.6379146460253348e-05 0.0000000000000000e+00  -1.4157040596735399e-06 -2.4534011401362709e-05 0.0000000000000000e+00  -1.2112709580625799e-06 -2.2715998882062413e-05 0.0000000000000000e+00  -1.0284867182740489e-06 -2.0940344635965731e-05 0.0000000000000000e+00  -8.4711229097529683e-07 -1.9197467008614684e-05 0.0000000000000000e+00  -6.9294532948024901e-07 -1.7494076458300156e-05 0.0000000000000000e+00  -5.4923577204760497e-07 -1.5844902563290669e-05 0.0000000000000000e+00  -4.2715003042072424e-07 -1.4232246050287689e-05 0.0000000000000000e+00  -3.1616862183538448e-07 -1.2682628146704807e-05 0.0000000000000000e+00  -2.2629989108179076e-07 -1.1174274330371787e-05 0.0000000000000000e+00  -1.4292779215213679e-07 -9.7395738826239912e-06 0.0000000000000000e+00  -8.4279620613693709e-08 -8.3523395366606170e-06 0.0000000000000000e+00  -4.5120391995409342e-08 -7.0448320778687069e-06 0.0000000000000000e+00  8.0097860149105926e-10 -5.7933465137902755e-06 0.0000000000000000e+00  1.7838193822648684e-08 -4.6205140254866505e-06 0.0000000000000000e+00  2.8245397121659465e-08 -3.5339376296859181e-06 0.0000000000000000e+00  1.6223466141285875e-08 -2.5187653699715247e-06 0.0000000000000000e+00  5.1227925561052082e-09 -1.6060942031474229e-06 0.0000000000000000e+00  -3.5537543313344804e-08 -7.6765086061279257e-07 0.0000000000000000e+00  -9.3717314493486297e-08 -4.1806083542948471e-08 0.0000000000000000e+00  -1.3482726662063214e-07 6.0130856917386010e-07 0.0000000000000000e+00  -2.0895392031170633e-07 1.1479498842087104e-06 0.0000000000000000e+00  -2.4673352092877025e-07 1.5774489344593063e-06 0.0000000000000000e+00  -2.6185604143598610e-07 1.8302649923024455e-06 0.0000000000000000e+00  -1.5766122030929088e-07 1.8503526484734282e-06 0.0000000000000000e+00  -3.5766187353672190e-07 -1.3579748118838725e-07 0.0000000000000000e+00  -7.5102323483482302e-06 -6.9275698266945800e-05 0.0000000000000000e+00  -6.3040845531896283e-06 -6.5291004455733412e-05 0.0000000000000000e+00  -4.6115290632099624e-06 -5.8781719933825356e-05 0.0000000000000000e+00  2.8083272271160941e-07 -6.9723398961231421e-07 0.0000000000000000e+00  -3.6739760449896024e-06 -5.4699538174656721e-05 0.0000000000000000e+00  6.7004277591562937e-07 -1.6475238810871675e-06 0.0000000000000000e+00  -2.7702239685036109e-06 -5.0582542432053916e-05 0.0000000000000000e+00  1.1784482058496637e-06 -4.0271159334666305e-06 0.0000000000000000e+00  1.4267128177436520e-06 -5.9926964893533522e-06 0.0000000000000000e+00  -1.9514642150234067e-06 -4.6501142743648323e-05 0.0000000000000000e+00  1.6641345443518524e-06 -1.2300253129004905e-05 0.0000000000000000e+00  -5.6598157152876468e-07 -3.8489163516592841e-05 0.0000000000000000e+00  1.5666022854318770e-06 -8.1646543468739840e-06 0.0000000000000000e+00  1.6521219614681646e-06 -1.5221717829470763e-05 0.0000000000000000e+00  1.8771949681891708e-09 -3.4584884565978726e-05 0.0000000000000000e+00  -1.2168889301694536e-06 -4.2465857937068374e-05 0.0000000000000000e+00  1.5367525836957074e-06 -1.8388609997016787e-05 0.0000000000000000e+00  4.8675135743964905e-07 -3.0769665301143485e-05 0.0000000000000000e+00  1.3213539871161380e-06 -2.1579099126891518e-05 0.0000000000000000e+00  9.1517264803962127e-07 -2.7156984141161870e-05 0.0000000000000000e+00  1.1435400999318506e-06 -2.4220731159340031e-05 0.0000000000000000e+00  1.6564345835369697e-06 -1.0101037851223321e-05 0.0000000000000000e+00  -5.5224790947976855e-06 -6.2141754280500066e-05 0.0000000000000000e+00  9.4034794713371547e-07 -2.7161547946503672e-06 0.0000000000000000e+00  -7.8708980587765723e-06 -6.6887695874455415e-05 0.0000000000000000e+00  -1.2922001680419684e-07 4.4522926752037174e-07 0.0000000000000000e+00  -4.0118055400369980e-06 -5.2261686718891855e-05 0.0000000000000000e+00  -4.9632769090540106e-06 -5.6407543246544744e-05 0.0000000000000000e+00  7.3039280467767916e-07 -1.9128877215807768e-06 0.0000000000000000e+00  1.6978866105201195e-06 -5.5515072101509504e-06 0.0000000000000000e+00  -1.6534671283844781e-06 -4.0049207508178239e-05 0.0000000000000000e+00  -3.1435362478023930e-06 -4.8146206135012850e-05 0.0000000000000000e+00  2.2524168905404963e-06 -1.4252245341925197e-05 0.0000000000000000e+00  -1.0296699173565288e-06 -3.6092137851832318e-05 0.0000000000000000e+00  1.9600626753091322e-06 -7.6783828105688378e-06 0.0000000000000000e+00  2.2167597520111328e-06 -1.7303293677501568e-05 0.0000000000000000e+00  -4.8591206355052918e-07 -3.2215755461878495e-05 0.0000000000000000e+00  -2.3578628610981120e-06 -4.4071476058426213e-05 0.0000000000000000e+00  2.2411524836730316e-06 -2.0644084831048277e-05 0.0000000000000000e+00  -2.1213702986610667e-08 -2.8437451221980396e-05 0.0000000000000000e+00  -3.8032496977156976e-07 -5.0193268405993340e-07 0.0000000000000000e+00  -4.2196867477696450e-07 4.0576164757945793e-07 0.0000000000000000e+00  -7.3772045297644160e-06 -7.1167768584118338e-05 0.0000000000000000e+00  1.685