<?xml version="1.0"?>
<VTKFile type="UnstructuredGrid"  version="0.1"  >
<UnstructuredGrid>
<Piece  NumberOfPoints="1419" NumberOfCells="2698">
<Points>
<DataArray  type="Float64"  NumberOfComponents="3"  format="ascii">0 0 0  0 0.41 0  2.5 0 0  2.5 0.41 0  0.6 0.19 0  0.6 0.21 0  0.25 0.2 0  0.15 0.2 0  0.2489897948556636 0.21 0  0.2489897948556636 0.19 0  0.6 0.2 0  0 0.3807142857143437 0  0 0.3514285714286952 0  0 0.3221428571430699 0  0 0.29285714285744 0  0 0.2635714285718054 0  0 0.2342857142861561 0  0 0.2050000000005308 0  0 0.175714285714732 0  0 0.1464285714289574 0  0 0.1171428571431897 0  0 0.08785714285737878 0  0 0.05857142857161107 0  0 0.02928571428580012 0  0.03015443760436003 0 0  0.06140001986583606 0 0  0.09377624077125973 0 0  0.1273239957535082 0 0  0.1620856860351972 0 0  0.1981052433264291 0 0  0.235428184091502 0 0  0.2741016576309132 0 0  0.3141745521465447 0 0  0.3556974926295285 0 0  0.3987229542472677 0 0  0.4433053055141081 0 0  0.4895008759286886 0 0  0.5373680609405097 0 0  0.5869673343216626 0 0  0.6383613676634521 0 0  0.6916151138468254 0 0  0.7467958595648856 0 0  0.8039733463919316 0 0  0.8632198139502143 0 0  0.9246101326867038 0 0  0.9882218810934433 0 0  1.054135445558498 0 0  1.122434100542598 0 0  1.193204177141305 0 0  1.266535089879536 0 0  1.342519516046404 0 0  1.421253448503939 0 0  1.502836389106271 0 0  1.587371439758838 0 0  1.674965418777374 0 0  1.765729001825544 0 0  1.859776908880082 0 0  1.957227977487062 0 0  2.058205329869943 0 0  2.162836591189951 0 0  2.271253957290865 0 0  2.383594446803425 0 0  2.5 0.1024999999997612 0  2.5 0.2049999999994743 0  2.5 0.3074999999997183 0  2.383594446803656 0.41 0  2.271253957291315 0.41 0  2.162836591190598 0.41 0  2.058205329870775 0.41 0  1.957227977488067 0.41 0  1.859776908881246 0.41 0  1.765729001826854 0.41 0  1.674965418778818 0.41 0  1.58737143976041 0.41 0  1.502836389107956 0.41 0  1.421253448505726 0.41 0  1.342519516048286 0.41 0  1.266535089881505 0.41 0  1.193204177143353 0.41 0  1.122434100544716 0.41 0  1.05413544556068 0.41 0  0.9882218810956305 0.41 0  0.9246101326886647 0.41 0  0.8632198139519631 0.41 0  0.8039733463934788 0.41 0  0.7467958595662458 0.41 0  0.6916151138480078 0.41 0  0.6383613676644679 0.41 0  0.5869673343225223 0.41 0  0.5373680609412221 0.41 0  0.4895008759292634 0.41 0  0.4433053055145528 0.41 0  0.3987229542475914 0.41 0  0.3556974926297398 0.41 0  0.3141745521466497 0.41 0  0.2741016576310038 0.41 0  0.2354281840915826 0.41 0  0.1981052433265003 0.41 0  0.1620856860352591 0.41 0  0.1273239957535623 0.41 0  0.09377624077128965 0.41 0  0.06140001986584975 0.41 0  0.03015443760436654 0.41 0  0.2497468076502589 0.2050254481002335 0  0.2497468076502614 0.1949745518997913 0  0.2469965252529372 0.1829317073451959 0  0.2439893735792749 0.1762316384219906 0  0.2400332147834255 0.1700443375285386 0  0.2352133972704371 0.1645032867342007 0  0.2296339016332438 0.1597280261969788 0  0.2234150974217223 0.1558215752574715 0  0.2166911463437691 0.1528682099456123 0  0.2096071079204251 0.1509316448471593 0  0.2023158100364996 0.1500536585536553 0  0.194974551899914 0.1502531923497262 0  0.1877417105387872 0.1515259415822739 0  0.1807733240461124 0.153844448527136 0  0.1742197252835808 0.15715869474974 0  0.1682222986673531 0.1613971801805478 0  0.162910430003803 0.1664684656256651 0  0.1583987151779087 0.1722631454351573 0  0.1547844879126891 0.178656207771761 0  0.1521457199348551 0.1855097315605723 0  0.1505393388476355 0.1926758619366523 0  0.1505393388476328 0.2073241380633295 0  0.1521457199348437 0.2144902684393899 0  0.1547844879126531 0.221343792228163 0  0.1583987151778488 0.2277368545647528 0  0.1629104300036858 0.2335315343742052 0  0.1682222986671726 0.2386028198193036 0  0.1742197252833576 0.2428413052501257 0  0.1807733240458683 0.2461555514727623 0  0.1877417105384929 0.2484740584176516 0  0.1949745518995776 0.2497468076502398 0  0.202315810036185 0.2499463414463592 0  0.2096071079201568 0.2490683551528932 0  0.2166911463435495 0.2471317900544655 0  0.2234150974215506 0.2441784247426195 0  0.2296339016331197 0.2402719738031125 0  0.2352133972703547 0.2354967132658811 0  0.2400332147833751 0.2299556624715287 0  0.2439893735792577 0.2237683615780412 0  0.246996525252926 0.2170682926548348 0  0.25645809709277 0.21 0  0.2639263993298655 0.21 0  0.271394701566961 0.21 0  0.2788630038040554 0.21 0  0.2863313060411479 0.21 0  0.2937996082782405 0.21 0  0.301267910515333 0.21 0  0.3087362127524279 0.21 0  0.3162045149895234 0.21 0  0.3236728172265972 0.21 0  0.3311411194636928 0.21 0  0.3386094217007701 0.21 0  0.3460777239378666 0.21 0  0.3535460261749672 0.21 0  0.3610143284120516 0.21 0  0.3684826306491596 0.21 0  0.3759509328862226 0.21 0  0.383419235123329 0.21 0  0.3908875373604028 0.21 0  0.3983558395975142 0.21 0  0.4058241418345938 0.21 0  0.4132924440716992 0.21 0  0.4207607463087888 0.21 0  0.4282290485459029 0.21 0  0.4356973507830418 0.21 0  0.4431656530201649 0.21 0  0.4506339552573136 0.21 0  0.4581022574944306 0.21 0  0.4655705597315852 0.21 0  0.4730388619686996 0.21 0  0.480507164205851 0.21 0  0.4879754664429498 0.21 0  0.4954437686800938 0.21 0  0.502912070917267 0.21 0  0.5103803731544119 0.21 0  0.5178486753915261 0.21 0  0.5253169776286404 0.21 0  0.5327852798657868 0.21 0  0.5402535821029386 0.21 0  0.54772188434007 0.21 0  0.5551901865771842 0.21 0  0.5626584888143201 0.21 0  0.5701267910514778 0.21 0  0.5775950932886138 0.21 0  0.5850633955257281 0.21 0  0.5925316977628483 0.21 0  0.6 0.2050000000000054 0  0.6 0.1950000000000217 0  0.5925316977628897 0.19 0  0.5850633955257988 0.19 0  0.5775950932887378 0.19 0  0.5701267910515998 0.19 0  0.5626584888145268 0.19 0  0.5551901865773963 0.19 0  0.547721884340339 0.19 0  0.5402535821032429 0.19 0  0.5327852798661811 0.19 0  0.5253169776290537 0.19 0  0.5178486753919799 0.19 0  0.5103803731549078 0.19 0  0.502912070917822 0.19 0  0.4954437686807294 0.19 0  0.4879754664436223 0.19 0  0.4805071642065402 0.19 0  0.4730388619694271 0.19 0  0.4655705597323621 0.19 0  0.4581022574952563 0.19 0  0.4506339552581777 0.19 0  0.4431656530210671 0.19 0  0.4356973507839815 0.19 0  0.4282290485468779 0.19 0  0.4207607463097617 0.19 0  0.4132924440726327 0.19 0  0.4058241418354857 0.19 0  0.3983558395983636 0.19 0  0.3908875373612097 0.19 0  0.3834192351240934 0.19 0  0.3759509328869369 0.19 0  0.3684826306498175 0.19 0  0.361014328412667 0.19 0  0.3535460261755617 0.19 0  0.3460777239384295 0.19 0  0.3386094217012945 0.19 0  0.3311411194641595 0.19 0  0.3236728172270245 0.19 0  0.3162045149898895 0.19 0  0.3087362127527544 0.19 0  0.3012679105156187 0.19 0  0.2937996082784807 0.19 0  0.2863313060413428 0.19 0  0.2788630038042048 0.19 0  0.2713947015670686 0.19 0  0.2639263993299336 0.19 0  0.2564580970927985 0.19 0  0.2607803159922026 0.2000727136295815 0  0.5887803774232762 0.2001272386983733 0  0.5745072403740523 0.2002044435018727 0  0.5511891430099709 0.2001122610077113 0  0.2751288526855082 0.20000000000002 0  0.5365194309847112 0.1999999999999436 0  0.2894621222999649 0.1998691686390484 0  0.5215828265105155 0.1999999999999228 0  0.3127789816668748 0.1998657885438805 0  0.3274069683451451 0.2000000000000796 0  0.5066462220363641 0.199999999999908 0  0.3650630746574081 0.199866017807523 0  0.476773013087985 0.1999999999998713 0  0.3417402379596385 0.1998691686391011 0  0.3796850840047755 0.200000000000134 0  0.4618364086138087 0.1999999999998546 0  0.4917096175621762 0.1999999999998808 0  0.3946216884789568 0.2000000000001512 0  0.446899804139621 0.1999999999998389 0  0.4089549580935208 0.1998691686391595 0  0.4322718174608562 0.200127451265745 0  0.4201487168029707 0.1999966199048527 0  0.3528922713220932 0.2000185703532356 0  0.5633122436674589 0.1999814296467508 0  0.3006558810093873 0.1999966199048318 0  0.5815926498168407 0.1966545283159175 0  0.2677053789419034 0.1964246479135325 0  0.5290511287476175 0.1970915826863981 0  0.5439877332217911 0.197091582686394 0  0.2825131256993216 0.2035478995978015 0  0.3199386661080599 0.202908417313604 0  0.4842413153250809 0.1970915826863873 0  0.5141145242734466 0.1970915826863843 0  0.3722167817676917 0.2029084173136195 0  0.4693047108508938 0.1970915826863783 0  0.3348752705822316 0.202908417313609 0  0.3871533862418661 0.2029084173136212 0  0.4543681063767183 0.1970915826863795 0  0.4991779197992749 0.1970915826863902 0  0.4020059614928624 0.203547899597858 0  0.4394315019025246 0.1970915826863714 0  0.2550657455369551 0.2034088125358657 0  0.2548908499171161 0.1966940311614271 0  0.5946539510196798 0.2024302972968126 0  0.267698176732111 0.2039977513680092 0  0.4261685417851465 0.196409292431739 0  0.3590076176283495 0.196411355804271 0  0.5571672426447437 0.2036011176410121 0  0.3066757059912147 0.1964092924317024 0  0.594380730180568 0.1966558399668133 0  0.4842413153245942 0.2040749161535287 0  0.4693047108503577 0.2040749161535231 0  0.3871533862424271 0.1959250838464788 0  0.372246743208829 0.1959123236376545 0  0.5141145242731028 0.2040749161535395 0  0.4543681063761134 0.2040749161535186 0  0.4019979587101454 0.1959834479682427 0  0.4394608940728603 0.2040870543693135 0  0.5439623148931173 0.2040856076781014 0  0.5290511287473298 0.2040749161535501 0  0.4991779197988497 0.2040749161535382 0  0.3347912413592433 0.1959225448935183 0  0.3199680582793816 0.1959123018030061 0  0.2825051229162361 0.1959834479681729 0  0.3590471196690275 0.2036304442587945 0  0.5571594006495384 0.1963685282145804 0  0.3067669986803285 0.203627750582736 0  0.4262598344738712 0.2036568242185335 0  0.5814408164431408 0.2041285596160068 0  0.5688286748170428 0.1961819304477386 0  0.4145905603063645 0.2038180695522843 0  0.3473758401724931 0.2038180695522752 0  0.2950977245128307 0.2038180695522663 0  0.5688286748170693 0.203818069552238 0  0.2950977245127906 0.1961819304477774 0  0.3473758401723931 0.1961819304478349 0  0.4145905603061963 0.1961819304479011 0  0.2601812407614425 0.2056861609747042
[...]
<PointData  Vectors="f_40-1"> 
<DataArray  type="Float64"  Name="f_40-1"  NumberOfComponents="3" format="ascii">0.0000000000000000e+00 0.0000000000000000e+00 0.0000000000000000e+00  0.0000000000000000e+00 0.0000000000000000e+00 0.0000000000000000e+00  0.0000000000000000e+00 0.0000000000000000e+00 0.0000000000000000e+00  0.0000000000000000e+00 0.0000000000000000e+00 0.0000000000000000e+00  -9.9053530632669625e-06 -3.0341989513404178e-05 0.0000000000000000e+00  -7.4543404393607028e-06 -3.2006508865302677e-05 0.0000000000000000e+00  0.0000000000000000e+00 0.0000000000000000e+00 0.0000000000000000e+00  0.0000000000000000e+00 0.0000000000000000e+00 0.0000000000000000e+00  0.0000000000000000e+00 0.0000000000000000e+00 0.0000000000000000e+00  0.0000000000000000e+00 0.0000000000000000e+00 0.0000000000000000e+00  -8.7631799842406773e-06 -3.1173947519257860e-05 0.0000000000000000e+00  0.0000000000000000e+00 0.0000000000000000e+00 0.0000000000000000e+00  0.0000000000000000e+00 0.0000000000000000e+00 0.0000000000000000e+00  0.0000000000000000e+00 0.0000000000000000e+00 0.0000000000000000e+00  0.0000000000000000e+00 0.0000000000000000e+00 0.0000000000000000e+00  0.0000000000000000e+00 0.0000000000000000e+00 0.0000000000000000e+00  0.0000000000000000e+00 0.0000000000000000e+00 0.0000000000000000e+00  0.0000000000000000e+00 0.0000000000000000e+00 0.0000000000000000e+00  0.0000000000000000e+00 0.0000000000000000e+00 0.0000000000000000e+00  0.0000000000000000e+00 0.0000000000000000e+00 0.0000000000000000e+00  0.0000000000000000e+00 0.0000000000000000e+00 0.0000000000000000e+00  0.0000000000000000e+00 0.0000000000000000e+00 0.0000000000000000e+00  0.0000000000000000e+00 0.0000000000000000e+00 0.0000000000000000e+00  0.0000000000000000e+00 0.0000000000000000e+00 0.0000000000000000e+00  0.0000000000000000e+00 0.0000000000000000e+00 0.0000000000000000e+00  0.0000000000000000e+00 0.0000000000000000e+00 0.0000000000000000e+00  0.0000000000000000e+00 0.0000000000000000e+00 0.0000000000000000e+00  0.0000000000000000e+00 0.0000000000000000e+00 0.0000000000000000e+00  0.0000000000000000e+00 0.0000000000000000e+00 0.0000000000000000e+00  0.0000000000000000e+00 0.0000000000000000e+00 0.0000000000000000e+00  0.0000000000000000e+00 0.0000000000000000e+00 0.0000000000000000e+00  0.0000000000000000e+00 0.0000000000000000e+00 0.0000000000000000e+00  0.0000000000000000e+00 0.0000000000000000e+00 0.0000000000000000e+00  0.0000000000000000e+00 0.0000000000000000e+00 0.0000000000000000e+00  0.0000000000000000e+00 0.0000000000000000e+00 0.0000000000000000e+00  0.0000000000000000e+00 0.0000000000000000e+00 0.0000000000000000e+00  0.0000000000000000e+00 0.0000000000000000e+00 0.0000000000000000e+00  0.0000000000000000e+00 0.0000000000000000e+00 0.0000000000000000e+00  0.0000000000000000e+00 0.0000000000000000e+00 0.0000000000000000e+00  0.0000000000000000e+00 0.0000000000000000e+00 0.0000000000000000e+00  0.0000000000000000e+00 0.0000000000000000e+00 0.0000000000000000e+00  0.0000000000000000e+00 0.0000000000000000e+00 0.0000000000000000e+00  0.0000000000000000e+00 0.0000000000000000e+00 0.0000000000000000e+00  0.0000000000000000e+00 0.0000000000000000e+00 0.0000000000000000e+00  0.0000000000000000e+00 0.0000000000000000e+00 0.0000000000000000e+00  0.0000000000000000e+00 0.0000000000000000e+00 0.0000000000000000e+00  0.0000000000000000e+00 0.0000000000000000e+00 0.0000000000000000e+00  0.0000000000000000e+00 0.0000000000000000e+00 0.0000000000000000e+00  0.0000000000000000e+00 0.0000000000000000e+00 0.0000000000000000e+00  0.0000000000000000e+00 0.0000000000000000e+00 0.0000000000000000e+00  0.0000000000000000e+00 0.0000000000000000e+00 0.0000000000000000e+00  0.0000000000000000e+00 0.0000000000000000e+00 0.0000000000000000e+00  0.0000000000000000e+00 0.0000000000000000e+00 0.0000000000000000e+00  0.0000000000000000e+00 0.0000000000000000e+00 0.0000000000000000e+00  0.0000000000000000e+00 0.0000000000000000e+00 0.0000000000000000e+00  0.0000000000000000e+00 0.0000000000000000e+00 0.0000000000000000e+00  0.0000000000000000e+00 0.0000000000000000e+00 0.0000000000000000e+00  0.0000000000000000e+00 0.0000000000000000e+00 0.0000000000000000e+00  0.0000000000000000e+00 0.0000000000000000e+00 0.0000000000000000e+00  0.0000000000000000e+00 0.0000000000000000e+00 0.0000000000000000e+00  0.0000000000000000e+00 0.0000000000000000e+00 0.0000000000000000e+00  0.0000000000000000e+00 0.0000000000000000e+00 0.0000000000000000e+00  0.0000000000000000e+00 0.0000000000000000e+00 0.0000000000000000e+00  0.0000000000000000e+00 0.0000000000000000e+00 0.0000000000000000e+00  0.0000000000000000e+00 0.0000000000000000e+00 0.0000000000000000e+00  0.0000000000000000e+00 0.0000000000000000e+00 0.0000000000000000e+00  0.0000000000000000e+00 0.0000000000000000e+00 0.0000000000000000e+00  0.0000000000000000e+00 0.0000000000000000e+00 0.0000000000000000e+00  0.0000000000000000e+00 0.0000000000000000e+00 0.0000000000000000e+00  0.0000000000000000e+00 0.0000000000000000e+00 0.0000000000000000e+00  0.0000000000000000e+00 0.0000000000000000e+00 0.0000000000000000e+00  0.0000000000000000e+00 0.0000000000000000e+00 0.0000000000000000e+00  0.0000000000000000e+00 0.0000000000000000e+00 0.0000000000000000e+00  0.0000000000000000e+00 0.0000000000000000e+00 0.0000000000000000e+00  0.0000000000000000e+00 0.0000000000000000e+00 0.0000000000000000e+00  0.0000000000000000e+00 0.0000000000000000e+00 0.0000000000000000e+00  0.0000000000000000e+00 0.0000000000000000e+00 0.0000000000000000e+00  0.0000000000000000e+00 0.0000000000000000e+00 0.0000000000000000e+00  0.0000000000000000e+00 0.0000000000000000e+00 0.0000000000000000e+00  0.0000000000000000e+00 0.0000000000000000e+00 0.0000000000000000e+00  0.0000000000000000e+00 0.0000000000000000e+00 0.0000000000000000e+00  0.0000000000000000e+00 0.0000000000000000e+00 0.0000000000000000e+00  0.0000000000000000e+00 0.0000000000000000e+00 0.0000000000000000e+00  0.0000000000000000e+00 0.0000000000000000e+00 0.0000000000000000e+00  0.0000000000000000e+00 0.0000000000000000e+00 0.0000000000000000e+00  0.0000000000000000e+00 0.0000000000000000e+00 0.0000000000000000e+00  0.0000000000000000e+00 0.0000000000000000e+00 0.0000000000000000e+00  0.0000000000000000e+00 0.0000000000000000e+00 0.0000000000000000e+00  0.0000000000000000e+00 0.0000000000000000e+00 0.0000000000000000e+00  0.0000000000000000e+00 0.0000000000000000e+00 0.0000000000000000e+00  0.0000000000000000e+00 0.0000000000000000e+00 0.0000000000000000e+00  0.0000000000000000e+00 0.0000000000000000e+00 0.0000000000000000e+00  0.0000000000000000e+00 0.0000000000000000e+00 0.0000000000000000e+00  0.0000000000000000e+00 0.0000000000000000e+00 0.0000000000000000e+00  0.0000000000000000e+00 0.0000000000000000e+00 0.0000000000000000e+00  0.0000000000000000e+00 0.0000000000000000e+00 0.0000000000000000e+00  0.0000000000000000e+00 0.0000000000000000e+00 0.0000000000000000e+00  0.0000000000000000e+00 0.0000000000000000e+00 0.0000000000000000e+00  0.0000000000000000e+00 0.0000000000000000e+00 0.0000000000000000e+00  0.0000000000000000e+00 0.0000000000000000e+00 0.0000000000000000e+00  0.0000000000000000e+00 0.0000000000000000e+00 0.0000000000000000e+00  0.0000000000000000e+00 0.0000000000000000e+00 0.0000000000000000e+00  0.0000000000000000e+00 0.0000000000000000e+00 0.0000000000000000e+00  0.0000000000000000e+00 0.0000000000000000e+00 0.0000000000000000e+00  0.0000000000000000e+00 0.0000000000000000e+00 0.0000000000000000e+00  0.0000000000000000e+00 0.0000000000000000e+00 0.0000000000000000e+00  0.0000000000000000e+00 0.0000000000000000e+00 0.0000000000000000e+00  0.0000000000000000e+00 0.0000000000000000e+00 0.0000000000000000e+00  0.0000000000000000e+00 0.0000000000000000e+00 0.0000000000000000e+00  0.0000000000000000e+00 0.0000000000000000e+00 0.0000000000000000e+00  0.0000000000000000e+00 0.0000000000000000e+00 0.0000000000000000e+00  0.0000000000000000e+00 0.0000000000000000e+00 0.0000000000000000e+00  0.0000000000000000e+00 0.0000000000000000e+00 0.0000000000000000e+00  0.0000000000000000e+00 0.0000000000000000e+00 0.0000000000000000e+00  0.0000000000000000e+00 0.0000000000000000e+00 0.0000000000000000e+00  0.0000000000000000e+00 0.0000000000000000e+00 0.0000000000000000e+00  0.0000000000000000e+00 0.0000000000000000e+00 0.0000000000000000e+00  0.0000000000000000e+00 0.0000000000000000e+00 0.0000000000000000e+00  0.0000000000000000e+00 0.0000000000000000e+00 0.0000000000000000e+00  0.0000000000000000e+00 0.0000000000000000e+00 0.0000000000000000e+00  0.0000000000000000e+00 0.0000000000000000e+00 0.0000000000000000e+00  0.0000000000000000e+00 0.0000000000000000e+00 0.0000000000000000e+00  0.0000000000000000e+00 0.0000000000000000e+00 0.0000000000000000e+00  0.0000000000000000e+00 0.0000000000000000e+00 0.0000000000000000e+00  0.0000000000000000e+00 0.0000000000000000e+00 0.0000000000000000e+00  0.0000000000000000e+00 0.0000000000000000e+00 0.0000000000000000e+00  0.0000000000000000e+00 0.0000000000000000e+00 0.0000000000000000e+00  0.0000000000000000e+00 0.0000000000000000e+00 0.0000000000000000e+00  0.0000000000000000e+00 0.0000000000000000e+00 0.0000000000000000e+00  0.0000000000000000e+00 0.0000000000000000e+00 0.0000000000000000e+00  0.0000000000000000e+00 0.0000000000000000e+00 0.0000000000000000e+00  0.0000000000000000e+00 0.0000000000000000e+00 0.0000000000000000e+00  0.0000000000000000e+00 0.0000000000000000e+00 0.0000000000000000e+00  0.0000000000000000e+00 0.0000000000000000e+00 0.0000000000000000e+00  0.0000000000000000e+00 0.0000000000000000e+00 0.0000000000000000e+00  0.0000000000000000e+00 0.0000000000000000e+00 0.0000000000000000e+00  0.0000000000000000e+00 0.0000000000000000e+00 0.0000000000000000e+00  0.0000000000000000e+00 0.0000000000000000e+00 0.0000000000000000e+00  0.0000000000000000e+00 0.0000000000000000e+00 0.0000000000000000e+00  0.0000000000000000e+00 0.0000000000000000e+00 0.0000000000000000e+00  0.0000000000000000e+00 0.0000000000000000e+00 0.0000000000000000e+00  0.0000000000000000e+00 0.0000000000000000e+00 0.0000000000000000e+00  0.0000000000000000e+00 0.0000000000000000e+00 0.0000000000000000e+00  -1.2181295040562495e-08 -1.4777520080070122e-06 0.0000000000000000e+00  2.2735973107062116e-08 -1.6570345128518926e-06 0.0000000000000000e+00  1.2055297873049483e-07 -1.8022871707760155e-06 0.0000000000000000e+00  2.5588326699448950e-07 -1.9516730151458997e-06 0.0000000000000000e+00  3.8740728688662787e-07 -2.1421969981813751e-06 0.0000000000000000e+00  5.1316843380174354e-07 -2.3922424937546839e-06 0.0000000000000000e+00  6.1743605487376428e-07 -2.6759301018828725e-06 0.0000000000000000e+00  7.0540584638173317e-07 -3.0054472518608506e-06 0.0000000000000000e+00  7.9207011547369176e-07 -3.3717173529456679e-06 0.0000000000000000e+00  8.5003020070107666e-07 -3.7703321412545162e-06 0.0000000000000000e+00  9.0577032908625053e-07 -4.2120682854018374e-06 0.0000000000000000e+00  9.3425530892457392e-07 -4.6800392540992820e-06 0.0000000000000000e+00  9.5566976809159966e-07 -5.1843585682628719e-06 0.0000000000000000e+00  9.5644072851569505e-07 -5.7150793548590032e-06 0.0000000000000000e+00  9.3961612200658421e-07 -6.2767350581332852e-06 0.0000000000000000e+00  9.1775041632839144e-07 -6.8659972674882217e-06 0.0000000000000000e+00  8.7009608755092837e-07 -7.4742685316049764e-06 0.0000000000000000e+00  8.1519276491876367e-07 -8.1156045241804931e-06 0.0000000000000000e+00  7.3681562074450384e-07 -8.7697848939469460e-06 0.0000000000000000e+00  6.5018201611232305e-07 -9.4536297802301435e-06 0.0000000000000000e+00  5.4259750998385319e-07 -1.0148895248628527e-05 0.0000000000000000e+00  4.2186101208954209e-07 -1.0868124092175085e-05 0.0000000000000000e+00  2.8536420964086675e-07 -1.1601365169819021e-05 0.0000000000000000e+00  1.3131005314868762e-07 -1.2351149742165003e-05 0.0000000000000000e+00  -3.0765282981260116e-08 -1.3116952262866418e-05 0.0000000000000000e+00  -2.1334367251533477e-07 -1.3890835098317481e-05 0.0000000000000000e+00  -4.1012458436815718e-07 -1.4686799290879808e-05 0.0000000000000000e+00  -6.2301206109507238e-07 -1.5484325380004833e-05 0.0000000000000000e+00  -8.5014498014533489e-07 -1.6301720321046285e-05 0.0000000000000000e+00  -1.0928936457831441e-06 -1.7120084421890453e-05 0.0000000000000000e+00  -1.3498773380861423e-06 -1.7956062543792786e-05 0.0000000000000000e+00  -1.6226556416746932e-06 -1.8791367829600326e-05 0.0000000000000000e+00  -1.9091226077844292e-06 -1.9643149378854082e-05 0.0000000000000000e+00  -2.2116733832242800e-06 -2.0491756391475435e-05 0.0000000000000000e+00  -2.5290750096119622e-06 -2.1356429090833811e-05 0.0000000000000000e+00  -2.8614924280265834e-06 -2.2217255038520770e-05 0.0000000000000000e+00  -3.2080501769423372e-06 -2.3091989645727519e-05 0.0000000000000000e+00  -3.5697586750587784e-06 -2.3962139465281529e-05 0.0000000000000000e+00  -3.9463569713295474e-06 -2.4844980477329854e-05 0.0000000000000000e+00  -4.3387616923606931e-06 -2.5722357627115969e-05 0.0000000000000000e+00  -4.7479719885795939e-06 -2.6608260356361897e-05 0.0000000000000000e+00  -5.1690338951259875e-06 -2.7493051106080843e-05 0.0000000000000000e+00  -5.6083607977841191e-06 -2.8381219774443247e-05 0.0000000000000000e+00  -6.0564685793407681e-06 -2.9270343101857658e-05 0.0000000000000000e+00  -6.5222595019963426e-06 -3.0155802829060872e-05 0.0000000000000000e+00  -6.9942950624106375e-06 -3.1053802864550533e-05 0.0000000000000000e+00  -8.1392573371112432e-06 -3.1590098247142336e-05 0.0000000000000000e+00  -9.3607558602958082e-06 -3.0758808540995759e-05 0.0000000000000000e+00  -9.4413640825398733e-06 -2.9465881405941092e-05 0.0000000000000000e+00  -8.9632706772960190e-06 -2.8536678719768653e-05 0.0000000000000000e+00  -8.4927180718974425e-06 -2.7601211964319261e-05 0.0000000000000000e+00  -8.0382707180488590e-06 -2.6672738929087743e-05 0.0000000000000000e+00  -7.5933563126717157e-06 -2.5745977889505670e-05 0.0000000000000000e+00  -7.1665373183283303e-06 -2.4821829576334566e-05 0.0000000000000000e+00  -6.7498081164095433e-06 -2.3902222223258135e-05 0.0000000000000000e+00  -6.3499274794920408e-06 -2.2980771838914302e-05 0.0000000000000000e+00  -5.9625256569025017e-06 -2.2070419768928558e-05 0.0000000000000000e+00  -5.5901172877910261e-06 -2.1155434776381567e-05 0.0000000000000000e+00  -5.2297072857672714e-06 -2.0253296987020843e-05 0.0000000000000000e+00  -4.8846043524049803e-06 -1.9347794493189008e-05 0.0000000000000000e+00  -4.5509028052387318e-06 -1.8456257808411515e-05 0.0000000000000000e+00  -4.2324071250306378e-06 -1.7562680398252665e-05 0.0000000000000000e+00  -3.9245353785243978e-06 -1.6684123289913121e-05 0.0000000000000000e+00  -3.6323178597470293e-06 -1.5804786424424876e-05 0.0000000000000000e+00  -3.3502872034918629e-06 -1.4941757626620818e-05 0.0000000000000000e+00  -3.0843207062796617e-06 -1.4079511821825931e-05 0.0000000000000000e+00  -2.8276610945283848e-06 -1.3235437309002737e-05 0.0000000000000000e+00  -2.5872976144697448e-06 -1.2394078242149708e-05 0.0000000000000000e+00  -2.3553134455963104e-06 -1.1572400080759641e-05 0.0000000000000000e+00  -2.1401564227776613e-06 -1.0755798156586360e-05 0.0000000000000000e+00  -1.9347012431174918e-06 -9.9579537378811154e-06 0.0000000000000000e+00  -1.7424580407579173e-06 -9.1716352162972910e-06 0.0000000000000000e+00  -1.5657302756866842e-06 -8.4042652919972607e-06 0.0000000000000000e+00  -1.3927854172870717e-06 -7.6519292916726780e-06 0.0000000000000000e+00  -1.2374836224924394e-06 -6.9154211192113186e-06 0.0000000000000000e+00  -1.0914436216615547e-06 -6.2055447897600163e-06 0.0000000000000000e+00  -9.5979761325808250e-07 -5.5084730036862986e-06 0.0000000000000000e+00  -8.3790234848957022e-07 -4.8421421119793460e-06 0.0000000000000000e+00  -7.3000527728286864e-07 -4.1906937133748594e-06 0.0000000000000000e+00  -6.3042237423060915e-07 -3.5733368390546849e-06 0.0000000000000000e+00  -5.4493442549720517e-07 -2.9754383534020815e-06 0.0000000000000000e+00  -4.7369237588164143e-07 -2.4125060500906629e-06 0.0000000000000000e+00  -4.0287031589011605e-07 -1.8738510683872356e-06 0.0000000000000000e+00  -3.5005768479358211e-07 -1.3680674027051659e-06 0.0000000000000000e+00  -3.0486459871952256e-07 -9.0191628106585213e-07 0.0000000000000000e+00  -2.7396134921273145e-07 -4.6387902982983497e-07 0.0000000000000000e+00  -2.4791200051689964e-07 -7.1334695642026015e-08 0.0000000000000000e+00  -2.3778286835473047e-07 2.9003726663175857e-07 0.0000000000000000e+00  -2.4072928300919084e-07 6.0317653803916344e-07 0.0000000000000000e+00  -2.3939728706114910e-07 8.8054437599435856e-07 0.0000000000000000e+00  -2.5810230967473821e-07 1.1221760541884227e-06 0.0000000000000000e+00  -2.5764507448099206e-07 1.3121308299601076e-06 0.0000000000000000e+00  -2.3657867261712533e-07 1.4083897469903206e-06 0.0000000000000000e+00  -1.3860994395376323e-07 1.3708755825648723e-06 0.0000000000000000e+00  -3.6777380455922671e-07 -6.1919623479306375e-08 0.0000000000000000e+00  -7.9954909942497664e-06 -2.9809252591547185e-05 0.0000000000000000e+00  -7.0708458715341773e-06 -2.8075155911448687e-05 0.0000000000000000e+00  -5.7296500491132245e-06 -2.5239360384861144e-05 0.0000000000000000e+00  -4.8314970098781991e-08 -2.9400270640112752e-07 0.0000000000000000e+00  -4.9669804723600952e-06 -2.3461596089621556e-05 0.0000000000000000e+00  9.2419542761910089e-08 -6.8645182798994082e-07 0.0000000000000000e+00  -4.2318512167435799e-06 -2.1675775973113773e-05 0.0000000000000000e+00  2.3168253609529863e-07 -1.6943336146001959e-06 0.0000000000000000e+00  2.6649238396069642e-07 -2.5365027414669361e-06 0.0000000000000000e+00  -3.5535605726817564e-06 -1.9908654819662774e-05 0.0000000000000000e+00  1.0397744827233258e-07 -5.2135224546285709e-06 0.0000000000000000e+00  -2.3657859610343019e-06 -1.6448925109759443e-05 0.0000000000000000e+00  2.4040479217679613e-07 -3.4519419002704575e-06 0.0000000000000000e+00  -3.7212386374706200e-08 -6.4672686459797905e-06 0.0000000000000000e+00  -1.8556329659109379e-06 -1.4767319621360231e-05 0.0000000000000000e+00  -2.9316326043424327e-06 -1.8164597891633037e-05 0.0000000000000000e+00  -2.4415552145627027e-07 -7.8200025386945875e-06 0.0000000000000000e+00  -1.4010978257872592e-06 -1.3126705046472711e-05 0.0000000000000000e+00  -5.0564040863338108e-07 -9.1780008479817741e-06 0.0000000000000000e+00  -9.9470355405368554e-07 -1.1581625750351586e-05 0.0000000000000000e+00  -7.2870098911366006e-07 -1.0316253454300388e-05 0.0000000000000000e+00  1.9784402621720608e-07 -4.2848982657783761e-06 0.0000000000000000e+00  -6.4359116531653098e-06 -2.6696162044582857e-05 0.0000000000000000e+00  1.7415528944624383e-07 -1.1467382751009831e-06 0.0000000000000000e+00  -7.9487857248606502e-06 -2.8649571604361255e-05 0.0000000000000000e+00  -2.2951347865765564e-07 4.2939053852110261e-07 0.0000000000000000e+00  -4.9395511605103839e-06 -2.2288699601736796e-05 0.0000000000000000e+00  -5.7058976290603939e-06 -2.4092374343973936e-05 0.0000000000000000e+00  1.3138048124260630e-07 -1.0303686539601790e-06 0.0000000000000000e+00  4.1957769728482839e-07 -2.5221420218974596e-06 0.0000000000000000e+00  -2.9751566877933188e-06 -1.6993979535432311e-05 0.0000000000000000e+00  -4.2292349834036303e-06 -2.0501284110082871e-05 0.0000000000000000e+00  2.9046841094207919e-07 -6.2122763086042054e-06 0.0000000000000000e+00  -2.4304001715317892e-06 -1.5284332600152587e-05 0.0000000000000000e+00  4.5056135978030987e-07 -3.4219692151235565e-06 0.0000000000000000e+00  1.2742766359918977e-07 -7.5110465694356405e-06 0.0000000000000000e+00  -1.9401022106469591e-06 -1.3612244684860888e-05 0.0000000000000000e+00  -3.5746740491844012e-06 -1.8734727121501187e-05 0.0000000000000000e+00  -2.7977848114523532e-08 -8.9686619626124523e-06 0.0000000000000000e+00  -1.5036078628027958e-06 -1.1984909998207455e-05 0.0000000000000000e+00  -3.3458831237765636e-07 -3.5430347377919168e-07 0.0000000000000000e+00  -3.4838965325233019e-07 2.9889850348895128e-07 0.0000000000000000e+00  -8.1068874335544829e-06 -3.0712401862517919e-05 0.00