<?xml version="1.0"?>
<VTKFile type="UnstructuredGrid"  version="0.1"  >
<UnstructuredGrid>
<Piece  NumberOfPoints="1419" NumberOfCells="2698">
<Points>
<DataArray  type="Float64"  NumberOfComponents="3"  format="ascii">0 0 0  0 0.41 0  2.5 0 0  2.5 0.41 0  0.6 0.19 0  0.6 0.21 0  0.25 0.2 0  0.15 0.2 0  0.2489897948556636 0.21 0  0.2489897948556636 0.19 0  0.6 0.2 0  0 0.3807142857143437 0  0 0.3514285714286952 0  0 0.3221428571430699 0  0 0.29285714285744 0  0 0.2635714285718054 0  0 0.2342857142861561 0  0 0.2050000000005308 0  0 0.175714285714732 0  0 0.1464285714289574 0  0 0.1171428571431897 0  0 0.08785714285737878 0  0 0.05857142857161107 0  0 0.02928571428580012 0  0.03015443760436003 0 0  0.06140001986583606 0 0  0.09377624077125973 0 0  0.1273239957535082 0 0  0.1620856860351972 0 0  0.1981052433264291 0 0  0.235428184091502 0 0  0.2741016576309132 0 0  0.3141745521465447 0 0  0.3556974926295285 0 0  0.3987229542472677 0 0  0.4433053055141081 0 0  0.4895008759286886 0 0  0.5373680609405097 0 0  0.5869673343216626 0 0  0.6383613676634521 0 0  0.6916151138468254 0 0  0.7467958595648856 0 0  0.8039733463919316 0 0  0.8632198139502143 0 0  0.9246101326867038 0 0  0.9882218810934433 0 0  1.054135445558498 0 0  1.122434100542598 0 0  1.193204177141305 0 0  1.266535089879536 0 0  1.342519516046404 0 0  1.421253448503939 0 0  1.502836389106271 0 0  1.587371439758838 0 0  1.674965418777374 0 0  1.765729001825544 0 0  1.859776908880082 0 0  1.957227977487062 0 0  2.058205329869943 0 0  2.162836591189951 0 0  2.271253957290865 0 0  2.383594446803425 0 0  2.5 0.1024999999997612 0  2.5 0.2049999999994743 0  2.5 0.3074999999997183 0  2.383594446803656 0.41 0  2.271253957291315 0.41 0  2.162836591190598 0.41 0  2.058205329870775 0.41 0  1.957227977488067 0.41 0  1.859776908881246 0.41 0  1.765729001826854 0.41 0  1.674965418778818 0.41 0  1.58737143976041 0.41 0  1.502836389107956 0.41 0  1.421253448505726 0.41 0  1.342519516048286 0.41 0  1.266535089881505 0.41 0  1.193204177143353 0.41 0  1.122434100544716 0.41 0  1.05413544556068 0.41 0  0.9882218810956305 0.41 0  0.9246101326886647 0.41 0  0.8632198139519631 0.41 0  0.8039733463934788 0.41 0  0.7467958595662458 0.41 0  0.6916151138480078 0.41 0  0.6383613676644679 0.41 0  0.5869673343225223 0.41 0  0.5373680609412221 0.41 0  0.4895008759292634 0.41 0  0.4433053055145528 0.41 0  0.3987229542475914 0.41 0  0.3556974926297398 0.41 0  0.3141745521466497 0.41 0  0.2741016576310038 0.41 0  0.2354281840915826 0.41 0  0.1981052433265003 0.41 0  0.1620856860352591 0.41 0  0.1273239957535623 0.41 0  0.09377624077128965 0.41 0  0.06140001986584975 0.41 0  0.03015443760436654 0.41 0  0.2497468076502589 0.2050254481002335 0  0.2497468076502614 0.1949745518997913 0  0.2469965252529372 0.1829317073451959 0  0.2439893735792749 0.1762316384219906 0  0.2400332147834255 0.1700443375285386 0  0.2352133972704371 0.1645032867342007 0  0.2296339016332438 0.1597280261969788 0  0.2234150974217223 0.1558215752574715 0  0.2166911463437691 0.1528682099456123 0  0.2096071079204251 0.1509316448471593 0  0.2023158100364996 0.1500536585536553 0  0.194974551899914 0.1502531923497262 0  0.1877417105387872 0.1515259415822739 0  0.1807733240461124 0.153844448527136 0  0.1742197252835808 0.15715869474974 0  0.1682222986673531 0.1613971801805478 0  0.162910430003803 0.1664684656256651 0  0.1583987151779087 0.1722631454351573 0  0.1547844879126891 0.178656207771761 0  0.1521457199348551 0.1855097315605723 0  0.1505393388476355 0.1926758619366523 0  0.1505393388476328 0.2073241380633295 0  0.1521457199348437 0.2144902684393899 0  0.1547844879126531 0.221343792228163 0  0.1583987151778488 0.2277368545647528 0  0.1629104300036858 0.2335315343742052 0  0.1682222986671726 0.2386028198193036 0  0.1742197252833576 0.2428413052501257 0  0.1807733240458683 0.2461555514727623 0  0.1877417105384929 0.2484740584176516 0  0.1949745518995776 0.2497468076502398 0  0.202315810036185 0.2499463414463592 0  0.2096071079201568 0.2490683551528932 0  0.2166911463435495 0.2471317900544655 0  0.2234150974215506 0.2441784247426195 0  0.2296339016331197 0.2402719738031125 0  0.2352133972703547 0.2354967132658811 0  0.2400332147833751 0.2299556624715287 0  0.2439893735792577 0.2237683615780412 0  0.246996525252926 0.2170682926548348 0  0.25645809709277 0.21 0  0.2639263993298655 0.21 0  0.271394701566961 0.21 0  0.2788630038040554 0.21 0  0.2863313060411479 0.21 0  0.2937996082782405 0.21 0  0.301267910515333 0.21 0  0.3087362127524279 0.21 0  0.3162045149895234 0.21 0  0.3236728172265972 0.21 0  0.3311411194636928 0.21 0  0.3386094217007701 0.21 0  0.3460777239378666 0.21 0  0.3535460261749672 0.21 0  0.3610143284120516 0.21 0  0.3684826306491596 0.21 0  0.3759509328862226 0.21 0  0.383419235123329 0.21 0  0.3908875373604028 0.21 0  0.3983558395975142 0.21 0  0.4058241418345938 0.21 0  0.4132924440716992 0.21 0  0.4207607463087888 0.21 0  0.4282290485459029 0.21 0  0.4356973507830418 0.21 0  0.4431656530201649 0.21 0  0.4506339552573136 0.21 0  0.4581022574944306 0.21 0  0.4655705597315852 0.21 0  0.4730388619686996 0.21 0  0.480507164205851 0.21 0  0.4879754664429498 0.21 0  0.4954437686800938 0.21 0  0.502912070917267 0.21 0  0.5103803731544119 0.21 0  0.5178486753915261 0.21 0  0.5253169776286404 0.21 0  0.5327852798657868 0.21 0  0.5402535821029386 0.21 0  0.54772188434007 0.21 0  0.5551901865771842 0.21 0  0.5626584888143201 0.21 0  0.5701267910514778 0.21 0  0.5775950932886138 0.21 0  0.5850633955257281 0.21 0  0.5925316977628483 0.21 0  0.6 0.2050000000000054 0  0.6 0.1950000000000217 0  0.5925316977628897 0.19 0  0.5850633955257988 0.19 0  0.5775950932887378 0.19 0  0.5701267910515998 0.19 0  0.5626584888145268 0.19 0  0.5551901865773963 0.19 0  0.547721884340339 0.19 0  0.5402535821032429 0.19 0  0.5327852798661811 0.19 0  0.5253169776290537 0.19 0  0.5178486753919799 0.19 0  0.5103803731549078 0.19 0  0.502912070917822 0.19 0  0.4954437686807294 0.19 0  0.4879754664436223 0.19 0  0.4805071642065402 0.19 0  0.4730388619694271 0.19 0  0.4655705597323621 0.19 0  0.4581022574952563 0.19 0  0.4506339552581777 0.19 0  0.4431656530210671 0.19 0  0.4356973507839815 0.19 0  0.4282290485468779 0.19 0  0.4207607463097617 0.19 0  0.4132924440726327 0.19 0  0.4058241418354857 0.19 0  0.3983558395983636 0.19 0  0.3908875373612097 0.19 0  0.3834192351240934 0.19 0  0.3759509328869369 0.19 0  0.3684826306498175 0.19 0  0.361014328412667 0.19 0  0.3535460261755617 0.19 0  0.3460777239384295 0.19 0  0.3386094217012945 0.19 0  0.3311411194641595 0.19 0  0.3236728172270245 0.19 0  0.3162045149898895 0.19 0  0.3087362127527544 0.19 0  0.3012679105156187 0.19 0  0.2937996082784807 0.19 0  0.2863313060413428 0.19 0  0.2788630038042048 0.19 0  0.2713947015670686 0.19 0  0.2639263993299336 0.19 0  0.2564580970927985 0.19 0  0.2607803159922026 0.2000727136295815 0  0.5887803774232762 0.2001272386983733 0  0.5745072403740523 0.2002044435018727 0  0.5511891430099709 0.2001122610077113 0  0.2751288526855082 0.20000000000002 0  0.5365194309847112 0.1999999999999436 0  0.2894621222999649 0.1998691686390484 0  0.5215828265105155 0.1999999999999228 0  0.3127789816668748 0.1998657885438805 0  0.3274069683451451 0.2000000000000796 0  0.5066462220363641 0.199999999999908 0  0.3650630746574081 0.199866017807523 0  0.476773013087985 0.1999999999998713 0  0.3417402379596385 0.1998691686391011 0  0.3796850840047755 0.200000000000134 0  0.4618364086138087 0.1999999999998546 0  0.4917096175621762 0.1999999999998808 0  0.3946216884789568 0.2000000000001512 0  0.446899804139621 0.1999999999998389 0  0.4089549580935208 0.1998691686391595 0  0.4322718174608562 0.200127451265745 0  0.4201487168029707 0.1999966199048527 0  0.3528922713220932 0.2000185703532356 0  0.5633122436674589 0.1999814296467508 0  0.3006558810093873 0.1999966199048318 0  0.5815926498168407 0.1966545283159175 0  0.2677053789419034 0.1964246479135325 0  0.5290511287476175 0.1970915826863981 0  0.5439877332217911 0.197091582686394 0  0.2825131256993216 0.2035478995978015 0  0.3199386661080599 0.202908417313604 0  0.4842413153250809 0.1970915826863873 0  0.5141145242734466 0.1970915826863843 0  0.3722167817676917 0.2029084173136195 0  0.4693047108508938 0.1970915826863783 0  0.3348752705822316 0.202908417313609 0  0.3871533862418661 0.2029084173136212 0  0.4543681063767183 0.1970915826863795 0  0.4991779197992749 0.1970915826863902 0  0.4020059614928624 0.203547899597858 0  0.4394315019025246 0.1970915826863714 0  0.2550657455369551 0.2034088125358657 0  0.2548908499171161 0.1966940311614271 0  0.5946539510196798 0.2024302972968126 0  0.267698176732111 0.2039977513680092 0  0.4261685417851465 0.196409292431739 0  0.3590076176283495 0.196411355804271 0  0.5571672426447437 0.2036011176410121 0  0.3066757059912147 0.1964092924317024 0  0.594380730180568 0.1966558399668133 0  0.4842413153245942 0.2040749161535287 0  0.4693047108503577 0.2040749161535231 0  0.3871533862424271 0.1959250838464788 0  0.372246743208829 0.1959123236376545 0  0.5141145242731028 0.2040749161535395 0  0.4543681063761134 0.2040749161535186 0  0.4019979587101454 0.1959834479682427 0  0.4394608940728603 0.2040870543693135 0  0.5439623148931173 0.2040856076781014 0  0.5290511287473298 0.2040749161535501 0  0.4991779197988497 0.2040749161535382 0  0.3347912413592433 0.1959225448935183 0  0.3199680582793816 0.1959123018030061 0  0.2825051229162361 0.1959834479681729 0  0.3590471196690275 0.2036304442587945 0  0.5571594006495384 0.1963685282145804 0  0.3067669986803285 0.203627750582736 0  0.4262598344738712 0.2036568242185335 0  0.5814408164431408 0.2041285596160068 0  0.5688286748170428 0.1961819304477386 0  0.4145905603063645 0.2038180695522843 0  0.3473758401724931 0.2038180695522752 0  0.2950977245128307 0.2038180695522663 0  0.5688286748170693 0.203818069552238 0  0.2950977245127906 0.1961819304477774 0  0.3473758401723931 0.1961819304478349 0  0.4145905603061963 0.1961819304479011 0  0.2601812407614425 0.2056861609747042
[...]
<PointData  Vectors="f_40-1"> 
<DataArray  type="Float64"  Name="f_40-1"  NumberOfComponents="3" format="ascii">0.0000000000000000e+00 0.0000000000000000e+00 0.0000000000000000e+00  0.0000000000000000e+00 0.0000000000000000e+00 0.0000000000000000e+00  0.0000000000000000e+00 0.0000000000000000e+00 0.0000000000000000e+00  0.0000000000000000e+00 0.0000000000000000e+00 0.0000000000000000e+00  -1.6286288074064887e-05 -4.7631716597668766e-04 0.0000000000000000e+00  2.0780362207211768e-05 -4.8022715615733149e-04 0.0000000000000000e+00  0.0000000000000000e+00 0.0000000000000000e+00 0.0000000000000000e+00  0.0000000000000000e+00 0.0000000000000000e+00 0.0000000000000000e+00  0.0000000000000000e+00 0.0000000000000000e+00 0.0000000000000000e+00  0.0000000000000000e+00 0.0000000000000000e+00 0.0000000000000000e+00  1.9037887169599903e-06 -4.7826683452661446e-04 0.0000000000000000e+00  0.0000000000000000e+00 0.0000000000000000e+00 0.0000000000000000e+00  0.0000000000000000e+00 0.0000000000000000e+00 0.0000000000000000e+00  0.0000000000000000e+00 0.0000000000000000e+00 0.0000000000000000e+00  0.0000000000000000e+00 0.0000000000000000e+00 0.0000000000000000e+00  0.0000000000000000e+00 0.0000000000000000e+00 0.0000000000000000e+00  0.0000000000000000e+00 0.0000000000000000e+00 0.0000000000000000e+00  0.0000000000000000e+00 0.0000000000000000e+00 0.0000000000000000e+00  0.0000000000000000e+00 0.0000000000000000e+00 0.0000000000000000e+00  0.0000000000000000e+00 0.0000000000000000e+00 0.0000000000000000e+00  0.0000000000000000e+00 0.0000000000000000e+00 0.0000000000000000e+00  0.0000000000000000e+00 0.0000000000000000e+00 0.0000000000000000e+00  0.0000000000000000e+00 0.0000000000000000e+00 0.0000000000000000e+00  0.0000000000000000e+00 0.0000000000000000e+00 0.0000000000000000e+00  0.0000000000000000e+00 0.0000000000000000e+00 0.0000000000000000e+00  0.0000000000000000e+00 0.0000000000000000e+00 0.0000000000000000e+00  0.0000000000000000e+00 0.0000000000000000e+00 0.0000000000000000e+00  0.0000000000000000e+00 0.0000000000000000e+00 0.0000000000000000e+00  0.0000000000000000e+00 0.0000000000000000e+00 0.0000000000000000e+00  0.0000000000000000e+00 0.0000000000000000e+00 0.0000000000000000e+00  0.0000000000000000e+00 0.0000000000000000e+00 0.0000000000000000e+00  0.0000000000000000e+00 0.0000000000000000e+00 0.0000000000000000e+00  0.0000000000000000e+00 0.0000000000000000e+00 0.0000000000000000e+00  0.0000000000000000e+00 0.0000000000000000e+00 0.0000000000000000e+00  0.0000000000000000e+00 0.0000000000000000e+00 0.0000000000000000e+00  0.0000000000000000e+00 0.0000000000000000e+00 0.0000000000000000e+00  0.0000000000000000e+00 0.0000000000000000e+00 0.0000000000000000e+00  0.0000000000000000e+00 0.0000000000000000e+00 0.0000000000000000e+00  0.0000000000000000e+00 0.0000000000000000e+00 0.0000000000000000e+00  0.0000000000000000e+00 0.0000000000000000e+00 0.0000000000000000e+00  0.0000000000000000e+00 0.0000000000000000e+00 0.0000000000000000e+00  0.0000000000000000e+00 0.0000000000000000e+00 0.0000000000000000e+00  0.0000000000000000e+00 0.0000000000000000e+00 0.0000000000000000e+00  0.0000000000000000e+00 0.0000000000000000e+00 0.0000000000000000e+00  0.0000000000000000e+00 0.0000000000000000e+00 0.0000000000000000e+00  0.0000000000000000e+00 0.0000000000000000e+00 0.0000000000000000e+00  0.0000000000000000e+00 0.0000000000000000e+00 0.0000000000000000e+00  0.0000000000000000e+00 0.0000000000000000e+00 0.0000000000000000e+00  0.0000000000000000e+00 0.0000000000000000e+00 0.0000000000000000e+00  0.0000000000000000e+00 0.0000000000000000e+00 0.0000000000000000e+00  0.0000000000000000e+00 0.0000000000000000e+00 0.0000000000000000e+00  0.0000000000000000e+00 0.0000000000000000e+00 0.0000000000000000e+00  0.0000000000000000e+00 0.0000000000000000e+00 0.0000000000000000e+00  0.0000000000000000e+00 0.0000000000000000e+00 0.0000000000000000e+00  0.0000000000000000e+00 0.0000000000000000e+00 0.0000000000000000e+00  0.0000000000000000e+00 0.0000000000000000e+00 0.0000000000000000e+00  0.0000000000000000e+00 0.0000000000000000e+00 0.0000000000000000e+00  0.0000000000000000e+00 0.0000000000000000e+00 0.0000000000000000e+00  0.0000000000000000e+00 0.0000000000000000e+00 0.0000000000000000e+00  0.0000000000000000e+00 0.0000000000000000e+00 0.0000000000000000e+00  0.0000000000000000e+00 0.0000000000000000e+00 0.0000000000000000e+00  0.0000000000000000e+00 0.0000000000000000e+00 0.0000000000000000e+00  0.0000000000000000e+00 0.0000000000000000e+00 0.0000000000000000e+00  0.0000000000000000e+00 0.0000000000000000e+00 0.0000000000000000e+00  0.0000000000000000e+00 0.0000000000000000e+00 0.0000000000000000e+00  0.0000000000000000e+00 0.0000000000000000e+00 0.0000000000000000e+00  0.0000000000000000e+00 0.0000000000000000e+00 0.0000000000000000e+00  0.0000000000000000e+00 0.0000000000000000e+00 0.0000000000000000e+00  0.0000000000000000e+00 0.0000000000000000e+00 0.0000000000000000e+00  0.0000000000000000e+00 0.0000000000000000e+00 0.0000000000000000e+00  0.0000000000000000e+00 0.0000000000000000e+00 0.0000000000000000e+00  0.0000000000000000e+00 0.0000000000000000e+00 0.0000000000000000e+00  0.0000000000000000e+00 0.0000000000000000e+00 0.0000000000000000e+00  0.0000000000000000e+00 0.0000000000000000e+00 0.0000000000000000e+00  0.0000000000000000e+00 0.0000000000000000e+00 0.0000000000000000e+00  0.0000000000000000e+00 0.0000000000000000e+00 0.0000000000000000e+00  0.0000000000000000e+00 0.0000000000000000e+00 0.0000000000000000e+00  0.0000000000000000e+00 0.0000000000000000e+00 0.0000000000000000e+00  0.0000000000000000e+00 0.0000000000000000e+00 0.0000000000000000e+00  0.0000000000000000e+00 0.0000000000000000e+00 0.0000000000000000e+00  0.0000000000000000e+00 0.0000000000000000e+00 0.0000000000000000e+00  0.0000000000000000e+00 0.0000000000000000e+00 0.0000000000000000e+00  0.0000000000000000e+00 0.0000000000000000e+00 0.0000000000000000e+00  0.0000000000000000e+00 0.0000000000000000e+00 0.0000000000000000e+00  0.0000000000000000e+00 0.0000000000000000e+00 0.0000000000000000e+00  0.0000000000000000e+00 0.0000000000000000e+00 0.0000000000000000e+00  0.0000000000000000e+00 0.0000000000000000e+00 0.0000000000000000e+00  0.0000000000000000e+00 0.0000000000000000e+00 0.0000000000000000e+00  0.0000000000000000e+00 0.0000000000000000e+00 0.0000000000000000e+00  0.0000000000000000e+00 0.0000000000000000e+00 0.0000000000000000e+00  0.0000000000000000e+00 0.0000000000000000e+00 0.0000000000000000e+00  0.0000000000000000e+00 0.0000000000000000e+00 0.0000000000000000e+00  0.0000000000000000e+00 0.0000000000000000e+00 0.0000000000000000e+00  0.0000000000000000e+00 0.0000000000000000e+00 0.0000000000000000e+00  0.0000000000000000e+00 0.0000000000000000e+00 0.0000000000000000e+00  0.0000000000000000e+00 0.0000000000000000e+00 0.0000000000000000e+00  0.0000000000000000e+00 0.0000000000000000e+00 0.0000000000000000e+00  0.0000000000000000e+00 0.0000000000000000e+00 0.0000000000000000e+00  0.0000000000000000e+00 0.0000000000000000e+00 0.0000000000000000e+00  0.0000000000000000e+00 0.0000000000000000e+00 0.0000000000000000e+00  0.0000000000000000e+00 0.0000000000000000e+00 0.0000000000000000e+00  0.0000000000000000e+00 0.0000000000000000e+00 0.0000000000000000e+00  0.0000000000000000e+00 0.0000000000000000e+00 0.0000000000000000e+00  0.0000000000000000e+00 0.0000000000000000e+00 0.0000000000000000e+00  0.0000000000000000e+00 0.0000000000000000e+00 0.0000000000000000e+00  0.0000000000000000e+00 0.0000000000000000e+00 0.0000000000000000e+00  0.0000000000000000e+00 0.0000000000000000e+00 0.0000000000000000e+00  0.0000000000000000e+00 0.0000000000000000e+00 0.0000000000000000e+00  0.0000000000000000e+00 0.0000000000000000e+00 0.0000000000000000e+00  0.0000000000000000e+00 0.0000000000000000e+00 0.0000000000000000e+00  0.0000000000000000e+00 0.0000000000000000e+00 0.0000000000000000e+00  0.0000000000000000e+00 0.0000000000000000e+00 0.0000000000000000e+00  0.0000000000000000e+00 0.0000000000000000e+00 0.0000000000000000e+00  0.0000000000000000e+00 0.0000000000000000e+00 0.0000000000000000e+00  0.0000000000000000e+00 0.0000000000000000e+00 0.0000000000000000e+00  0.0000000000000000e+00 0.0000000000000000e+00 0.0000000000000000e+00  0.0000000000000000e+00 0.0000000000000000e+00 0.0000000000000000e+00  0.0000000000000000e+00 0.0000000000000000e+00 0.0000000000000000e+00  0.0000000000000000e+00 0.0000000000000000e+00 0.0000000000000000e+00  0.0000000000000000e+00 0.0000000000000000e+00 0.0000000000000000e+00  0.0000000000000000e+00 0.0000000000000000e+00 0.0000000000000000e+00  0.0000000000000000e+00 0.0000000000000000e+00 0.0000000000000000e+00  0.0000000000000000e+00 0.0000000000000000e+00 0.0000000000000000e+00  0.0000000000000000e+00 0.0000000000000000e+00 0.0000000000000000e+00  0.0000000000000000e+00 0.0000000000000000e+00 0.0000000000000000e+00  0.0000000000000000e+00 0.0000000000000000e+00 0.0000000000000000e+00  0.0000000000000000e+00 0.0000000000000000e+00 0.0000000000000000e+00  0.0000000000000000e+00 0.0000000000000000e+00 0.0000000000000000e+00  0.0000000000000000e+00 0.0000000000000000e+00 0.0000000000000000e+00  0.0000000000000000e+00 0.0000000000000000e+00 0.0000000000000000e+00  0.0000000000000000e+00 0.0000000000000000e+00 0.0000000000000000e+00  0.0000000000000000e+00 0.0000000000000000e+00 0.0000000000000000e+00  0.0000000000000000e+00 0.0000000000000000e+00 0.0000000000000000e+00  0.0000000000000000e+00 0.0000000000000000e+00 0.0000000000000000e+00  0.0000000000000000e+00 0.0000000000000000e+00 0.0000000000000000e+00  0.0000000000000000e+00 0.0000000000000000e+00 0.0000000000000000e+00  0.0000000000000000e+00 0.0000000000000000e+00 0.0000000000000000e+00  0.0000000000000000e+00 0.0000000000000000e+00 0.0000000000000000e+00  0.0000000000000000e+00 0.0000000000000000e+00 0.0000000000000000e+00  0.0000000000000000e+00 0.0000000000000000e+00 0.0000000000000000e+00  0.0000000000000000e+00 0.0000000000000000e+00 0.0000000000000000e+00  0.0000000000000000e+00 0.0000000000000000e+00 0.0000000000000000e+00  0.0000000000000000e+00 0.0000000000000000e+00 0.0000000000000000e+00  1.0607565096483624e-06 -4.0698489659696012e-06 0.0000000000000000e+00  2.3824930310521496e-06 -5.3528442266378471e-06 0.0000000000000000e+00  3.8051423280919264e-06 -7.1690863556394348e-06 0.0000000000000000e+00  5.4293007973262348e-06 -9.6219810413252536e-06 0.0000000000000000e+00  6.9448650848774128e-06 -1.2747903964920222e-05 0.0000000000000000e+00  8.6047499054899586e-06 -1.6617876802442582e-05 0.0000000000000000e+00  1.0073382551953043e-05 -2.1035660407076621e-05 0.0000000000000000e+00  1.1529692004572869e-05 -2.6183221022605101e-05 0.0000000000000000e+00  1.3118981139439498e-05 -3.1891285307953048e-05 0.0000000000000000e+00  1.4473806876734996e-05 -3.8184771311396716e-05 0.0000000000000000e+00  1.5991085672518897e-05 -4.5070200446682948e-05 0.0000000000000000e+00  1.7263769897612951e-05 -5.2488483511391755e-05 0.0000000000000000e+00  1.8644287292760904e-05 -6.0439388745844172e-05 0.0000000000000000e+00  1.9833545029579192e-05 -6.8817017890539001e-05 0.0000000000000000e+00  2.0969805770355226e-05 -7.7721367651981474e-05 0.0000000000000000e+00  2.2162761561678580e-05 -8.7030764244949292e-05 0.0000000000000000e+00  2.3142935989192087e-05 -9.6731885264178037e-05 0.0000000000000000e+00  2.4186461542747809e-05 -1.0685581524887640e-04 0.0000000000000000e+00  2.5023922763357422e-05 -1.1730351029454987e-04 0.0000000000000000e+00  2.5898320016565315e-05 -1.2811084884275552e-04 0.0000000000000000e+00  2.6609693807927301e-05 -1.3920444649016269e-04 0.0000000000000000e+00  2.7305847440764694e-05 -1.5061655793360869e-04 0.0000000000000000e+00  2.7869208234104395e-05 -1.6224669593925404e-04 0.0000000000000000e+00  2.8355583667053879e-05 -1.7415302109171851e-04 0.0000000000000000e+00  2.8832452905901955e-05 -1.8625896338478643e-04 0.0000000000000000e+00  2.9180530233691415e-05 -1.9856100517312279e-04 0.0000000000000000e+00  2.9471291479962443e-05 -2.1108592522966208e-04 0.0000000000000000e+00  2.9670956126347975e-05 -2.2373375922072274e-04 0.0000000000000000e+00  2.9811217572496552e-05 -2.3657635206047849e-04 0.0000000000000000e+00  2.9866812715402241e-05 -2.4951446029034696e-04 0.0000000000000000e+00  2.9861610727503865e-05 -2.6261625211616868e-04 0.0000000000000000e+00  2.9775161447935775e-05 -2.7578587717608629e-04 0.0000000000000000e+00  2.9629509818607775e-05 -2.8909243946319485e-04 0.0000000000000000e+00  2.9404857098702536e-05 -3.0244002518079745e-04 0.0000000000000000e+00  2.9118019172719369e-05 -3.1590504350708829e-04 0.0000000000000000e+00  2.8759132236571838e-05 -3.2939241704174133e-04 0.0000000000000000e+00  2.8339915535324264e-05 -3.4297352687036412e-04 0.0000000000000000e+00  2.7851365391261696e-05 -3.5656072892033372e-04 0.0000000000000000e+00  2.7300660954845688e-05 -3.7022471023807554e-04 0.0000000000000000e+00  2.6680999927548841e-05 -3.8388112141718195e-04 0.0000000000000000e+00  2.5992142336980585e-05 -3.9758833018452234e-04 0.0000000000000000e+00  2.5249733411970246e-05 -4.1129713015898009e-04 0.0000000000000000e+00  2.4435201483445500e-05 -4.2502795859838965e-04 0.0000000000000000e+00  2.3583327293552209e-05 -4.3876589552220173e-04 0.0000000000000000e+00  2.2655558318561667e-05 -4.5248916552406124e-04 0.0000000000000000e+00  2.1696014072395176e-05 -4.6626099142341567e-04 0.0000000000000000e+00  1.1219141628843121e-05 -4.7924615597119035e-04 0.0000000000000000e+00  -7.2992663700021222e-06 -4.7729309547069087e-04 0.0000000000000000e+00  -1.5350955395408271e-05 -4.6259889025783538e-04 0.0000000000000000e+00  -1.4362465515844680e-05 -4.4870679553978698e-04 0.0000000000000000e+00  -1.3407571961595662e-05 -4.3479096413577008e-04 0.0000000000000000e+00  -1.2514755509323413e-05 -4.2090964562074644e-04 0.0000000000000000e+00  -1.1660128840335682e-05 -4.0703909798393796e-04 0.0000000000000000e+00  -1.0870294369522049e-05 -3.9318789790845964e-04 0.0000000000000000e+00  -1.0113301391898788e-05 -3.7936457548483159e-04 0.0000000000000000e+00  -9.4216254637908504e-06 -3.6554666388613900e-04 0.0000000000000000e+00  -8.7651937324633635e-06 -3.5179214082679063e-04 0.0000000000000000e+00  -8.1683030102882884e-06 -3.3804208098905670e-04 0.0000000000000000e+00  -7.5983457922156248e-06 -3.2437069826157962e-04 0.0000000000000000e+00  -7.0913942415608495e-06 -3.1072107429928289e-04 0.0000000000000000e+00  -6.6029103750913465e-06 -2.9716876181274619e-04 0.0000000000000000e+00  -6.1801046708130522e-06 -2.8365903102323012e-04 0.0000000000000000e+00  -5.7650304851002559e-06 -2.7026537103122284e-04 0.0000000000000000e+00  -5.4216288777087653e-06 -2.5693734164558367e-04 0.0000000000000000e+00  -5.0752271076903389e-06 -2.4374852554169137e-04 0.0000000000000000e+00  -4.8073260247091250e-06 -2.3065226608544412e-04 0.0000000000000000e+00  -4.5241837196409216e-06 -2.1772466398980401e-04 0.0000000000000000e+00  -4.3261724737336277e-06 -2.0492105148531587e-04 0.0000000000000000e+00  -4.0970414962665533e-06 -1.9231597814946933e-04 0.0000000000000000e+00  -3.9611067401609748e-06 -1.7987157725753662e-04 0.0000000000000000e+00  -3.7900098795059833e-06 -1.6765268001866560e-04 0.0000000000000000e+00  -3.6928773316022331e-06 -1.5563100565053935e-04 0.0000000000000000e+00  -3.6301831284393541e-06 -1.4389676861728098e-04 0.0000000000000000e+00  -3.5127530596348801e-06 -1.3237944233477963e-04 0.0000000000000000e+00  -3.4680745203352834e-06 -1.2117141605681453e-04 0.0000000000000000e+00  -3.3993788666208165e-06 -1.1028433934891970e-04 0.0000000000000000e+00  -3.3783595469776197e-06 -9.9725196364184744e-05 0.0000000000000000e+00  -3.3302387597339007e-06 -8.9543701218009988e-05 0.0000000000000000e+00  -3.3239217330971788e-06 -7.9727415378049669e-05 0.0000000000000000e+00  -3.2401299955432583e-06 -7.0387525581010817e-05 0.0000000000000000e+00  -3.2532005361828866e-06 -6.1414064362141056e-05 0.0000000000000000e+00  -3.2699629387710978e-06 -5.2995553307125801e-05 0.0000000000000000e+00  -3.1627409881495105e-06 -4.4974987199826314e-05 0.0000000000000000e+00  -3.1200551969102797e-06 -3.7538396001306012e-05 0.0000000000000000e+00  -3.0089066782733705e-06 -3.0641801362521412e-05 0.0000000000000000e+00  -2.9345966259331679e-06 -2.4310271116568516e-05 0.0000000000000000e+00  -2.7267918957963582e-06 -1.8642780147517143e-05 0.0000000000000000e+00  -2.6385160657544319e-06 -1.3496620493548717e-05 0.0000000000000000e+00  -2.5344409919157447e-06 -9.0987276896469212e-06 0.0000000000000000e+00  -2.2505129525370920e-06 -5.2350001805153366e-06 0.0000000000000000e+00  -2.0615213588766396e-06 -2.0832158829039841e-06 0.0000000000000000e+00  -1.6834102962799032e-06 3.6956662280104977e-07 0.0000000000000000e+00  -1.3360866657186348e-06 2.0049602774991189e-06 0.0000000000000000e+00  -6.6930903747279235e-07 2.7442891605671887e-06 0.0000000000000000e+00  -2.5685417758954222e-07 -6.8141463496078702e-07 0.0000000000000000e+00  3.7594303249911042e-06 -4.5749744304523013e-04 0.0000000000000000e+00  5.7781302433553806e-06 -4.3109727139303540e-04 0.0000000000000000e+00  8.1081471831284586e-06 -3.8801915965423642e-04 0.0000000000000000e+00  1.3403902811350309e-06 -4.0825454494367466e-06 0.0000000000000000e+00  9.1834849115568177e-06 -3.6100219774020298e-04 0.0000000000000000e+00  2.5687050361346758e-06 -1.0028267395357600e-05 0.0000000000000000e+00  1.0276491802058269e-05 -3.3365397341392222e-04 0.0000000000000000e+00  4.6449924851798761e-06 -2.4965514211374716e-05 0.0000000000000000e+00  6.0574966959861069e-06 -3.7429717444611739e-05 0.0000000000000000e+00  1.1150735596469799e-05 -3.0650435489609697e-04 0.0000000000000000e+00  8.9577031612818804e-06 -7.8723430739038714e-05 0.0000000000000000e+00  1.2251942771948408e-05 -2.5311227369759529e-04 0.0000000000000000e+00  7.1593891287571712e-06 -5.1621514974531347e-05 0.0000000000000000e+00  1.0111059074525387e-05 -9.7923852189070549e-05 0.0000000000000000e+00  1.2482173810152789e-05 -2.2705795714827147e-04 0.0000000000000000e+00  1.1808693258997476e-05 -2.7962818142818863e-04 0.0000000000000000e+00  1.0968747559667561e-05 -1.1896216193610465e-04 0.0000000000000000e+00  1.2500023311385925e-05 -2.0158269355926875e-04 0.0000000000000000e+00  1.1432208346065122e-05 -1.4032657608183897e-04 0.0000000000000000e+00  1.2530278256731044e-05 -1.7735756799041902e-04 0.0000000000000000e+00  1.1998572534986224e-05 -1.5785001429252348e-04 0.0000000000000000e+00  8.2130587068019108e-06 -6.4141558053471985e-05 0.0000000000000000e+00  6.6140443915816028e-06 -4.1036304746302549e-04 0.0000000000000000e+00  3.6383561823196133e-06 -1.6571292633848869e-05 0.0000000000000000e+00  -1.6839178787010290e-06 -4.4352979592535683e-04 0.0000000000000000e+00  -2.3306594105716594e-07 -6.6476455183440000e-07 0.0000000000000000e+00  4.4421433082172091e-06 -3.4660655656123981e-04 0.0000000000000000e+00  3.2116330101643464e-06 -3.7406448273786749e-04 0.0000000000000000e+00  3.4695246416041292e-06 -8.2628583702299598e-06 0.0000000000000000e+00  7.8397983499875512e-06 -3.1960514331588271e-05 0.0000000000000000e+00  6.9095778630574472e-06 -2.6551481090598229e-04 0.0000000000000000e+00  5.4661591183233841e-06 -3.1931368404197584e-04 0.0000000000000000e+00  1.3405751017524309e-05 -8.9037956327776919e-05 0.0000000000000000e+00  7.3383508245821270e-06 -2.3918243201337901e-04 0.0000000000000000e+00  9.5711124124609404e-06 -4.5746129624807462e-05 0.0000000000000000e+00  1.4626534509210972e-05 -1.0933081436323368e-04 0.0000000000000000e+00  7.5763957014362639e-06 -2.1336981640452009e-04 0.0000000000000000e+00  6.2867388604769848e-06 -2.9225612762035180e-04 0.0000000000000000e+00  1.6596507689479878e-05 -1.3111065475084226e-04 0.0000000000000000e+00  7.6280999767988730e-06 -1.8820010069092429e-04 0.0000000000000000e+00  -3.7758353722036000e-07 -9.4438118072550726e-07 0.0000000000000000e+00  -6.6197397932923316e-07 6.3904702653552912e-07 0.0000000000000000e+00  7.1843660757226335e-06 -4.6880336154748418e-04 0.0000000000000000e+00  1.5424611802355796e-06 -3.63