<?xml version="1.0"?>
<VTKFile type="UnstructuredGrid"  version="0.1"  >
<UnstructuredGrid>
<Piece  NumberOfPoints="1419" NumberOfCells="2698">
<Points>
<DataArray  type="Float64"  NumberOfComponents="3"  format="ascii">0 0 0  0 0.41 0  2.5 0 0  2.5 0.41 0  0.6 0.19 0  0.6 0.21 0  0.25 0.2 0  0.15 0.2 0  0.2489897948556636 0.21 0  0.2489897948556636 0.19 0  0.6 0.2 0  0 0.3807142857143437 0  0 0.3514285714286952 0  0 0.3221428571430699 0  0 0.29285714285744 0  0 0.2635714285718054 0  0 0.2342857142861561 0  0 0.2050000000005308 0  0 0.175714285714732 0  0 0.1464285714289574 0  0 0.1171428571431897 0  0 0.08785714285737878 0  0 0.05857142857161107 0  0 0.02928571428580012 0  0.03015443760436003 0 0  0.06140001986583606 0 0  0.09377624077125973 0 0  0.1273239957535082 0 0  0.1620856860351972 0 0  0.1981052433264291 0 0  0.235428184091502 0 0  0.2741016576309132 0 0  0.3141745521465447 0 0  0.3556974926295285 0 0  0.3987229542472677 0 0  0.4433053055141081 0 0  0.4895008759286886 0 0  0.5373680609405097 0 0  0.5869673343216626 0 0  0.6383613676634521 0 0  0.6916151138468254 0 0  0.7467958595648856 0 0  0.8039733463919316 0 0  0.8632198139502143 0 0  0.9246101326867038 0 0  0.9882218810934433 0 0  1.054135445558498 0 0  1.122434100542598 0 0  1.193204177141305 0 0  1.266535089879536 0 0  1.342519516046404 0 0  1.421253448503939 0 0  1.502836389106271 0 0  1.587371439758838 0 0  1.674965418777374 0 0  1.765729001825544 0 0  1.859776908880082 0 0  1.957227977487062 0 0  2.058205329869943 0 0  2.162836591189951 0 0  2.271253957290865 0 0  2.383594446803425 0 0  2.5 0.1024999999997612 0  2.5 0.2049999999994743 0  2.5 0.3074999999997183 0  2.383594446803656 0.41 0  2.271253957291315 0.41 0  2.162836591190598 0.41 0  2.058205329870775 0.41 0  1.957227977488067 0.41 0  1.859776908881246 0.41 0  1.765729001826854 0.41 0  1.674965418778818 0.41 0  1.58737143976041 0.41 0  1.502836389107956 0.41 0  1.421253448505726 0.41 0  1.342519516048286 0.41 0  1.266535089881505 0.41 0  1.193204177143353 0.41 0  1.122434100544716 0.41 0  1.05413544556068 0.41 0  0.9882218810956305 0.41 0  0.9246101326886647 0.41 0  0.8632198139519631 0.41 0  0.8039733463934788 0.41 0  0.7467958595662458 0.41 0  0.6916151138480078 0.41 0  0.6383613676644679 0.41 0  0.5869673343225223 0.41 0  0.5373680609412221 0.41 0  0.4895008759292634 0.41 0  0.4433053055145528 0.41 0  0.3987229542475914 0.41 0  0.3556974926297398 0.41 0  0.3141745521466497 0.41 0  0.2741016576310038 0.41 0  0.2354281840915826 0.41 0  0.1981052433265003 0.41 0  0.1620856860352591 0.41 0  0.1273239957535623 0.41 0  0.09377624077128965 0.41 0  0.06140001986584975 0.41 0  0.03015443760436654 0.41 0  0.2497468076502589 0.2050254481002335 0  0.2497468076502614 0.1949745518997913 0  0.2469965252529372 0.1829317073451959 0  0.2439893735792749 0.1762316384219906 0  0.2400332147834255 0.1700443375285386 0  0.2352133972704371 0.1645032867342007 0  0.2296339016332438 0.1597280261969788 0  0.2234150974217223 0.1558215752574715 0  0.2166911463437691 0.1528682099456123 0  0.2096071079204251 0.1509316448471593 0  0.2023158100364996 0.1500536585536553 0  0.194974551899914 0.1502531923497262 0  0.1877417105387872 0.1515259415822739 0  0.1807733240461124 0.153844448527136 0  0.1742197252835808 0.15715869474974 0  0.1682222986673531 0.1613971801805478 0  0.162910430003803 0.1664684656256651 0  0.1583987151779087 0.1722631454351573 0  0.1547844879126891 0.178656207771761 0  0.1521457199348551 0.1855097315605723 0  0.1505393388476355 0.1926758619366523 0  0.1505393388476328 0.2073241380633295 0  0.1521457199348437 0.2144902684393899 0  0.1547844879126531 0.221343792228163 0  0.1583987151778488 0.2277368545647528 0  0.1629104300036858 0.2335315343742052 0  0.1682222986671726 0.2386028198193036 0  0.1742197252833576 0.2428413052501257 0  0.1807733240458683 0.2461555514727623 0  0.1877417105384929 0.2484740584176516 0  0.1949745518995776 0.2497468076502398 0  0.202315810036185 0.2499463414463592 0  0.2096071079201568 0.2490683551528932 0  0.2166911463435495 0.2471317900544655 0  0.2234150974215506 0.2441784247426195 0  0.2296339016331197 0.2402719738031125 0  0.2352133972703547 0.2354967132658811 0  0.2400332147833751 0.2299556624715287 0  0.2439893735792577 0.2237683615780412 0  0.246996525252926 0.2170682926548348 0  0.25645809709277 0.21 0  0.2639263993298655 0.21 0  0.271394701566961 0.21 0  0.2788630038040554 0.21 0  0.2863313060411479 0.21 0  0.2937996082782405 0.21 0  0.301267910515333 0.21 0  0.3087362127524279 0.21 0  0.3162045149895234 0.21 0  0.3236728172265972 0.21 0  0.3311411194636928 0.21 0  0.3386094217007701 0.21 0  0.3460777239378666 0.21 0  0.3535460261749672 0.21 0  0.3610143284120516 0.21 0  0.3684826306491596 0.21 0  0.3759509328862226 0.21 0  0.383419235123329 0.21 0  0.3908875373604028 0.21 0  0.3983558395975142 0.21 0  0.4058241418345938 0.21 0  0.4132924440716992 0.21 0  0.4207607463087888 0.21 0  0.4282290485459029 0.21 0  0.4356973507830418 0.21 0  0.4431656530201649 0.21 0  0.4506339552573136 0.21 0  0.4581022574944306 0.21 0  0.4655705597315852 0.21 0  0.4730388619686996 0.21 0  0.480507164205851 0.21 0  0.4879754664429498 0.21 0  0.4954437686800938 0.21 0  0.502912070917267 0.21 0  0.5103803731544119 0.21 0  0.5178486753915261 0.21 0  0.5253169776286404 0.21 0  0.5327852798657868 0.21 0  0.5402535821029386 0.21 0  0.54772188434007 0.21 0  0.5551901865771842 0.21 0  0.5626584888143201 0.21 0  0.5701267910514778 0.21 0  0.5775950932886138 0.21 0  0.5850633955257281 0.21 0  0.5925316977628483 0.21 0  0.6 0.2050000000000054 0  0.6 0.1950000000000217 0  0.5925316977628897 0.19 0  0.5850633955257988 0.19 0  0.5775950932887378 0.19 0  0.5701267910515998 0.19 0  0.5626584888145268 0.19 0  0.5551901865773963 0.19 0  0.547721884340339 0.19 0  0.5402535821032429 0.19 0  0.5327852798661811 0.19 0  0.5253169776290537 0.19 0  0.5178486753919799 0.19 0  0.5103803731549078 0.19 0  0.502912070917822 0.19 0  0.4954437686807294 0.19 0  0.4879754664436223 0.19 0  0.4805071642065402 0.19 0  0.4730388619694271 0.19 0  0.4655705597323621 0.19 0  0.4581022574952563 0.19 0  0.4506339552581777 0.19 0  0.4431656530210671 0.19 0  0.4356973507839815 0.19 0  0.4282290485468779 0.19 0  0.4207607463097617 0.19 0  0.4132924440726327 0.19 0  0.4058241418354857 0.19 0  0.3983558395983636 0.19 0  0.3908875373612097 0.19 0  0.3834192351240934 0.19 0  0.3759509328869369 0.19 0  0.3684826306498175 0.19 0  0.361014328412667 0.19 0  0.3535460261755617 0.19 0  0.3460777239384295 0.19 0  0.3386094217012945 0.19 0  0.3311411194641595 0.19 0  0.3236728172270245 0.19 0  0.3162045149898895 0.19 0  0.3087362127527544 0.19 0  0.3012679105156187 0.19 0  0.2937996082784807 0.19 0  0.2863313060413428 0.19 0  0.2788630038042048 0.19 0  0.2713947015670686 0.19 0  0.2639263993299336 0.19 0  0.2564580970927985 0.19 0  0.2607803159922026 0.2000727136295815 0  0.5887803774232762 0.2001272386983733 0  0.5745072403740523 0.2002044435018727 0  0.5511891430099709 0.2001122610077113 0  0.2751288526855082 0.20000000000002 0  0.5365194309847112 0.1999999999999436 0  0.2894621222999649 0.1998691686390484 0  0.5215828265105155 0.1999999999999228 0  0.3127789816668748 0.1998657885438805 0  0.3274069683451451 0.2000000000000796 0  0.5066462220363641 0.199999999999908 0  0.3650630746574081 0.199866017807523 0  0.476773013087985 0.1999999999998713 0  0.3417402379596385 0.1998691686391011 0  0.3796850840047755 0.200000000000134 0  0.4618364086138087 0.1999999999998546 0  0.4917096175621762 0.1999999999998808 0  0.3946216884789568 0.2000000000001512 0  0.446899804139621 0.1999999999998389 0  0.4089549580935208 0.1998691686391595 0  0.4322718174608562 0.200127451265745 0  0.4201487168029707 0.1999966199048527 0  0.3528922713220932 0.2000185703532356 0  0.5633122436674589 0.1999814296467508 0  0.3006558810093873 0.1999966199048318 0  0.5815926498168407 0.1966545283159175 0  0.2677053789419034 0.1964246479135325 0  0.5290511287476175 0.1970915826863981 0  0.5439877332217911 0.197091582686394 0  0.2825131256993216 0.2035478995978015 0  0.3199386661080599 0.202908417313604 0  0.4842413153250809 0.1970915826863873 0  0.5141145242734466 0.1970915826863843 0  0.3722167817676917 0.2029084173136195 0  0.4693047108508938 0.1970915826863783 0  0.3348752705822316 0.202908417313609 0  0.3871533862418661 0.2029084173136212 0  0.4543681063767183 0.1970915826863795 0  0.4991779197992749 0.1970915826863902 0  0.4020059614928624 0.203547899597858 0  0.4394315019025246 0.1970915826863714 0  0.2550657455369551 0.2034088125358657 0  0.2548908499171161 0.1966940311614271 0  0.5946539510196798 0.2024302972968126 0  0.267698176732111 0.2039977513680092 0  0.4261685417851465 0.196409292431739 0  0.3590076176283495 0.196411355804271 0  0.5571672426447437 0.2036011176410121 0  0.3066757059912147 0.1964092924317024 0  0.594380730180568 0.1966558399668133 0  0.4842413153245942 0.2040749161535287 0  0.4693047108503577 0.2040749161535231 0  0.3871533862424271 0.1959250838464788 0  0.372246743208829 0.1959123236376545 0  0.5141145242731028 0.2040749161535395 0  0.4543681063761134 0.2040749161535186 0  0.4019979587101454 0.1959834479682427 0  0.4394608940728603 0.2040870543693135 0  0.5439623148931173 0.2040856076781014 0  0.5290511287473298 0.2040749161535501 0  0.4991779197988497 0.2040749161535382 0  0.3347912413592433 0.1959225448935183 0  0.3199680582793816 0.1959123018030061 0  0.2825051229162361 0.1959834479681729 0  0.3590471196690275 0.2036304442587945 0  0.5571594006495384 0.1963685282145804 0  0.3067669986803285 0.203627750582736 0  0.4262598344738712 0.2036568242185335 0  0.5814408164431408 0.2041285596160068 0  0.5688286748170428 0.1961819304477386 0  0.4145905603063645 0.2038180695522843 0  0.3473758401724931 0.2038180695522752 0  0.2950977245128307 0.2038180695522663 0  0.5688286748170693 0.203818069552238 0  0.2950977245127906 0.1961819304477774 0  0.3473758401723931 0.1961819304478349 0  0.4145905603061963 0.1961819304479011 0  0.2601812407614425 0.2056861609747042
[...]
<PointData  Vectors="f_40-1"> 
<DataArray  type="Float64"  Name="f_40-1"  NumberOfComponents="3" format="ascii">0.0000000000000000e+00 0.0000000000000000e+00 0.0000000000000000e+00  0.0000000000000000e+00 0.0000000000000000e+00 0.0000000000000000e+00  0.0000000000000000e+00 0.0000000000000000e+00 0.0000000000000000e+00  0.0000000000000000e+00 0.0000000000000000e+00 0.0000000000000000e+00  -1.5441681863525810e-05 -4.4324313936879673e-04 0.0000000000000000e+00  1.8936666056102924e-05 -4.4708823267530150e-04 0.0000000000000000e+00  0.0000000000000000e+00 0.0000000000000000e+00 0.0000000000000000e+00  0.0000000000000000e+00 0.0000000000000000e+00 0.0000000000000000e+00  0.0000000000000000e+00 0.0000000000000000e+00 0.0000000000000000e+00  0.0000000000000000e+00 0.0000000000000000e+00 0.0000000000000000e+00  1.4157288325723548e-06 -4.4516079901231801e-04 0.0000000000000000e+00  0.0000000000000000e+00 0.0000000000000000e+00 0.0000000000000000e+00  0.0000000000000000e+00 0.0000000000000000e+00 0.0000000000000000e+00  0.0000000000000000e+00 0.0000000000000000e+00 0.0000000000000000e+00  0.0000000000000000e+00 0.0000000000000000e+00 0.0000000000000000e+00  0.0000000000000000e+00 0.0000000000000000e+00 0.0000000000000000e+00  0.0000000000000000e+00 0.0000000000000000e+00 0.0000000000000000e+00  0.0000000000000000e+00 0.0000000000000000e+00 0.0000000000000000e+00  0.0000000000000000e+00 0.0000000000000000e+00 0.0000000000000000e+00  0.0000000000000000e+00 0.0000000000000000e+00 0.0000000000000000e+00  0.0000000000000000e+00 0.0000000000000000e+00 0.0000000000000000e+00  0.0000000000000000e+00 0.0000000000000000e+00 0.0000000000000000e+00  0.0000000000000000e+00 0.0000000000000000e+00 0.0000000000000000e+00  0.0000000000000000e+00 0.0000000000000000e+00 0.0000000000000000e+00  0.0000000000000000e+00 0.0000000000000000e+00 0.0000000000000000e+00  0.0000000000000000e+00 0.0000000000000000e+00 0.0000000000000000e+00  0.0000000000000000e+00 0.0000000000000000e+00 0.0000000000000000e+00  0.0000000000000000e+00 0.0000000000000000e+00 0.0000000000000000e+00  0.0000000000000000e+00 0.0000000000000000e+00 0.0000000000000000e+00  0.0000000000000000e+00 0.0000000000000000e+00 0.0000000000000000e+00  0.0000000000000000e+00 0.0000000000000000e+00 0.0000000000000000e+00  0.0000000000000000e+00 0.0000000000000000e+00 0.0000000000000000e+00  0.0000000000000000e+00 0.0000000000000000e+00 0.0000000000000000e+00  0.0000000000000000e+00 0.0000000000000000e+00 0.0000000000000000e+00  0.0000000000000000e+00 0.0000000000000000e+00 0.0000000000000000e+00  0.0000000000000000e+00 0.0000000000000000e+00 0.0000000000000000e+00  0.0000000000000000e+00 0.0000000000000000e+00 0.0000000000000000e+00  0.0000000000000000e+00 0.0000000000000000e+00 0.0000000000000000e+00  0.0000000000000000e+00 0.0000000000000000e+00 0.0000000000000000e+00  0.0000000000000000e+00 0.0000000000000000e+00 0.0000000000000000e+00  0.0000000000000000e+00 0.0000000000000000e+00 0.0000000000000000e+00  0.0000000000000000e+00 0.0000000000000000e+00 0.0000000000000000e+00  0.0000000000000000e+00 0.0000000000000000e+00 0.0000000000000000e+00  0.0000000000000000e+00 0.0000000000000000e+00 0.0000000000000000e+00  0.0000000000000000e+00 0.0000000000000000e+00 0.0000000000000000e+00  0.0000000000000000e+00 0.0000000000000000e+00 0.0000000000000000e+00  0.0000000000000000e+00 0.0000000000000000e+00 0.0000000000000000e+00  0.0000000000000000e+00 0.0000000000000000e+00 0.0000000000000000e+00  0.0000000000000000e+00 0.0000000000000000e+00 0.0000000000000000e+00  0.0000000000000000e+00 0.0000000000000000e+00 0.0000000000000000e+00  0.0000000000000000e+00 0.0000000000000000e+00 0.0000000000000000e+00  0.0000000000000000e+00 0.0000000000000000e+00 0.0000000000000000e+00  0.0000000000000000e+00 0.0000000000000000e+00 0.0000000000000000e+00  0.0000000000000000e+00 0.0000000000000000e+00 0.0000000000000000e+00  0.0000000000000000e+00 0.0000000000000000e+00 0.0000000000000000e+00  0.0000000000000000e+00 0.0000000000000000e+00 0.0000000000000000e+00  0.0000000000000000e+00 0.0000000000000000e+00 0.0000000000000000e+00  0.0000000000000000e+00 0.0000000000000000e+00 0.0000000000000000e+00  0.0000000000000000e+00 0.0000000000000000e+00 0.0000000000000000e+00  0.0000000000000000e+00 0.0000000000000000e+00 0.0000000000000000e+00  0.0000000000000000e+00 0.0000000000000000e+00 0.0000000000000000e+00  0.0000000000000000e+00 0.0000000000000000e+00 0.0000000000000000e+00  0.0000000000000000e+00 0.0000000000000000e+00 0.0000000000000000e+00  0.0000000000000000e+00 0.0000000000000000e+00 0.0000000000000000e+00  0.0000000000000000e+00 0.0000000000000000e+00 0.0000000000000000e+00  0.0000000000000000e+00 0.0000000000000000e+00 0.0000000000000000e+00  0.0000000000000000e+00 0.0000000000000000e+00 0.0000000000000000e+00  0.0000000000000000e+00 0.0000000000000000e+00 0.0000000000000000e+00  0.0000000000000000e+00 0.0000000000000000e+00 0.0000000000000000e+00  0.0000000000000000e+00 0.0000000000000000e+00 0.0000000000000000e+00  0.0000000000000000e+00 0.0000000000000000e+00 0.0000000000000000e+00  0.0000000000000000e+00 0.0000000000000000e+00 0.0000000000000000e+00  0.0000000000000000e+00 0.0000000000000000e+00 0.0000000000000000e+00  0.0000000000000000e+00 0.0000000000000000e+00 0.0000000000000000e+00  0.0000000000000000e+00 0.0000000000000000e+00 0.0000000000000000e+00  0.0000000000000000e+00 0.0000000000000000e+00 0.0000000000000000e+00  0.0000000000000000e+00 0.0000000000000000e+00 0.0000000000000000e+00  0.0000000000000000e+00 0.0000000000000000e+00 0.0000000000000000e+00  0.0000000000000000e+00 0.0000000000000000e+00 0.0000000000000000e+00  0.0000000000000000e+00 0.0000000000000000e+00 0.0000000000000000e+00  0.0000000000000000e+00 0.0000000000000000e+00 0.0000000000000000e+00  0.0000000000000000e+00 0.0000000000000000e+00 0.0000000000000000e+00  0.0000000000000000e+00 0.0000000000000000e+00 0.0000000000000000e+00  0.0000000000000000e+00 0.0000000000000000e+00 0.0000000000000000e+00  0.0000000000000000e+00 0.0000000000000000e+00 0.0000000000000000e+00  0.0000000000000000e+00 0.0000000000000000e+00 0.0000000000000000e+00  0.0000000000000000e+00 0.0000000000000000e+00 0.0000000000000000e+00  0.0000000000000000e+00 0.0000000000000000e+00 0.0000000000000000e+00  0.0000000000000000e+00 0.0000000000000000e+00 0.0000000000000000e+00  0.0000000000000000e+00 0.0000000000000000e+00 0.0000000000000000e+00  0.0000000000000000e+00 0.0000000000000000e+00 0.0000000000000000e+00  0.0000000000000000e+00 0.0000000000000000e+00 0.0000000000000000e+00  0.0000000000000000e+00 0.0000000000000000e+00 0.0000000000000000e+00  0.0000000000000000e+00 0.0000000000000000e+00 0.0000000000000000e+00  0.0000000000000000e+00 0.0000000000000000e+00 0.0000000000000000e+00  0.0000000000000000e+00 0.0000000000000000e+00 0.0000000000000000e+00  0.0000000000000000e+00 0.0000000000000000e+00 0.0000000000000000e+00  0.0000000000000000e+00 0.0000000000000000e+00 0.0000000000000000e+00  0.0000000000000000e+00 0.0000000000000000e+00 0.0000000000000000e+00  0.0000000000000000e+00 0.0000000000000000e+00 0.0000000000000000e+00  0.0000000000000000e+00 0.0000000000000000e+00 0.0000000000000000e+00  0.0000000000000000e+00 0.0000000000000000e+00 0.0000000000000000e+00  0.0000000000000000e+00 0.0000000000000000e+00 0.0000000000000000e+00  0.0000000000000000e+00 0.0000000000000000e+00 0.0000000000000000e+00  0.0000000000000000e+00 0.0000000000000000e+00 0.0000000000000000e+00  0.0000000000000000e+00 0.0000000000000000e+00 0.0000000000000000e+00  0.0000000000000000e+00 0.0000000000000000e+00 0.0000000000000000e+00  0.0000000000000000e+00 0.0000000000000000e+00 0.0000000000000000e+00  0.0000000000000000e+00 0.0000000000000000e+00 0.0000000000000000e+00  0.0000000000000000e+00 0.0000000000000000e+00 0.0000000000000000e+00  0.0000000000000000e+00 0.0000000000000000e+00 0.0000000000000000e+00  0.0000000000000000e+00 0.0000000000000000e+00 0.0000000000000000e+00  0.0000000000000000e+00 0.0000000000000000e+00 0.0000000000000000e+00  0.0000000000000000e+00 0.0000000000000000e+00 0.0000000000000000e+00  0.0000000000000000e+00 0.0000000000000000e+00 0.0000000000000000e+00  0.0000000000000000e+00 0.0000000000000000e+00 0.0000000000000000e+00  0.0000000000000000e+00 0.0000000000000000e+00 0.0000000000000000e+00  0.0000000000000000e+00 0.0000000000000000e+00 0.0000000000000000e+00  0.0000000000000000e+00 0.0000000000000000e+00 0.0000000000000000e+00  0.0000000000000000e+00 0.0000000000000000e+00 0.0000000000000000e+00  0.0000000000000000e+00 0.0000000000000000e+00 0.0000000000000000e+00  0.0000000000000000e+00 0.0000000000000000e+00 0.0000000000000000e+00  0.0000000000000000e+00 0.0000000000000000e+00 0.0000000000000000e+00  0.0000000000000000e+00 0.0000000000000000e+00 0.0000000000000000e+00  0.0000000000000000e+00 0.0000000000000000e+00 0.0000000000000000e+00  0.0000000000000000e+00 0.0000000000000000e+00 0.0000000000000000e+00  0.0000000000000000e+00 0.0000000000000000e+00 0.0000000000000000e+00  0.0000000000000000e+00 0.0000000000000000e+00 0.0000000000000000e+00  0.0000000000000000e+00 0.0000000000000000e+00 0.0000000000000000e+00  0.0000000000000000e+00 0.0000000000000000e+00 0.0000000000000000e+00  0.0000000000000000e+00 0.0000000000000000e+00 0.0000000000000000e+00  0.0000000000000000e+00 0.0000000000000000e+00 0.0000000000000000e+00  0.0000000000000000e+00 0.0000000000000000e+00 0.0000000000000000e+00  0.0000000000000000e+00 0.0000000000000000e+00 0.0000000000000000e+00  0.0000000000000000e+00 0.0000000000000000e+00 0.0000000000000000e+00  0.0000000000000000e+00 0.0000000000000000e+00 0.0000000000000000e+00  0.0000000000000000e+00 0.0000000000000000e+00 0.0000000000000000e+00  0.0000000000000000e+00 0.0000000000000000e+00 0.0000000000000000e+00  0.0000000000000000e+00 0.0000000000000000e+00 0.0000000000000000e+00  0.0000000000000000e+00 0.0000000000000000e+00 0.0000000000000000e+00  0.0000000000000000e+00 0.0000000000000000e+00 0.0000000000000000e+00  0.0000000000000000e+00 0.0000000000000000e+00 0.0000000000000000e+00  0.0000000000000000e+00 0.0000000000000000e+00 0.0000000000000000e+00  1.0385121415745617e-06 -4.0378786252623792e-06 0.0000000000000000e+00  2.3272318557929206e-06 -5.2836746628018875e-06 0.0000000000000000e+00  3.7161652856585108e-06 -7.0265628874046407e-06 0.0000000000000000e+00  5.2960454853416553e-06 -9.3679620602544173e-06 0.0000000000000000e+00  6.7707768149536706e-06 -1.2341705482472680e-05 0.0000000000000000e+00  8.3753252534677834e-06 -1.6015757293982306e-05 0.0000000000000000e+00  9.7965169785595869e-06 -2.0200674375099207e-05 0.0000000000000000e+00  1.1200298650835956e-05 -2.5064847512257659e-05 0.0000000000000000e+00  1.2722918155401359e-05 -3.0449283173289965e-05 0.0000000000000000e+00  1.4021327918031384e-05 -3.6373172392398763e-05 0.0000000000000000e+00  1.5463919191204293e-05 -4.2845680033312600e-05 0.0000000000000000e+00  1.6674622523274493e-05 -4.9805130085992178e-05 0.0000000000000000e+00  1.7977477103430738e-05 -5.7255058201535496e-05 0.0000000000000000e+00  1.9099833575254437e-05 -6.5095855983554192e-05 0.0000000000000000e+00  2.0166558870375501e-05 -7.3417853931069063e-05 0.0000000000000000e+00  2.1280462541252593e-05 -8.2111125728207563e-05 0.0000000000000000e+00  2.2193511375115646e-05 -9.1159474331405722e-05 0.0000000000000000e+00  2.3158761112623153e-05 -1.0059683128101607e-04 0.0000000000000000e+00  2.3931049159131181e-05 -1.1032584726519516e-04 0.0000000000000000e+00  2.4732054402059158e-05 -1.2038590465543114e-04 0.0000000000000000e+00  2.5379942167510403e-05 -1.3070383767679964e-04 0.0000000000000000e+00  2.6008840332252814e-05 -1.4131376578620204e-04 0.0000000000000000e+00  2.6514054825865975e-05 -1.5212246408811351e-04 0.0000000000000000e+00  2.6944556391743908e-05 -1.6318262399967937e-04 0.0000000000000000e+00  2.7363821502779050e-05 -1.7442595377100176e-04 0.0000000000000000e+00  2.7661668062665058e-05 -1.8584681077357898e-04 0.0000000000000000e+00  2.7904049142860106e-05 -1.9747356958677449e-04 0.0000000000000000e+00  2.8060323484867615e-05 -2.0921075974251162e-04 0.0000000000000000e+00  2.8159459715126202e-05 -2.2112799329843742e-04 0.0000000000000000e+00  2.8178610428147893e-05 -2.3313109767736931e-04 0.0000000000000000e+00  2.8139485364862169e-05 -2.4528575032987119e-04 0.0000000000000000e+00  2.8023492318297734e-05 -2.5750103324943200e-04 0.0000000000000000e+00  2.7850886642763586e-05 -2.6984343639027366e-04 0.0000000000000000e+00  2.7603375404318291e-05 -2.8222184344217437e-04 0.0000000000000000e+00  2.7296386693260712e-05 -2.9470970868872515e-04 0.0000000000000000e+00  2.6920980086064308e-05 -3.0721660694020298e-04 0.0000000000000000e+00  2.6487897331234514e-05 -3.1981113162762506e-04 0.0000000000000000e+00  2.5988796445988918e-05 -3.3240986149788240e-04 0.0000000000000000e+00  2.5430200762863493e-05 -3.4508069795283669e-04 0.0000000000000000e+00  2.4805714354296972e-05 -3.5774318388726885e-04 0.0000000000000000e+00  2.4114824812206978e-05 -3.7045336548102524e-04 0.0000000000000000e+00  2.3372817212127995e-05 -3.8316457080851300e-04 0.0000000000000000e+00  2.2561500264418035e-05 -3.9589630337552817e-04 0.0000000000000000e+00  2.1714317959296546e-05 -4.0863455210550395e-04 0.0000000000000000e+00  2.0794296182614876e-05 -4.2135843849124964e-04 0.0000000000000000e+00  1.9844045143243475e-05 -4.3412913639716592e-04 0.0000000000000000e+00  1.0057421211563284e-05 -4.4612370193703984e-04 0.0000000000000000e+00  -7.1174463684085184e-06 -4.4420320440220561e-04 0.0000000000000000e+00  -1.4515711753154443e-05 -4.3052596969973063e-04 0.0000000000000000e+00  -1.3538030915284985e-05 -4.1763937866807409e-04 0.0000000000000000e+00  -1.2592567265401921e-05 -4.0472971696200235e-04 0.0000000000000000e+00  -1.1707163590533045e-05 -3.9185301626001558e-04 0.0000000000000000e+00  -1.0858559270547371e-05 -3.7898640403214438e-04 0.0000000000000000e+00  -1.0072669231497617e-05 -3.6613780179441563e-04 0.0000000000000000e+00  -9.3189127955731353e-06 -3.5331542079311020e-04 0.0000000000000000e+00  -8.6280455121597802e-06 -3.4049727971554244e-04 0.0000000000000000e+00  -7.9719952132225642e-06 -3.2773895841483485e-04 0.0000000000000000e+00  -7.3731031907920424e-06 -3.1498331611340267e-04 0.0000000000000000e+00  -6.8013765003809993e-06 -3.0230159076526715e-04 0.0000000000000000e+00  -6.2899764342852839e-06 -2.8963836639362740e-04 0.0000000000000000e+00  -5.7979908274866646e-06 -2.7706608480595281e-04 0.0000000000000000e+00  -5.3687311740018048e-06 -2.6453134780302101e-04 0.0000000000000000e+00  -4.9490637715943484e-06 -2.5210462939131642e-04 0.0000000000000000e+00  -4.5976728611101776e-06 -2.3973637713475859e-04 0.0000000000000000e+00  -4.2461657764376412e-06 -2.2749721606915837e-04 0.0000000000000000e+00  -3.9693262523594666e-06 -2.1534092641074440e-04 0.0000000000000000e+00  -3.6813825258671784e-06 -2.0334068248389119e-04 0.0000000000000000e+00  -3.4743491685003008e-06 -1.9145181605201690e-04 0.0000000000000000e+00  -3.2419953661800165e-06 -1.7974616637158274e-04 0.0000000000000000e+00  -3.0982048940309332e-06 -1.6818503794972751e-04 0.0000000000000000e+00  -2.9262581858490210e-06 -1.5683072153768130e-04 0.0000000000000000e+00  -2.8248776386405935e-06 -1.4565538327488000e-04 0.0000000000000000e+00  -2.7596242219640970e-06 -1.3474194557868836e-04 0.0000000000000000e+00  -2.6473645385539055e-06 -1.2402620693125092e-04 0.0000000000000000e+00  -2.6065893078831369e-06 -1.1359029310451059e-04 0.0000000000000000e+00  -2.5483167300667239e-06 -1.0344912713231363e-04 0.0000000000000000e+00  -2.5382046450736465e-06 -9.3603086288092399e-05 0.0000000000000000e+00  -2.5081695621071034e-06 -8.4104101680069576e-05 0.0000000000000000e+00  -2.5210929870457630e-06 -7.4934607915768883e-05 0.0000000000000000e+00  -2.4685545318928747e-06 -6.6202065121366552e-05 0.0000000000000000e+00  -2.5077001006538180e-06 -5.7802985681233784e-05 0.0000000000000000e+00  -2.5554193709279037e-06 -4.9912384347897027e-05 0.0000000000000000e+00  -2.4921228484305385e-06 -4.2386391010071947e-05 0.0000000000000000e+00  -2.4923560125677028e-06 -3.5396096610991191e-05 0.0000000000000000e+00  -2.4327227734082237e-06 -2.8905225123414514e-05 0.0000000000000000e+00  -2.4093376426142076e-06 -2.2934349318753764e-05 0.0000000000000000e+00  -2.2641719464468246e-06 -1.7579810735699568e-05 0.0000000000000000e+00  -2.2301608515426239e-06 -1.2709682940361677e-05 0.0000000000000000e+00  -2.1820587786795525e-06 -8.5376452625262924e-06 0.0000000000000000e+00  -1.9646396800071965e-06 -4.8656345652460296e-06 0.0000000000000000e+00  -1.8346532984990589e-06 -1.8612039209838719e-06 0.0000000000000000e+00  -1.5213738159567565e-06 4.8424100286833988e-07 0.0000000000000000e+00  -1.2296679097539953e-06 2.0486398156035202e-06 0.0000000000000000e+00  -6.2152405224398626e-07 2.7526503154269243e-06 0.0000000000000000e+00  -2.3580555697917876e-07 -6.6708388923204906e-07 0.0000000000000000e+00  3.2338059219191545e-06 -4.2589905284713735e-04 0.0000000000000000e+00  5.2232834763915116e-06 -4.0141538098705122e-04 0.0000000000000000e+00  7.5550771901810681e-06 -3.6146282506988384e-04 0.0000000000000000e+00  1.3813937729889549e-06 -3.9289080448228050e-06 0.0000000000000000e+00  8.6494403509100359e-06 -3.3640508483199957e-04 0.0000000000000000e+00  2.6288734903465493e-06 -9.5925984806389083e-06 0.0000000000000000e+00  9.7545013287592305e-06 -3.1104072431956191e-04 0.0000000000000000e+00  4.7156656236143538e-06 -2.3737317048521351e-05 0.0000000000000000e+00  6.1118332898508154e-06 -3.5484160849307595e-05 0.0000000000000000e+00  1.0649062233007260e-05 -2.8585911992279247e-04 0.0000000000000000e+00  8.9403758482084104e-06 -7.4177260004927058e-05 0.0000000000000000e+00  1.1815104988584114e-05 -2.3632849975311227e-04 0.0000000000000000e+00  7.2002594025620007e-06 -4.8810760659783772e-05 0.0000000000000000e+00  1.0032296541307922e-05 -9.2101152892954202e-05 0.0000000000000000e+00  1.2089180684936250e-05 -2.1215106155067365e-04 0.0000000000000000e+00  1.1335475258456092e-05 -2.6092863726651317e-04 0.0000000000000000e+00  1.0832603233107694e-05 -1.1170508773029776e-04 0.0000000000000000e+00  1.2157620486709426e-05 -1.8850333693860535e-04 0.0000000000000000e+00  1.1251966266136292e-05 -1.3158464168712809e-04 0.0000000000000000e+00  1.2227742331449289e-05 -1.6600790701257548e-04 0.0000000000000000e+00  1.1759515060231858e-05 -1.4787900620441904e-04 0.0000000000000000e+00  8.2176352085244901e-06 -6.0542523177697315e-05 0.0000000000000000e+00  6.0823197089656405e-06 -3.8218349775585392e-04 0.0000000000000000e+00  3.7018281690988486e-06 -1.5801274344029207e-05 0.0000000000000000e+00  -1.7541725024045923e-06 -4.1290802496476487e-04 0.0000000000000000e+00  -1.6421389076983062e-07 -6.0099171593363864e-07 0.0000000000000000e+00  4.2985446442299578e-06 -3.2301729332899525e-04 0.0000000000000000e+00  3.0623086405229229e-06 -3.4848432148022800e-04 0.0000000000000000e+00  3.4472823759063034e-06 -7.9722149302779304e-06 0.0000000000000000e+00  7.7583774097238047e-06 -3.0388399635514190e-05 0.0000000000000000e+00  6.8252102913435596e-06 -2.4779503603543585e-04 0.0000000000000000e+00  5.3354756317376016e-06 -2.9770228225392548e-04 0.0000000000000000e+00  1.3101843193063574e-05 -8.3861887701680205e-05 0.0000000000000000e+00  7.2863815038997571e-06 -2.2336110474773256e-04 0.0000000000000000e+00  9.4408119159905530e-06 -4.3352777141063085e-05 0.0000000000000000e+00  1.4242844514607124e-05 -1.0278335221526433e-04 0.0000000000000000e+00  7.5619415178022623e-06 -1.9940280364195959e-04 0.0000000000000000e+00  6.1759490316866220e-06 -2.7260356703181739e-04 0.0000000000000000e+00  1.6065898412935314e-05 -1.2307165665662032e-04 0.0000000000000000e+00  7.6551738918417511e-06 -1.7603206086186344e-04 0.0000000000000000e+00  -3.7258711538468202e-07 -9.4295403377935938e-07 0.0000000000000000e+00  -6.4477287510146440e-07 6.3497220968455619e-07 0.0000000000000000e+00  6.3596373335505467e-06 -4.3640884830457269e-04 0.0000000000000000e+00  1.5312105583640552e-06 -3.55