<?xml version="1.0"?>
<VTKFile type="UnstructuredGrid"  version="0.1"  >
<UnstructuredGrid>
<Piece  NumberOfPoints="1419" NumberOfCells="2698">
<Points>
<DataArray  type="Float64"  NumberOfComponents="3"  format="ascii">0 0 0  0 0.41 0  2.5 0 0  2.5 0.41 0  0.6 0.19 0  0.6 0.21 0  0.25 0.2 0  0.15 0.2 0  0.2489897948556636 0.21 0  0.2489897948556636 0.19 0  0.6 0.2 0  0 0.3807142857143437 0  0 0.3514285714286952 0  0 0.3221428571430699 0  0 0.29285714285744 0  0 0.2635714285718054 0  0 0.2342857142861561 0  0 0.2050000000005308 0  0 0.175714285714732 0  0 0.1464285714289574 0  0 0.1171428571431897 0  0 0.08785714285737878 0  0 0.05857142857161107 0  0 0.02928571428580012 0  0.03015443760436003 0 0  0.06140001986583606 0 0  0.09377624077125973 0 0  0.1273239957535082 0 0  0.1620856860351972 0 0  0.1981052433264291 0 0  0.235428184091502 0 0  0.2741016576309132 0 0  0.3141745521465447 0 0  0.3556974926295285 0 0  0.3987229542472677 0 0  0.4433053055141081 0 0  0.4895008759286886 0 0  0.5373680609405097 0 0  0.5869673343216626 0 0  0.6383613676634521 0 0  0.6916151138468254 0 0  0.7467958595648856 0 0  0.8039733463919316 0 0  0.8632198139502143 0 0  0.9246101326867038 0 0  0.9882218810934433 0 0  1.054135445558498 0 0  1.122434100542598 0 0  1.193204177141305 0 0  1.266535089879536 0 0  1.342519516046404 0 0  1.421253448503939 0 0  1.502836389106271 0 0  1.587371439758838 0 0  1.674965418777374 0 0  1.765729001825544 0 0  1.859776908880082 0 0  1.957227977487062 0 0  2.058205329869943 0 0  2.162836591189951 0 0  2.271253957290865 0 0  2.383594446803425 0 0  2.5 0.1024999999997612 0  2.5 0.2049999999994743 0  2.5 0.3074999999997183 0  2.383594446803656 0.41 0  2.271253957291315 0.41 0  2.162836591190598 0.41 0  2.058205329870775 0.41 0  1.957227977488067 0.41 0  1.859776908881246 0.41 0  1.765729001826854 0.41 0  1.674965418778818 0.41 0  1.58737143976041 0.41 0  1.502836389107956 0.41 0  1.421253448505726 0.41 0  1.342519516048286 0.41 0  1.266535089881505 0.41 0  1.193204177143353 0.41 0  1.122434100544716 0.41 0  1.05413544556068 0.41 0  0.9882218810956305 0.41 0  0.9246101326886647 0.41 0  0.8632198139519631 0.41 0  0.8039733463934788 0.41 0  0.7467958595662458 0.41 0  0.6916151138480078 0.41 0  0.6383613676644679 0.41 0  0.5869673343225223 0.41 0  0.5373680609412221 0.41 0  0.4895008759292634 0.41 0  0.4433053055145528 0.41 0  0.3987229542475914 0.41 0  0.3556974926297398 0.41 0  0.3141745521466497 0.41 0  0.2741016576310038 0.41 0  0.2354281840915826 0.41 0  0.1981052433265003 0.41 0  0.1620856860352591 0.41 0  0.1273239957535623 0.41 0  0.09377624077128965 0.41 0  0.06140001986584975 0.41 0  0.03015443760436654 0.41 0  0.2497468076502589 0.2050254481002335 0  0.2497468076502614 0.1949745518997913 0  0.2469965252529372 0.1829317073451959 0  0.2439893735792749 0.1762316384219906 0  0.2400332147834255 0.1700443375285386 0  0.2352133972704371 0.1645032867342007 0  0.2296339016332438 0.1597280261969788 0  0.2234150974217223 0.1558215752574715 0  0.2166911463437691 0.1528682099456123 0  0.2096071079204251 0.1509316448471593 0  0.2023158100364996 0.1500536585536553 0  0.194974551899914 0.1502531923497262 0  0.1877417105387872 0.1515259415822739 0  0.1807733240461124 0.153844448527136 0  0.1742197252835808 0.15715869474974 0  0.1682222986673531 0.1613971801805478 0  0.162910430003803 0.1664684656256651 0  0.1583987151779087 0.1722631454351573 0  0.1547844879126891 0.178656207771761 0  0.1521457199348551 0.1855097315605723 0  0.1505393388476355 0.1926758619366523 0  0.1505393388476328 0.2073241380633295 0  0.1521457199348437 0.2144902684393899 0  0.1547844879126531 0.221343792228163 0  0.1583987151778488 0.2277368545647528 0  0.1629104300036858 0.2335315343742052 0  0.1682222986671726 0.2386028198193036 0  0.1742197252833576 0.2428413052501257 0  0.1807733240458683 0.2461555514727623 0  0.1877417105384929 0.2484740584176516 0  0.1949745518995776 0.2497468076502398 0  0.202315810036185 0.2499463414463592 0  0.2096071079201568 0.2490683551528932 0  0.2166911463435495 0.2471317900544655 0  0.2234150974215506 0.2441784247426195 0  0.2296339016331197 0.2402719738031125 0  0.2352133972703547 0.2354967132658811 0  0.2400332147833751 0.2299556624715287 0  0.2439893735792577 0.2237683615780412 0  0.246996525252926 0.2170682926548348 0  0.25645809709277 0.21 0  0.2639263993298655 0.21 0  0.271394701566961 0.21 0  0.2788630038040554 0.21 0  0.2863313060411479 0.21 0  0.2937996082782405 0.21 0  0.301267910515333 0.21 0  0.3087362127524279 0.21 0  0.3162045149895234 0.21 0  0.3236728172265972 0.21 0  0.3311411194636928 0.21 0  0.3386094217007701 0.21 0  0.3460777239378666 0.21 0  0.3535460261749672 0.21 0  0.3610143284120516 0.21 0  0.3684826306491596 0.21 0  0.3759509328862226 0.21 0  0.383419235123329 0.21 0  0.3908875373604028 0.21 0  0.3983558395975142 0.21 0  0.4058241418345938 0.21 0  0.4132924440716992 0.21 0  0.4207607463087888 0.21 0  0.4282290485459029 0.21 0  0.4356973507830418 0.21 0  0.4431656530201649 0.21 0  0.4506339552573136 0.21 0  0.4581022574944306 0.21 0  0.4655705597315852 0.21 0  0.4730388619686996 0.21 0  0.480507164205851 0.21 0  0.4879754664429498 0.21 0  0.4954437686800938 0.21 0  0.502912070917267 0.21 0  0.5103803731544119 0.21 0  0.5178486753915261 0.21 0  0.5253169776286404 0.21 0  0.5327852798657868 0.21 0  0.5402535821029386 0.21 0  0.54772188434007 0.21 0  0.5551901865771842 0.21 0  0.5626584888143201 0.21 0  0.5701267910514778 0.21 0  0.5775950932886138 0.21 0  0.5850633955257281 0.21 0  0.5925316977628483 0.21 0  0.6 0.2050000000000054 0  0.6 0.1950000000000217 0  0.5925316977628897 0.19 0  0.5850633955257988 0.19 0  0.5775950932887378 0.19 0  0.5701267910515998 0.19 0  0.5626584888145268 0.19 0  0.5551901865773963 0.19 0  0.547721884340339 0.19 0  0.5402535821032429 0.19 0  0.5327852798661811 0.19 0  0.5253169776290537 0.19 0  0.5178486753919799 0.19 0  0.5103803731549078 0.19 0  0.502912070917822 0.19 0  0.4954437686807294 0.19 0  0.4879754664436223 0.19 0  0.4805071642065402 0.19 0  0.4730388619694271 0.19 0  0.4655705597323621 0.19 0  0.4581022574952563 0.19 0  0.4506339552581777 0.19 0  0.4431656530210671 0.19 0  0.4356973507839815 0.19 0  0.4282290485468779 0.19 0  0.4207607463097617 0.19 0  0.4132924440726327 0.19 0  0.4058241418354857 0.19 0  0.3983558395983636 0.19 0  0.3908875373612097 0.19 0  0.3834192351240934 0.19 0  0.3759509328869369 0.19 0  0.3684826306498175 0.19 0  0.361014328412667 0.19 0  0.3535460261755617 0.19 0  0.3460777239384295 0.19 0  0.3386094217012945 0.19 0  0.3311411194641595 0.19 0  0.3236728172270245 0.19 0  0.3162045149898895 0.19 0  0.3087362127527544 0.19 0  0.3012679105156187 0.19 0  0.2937996082784807 0.19 0  0.2863313060413428 0.19 0  0.2788630038042048 0.19 0  0.2713947015670686 0.19 0  0.2639263993299336 0.19 0  0.2564580970927985 0.19 0  0.2607803159922026 0.2000727136295815 0  0.5887803774232762 0.2001272386983733 0  0.5745072403740523 0.2002044435018727 0  0.5511891430099709 0.2001122610077113 0  0.2751288526855082 0.20000000000002 0  0.5365194309847112 0.1999999999999436 0  0.2894621222999649 0.1998691686390484 0  0.5215828265105155 0.1999999999999228 0  0.3127789816668748 0.1998657885438805 0  0.3274069683451451 0.2000000000000796 0  0.5066462220363641 0.199999999999908 0  0.3650630746574081 0.199866017807523 0  0.476773013087985 0.1999999999998713 0  0.3417402379596385 0.1998691686391011 0  0.3796850840047755 0.200000000000134 0  0.4618364086138087 0.1999999999998546 0  0.4917096175621762 0.1999999999998808 0  0.3946216884789568 0.2000000000001512 0  0.446899804139621 0.1999999999998389 0  0.4089549580935208 0.1998691686391595 0  0.4322718174608562 0.200127451265745 0  0.4201487168029707 0.1999966199048527 0  0.3528922713220932 0.2000185703532356 0  0.5633122436674589 0.1999814296467508 0  0.3006558810093873 0.1999966199048318 0  0.5815926498168407 0.1966545283159175 0  0.2677053789419034 0.1964246479135325 0  0.5290511287476175 0.1970915826863981 0  0.5439877332217911 0.197091582686394 0  0.2825131256993216 0.2035478995978015 0  0.3199386661080599 0.202908417313604 0  0.4842413153250809 0.1970915826863873 0  0.5141145242734466 0.1970915826863843 0  0.3722167817676917 0.2029084173136195 0  0.4693047108508938 0.1970915826863783 0  0.3348752705822316 0.202908417313609 0  0.3871533862418661 0.2029084173136212 0  0.4543681063767183 0.1970915826863795 0  0.4991779197992749 0.1970915826863902 0  0.4020059614928624 0.203547899597858 0  0.4394315019025246 0.1970915826863714 0  0.2550657455369551 0.2034088125358657 0  0.2548908499171161 0.1966940311614271 0  0.5946539510196798 0.2024302972968126 0  0.267698176732111 0.2039977513680092 0  0.4261685417851465 0.196409292431739 0  0.3590076176283495 0.196411355804271 0  0.5571672426447437 0.2036011176410121 0  0.3066757059912147 0.1964092924317024 0  0.594380730180568 0.1966558399668133 0  0.4842413153245942 0.2040749161535287 0  0.4693047108503577 0.2040749161535231 0  0.3871533862424271 0.1959250838464788 0  0.372246743208829 0.1959123236376545 0  0.5141145242731028 0.2040749161535395 0  0.4543681063761134 0.2040749161535186 0  0.4019979587101454 0.1959834479682427 0  0.4394608940728603 0.2040870543693135 0  0.5439623148931173 0.2040856076781014 0  0.5290511287473298 0.2040749161535501 0  0.4991779197988497 0.2040749161535382 0  0.3347912413592433 0.1959225448935183 0  0.3199680582793816 0.1959123018030061 0  0.2825051229162361 0.1959834479681729 0  0.3590471196690275 0.2036304442587945 0  0.5571594006495384 0.1963685282145804 0  0.3067669986803285 0.203627750582736 0  0.4262598344738712 0.2036568242185335 0  0.5814408164431408 0.2041285596160068 0  0.5688286748170428 0.1961819304477386 0  0.4145905603063645 0.2038180695522843 0  0.3473758401724931 0.2038180695522752 0  0.2950977245128307 0.2038180695522663 0  0.5688286748170693 0.203818069552238 0  0.2950977245127906 0.1961819304477774 0  0.3473758401723931 0.1961819304478349 0  0.4145905603061963 0.1961819304479011 0  0.2601812407614425 0.2056861609747042
[...]
<PointData  Vectors="f_40-1"> 
<DataArray  type="Float64"  Name="f_40-1"  NumberOfComponents="3" format="ascii">0.0000000000000000e+00 0.0000000000000000e+00 0.0000000000000000e+00  0.0000000000000000e+00 0.0000000000000000e+00 0.0000000000000000e+00  0.0000000000000000e+00 0.0000000000000000e+00 0.0000000000000000e+00  0.0000000000000000e+00 0.0000000000000000e+00 0.0000000000000000e+00  -1.0183129710815721e-05 -3.6080680774737242e-05 0.0000000000000000e+00  -7.2886137306169767e-06 -3.7848415452369583e-05 0.0000000000000000e+00  0.0000000000000000e+00 0.0000000000000000e+00 0.0000000000000000e+00  0.0000000000000000e+00 0.0000000000000000e+00 0.0000000000000000e+00  0.0000000000000000e+00 0.0000000000000000e+00 0.0000000000000000e+00  0.0000000000000000e+00 0.0000000000000000e+00 0.0000000000000000e+00  -8.8276878859144409e-06 -3.6964232524611863e-05 0.0000000000000000e+00  0.0000000000000000e+00 0.0000000000000000e+00 0.0000000000000000e+00  0.0000000000000000e+00 0.0000000000000000e+00 0.0000000000000000e+00  0.0000000000000000e+00 0.0000000000000000e+00 0.0000000000000000e+00  0.0000000000000000e+00 0.0000000000000000e+00 0.0000000000000000e+00  0.0000000000000000e+00 0.0000000000000000e+00 0.0000000000000000e+00  0.0000000000000000e+00 0.0000000000000000e+00 0.0000000000000000e+00  0.0000000000000000e+00 0.0000000000000000e+00 0.0000000000000000e+00  0.0000000000000000e+00 0.0000000000000000e+00 0.0000000000000000e+00  0.0000000000000000e+00 0.0000000000000000e+00 0.0000000000000000e+00  0.0000000000000000e+00 0.0000000000000000e+00 0.0000000000000000e+00  0.0000000000000000e+00 0.0000000000000000e+00 0.0000000000000000e+00  0.0000000000000000e+00 0.0000000000000000e+00 0.0000000000000000e+00  0.0000000000000000e+00 0.0000000000000000e+00 0.0000000000000000e+00  0.0000000000000000e+00 0.0000000000000000e+00 0.0000000000000000e+00  0.0000000000000000e+00 0.0000000000000000e+00 0.0000000000000000e+00  0.0000000000000000e+00 0.0000000000000000e+00 0.0000000000000000e+00  0.0000000000000000e+00 0.0000000000000000e+00 0.0000000000000000e+00  0.0000000000000000e+00 0.0000000000000000e+00 0.0000000000000000e+00  0.0000000000000000e+00 0.0000000000000000e+00 0.0000000000000000e+00  0.0000000000000000e+00 0.0000000000000000e+00 0.0000000000000000e+00  0.0000000000000000e+00 0.0000000000000000e+00 0.0000000000000000e+00  0.0000000000000000e+00 0.0000000000000000e+00 0.0000000000000000e+00  0.0000000000000000e+00 0.0000000000000000e+00 0.0000000000000000e+00  0.0000000000000000e+00 0.0000000000000000e+00 0.0000000000000000e+00  0.0000000000000000e+00 0.0000000000000000e+00 0.0000000000000000e+00  0.0000000000000000e+00 0.0000000000000000e+00 0.0000000000000000e+00  0.0000000000000000e+00 0.0000000000000000e+00 0.0000000000000000e+00  0.0000000000000000e+00 0.0000000000000000e+00 0.0000000000000000e+00  0.0000000000000000e+00 0.0000000000000000e+00 0.0000000000000000e+00  0.0000000000000000e+00 0.0000000000000000e+00 0.0000000000000000e+00  0.0000000000000000e+00 0.0000000000000000e+00 0.0000000000000000e+00  0.0000000000000000e+00 0.0000000000000000e+00 0.0000000000000000e+00  0.0000000000000000e+00 0.0000000000000000e+00 0.0000000000000000e+00  0.0000000000000000e+00 0.0000000000000000e+00 0.0000000000000000e+00  0.0000000000000000e+00 0.0000000000000000e+00 0.0000000000000000e+00  0.0000000000000000e+00 0.0000000000000000e+00 0.0000000000000000e+00  0.0000000000000000e+00 0.0000000000000000e+00 0.0000000000000000e+00  0.0000000000000000e+00 0.0000000000000000e+00 0.0000000000000000e+00  0.0000000000000000e+00 0.0000000000000000e+00 0.0000000000000000e+00  0.0000000000000000e+00 0.0000000000000000e+00 0.0000000000000000e+00  0.0000000000000000e+00 0.0000000000000000e+00 0.0000000000000000e+00  0.0000000000000000e+00 0.0000000000000000e+00 0.0000000000000000e+00  0.0000000000000000e+00 0.0000000000000000e+00 0.0000000000000000e+00  0.0000000000000000e+00 0.0000000000000000e+00 0.0000000000000000e+00  0.0000000000000000e+00 0.0000000000000000e+00 0.0000000000000000e+00  0.0000000000000000e+00 0.0000000000000000e+00 0.0000000000000000e+00  0.0000000000000000e+00 0.0000000000000000e+00 0.0000000000000000e+00  0.0000000000000000e+00 0.0000000000000000e+00 0.0000000000000000e+00  0.0000000000000000e+00 0.0000000000000000e+00 0.0000000000000000e+00  0.0000000000000000e+00 0.0000000000000000e+00 0.0000000000000000e+00  0.0000000000000000e+00 0.0000000000000000e+00 0.0000000000000000e+00  0.0000000000000000e+00 0.0000000000000000e+00 0.0000000000000000e+00  0.0000000000000000e+00 0.0000000000000000e+00 0.0000000000000000e+00  0.0000000000000000e+00 0.0000000000000000e+00 0.0000000000000000e+00  0.0000000000000000e+00 0.0000000000000000e+00 0.0000000000000000e+00  0.0000000000000000e+00 0.0000000000000000e+00 0.0000000000000000e+00  0.0000000000000000e+00 0.0000000000000000e+00 0.0000000000000000e+00  0.0000000000000000e+00 0.0000000000000000e+00 0.0000000000000000e+00  0.0000000000000000e+00 0.0000000000000000e+00 0.0000000000000000e+00  0.0000000000000000e+00 0.0000000000000000e+00 0.0000000000000000e+00  0.0000000000000000e+00 0.0000000000000000e+00 0.0000000000000000e+00  0.0000000000000000e+00 0.0000000000000000e+00 0.0000000000000000e+00  0.0000000000000000e+00 0.0000000000000000e+00 0.0000000000000000e+00  0.0000000000000000e+00 0.0000000000000000e+00 0.0000000000000000e+00  0.0000000000000000e+00 0.0000000000000000e+00 0.0000000000000000e+00  0.0000000000000000e+00 0.0000000000000000e+00 0.0000000000000000e+00  0.0000000000000000e+00 0.0000000000000000e+00 0.0000000000000000e+00  0.0000000000000000e+00 0.0000000000000000e+00 0.0000000000000000e+00  0.0000000000000000e+00 0.0000000000000000e+00 0.0000000000000000e+00  0.0000000000000000e+00 0.0000000000000000e+00 0.0000000000000000e+00  0.0000000000000000e+00 0.0000000000000000e+00 0.0000000000000000e+00  0.0000000000000000e+00 0.0000000000000000e+00 0.0000000000000000e+00  0.0000000000000000e+00 0.0000000000000000e+00 0.0000000000000000e+00  0.0000000000000000e+00 0.0000000000000000e+00 0.0000000000000000e+00  0.0000000000000000e+00 0.0000000000000000e+00 0.0000000000000000e+00  0.0000000000000000e+00 0.0000000000000000e+00 0.0000000000000000e+00  0.0000000000000000e+00 0.0000000000000000e+00 0.0000000000000000e+00  0.0000000000000000e+00 0.0000000000000000e+00 0.0000000000000000e+00  0.0000000000000000e+00 0.0000000000000000e+00 0.0000000000000000e+00  0.0000000000000000e+00 0.0000000000000000e+00 0.0000000000000000e+00  0.0000000000000000e+00 0.0000000000000000e+00 0.0000000000000000e+00  0.0000000000000000e+00 0.0000000000000000e+00 0.0000000000000000e+00  0.0000000000000000e+00 0.0000000000000000e+00 0.0000000000000000e+00  0.0000000000000000e+00 0.0000000000000000e+00 0.0000000000000000e+00  0.0000000000000000e+00 0.0000000000000000e+00 0.0000000000000000e+00  0.0000000000000000e+00 0.0000000000000000e+00 0.0000000000000000e+00  0.0000000000000000e+00 0.0000000000000000e+00 0.0000000000000000e+00  0.0000000000000000e+00 0.0000000000000000e+00 0.0000000000000000e+00  0.0000000000000000e+00 0.0000000000000000e+00 0.0000000000000000e+00  0.0000000000000000e+00 0.0000000000000000e+00 0.0000000000000000e+00  0.0000000000000000e+00 0.0000000000000000e+00 0.0000000000000000e+00  0.0000000000000000e+00 0.0000000000000000e+00 0.0000000000000000e+00  0.0000000000000000e+00 0.0000000000000000e+00 0.0000000000000000e+00  0.0000000000000000e+00 0.0000000000000000e+00 0.0000000000000000e+00  0.0000000000000000e+00 0.0000000000000000e+00 0.0000000000000000e+00  0.0000000000000000e+00 0.0000000000000000e+00 0.0000000000000000e+00  0.0000000000000000e+00 0.0000000000000000e+00 0.0000000000000000e+00  0.0000000000000000e+00 0.0000000000000000e+00 0.0000000000000000e+00  0.0000000000000000e+00 0.0000000000000000e+00 0.0000000000000000e+00  0.0000000000000000e+00 0.0000000000000000e+00 0.0000000000000000e+00  0.0000000000000000e+00 0.0000000000000000e+00 0.0000000000000000e+00  0.0000000000000000e+00 0.0000000000000000e+00 0.0000000000000000e+00  0.0000000000000000e+00 0.0000000000000000e+00 0.0000000000000000e+00  0.0000000000000000e+00 0.0000000000000000e+00 0.0000000000000000e+00  0.0000000000000000e+00 0.0000000000000000e+00 0.0000000000000000e+00  0.0000000000000000e+00 0.0000000000000000e+00 0.0000000000000000e+00  0.0000000000000000e+00 0.0000000000000000e+00 0.0000000000000000e+00  0.0000000000000000e+00 0.0000000000000000e+00 0.0000000000000000e+00  0.0000000000000000e+00 0.0000000000000000e+00 0.0000000000000000e+00  0.0000000000000000e+00 0.0000000000000000e+00 0.0000000000000000e+00  0.0000000000000000e+00 0.0000000000000000e+00 0.0000000000000000e+00  0.0000000000000000e+00 0.0000000000000000e+00 0.0000000000000000e+00  0.0000000000000000e+00 0.0000000000000000e+00 0.0000000000000000e+00  0.0000000000000000e+00 0.0000000000000000e+00 0.0000000000000000e+00  0.0000000000000000e+00 0.0000000000000000e+00 0.0000000000000000e+00  0.0000000000000000e+00 0.0000000000000000e+00 0.0000000000000000e+00  0.0000000000000000e+00 0.0000000000000000e+00 0.0000000000000000e+00  0.0000000000000000e+00 0.0000000000000000e+00 0.0000000000000000e+00  0.0000000000000000e+00 0.0000000000000000e+00 0.0000000000000000e+00  0.0000000000000000e+00 0.0000000000000000e+00 0.0000000000000000e+00  0.0000000000000000e+00 0.0000000000000000e+00 0.0000000000000000e+00  0.0000000000000000e+00 0.0000000000000000e+00 0.0000000000000000e+00  0.0000000000000000e+00 0.0000000000000000e+00 0.0000000000000000e+00  0.0000000000000000e+00 0.0000000000000000e+00 0.0000000000000000e+00  0.0000000000000000e+00 0.0000000000000000e+00 0.0000000000000000e+00  0.0000000000000000e+00 0.0000000000000000e+00 0.0000000000000000e+00  0.0000000000000000e+00 0.0000000000000000e+00 0.0000000000000000e+00  0.0000000000000000e+00 0.0000000000000000e+00 0.0000000000000000e+00  0.0000000000000000e+00 0.0000000000000000e+00 0.0000000000000000e+00  0.0000000000000000e+00 0.0000000000000000e+00 0.0000000000000000e+00  0.0000000000000000e+00 0.0000000000000000e+00 0.0000000000000000e+00  0.0000000000000000e+00 0.0000000000000000e+00 0.0000000000000000e+00  8.9498896841632569e-09 -1.5852155587930970e-06 0.0000000000000000e+00  7.0024261149105697e-08 -1.7862722363161729e-06 0.0000000000000000e+00  1.9756578108977899e-07 -1.9569073159609485e-06 0.0000000000000000e+00  3.6586983057354798e-07 -2.1383329493319945e-06 0.0000000000000000e+00  5.2855617159312947e-07 -2.3689004162738874e-06 0.0000000000000000e+00  6.8594480834067812e-07 -2.6688543674592525e-06 0.0000000000000000e+00  8.1860034307789967e-07 -3.0089903599535064e-06 0.0000000000000000e+00  9.3344404166865873e-07 -3.4036927436384750e-06 0.0000000000000000e+00  1.0476545942414520e-06 -3.8419416308443064e-06 0.0000000000000000e+00  1.1291840034873974e-06 -4.3190463681802725e-06 0.0000000000000000e+00  1.2093140900359064e-06 -4.8467005479232279e-06 0.0000000000000000e+00  1.2583950312776150e-06 -5.4061632754247225e-06 0.0000000000000000e+00  1.3005372220257845e-06 -6.0083748088122004e-06 0.0000000000000000e+00  1.3192000997123221e-06 -6.6418356881896460e-06 0.0000000000000000e+00  1.3186595655485821e-06 -7.3120763157106543e-06 0.0000000000000000e+00  1.3130975528219633e-06 -8.0146648551090366e-06 0.0000000000000000e+00  1.2785065372580465e-06 -8.7402988642937926e-06 0.0000000000000000e+00  1.2366300405509071e-06 -9.5041964700625302e-06 0.0000000000000000e+00  1.1683138141440899e-06 -1.0284069370865721e-05 0.0000000000000000e+00  1.0914918511396749e-06 -1.1098088063871700e-05 0.0000000000000000e+00  9.9126258640295004e-07 -1.1926304254821647e-05 0.0000000000000000e+00  8.7698658422649615e-07 -1.2782297439824080e-05 0.0000000000000000e+00  7.4504277296291987e-07 -1.3654748967048135e-05 0.0000000000000000e+00  5.9399198008029213e-07 -1.4546781786105609e-05 0.0000000000000000e+00  4.3438823439881330e-07 -1.5457256702958370e-05 0.0000000000000000e+00  2.5215377625847711e-07 -1.6377757980137189e-05 0.0000000000000000e+00  5.4490434946630595e-08 -1.7323276412848221e-05 0.0000000000000000e+00  -1.6086894077436046e-07 -1.8271369947131111e-05 0.0000000000000000e+00  -3.9171467066545307e-07 -1.9241915059588236e-05 0.0000000000000000e+00  -6.3968537859918041e-07 -2.0214177460586011e-05 0.0000000000000000e+00  -9.0314004353954503e-07 -2.1206262821033522e-05 0.0000000000000000e+00  -1.1838746220567233e-06 -2.2198104915980793e-05 0.0000000000000000e+00  -1.4795088702372774e-06 -2.3208353813255724e-05 0.0000000000000000e+00  -1.7927071444167115e-06 -2.4215526606481777e-05 0.0000000000000000e+00  -2.1220442970551154e-06 -2.5240516358069013e-05 0.0000000000000000e+00  -2.4677717967134348e-06 -2.6261563137929336e-05 0.0000000000000000e+00  -2.8288793629000166e-06 -2.7297970288751946e-05 0.0000000000000000e+00  -3.2064966717663840e-06 -2.8329532805454358e-05 0.0000000000000000e+00  -3.6002961270648295e-06 -2.9375050180675610e-05 0.0000000000000000e+00  -4.0112975127196226e-06 -3.0414688454828797e-05 0.0000000000000000e+00  -4.4405696534771220e-06 -3.1463686422936842e-05 0.0000000000000000e+00  -4.8827570856446913e-06 -3.2511494794585134e-05 0.0000000000000000e+00  -5.3447385771511466e-06 -3.3563007056017470e-05 0.0000000000000000e+00  -5.8162721706532430e-06 -3.4615556898104508e-05 0.0000000000000000e+00  -6.3070494395684949e-06 -3.5664087875807701e-05 0.0000000000000000e+00  -6.8045183270079519e-06 -3.6726344823507395e-05 0.0000000000000000e+00  -8.0916647052860178e-06 -3.7406154420949945e-05 0.0000000000000000e+00  -9.5345673005602036e-06 -3.6523428775613724e-05 0.0000000000000000e+00  -9.6947484601286903e-06 -3.5042892505996565e-05 0.0000000000000000e+00  -9.1906487490138433e-06 -3.3947002883182197e-05 0.0000000000000000e+00  -8.6946593619892297e-06 -3.2844249173684987e-05 0.0000000000000000e+00  -8.2161644490513009e-06 -3.1749171610184170e-05 0.0000000000000000e+00  -7.7480228114471597e-06 -3.0655973733228499e-05 0.0000000000000000e+00  -7.2994567964004168e-06 -2.9565658948105132e-05 0.0000000000000000e+00  -6.8618155172931136e-06 -2.8480341295968109e-05 0.0000000000000000e+00  -6.4424556389880376e-06 -2.7393062016396074e-05 0.0000000000000000e+00  -6.0365537303252382e-06 -2.6317984516358807e-05 0.0000000000000000e+00  -5.6469153794206561e-06 -2.5237986075794842e-05 0.0000000000000000e+00  -5.2701532489395253e-06 -2.4172138381928236e-05 0.0000000000000000e+00  -4.9100040062862140e-06 -2.3102829045152641e-05 0.0000000000000000e+00  -4.5620352461320489e-06 -2.2048986446658939e-05 0.0000000000000000e+00  -4.2305928198695387e-06 -2.0993251114459291e-05 0.0000000000000000e+00  -3.9104249180593658e-06 -1.9954245017810222e-05 0.0000000000000000e+00  -3.6072990637004741e-06 -1.8914856935664937e-05 0.0000000000000000e+00  -3.3148933498838053e-06 -1.7893734382069767e-05 0.0000000000000000e+00  -3.0400122518231591e-06 -1.6874082824687455e-05 0.0000000000000000e+00  -2.7748270916050469e-06 -1.5874891826413128e-05 0.0000000000000000e+00  -2.5274715855321185e-06 -1.4879470206819079e-05 0.0000000000000000e+00  -2.2887134560281455e-06 -1.3906351295516824e-05 0.0000000000000000e+00  -2.0684174691476591e-06 -1.2939778881371820e-05 0.0000000000000000e+00  -1.8580902444653775e-06 -1.1994743403508496e-05 0.0000000000000000e+00  -1.6622830602682156e-06 -1.1063353628847922e-05 0.0000000000000000e+00  -1.4830982063549721e-06 -1.0154154294632399e-05 0.0000000000000000e+00  -1.3075123675782438e-06 -9.2624645336315628e-06 0.0000000000000000e+00  -1.1511462364985914e-06 -8.3898020252192042e-06 0.0000000000000000e+00  -1.0044138662132765e-06 -7.5477225674949205e-06 0.0000000000000000e+00  -8.7329017165854079e-07 -6.7215922332007555e-06 0.0000000000000000e+00  -7.5231374691259084e-07 -5.9308265896080204e-06 0.0000000000000000e+00  -6.4652750773422501e-07 -5.1584698751145230e-06 0.0000000000000000e+00  -5.4903117789668832e-07 -4.4257999933188701e-06 0.0000000000000000e+00  -4.6724870551273532e-07 -3.7164411101167126e-06 0.0000000000000000e+00  -4.0067022705445451e-07 -3.0483120406752599e-06 0.0000000000000000e+00  -3.3364093959194991e-07 -2.4088962906210918e-06 0.0000000000000000e+00  -2.8636165476085671e-07 -1.8087055642533927e-06 0.0000000000000000e+00  -2.4674955075362365e-07 -1.2547802378642987e-06 0.0000000000000000e+00  -2.2275246041386465e-07 -7.3492562227732328e-07 0.0000000000000000e+00  -2.0300124018693724e-07 -2.6862944895611687e-07 0.0000000000000000e+00  -2.0121965856681648e-07 1.6047634895144750e-07 0.0000000000000000e+00  -2.1336445508039800e-07 5.3229096261964294e-07 0.0000000000000000e+00  -2.1955473251338838e-07 8.6170982788109512e-07 0.0000000000000000e+00  -2.4787703026261525e-07 1.1470323449226505e-06 0.0000000000000000e+00  -2.5453020971838988e-07 1.3713279554805927e-06 0.0000000000000000e+00  -2.3995009433383924e-07 1.4895651213173643e-06 0.0000000000000000e+00  -1.4156494995896990e-07 1.4587440181173104e-06 0.0000000000000000e+00  -3.7020374717467297e-07 -7.2619236066737533e-08 0.0000000000000000e+00  -8.0148735743272082e-06 -3.5351354120161750e-05 0.0000000000000000e+00  -7.0384083695500484e-06 -3.3301907712835572e-05 0.0000000000000000e+00  -5.6299253410127423e-06 -2.9951300654151703e-05 0.0000000000000000e+00  5.2363417113472807e-10 -3.5132713624924352e-07 0.0000000000000000e+00  -4.8324944677798152e-06 -2.7850568735977661e-05 0.0000000000000000e+00  1.7979983066484151e-07 -8.2256612325761819e-07 0.0000000000000000e+00  -4.0641142116260130e-06 -2.5738210587098354e-05 0.0000000000000000e+00  3.7511311898845088e-07 -2.0245870574824014e-06 0.0000000000000000e+00  4.4157118673336416e-07 -3.0257563884422580e-06 0.0000000000000000e+00  -3.3573641628719366e-06 -2.3646931030081623e-05 0.0000000000000000e+00  3.3619898798713949e-07 -6.2144270030295487e-06 0.0000000000000000e+00  -2.1268560734018143e-06 -1.9549458667360798e-05 0.0000000000000000e+00  4.3975388326995295e-07 -4.1182624346112036e-06 0.0000000000000000e+00  2.1217167953172835e-07 -7.7031519499885555e-06 0.0000000000000000e+00  -1.6023557353635770e-06 -1.7556343263738939e-05 0.0000000000000000e+00  -2.7117168945717107e-06 -2.1581916237171608e-05 0.0000000000000000e+00  1.6327586219871426e-08 -9.3109829465312718e-06 0.0000000000000000e+00  -1.1381398674056083e-06 -1.5610827579619269e-05 0.0000000000000000e+00  -2.4111119586490033e-07 -1.0926221267834999e-05 0.0000000000000000e+00  -7.2411886403376814e-07 -1.3775915565716740e-05 0.0000000000000000e+00  -4.6032632042620192e-07 -1.2275806535513870e-05 0.0000000000000000e+00  4.1596563438380151e-07 -5.1070846553597702e-06 0.0000000000000000e+00  -6.3740714489115543e-06 -3.1674590756307176e-05 0.0000000000000000e+00  2.9021005119235936e-07 -1.3692655290886633e-06 0.0000000000000000e+00  -8.0188936911817052e-06 -3.4015506377789145e-05 0.0000000000000000e+00  -2.1562178315112810e-07 4.3964583191301100e-07 0.0000000000000000e+00  -4.8513115182557702e-06 -2.6496518559688643e-05 0.0000000000000000e+00  -5.6536487751516934e-06 -2.8628439437064503e-05 0.0000000000000000e+00  2.2026588829680337e-07 -1.1631166094824049e-06 0.0000000000000000e+00  6.1065561954905743e-07 -2.9569428491302651e-06 0.0000000000000000e+00  -2.8066649177126870e-06 -2.0232311213227107e-05 0.0000000000000000e+00  -4.1096630037850237e-06 -2.4382858356218234e-05 0.0000000000000000e+00  5.7882758321477915e-07 -7.3530588205340620e-06 0.0000000000000000e+00  -2.2441733851178214e-06 -1.8207588066871678e-05 0.0000000000000000e+00  6.7544707260792655e-07 -4.0299085227729933e-06 0.0000000000000000e+00  4.3226492429433977e-07 -8.8982010136132137e-06 0.0000000000000000e+00  -1.7405641660344780e-06 -1.6226354661884351e-05 0.0000000000000000e+00  -3.4283813631848047e-06 -2.2292834225042682e-05 0.0000000000000000e+00  2.9994267825771840e-07 -1.0621512379457936e-05 0.0000000000000000e+00  -1.2951255127467882e-06 -1.4297211123797603e-05 0.0000000000000000e+00  -3.4529167588952994e-07 -3.8009865025505834e-07 0.0000000000000000e+00  -3.6297451555319292e-07 3.1835941762654207e-07 0.0000000000000000e+00  -8.0973157104926191e-06 -3.6395783702670718e-05 0.0000000000