<?xml version="1.0"?>
<VTKFile type="UnstructuredGrid"  version="0.1"  >
<UnstructuredGrid>
<Piece  NumberOfPoints="1419" NumberOfCells="2698">
<Points>
<DataArray  type="Float64"  NumberOfComponents="3"  format="ascii">0 0 0  0 0.41 0  2.5 0 0  2.5 0.41 0  0.6 0.19 0  0.6 0.21 0  0.25 0.2 0  0.15 0.2 0  0.2489897948556636 0.21 0  0.2489897948556636 0.19 0  0.6 0.2 0  0 0.3807142857143437 0  0 0.3514285714286952 0  0 0.3221428571430699 0  0 0.29285714285744 0  0 0.2635714285718054 0  0 0.2342857142861561 0  0 0.2050000000005308 0  0 0.175714285714732 0  0 0.1464285714289574 0  0 0.1171428571431897 0  0 0.08785714285737878 0  0 0.05857142857161107 0  0 0.02928571428580012 0  0.03015443760436003 0 0  0.06140001986583606 0 0  0.09377624077125973 0 0  0.1273239957535082 0 0  0.1620856860351972 0 0  0.1981052433264291 0 0  0.235428184091502 0 0  0.2741016576309132 0 0  0.3141745521465447 0 0  0.3556974926295285 0 0  0.3987229542472677 0 0  0.4433053055141081 0 0  0.4895008759286886 0 0  0.5373680609405097 0 0  0.5869673343216626 0 0  0.6383613676634521 0 0  0.6916151138468254 0 0  0.7467958595648856 0 0  0.8039733463919316 0 0  0.8632198139502143 0 0  0.9246101326867038 0 0  0.9882218810934433 0 0  1.054135445558498 0 0  1.122434100542598 0 0  1.193204177141305 0 0  1.266535089879536 0 0  1.342519516046404 0 0  1.421253448503939 0 0  1.502836389106271 0 0  1.587371439758838 0 0  1.674965418777374 0 0  1.765729001825544 0 0  1.859776908880082 0 0  1.957227977487062 0 0  2.058205329869943 0 0  2.162836591189951 0 0  2.271253957290865 0 0  2.383594446803425 0 0  2.5 0.1024999999997612 0  2.5 0.2049999999994743 0  2.5 0.3074999999997183 0  2.383594446803656 0.41 0  2.271253957291315 0.41 0  2.162836591190598 0.41 0  2.058205329870775 0.41 0  1.957227977488067 0.41 0  1.859776908881246 0.41 0  1.765729001826854 0.41 0  1.674965418778818 0.41 0  1.58737143976041 0.41 0  1.502836389107956 0.41 0  1.421253448505726 0.41 0  1.342519516048286 0.41 0  1.266535089881505 0.41 0  1.193204177143353 0.41 0  1.122434100544716 0.41 0  1.05413544556068 0.41 0  0.9882218810956305 0.41 0  0.9246101326886647 0.41 0  0.8632198139519631 0.41 0  0.8039733463934788 0.41 0  0.7467958595662458 0.41 0  0.6916151138480078 0.41 0  0.6383613676644679 0.41 0  0.5869673343225223 0.41 0  0.5373680609412221 0.41 0  0.4895008759292634 0.41 0  0.4433053055145528 0.41 0  0.3987229542475914 0.41 0  0.3556974926297398 0.41 0  0.3141745521466497 0.41 0  0.2741016576310038 0.41 0  0.2354281840915826 0.41 0  0.1981052433265003 0.41 0  0.1620856860352591 0.41 0  0.1273239957535623 0.41 0  0.09377624077128965 0.41 0  0.06140001986584975 0.41 0  0.03015443760436654 0.41 0  0.2497468076502589 0.2050254481002335 0  0.2497468076502614 0.1949745518997913 0  0.2469965252529372 0.1829317073451959 0  0.2439893735792749 0.1762316384219906 0  0.2400332147834255 0.1700443375285386 0  0.2352133972704371 0.1645032867342007 0  0.2296339016332438 0.1597280261969788 0  0.2234150974217223 0.1558215752574715 0  0.2166911463437691 0.1528682099456123 0  0.2096071079204251 0.1509316448471593 0  0.2023158100364996 0.1500536585536553 0  0.194974551899914 0.1502531923497262 0  0.1877417105387872 0.1515259415822739 0  0.1807733240461124 0.153844448527136 0  0.1742197252835808 0.15715869474974 0  0.1682222986673531 0.1613971801805478 0  0.162910430003803 0.1664684656256651 0  0.1583987151779087 0.1722631454351573 0  0.1547844879126891 0.178656207771761 0  0.1521457199348551 0.1855097315605723 0  0.1505393388476355 0.1926758619366523 0  0.1505393388476328 0.2073241380633295 0  0.1521457199348437 0.2144902684393899 0  0.1547844879126531 0.221343792228163 0  0.1583987151778488 0.2277368545647528 0  0.1629104300036858 0.2335315343742052 0  0.1682222986671726 0.2386028198193036 0  0.1742197252833576 0.2428413052501257 0  0.1807733240458683 0.2461555514727623 0  0.1877417105384929 0.2484740584176516 0  0.1949745518995776 0.2497468076502398 0  0.202315810036185 0.2499463414463592 0  0.2096071079201568 0.2490683551528932 0  0.2166911463435495 0.2471317900544655 0  0.2234150974215506 0.2441784247426195 0  0.2296339016331197 0.2402719738031125 0  0.2352133972703547 0.2354967132658811 0  0.2400332147833751 0.2299556624715287 0  0.2439893735792577 0.2237683615780412 0  0.246996525252926 0.2170682926548348 0  0.25645809709277 0.21 0  0.2639263993298655 0.21 0  0.271394701566961 0.21 0  0.2788630038040554 0.21 0  0.2863313060411479 0.21 0  0.2937996082782405 0.21 0  0.301267910515333 0.21 0  0.3087362127524279 0.21 0  0.3162045149895234 0.21 0  0.3236728172265972 0.21 0  0.3311411194636928 0.21 0  0.3386094217007701 0.21 0  0.3460777239378666 0.21 0  0.3535460261749672 0.21 0  0.3610143284120516 0.21 0  0.3684826306491596 0.21 0  0.3759509328862226 0.21 0  0.383419235123329 0.21 0  0.3908875373604028 0.21 0  0.3983558395975142 0.21 0  0.4058241418345938 0.21 0  0.4132924440716992 0.21 0  0.4207607463087888 0.21 0  0.4282290485459029 0.21 0  0.4356973507830418 0.21 0  0.4431656530201649 0.21 0  0.4506339552573136 0.21 0  0.4581022574944306 0.21 0  0.4655705597315852 0.21 0  0.4730388619686996 0.21 0  0.480507164205851 0.21 0  0.4879754664429498 0.21 0  0.4954437686800938 0.21 0  0.502912070917267 0.21 0  0.5103803731544119 0.21 0  0.5178486753915261 0.21 0  0.5253169776286404 0.21 0  0.5327852798657868 0.21 0  0.5402535821029386 0.21 0  0.54772188434007 0.21 0  0.5551901865771842 0.21 0  0.5626584888143201 0.21 0  0.5701267910514778 0.21 0  0.5775950932886138 0.21 0  0.5850633955257281 0.21 0  0.5925316977628483 0.21 0  0.6 0.2050000000000054 0  0.6 0.1950000000000217 0  0.5925316977628897 0.19 0  0.5850633955257988 0.19 0  0.5775950932887378 0.19 0  0.5701267910515998 0.19 0  0.5626584888145268 0.19 0  0.5551901865773963 0.19 0  0.547721884340339 0.19 0  0.5402535821032429 0.19 0  0.5327852798661811 0.19 0  0.5253169776290537 0.19 0  0.5178486753919799 0.19 0  0.5103803731549078 0.19 0  0.502912070917822 0.19 0  0.4954437686807294 0.19 0  0.4879754664436223 0.19 0  0.4805071642065402 0.19 0  0.4730388619694271 0.19 0  0.4655705597323621 0.19 0  0.4581022574952563 0.19 0  0.4506339552581777 0.19 0  0.4431656530210671 0.19 0  0.4356973507839815 0.19 0  0.4282290485468779 0.19 0  0.4207607463097617 0.19 0  0.4132924440726327 0.19 0  0.4058241418354857 0.19 0  0.3983558395983636 0.19 0  0.3908875373612097 0.19 0  0.3834192351240934 0.19 0  0.3759509328869369 0.19 0  0.3684826306498175 0.19 0  0.361014328412667 0.19 0  0.3535460261755617 0.19 0  0.3460777239384295 0.19 0  0.3386094217012945 0.19 0  0.3311411194641595 0.19 0  0.3236728172270245 0.19 0  0.3162045149898895 0.19 0  0.3087362127527544 0.19 0  0.3012679105156187 0.19 0  0.2937996082784807 0.19 0  0.2863313060413428 0.19 0  0.2788630038042048 0.19 0  0.2713947015670686 0.19 0  0.2639263993299336 0.19 0  0.2564580970927985 0.19 0  0.2607803159922026 0.2000727136295815 0  0.5887803774232762 0.2001272386983733 0  0.5745072403740523 0.2002044435018727 0  0.5511891430099709 0.2001122610077113 0  0.2751288526855082 0.20000000000002 0  0.5365194309847112 0.1999999999999436 0  0.2894621222999649 0.1998691686390484 0  0.5215828265105155 0.1999999999999228 0  0.3127789816668748 0.1998657885438805 0  0.3274069683451451 0.2000000000000796 0  0.5066462220363641 0.199999999999908 0  0.3650630746574081 0.199866017807523 0  0.476773013087985 0.1999999999998713 0  0.3417402379596385 0.1998691686391011 0  0.3796850840047755 0.200000000000134 0  0.4618364086138087 0.1999999999998546 0  0.4917096175621762 0.1999999999998808 0  0.3946216884789568 0.2000000000001512 0  0.446899804139621 0.1999999999998389 0  0.4089549580935208 0.1998691686391595 0  0.4322718174608562 0.200127451265745 0  0.4201487168029707 0.1999966199048527 0  0.3528922713220932 0.2000185703532356 0  0.5633122436674589 0.1999814296467508 0  0.3006558810093873 0.1999966199048318 0  0.5815926498168407 0.1966545283159175 0  0.2677053789419034 0.1964246479135325 0  0.5290511287476175 0.1970915826863981 0  0.5439877332217911 0.197091582686394 0  0.2825131256993216 0.2035478995978015 0  0.3199386661080599 0.202908417313604 0  0.4842413153250809 0.1970915826863873 0  0.5141145242734466 0.1970915826863843 0  0.3722167817676917 0.2029084173136195 0  0.4693047108508938 0.1970915826863783 0  0.3348752705822316 0.202908417313609 0  0.3871533862418661 0.2029084173136212 0  0.4543681063767183 0.1970915826863795 0  0.4991779197992749 0.1970915826863902 0  0.4020059614928624 0.203547899597858 0  0.4394315019025246 0.1970915826863714 0  0.2550657455369551 0.2034088125358657 0  0.2548908499171161 0.1966940311614271 0  0.5946539510196798 0.2024302972968126 0  0.267698176732111 0.2039977513680092 0  0.4261685417851465 0.196409292431739 0  0.3590076176283495 0.196411355804271 0  0.5571672426447437 0.2036011176410121 0  0.3066757059912147 0.1964092924317024 0  0.594380730180568 0.1966558399668133 0  0.4842413153245942 0.2040749161535287 0  0.4693047108503577 0.2040749161535231 0  0.3871533862424271 0.1959250838464788 0  0.372246743208829 0.1959123236376545 0  0.5141145242731028 0.2040749161535395 0  0.4543681063761134 0.2040749161535186 0  0.4019979587101454 0.1959834479682427 0  0.4394608940728603 0.2040870543693135 0  0.5439623148931173 0.2040856076781014 0  0.5290511287473298 0.2040749161535501 0  0.4991779197988497 0.2040749161535382 0  0.3347912413592433 0.1959225448935183 0  0.3199680582793816 0.1959123018030061 0  0.2825051229162361 0.1959834479681729 0  0.3590471196690275 0.2036304442587945 0  0.5571594006495384 0.1963685282145804 0  0.3067669986803285 0.203627750582736 0  0.4262598344738712 0.2036568242185335 0  0.5814408164431408 0.2041285596160068 0  0.5688286748170428 0.1961819304477386 0  0.4145905603063645 0.2038180695522843 0  0.3473758401724931 0.2038180695522752 0  0.2950977245128307 0.2038180695522663 0  0.5688286748170693 0.203818069552238 0  0.2950977245127906 0.1961819304477774 0  0.3473758401723931 0.1961819304478349 0  0.4145905603061963 0.1961819304479011 0  0.2601812407614425 0.2056861609747042
[...]
<PointData  Vectors="f_40-1"> 
<DataArray  type="Float64"  Name="f_40-1"  NumberOfComponents="3" format="ascii">0.0000000000000000e+00 0.0000000000000000e+00 0.0000000000000000e+00  0.0000000000000000e+00 0.0000000000000000e+00 0.0000000000000000e+00  0.0000000000000000e+00 0.0000000000000000e+00 0.0000000000000000e+00  0.0000000000000000e+00 0.0000000000000000e+00 0.0000000000000000e+00  -1.4699228966618048e-05 -4.0858959706272207e-04 0.0000000000000000e+00  1.6922633155863945e-05 -4.1236034074669666e-04 0.0000000000000000e+00  0.0000000000000000e+00 0.0000000000000000e+00 0.0000000000000000e+00  0.0000000000000000e+00 0.0000000000000000e+00 0.0000000000000000e+00  0.0000000000000000e+00 0.0000000000000000e+00 0.0000000000000000e+00  0.0000000000000000e+00 0.0000000000000000e+00 0.0000000000000000e+00  7.9247745933396615e-07 -4.1047052693549965e-04 0.0000000000000000e+00  0.0000000000000000e+00 0.0000000000000000e+00 0.0000000000000000e+00  0.0000000000000000e+00 0.0000000000000000e+00 0.0000000000000000e+00  0.0000000000000000e+00 0.0000000000000000e+00 0.0000000000000000e+00  0.0000000000000000e+00 0.0000000000000000e+00 0.0000000000000000e+00  0.0000000000000000e+00 0.0000000000000000e+00 0.0000000000000000e+00  0.0000000000000000e+00 0.0000000000000000e+00 0.0000000000000000e+00  0.0000000000000000e+00 0.0000000000000000e+00 0.0000000000000000e+00  0.0000000000000000e+00 0.0000000000000000e+00 0.0000000000000000e+00  0.0000000000000000e+00 0.0000000000000000e+00 0.0000000000000000e+00  0.0000000000000000e+00 0.0000000000000000e+00 0.0000000000000000e+00  0.0000000000000000e+00 0.0000000000000000e+00 0.0000000000000000e+00  0.0000000000000000e+00 0.0000000000000000e+00 0.0000000000000000e+00  0.0000000000000000e+00 0.0000000000000000e+00 0.0000000000000000e+00  0.0000000000000000e+00 0.0000000000000000e+00 0.0000000000000000e+00  0.0000000000000000e+00 0.0000000000000000e+00 0.0000000000000000e+00  0.0000000000000000e+00 0.0000000000000000e+00 0.0000000000000000e+00  0.0000000000000000e+00 0.0000000000000000e+00 0.0000000000000000e+00  0.0000000000000000e+00 0.0000000000000000e+00 0.0000000000000000e+00  0.0000000000000000e+00 0.0000000000000000e+00 0.0000000000000000e+00  0.0000000000000000e+00 0.0000000000000000e+00 0.0000000000000000e+00  0.0000000000000000e+00 0.0000000000000000e+00 0.0000000000000000e+00  0.0000000000000000e+00 0.0000000000000000e+00 0.0000000000000000e+00  0.0000000000000000e+00 0.0000000000000000e+00 0.0000000000000000e+00  0.0000000000000000e+00 0.0000000000000000e+00 0.0000000000000000e+00  0.0000000000000000e+00 0.0000000000000000e+00 0.0000000000000000e+00  0.0000000000000000e+00 0.0000000000000000e+00 0.0000000000000000e+00  0.0000000000000000e+00 0.0000000000000000e+00 0.0000000000000000e+00  0.0000000000000000e+00 0.0000000000000000e+00 0.0000000000000000e+00  0.0000000000000000e+00 0.0000000000000000e+00 0.0000000000000000e+00  0.0000000000000000e+00 0.0000000000000000e+00 0.0000000000000000e+00  0.0000000000000000e+00 0.0000000000000000e+00 0.0000000000000000e+00  0.0000000000000000e+00 0.0000000000000000e+00 0.0000000000000000e+00  0.0000000000000000e+00 0.0000000000000000e+00 0.0000000000000000e+00  0.0000000000000000e+00 0.0000000000000000e+00 0.0000000000000000e+00  0.0000000000000000e+00 0.0000000000000000e+00 0.0000000000000000e+00  0.0000000000000000e+00 0.0000000000000000e+00 0.0000000000000000e+00  0.0000000000000000e+00 0.0000000000000000e+00 0.0000000000000000e+00  0.0000000000000000e+00 0.0000000000000000e+00 0.0000000000000000e+00  0.0000000000000000e+00 0.0000000000000000e+00 0.0000000000000000e+00  0.0000000000000000e+00 0.0000000000000000e+00 0.0000000000000000e+00  0.0000000000000000e+00 0.0000000000000000e+00 0.0000000000000000e+00  0.0000000000000000e+00 0.0000000000000000e+00 0.0000000000000000e+00  0.0000000000000000e+00 0.0000000000000000e+00 0.0000000000000000e+00  0.0000000000000000e+00 0.0000000000000000e+00 0.0000000000000000e+00  0.0000000000000000e+00 0.0000000000000000e+00 0.0000000000000000e+00  0.0000000000000000e+00 0.0000000000000000e+00 0.0000000000000000e+00  0.0000000000000000e+00 0.0000000000000000e+00 0.0000000000000000e+00  0.0000000000000000e+00 0.0000000000000000e+00 0.0000000000000000e+00  0.0000000000000000e+00 0.0000000000000000e+00 0.0000000000000000e+00  0.0000000000000000e+00 0.0000000000000000e+00 0.0000000000000000e+00  0.0000000000000000e+00 0.0000000000000000e+00 0.0000000000000000e+00  0.0000000000000000e+00 0.0000000000000000e+00 0.0000000000000000e+00  0.0000000000000000e+00 0.0000000000000000e+00 0.0000000000000000e+00  0.0000000000000000e+00 0.0000000000000000e+00 0.0000000000000000e+00  0.0000000000000000e+00 0.0000000000000000e+00 0.0000000000000000e+00  0.0000000000000000e+00 0.0000000000000000e+00 0.0000000000000000e+00  0.0000000000000000e+00 0.0000000000000000e+00 0.0000000000000000e+00  0.0000000000000000e+00 0.0000000000000000e+00 0.0000000000000000e+00  0.0000000000000000e+00 0.0000000000000000e+00 0.0000000000000000e+00  0.0000000000000000e+00 0.0000000000000000e+00 0.0000000000000000e+00  0.0000000000000000e+00 0.0000000000000000e+00 0.0000000000000000e+00  0.0000000000000000e+00 0.0000000000000000e+00 0.0000000000000000e+00  0.0000000000000000e+00 0.0000000000000000e+00 0.0000000000000000e+00  0.0000000000000000e+00 0.0000000000000000e+00 0.0000000000000000e+00  0.0000000000000000e+00 0.0000000000000000e+00 0.0000000000000000e+00  0.0000000000000000e+00 0.0000000000000000e+00 0.0000000000000000e+00  0.0000000000000000e+00 0.0000000000000000e+00 0.0000000000000000e+00  0.0000000000000000e+00 0.0000000000000000e+00 0.0000000000000000e+00  0.0000000000000000e+00 0.0000000000000000e+00 0.0000000000000000e+00  0.0000000000000000e+00 0.0000000000000000e+00 0.0000000000000000e+00  0.0000000000000000e+00 0.0000000000000000e+00 0.0000000000000000e+00  0.0000000000000000e+00 0.0000000000000000e+00 0.0000000000000000e+00  0.0000000000000000e+00 0.0000000000000000e+00 0.0000000000000000e+00  0.0000000000000000e+00 0.0000000000000000e+00 0.0000000000000000e+00  0.0000000000000000e+00 0.0000000000000000e+00 0.0000000000000000e+00  0.0000000000000000e+00 0.0000000000000000e+00 0.0000000000000000e+00  0.0000000000000000e+00 0.0000000000000000e+00 0.0000000000000000e+00  0.0000000000000000e+00 0.0000000000000000e+00 0.0000000000000000e+00  0.0000000000000000e+00 0.0000000000000000e+00 0.0000000000000000e+00  0.0000000000000000e+00 0.0000000000000000e+00 0.0000000000000000e+00  0.0000000000000000e+00 0.0000000000000000e+00 0.0000000000000000e+00  0.0000000000000000e+00 0.0000000000000000e+00 0.0000000000000000e+00  0.0000000000000000e+00 0.0000000000000000e+00 0.0000000000000000e+00  0.0000000000000000e+00 0.0000000000000000e+00 0.0000000000000000e+00  0.0000000000000000e+00 0.0000000000000000e+00 0.0000000000000000e+00  0.0000000000000000e+00 0.0000000000000000e+00 0.0000000000000000e+00  0.0000000000000000e+00 0.0000000000000000e+00 0.0000000000000000e+00  0.0000000000000000e+00 0.0000000000000000e+00 0.0000000000000000e+00  0.0000000000000000e+00 0.0000000000000000e+00 0.0000000000000000e+00  0.0000000000000000e+00 0.0000000000000000e+00 0.0000000000000000e+00  0.0000000000000000e+00 0.0000000000000000e+00 0.0000000000000000e+00  0.0000000000000000e+00 0.0000000000000000e+00 0.0000000000000000e+00  0.0000000000000000e+00 0.0000000000000000e+00 0.0000000000000000e+00  0.0000000000000000e+00 0.0000000000000000e+00 0.0000000000000000e+00  0.0000000000000000e+00 0.0000000000000000e+00 0.0000000000000000e+00  0.0000000000000000e+00 0.0000000000000000e+00 0.0000000000000000e+00  0.0000000000000000e+00 0.0000000000000000e+00 0.0000000000000000e+00  0.0000000000000000e+00 0.0000000000000000e+00 0.0000000000000000e+00  0.0000000000000000e+00 0.0000000000000000e+00 0.0000000000000000e+00  0.0000000000000000e+00 0.0000000000000000e+00 0.0000000000000000e+00  0.0000000000000000e+00 0.0000000000000000e+00 0.0000000000000000e+00  0.0000000000000000e+00 0.0000000000000000e+00 0.0000000000000000e+00  0.0000000000000000e+00 0.0000000000000000e+00 0.0000000000000000e+00  0.0000000000000000e+00 0.0000000000000000e+00 0.0000000000000000e+00  0.0000000000000000e+00 0.0000000000000000e+00 0.0000000000000000e+00  0.0000000000000000e+00 0.0000000000000000e+00 0.0000000000000000e+00  0.0000000000000000e+00 0.0000000000000000e+00 0.0000000000000000e+00  0.0000000000000000e+00 0.0000000000000000e+00 0.0000000000000000e+00  0.0000000000000000e+00 0.0000000000000000e+00 0.0000000000000000e+00  0.0000000000000000e+00 0.0000000000000000e+00 0.0000000000000000e+00  0.0000000000000000e+00 0.0000000000000000e+00 0.0000000000000000e+00  0.0000000000000000e+00 0.0000000000000000e+00 0.0000000000000000e+00  0.0000000000000000e+00 0.0000000000000000e+00 0.0000000000000000e+00  0.0000000000000000e+00 0.0000000000000000e+00 0.0000000000000000e+00  0.0000000000000000e+00 0.0000000000000000e+00 0.0000000000000000e+00  0.0000000000000000e+00 0.0000000000000000e+00 0.0000000000000000e+00  0.0000000000000000e+00 0.0000000000000000e+00 0.0000000000000000e+00  0.0000000000000000e+00 0.0000000000000000e+00 0.0000000000000000e+00  0.0000000000000000e+00 0.0000000000000000e+00 0.0000000000000000e+00  0.0000000000000000e+00 0.0000000000000000e+00 0.0000000000000000e+00  0.0000000000000000e+00 0.0000000000000000e+00 0.0000000000000000e+00  0.0000000000000000e+00 0.0000000000000000e+00 0.0000000000000000e+00  0.0000000000000000e+00 0.0000000000000000e+00 0.0000000000000000e+00  0.0000000000000000e+00 0.0000000000000000e+00 0.0000000000000000e+00  0.0000000000000000e+00 0.0000000000000000e+00 0.0000000000000000e+00  0.0000000000000000e+00 0.0000000000000000e+00 0.0000000000000000e+00  0.0000000000000000e+00 0.0000000000000000e+00 0.0000000000000000e+00  0.0000000000000000e+00 0.0000000000000000e+00 0.0000000000000000e+00  0.0000000000000000e+00 0.0000000000000000e+00 0.0000000000000000e+00  0.0000000000000000e+00 0.0000000000000000e+00 0.0000000000000000e+00  0.0000000000000000e+00 0.0000000000000000e+00 0.0000000000000000e+00  0.0000000000000000e+00 0.0000000000000000e+00 0.0000000000000000e+00  1.0019081543483667e-06 -3.9840704015979360e-06 0.0000000000000000e+00  2.2421139208774370e-06 -5.1776651716878047e-06 0.0000000000000000e+00  3.5830448822575766e-06 -6.8254846900485734e-06 0.0000000000000000e+00  5.1039267442795209e-06 -9.0267117080470324e-06 0.0000000000000000e+00  6.5248671433000834e-06 -1.1814268108280181e-05 0.0000000000000000e+00  8.0607851628936800e-06 -1.5253114161005015e-05 0.0000000000000000e+00  9.4229561674831190e-06 -1.9162677241332954e-05 0.0000000000000000e+00  1.0763054380436389e-05 -2.3697408959751243e-05 0.0000000000000000e+00  1.2207857320742323e-05 -2.8710123910757195e-05 0.0000000000000000e+00  1.3440044930591088e-05 -3.4214906997685258e-05 0.0000000000000000e+00  1.4798359881826377e-05 -4.0223984399568680e-05 0.0000000000000000e+00  1.5938473446929033e-05 -4.6674073198495178e-05 0.0000000000000000e+00  1.7155759614187084e-05 -5.3572725774845131e-05 0.0000000000000000e+00  1.8203911716766829e-05 -6.0827099139671867e-05 0.0000000000000000e+00  1.9194543928779377e-05 -6.8518388019478714e-05 0.0000000000000000e+00  2.0223749003516872e-05 -7.6548316942529472e-05 0.0000000000000000e+00  2.1064446966328997e-05 -8.4898499352116906e-05 0.0000000000000000e+00  2.1947383542454915e-05 -9.3605165885379173e-05 0.0000000000000000e+00  2.2650603088862919e-05 -1.0257356319699343e-04 0.0000000000000000e+00  2.3375446170187282e-05 -1.1184562391926967e-04 0.0000000000000000e+00  2.3957257040068152e-05 -1.2134933293028167e-04 0.0000000000000000e+00  2.4517328932718597e-05 -1.3111994202304674e-04 0.0000000000000000e+00  2.4962737901883920e-05 -1.4107131812224257e-04 0.0000000000000000e+00  2.5336290915107284e-05 -1.5125108622451226e-04 0.0000000000000000e+00  2.5697435077809790e-05 -1.6159849822256324e-04 0.0000000000000000e+00  2.5944734307747143e-05 -1.7210630175384342e-04 0.0000000000000000e+00  2.6138815742159385e-05 -1.8280373459959840e-04 0.0000000000000000e+00  2.6251931722245035e-05 -1.9360019691194296e-04 0.0000000000000000e+00  2.6310479422436528e-05 -2.0456257795506763e-04 0.0000000000000000e+00  2.6293792856954505e-05 -2.1560197710572538e-04 0.0000000000000000e+00  2.6221593641343594e-05 -2.2678123958504222e-04 0.0000000000000000e+00  2.6076954829503169e-05 -2.3801454044087685e-04 0.0000000000000000e+00  2.5878458211240759e-05 -2.4936549389221265e-04 0.0000000000000000e+00  2.5609207984505261e-05 -2.6074791344818122e-04 0.0000000000000000e+00  2.5283305080053225e-05 -2.7223206816151649e-04 0.0000000000000000e+00  2.4892653546061600e-05 -2.8373228697938993e-04 0.0000000000000000e+00  2.4447076017450471e-05 -2.9531419631246625e-04 0.0000000000000000e+00  2.3938846273831326e-05 -3.0689868427747117e-04 0.0000000000000000e+00  2.3373874522662058e-05 -3.1855069902453765e-04 0.0000000000000000e+00  2.2746155823044560e-05 -3.3019377735163911e-04 0.0000000000000000e+00  2.2054955234823955e-05 -3.4188151488725939e-04 0.0000000000000000e+00  2.1315130789026966e-05 -3.5356979156409940e-04 0.0000000000000000e+00  2.0508945221367686e-05 -3.6527714264743093e-04 0.0000000000000000e+00  1.9668456568629436e-05 -3.7699044942262271e-04 0.0000000000000000e+00  1.8758354168603901e-05 -3.8868979049884347e-04 0.0000000000000000e+00  1.7819641006701112e-05 -4.0043409466712193e-04 0.0000000000000000e+00  8.7433001020206985e-06 -4.1141464515904178e-04 0.0000000000000000e+00  -7.0539605432868946e-06 -4.0953143122003546e-04 0.0000000000000000e+00  -1.3784740425428572e-05 -3.9689866940505501e-04 0.0000000000000000e+00  -1.2820133431177688e-05 -3.8504318537100089e-04 0.0000000000000000e+00  -1.1886256776665443e-05 -3.7316537806450842e-04 0.0000000000000000e+00  -1.1010206164171990e-05 -3.6131890405968406e-04 0.0000000000000000e+00  -1.0169449741810707e-05 -3.4948184519631090e-04 0.0000000000000000e+00  -9.3891311142625197e-06 -3.3766149777866356e-04 0.0000000000000000e+00  -8.6400720316712130e-06 -3.2586573669633826e-04 0.0000000000000000e+00  -7.9513128979420219e-06 -3.1407320281297995e-04 0.0000000000000000e+00  -7.2967164781000022e-06 -3.0233694550270076e-04 0.0000000000000000e+00  -6.6967761663930683e-06 -2.9060185884073776e-04 0.0000000000000000e+00  -6.1239702472636148e-06 -2.7893603101462715e-04 0.0000000000000000e+00  -5.6086969939196336e-06 -2.6728582865004157e-04 0.0000000000000000e+00  -5.1134640535921067e-06 -2.5572039297579830e-04 0.0000000000000000e+00  -4.6778876978894908e-06 -2.4418797989936877e-04 0.0000000000000000e+00  -4.2533703618164739e-06 -2.3275583854509772e-04 0.0000000000000000e+00  -3.8935997845339360e-06 -2.2137567873547700e-04 0.0000000000000000e+00  -3.5360995969412354e-06 -2.1011490503373308e-04 0.0000000000000000e+00  -3.2492492959137888e-06 -1.9892820104117396e-04 0.0000000000000000e+00  -2.9547714342202523e-06 -1.8788545165891198e-04 0.0000000000000000e+00  -2.7367541461421348e-06 -1.7694259304059789e-04 0.0000000000000000e+00  -2.4983806912720230e-06 -1.6616832554542597e-04 0.0000000000000000e+00  -2.3436706330400987e-06 -1.5552383416359729e-04 0.0000000000000000e+00  -2.1667627899993927e-06 -1.4506850628664481e-04 0.0000000000000000e+00  -2.0567655040149711e-06 -1.3477522308564163e-04 0.0000000000000000e+00  -1.9838134461163800e-06 -1.2471990764323127e-04 0.0000000000000000e+00  -1.8707298830972593e-06 -1.1484426825344660e-04 0.0000000000000000e+00  -1.8273134856341386e-06 -1.0522096413443220e-04 0.0000000000000000e+00  -1.7720743471980515e-06 -9.5867422598161403e-05 0.0000000000000000e+00  -1.7650533358487294e-06 -8.6778308468188128e-05 0.0000000000000000e+00  -1.7446105737187609e-06 -7.8006915248263718e-05 0.0000000000000000e+00  -1.7680517079965545e-06 -6.9531089351967444e-05 0.0000000000000000e+00  -1.7375522527040211e-06 -6.1454061543343838e-05 0.0000000000000000e+00  -1.7938233608351865e-06 -5.3678540934471922e-05 0.0000000000000000e+00  -1.8636527212155241e-06 -4.6365931961034306e-05 0.0000000000000000e+00  -1.8355497385941422e-06 -3.9385037725919925e-05 0.0000000000000000e+00  -1.8706482264042801e-06 -3.2891479646847204e-05 0.0000000000000000e+00  -1.8552019059680708e-06 -2.6856531211222828e-05 0.0000000000000000e+00  -1.8763187776677565e-06 -2.1295166836087777e-05 0.0000000000000000e+00  -1.7889806858758184e-06 -1.6300713547020759e-05 0.0000000000000000e+00  -1.8049805187715569e-06 -1.1751578765277308e-05 0.0000000000000000e+00  -1.8099995164518993e-06 -7.8466834149547975e-06 0.0000000000000000e+00  -1.6583946062002780e-06 -4.4046420285512276e-06 0.0000000000000000e+00  -1.5876109468888515e-06 -1.5805710592564427e-06 0.0000000000000000e+00  -1.3420970191046798e-06 6.2973946294768532e-07 0.0000000000000000e+00  -1.1094055559589805e-06 2.1027087821054756e-06 0.0000000000000000e+00  -5.6670234500278721e-07 2.7585277963589065e-06 0.0000000000000000e+00  -2.1876759981443771e-07 -6.4145448483794786e-07 0.0000000000000000e+00  2.5686893884706489e-06 -3.9275460334199891e-04 0.0000000000000000e+00  4.5243249673198113e-06 -3.7023596888448898e-04 0.0000000000000000e+00  6.8526074255959254e-06 -3.3348849786315348e-04 0.0000000000000000e+00  1.4060802177395666e-06 -3.7212896159419493e-06 0.0000000000000000e+00  7.9635762728260703e-06 -3.1044039880264769e-04 0.0000000000000000e+00  2.6609911214008743e-06 -9.0380163186277783e-06 0.0000000000000000e+00  9.0783307961462515e-06 -2.8711174327399362e-04 0.0000000000000000e+00  4.7353787045376045e-06 -2.2252588871865254e-05 0.0000000000000000e+00  6.0984063242702963e-06 -3.3184650227763776e-05 0.0000000000000000e+00  9.9913918229430483e-06 -2.6395089551337330e-04 0.0000000000000000e+00  8.8155903049970826e-06 -6.9025247657331136e-05 0.0000000000000000e+00  1.1220649783403263e-05 -2.1839163221870012e-04 0.0000000000000000e+00  7.1582665353995641e-06 -4.5548717636664000e-05 0.0000000000000000e+00  9.8318803530696380e-06 -8.5581908813235340e-05 0.0000000000000000e+00  1.1539153818000364e-05 -1.9614923993364471e-04 0.0000000000000000e+00  1.0705065190779085e-05 -2.4102015713231803e-04 0.0000000000000000e+00  1.0563268708831585e-05 -1.0366561362853528e-04 0.0000000000000000e+00  1.1660083976667666e-05 -1.7439025564655578e-04 0.0000000000000000e+00  1.0930337313923204e-05 -1.2198449954080869e-04 0.0000000000000000e+00  1.1772920027587518e-05 -1.5368813785224248e-04 0.0000000000000000e+00  1.1373317923612327e-05 -1.3699454432904043e-04 0.0000000000000000e+00  8.1263769054063075e-06 -5.6416978261105812e-05 0.0000000000000000e+00  5.4044419103752280e-06 -3.5254466124394913e-04 0.0000000000000000e+00  3.7259185431159108e-06 -1.4849351897616222e-05 0.0000000000000000e+00  -1.9543857902571738e-06 -3.8076626105204456e-04 0.0000000000000000e+00  -9.6127349960883724e-08 -5.1282984770316858e-07 0.0000000000000000e+00  4.0120169851157123e-06 -2.9808800065535371e-04 0.0000000000000000e+00  2.7725522086744726e-06 -3.2151252739968911e-04 0.0000000000000000e+00  3.3875423236698795e-06 -7.5906823182991649e-06 0.0000000000000000e+00  7.5987837068902206e-06 -2.8507447413452953e-05 0.0000000000000000e+00  6.5942792160686526e-06 -2.2889606721051572e-04 0.0000000000000000e+00  5.0599549228584590e-06 -2.7480319343939130e-04 0.0000000000000000e+00  1.2665039409359773e-05 -7.8030246184865567e-05 0.0000000000000000e+00  7.0883647636404136e-06 -2.0641771912396730e-04 0.0000000000000000e+00  9.2151824950112740e-06 -4.0549543699618856e-05 0.0000000000000000e+00  1.3714756725211448e-05 -9.5491454787279272e-05 0.0000000000000000e+00  7.4032583917894689e-06 -1.8437357096162999e-04 0.0000000000000000e+00  5.9190700011220792e-06 -2.5171677556029998e-04 0.0000000000000000e+00  1.5378372109535077e-05 -1.1420585020314805e-04 0.0000000000000000e+00  7.5414602665146100e-06 -1.6286516643681807e-04 0.0000000000000000e+00  -3.6983681006883927e-07 -9.3560532616392272e-07 0.0000000000000000e+00  -6.2633780446528754e-07 6.3092498033691133e-07 0.0000000000000000e+00  5.3895620949404386e-06 -4.0244725756752715e-04 0.0000000000000000e+00  1.4993385928365240e-06 -3.44