<?xml version="1.0"?>
<VTKFile type="UnstructuredGrid"  version="0.1"  >
<UnstructuredGrid>
<Piece  NumberOfPoints="1419" NumberOfCells="2698">
<Points>
<DataArray  type="Float64"  NumberOfComponents="3"  format="ascii">0 0 0  0 0.41 0  2.5 0 0  2.5 0.41 0  0.6 0.19 0  0.6 0.21 0  0.25 0.2 0  0.15 0.2 0  0.2489897948556636 0.21 0  0.2489897948556636 0.19 0  0.6 0.2 0  0 0.3807142857143437 0  0 0.3514285714286952 0  0 0.3221428571430699 0  0 0.29285714285744 0  0 0.2635714285718054 0  0 0.2342857142861561 0  0 0.2050000000005308 0  0 0.175714285714732 0  0 0.1464285714289574 0  0 0.1171428571431897 0  0 0.08785714285737878 0  0 0.05857142857161107 0  0 0.02928571428580012 0  0.03015443760436003 0 0  0.06140001986583606 0 0  0.09377624077125973 0 0  0.1273239957535082 0 0  0.1620856860351972 0 0  0.1981052433264291 0 0  0.235428184091502 0 0  0.2741016576309132 0 0  0.3141745521465447 0 0  0.3556974926295285 0 0  0.3987229542472677 0 0  0.4433053055141081 0 0  0.4895008759286886 0 0  0.5373680609405097 0 0  0.5869673343216626 0 0  0.6383613676634521 0 0  0.6916151138468254 0 0  0.7467958595648856 0 0  0.8039733463919316 0 0  0.8632198139502143 0 0  0.9246101326867038 0 0  0.9882218810934433 0 0  1.054135445558498 0 0  1.122434100542598 0 0  1.193204177141305 0 0  1.266535089879536 0 0  1.342519516046404 0 0  1.421253448503939 0 0  1.502836389106271 0 0  1.587371439758838 0 0  1.674965418777374 0 0  1.765729001825544 0 0  1.859776908880082 0 0  1.957227977487062 0 0  2.058205329869943 0 0  2.162836591189951 0 0  2.271253957290865 0 0  2.383594446803425 0 0  2.5 0.1024999999997612 0  2.5 0.2049999999994743 0  2.5 0.3074999999997183 0  2.383594446803656 0.41 0  2.271253957291315 0.41 0  2.162836591190598 0.41 0  2.058205329870775 0.41 0  1.957227977488067 0.41 0  1.859776908881246 0.41 0  1.765729001826854 0.41 0  1.674965418778818 0.41 0  1.58737143976041 0.41 0  1.502836389107956 0.41 0  1.421253448505726 0.41 0  1.342519516048286 0.41 0  1.266535089881505 0.41 0  1.193204177143353 0.41 0  1.122434100544716 0.41 0  1.05413544556068 0.41 0  0.9882218810956305 0.41 0  0.9246101326886647 0.41 0  0.8632198139519631 0.41 0  0.8039733463934788 0.41 0  0.7467958595662458 0.41 0  0.6916151138480078 0.41 0  0.6383613676644679 0.41 0  0.5869673343225223 0.41 0  0.5373680609412221 0.41 0  0.4895008759292634 0.41 0  0.4433053055145528 0.41 0  0.3987229542475914 0.41 0  0.3556974926297398 0.41 0  0.3141745521466497 0.41 0  0.2741016576310038 0.41 0  0.2354281840915826 0.41 0  0.1981052433265003 0.41 0  0.1620856860352591 0.41 0  0.1273239957535623 0.41 0  0.09377624077128965 0.41 0  0.06140001986584975 0.41 0  0.03015443760436654 0.41 0  0.2497468076502589 0.2050254481002335 0  0.2497468076502614 0.1949745518997913 0  0.2469965252529372 0.1829317073451959 0  0.2439893735792749 0.1762316384219906 0  0.2400332147834255 0.1700443375285386 0  0.2352133972704371 0.1645032867342007 0  0.2296339016332438 0.1597280261969788 0  0.2234150974217223 0.1558215752574715 0  0.2166911463437691 0.1528682099456123 0  0.2096071079204251 0.1509316448471593 0  0.2023158100364996 0.1500536585536553 0  0.194974551899914 0.1502531923497262 0  0.1877417105387872 0.1515259415822739 0  0.1807733240461124 0.153844448527136 0  0.1742197252835808 0.15715869474974 0  0.1682222986673531 0.1613971801805478 0  0.162910430003803 0.1664684656256651 0  0.1583987151779087 0.1722631454351573 0  0.1547844879126891 0.178656207771761 0  0.1521457199348551 0.1855097315605723 0  0.1505393388476355 0.1926758619366523 0  0.1505393388476328 0.2073241380633295 0  0.1521457199348437 0.2144902684393899 0  0.1547844879126531 0.221343792228163 0  0.1583987151778488 0.2277368545647528 0  0.1629104300036858 0.2335315343742052 0  0.1682222986671726 0.2386028198193036 0  0.1742197252833576 0.2428413052501257 0  0.1807733240458683 0.2461555514727623 0  0.1877417105384929 0.2484740584176516 0  0.1949745518995776 0.2497468076502398 0  0.202315810036185 0.2499463414463592 0  0.2096071079201568 0.2490683551528932 0  0.2166911463435495 0.2471317900544655 0  0.2234150974215506 0.2441784247426195 0  0.2296339016331197 0.2402719738031125 0  0.2352133972703547 0.2354967132658811 0  0.2400332147833751 0.2299556624715287 0  0.2439893735792577 0.2237683615780412 0  0.246996525252926 0.2170682926548348 0  0.25645809709277 0.21 0  0.2639263993298655 0.21 0  0.271394701566961 0.21 0  0.2788630038040554 0.21 0  0.2863313060411479 0.21 0  0.2937996082782405 0.21 0  0.301267910515333 0.21 0  0.3087362127524279 0.21 0  0.3162045149895234 0.21 0  0.3236728172265972 0.21 0  0.3311411194636928 0.21 0  0.3386094217007701 0.21 0  0.3460777239378666 0.21 0  0.3535460261749672 0.21 0  0.3610143284120516 0.21 0  0.3684826306491596 0.21 0  0.3759509328862226 0.21 0  0.383419235123329 0.21 0  0.3908875373604028 0.21 0  0.3983558395975142 0.21 0  0.4058241418345938 0.21 0  0.4132924440716992 0.21 0  0.4207607463087888 0.21 0  0.4282290485459029 0.21 0  0.4356973507830418 0.21 0  0.4431656530201649 0.21 0  0.4506339552573136 0.21 0  0.4581022574944306 0.21 0  0.4655705597315852 0.21 0  0.4730388619686996 0.21 0  0.480507164205851 0.21 0  0.4879754664429498 0.21 0  0.4954437686800938 0.21 0  0.502912070917267 0.21 0  0.5103803731544119 0.21 0  0.5178486753915261 0.21 0  0.5253169776286404 0.21 0  0.5327852798657868 0.21 0  0.5402535821029386 0.21 0  0.54772188434007 0.21 0  0.5551901865771842 0.21 0  0.5626584888143201 0.21 0  0.5701267910514778 0.21 0  0.5775950932886138 0.21 0  0.5850633955257281 0.21 0  0.5925316977628483 0.21 0  0.6 0.2050000000000054 0  0.6 0.1950000000000217 0  0.5925316977628897 0.19 0  0.5850633955257988 0.19 0  0.5775950932887378 0.19 0  0.5701267910515998 0.19 0  0.5626584888145268 0.19 0  0.5551901865773963 0.19 0  0.547721884340339 0.19 0  0.5402535821032429 0.19 0  0.5327852798661811 0.19 0  0.5253169776290537 0.19 0  0.5178486753919799 0.19 0  0.5103803731549078 0.19 0  0.502912070917822 0.19 0  0.4954437686807294 0.19 0  0.4879754664436223 0.19 0  0.4805071642065402 0.19 0  0.4730388619694271 0.19 0  0.4655705597323621 0.19 0  0.4581022574952563 0.19 0  0.4506339552581777 0.19 0  0.4431656530210671 0.19 0  0.4356973507839815 0.19 0  0.4282290485468779 0.19 0  0.4207607463097617 0.19 0  0.4132924440726327 0.19 0  0.4058241418354857 0.19 0  0.3983558395983636 0.19 0  0.3908875373612097 0.19 0  0.3834192351240934 0.19 0  0.3759509328869369 0.19 0  0.3684826306498175 0.19 0  0.361014328412667 0.19 0  0.3535460261755617 0.19 0  0.3460777239384295 0.19 0  0.3386094217012945 0.19 0  0.3311411194641595 0.19 0  0.3236728172270245 0.19 0  0.3162045149898895 0.19 0  0.3087362127527544 0.19 0  0.3012679105156187 0.19 0  0.2937996082784807 0.19 0  0.2863313060413428 0.19 0  0.2788630038042048 0.19 0  0.2713947015670686 0.19 0  0.2639263993299336 0.19 0  0.2564580970927985 0.19 0  0.2607803159922026 0.2000727136295815 0  0.5887803774232762 0.2001272386983733 0  0.5745072403740523 0.2002044435018727 0  0.5511891430099709 0.2001122610077113 0  0.2751288526855082 0.20000000000002 0  0.5365194309847112 0.1999999999999436 0  0.2894621222999649 0.1998691686390484 0  0.5215828265105155 0.1999999999999228 0  0.3127789816668748 0.1998657885438805 0  0.3274069683451451 0.2000000000000796 0  0.5066462220363641 0.199999999999908 0  0.3650630746574081 0.199866017807523 0  0.476773013087985 0.1999999999998713 0  0.3417402379596385 0.1998691686391011 0  0.3796850840047755 0.200000000000134 0  0.4618364086138087 0.1999999999998546 0  0.4917096175621762 0.1999999999998808 0  0.3946216884789568 0.2000000000001512 0  0.446899804139621 0.1999999999998389 0  0.4089549580935208 0.1998691686391595 0  0.4322718174608562 0.200127451265745 0  0.4201487168029707 0.1999966199048527 0  0.3528922713220932 0.2000185703532356 0  0.5633122436674589 0.1999814296467508 0  0.3006558810093873 0.1999966199048318 0  0.5815926498168407 0.1966545283159175 0  0.2677053789419034 0.1964246479135325 0  0.5290511287476175 0.1970915826863981 0  0.5439877332217911 0.197091582686394 0  0.2825131256993216 0.2035478995978015 0  0.3199386661080599 0.202908417313604 0  0.4842413153250809 0.1970915826863873 0  0.5141145242734466 0.1970915826863843 0  0.3722167817676917 0.2029084173136195 0  0.4693047108508938 0.1970915826863783 0  0.3348752705822316 0.202908417313609 0  0.3871533862418661 0.2029084173136212 0  0.4543681063767183 0.1970915826863795 0  0.4991779197992749 0.1970915826863902 0  0.4020059614928624 0.203547899597858 0  0.4394315019025246 0.1970915826863714 0  0.2550657455369551 0.2034088125358657 0  0.2548908499171161 0.1966940311614271 0  0.5946539510196798 0.2024302972968126 0  0.267698176732111 0.2039977513680092 0  0.4261685417851465 0.196409292431739 0  0.3590076176283495 0.196411355804271 0  0.5571672426447437 0.2036011176410121 0  0.3066757059912147 0.1964092924317024 0  0.594380730180568 0.1966558399668133 0  0.4842413153245942 0.2040749161535287 0  0.4693047108503577 0.2040749161535231 0  0.3871533862424271 0.1959250838464788 0  0.372246743208829 0.1959123236376545 0  0.5141145242731028 0.2040749161535395 0  0.4543681063761134 0.2040749161535186 0  0.4019979587101454 0.1959834479682427 0  0.4394608940728603 0.2040870543693135 0  0.5439623148931173 0.2040856076781014 0  0.5290511287473298 0.2040749161535501 0  0.4991779197988497 0.2040749161535382 0  0.3347912413592433 0.1959225448935183 0  0.3199680582793816 0.1959123018030061 0  0.2825051229162361 0.1959834479681729 0  0.3590471196690275 0.2036304442587945 0  0.5571594006495384 0.1963685282145804 0  0.3067669986803285 0.203627750582736 0  0.4262598344738712 0.2036568242185335 0  0.5814408164431408 0.2041285596160068 0  0.5688286748170428 0.1961819304477386 0  0.4145905603063645 0.2038180695522843 0  0.3473758401724931 0.2038180695522752 0  0.2950977245128307 0.2038180695522663 0  0.5688286748170693 0.203818069552238 0  0.2950977245127906 0.1961819304477774 0  0.3473758401723931 0.1961819304478349 0  0.4145905603061963 0.1961819304479011 0  0.2601812407614425 0.2056861609747042
[...]
<PointData  Vectors="f_40-1"> 
<DataArray  type="Float64"  Name="f_40-1"  NumberOfComponents="3" format="ascii">0.0000000000000000e+00 0.0000000000000000e+00 0.0000000000000000e+00  0.0000000000000000e+00 0.0000000000000000e+00 0.0000000000000000e+00  0.0000000000000000e+00 0.0000000000000000e+00 0.0000000000000000e+00  0.0000000000000000e+00 0.0000000000000000e+00 0.0000000000000000e+00  -2.1382584356559634e-05 -6.1127197022738122e-04 0.0000000000000000e+00  2.7511592073438828e-05 -6.1540815485784423e-04 0.0000000000000000e+00  0.0000000000000000e+00 0.0000000000000000e+00 0.0000000000000000e+00  0.0000000000000000e+00 0.0000000000000000e+00 0.0000000000000000e+00  0.0000000000000000e+00 0.0000000000000000e+00 0.0000000000000000e+00  0.0000000000000000e+00 0.0000000000000000e+00 0.0000000000000000e+00  2.6756501239715782e-06 -6.1333268756714923e-04 0.0000000000000000e+00  0.0000000000000000e+00 0.0000000000000000e+00 0.0000000000000000e+00  0.0000000000000000e+00 0.0000000000000000e+00 0.0000000000000000e+00  0.0000000000000000e+00 0.0000000000000000e+00 0.0000000000000000e+00  0.0000000000000000e+00 0.0000000000000000e+00 0.0000000000000000e+00  0.0000000000000000e+00 0.0000000000000000e+00 0.0000000000000000e+00  0.0000000000000000e+00 0.0000000000000000e+00 0.0000000000000000e+00  0.0000000000000000e+00 0.0000000000000000e+00 0.0000000000000000e+00  0.0000000000000000e+00 0.0000000000000000e+00 0.0000000000000000e+00  0.0000000000000000e+00 0.0000000000000000e+00 0.0000000000000000e+00  0.0000000000000000e+00 0.0000000000000000e+00 0.0000000000000000e+00  0.0000000000000000e+00 0.0000000000000000e+00 0.0000000000000000e+00  0.0000000000000000e+00 0.0000000000000000e+00 0.0000000000000000e+00  0.0000000000000000e+00 0.0000000000000000e+00 0.0000000000000000e+00  0.0000000000000000e+00 0.0000000000000000e+00 0.0000000000000000e+00  0.0000000000000000e+00 0.0000000000000000e+00 0.0000000000000000e+00  0.0000000000000000e+00 0.0000000000000000e+00 0.0000000000000000e+00  0.0000000000000000e+00 0.0000000000000000e+00 0.0000000000000000e+00  0.0000000000000000e+00 0.0000000000000000e+00 0.0000000000000000e+00  0.0000000000000000e+00 0.0000000000000000e+00 0.0000000000000000e+00  0.0000000000000000e+00 0.0000000000000000e+00 0.0000000000000000e+00  0.0000000000000000e+00 0.0000000000000000e+00 0.0000000000000000e+00  0.0000000000000000e+00 0.0000000000000000e+00 0.0000000000000000e+00  0.0000000000000000e+00 0.0000000000000000e+00 0.0000000000000000e+00  0.0000000000000000e+00 0.0000000000000000e+00 0.0000000000000000e+00  0.0000000000000000e+00 0.0000000000000000e+00 0.0000000000000000e+00  0.0000000000000000e+00 0.0000000000000000e+00 0.0000000000000000e+00  0.0000000000000000e+00 0.0000000000000000e+00 0.0000000000000000e+00  0.0000000000000000e+00 0.0000000000000000e+00 0.0000000000000000e+00  0.0000000000000000e+00 0.0000000000000000e+00 0.0000000000000000e+00  0.0000000000000000e+00 0.0000000000000000e+00 0.0000000000000000e+00  0.0000000000000000e+00 0.0000000000000000e+00 0.0000000000000000e+00  0.0000000000000000e+00 0.0000000000000000e+00 0.0000000000000000e+00  0.0000000000000000e+00 0.0000000000000000e+00 0.0000000000000000e+00  0.0000000000000000e+00 0.0000000000000000e+00 0.0000000000000000e+00  0.0000000000000000e+00 0.0000000000000000e+00 0.0000000000000000e+00  0.0000000000000000e+00 0.0000000000000000e+00 0.0000000000000000e+00  0.0000000000000000e+00 0.0000000000000000e+00 0.0000000000000000e+00  0.0000000000000000e+00 0.0000000000000000e+00 0.0000000000000000e+00  0.0000000000000000e+00 0.0000000000000000e+00 0.0000000000000000e+00  0.0000000000000000e+00 0.0000000000000000e+00 0.0000000000000000e+00  0.0000000000000000e+00 0.0000000000000000e+00 0.0000000000000000e+00  0.0000000000000000e+00 0.0000000000000000e+00 0.0000000000000000e+00  0.0000000000000000e+00 0.0000000000000000e+00 0.0000000000000000e+00  0.0000000000000000e+00 0.0000000000000000e+00 0.0000000000000000e+00  0.0000000000000000e+00 0.0000000000000000e+00 0.0000000000000000e+00  0.0000000000000000e+00 0.0000000000000000e+00 0.0000000000000000e+00  0.0000000000000000e+00 0.0000000000000000e+00 0.0000000000000000e+00  0.0000000000000000e+00 0.0000000000000000e+00 0.0000000000000000e+00  0.0000000000000000e+00 0.0000000000000000e+00 0.0000000000000000e+00  0.0000000000000000e+00 0.0000000000000000e+00 0.0000000000000000e+00  0.0000000000000000e+00 0.0000000000000000e+00 0.0000000000000000e+00  0.0000000000000000e+00 0.0000000000000000e+00 0.0000000000000000e+00  0.0000000000000000e+00 0.0000000000000000e+00 0.0000000000000000e+00  0.0000000000000000e+00 0.0000000000000000e+00 0.0000000000000000e+00  0.0000000000000000e+00 0.0000000000000000e+00 0.0000000000000000e+00  0.0000000000000000e+00 0.0000000000000000e+00 0.0000000000000000e+00  0.0000000000000000e+00 0.0000000000000000e+00 0.0000000000000000e+00  0.0000000000000000e+00 0.0000000000000000e+00 0.0000000000000000e+00  0.0000000000000000e+00 0.0000000000000000e+00 0.0000000000000000e+00  0.0000000000000000e+00 0.0000000000000000e+00 0.0000000000000000e+00  0.0000000000000000e+00 0.0000000000000000e+00 0.0000000000000000e+00  0.0000000000000000e+00 0.0000000000000000e+00 0.0000000000000000e+00  0.0000000000000000e+00 0.0000000000000000e+00 0.0000000000000000e+00  0.0000000000000000e+00 0.0000000000000000e+00 0.0000000000000000e+00  0.0000000000000000e+00 0.0000000000000000e+00 0.0000000000000000e+00  0.0000000000000000e+00 0.0000000000000000e+00 0.0000000000000000e+00  0.0000000000000000e+00 0.0000000000000000e+00 0.0000000000000000e+00  0.0000000000000000e+00 0.0000000000000000e+00 0.0000000000000000e+00  0.0000000000000000e+00 0.0000000000000000e+00 0.0000000000000000e+00  0.0000000000000000e+00 0.0000000000000000e+00 0.0000000000000000e+00  0.0000000000000000e+00 0.0000000000000000e+00 0.0000000000000000e+00  0.0000000000000000e+00 0.0000000000000000e+00 0.0000000000000000e+00  0.0000000000000000e+00 0.0000000000000000e+00 0.0000000000000000e+00  0.0000000000000000e+00 0.0000000000000000e+00 0.0000000000000000e+00  0.0000000000000000e+00 0.0000000000000000e+00 0.0000000000000000e+00  0.0000000000000000e+00 0.0000000000000000e+00 0.0000000000000000e+00  0.0000000000000000e+00 0.0000000000000000e+00 0.0000000000000000e+00  0.0000000000000000e+00 0.0000000000000000e+00 0.0000000000000000e+00  0.0000000000000000e+00 0.0000000000000000e+00 0.0000000000000000e+00  0.0000000000000000e+00 0.0000000000000000e+00 0.0000000000000000e+00  0.0000000000000000e+00 0.0000000000000000e+00 0.0000000000000000e+00  0.0000000000000000e+00 0.0000000000000000e+00 0.0000000000000000e+00  0.0000000000000000e+00 0.0000000000000000e+00 0.0000000000000000e+00  0.0000000000000000e+00 0.0000000000000000e+00 0.0000000000000000e+00  0.0000000000000000e+00 0.0000000000000000e+00 0.0000000000000000e+00  0.0000000000000000e+00 0.0000000000000000e+00 0.0000000000000000e+00  0.0000000000000000e+00 0.0000000000000000e+00 0.0000000000000000e+00  0.0000000000000000e+00 0.0000000000000000e+00 0.0000000000000000e+00  0.0000000000000000e+00 0.0000000000000000e+00 0.0000000000000000e+00  0.0000000000000000e+00 0.0000000000000000e+00 0.0000000000000000e+00  0.0000000000000000e+00 0.0000000000000000e+00 0.0000000000000000e+00  0.0000000000000000e+00 0.0000000000000000e+00 0.0000000000000000e+00  0.0000000000000000e+00 0.0000000000000000e+00 0.0000000000000000e+00  0.0000000000000000e+00 0.0000000000000000e+00 0.0000000000000000e+00  0.0000000000000000e+00 0.0000000000000000e+00 0.0000000000000000e+00  0.0000000000000000e+00 0.0000000000000000e+00 0.0000000000000000e+00  0.0000000000000000e+00 0.0000000000000000e+00 0.0000000000000000e+00  0.0000000000000000e+00 0.0000000000000000e+00 0.0000000000000000e+00  0.0000000000000000e+00 0.0000000000000000e+00 0.0000000000000000e+00  0.0000000000000000e+00 0.0000000000000000e+00 0.0000000000000000e+00  0.0000000000000000e+00 0.0000000000000000e+00 0.0000000000000000e+00  0.0000000000000000e+00 0.0000000000000000e+00 0.0000000000000000e+00  0.0000000000000000e+00 0.0000000000000000e+00 0.0000000000000000e+00  0.0000000000000000e+00 0.0000000000000000e+00 0.0000000000000000e+00  0.0000000000000000e+00 0.0000000000000000e+00 0.0000000000000000e+00  0.0000000000000000e+00 0.0000000000000000e+00 0.0000000000000000e+00  0.0000000000000000e+00 0.0000000000000000e+00 0.0000000000000000e+00  0.0000000000000000e+00 0.0000000000000000e+00 0.0000000000000000e+00  0.0000000000000000e+00 0.0000000000000000e+00 0.0000000000000000e+00  0.0000000000000000e+00 0.0000000000000000e+00 0.0000000000000000e+00  0.0000000000000000e+00 0.0000000000000000e+00 0.0000000000000000e+00  0.0000000000000000e+00 0.0000000000000000e+00 0.0000000000000000e+00  0.0000000000000000e+00 0.0000000000000000e+00 0.0000000000000000e+00  0.0000000000000000e+00 0.0000000000000000e+00 0.0000000000000000e+00  0.0000000000000000e+00 0.0000000000000000e+00 0.0000000000000000e+00  0.0000000000000000e+00 0.0000000000000000e+00 0.0000000000000000e+00  0.0000000000000000e+00 0.0000000000000000e+00 0.0000000000000000e+00  0.0000000000000000e+00 0.0000000000000000e+00 0.0000000000000000e+00  0.0000000000000000e+00 0.0000000000000000e+00 0.0000000000000000e+00  0.0000000000000000e+00 0.0000000000000000e+00 0.0000000000000000e+00  0.0000000000000000e+00 0.0000000000000000e+00 0.0000000000000000e+00  0.0000000000000000e+00 0.0000000000000000e+00 0.0000000000000000e+00  0.0000000000000000e+00 0.0000000000000000e+00 0.0000000000000000e+00  0.0000000000000000e+00 0.0000000000000000e+00 0.0000000000000000e+00  0.0000000000000000e+00 0.0000000000000000e+00 0.0000000000000000e+00  0.0000000000000000e+00 0.0000000000000000e+00 0.0000000000000000e+00  0.0000000000000000e+00 0.0000000000000000e+00 0.0000000000000000e+00  0.0000000000000000e+00 0.0000000000000000e+00 0.0000000000000000e+00  0.0000000000000000e+00 0.0000000000000000e+00 0.0000000000000000e+00  0.0000000000000000e+00 0.0000000000000000e+00 0.0000000000000000e+00  0.0000000000000000e+00 0.0000000000000000e+00 0.0000000000000000e+00  0.0000000000000000e+00 0.0000000000000000e+00 0.0000000000000000e+00  1.0033320484574763e-06 -4.0032516960979242e-06 0.0000000000000000e+00  2.3048290995630954e-06 -5.2828602654841226e-06 0.0000000000000000e+00  3.7282982236958617e-06 -7.1780978117138545e-06 0.0000000000000000e+00  5.3978519104944807e-06 -9.7980910535876248e-06 0.0000000000000000e+00  6.9654791688192048e-06 -1.3211742584853162e-05 0.0000000000000000e+00  8.7396732378443188e-06 -1.7503473242577994e-05 0.0000000000000000e+00  1.0307846939524590e-05 -2.2470304221968021e-05 0.0000000000000000e+00  1.1892159600721417e-05 -2.8350741014982832e-05 0.0000000000000000e+00  1.3673548601219539e-05 -3.4947376248395418e-05 0.0000000000000000e+00  1.5189535207702760e-05 -4.2318265585972672e-05 0.0000000000000000e+00  1.6953112557544379e-05 -5.0464535012599093e-05 0.0000000000000000e+00  1.8425034229850417e-05 -5.9350100624004157e-05 0.0000000000000000e+00  2.0083782555744917e-05 -6.8963097185994749e-05 0.0000000000000000e+00  2.1508350359627220e-05 -7.9175560719243809e-05 0.0000000000000000e+00  2.2899066196227348e-05 -9.0139495980357017e-05 0.0000000000000000e+00  2.4401361219933104e-05 -1.0168037405415866e-04 0.0000000000000000e+00  2.5638458351627111e-05 -1.1380666949877836e-04 0.0000000000000000e+00  2.7005084071128084e-05 -1.2653373422308426e-04 0.0000000000000000e+00  2.8103971167685213e-05 -1.3976458667295928e-04 0.0000000000000000e+00  2.9292416268971387e-05 -1.5351060367440857e-04 0.0000000000000000e+00  3.0271482045837524e-05 -1.6770840873802658e-04 0.0000000000000000e+00  3.1265954387001042e-05 -1.8237501801495753e-04 0.0000000000000000e+00  3.2081851578730336e-05 -1.9737254535701982e-04 0.0000000000000000e+00  3.2816335719729515e-05 -2.1279217441537885e-04 0.0000000000000000e+00  3.3557571612557950e-05 -2.2850735855664184e-04 0.0000000000000000e+00  3.4135984386537403e-05 -2.4453234564468957e-04 0.0000000000000000e+00  3.4653487360838577e-05 -2.6087619181498273e-04 0.0000000000000000e+00  3.5057245497092388e-05 -2.7742171909343397e-04 0.0000000000000000e+00  3.5394867815062832e-05 -2.9424444350965699e-04 0.0000000000000000e+00  3.5625905655202612e-05 -3.1122278675558814e-04 0.0000000000000000e+00  3.5787482809080010e-05 -3.2843147285019402e-04 0.0000000000000000e+00  3.5847290788224138e-05 -3.4575257801980818e-04 0.0000000000000000e+00  3.5837971454463695e-05 -3.6326330349440632e-04 0.0000000000000000e+00  3.5730877160571613e-05 -3.8084632937545140e-04 0.0000000000000000e+00  3.5550414408133558e-05 -3.9858828110282891e-04 0.0000000000000000e+00  3.5281054165983368e-05 -4.1637310480300438e-04 0.0000000000000000e+00  3.4940153902774396e-05 -4.3428272371802044e-04 0.0000000000000000e+00  3.4514729332614811e-05 -4.5221047337504775e-04 0.0000000000000000e+00  3.4015742648276350e-05 -4.7023808044492600e-04 0.0000000000000000e+00  3.3433898959109202e-05 -4.8826377369901947e-04 0.0000000000000000e+00  3.2770879543829437e-05 -5.0635556615052143e-04 0.0000000000000000e+00  3.2043206737416802e-05 -5.2445231849260459e-04 0.0000000000000000e+00  3.1231189665797600e-05 -5.4257857768692818e-04 0.0000000000000000e+00  3.0375516745892471e-05 -5.6071495468916878e-04 0.0000000000000000e+00  2.9430787265718980e-05 -5.7883593782579444e-04 0.0000000000000000e+00  2.8447478925906126e-05 -5.9701288480302182e-04 0.0000000000000000e+00  1.4954000284418454e-05 -6.1436947305495407e-04 0.0000000000000000e+00  -9.4754703914918661e-06 -6.1230268702932862e-04 0.0000000000000000e+00  -2.0421967588872167e-05 -5.9314742009242236e-04 0.0000000000000000e+00  -1.9402629917654498e-05 -5.7483203228352985e-04 0.0000000000000000e+00  -1.8422585771103980e-05 -5.5649045418202574e-04 0.0000000000000000e+00  -1.7512360965038063e-05 -5.3819020173314692e-04 0.0000000000000000e+00  -1.6645927022525757e-05 -5.1990413335501590e-04 0.0000000000000000e+00  -1.5852294140792560e-05 -5.0164434025637319e-04 0.0000000000000000e+00  -1.5093207264204854e-05 -4.8342069501858319e-04 0.0000000000000000e+00  -1.4409144476697867e-05 -4.6520994153791606e-04 0.0000000000000000e+00  -1.3759696085970224e-05 -4.4708002413448232e-04 0.0000000000000000e+00  -1.3179350196543160e-05 -4.2896661987605855e-04 0.0000000000000000e+00  -1.2621243240572115e-05 -4.1095588327999386e-04 0.0000000000000000e+00  -1.2136665709120535e-05 -3.9298775390076752e-04 0.0000000000000000e+00  -1.1660958986475598e-05 -3.7514974720930834e-04 0.0000000000000000e+00  -1.1262419862766929e-05 -3.5738613791720485e-04 0.0000000000000000e+00  -1.0855958563623484e-05 -3.3978141208933368e-04 0.0000000000000000e+00  -1.0534550767437689e-05 -3.2228742631279202e-04 0.0000000000000000e+00  -1.0187530334497508e-05 -3.0498769766479860e-04 0.0000000000000000e+00  -9.9342300029745774e-06 -2.8784152362021674e-04 0.0000000000000000e+00  -9.6345943714994378e-06 -2.7093358464066672e-04 0.0000000000000000e+00  -9.4375578954099956e-06 -2.5422884290367303e-04 0.0000000000000000e+00  -9.1682378481066590e-06 -2.3780901728446681e-04 0.0000000000000000e+00  -9.0123500731579801e-06 -2.2165021572721975e-04 0.0000000000000000e+00  -8.7727653323736780e-06 -2.0582478712333574e-04 0.0000000000000000e+00  -8.6224800661875860e-06 -1.9030513048791988e-04 0.0000000000000000e+00  -8.4908107093540800e-06 -1.7522119661059505e-04 0.0000000000000000e+00  -8.2573629276568561e-06 -1.6046497679910186e-04 0.0000000000000000e+00  -8.1002813494255538e-06 -1.4618711497586901e-04 0.0000000000000000e+00  -7.8808712830158695e-06 -1.3237530830038618e-04 0.0000000000000000e+00  -7.7064258168173386e-06 -1.1907355981574223e-04 0.0000000000000000e+00  -7.4673804609386249e-06 -1.0631418984149307e-04 0.0000000000000000e+00  -7.2673358163946870e-06 -9.4108720017819971e-05 0.0000000000000000e+00  -6.9336699035613440e-06 -8.2582607963495156e-05 0.0000000000000000e+00  -6.7283298008438364e-06 -7.1587748859984105e-05 0.0000000000000000e+00  -6.5107608251693889e-06 -6.1374075845953052e-05 0.0000000000000000e+00  -6.1145840686696211e-06 -5.1716915838196239e-05 0.0000000000000000e+00  -5.8002181823082235e-06 -4.2862566069177139e-05 0.0000000000000000e+00  -5.3903859124381107e-06 -3.4731131401467015e-05 0.0000000000000000e+00  -5.0328886485947916e-06 -2.7351626018755131e-05 0.0000000000000000e+00  -4.5100533719813925e-06 -2.0831555850770520e-05 0.0000000000000000e+00  -4.1512605259583528e-06 -1.4973297028965606e-05 0.0000000000000000e+00  -3.7851840244338760e-06 -1.0045691140347943e-05 0.0000000000000000e+00  -3.2168130164464665e-06 -5.7699743732619008e-06 0.0000000000000000e+00  -2.7861346079331577e-06 -2.3437659884993337e-06 0.0000000000000000e+00  -2.1702452648457339e-06 2.6550779674972914e-07 0.0000000000000000e+00  -1.6294692478201142e-06 1.9785088186994199e-06 0.0000000000000000e+00  -7.9163306226914836e-07 2.7219664665199881e-06 0.0000000000000000e+00  -3.8921885103324552e-07 -6.1461825252899764e-07 0.0000000000000000e+00  4.6690271103190502e-06 -5.8592977608778736e-04 0.0000000000000000e+00  6.7833419943827433e-06 -5.5109746677446984e-04 0.0000000000000000e+00  9.0574425219369085e-06 -4.9427168852223056e-04 0.0000000000000000e+00  1.0139113819074086e-06 -4.1433122936997333e-06 0.0000000000000000e+00  1.0022265612074817e-05 -4.5864361755615802e-04 0.0000000000000000e+00  2.0580784515949997e-06 -1.0596262336062707e-05 0.0000000000000000e+00  1.1038325136465311e-05 -4.2258588322088278e-04 0.0000000000000000e+00  3.8888311837217789e-06 -2.7479250099132938e-05 0.0000000000000000e+00  5.2200961774773202e-06 -4.2021917906791486e-05 0.0000000000000000e+00  1.1804459597086209e-05 -3.8681337276966801e-04 0.0000000000000000e+00  8.0528756009665256e-06 -9.2077770253831724e-05 0.0000000000000000e+00  1.2608012350466065e-05 -3.1659538180171137e-04 0.0000000000000000e+00  6.2415928616664048e-06 -5.8959693893140262e-05 0.0000000000000000e+00  9.3283812827382714e-06 -1.1600545878824908e-04 0.0000000000000000e+00  1.2657598277019515e-05 -2.8243897324648897e-04 0.0000000000000000e+00  1.2325948174319539e-05 -3.5143892048085585e-04 0.0000000000000000e+00  1.0312009482929809e-05 -1.4257859075972456e-04 0.0000000000000000e+00  1.2481705536258620e-05 -2.4915212946292290e-04 0.0000000000000000e+00  1.0872185502016365e-05 -1.6986459756173627e-04 0.0000000000000000e+00  1.2380134883600645e-05 -2.1763153441609867e-04 0.0000000000000000e+00  1.1630148069372143e-05 -1.9240753749237061e-04 0.0000000000000000e+00  7.3277644799165464e-06 -7.4149465387932873e-05 0.0000000000000000e+00  7.4940336947279022e-06 -5.2375504612268769e-04 0.0000000000000000e+00  3.0133471019594474e-06 -1.7903812370342370e-05 0.0000000000000000e+00  -2.7945941236167644e-06 -5.6767526020841451e-04 0.0000000000000000e+00  -5.2238977763140911e-07 -6.4826658869533054e-07 0.0000000000000000e+00  3.5552355046763206e-06 -4.3983202119671070e-04 0.0000000000000000e+00  2.3734825628749010e-06 -4.7603546729829428e-04 0.0000000000000000e+00  3.1990960672611358e-06 -8.5269399832876798e-06 0.0000000000000000e+00  7.4693431335247338e-06 -3.5422012655610786e-05 0.0000000000000000e+00  5.7358723887132888e-06 -3.3307539910881062e-04 0.0000000000000000e+00  4.5045354397445489e-06 -4.0386471690832012e-04 0.0000000000000000e+00  1.3510078318017857e-05 -1.0467395329252382e-04 0.0000000000000000e+00  6.0382428737012468e-06 -2.9851969526652390e-04 0.0000000000000000e+00  9.2611477599848912e-06 -5.1709688432697434e-05 0.0000000000000000e+00  1.4969776011719818e-05 -1.3016010678517084e-04 0.0000000000000000e+00  6.1459839997131858e-06 -2.6474189610040214e-04 0.0000000000000000e+00  5.2278593016141650e-06 -3.6823810134990157e-04 0.0000000000000000e+00  1.7467652947770400e-05 -1.5779624286491164e-04 0.0000000000000000e+00  6.0711306778654064e-06 -2.3193489190878212e-04 0.0000000000000000e+00  -4.2725898622640445e-07 -8.9272978931002486e-07 0.0000000000000000e+00  -7.2595043689391358e-07 6.6735877468584746e-07 0.0000000000000000e+00  9.4241783237964216e-06 -6.0073200275892577e-04 0.0000000000000000e+00  1.3809765863812679e-06 -3.57