<?xml version="1.0"?>
<VTKFile type="UnstructuredGrid"  version="0.1"  >
<UnstructuredGrid>
<Piece  NumberOfPoints="1419" NumberOfCells="2698">
<Points>
<DataArray  type="Float64"  NumberOfComponents="3"  format="ascii">0 0 0  0 0.41 0  2.5 0 0  2.5 0.41 0  0.6 0.19 0  0.6 0.21 0  0.25 0.2 0  0.15 0.2 0  0.2489897948556636 0.21 0  0.2489897948556636 0.19 0  0.6 0.2 0  0 0.3807142857143437 0  0 0.3514285714286952 0  0 0.3221428571430699 0  0 0.29285714285744 0  0 0.2635714285718054 0  0 0.2342857142861561 0  0 0.2050000000005308 0  0 0.175714285714732 0  0 0.1464285714289574 0  0 0.1171428571431897 0  0 0.08785714285737878 0  0 0.05857142857161107 0  0 0.02928571428580012 0  0.03015443760436003 0 0  0.06140001986583606 0 0  0.09377624077125973 0 0  0.1273239957535082 0 0  0.1620856860351972 0 0  0.1981052433264291 0 0  0.235428184091502 0 0  0.2741016576309132 0 0  0.3141745521465447 0 0  0.3556974926295285 0 0  0.3987229542472677 0 0  0.4433053055141081 0 0  0.4895008759286886 0 0  0.5373680609405097 0 0  0.5869673343216626 0 0  0.6383613676634521 0 0  0.6916151138468254 0 0  0.7467958595648856 0 0  0.8039733463919316 0 0  0.8632198139502143 0 0  0.9246101326867038 0 0  0.9882218810934433 0 0  1.054135445558498 0 0  1.122434100542598 0 0  1.193204177141305 0 0  1.266535089879536 0 0  1.342519516046404 0 0  1.421253448503939 0 0  1.502836389106271 0 0  1.587371439758838 0 0  1.674965418777374 0 0  1.765729001825544 0 0  1.859776908880082 0 0  1.957227977487062 0 0  2.058205329869943 0 0  2.162836591189951 0 0  2.271253957290865 0 0  2.383594446803425 0 0  2.5 0.1024999999997612 0  2.5 0.2049999999994743 0  2.5 0.3074999999997183 0  2.383594446803656 0.41 0  2.271253957291315 0.41 0  2.162836591190598 0.41 0  2.058205329870775 0.41 0  1.957227977488067 0.41 0  1.859776908881246 0.41 0  1.765729001826854 0.41 0  1.674965418778818 0.41 0  1.58737143976041 0.41 0  1.502836389107956 0.41 0  1.421253448505726 0.41 0  1.342519516048286 0.41 0  1.266535089881505 0.41 0  1.193204177143353 0.41 0  1.122434100544716 0.41 0  1.05413544556068 0.41 0  0.9882218810956305 0.41 0  0.9246101326886647 0.41 0  0.8632198139519631 0.41 0  0.8039733463934788 0.41 0  0.7467958595662458 0.41 0  0.6916151138480078 0.41 0  0.6383613676644679 0.41 0  0.5869673343225223 0.41 0  0.5373680609412221 0.41 0  0.4895008759292634 0.41 0  0.4433053055145528 0.41 0  0.3987229542475914 0.41 0  0.3556974926297398 0.41 0  0.3141745521466497 0.41 0  0.2741016576310038 0.41 0  0.2354281840915826 0.41 0  0.1981052433265003 0.41 0  0.1620856860352591 0.41 0  0.1273239957535623 0.41 0  0.09377624077128965 0.41 0  0.06140001986584975 0.41 0  0.03015443760436654 0.41 0  0.2497468076502589 0.2050254481002335 0  0.2497468076502614 0.1949745518997913 0  0.2469965252529372 0.1829317073451959 0  0.2439893735792749 0.1762316384219906 0  0.2400332147834255 0.1700443375285386 0  0.2352133972704371 0.1645032867342007 0  0.2296339016332438 0.1597280261969788 0  0.2234150974217223 0.1558215752574715 0  0.2166911463437691 0.1528682099456123 0  0.2096071079204251 0.1509316448471593 0  0.2023158100364996 0.1500536585536553 0  0.194974551899914 0.1502531923497262 0  0.1877417105387872 0.1515259415822739 0  0.1807733240461124 0.153844448527136 0  0.1742197252835808 0.15715869474974 0  0.1682222986673531 0.1613971801805478 0  0.162910430003803 0.1664684656256651 0  0.1583987151779087 0.1722631454351573 0  0.1547844879126891 0.178656207771761 0  0.1521457199348551 0.1855097315605723 0  0.1505393388476355 0.1926758619366523 0  0.1505393388476328 0.2073241380633295 0  0.1521457199348437 0.2144902684393899 0  0.1547844879126531 0.221343792228163 0  0.1583987151778488 0.2277368545647528 0  0.1629104300036858 0.2335315343742052 0  0.1682222986671726 0.2386028198193036 0  0.1742197252833576 0.2428413052501257 0  0.1807733240458683 0.2461555514727623 0  0.1877417105384929 0.2484740584176516 0  0.1949745518995776 0.2497468076502398 0  0.202315810036185 0.2499463414463592 0  0.2096071079201568 0.2490683551528932 0  0.2166911463435495 0.2471317900544655 0  0.2234150974215506 0.2441784247426195 0  0.2296339016331197 0.2402719738031125 0  0.2352133972703547 0.2354967132658811 0  0.2400332147833751 0.2299556624715287 0  0.2439893735792577 0.2237683615780412 0  0.246996525252926 0.2170682926548348 0  0.25645809709277 0.21 0  0.2639263993298655 0.21 0  0.271394701566961 0.21 0  0.2788630038040554 0.21 0  0.2863313060411479 0.21 0  0.2937996082782405 0.21 0  0.301267910515333 0.21 0  0.3087362127524279 0.21 0  0.3162045149895234 0.21 0  0.3236728172265972 0.21 0  0.3311411194636928 0.21 0  0.3386094217007701 0.21 0  0.3460777239378666 0.21 0  0.3535460261749672 0.21 0  0.3610143284120516 0.21 0  0.3684826306491596 0.21 0  0.3759509328862226 0.21 0  0.383419235123329 0.21 0  0.3908875373604028 0.21 0  0.3983558395975142 0.21 0  0.4058241418345938 0.21 0  0.4132924440716992 0.21 0  0.4207607463087888 0.21 0  0.4282290485459029 0.21 0  0.4356973507830418 0.21 0  0.4431656530201649 0.21 0  0.4506339552573136 0.21 0  0.4581022574944306 0.21 0  0.4655705597315852 0.21 0  0.4730388619686996 0.21 0  0.480507164205851 0.21 0  0.4879754664429498 0.21 0  0.4954437686800938 0.21 0  0.502912070917267 0.21 0  0.5103803731544119 0.21 0  0.5178486753915261 0.21 0  0.5253169776286404 0.21 0  0.5327852798657868 0.21 0  0.5402535821029386 0.21 0  0.54772188434007 0.21 0  0.5551901865771842 0.21 0  0.5626584888143201 0.21 0  0.5701267910514778 0.21 0  0.5775950932886138 0.21 0  0.5850633955257281 0.21 0  0.5925316977628483 0.21 0  0.6 0.2050000000000054 0  0.6 0.1950000000000217 0  0.5925316977628897 0.19 0  0.5850633955257988 0.19 0  0.5775950932887378 0.19 0  0.5701267910515998 0.19 0  0.5626584888145268 0.19 0  0.5551901865773963 0.19 0  0.547721884340339 0.19 0  0.5402535821032429 0.19 0  0.5327852798661811 0.19 0  0.5253169776290537 0.19 0  0.5178486753919799 0.19 0  0.5103803731549078 0.19 0  0.502912070917822 0.19 0  0.4954437686807294 0.19 0  0.4879754664436223 0.19 0  0.4805071642065402 0.19 0  0.4730388619694271 0.19 0  0.4655705597323621 0.19 0  0.4581022574952563 0.19 0  0.4506339552581777 0.19 0  0.4431656530210671 0.19 0  0.4356973507839815 0.19 0  0.4282290485468779 0.19 0  0.4207607463097617 0.19 0  0.4132924440726327 0.19 0  0.4058241418354857 0.19 0  0.3983558395983636 0.19 0  0.3908875373612097 0.19 0  0.3834192351240934 0.19 0  0.3759509328869369 0.19 0  0.3684826306498175 0.19 0  0.361014328412667 0.19 0  0.3535460261755617 0.19 0  0.3460777239384295 0.19 0  0.3386094217012945 0.19 0  0.3311411194641595 0.19 0  0.3236728172270245 0.19 0  0.3162045149898895 0.19 0  0.3087362127527544 0.19 0  0.3012679105156187 0.19 0  0.2937996082784807 0.19 0  0.2863313060413428 0.19 0  0.2788630038042048 0.19 0  0.2713947015670686 0.19 0  0.2639263993299336 0.19 0  0.2564580970927985 0.19 0  0.2607803159922026 0.2000727136295815 0  0.5887803774232762 0.2001272386983733 0  0.5745072403740523 0.2002044435018727 0  0.5511891430099709 0.2001122610077113 0  0.2751288526855082 0.20000000000002 0  0.5365194309847112 0.1999999999999436 0  0.2894621222999649 0.1998691686390484 0  0.5215828265105155 0.1999999999999228 0  0.3127789816668748 0.1998657885438805 0  0.3274069683451451 0.2000000000000796 0  0.5066462220363641 0.199999999999908 0  0.3650630746574081 0.199866017807523 0  0.476773013087985 0.1999999999998713 0  0.3417402379596385 0.1998691686391011 0  0.3796850840047755 0.200000000000134 0  0.4618364086138087 0.1999999999998546 0  0.4917096175621762 0.1999999999998808 0  0.3946216884789568 0.2000000000001512 0  0.446899804139621 0.1999999999998389 0  0.4089549580935208 0.1998691686391595 0  0.4322718174608562 0.200127451265745 0  0.4201487168029707 0.1999966199048527 0  0.3528922713220932 0.2000185703532356 0  0.5633122436674589 0.1999814296467508 0  0.3006558810093873 0.1999966199048318 0  0.5815926498168407 0.1966545283159175 0  0.2677053789419034 0.1964246479135325 0  0.5290511287476175 0.1970915826863981 0  0.5439877332217911 0.197091582686394 0  0.2825131256993216 0.2035478995978015 0  0.3199386661080599 0.202908417313604 0  0.4842413153250809 0.1970915826863873 0  0.5141145242734466 0.1970915826863843 0  0.3722167817676917 0.2029084173136195 0  0.4693047108508938 0.1970915826863783 0  0.3348752705822316 0.202908417313609 0  0.3871533862418661 0.2029084173136212 0  0.4543681063767183 0.1970915826863795 0  0.4991779197992749 0.1970915826863902 0  0.4020059614928624 0.203547899597858 0  0.4394315019025246 0.1970915826863714 0  0.2550657455369551 0.2034088125358657 0  0.2548908499171161 0.1966940311614271 0  0.5946539510196798 0.2024302972968126 0  0.267698176732111 0.2039977513680092 0  0.4261685417851465 0.196409292431739 0  0.3590076176283495 0.196411355804271 0  0.5571672426447437 0.2036011176410121 0  0.3066757059912147 0.1964092924317024 0  0.594380730180568 0.1966558399668133 0  0.4842413153245942 0.2040749161535287 0  0.4693047108503577 0.2040749161535231 0  0.3871533862424271 0.1959250838464788 0  0.372246743208829 0.1959123236376545 0  0.5141145242731028 0.2040749161535395 0  0.4543681063761134 0.2040749161535186 0  0.4019979587101454 0.1959834479682427 0  0.4394608940728603 0.2040870543693135 0  0.5439623148931173 0.2040856076781014 0  0.5290511287473298 0.2040749161535501 0  0.4991779197988497 0.2040749161535382 0  0.3347912413592433 0.1959225448935183 0  0.3199680582793816 0.1959123018030061 0  0.2825051229162361 0.1959834479681729 0  0.3590471196690275 0.2036304442587945 0  0.5571594006495384 0.1963685282145804 0  0.3067669986803285 0.203627750582736 0  0.4262598344738712 0.2036568242185335 0  0.5814408164431408 0.2041285596160068 0  0.5688286748170428 0.1961819304477386 0  0.4145905603063645 0.2038180695522843 0  0.3473758401724931 0.2038180695522752 0  0.2950977245128307 0.2038180695522663 0  0.5688286748170693 0.203818069552238 0  0.2950977245127906 0.1961819304477774 0  0.3473758401723931 0.1961819304478349 0  0.4145905603061963 0.1961819304479011 0  0.2601812407614425 0.2056861609747042
[...]
<PointData  Vectors="f_40-1"> 
<DataArray  type="Float64"  Name="f_40-1"  NumberOfComponents="3" format="ascii">0.0000000000000000e+00 0.0000000000000000e+00 0.0000000000000000e+00  0.0000000000000000e+00 0.0000000000000000e+00 0.0000000000000000e+00  0.0000000000000000e+00 0.0000000000000000e+00 0.0000000000000000e+00  0.0000000000000000e+00 0.0000000000000000e+00 0.0000000000000000e+00  -1.7942695927213272e-05 -5.2928189508217205e-04 0.0000000000000000e+00  2.3579840201062335e-05 -5.3328631521928308e-04 0.0000000000000000e+00  0.0000000000000000e+00 0.0000000000000000e+00 0.0000000000000000e+00  0.0000000000000000e+00 0.0000000000000000e+00 0.0000000000000000e+00  0.0000000000000000e+00 0.0000000000000000e+00 0.0000000000000000e+00  0.0000000000000000e+00 0.0000000000000000e+00 0.0000000000000000e+00  2.4575206884871564e-06 -5.3127803118161441e-04 0.0000000000000000e+00  0.0000000000000000e+00 0.0000000000000000e+00 0.0000000000000000e+00  0.0000000000000000e+00 0.0000000000000000e+00 0.0000000000000000e+00  0.0000000000000000e+00 0.0000000000000000e+00 0.0000000000000000e+00  0.0000000000000000e+00 0.0000000000000000e+00 0.0000000000000000e+00  0.0000000000000000e+00 0.0000000000000000e+00 0.0000000000000000e+00  0.0000000000000000e+00 0.0000000000000000e+00 0.0000000000000000e+00  0.0000000000000000e+00 0.0000000000000000e+00 0.0000000000000000e+00  0.0000000000000000e+00 0.0000000000000000e+00 0.0000000000000000e+00  0.0000000000000000e+00 0.0000000000000000e+00 0.0000000000000000e+00  0.0000000000000000e+00 0.0000000000000000e+00 0.0000000000000000e+00  0.0000000000000000e+00 0.0000000000000000e+00 0.0000000000000000e+00  0.0000000000000000e+00 0.0000000000000000e+00 0.0000000000000000e+00  0.0000000000000000e+00 0.0000000000000000e+00 0.0000000000000000e+00  0.0000000000000000e+00 0.0000000000000000e+00 0.0000000000000000e+00  0.0000000000000000e+00 0.0000000000000000e+00 0.0000000000000000e+00  0.0000000000000000e+00 0.0000000000000000e+00 0.0000000000000000e+00  0.0000000000000000e+00 0.0000000000000000e+00 0.0000000000000000e+00  0.0000000000000000e+00 0.0000000000000000e+00 0.0000000000000000e+00  0.0000000000000000e+00 0.0000000000000000e+00 0.0000000000000000e+00  0.0000000000000000e+00 0.0000000000000000e+00 0.0000000000000000e+00  0.0000000000000000e+00 0.0000000000000000e+00 0.0000000000000000e+00  0.0000000000000000e+00 0.0000000000000000e+00 0.0000000000000000e+00  0.0000000000000000e+00 0.0000000000000000e+00 0.0000000000000000e+00  0.0000000000000000e+00 0.0000000000000000e+00 0.0000000000000000e+00  0.0000000000000000e+00 0.0000000000000000e+00 0.0000000000000000e+00  0.0000000000000000e+00 0.0000000000000000e+00 0.0000000000000000e+00  0.0000000000000000e+00 0.0000000000000000e+00 0.0000000000000000e+00  0.0000000000000000e+00 0.0000000000000000e+00 0.0000000000000000e+00  0.0000000000000000e+00 0.0000000000000000e+00 0.0000000000000000e+00  0.0000000000000000e+00 0.0000000000000000e+00 0.0000000000000000e+00  0.0000000000000000e+00 0.0000000000000000e+00 0.0000000000000000e+00  0.0000000000000000e+00 0.0000000000000000e+00 0.0000000000000000e+00  0.0000000000000000e+00 0.0000000000000000e+00 0.0000000000000000e+00  0.0000000000000000e+00 0.0000000000000000e+00 0.0000000000000000e+00  0.0000000000000000e+00 0.0000000000000000e+00 0.0000000000000000e+00  0.0000000000000000e+00 0.0000000000000000e+00 0.0000000000000000e+00  0.0000000000000000e+00 0.0000000000000000e+00 0.0000000000000000e+00  0.0000000000000000e+00 0.0000000000000000e+00 0.0000000000000000e+00  0.0000000000000000e+00 0.0000000000000000e+00 0.0000000000000000e+00  0.0000000000000000e+00 0.0000000000000000e+00 0.0000000000000000e+00  0.0000000000000000e+00 0.0000000000000000e+00 0.0000000000000000e+00  0.0000000000000000e+00 0.0000000000000000e+00 0.0000000000000000e+00  0.0000000000000000e+00 0.0000000000000000e+00 0.0000000000000000e+00  0.0000000000000000e+00 0.0000000000000000e+00 0.0000000000000000e+00  0.0000000000000000e+00 0.0000000000000000e+00 0.0000000000000000e+00  0.0000000000000000e+00 0.0000000000000000e+00 0.0000000000000000e+00  0.0000000000000000e+00 0.0000000000000000e+00 0.0000000000000000e+00  0.0000000000000000e+00 0.0000000000000000e+00 0.0000000000000000e+00  0.0000000000000000e+00 0.0000000000000000e+00 0.0000000000000000e+00  0.0000000000000000e+00 0.0000000000000000e+00 0.0000000000000000e+00  0.0000000000000000e+00 0.0000000000000000e+00 0.0000000000000000e+00  0.0000000000000000e+00 0.0000000000000000e+00 0.0000000000000000e+00  0.0000000000000000e+00 0.0000000000000000e+00 0.0000000000000000e+00  0.0000000000000000e+00 0.0000000000000000e+00 0.0000000000000000e+00  0.0000000000000000e+00 0.0000000000000000e+00 0.0000000000000000e+00  0.0000000000000000e+00 0.0000000000000000e+00 0.0000000000000000e+00  0.0000000000000000e+00 0.0000000000000000e+00 0.0000000000000000e+00  0.0000000000000000e+00 0.0000000000000000e+00 0.0000000000000000e+00  0.0000000000000000e+00 0.0000000000000000e+00 0.0000000000000000e+00  0.0000000000000000e+00 0.0000000000000000e+00 0.0000000000000000e+00  0.0000000000000000e+00 0.0000000000000000e+00 0.0000000000000000e+00  0.0000000000000000e+00 0.0000000000000000e+00 0.0000000000000000e+00  0.0000000000000000e+00 0.0000000000000000e+00 0.0000000000000000e+00  0.0000000000000000e+00 0.0000000000000000e+00 0.0000000000000000e+00  0.0000000000000000e+00 0.0000000000000000e+00 0.0000000000000000e+00  0.0000000000000000e+00 0.0000000000000000e+00 0.0000000000000000e+00  0.0000000000000000e+00 0.0000000000000000e+00 0.0000000000000000e+00  0.0000000000000000e+00 0.0000000000000000e+00 0.0000000000000000e+00  0.0000000000000000e+00 0.0000000000000000e+00 0.0000000000000000e+00  0.0000000000000000e+00 0.0000000000000000e+00 0.0000000000000000e+00  0.0000000000000000e+00 0.0000000000000000e+00 0.0000000000000000e+00  0.0000000000000000e+00 0.0000000000000000e+00 0.0000000000000000e+00  0.0000000000000000e+00 0.0000000000000000e+00 0.0000000000000000e+00  0.0000000000000000e+00 0.0000000000000000e+00 0.0000000000000000e+00  0.0000000000000000e+00 0.0000000000000000e+00 0.0000000000000000e+00  0.0000000000000000e+00 0.0000000000000000e+00 0.0000000000000000e+00  0.0000000000000000e+00 0.0000000000000000e+00 0.0000000000000000e+00  0.0000000000000000e+00 0.0000000000000000e+00 0.0000000000000000e+00  0.0000000000000000e+00 0.0000000000000000e+00 0.0000000000000000e+00  0.0000000000000000e+00 0.0000000000000000e+00 0.0000000000000000e+00  0.0000000000000000e+00 0.0000000000000000e+00 0.0000000000000000e+00  0.0000000000000000e+00 0.0000000000000000e+00 0.0000000000000000e+00  0.0000000000000000e+00 0.0000000000000000e+00 0.0000000000000000e+00  0.0000000000000000e+00 0.0000000000000000e+00 0.0000000000000000e+00  0.0000000000000000e+00 0.0000000000000000e+00 0.0000000000000000e+00  0.0000000000000000e+00 0.0000000000000000e+00 0.0000000000000000e+00  0.0000000000000000e+00 0.0000000000000000e+00 0.0000000000000000e+00  0.0000000000000000e+00 0.0000000000000000e+00 0.0000000000000000e+00  0.0000000000000000e+00 0.0000000000000000e+00 0.0000000000000000e+00  0.0000000000000000e+00 0.0000000000000000e+00 0.0000000000000000e+00  0.0000000000000000e+00 0.0000000000000000e+00 0.0000000000000000e+00  0.0000000000000000e+00 0.0000000000000000e+00 0.0000000000000000e+00  0.0000000000000000e+00 0.0000000000000000e+00 0.0000000000000000e+00  0.0000000000000000e+00 0.0000000000000000e+00 0.0000000000000000e+00  0.0000000000000000e+00 0.0000000000000000e+00 0.0000000000000000e+00  0.0000000000000000e+00 0.0000000000000000e+00 0.0000000000000000e+00  0.0000000000000000e+00 0.0000000000000000e+00 0.0000000000000000e+00  0.0000000000000000e+00 0.0000000000000000e+00 0.0000000000000000e+00  0.0000000000000000e+00 0.0000000000000000e+00 0.0000000000000000e+00  0.0000000000000000e+00 0.0000000000000000e+00 0.0000000000000000e+00  0.0000000000000000e+00 0.0000000000000000e+00 0.0000000000000000e+00  0.0000000000000000e+00 0.0000000000000000e+00 0.0000000000000000e+00  0.0000000000000000e+00 0.0000000000000000e+00 0.0000000000000000e+00  0.0000000000000000e+00 0.0000000000000000e+00 0.0000000000000000e+00  0.0000000000000000e+00 0.0000000000000000e+00 0.0000000000000000e+00  0.0000000000000000e+00 0.0000000000000000e+00 0.0000000000000000e+00  0.0000000000000000e+00 0.0000000000000000e+00 0.0000000000000000e+00  0.0000000000000000e+00 0.0000000000000000e+00 0.0000000000000000e+00  0.0000000000000000e+00 0.0000000000000000e+00 0.0000000000000000e+00  0.0000000000000000e+00 0.0000000000000000e+00 0.0000000000000000e+00  0.0000000000000000e+00 0.0000000000000000e+00 0.0000000000000000e+00  0.0000000000000000e+00 0.0000000000000000e+00 0.0000000000000000e+00  0.0000000000000000e+00 0.0000000000000000e+00 0.0000000000000000e+00  0.0000000000000000e+00 0.0000000000000000e+00 0.0000000000000000e+00  0.0000000000000000e+00 0.0000000000000000e+00 0.0000000000000000e+00  0.0000000000000000e+00 0.0000000000000000e+00 0.0000000000000000e+00  0.0000000000000000e+00 0.0000000000000000e+00 0.0000000000000000e+00  0.0000000000000000e+00 0.0000000000000000e+00 0.0000000000000000e+00  0.0000000000000000e+00 0.0000000000000000e+00 0.0000000000000000e+00  0.0000000000000000e+00 0.0000000000000000e+00 0.0000000000000000e+00  0.0000000000000000e+00 0.0000000000000000e+00 0.0000000000000000e+00  0.0000000000000000e+00 0.0000000000000000e+00 0.0000000000000000e+00  0.0000000000000000e+00 0.0000000000000000e+00 0.0000000000000000e+00  0.0000000000000000e+00 0.0000000000000000e+00 0.0000000000000000e+00  0.0000000000000000e+00 0.0000000000000000e+00 0.0000000000000000e+00  0.0000000000000000e+00 0.0000000000000000e+00 0.0000000000000000e+00  0.0000000000000000e+00 0.0000000000000000e+00 0.0000000000000000e+00  0.0000000000000000e+00 0.0000000000000000e+00 0.0000000000000000e+00  0.0000000000000000e+00 0.0000000000000000e+00 0.0000000000000000e+00  0.0000000000000000e+00 0.0000000000000000e+00 0.0000000000000000e+00  0.0000000000000000e+00 0.0000000000000000e+00 0.0000000000000000e+00  0.0000000000000000e+00 0.0000000000000000e+00 0.0000000000000000e+00  1.0683146444261615e-06 -4.0820452867608086e-06 0.0000000000000000e+00  2.4135914362820505e-06 -5.3953918017320942e-06 0.0000000000000000e+00  3.8641450321289149e-06 -7.2879603158696594e-06 0.0000000000000000e+00  5.5333712652390408e-06 -9.8659597046567694e-06 0.0000000000000000e+00  7.0922581537880168e-06 -1.3173925841819213e-05 0.0000000000000000e+00  8.8193239381016149e-06 -1.7288071755059622e-05 0.0000000000000000e+00  1.0345655165739669e-05 -2.2005196976832337e-05 0.0000000000000000e+00  1.1869242179397512e-05 -2.7529392276005007e-05 0.0000000000000000e+00  1.3549769915210782e-05 -3.3677434712060297e-05 0.0000000000000000e+00  1.4981379639873004e-05 -4.0485318139502809e-05 0.0000000000000000e+00  1.6606853612129518e-05 -4.7956250256443694e-05 0.0000000000000000e+00  1.7968225243633673e-05 -5.6037659273952595e-05 0.0000000000000000e+00  1.9465515955281538e-05 -6.4723817823463569e-05 0.0000000000000000e+00  2.0754468974978692e-05 -7.3899317845357339e-05 0.0000000000000000e+00  2.1996327719504512e-05 -8.3681960523364989e-05 0.0000000000000000e+00  2.3313144951666222e-05 -9.3930128611838183e-05 0.0000000000000000e+00  2.4397454482798601e-05 -1.0463695602842286e-04 0.0000000000000000e+00  2.5566820310743803e-05 -1.1582794265916857e-04 0.0000000000000000e+00  2.6507710346766860e-05 -1.2740301949735780e-04 0.0000000000000000e+00  2.7502176500837754e-05 -1.3939034135908282e-04 0.0000000000000000e+00  2.8316763701859542e-05 -1.5171817182593053e-04 0.0000000000000000e+00  2.9124913481297834e-05 -1.6441419925448475e-04 0.0000000000000000e+00  2.9784209658032575e-05 -1.7736492827938387e-04 0.0000000000000000e+00  3.0363814450024099e-05 -1.9063906176661823e-04 0.0000000000000000e+00  3.0938266986350225e-05 -2.0414391946606619e-04 0.0000000000000000e+00  3.1371520282219266e-05 -2.1788092916768791e-04 0.0000000000000000e+00  3.1745199303763843e-05 -2.3187231909077213e-04 0.0000000000000000e+00  3.2019455534766869e-05 -2.4601117894214970e-04 0.0000000000000000e+00  3.2231136623104652e-05 -2.6037197044862399e-04 0.0000000000000000e+00  3.2350208330130680e-05 -2.7484710427957775e-04 0.0000000000000000e+00  3.2404742677419438e-05 -2.8950813394747654e-04 0.0000000000000000e+00  3.2370583244929502e-05 -3.0425103815690918e-04 0.0000000000000000e+00  3.2273189006867856e-05 -3.1914870969710127e-04 0.0000000000000000e+00  3.2089881710421644e-05 -3.3409727550576647e-04 0.0000000000000000e+00  3.1840022835731000e-05 -3.4917761695234110e-04 0.0000000000000000e+00  3.1511941417828252e-05 -3.6428687461347568e-04 0.0000000000000000e+00  3.1119196859897596e-05 -3.7950079159520855e-04 0.0000000000000000e+00  3.0651505141596543e-05 -3.9472464008349320e-04 0.0000000000000000e+00  3.0117282911663263e-05 -4.1003353266600600e-04 0.0000000000000000e+00  2.9508950697114870e-05 -4.2533661015806015e-04 0.0000000000000000e+00  2.8826850839019019e-05 -4.4069598444529948e-04 0.0000000000000000e+00  2.8087098682608235e-05 -4.5605809437609729e-04 0.0000000000000000e+00  2.7270608203150205e-05 -4.7144492269382760e-04 0.0000000000000000e+00  2.6414380281390909e-05 -4.8683994235587018e-04 0.0000000000000000e+00  2.5477290618184435e-05 -5.0221994392115026e-04 0.0000000000000000e+00  2.4505882457979143e-05 -5.1765131829719551e-04 0.0000000000000000e+00  1.2889265216672642e-05 -5.3228129064979287e-04 0.0000000000000000e+00  -7.8560798806938622e-06 -5.3028080418437366e-04 0.0000000000000000e+00  -1.6995129184842412e-05 -5.1390384470333594e-04 0.0000000000000000e+00  -1.5992193113264558e-05 -4.9834526046021327e-04 0.0000000000000000e+00  -1.5025035722163974e-05 -4.8276194376277475e-04 0.0000000000000000e+00  -1.4123023787544237e-05 -4.6721567961276043e-04 0.0000000000000000e+00  -1.3261383013068316e-05 -4.5168139146795175e-04 0.0000000000000000e+00  -1.2467735306628412e-05 -4.3616886382152209e-04 0.0000000000000000e+00  -1.1707812120928217e-05 -4.2068714625500419e-04 0.0000000000000000e+00  -1.1017062222051845e-05 -4.0521322912697453e-04 0.0000000000000000e+00  -1.0361799857524165e-05 -3.8980895829431489e-04 0.0000000000000000e+00  -9.7699115206733562e-06 -3.7441288416449907e-04 0.0000000000000000e+00  -9.2039426978390423e-06 -3.5910396862789035e-04 0.0000000000000000e+00  -8.7052803512056603e-06 -3.4382336919174330e-04 0.0000000000000000e+00  -8.2226345134027404e-06 -3.2865153152424075e-04 0.0000000000000000e+00  -7.8103887641639408e-06 -3.1353227167141826e-04 0.0000000000000000e+00  -7.4016010373304867e-06 -2.9854372085378863e-04 0.0000000000000000e+00  -7.0699126827983183e-06 -2.8363493107523357e-04 0.0000000000000000e+00  -6.7288591614283781e-06 -2.6888388021599816e-04 0.0000000000000000e+00  -6.4723840948981634e-06 -2.5424445040387521e-04 0.0000000000000000e+00  -6.1917006929325773e-06 -2.3979685034485745e-04 0.0000000000000000e+00  -6.0028775911170806e-06 -2.2549803649298987e-04 0.0000000000000000e+00  -5.7706878296084164e-06 -2.1142618891999780e-04 0.0000000000000000e+00  -5.6391835905526688e-06 -1.9754665039998040e-04 0.0000000000000000e+00  -5.4577970317447220e-06 -1.8392778792938438e-04 0.0000000000000000e+00  -5.3558719599530572e-06 -1.7054113439412776e-04 0.0000000000000000e+00  -5.2839009828562240e-06 -1.5749030242406445e-04 0.0000000000000000e+00  -5.1419550480167235e-06 -1.4469269645161554e-04 0.0000000000000000e+00  -5.0741821477473009e-06 -1.3226016471324850e-04 0.0000000000000000e+00  -4.9695966238536101e-06 -1.2019712246016477e-04 0.0000000000000000e+00  -4.9114561459021976e-06 -1.0852334215419822e-04 0.0000000000000000e+00  -4.8129042175630580e-06 -9.7283235375452944e-05 0.0000000000000000e+00  -4.7543194656482268e-06 -8.6473572825974409e-05 0.0000000000000000e+00  -4.5973099857868810e-06 -7.6211167997864053e-05 0.0000000000000000e+00  -4.5471401160912258e-06 -6.6373770735796307e-05 0.0000000000000000e+00  -4.4932488037621769e-06 -5.7172755489712477e-05 0.0000000000000000e+00  -4.2940007137147986e-06 -4.8427484583475948e-05 0.0000000000000000e+00  -4.1631232980071469e-06 -4.0347976039206019e-05 0.0000000000000000e+00  -3.9512804398912570e-06 -3.2876970905224824e-05 0.0000000000000000e+00  -3.7795991380856366e-06 -2.6044231127335607e-05 0.0000000000000000e+00  -3.4584819446152616e-06 -1.9952503530616171e-05 0.0000000000000000e+00  -3.2723605312707650e-06 -1.4439685018197543e-05 0.0000000000000000e+00  -3.0706821892606195e-06 -9.7517778633182153e-06 0.0000000000000000e+00  -2.6761090399856926e-06 -5.6489810645650273e-06 0.0000000000000000e+00  -2.3909901994101568e-06 -2.3214103888054740e-06 0.0000000000000000e+00  -1.9127374187104475e-06 2.5118137238178391e-07 0.0000000000000000e+00  -1.4815453933973831e-06 1.9610376536289106e-06 0.0000000000000000e+00  -7.3281449201436975e-07 2.7310175627315863e-06 0.0000000000000000e+00  -2.9964388879719027e-07 -6.8078019978326923e-07 0.0000000000000000e+00  4.3696177627947502e-06 -5.0800959620316704e-04 0.0000000000000000e+00  6.4299241811809106e-06 -4.7843271315167160e-04 0.0000000000000000e+00  8.7472856006474148e-06 -4.3017466573012897e-04 0.0000000000000000e+00  1.2426908830306645e-06 -4.2229790161711745e-06 0.0000000000000000e+00  9.7856737304783555e-06 -3.9991206884664615e-04 0.0000000000000000e+00  2.4185009242877119e-06 -1.0501473646823477e-05 0.0000000000000000e+00  1.0853726001685326e-05 -3.6927934341809298e-04 0.0000000000000000e+00  4.4363220365685371e-06 -2.6472544697343013e-05 0.0000000000000000e+00  5.8451222262379554e-06 -3.9932656152184374e-05 0.0000000000000000e+00  1.1690098484549222e-05 -3.3887467442962485e-04 0.0000000000000000e+00  8.7892297156783810e-06 -8.5066989570664318e-05 0.0000000000000000e+00  1.2679299755864524e-05 -2.7911199113716796e-04 0.0000000000000000e+00  6.9413576125394339e-06 -5.5370773457692797e-05 0.0000000000000000e+00  1.0016921002187871e-05 -1.0623081436316893e-04 0.0000000000000000e+00  1.2837615581597023e-05 -2.4997374992133175e-04 0.0000000000000000e+00  1.2297820815162862e-05 -3.0878512639314259e-04 0.0000000000000000e+00  1.0946810846037310e-05 -1.2951516455915281e-04 0.0000000000000000e+00  1.2775275025671401e-05 -2.2150813889387449e-04 0.0000000000000000e+00  1.1466294949334111e-05 -1.5323824191171740e-04 0.0000000000000000e+00  1.2745886692468180e-05 -1.9446862356118310e-04 0.0000000000000000e+00  1.2118890379569204e-05 -1.7273413348230782e-04 0.0000000000000000e+00  8.0306646135983503e-06 -6.9057557401010276e-05 0.0000000000000000e+00  7.2227617622165555e-06 -4.5520864544573318e-04 0.0000000000000000e+00  3.4622646793701752e-06 -1.7469905640328066e-05 0.0000000000000000e+00  -1.8320249828466660e-06 -4.9242536852766423e-04 0.0000000000000000e+00  -3.4640336476530777e-07 -7.1603866664380473e-07 0.0000000000000000e+00  4.3954912193969477e-06 -3.8384972848169594e-04 0.0000000000000000e+00  3.1793132716548756e-06 -4.1460484510485969e-04 0.0000000000000000e+00  3.4347680242434290e-06 -8.5558399619154265e-06 0.0000000000000000e+00  7.8308189991652253e-06 -3.3934880113672362e-05 0.0000000000000000e+00  6.7570819688082760e-06 -2.9305896717683435e-04 0.0000000000000000e+00  5.3941493580044184e-06 -3.5328390679093615e-04 0.0000000000000000e+00  1.3667914048924725e-05 -9.6340371156130924e-05 0.0000000000000000e+00  7.1335100996125444e-06 -2.6360267337449650e-04 0.0000000000000000e+00  9.6125809442620504e-06 -4.8883862620965014e-05 0.0000000000000000e+00  1.5000324471280667e-05 -1.1876329169935990e-04 0.0000000000000000e+00  7.3138693226524964e-06 -2.3474962946817721e-04 0.0000000000000000e+00  6.1790400909133150e-06 -3.2298887854673543e-04 0.0000000000000000e+00  1.7192961086430903e-05 -1.4289638996062924e-04 0.0000000000000000e+00  7.3050340602780384e-06 -2.0664483470856789e-04 0.0000000000000000e+00  -3.9096890457256998e-07 -9.3530598732934968e-07 0.0000000000000000e+00  -6.8831117027564761e-07 6.4737925946472545e-07 0.0000000000000000e+00  8.2933271465358304e-06 -5.2063370808124267e-04 0.0000000000000000e+00  1.5205633030174257e-06 -3.68