<?xml version="1.0"?>
<VTKFile type="UnstructuredGrid"  version="0.1"  >
<UnstructuredGrid>
<Piece  NumberOfPoints="1419" NumberOfCells="2698">
<Points>
<DataArray  type="Float64"  NumberOfComponents="3"  format="ascii">0 0 0  0 0.41 0  2.5 0 0  2.5 0.41 0  0.6 0.19 0  0.6 0.21 0  0.25 0.2 0  0.15 0.2 0  0.2489897948556636 0.21 0  0.2489897948556636 0.19 0  0.6 0.2 0  0 0.3807142857143437 0  0 0.3514285714286952 0  0 0.3221428571430699 0  0 0.29285714285744 0  0 0.2635714285718054 0  0 0.2342857142861561 0  0 0.2050000000005308 0  0 0.175714285714732 0  0 0.1464285714289574 0  0 0.1171428571431897 0  0 0.08785714285737878 0  0 0.05857142857161107 0  0 0.02928571428580012 0  0.03015443760436003 0 0  0.06140001986583606 0 0  0.09377624077125973 0 0  0.1273239957535082 0 0  0.1620856860351972 0 0  0.1981052433264291 0 0  0.235428184091502 0 0  0.2741016576309132 0 0  0.3141745521465447 0 0  0.3556974926295285 0 0  0.3987229542472677 0 0  0.4433053055141081 0 0  0.4895008759286886 0 0  0.5373680609405097 0 0  0.5869673343216626 0 0  0.6383613676634521 0 0  0.6916151138468254 0 0  0.7467958595648856 0 0  0.8039733463919316 0 0  0.8632198139502143 0 0  0.9246101326867038 0 0  0.9882218810934433 0 0  1.054135445558498 0 0  1.122434100542598 0 0  1.193204177141305 0 0  1.266535089879536 0 0  1.342519516046404 0 0  1.421253448503939 0 0  1.502836389106271 0 0  1.587371439758838 0 0  1.674965418777374 0 0  1.765729001825544 0 0  1.859776908880082 0 0  1.957227977487062 0 0  2.058205329869943 0 0  2.162836591189951 0 0  2.271253957290865 0 0  2.383594446803425 0 0  2.5 0.1024999999997612 0  2.5 0.2049999999994743 0  2.5 0.3074999999997183 0  2.383594446803656 0.41 0  2.271253957291315 0.41 0  2.162836591190598 0.41 0  2.058205329870775 0.41 0  1.957227977488067 0.41 0  1.859776908881246 0.41 0  1.765729001826854 0.41 0  1.674965418778818 0.41 0  1.58737143976041 0.41 0  1.502836389107956 0.41 0  1.421253448505726 0.41 0  1.342519516048286 0.41 0  1.266535089881505 0.41 0  1.193204177143353 0.41 0  1.122434100544716 0.41 0  1.05413544556068 0.41 0  0.9882218810956305 0.41 0  0.9246101326886647 0.41 0  0.8632198139519631 0.41 0  0.8039733463934788 0.41 0  0.7467958595662458 0.41 0  0.6916151138480078 0.41 0  0.6383613676644679 0.41 0  0.5869673343225223 0.41 0  0.5373680609412221 0.41 0  0.4895008759292634 0.41 0  0.4433053055145528 0.41 0  0.3987229542475914 0.41 0  0.3556974926297398 0.41 0  0.3141745521466497 0.41 0  0.2741016576310038 0.41 0  0.2354281840915826 0.41 0  0.1981052433265003 0.41 0  0.1620856860352591 0.41 0  0.1273239957535623 0.41 0  0.09377624077128965 0.41 0  0.06140001986584975 0.41 0  0.03015443760436654 0.41 0  0.2497468076502589 0.2050254481002335 0  0.2497468076502614 0.1949745518997913 0  0.2469965252529372 0.1829317073451959 0  0.2439893735792749 0.1762316384219906 0  0.2400332147834255 0.1700443375285386 0  0.2352133972704371 0.1645032867342007 0  0.2296339016332438 0.1597280261969788 0  0.2234150974217223 0.1558215752574715 0  0.2166911463437691 0.1528682099456123 0  0.2096071079204251 0.1509316448471593 0  0.2023158100364996 0.1500536585536553 0  0.194974551899914 0.1502531923497262 0  0.1877417105387872 0.1515259415822739 0  0.1807733240461124 0.153844448527136 0  0.1742197252835808 0.15715869474974 0  0.1682222986673531 0.1613971801805478 0  0.162910430003803 0.1664684656256651 0  0.1583987151779087 0.1722631454351573 0  0.1547844879126891 0.178656207771761 0  0.1521457199348551 0.1855097315605723 0  0.1505393388476355 0.1926758619366523 0  0.1505393388476328 0.2073241380633295 0  0.1521457199348437 0.2144902684393899 0  0.1547844879126531 0.221343792228163 0  0.1583987151778488 0.2277368545647528 0  0.1629104300036858 0.2335315343742052 0  0.1682222986671726 0.2386028198193036 0  0.1742197252833576 0.2428413052501257 0  0.1807733240458683 0.2461555514727623 0  0.1877417105384929 0.2484740584176516 0  0.1949745518995776 0.2497468076502398 0  0.202315810036185 0.2499463414463592 0  0.2096071079201568 0.2490683551528932 0  0.2166911463435495 0.2471317900544655 0  0.2234150974215506 0.2441784247426195 0  0.2296339016331197 0.2402719738031125 0  0.2352133972703547 0.2354967132658811 0  0.2400332147833751 0.2299556624715287 0  0.2439893735792577 0.2237683615780412 0  0.246996525252926 0.2170682926548348 0  0.25645809709277 0.21 0  0.2639263993298655 0.21 0  0.271394701566961 0.21 0  0.2788630038040554 0.21 0  0.2863313060411479 0.21 0  0.2937996082782405 0.21 0  0.301267910515333 0.21 0  0.3087362127524279 0.21 0  0.3162045149895234 0.21 0  0.3236728172265972 0.21 0  0.3311411194636928 0.21 0  0.3386094217007701 0.21 0  0.3460777239378666 0.21 0  0.3535460261749672 0.21 0  0.3610143284120516 0.21 0  0.3684826306491596 0.21 0  0.3759509328862226 0.21 0  0.383419235123329 0.21 0  0.3908875373604028 0.21 0  0.3983558395975142 0.21 0  0.4058241418345938 0.21 0  0.4132924440716992 0.21 0  0.4207607463087888 0.21 0  0.4282290485459029 0.21 0  0.4356973507830418 0.21 0  0.4431656530201649 0.21 0  0.4506339552573136 0.21 0  0.4581022574944306 0.21 0  0.4655705597315852 0.21 0  0.4730388619686996 0.21 0  0.480507164205851 0.21 0  0.4879754664429498 0.21 0  0.4954437686800938 0.21 0  0.502912070917267 0.21 0  0.5103803731544119 0.21 0  0.5178486753915261 0.21 0  0.5253169776286404 0.21 0  0.5327852798657868 0.21 0  0.5402535821029386 0.21 0  0.54772188434007 0.21 0  0.5551901865771842 0.21 0  0.5626584888143201 0.21 0  0.5701267910514778 0.21 0  0.5775950932886138 0.21 0  0.5850633955257281 0.21 0  0.5925316977628483 0.21 0  0.6 0.2050000000000054 0  0.6 0.1950000000000217 0  0.5925316977628897 0.19 0  0.5850633955257988 0.19 0  0.5775950932887378 0.19 0  0.5701267910515998 0.19 0  0.5626584888145268 0.19 0  0.5551901865773963 0.19 0  0.547721884340339 0.19 0  0.5402535821032429 0.19 0  0.5327852798661811 0.19 0  0.5253169776290537 0.19 0  0.5178486753919799 0.19 0  0.5103803731549078 0.19 0  0.502912070917822 0.19 0  0.4954437686807294 0.19 0  0.4879754664436223 0.19 0  0.4805071642065402 0.19 0  0.4730388619694271 0.19 0  0.4655705597323621 0.19 0  0.4581022574952563 0.19 0  0.4506339552581777 0.19 0  0.4431656530210671 0.19 0  0.4356973507839815 0.19 0  0.4282290485468779 0.19 0  0.4207607463097617 0.19 0  0.4132924440726327 0.19 0  0.4058241418354857 0.19 0  0.3983558395983636 0.19 0  0.3908875373612097 0.19 0  0.3834192351240934 0.19 0  0.3759509328869369 0.19 0  0.3684826306498175 0.19 0  0.361014328412667 0.19 0  0.3535460261755617 0.19 0  0.3460777239384295 0.19 0  0.3386094217012945 0.19 0  0.3311411194641595 0.19 0  0.3236728172270245 0.19 0  0.3162045149898895 0.19 0  0.3087362127527544 0.19 0  0.3012679105156187 0.19 0  0.2937996082784807 0.19 0  0.2863313060413428 0.19 0  0.2788630038042048 0.19 0  0.2713947015670686 0.19 0  0.2639263993299336 0.19 0  0.2564580970927985 0.19 0  0.2607803159922026 0.2000727136295815 0  0.5887803774232762 0.2001272386983733 0  0.5745072403740523 0.2002044435018727 0  0.5511891430099709 0.2001122610077113 0  0.2751288526855082 0.20000000000002 0  0.5365194309847112 0.1999999999999436 0  0.2894621222999649 0.1998691686390484 0  0.5215828265105155 0.1999999999999228 0  0.3127789816668748 0.1998657885438805 0  0.3274069683451451 0.2000000000000796 0  0.5066462220363641 0.199999999999908 0  0.3650630746574081 0.199866017807523 0  0.476773013087985 0.1999999999998713 0  0.3417402379596385 0.1998691686391011 0  0.3796850840047755 0.200000000000134 0  0.4618364086138087 0.1999999999998546 0  0.4917096175621762 0.1999999999998808 0  0.3946216884789568 0.2000000000001512 0  0.446899804139621 0.1999999999998389 0  0.4089549580935208 0.1998691686391595 0  0.4322718174608562 0.200127451265745 0  0.4201487168029707 0.1999966199048527 0  0.3528922713220932 0.2000185703532356 0  0.5633122436674589 0.1999814296467508 0  0.3006558810093873 0.1999966199048318 0  0.5815926498168407 0.1966545283159175 0  0.2677053789419034 0.1964246479135325 0  0.5290511287476175 0.1970915826863981 0  0.5439877332217911 0.197091582686394 0  0.2825131256993216 0.2035478995978015 0  0.3199386661080599 0.202908417313604 0  0.4842413153250809 0.1970915826863873 0  0.5141145242734466 0.1970915826863843 0  0.3722167817676917 0.2029084173136195 0  0.4693047108508938 0.1970915826863783 0  0.3348752705822316 0.202908417313609 0  0.3871533862418661 0.2029084173136212 0  0.4543681063767183 0.1970915826863795 0  0.4991779197992749 0.1970915826863902 0  0.4020059614928624 0.203547899597858 0  0.4394315019025246 0.1970915826863714 0  0.2550657455369551 0.2034088125358657 0  0.2548908499171161 0.1966940311614271 0  0.5946539510196798 0.2024302972968126 0  0.267698176732111 0.2039977513680092 0  0.4261685417851465 0.196409292431739 0  0.3590076176283495 0.196411355804271 0  0.5571672426447437 0.2036011176410121 0  0.3066757059912147 0.1964092924317024 0  0.594380730180568 0.1966558399668133 0  0.4842413153245942 0.2040749161535287 0  0.4693047108503577 0.2040749161535231 0  0.3871533862424271 0.1959250838464788 0  0.372246743208829 0.1959123236376545 0  0.5141145242731028 0.2040749161535395 0  0.4543681063761134 0.2040749161535186 0  0.4019979587101454 0.1959834479682427 0  0.4394608940728603 0.2040870543693135 0  0.5439623148931173 0.2040856076781014 0  0.5290511287473298 0.2040749161535501 0  0.4991779197988497 0.2040749161535382 0  0.3347912413592433 0.1959225448935183 0  0.3199680582793816 0.1959123018030061 0  0.2825051229162361 0.1959834479681729 0  0.3590471196690275 0.2036304442587945 0  0.5571594006495384 0.1963685282145804 0  0.3067669986803285 0.203627750582736 0  0.4262598344738712 0.2036568242185335 0  0.5814408164431408 0.2041285596160068 0  0.5688286748170428 0.1961819304477386 0  0.4145905603063645 0.2038180695522843 0  0.3473758401724931 0.2038180695522752 0  0.2950977245128307 0.2038180695522663 0  0.5688286748170693 0.203818069552238 0  0.2950977245127906 0.1961819304477774 0  0.3473758401723931 0.1961819304478349 0  0.4145905603061963 0.1961819304479011 0  0.2601812407614425 0.2056861609747042
[...]
<PointData  Vectors="f_40-1"> 
<DataArray  type="Float64"  Name="f_40-1"  NumberOfComponents="3" format="ascii">0.0000000000000000e+00 0.0000000000000000e+00 0.0000000000000000e+00  0.0000000000000000e+00 0.0000000000000000e+00 0.0000000000000000e+00  0.0000000000000000e+00 0.0000000000000000e+00 0.0000000000000000e+00  0.0000000000000000e+00 0.0000000000000000e+00 0.0000000000000000e+00  -1.8457487035054457e-05 -5.4352416863990465e-04 0.0000000000000000e+00  2.4300116968760193e-05 -5.4755244952471918e-04 0.0000000000000000e+00  0.0000000000000000e+00 0.0000000000000000e+00 0.0000000000000000e+00  0.0000000000000000e+00 0.0000000000000000e+00 0.0000000000000000e+00  0.0000000000000000e+00 0.0000000000000000e+00 0.0000000000000000e+00  0.0000000000000000e+00 0.0000000000000000e+00 0.0000000000000000e+00  2.5555202786221025e-06 -5.4553202277414178e-04 0.0000000000000000e+00  0.0000000000000000e+00 0.0000000000000000e+00 0.0000000000000000e+00  0.0000000000000000e+00 0.0000000000000000e+00 0.0000000000000000e+00  0.0000000000000000e+00 0.0000000000000000e+00 0.0000000000000000e+00  0.0000000000000000e+00 0.0000000000000000e+00 0.0000000000000000e+00  0.0000000000000000e+00 0.0000000000000000e+00 0.0000000000000000e+00  0.0000000000000000e+00 0.0000000000000000e+00 0.0000000000000000e+00  0.0000000000000000e+00 0.0000000000000000e+00 0.0000000000000000e+00  0.0000000000000000e+00 0.0000000000000000e+00 0.0000000000000000e+00  0.0000000000000000e+00 0.0000000000000000e+00 0.0000000000000000e+00  0.0000000000000000e+00 0.0000000000000000e+00 0.0000000000000000e+00  0.0000000000000000e+00 0.0000000000000000e+00 0.0000000000000000e+00  0.0000000000000000e+00 0.0000000000000000e+00 0.0000000000000000e+00  0.0000000000000000e+00 0.0000000000000000e+00 0.0000000000000000e+00  0.0000000000000000e+00 0.0000000000000000e+00 0.0000000000000000e+00  0.0000000000000000e+00 0.0000000000000000e+00 0.0000000000000000e+00  0.0000000000000000e+00 0.0000000000000000e+00 0.0000000000000000e+00  0.0000000000000000e+00 0.0000000000000000e+00 0.0000000000000000e+00  0.0000000000000000e+00 0.0000000000000000e+00 0.0000000000000000e+00  0.0000000000000000e+00 0.0000000000000000e+00 0.0000000000000000e+00  0.0000000000000000e+00 0.0000000000000000e+00 0.0000000000000000e+00  0.0000000000000000e+00 0.0000000000000000e+00 0.0000000000000000e+00  0.0000000000000000e+00 0.0000000000000000e+00 0.0000000000000000e+00  0.0000000000000000e+00 0.0000000000000000e+00 0.0000000000000000e+00  0.0000000000000000e+00 0.0000000000000000e+00 0.0000000000000000e+00  0.0000000000000000e+00 0.0000000000000000e+00 0.0000000000000000e+00  0.0000000000000000e+00 0.0000000000000000e+00 0.0000000000000000e+00  0.0000000000000000e+00 0.0000000000000000e+00 0.0000000000000000e+00  0.0000000000000000e+00 0.0000000000000000e+00 0.0000000000000000e+00  0.0000000000000000e+00 0.0000000000000000e+00 0.0000000000000000e+00  0.0000000000000000e+00 0.0000000000000000e+00 0.0000000000000000e+00  0.0000000000000000e+00 0.0000000000000000e+00 0.0000000000000000e+00  0.0000000000000000e+00 0.0000000000000000e+00 0.0000000000000000e+00  0.0000000000000000e+00 0.0000000000000000e+00 0.0000000000000000e+00  0.0000000000000000e+00 0.0000000000000000e+00 0.0000000000000000e+00  0.0000000000000000e+00 0.0000000000000000e+00 0.0000000000000000e+00  0.0000000000000000e+00 0.0000000000000000e+00 0.0000000000000000e+00  0.0000000000000000e+00 0.0000000000000000e+00 0.0000000000000000e+00  0.0000000000000000e+00 0.0000000000000000e+00 0.0000000000000000e+00  0.0000000000000000e+00 0.0000000000000000e+00 0.0000000000000000e+00  0.0000000000000000e+00 0.0000000000000000e+00 0.0000000000000000e+00  0.0000000000000000e+00 0.0000000000000000e+00 0.0000000000000000e+00  0.0000000000000000e+00 0.0000000000000000e+00 0.0000000000000000e+00  0.0000000000000000e+00 0.0000000000000000e+00 0.0000000000000000e+00  0.0000000000000000e+00 0.0000000000000000e+00 0.0000000000000000e+00  0.0000000000000000e+00 0.0000000000000000e+00 0.0000000000000000e+00  0.0000000000000000e+00 0.0000000000000000e+00 0.0000000000000000e+00  0.0000000000000000e+00 0.0000000000000000e+00 0.0000000000000000e+00  0.0000000000000000e+00 0.0000000000000000e+00 0.0000000000000000e+00  0.0000000000000000e+00 0.0000000000000000e+00 0.0000000000000000e+00  0.0000000000000000e+00 0.0000000000000000e+00 0.0000000000000000e+00  0.0000000000000000e+00 0.0000000000000000e+00 0.0000000000000000e+00  0.0000000000000000e+00 0.0000000000000000e+00 0.0000000000000000e+00  0.0000000000000000e+00 0.0000000000000000e+00 0.0000000000000000e+00  0.0000000000000000e+00 0.0000000000000000e+00 0.0000000000000000e+00  0.0000000000000000e+00 0.0000000000000000e+00 0.0000000000000000e+00  0.0000000000000000e+00 0.0000000000000000e+00 0.0000000000000000e+00  0.0000000000000000e+00 0.0000000000000000e+00 0.0000000000000000e+00  0.0000000000000000e+00 0.0000000000000000e+00 0.0000000000000000e+00  0.0000000000000000e+00 0.0000000000000000e+00 0.0000000000000000e+00  0.0000000000000000e+00 0.0000000000000000e+00 0.0000000000000000e+00  0.0000000000000000e+00 0.0000000000000000e+00 0.0000000000000000e+00  0.0000000000000000e+00 0.0000000000000000e+00 0.0000000000000000e+00  0.0000000000000000e+00 0.0000000000000000e+00 0.0000000000000000e+00  0.0000000000000000e+00 0.0000000000000000e+00 0.0000000000000000e+00  0.0000000000000000e+00 0.0000000000000000e+00 0.0000000000000000e+00  0.0000000000000000e+00 0.0000000000000000e+00 0.0000000000000000e+00  0.0000000000000000e+00 0.0000000000000000e+00 0.0000000000000000e+00  0.0000000000000000e+00 0.0000000000000000e+00 0.0000000000000000e+00  0.0000000000000000e+00 0.0000000000000000e+00 0.0000000000000000e+00  0.0000000000000000e+00 0.0000000000000000e+00 0.0000000000000000e+00  0.0000000000000000e+00 0.0000000000000000e+00 0.0000000000000000e+00  0.0000000000000000e+00 0.0000000000000000e+00 0.0000000000000000e+00  0.0000000000000000e+00 0.0000000000000000e+00 0.0000000000000000e+00  0.0000000000000000e+00 0.0000000000000000e+00 0.0000000000000000e+00  0.0000000000000000e+00 0.0000000000000000e+00 0.0000000000000000e+00  0.0000000000000000e+00 0.0000000000000000e+00 0.0000000000000000e+00  0.0000000000000000e+00 0.0000000000000000e+00 0.0000000000000000e+00  0.0000000000000000e+00 0.0000000000000000e+00 0.0000000000000000e+00  0.0000000000000000e+00 0.0000000000000000e+00 0.0000000000000000e+00  0.0000000000000000e+00 0.0000000000000000e+00 0.0000000000000000e+00  0.0000000000000000e+00 0.0000000000000000e+00 0.0000000000000000e+00  0.0000000000000000e+00 0.0000000000000000e+00 0.0000000000000000e+00  0.0000000000000000e+00 0.0000000000000000e+00 0.0000000000000000e+00  0.0000000000000000e+00 0.0000000000000000e+00 0.0000000000000000e+00  0.0000000000000000e+00 0.0000000000000000e+00 0.0000000000000000e+00  0.0000000000000000e+00 0.0000000000000000e+00 0.0000000000000000e+00  0.0000000000000000e+00 0.0000000000000000e+00 0.0000000000000000e+00  0.0000000000000000e+00 0.0000000000000000e+00 0.0000000000000000e+00  0.0000000000000000e+00 0.0000000000000000e+00 0.0000000000000000e+00  0.0000000000000000e+00 0.0000000000000000e+00 0.0000000000000000e+00  0.0000000000000000e+00 0.0000000000000000e+00 0.0000000000000000e+00  0.0000000000000000e+00 0.0000000000000000e+00 0.0000000000000000e+00  0.0000000000000000e+00 0.0000000000000000e+00 0.0000000000000000e+00  0.0000000000000000e+00 0.0000000000000000e+00 0.0000000000000000e+00  0.0000000000000000e+00 0.0000000000000000e+00 0.0000000000000000e+00  0.0000000000000000e+00 0.0000000000000000e+00 0.0000000000000000e+00  0.0000000000000000e+00 0.0000000000000000e+00 0.0000000000000000e+00  0.0000000000000000e+00 0.0000000000000000e+00 0.0000000000000000e+00  0.0000000000000000e+00 0.0000000000000000e+00 0.0000000000000000e+00  0.0000000000000000e+00 0.0000000000000000e+00 0.0000000000000000e+00  0.0000000000000000e+00 0.0000000000000000e+00 0.0000000000000000e+00  0.0000000000000000e+00 0.0000000000000000e+00 0.0000000000000000e+00  0.0000000000000000e+00 0.0000000000000000e+00 0.0000000000000000e+00  0.0000000000000000e+00 0.0000000000000000e+00 0.0000000000000000e+00  0.0000000000000000e+00 0.0000000000000000e+00 0.0000000000000000e+00  0.0000000000000000e+00 0.0000000000000000e+00 0.0000000000000000e+00  0.0000000000000000e+00 0.0000000000000000e+00 0.0000000000000000e+00  0.0000000000000000e+00 0.0000000000000000e+00 0.0000000000000000e+00  0.0000000000000000e+00 0.0000000000000000e+00 0.0000000000000000e+00  0.0000000000000000e+00 0.0000000000000000e+00 0.0000000000000000e+00  0.0000000000000000e+00 0.0000000000000000e+00 0.0000000000000000e+00  0.0000000000000000e+00 0.0000000000000000e+00 0.0000000000000000e+00  0.0000000000000000e+00 0.0000000000000000e+00 0.0000000000000000e+00  0.0000000000000000e+00 0.0000000000000000e+00 0.0000000000000000e+00  0.0000000000000000e+00 0.0000000000000000e+00 0.0000000000000000e+00  0.0000000000000000e+00 0.0000000000000000e+00 0.0000000000000000e+00  0.0000000000000000e+00 0.0000000000000000e+00 0.0000000000000000e+00  0.0000000000000000e+00 0.0000000000000000e+00 0.0000000000000000e+00  0.0000000000000000e+00 0.0000000000000000e+00 0.0000000000000000e+00  0.0000000000000000e+00 0.0000000000000000e+00 0.0000000000000000e+00  0.0000000000000000e+00 0.0000000000000000e+00 0.0000000000000000e+00  0.0000000000000000e+00 0.0000000000000000e+00 0.0000000000000000e+00  0.0000000000000000e+00 0.0000000000000000e+00 0.0000000000000000e+00  0.0000000000000000e+00 0.0000000000000000e+00 0.0000000000000000e+00  0.0000000000000000e+00 0.0000000000000000e+00 0.0000000000000000e+00  0.0000000000000000e+00 0.0000000000000000e+00 0.0000000000000000e+00  0.0000000000000000e+00 0.0000000000000000e+00 0.0000000000000000e+00  0.0000000000000000e+00 0.0000000000000000e+00 0.0000000000000000e+00  0.0000000000000000e+00 0.0000000000000000e+00 0.0000000000000000e+00  0.0000000000000000e+00 0.0000000000000000e+00 0.0000000000000000e+00  0.0000000000000000e+00 0.0000000000000000e+00 0.0000000000000000e+00  0.0000000000000000e+00 0.0000000000000000e+00 0.0000000000000000e+00  1.0640818516850860e-06 -4.0771091238753328e-06 0.0000000000000000e+00  2.4091412458696406e-06 -5.3919981667568846e-06 0.0000000000000000e+00  3.8614440651235898e-06 -7.2956673125207104e-06 0.0000000000000000e+00  5.5371014948875597e-06 -9.8949776675550392e-06 0.0000000000000000e+00  7.1028396734255962e-06 -1.3237610302405000e-05 0.0000000000000000e+00  8.8432971771063652e-06 -1.7401211145208700e-05 0.0000000000000000e+00  1.0381217894324639e-05 -2.2181603610848062e-05 0.0000000000000000e+00  1.1919293891479518e-05 -2.7788871484231204e-05 0.0000000000000000e+00  1.3621019822939209e-05 -3.4036636922556503e-05 0.0000000000000000e+00  1.5070404522873376e-05 -4.0964287685480570e-05 0.0000000000000000e+00  1.6722544073192478e-05 -4.8574380656809404e-05 0.0000000000000000e+00  1.8105537869474847e-05 -5.6816625957561046e-05 0.0000000000000000e+00  1.9632638301143201e-05 -6.5683990478548112e-05 0.0000000000000000e+00  2.0946848897473528e-05 -7.5058666483935124e-05 0.0000000000000000e+00  2.2215905355057213e-05 -8.5063784881044810e-05 0.0000000000000000e+00  2.3565519134563562e-05 -9.5552161921360579e-05 0.0000000000000000e+00  2.4677151733552380e-05 -1.0651909887166888e-04 0.0000000000000000e+00  2.5880563641644730e-05 -1.1798842927952111e-04 0.0000000000000000e+00  2.6849111388203284e-05 -1.2986018791092776e-04 0.0000000000000000e+00  2.7876528155535317e-05 -1.4216002487243466e-04 0.0000000000000000e+00  2.8719268977928686e-05 -1.5481710984183541e-04 0.0000000000000000e+00  2.9558584938491673e-05 -1.6785758197912108e-04 0.0000000000000000e+00  3.0244350744930198e-05 -1.8116410868776819e-04 0.0000000000000000e+00  3.0849898296410912e-05 -1.9480868996764420e-04 0.0000000000000000e+00  3.1451857474657293e-05 -2.0869361248403989e-04 0.0000000000000000e+00  3.1909103989886461e-05 -2.2282202170360757e-04 0.0000000000000000e+00  3.2306335258471421e-05 -2.3721443776617045e-04 0.0000000000000000e+00  3.2601802786813149e-05 -2.5176212381511955e-04 0.0000000000000000e+00  3.2833947714563648e-05 -2.6654000927111269e-04 0.0000000000000000e+00  3.2971225079867389e-05 -2.8143818485215210e-04 0.0000000000000000e+00  3.3043028908963719e-05 -2.9652895640137813e-04 0.0000000000000000e+00  3.3024023551415085e-05 -3.1170602042513524e-04 0.0000000000000000e+00  3.2940727820003708e-05 -3.2704317596854860e-04 0.0000000000000000e+00  3.2769574328416576e-05 -3.4243433332688993e-04 0.0000000000000000e+00  3.2530690196310947e-05 -3.5796149722292506e-04 0.0000000000000000e+00  3.2211837632895764e-05 -3.7351963221837146e-04 0.0000000000000000e+00  3.1827140540043150e-05 -3.8918562110183826e-04 0.0000000000000000e+00  3.1365915077480799e-05 -4.0486275555015095e-04 0.0000000000000000e+00  3.0836956845515230e-05 -4.2062732812341936e-04 0.0000000000000000e+00  3.0232440614745300e-05 -4.3638666171118235e-04 0.0000000000000000e+00  2.9552898759391171e-05 -4.5220388637703306e-04 0.0000000000000000e+00  2.8814548536346000e-05 -4.6802420016377411e-04 0.0000000000000000e+00  2.7998182132914546e-05 -4.8387001563013696e-04 0.0000000000000000e+00  2.7141419274937197e-05 -4.9972434049040681e-04 0.0000000000000000e+00  2.6202424561851510e-05 -5.1556357507871351e-04 0.0000000000000000e+00  2.5228403156434370e-05 -5.3145495502997296e-04 0.0000000000000000e+00  1.3296668675044886e-05 -5.4654134179747476e-04 0.0000000000000000e+00  -8.0659304015587086e-06 -5.4452886107268436e-04 0.0000000000000000e+00  -1.7507153665773432e-05 -5.2768599598872169e-04 0.0000000000000000e+00  -1.6500869872812871e-05 -5.1166551871379307e-04 0.0000000000000000e+00  -1.5530957261837220e-05 -4.9562005107054872e-04 0.0000000000000000e+00  -1.4626997719880387e-05 -4.7961234077942559e-04 0.0000000000000000e+00  -1.3763995731472878e-05 -4.6361695820106659e-04 0.0000000000000000e+00  -1.2969832714985711e-05 -4.4764404951829970e-04 0.0000000000000000e+00  -1.2209584104494281e-05 -4.3170280668210947e-04 0.0000000000000000e+00  -1.1519543036725458e-05 -4.1577012293512181e-04 0.0000000000000000e+00  -1.0864958473357068e-05 -3.9990889582739347e-04 0.0000000000000000e+00  -1.0274776335959594e-05 -3.8405707149539943e-04 0.0000000000000000e+00  -9.7100865981732024e-06 -3.6829488369109786e-04 0.0000000000000000e+00  -9.2138442644053902e-06 -3.5256309418297508e-04 0.0000000000000000e+00  -8.7327190004597311e-06 -3.3694343442161075e-04 0.0000000000000000e+00  -8.3232376559618856e-06 -3.2137951557796438e-04 0.0000000000000000e+00  -7.9157227744142085e-06 -3.0595066039295227e-04 0.0000000000000000e+00  -7.5867403565728484e-06 -2.9060603796534707e-04 0.0000000000000000e+00  -7.2462153074858436e-06 -2.7542471427971401e-04 0.0000000000000000e+00  -6.9918767715418330e-06 -2.6036105304527794e-04 0.0000000000000000e+00  -6.7103037063020541e-06 -2.4549622124118991e-04 0.0000000000000000e+00  -6.5224038914748791e-06 -2.3078803374741998e-04 0.0000000000000000e+00  -6.2870851144356751e-06 -2.1631547911311503e-04 0.0000000000000000e+00  -6.1545200073890104e-06 -2.0204522597344979e-04 0.0000000000000000e+00  -5.9672498042416408e-06 -1.8804647134787271e-04 0.0000000000000000e+00  -5.8609843792023482e-06 -1.7429080895955357e-04 0.0000000000000000e+00  -5.7830857960400124e-06 -1.6088589000421010e-04 0.0000000000000000e+00  -5.6304463543161725e-06 -1.4774536878153224e-04 0.0000000000000000e+00  -5.5523050708212503e-06 -1.3498703262959687e-04 0.0000000000000000e+00  -5.4334130352950676e-06 -1.2261290061560138e-04 0.0000000000000000e+00  -5.3606153766122386e-06 -1.1064660521772209e-04 0.0000000000000000e+00  -5.2434853453934141e-06 -9.9130783759725409e-05 0.0000000000000000e+00  -5.1659252654597428e-06 -8.8064796701043641e-05 0.0000000000000000e+00  -4.9840164202568584e-06 -7.7566939683348531e-05 0.0000000000000000e+00  -4.9120864827799884e-06 -6.7511143885463343e-05 0.0000000000000000e+00  -4.8346305274899837e-06 -5.8115199490076857e-05 0.0000000000000000e+00  -4.6060103467618389e-06 -4.9191505966642604e-05 0.0000000000000000e+00  -4.4473738130542530e-06 -4.0956493436123543e-05 0.0000000000000000e+00  -4.2047716102280934e-06 -3.3349146360983326e-05 0.0000000000000000e+00  -4.0037961022479928e-06 -2.6399856382789202e-05 0.0000000000000000e+00  -3.6497959066869178e-06 -2.0212296321218426e-05 0.0000000000000000e+00  -3.4353944819663926e-06 -1.4618678357499264e-05 0.0000000000000000e+00  -3.2061686273988417e-06 -9.8696075170936772e-06 0.0000000000000000e+00  -2.7814242591057099e-06 -5.7184116670597347e-06 0.0000000000000000e+00  -2.4705524139455367e-06 -2.3575847189569926e-06 0.0000000000000000e+00  -1.9666465222968807e-06 2.3516377887042280e-07 0.0000000000000000e+00  -1.5144521679977217e-06 1.9559523702368505e-06 0.0000000000000000e+00  -7.4670061175216481e-07 2.7281649636342410e-06 0.0000000000000000e+00  -3.1305014416734661e-07 -6.7525759877513462e-07 0.0000000000000000e+00  4.4821840506648925e-06 -5.2157089347551228e-04 0.0000000000000000e+00  6.5527216314644148e-06 -4.9111349193018533e-04 0.0000000000000000e+00  8.8646494358810274e-06 -4.4141984719807593e-04 0.0000000000000000e+00  1.2099396776946050e-06 -4.2365148088017730e-06 0.0000000000000000e+00  9.8917055392830017e-06 -4.1025800952588739e-04 0.0000000000000000e+00  2.3673261356240568e-06 -1.0576902235444792e-05 0.0000000000000000e+00  1.0951858055401477e-05 -3.7871568483949426e-04 0.0000000000000000e+00  4.3611095571392695e-06 -2.6770641445881758e-05 0.0000000000000000e+00  5.7627731615940247e-06 -4.0462020861391316e-05 0.0000000000000000e+00  1.1776958811554128e-05 -3.4741026319548595e-04 0.0000000000000000e+00  8.7036069095882690e-06 -8.6549258944253600e-05 0.0000000000000000e+00  1.2734613329109512e-05 -2.8588844197038118e-04 0.0000000000000000e+00  6.8518502727195134e-06 -5.6201444799793141e-05 0.0000000000000000e+00  9.9458421260641749e-06 -1.0822022137729966e-04 0.0000000000000000e+00  1.2873525283449030e-05 -2.5590174242250162e-04 0.0000000000000000e+00  1.2370292141442553e-05 -3.1643257648459840e-04 0.0000000000000000e+00  1.0890545840652246e-05 -1.3209478112621696e-04 0.0000000000000000e+00  1.2790183382834052e-05 -2.2661664746201156e-04 0.0000000000000000e+00  1.1421537580388594e-05 -1.5644618836333548e-04 0.0000000000000000e+00  1.2746101410875168e-05 -1.9881000078080839e-04 0.0000000000000000e+00  1.2095240021206583e-05 -1.7647269979276554e-04 0.0000000000000000e+00  7.9458786727816828e-06 -7.0178357920451664e-05 0.0000000000000000e+00  7.3326821208117765e-06 -4.6719936336718097e-04 0.0000000000000000e+00  3.3999845318119674e-06 -1.7633985313953314e-05 0.0000000000000000e+00  -1.9303020870790121e-06 -5.0553897164336671e-04 0.0000000000000000e+00  -3.7702162416487421e-07 -7.1790105008865495e-07 0.0000000000000000e+00  4.3213591982291769e-06 -3.9373442685060843e-04 0.0000000000000000e+00  3.1101174545920914e-06 -4.2540286959228839e-04 0.0000000000000000e+00  3.4103998222556671e-06 -8.5952416549588388e-06 0.0000000000000000e+00  7.7993061630299100e-06 -3.4339115044515856e-05 0.0000000000000000e+00  6.6525222883996960e-06 -3.0026183165095851e-04 0.0000000000000000e+00  5.3122476589190015e-06 -3.6226256026696164e-04 0.0000000000000000e+00  1.3691223961425251e-05 -9.8068053699122782e-05 0.0000000000000000e+00  7.0151219725080839e-06 -2.6994492066340152e-04 0.0000000000000000e+00  9.5888565435320708e-06 -4.9564341392991508e-05 0.0000000000000000e+00  1.5050001288232743e-05 -1.2104633038946369e-04 0.0000000000000000e+00  7.1809586229115629e-06 -2.4025702903465984e-04 0.0000000000000000e+00  6.0868384975714060e-06 -3.3107219683300380e-04 0.0000000000000000e+00  1.7299479768519849e-05 -1.4580229698332462e-04 0.0000000000000000e+00  7.1577081874717087e-06 -2.1135009484587477e-04 0.0000000000000000e+00  -3.9580524348901171e-07 -9.3046265791855301e-07 0.0000000000000000e+00  -6.9511109795402945e-07 6.5016377136845268e-07 0.0000000000000000e+00  8.5447023358092496e-06 -5.3456013135662979e-04 0.0000000000000000e+00  1.5060053788009841e-06 -3.68