<?xml version="1.0"?>
<VTKFile type="UnstructuredGrid"  version="0.1"  >
<UnstructuredGrid>
<Piece  NumberOfPoints="1419" NumberOfCells="2698">
<Points>
<DataArray  type="Float64"  NumberOfComponents="3"  format="ascii">0 0 0  0 0.41 0  2.5 0 0  2.5 0.41 0  0.6 0.19 0  0.6 0.21 0  0.25 0.2 0  0.15 0.2 0  0.2489897948556636 0.21 0  0.2489897948556636 0.19 0  0.6 0.2 0  0 0.3807142857143437 0  0 0.3514285714286952 0  0 0.3221428571430699 0  0 0.29285714285744 0  0 0.2635714285718054 0  0 0.2342857142861561 0  0 0.2050000000005308 0  0 0.175714285714732 0  0 0.1464285714289574 0  0 0.1171428571431897 0  0 0.08785714285737878 0  0 0.05857142857161107 0  0 0.02928571428580012 0  0.03015443760436003 0 0  0.06140001986583606 0 0  0.09377624077125973 0 0  0.1273239957535082 0 0  0.1620856860351972 0 0  0.1981052433264291 0 0  0.235428184091502 0 0  0.2741016576309132 0 0  0.3141745521465447 0 0  0.3556974926295285 0 0  0.3987229542472677 0 0  0.4433053055141081 0 0  0.4895008759286886 0 0  0.5373680609405097 0 0  0.5869673343216626 0 0  0.6383613676634521 0 0  0.6916151138468254 0 0  0.7467958595648856 0 0  0.8039733463919316 0 0  0.8632198139502143 0 0  0.9246101326867038 0 0  0.9882218810934433 0 0  1.054135445558498 0 0  1.122434100542598 0 0  1.193204177141305 0 0  1.266535089879536 0 0  1.342519516046404 0 0  1.421253448503939 0 0  1.502836389106271 0 0  1.587371439758838 0 0  1.674965418777374 0 0  1.765729001825544 0 0  1.859776908880082 0 0  1.957227977487062 0 0  2.058205329869943 0 0  2.162836591189951 0 0  2.271253957290865 0 0  2.383594446803425 0 0  2.5 0.1024999999997612 0  2.5 0.2049999999994743 0  2.5 0.3074999999997183 0  2.383594446803656 0.41 0  2.271253957291315 0.41 0  2.162836591190598 0.41 0  2.058205329870775 0.41 0  1.957227977488067 0.41 0  1.859776908881246 0.41 0  1.765729001826854 0.41 0  1.674965418778818 0.41 0  1.58737143976041 0.41 0  1.502836389107956 0.41 0  1.421253448505726 0.41 0  1.342519516048286 0.41 0  1.266535089881505 0.41 0  1.193204177143353 0.41 0  1.122434100544716 0.41 0  1.05413544556068 0.41 0  0.9882218810956305 0.41 0  0.9246101326886647 0.41 0  0.8632198139519631 0.41 0  0.8039733463934788 0.41 0  0.7467958595662458 0.41 0  0.6916151138480078 0.41 0  0.6383613676644679 0.41 0  0.5869673343225223 0.41 0  0.5373680609412221 0.41 0  0.4895008759292634 0.41 0  0.4433053055145528 0.41 0  0.3987229542475914 0.41 0  0.3556974926297398 0.41 0  0.3141745521466497 0.41 0  0.2741016576310038 0.41 0  0.2354281840915826 0.41 0  0.1981052433265003 0.41 0  0.1620856860352591 0.41 0  0.1273239957535623 0.41 0  0.09377624077128965 0.41 0  0.06140001986584975 0.41 0  0.03015443760436654 0.41 0  0.2497468076502589 0.2050254481002335 0  0.2497468076502614 0.1949745518997913 0  0.2469965252529372 0.1829317073451959 0  0.2439893735792749 0.1762316384219906 0  0.2400332147834255 0.1700443375285386 0  0.2352133972704371 0.1645032867342007 0  0.2296339016332438 0.1597280261969788 0  0.2234150974217223 0.1558215752574715 0  0.2166911463437691 0.1528682099456123 0  0.2096071079204251 0.1509316448471593 0  0.2023158100364996 0.1500536585536553 0  0.194974551899914 0.1502531923497262 0  0.1877417105387872 0.1515259415822739 0  0.1807733240461124 0.153844448527136 0  0.1742197252835808 0.15715869474974 0  0.1682222986673531 0.1613971801805478 0  0.162910430003803 0.1664684656256651 0  0.1583987151779087 0.1722631454351573 0  0.1547844879126891 0.178656207771761 0  0.1521457199348551 0.1855097315605723 0  0.1505393388476355 0.1926758619366523 0  0.1505393388476328 0.2073241380633295 0  0.1521457199348437 0.2144902684393899 0  0.1547844879126531 0.221343792228163 0  0.1583987151778488 0.2277368545647528 0  0.1629104300036858 0.2335315343742052 0  0.1682222986671726 0.2386028198193036 0  0.1742197252833576 0.2428413052501257 0  0.1807733240458683 0.2461555514727623 0  0.1877417105384929 0.2484740584176516 0  0.1949745518995776 0.2497468076502398 0  0.202315810036185 0.2499463414463592 0  0.2096071079201568 0.2490683551528932 0  0.2166911463435495 0.2471317900544655 0  0.2234150974215506 0.2441784247426195 0  0.2296339016331197 0.2402719738031125 0  0.2352133972703547 0.2354967132658811 0  0.2400332147833751 0.2299556624715287 0  0.2439893735792577 0.2237683615780412 0  0.246996525252926 0.2170682926548348 0  0.25645809709277 0.21 0  0.2639263993298655 0.21 0  0.271394701566961 0.21 0  0.2788630038040554 0.21 0  0.2863313060411479 0.21 0  0.2937996082782405 0.21 0  0.301267910515333 0.21 0  0.3087362127524279 0.21 0  0.3162045149895234 0.21 0  0.3236728172265972 0.21 0  0.3311411194636928 0.21 0  0.3386094217007701 0.21 0  0.3460777239378666 0.21 0  0.3535460261749672 0.21 0  0.3610143284120516 0.21 0  0.3684826306491596 0.21 0  0.3759509328862226 0.21 0  0.383419235123329 0.21 0  0.3908875373604028 0.21 0  0.3983558395975142 0.21 0  0.4058241418345938 0.21 0  0.4132924440716992 0.21 0  0.4207607463087888 0.21 0  0.4282290485459029 0.21 0  0.4356973507830418 0.21 0  0.4431656530201649 0.21 0  0.4506339552573136 0.21 0  0.4581022574944306 0.21 0  0.4655705597315852 0.21 0  0.4730388619686996 0.21 0  0.480507164205851 0.21 0  0.4879754664429498 0.21 0  0.4954437686800938 0.21 0  0.502912070917267 0.21 0  0.5103803731544119 0.21 0  0.5178486753915261 0.21 0  0.5253169776286404 0.21 0  0.5327852798657868 0.21 0  0.5402535821029386 0.21 0  0.54772188434007 0.21 0  0.5551901865771842 0.21 0  0.5626584888143201 0.21 0  0.5701267910514778 0.21 0  0.5775950932886138 0.21 0  0.5850633955257281 0.21 0  0.5925316977628483 0.21 0  0.6 0.2050000000000054 0  0.6 0.1950000000000217 0  0.5925316977628897 0.19 0  0.5850633955257988 0.19 0  0.5775950932887378 0.19 0  0.5701267910515998 0.19 0  0.5626584888145268 0.19 0  0.5551901865773963 0.19 0  0.547721884340339 0.19 0  0.5402535821032429 0.19 0  0.5327852798661811 0.19 0  0.5253169776290537 0.19 0  0.5178486753919799 0.19 0  0.5103803731549078 0.19 0  0.502912070917822 0.19 0  0.4954437686807294 0.19 0  0.4879754664436223 0.19 0  0.4805071642065402 0.19 0  0.4730388619694271 0.19 0  0.4655705597323621 0.19 0  0.4581022574952563 0.19 0  0.4506339552581777 0.19 0  0.4431656530210671 0.19 0  0.4356973507839815 0.19 0  0.4282290485468779 0.19 0  0.4207607463097617 0.19 0  0.4132924440726327 0.19 0  0.4058241418354857 0.19 0  0.3983558395983636 0.19 0  0.3908875373612097 0.19 0  0.3834192351240934 0.19 0  0.3759509328869369 0.19 0  0.3684826306498175 0.19 0  0.361014328412667 0.19 0  0.3535460261755617 0.19 0  0.3460777239384295 0.19 0  0.3386094217012945 0.19 0  0.3311411194641595 0.19 0  0.3236728172270245 0.19 0  0.3162045149898895 0.19 0  0.3087362127527544 0.19 0  0.3012679105156187 0.19 0  0.2937996082784807 0.19 0  0.2863313060413428 0.19 0  0.2788630038042048 0.19 0  0.2713947015670686 0.19 0  0.2639263993299336 0.19 0  0.2564580970927985 0.19 0  0.2607803159922026 0.2000727136295815 0  0.5887803774232762 0.2001272386983733 0  0.5745072403740523 0.2002044435018727 0  0.5511891430099709 0.2001122610077113 0  0.2751288526855082 0.20000000000002 0  0.5365194309847112 0.1999999999999436 0  0.2894621222999649 0.1998691686390484 0  0.5215828265105155 0.1999999999999228 0  0.3127789816668748 0.1998657885438805 0  0.3274069683451451 0.2000000000000796 0  0.5066462220363641 0.199999999999908 0  0.3650630746574081 0.199866017807523 0  0.476773013087985 0.1999999999998713 0  0.3417402379596385 0.1998691686391011 0  0.3796850840047755 0.200000000000134 0  0.4618364086138087 0.1999999999998546 0  0.4917096175621762 0.1999999999998808 0  0.3946216884789568 0.2000000000001512 0  0.446899804139621 0.1999999999998389 0  0.4089549580935208 0.1998691686391595 0  0.4322718174608562 0.200127451265745 0  0.4201487168029707 0.1999966199048527 0  0.3528922713220932 0.2000185703532356 0  0.5633122436674589 0.1999814296467508 0  0.3006558810093873 0.1999966199048318 0  0.5815926498168407 0.1966545283159175 0  0.2677053789419034 0.1964246479135325 0  0.5290511287476175 0.1970915826863981 0  0.5439877332217911 0.197091582686394 0  0.2825131256993216 0.2035478995978015 0  0.3199386661080599 0.202908417313604 0  0.4842413153250809 0.1970915826863873 0  0.5141145242734466 0.1970915826863843 0  0.3722167817676917 0.2029084173136195 0  0.4693047108508938 0.1970915826863783 0  0.3348752705822316 0.202908417313609 0  0.3871533862418661 0.2029084173136212 0  0.4543681063767183 0.1970915826863795 0  0.4991779197992749 0.1970915826863902 0  0.4020059614928624 0.203547899597858 0  0.4394315019025246 0.1970915826863714 0  0.2550657455369551 0.2034088125358657 0  0.2548908499171161 0.1966940311614271 0  0.5946539510196798 0.2024302972968126 0  0.267698176732111 0.2039977513680092 0  0.4261685417851465 0.196409292431739 0  0.3590076176283495 0.196411355804271 0  0.5571672426447437 0.2036011176410121 0  0.3066757059912147 0.1964092924317024 0  0.594380730180568 0.1966558399668133 0  0.4842413153245942 0.2040749161535287 0  0.4693047108503577 0.2040749161535231 0  0.3871533862424271 0.1959250838464788 0  0.372246743208829 0.1959123236376545 0  0.5141145242731028 0.2040749161535395 0  0.4543681063761134 0.2040749161535186 0  0.4019979587101454 0.1959834479682427 0  0.4394608940728603 0.2040870543693135 0  0.5439623148931173 0.2040856076781014 0  0.5290511287473298 0.2040749161535501 0  0.4991779197988497 0.2040749161535382 0  0.3347912413592433 0.1959225448935183 0  0.3199680582793816 0.1959123018030061 0  0.2825051229162361 0.1959834479681729 0  0.3590471196690275 0.2036304442587945 0  0.5571594006495384 0.1963685282145804 0  0.3067669986803285 0.203627750582736 0  0.4262598344738712 0.2036568242185335 0  0.5814408164431408 0.2041285596160068 0  0.5688286748170428 0.1961819304477386 0  0.4145905603063645 0.2038180695522843 0  0.3473758401724931 0.2038180695522752 0  0.2950977245128307 0.2038180695522663 0  0.5688286748170693 0.203818069552238 0  0.2950977245127906 0.1961819304477774 0  0.3473758401723931 0.1961819304478349 0  0.4145905603061963 0.1961819304479011 0  0.2601812407614425 0.2056861609747042
[...]
<PointData  Vectors="f_40-1"> 
<DataArray  type="Float64"  Name="f_40-1"  NumberOfComponents="3" format="ascii">0.0000000000000000e+00 0.0000000000000000e+00 0.0000000000000000e+00  0.0000000000000000e+00 0.0000000000000000e+00 0.0000000000000000e+00  0.0000000000000000e+00 0.0000000000000000e+00 0.0000000000000000e+00  0.0000000000000000e+00 0.0000000000000000e+00 0.0000000000000000e+00  -1.2205053021308988e-05 -1.6501142498138017e-04 0.0000000000000000e+00  6.1445829975744527e-07 -1.6793039903022878e-04 0.0000000000000000e+00  0.0000000000000000e+00 0.0000000000000000e+00 0.0000000000000000e+00  0.0000000000000000e+00 0.0000000000000000e+00 0.0000000000000000e+00  0.0000000000000000e+00 0.0000000000000000e+00 0.0000000000000000e+00  0.0000000000000000e+00 0.0000000000000000e+00 0.0000000000000000e+00  -5.9996916970132503e-06 -1.6646947019542918e-04 0.0000000000000000e+00  0.0000000000000000e+00 0.0000000000000000e+00 0.0000000000000000e+00  0.0000000000000000e+00 0.0000000000000000e+00 0.0000000000000000e+00  0.0000000000000000e+00 0.0000000000000000e+00 0.0000000000000000e+00  0.0000000000000000e+00 0.0000000000000000e+00 0.0000000000000000e+00  0.0000000000000000e+00 0.0000000000000000e+00 0.0000000000000000e+00  0.0000000000000000e+00 0.0000000000000000e+00 0.0000000000000000e+00  0.0000000000000000e+00 0.0000000000000000e+00 0.0000000000000000e+00  0.0000000000000000e+00 0.0000000000000000e+00 0.0000000000000000e+00  0.0000000000000000e+00 0.0000000000000000e+00 0.0000000000000000e+00  0.0000000000000000e+00 0.0000000000000000e+00 0.0000000000000000e+00  0.0000000000000000e+00 0.0000000000000000e+00 0.0000000000000000e+00  0.0000000000000000e+00 0.0000000000000000e+00 0.0000000000000000e+00  0.0000000000000000e+00 0.0000000000000000e+00 0.0000000000000000e+00  0.0000000000000000e+00 0.0000000000000000e+00 0.0000000000000000e+00  0.0000000000000000e+00 0.0000000000000000e+00 0.0000000000000000e+00  0.0000000000000000e+00 0.0000000000000000e+00 0.0000000000000000e+00  0.0000000000000000e+00 0.0000000000000000e+00 0.0000000000000000e+00  0.0000000000000000e+00 0.0000000000000000e+00 0.0000000000000000e+00  0.0000000000000000e+00 0.0000000000000000e+00 0.0000000000000000e+00  0.0000000000000000e+00 0.0000000000000000e+00 0.0000000000000000e+00  0.0000000000000000e+00 0.0000000000000000e+00 0.0000000000000000e+00  0.0000000000000000e+00 0.0000000000000000e+00 0.0000000000000000e+00  0.0000000000000000e+00 0.0000000000000000e+00 0.0000000000000000e+00  0.0000000000000000e+00 0.0000000000000000e+00 0.0000000000000000e+00  0.0000000000000000e+00 0.0000000000000000e+00 0.0000000000000000e+00  0.0000000000000000e+00 0.0000000000000000e+00 0.0000000000000000e+00  0.0000000000000000e+00 0.0000000000000000e+00 0.0000000000000000e+00  0.0000000000000000e+00 0.0000000000000000e+00 0.0000000000000000e+00  0.0000000000000000e+00 0.0000000000000000e+00 0.0000000000000000e+00  0.0000000000000000e+00 0.0000000000000000e+00 0.0000000000000000e+00  0.0000000000000000e+00 0.0000000000000000e+00 0.0000000000000000e+00  0.0000000000000000e+00 0.0000000000000000e+00 0.0000000000000000e+00  0.0000000000000000e+00 0.0000000000000000e+00 0.0000000000000000e+00  0.0000000000000000e+00 0.0000000000000000e+00 0.0000000000000000e+00  0.0000000000000000e+00 0.0000000000000000e+00 0.0000000000000000e+00  0.0000000000000000e+00 0.0000000000000000e+00 0.0000000000000000e+00  0.0000000000000000e+00 0.0000000000000000e+00 0.0000000000000000e+00  0.0000000000000000e+00 0.0000000000000000e+00 0.0000000000000000e+00  0.0000000000000000e+00 0.0000000000000000e+00 0.0000000000000000e+00  0.0000000000000000e+00 0.0000000000000000e+00 0.0000000000000000e+00  0.0000000000000000e+00 0.0000000000000000e+00 0.0000000000000000e+00  0.0000000000000000e+00 0.0000000000000000e+00 0.0000000000000000e+00  0.0000000000000000e+00 0.0000000000000000e+00 0.0000000000000000e+00  0.0000000000000000e+00 0.0000000000000000e+00 0.0000000000000000e+00  0.0000000000000000e+00 0.0000000000000000e+00 0.0000000000000000e+00  0.0000000000000000e+00 0.0000000000000000e+00 0.0000000000000000e+00  0.0000000000000000e+00 0.0000000000000000e+00 0.0000000000000000e+00  0.0000000000000000e+00 0.0000000000000000e+00 0.0000000000000000e+00  0.0000000000000000e+00 0.0000000000000000e+00 0.0000000000000000e+00  0.0000000000000000e+00 0.0000000000000000e+00 0.0000000000000000e+00  0.0000000000000000e+00 0.0000000000000000e+00 0.0000000000000000e+00  0.0000000000000000e+00 0.0000000000000000e+00 0.0000000000000000e+00  0.0000000000000000e+00 0.0000000000000000e+00 0.0000000000000000e+00  0.0000000000000000e+00 0.0000000000000000e+00 0.0000000000000000e+00  0.0000000000000000e+00 0.0000000000000000e+00 0.0000000000000000e+00  0.0000000000000000e+00 0.0000000000000000e+00 0.0000000000000000e+00  0.0000000000000000e+00 0.0000000000000000e+00 0.0000000000000000e+00  0.0000000000000000e+00 0.0000000000000000e+00 0.0000000000000000e+00  0.0000000000000000e+00 0.0000000000000000e+00 0.0000000000000000e+00  0.0000000000000000e+00 0.0000000000000000e+00 0.0000000000000000e+00  0.0000000000000000e+00 0.0000000000000000e+00 0.0000000000000000e+00  0.0000000000000000e+00 0.0000000000000000e+00 0.0000000000000000e+00  0.0000000000000000e+00 0.0000000000000000e+00 0.0000000000000000e+00  0.0000000000000000e+00 0.0000000000000000e+00 0.0000000000000000e+00  0.0000000000000000e+00 0.0000000000000000e+00 0.0000000000000000e+00  0.0000000000000000e+00 0.0000000000000000e+00 0.0000000000000000e+00  0.0000000000000000e+00 0.0000000000000000e+00 0.0000000000000000e+00  0.0000000000000000e+00 0.0000000000000000e+00 0.0000000000000000e+00  0.0000000000000000e+00 0.0000000000000000e+00 0.0000000000000000e+00  0.0000000000000000e+00 0.0000000000000000e+00 0.0000000000000000e+00  0.0000000000000000e+00 0.0000000000000000e+00 0.0000000000000000e+00  0.0000000000000000e+00 0.0000000000000000e+00 0.0000000000000000e+00  0.0000000000000000e+00 0.0000000000000000e+00 0.0000000000000000e+00  0.0000000000000000e+00 0.0000000000000000e+00 0.0000000000000000e+00  0.0000000000000000e+00 0.0000000000000000e+00 0.0000000000000000e+00  0.0000000000000000e+00 0.0000000000000000e+00 0.0000000000000000e+00  0.0000000000000000e+00 0.0000000000000000e+00 0.0000000000000000e+00  0.0000000000000000e+00 0.0000000000000000e+00 0.0000000000000000e+00  0.0000000000000000e+00 0.0000000000000000e+00 0.0000000000000000e+00  0.0000000000000000e+00 0.0000000000000000e+00 0.0000000000000000e+00  0.0000000000000000e+00 0.0000000000000000e+00 0.0000000000000000e+00  0.0000000000000000e+00 0.0000000000000000e+00 0.0000000000000000e+00  0.0000000000000000e+00 0.0000000000000000e+00 0.0000000000000000e+00  0.0000000000000000e+00 0.0000000000000000e+00 0.0000000000000000e+00  0.0000000000000000e+00 0.0000000000000000e+00 0.0000000000000000e+00  0.0000000000000000e+00 0.0000000000000000e+00 0.0000000000000000e+00  0.0000000000000000e+00 0.0000000000000000e+00 0.0000000000000000e+00  0.0000000000000000e+00 0.0000000000000000e+00 0.0000000000000000e+00  0.0000000000000000e+00 0.0000000000000000e+00 0.0000000000000000e+00  0.0000000000000000e+00 0.0000000000000000e+00 0.0000000000000000e+00  0.0000000000000000e+00 0.0000000000000000e+00 0.0000000000000000e+00  0.0000000000000000e+00 0.0000000000000000e+00 0.0000000000000000e+00  0.0000000000000000e+00 0.0000000000000000e+00 0.0000000000000000e+00  0.0000000000000000e+00 0.0000000000000000e+00 0.0000000000000000e+00  0.0000000000000000e+00 0.0000000000000000e+00 0.0000000000000000e+00  0.0000000000000000e+00 0.0000000000000000e+00 0.0000000000000000e+00  0.0000000000000000e+00 0.0000000000000000e+00 0.0000000000000000e+00  0.0000000000000000e+00 0.0000000000000000e+00 0.0000000000000000e+00  0.0000000000000000e+00 0.0000000000000000e+00 0.0000000000000000e+00  0.0000000000000000e+00 0.0000000000000000e+00 0.0000000000000000e+00  0.0000000000000000e+00 0.0000000000000000e+00 0.0000000000000000e+00  0.0000000000000000e+00 0.0000000000000000e+00 0.0000000000000000e+00  0.0000000000000000e+00 0.0000000000000000e+00 0.0000000000000000e+00  0.0000000000000000e+00 0.0000000000000000e+00 0.0000000000000000e+00  0.0000000000000000e+00 0.0000000000000000e+00 0.0000000000000000e+00  0.0000000000000000e+00 0.0000000000000000e+00 0.0000000000000000e+00  0.0000000000000000e+00 0.0000000000000000e+00 0.0000000000000000e+00  0.0000000000000000e+00 0.0000000000000000e+00 0.0000000000000000e+00  0.0000000000000000e+00 0.0000000000000000e+00 0.0000000000000000e+00  0.0000000000000000e+00 0.0000000000000000e+00 0.0000000000000000e+00  0.0000000000000000e+00 0.0000000000000000e+00 0.0000000000000000e+00  0.0000000000000000e+00 0.0000000000000000e+00 0.0000000000000000e+00  0.0000000000000000e+00 0.0000000000000000e+00 0.0000000000000000e+00  0.0000000000000000e+00 0.0000000000000000e+00 0.0000000000000000e+00  0.0000000000000000e+00 0.0000000000000000e+00 0.0000000000000000e+00  0.0000000000000000e+00 0.0000000000000000e+00 0.0000000000000000e+00  0.0000000000000000e+00 0.0000000000000000e+00 0.0000000000000000e+00  0.0000000000000000e+00 0.0000000000000000e+00 0.0000000000000000e+00  0.0000000000000000e+00 0.0000000000000000e+00 0.0000000000000000e+00  0.0000000000000000e+00 0.0000000000000000e+00 0.0000000000000000e+00  0.0000000000000000e+00 0.0000000000000000e+00 0.0000000000000000e+00  0.0000000000000000e+00 0.0000000000000000e+00 0.0000000000000000e+00  0.0000000000000000e+00 0.0000000000000000e+00 0.0000000000000000e+00  0.0000000000000000e+00 0.0000000000000000e+00 0.0000000000000000e+00  0.0000000000000000e+00 0.0000000000000000e+00 0.0000000000000000e+00  0.0000000000000000e+00 0.0000000000000000e+00 0.0000000000000000e+00  0.0000000000000000e+00 0.0000000000000000e+00 0.0000000000000000e+00  0.0000000000000000e+00 0.0000000000000000e+00 0.0000000000000000e+00  0.0000000000000000e+00 0.0000000000000000e+00 0.0000000000000000e+00  0.0000000000000000e+00 0.0000000000000000e+00 0.0000000000000000e+00  0.0000000000000000e+00 0.0000000000000000e+00 0.0000000000000000e+00  0.0000000000000000e+00 0.0000000000000000e+00 0.0000000000000000e+00  4.5427526947658712e-07 -2.9539553345678005e-06 0.0000000000000000e+00  1.0431996194408428e-06 -3.5615370732556047e-06 0.0000000000000000e+00  1.7325718603078621e-06 -4.2808559527934457e-06 0.0000000000000000e+00  2.5184834445160254e-06 -5.1884368358138395e-06 0.0000000000000000e+00  3.2601578612820341e-06 -6.3274159450753422e-06 0.0000000000000000e+00  4.0244580061289113e-06 -7.7432241666032387e-06 0.0000000000000000e+00  4.7020441568050071e-06 -9.3450885900925587e-06 0.0000000000000000e+00  5.3436878013834902e-06 -1.1196042200808599e-05 0.0000000000000000e+00  6.0094985388298536e-06 -1.3240141123074469e-05 0.0000000000000000e+00  6.5661341250951046e-06 -1.5472569002541279e-05 0.0000000000000000e+00  7.1510937891854056e-06 -1.7916169469746957e-05 0.0000000000000000e+00  7.6300077708917468e-06 -2.0523202637872587e-05 0.0000000000000000e+00  8.1168886029937857e-06 -2.3314060259058781e-05 0.0000000000000000e+00  8.5239887304022640e-06 -2.6245945322358834e-05 0.0000000000000000e+00  8.8876189934535142e-06 -2.9348461242053575e-05 0.0000000000000000e+00  9.2544313767271483e-06 -3.2588718541459623e-05 0.0000000000000000e+00  9.5301639466008904e-06 -3.5948843448756187e-05 0.0000000000000000e+00  9.8080198851716664e-06 -3.9459092621191793e-05 0.0000000000000000e+00  1.0002054408214718e-05 -4.3063846861467797e-05 0.0000000000000000e+00  1.0191879827875150e-05 -4.6797867069195007e-05 0.0000000000000000e+00  1.0312803408811848e-05 -5.0616091506801219e-05 0.0000000000000000e+00  1.0411244673459632e-05 -5.4545248967502180e-05 0.0000000000000000e+00  1.0456022837218412e-05 -5.8546746681788284e-05 0.0000000000000000e+00  1.0458524583038049e-05 -6.2638472213569725e-05 0.0000000000000000e+00  1.0448063531001070e-05 -6.6801018002645205e-05 0.0000000000000000e+00  1.0378862840361857e-05 -7.1023160379923657e-05 0.0000000000000000e+00  1.0277058765733504e-05 -7.5330004967296443e-05 0.0000000000000000e+00  1.0131732634198219e-05 -7.9669885780279948e-05 0.0000000000000000e+00  9.9533059304794861e-06 -8.4084483304192230e-05 0.0000000000000000e+00  9.7336378897992857e-06 -8.8524302760952263e-05 0.0000000000000000e+00  9.4805418470576829e-06 -9.3028024459513602e-05 0.0000000000000000e+00  9.1868802863296745e-06 -9.7547682850561760e-05 0.0000000000000000e+00  8.8608231655800380e-06 -1.0212288904558206e-04 0.0000000000000000e+00  8.4943881024392346e-06 -1.0670419941944282e-04 0.0000000000000000e+00  8.0933646679858584e-06 -1.1133556234785504e-04 0.0000000000000000e+00  7.6549388754708595e-06 -1.1596722054675368e-04 0.0000000000000000e+00  7.1831869265897106e-06 -1.2064015088604945e-04 0.0000000000000000e+00  6.6745388778828782e-06 -1.2530821886644805e-04 0.0000000000000000e+00  6.1311444882740745e-06 -1.3001173145286846e-04 0.0000000000000000e+00  5.5500027446801395e-06 -1.3470564493260620e-04 0.0000000000000000e+00  4.9296272115036381e-06 -1.3942302044859392e-04 0.0000000000000000e+00  4.2804225994652642e-06 -1.4413896669476721e-04 0.0000000000000000e+00  3.5896875043506883e-06 -1.4886438539230280e-04 0.0000000000000000e+00  2.8780033203281660e-06 -1.5359245505804076e-04 0.0000000000000000e+00  2.1240184896812127e-06 -1.5831144466588567e-04 0.0000000000000000e+00  1.3545414395963374e-06 -1.6305956292637940e-04 0.0000000000000000e+00  -2.7659426364519435e-06 -1.6719935253717508e-04 0.0000000000000000e+00  -9.1669907559363120e-06 -1.6574237445923971e-04 0.0000000000000000e+00  -1.1455406629450824e-05 -1.6031033618293180e-04 0.0000000000000000e+00  -1.0671088779248147e-05 -1.5549279527996902e-04 0.0000000000000000e+00  -9.9046488660059140e-06 -1.5066038508384835e-04 0.0000000000000000e+00  -9.1751996281124527e-06 -1.4584608086291905e-04 0.0000000000000000e+00  -8.4678127551143311e-06 -1.4103655715060669e-04 0.0000000000000000e+00  -7.8000092724319652e-06 -1.3623501412098272e-04 0.0000000000000000e+00  -7.1538118109190175e-06 -1.3144630441119814e-04 0.0000000000000000e+00  -6.5457653814832092e-06 -1.2665600037977724e-04 0.0000000000000000e+00  -5.9628446586509591e-06 -1.2189607491637611e-04 0.0000000000000000e+00  -5.4140048127729068e-06 -1.1713069823125482e-04 0.0000000000000000e+00  -4.8873726613467802e-06 -1.1240166603062073e-04 0.0000000000000000e+00  -4.3960022592579738e-06 -1.0767314082314108e-04 0.0000000000000000e+00  -3.9238850191078889e-06 -1.0298712340456786e-04 0.0000000000000000e+00  -3.4875721793744142e-06 -9.8308825735163413e-05 0.0000000000000000e+00  -3.0667426063524135e-06 -9.3679203680669440e-05 0.0000000000000000e+00  -2.6837761338705722e-06 -8.9064726407206209e-05 0.0000000000000000e+00  -2.3128994210285376e-06 -8.4506345770014990e-05 0.0000000000000000e+00  -1.9821712211251906e-06 -7.9971805303190476e-05 0.0000000000000000e+00  -1.6594122338474695e-06 -7.5503217184983782e-05 0.0000000000000000e+00  -1.3789789675874206e-06 -7.1068952362127871e-05 0.0000000000000000e+00  -1.1015582514332231e-06 -6.6710228064685264e-05 0.0000000000000000e+00  -8.6945964488050741e-07 -6.2397737596538134e-05 0.0000000000000000e+00  -6.4152917992498760e-07 -5.8165970327726490e-05 0.0000000000000000e+00  -4.4983755772367598e-07 -5.3997636831078666e-05 0.0000000000000000e+00  -2.8755763091448440e-07 -4.9924889624613381e-05 0.0000000000000000e+00  -1.1767087206068592e-07 -4.5924885941029173e-05 0.0000000000000000e+00  9.3934112274632704e-09 -4.2020347121077217e-05 0.0000000000000000e+00  1.2844864083447407e-07 -3.8230034586495795e-05 0.0000000000000000e+00  2.1465434213054623e-07 -3.4534279496308068e-05 0.0000000000000000e+00  2.9198056342022435e-07 -3.0972298876605025e-05 0.0000000000000000e+00  3.3709250814530167e-07 -2.7515906034890200e-05 0.0000000000000000e+00  3.8589471188518406e-07 -2.4221977270815454e-05 0.0000000000000000e+00  3.8920127003930600e-07 -2.1041385623258973e-05 0.0000000000000000e+00  3.6702729451306782e-07 -1.8043198439627848e-05 0.0000000000000000e+00  3.7173708042992466e-07 -1.5174208778506865e-05 0.0000000000000000e+00  3.2905533220357904e-07 -1.2491011348004109e-05 0.0000000000000000e+00  2.8751859353693906e-07 -9.9984079820471325e-06 0.0000000000000000e+00  2.1112447827280728e-07 -7.6807788084169499e-06 0.0000000000000000e+00  1.5577462035484934e-07 -5.5948293056966466e-06 0.0000000000000000e+00  4.4855985870648901e-08 -3.6835839756662975e-06 0.0000000000000000e+00  -8.4790839282049788e-08 -2.0325543034194026e-06 0.0000000000000000e+00  -1.6280358631194687e-07 -5.7143809283703886e-07 0.0000000000000000e+00  -2.9295442984409312e-07 6.4879423264317909e-07 0.0000000000000000e+00  -3.4679140023498874e-07 1.6076326923488942e-06 0.0000000000000000e+00  -3.8042999258276274e-07 2.2179256396350400e-06 0.0000000000000000e+00  -2.2131952425092789e-07 2.4069946939112945e-06 0.0000000000000000e+00  -2.7490055927227718e-07 -2.9713340469951668e-07 0.0000000000000000e+00  -4.6588317322465837e-06 -1.5929578880750819e-04 0.0000000000000000e+00  -3.1093728875320602e-06 -1.5017833811734862e-04 0.0000000000000000e+00  -1.0478504352075494e-06 -1.3529332719071347e-04 0.0000000000000000e+00  8.7284019940874333e-07 -1.6054640585331524e-06 0.0000000000000000e+00  4.4630746898045410e-08 -1.2595717183077590e-04 0.0000000000000000e+00  1.6919559153342258e-06 -3.8251491902657921e-06 0.0000000000000000e+00  1.1053430729404846e-06 -1.1652014226814384e-04 0.0000000000000000e+00  2.8863290781392620e-06 -9.3143617610153794e-06 0.0000000000000000e+00  3.5583643247629936e-06 -1.3826286292281854e-05 0.0000000000000000e+00  2.0382399850859314e-06 -1.0715583684148863e-04 0.0000000000000000e+00  4.6416297287775966e-06 -2.8412440183309584e-05 0.0000000000000000e+00  3.5259056603132669e-06 -8.8749136181264318e-05 0.0000000000000000e+00  4.0353477743088189e-06 -1.8865007192565398e-05 0.0000000000000000e+00  4.9343073028130559e-06 -3.5134084247428132e-05 0.0000000000000000e+00  4.0826132535931316e-06 -7.9768584645430686e-05 0.0000000000000000e+00  2.8447677282440858e-06 -9.7889191753448390e-05 0.0000000000000000e+00  5.0571684441979956e-06 -4.2444356432331880e-05 0.0000000000000000e+00  4.5148580723822322e-06 -7.0986462328525277e-05 0.0000000000000000e+00  4.9935366892177765e-06 -4.9827036930862789e-05 0.0000000000000000e+00  4.8938379286587223e-06 -6.2645556996762428e-05 0.0000000000000000e+00  4.9710251306459150e-06 -5.5897535090369783e-05 0.0000000000000000e+00  4.4109439132116218e-06 -2.3308426998366218e-05 0.0000000000000000e+00  -2.2054850980970770e-06 -1.4299854526800363e-04 0.0000000000000000e+00  2.3109674446286086e-06 -6.2648077553713198e-06 0.0000000000000000e+00  -6.1021883453571415e-06 -1.5420468356453832e-04 0.0000000000000000e+00  3.7864869336501457e-08 2.6887176869009659e-07 0.0000000000000000e+00  -1.2433218894978799e-06 -1.2072935232236398e-04 0.0000000000000000e+00  -2.3784436254727271e-06 -1.3021582636373808e-04 0.0000000000000000e+00  1.8614218392754994e-06 -3.7094947088691838e-06 0.0000000000000000e+00  4.1266626928871920e-06 -1.2266735051902753e-05 0.0000000000000000e+00  1.4260623558962944e-06 -9.2735396162419573e-05 0.0000000000000000e+00  -2.3195887611227839e-07 -1.1130399090270071e-04 0.0000000000000000e+00  6.1494249520000583e-06 -3.2397718081057420e-05 0.0000000000000000e+00  2.0767760909393342e-06 -8.3649522387254030e-05 0.0000000000000000e+00  4.8632310982937089e-06 -1.7188690085919197e-05 0.0000000000000000e+00  6.4244030220768894e-06 -3.9453140793501867e-05 0.0000000000000000e+00  2.6101438323290731e-06 -7.4742410721360036e-05 0.0000000000000000e+00  6.5697824026419928e-07 -1.0196358973027229e-04 0.0000000000000000e+00  6.8983504617678384e-06 -4.7070733384598481e-05 0.0000000000000000e+00  3.0276047388955672e-06 -6.6054628047309486e-05 0.0000000000000000e+00  -3.9227148910173052e-07 -7.0659105107344070e-07 0.0000000000000000e+00  -4.9792771398980530e-07 5.3272550123326818e-07 0.0000000000000000e+00  -3.8403374438089578e-06 -1.6337740982355471e-04 0.0000000000000000e+00  7.1764059179858593e-07 -2.052057361