<?xml version="1.0"?>
<VTKFile type="UnstructuredGrid"  version="0.1"  >
<UnstructuredGrid>
<Piece  NumberOfPoints="1419" NumberOfCells="2698">
<Points>
<DataArray  type="Float64"  NumberOfComponents="3"  format="ascii">0 0 0  0 0.41 0  2.5 0 0  2.5 0.41 0  0.6 0.19 0  0.6 0.21 0  0.25 0.2 0  0.15 0.2 0  0.2489897948556636 0.21 0  0.2489897948556636 0.19 0  0.6 0.2 0  0 0.3807142857143437 0  0 0.3514285714286952 0  0 0.3221428571430699 0  0 0.29285714285744 0  0 0.2635714285718054 0  0 0.2342857142861561 0  0 0.2050000000005308 0  0 0.175714285714732 0  0 0.1464285714289574 0  0 0.1171428571431897 0  0 0.08785714285737878 0  0 0.05857142857161107 0  0 0.02928571428580012 0  0.03015443760436003 0 0  0.06140001986583606 0 0  0.09377624077125973 0 0  0.1273239957535082 0 0  0.1620856860351972 0 0  0.1981052433264291 0 0  0.235428184091502 0 0  0.2741016576309132 0 0  0.3141745521465447 0 0  0.3556974926295285 0 0  0.3987229542472677 0 0  0.4433053055141081 0 0  0.4895008759286886 0 0  0.5373680609405097 0 0  0.5869673343216626 0 0  0.6383613676634521 0 0  0.6916151138468254 0 0  0.7467958595648856 0 0  0.8039733463919316 0 0  0.8632198139502143 0 0  0.9246101326867038 0 0  0.9882218810934433 0 0  1.054135445558498 0 0  1.122434100542598 0 0  1.193204177141305 0 0  1.266535089879536 0 0  1.342519516046404 0 0  1.421253448503939 0 0  1.502836389106271 0 0  1.587371439758838 0 0  1.674965418777374 0 0  1.765729001825544 0 0  1.859776908880082 0 0  1.957227977487062 0 0  2.058205329869943 0 0  2.162836591189951 0 0  2.271253957290865 0 0  2.383594446803425 0 0  2.5 0.1024999999997612 0  2.5 0.2049999999994743 0  2.5 0.3074999999997183 0  2.383594446803656 0.41 0  2.271253957291315 0.41 0  2.162836591190598 0.41 0  2.058205329870775 0.41 0  1.957227977488067 0.41 0  1.859776908881246 0.41 0  1.765729001826854 0.41 0  1.674965418778818 0.41 0  1.58737143976041 0.41 0  1.502836389107956 0.41 0  1.421253448505726 0.41 0  1.342519516048286 0.41 0  1.266535089881505 0.41 0  1.193204177143353 0.41 0  1.122434100544716 0.41 0  1.05413544556068 0.41 0  0.9882218810956305 0.41 0  0.9246101326886647 0.41 0  0.8632198139519631 0.41 0  0.8039733463934788 0.41 0  0.7467958595662458 0.41 0  0.6916151138480078 0.41 0  0.6383613676644679 0.41 0  0.5869673343225223 0.41 0  0.5373680609412221 0.41 0  0.4895008759292634 0.41 0  0.4433053055145528 0.41 0  0.3987229542475914 0.41 0  0.3556974926297398 0.41 0  0.3141745521466497 0.41 0  0.2741016576310038 0.41 0  0.2354281840915826 0.41 0  0.1981052433265003 0.41 0  0.1620856860352591 0.41 0  0.1273239957535623 0.41 0  0.09377624077128965 0.41 0  0.06140001986584975 0.41 0  0.03015443760436654 0.41 0  0.2497468076502589 0.2050254481002335 0  0.2497468076502614 0.1949745518997913 0  0.2469965252529372 0.1829317073451959 0  0.2439893735792749 0.1762316384219906 0  0.2400332147834255 0.1700443375285386 0  0.2352133972704371 0.1645032867342007 0  0.2296339016332438 0.1597280261969788 0  0.2234150974217223 0.1558215752574715 0  0.2166911463437691 0.1528682099456123 0  0.2096071079204251 0.1509316448471593 0  0.2023158100364996 0.1500536585536553 0  0.194974551899914 0.1502531923497262 0  0.1877417105387872 0.1515259415822739 0  0.1807733240461124 0.153844448527136 0  0.1742197252835808 0.15715869474974 0  0.1682222986673531 0.1613971801805478 0  0.162910430003803 0.1664684656256651 0  0.1583987151779087 0.1722631454351573 0  0.1547844879126891 0.178656207771761 0  0.1521457199348551 0.1855097315605723 0  0.1505393388476355 0.1926758619366523 0  0.1505393388476328 0.2073241380633295 0  0.1521457199348437 0.2144902684393899 0  0.1547844879126531 0.221343792228163 0  0.1583987151778488 0.2277368545647528 0  0.1629104300036858 0.2335315343742052 0  0.1682222986671726 0.2386028198193036 0  0.1742197252833576 0.2428413052501257 0  0.1807733240458683 0.2461555514727623 0  0.1877417105384929 0.2484740584176516 0  0.1949745518995776 0.2497468076502398 0  0.202315810036185 0.2499463414463592 0  0.2096071079201568 0.2490683551528932 0  0.2166911463435495 0.2471317900544655 0  0.2234150974215506 0.2441784247426195 0  0.2296339016331197 0.2402719738031125 0  0.2352133972703547 0.2354967132658811 0  0.2400332147833751 0.2299556624715287 0  0.2439893735792577 0.2237683615780412 0  0.246996525252926 0.2170682926548348 0  0.25645809709277 0.21 0  0.2639263993298655 0.21 0  0.271394701566961 0.21 0  0.2788630038040554 0.21 0  0.2863313060411479 0.21 0  0.2937996082782405 0.21 0  0.301267910515333 0.21 0  0.3087362127524279 0.21 0  0.3162045149895234 0.21 0  0.3236728172265972 0.21 0  0.3311411194636928 0.21 0  0.3386094217007701 0.21 0  0.3460777239378666 0.21 0  0.3535460261749672 0.21 0  0.3610143284120516 0.21 0  0.3684826306491596 0.21 0  0.3759509328862226 0.21 0  0.383419235123329 0.21 0  0.3908875373604028 0.21 0  0.3983558395975142 0.21 0  0.4058241418345938 0.21 0  0.4132924440716992 0.21 0  0.4207607463087888 0.21 0  0.4282290485459029 0.21 0  0.4356973507830418 0.21 0  0.4431656530201649 0.21 0  0.4506339552573136 0.21 0  0.4581022574944306 0.21 0  0.4655705597315852 0.21 0  0.4730388619686996 0.21 0  0.480507164205851 0.21 0  0.4879754664429498 0.21 0  0.4954437686800938 0.21 0  0.502912070917267 0.21 0  0.5103803731544119 0.21 0  0.5178486753915261 0.21 0  0.5253169776286404 0.21 0  0.5327852798657868 0.21 0  0.5402535821029386 0.21 0  0.54772188434007 0.21 0  0.5551901865771842 0.21 0  0.5626584888143201 0.21 0  0.5701267910514778 0.21 0  0.5775950932886138 0.21 0  0.5850633955257281 0.21 0  0.5925316977628483 0.21 0  0.6 0.2050000000000054 0  0.6 0.1950000000000217 0  0.5925316977628897 0.19 0  0.5850633955257988 0.19 0  0.5775950932887378 0.19 0  0.5701267910515998 0.19 0  0.5626584888145268 0.19 0  0.5551901865773963 0.19 0  0.547721884340339 0.19 0  0.5402535821032429 0.19 0  0.5327852798661811 0.19 0  0.5253169776290537 0.19 0  0.5178486753919799 0.19 0  0.5103803731549078 0.19 0  0.502912070917822 0.19 0  0.4954437686807294 0.19 0  0.4879754664436223 0.19 0  0.4805071642065402 0.19 0  0.4730388619694271 0.19 0  0.4655705597323621 0.19 0  0.4581022574952563 0.19 0  0.4506339552581777 0.19 0  0.4431656530210671 0.19 0  0.4356973507839815 0.19 0  0.4282290485468779 0.19 0  0.4207607463097617 0.19 0  0.4132924440726327 0.19 0  0.4058241418354857 0.19 0  0.3983558395983636 0.19 0  0.3908875373612097 0.19 0  0.3834192351240934 0.19 0  0.3759509328869369 0.19 0  0.3684826306498175 0.19 0  0.361014328412667 0.19 0  0.3535460261755617 0.19 0  0.3460777239384295 0.19 0  0.3386094217012945 0.19 0  0.3311411194641595 0.19 0  0.3236728172270245 0.19 0  0.3162045149898895 0.19 0  0.3087362127527544 0.19 0  0.3012679105156187 0.19 0  0.2937996082784807 0.19 0  0.2863313060413428 0.19 0  0.2788630038042048 0.19 0  0.2713947015670686 0.19 0  0.2639263993299336 0.19 0  0.2564580970927985 0.19 0  0.2607803159922026 0.2000727136295815 0  0.5887803774232762 0.2001272386983733 0  0.5745072403740523 0.2002044435018727 0  0.5511891430099709 0.2001122610077113 0  0.2751288526855082 0.20000000000002 0  0.5365194309847112 0.1999999999999436 0  0.2894621222999649 0.1998691686390484 0  0.5215828265105155 0.1999999999999228 0  0.3127789816668748 0.1998657885438805 0  0.3274069683451451 0.2000000000000796 0  0.5066462220363641 0.199999999999908 0  0.3650630746574081 0.199866017807523 0  0.476773013087985 0.1999999999998713 0  0.3417402379596385 0.1998691686391011 0  0.3796850840047755 0.200000000000134 0  0.4618364086138087 0.1999999999998546 0  0.4917096175621762 0.1999999999998808 0  0.3946216884789568 0.2000000000001512 0  0.446899804139621 0.1999999999998389 0  0.4089549580935208 0.1998691686391595 0  0.4322718174608562 0.200127451265745 0  0.4201487168029707 0.1999966199048527 0  0.3528922713220932 0.2000185703532356 0  0.5633122436674589 0.1999814296467508 0  0.3006558810093873 0.1999966199048318 0  0.5815926498168407 0.1966545283159175 0  0.2677053789419034 0.1964246479135325 0  0.5290511287476175 0.1970915826863981 0  0.5439877332217911 0.197091582686394 0  0.2825131256993216 0.2035478995978015 0  0.3199386661080599 0.202908417313604 0  0.4842413153250809 0.1970915826863873 0  0.5141145242734466 0.1970915826863843 0  0.3722167817676917 0.2029084173136195 0  0.4693047108508938 0.1970915826863783 0  0.3348752705822316 0.202908417313609 0  0.3871533862418661 0.2029084173136212 0  0.4543681063767183 0.1970915826863795 0  0.4991779197992749 0.1970915826863902 0  0.4020059614928624 0.203547899597858 0  0.4394315019025246 0.1970915826863714 0  0.2550657455369551 0.2034088125358657 0  0.2548908499171161 0.1966940311614271 0  0.5946539510196798 0.2024302972968126 0  0.267698176732111 0.2039977513680092 0  0.4261685417851465 0.196409292431739 0  0.3590076176283495 0.196411355804271 0  0.5571672426447437 0.2036011176410121 0  0.3066757059912147 0.1964092924317024 0  0.594380730180568 0.1966558399668133 0  0.4842413153245942 0.2040749161535287 0  0.4693047108503577 0.2040749161535231 0  0.3871533862424271 0.1959250838464788 0  0.372246743208829 0.1959123236376545 0  0.5141145242731028 0.2040749161535395 0  0.4543681063761134 0.2040749161535186 0  0.4019979587101454 0.1959834479682427 0  0.4394608940728603 0.2040870543693135 0  0.5439623148931173 0.2040856076781014 0  0.5290511287473298 0.2040749161535501 0  0.4991779197988497 0.2040749161535382 0  0.3347912413592433 0.1959225448935183 0  0.3199680582793816 0.1959123018030061 0  0.2825051229162361 0.1959834479681729 0  0.3590471196690275 0.2036304442587945 0  0.5571594006495384 0.1963685282145804 0  0.3067669986803285 0.203627750582736 0  0.4262598344738712 0.2036568242185335 0  0.5814408164431408 0.2041285596160068 0  0.5688286748170428 0.1961819304477386 0  0.4145905603063645 0.2038180695522843 0  0.3473758401724931 0.2038180695522752 0  0.2950977245128307 0.2038180695522663 0  0.5688286748170693 0.203818069552238 0  0.2950977245127906 0.1961819304477774 0  0.3473758401723931 0.1961819304478349 0  0.4145905603061963 0.1961819304479011 0  0.2601812407614425 0.2056861609747042
[...]
<PointData  Vectors="f_40-1"> 
<DataArray  type="Float64"  Name="f_40-1"  NumberOfComponents="3" format="ascii">0.0000000000000000e+00 0.0000000000000000e+00 0.0000000000000000e+00  0.0000000000000000e+00 0.0000000000000000e+00 0.0000000000000000e+00  0.0000000000000000e+00 0.0000000000000000e+00 0.0000000000000000e+00  0.0000000000000000e+00 0.0000000000000000e+00 0.0000000000000000e+00  -1.1957679311671900e-05 -1.3120831105125055e-04 0.0000000000000000e+00  -1.7358519624418804e-06 -1.3392523509976118e-04 0.0000000000000000e+00  0.0000000000000000e+00 0.0000000000000000e+00 0.0000000000000000e+00  0.0000000000000000e+00 0.0000000000000000e+00 0.0000000000000000e+00  0.0000000000000000e+00 0.0000000000000000e+00 0.0000000000000000e+00  0.0000000000000000e+00 0.0000000000000000e+00 0.0000000000000000e+00  -7.0288411224769908e-06 -1.3256571473032586e-04 0.0000000000000000e+00  0.0000000000000000e+00 0.0000000000000000e+00 0.0000000000000000e+00  0.0000000000000000e+00 0.0000000000000000e+00 0.0000000000000000e+00  0.0000000000000000e+00 0.0000000000000000e+00 0.0000000000000000e+00  0.0000000000000000e+00 0.0000000000000000e+00 0.0000000000000000e+00  0.0000000000000000e+00 0.0000000000000000e+00 0.0000000000000000e+00  0.0000000000000000e+00 0.0000000000000000e+00 0.0000000000000000e+00  0.0000000000000000e+00 0.0000000000000000e+00 0.0000000000000000e+00  0.0000000000000000e+00 0.0000000000000000e+00 0.0000000000000000e+00  0.0000000000000000e+00 0.0000000000000000e+00 0.0000000000000000e+00  0.0000000000000000e+00 0.0000000000000000e+00 0.0000000000000000e+00  0.0000000000000000e+00 0.0000000000000000e+00 0.0000000000000000e+00  0.0000000000000000e+00 0.0000000000000000e+00 0.0000000000000000e+00  0.0000000000000000e+00 0.0000000000000000e+00 0.0000000000000000e+00  0.0000000000000000e+00 0.0000000000000000e+00 0.0000000000000000e+00  0.0000000000000000e+00 0.0000000000000000e+00 0.0000000000000000e+00  0.0000000000000000e+00 0.0000000000000000e+00 0.0000000000000000e+00  0.0000000000000000e+00 0.0000000000000000e+00 0.0000000000000000e+00  0.0000000000000000e+00 0.0000000000000000e+00 0.0000000000000000e+00  0.0000000000000000e+00 0.0000000000000000e+00 0.0000000000000000e+00  0.0000000000000000e+00 0.0000000000000000e+00 0.0000000000000000e+00  0.0000000000000000e+00 0.0000000000000000e+00 0.0000000000000000e+00  0.0000000000000000e+00 0.0000000000000000e+00 0.0000000000000000e+00  0.0000000000000000e+00 0.0000000000000000e+00 0.0000000000000000e+00  0.0000000000000000e+00 0.0000000000000000e+00 0.0000000000000000e+00  0.0000000000000000e+00 0.0000000000000000e+00 0.0000000000000000e+00  0.0000000000000000e+00 0.0000000000000000e+00 0.0000000000000000e+00  0.0000000000000000e+00 0.0000000000000000e+00 0.0000000000000000e+00  0.0000000000000000e+00 0.0000000000000000e+00 0.0000000000000000e+00  0.0000000000000000e+00 0.0000000000000000e+00 0.0000000000000000e+00  0.0000000000000000e+00 0.0000000000000000e+00 0.0000000000000000e+00  0.0000000000000000e+00 0.0000000000000000e+00 0.0000000000000000e+00  0.0000000000000000e+00 0.0000000000000000e+00 0.0000000000000000e+00  0.0000000000000000e+00 0.0000000000000000e+00 0.0000000000000000e+00  0.0000000000000000e+00 0.0000000000000000e+00 0.0000000000000000e+00  0.0000000000000000e+00 0.0000000000000000e+00 0.0000000000000000e+00  0.0000000000000000e+00 0.0000000000000000e+00 0.0000000000000000e+00  0.0000000000000000e+00 0.0000000000000000e+00 0.0000000000000000e+00  0.0000000000000000e+00 0.0000000000000000e+00 0.0000000000000000e+00  0.0000000000000000e+00 0.0000000000000000e+00 0.0000000000000000e+00  0.0000000000000000e+00 0.0000000000000000e+00 0.0000000000000000e+00  0.0000000000000000e+00 0.0000000000000000e+00 0.0000000000000000e+00  0.0000000000000000e+00 0.0000000000000000e+00 0.0000000000000000e+00  0.0000000000000000e+00 0.0000000000000000e+00 0.0000000000000000e+00  0.0000000000000000e+00 0.0000000000000000e+00 0.0000000000000000e+00  0.0000000000000000e+00 0.0000000000000000e+00 0.0000000000000000e+00  0.0000000000000000e+00 0.0000000000000000e+00 0.0000000000000000e+00  0.0000000000000000e+00 0.0000000000000000e+00 0.0000000000000000e+00  0.0000000000000000e+00 0.0000000000000000e+00 0.0000000000000000e+00  0.0000000000000000e+00 0.0000000000000000e+00 0.0000000000000000e+00  0.0000000000000000e+00 0.0000000000000000e+00 0.0000000000000000e+00  0.0000000000000000e+00 0.0000000000000000e+00 0.0000000000000000e+00  0.0000000000000000e+00 0.0000000000000000e+00 0.0000000000000000e+00  0.0000000000000000e+00 0.0000000000000000e+00 0.0000000000000000e+00  0.0000000000000000e+00 0.0000000000000000e+00 0.0000000000000000e+00  0.0000000000000000e+00 0.0000000000000000e+00 0.0000000000000000e+00  0.0000000000000000e+00 0.0000000000000000e+00 0.0000000000000000e+00  0.0000000000000000e+00 0.0000000000000000e+00 0.0000000000000000e+00  0.0000000000000000e+00 0.0000000000000000e+00 0.0000000000000000e+00  0.0000000000000000e+00 0.0000000000000000e+00 0.0000000000000000e+00  0.0000000000000000e+00 0.0000000000000000e+00 0.0000000000000000e+00  0.0000000000000000e+00 0.0000000000000000e+00 0.0000000000000000e+00  0.0000000000000000e+00 0.0000000000000000e+00 0.0000000000000000e+00  0.0000000000000000e+00 0.0000000000000000e+00 0.0000000000000000e+00  0.0000000000000000e+00 0.0000000000000000e+00 0.0000000000000000e+00  0.0000000000000000e+00 0.0000000000000000e+00 0.0000000000000000e+00  0.0000000000000000e+00 0.0000000000000000e+00 0.0000000000000000e+00  0.0000000000000000e+00 0.0000000000000000e+00 0.0000000000000000e+00  0.0000000000000000e+00 0.0000000000000000e+00 0.0000000000000000e+00  0.0000000000000000e+00 0.0000000000000000e+00 0.0000000000000000e+00  0.0000000000000000e+00 0.0000000000000000e+00 0.0000000000000000e+00  0.0000000000000000e+00 0.0000000000000000e+00 0.0000000000000000e+00  0.0000000000000000e+00 0.0000000000000000e+00 0.0000000000000000e+00  0.0000000000000000e+00 0.0000000000000000e+00 0.0000000000000000e+00  0.0000000000000000e+00 0.0000000000000000e+00 0.0000000000000000e+00  0.0000000000000000e+00 0.0000000000000000e+00 0.0000000000000000e+00  0.0000000000000000e+00 0.0000000000000000e+00 0.0000000000000000e+00  0.0000000000000000e+00 0.0000000000000000e+00 0.0000000000000000e+00  0.0000000000000000e+00 0.0000000000000000e+00 0.0000000000000000e+00  0.0000000000000000e+00 0.0000000000000000e+00 0.0000000000000000e+00  0.0000000000000000e+00 0.0000000000000000e+00 0.0000000000000000e+00  0.0000000000000000e+00 0.0000000000000000e+00 0.0000000000000000e+00  0.0000000000000000e+00 0.0000000000000000e+00 0.0000000000000000e+00  0.0000000000000000e+00 0.0000000000000000e+00 0.0000000000000000e+00  0.0000000000000000e+00 0.0000000000000000e+00 0.0000000000000000e+00  0.0000000000000000e+00 0.0000000000000000e+00 0.0000000000000000e+00  0.0000000000000000e+00 0.0000000000000000e+00 0.0000000000000000e+00  0.0000000000000000e+00 0.0000000000000000e+00 0.0000000000000000e+00  0.0000000000000000e+00 0.0000000000000000e+00 0.0000000000000000e+00  0.0000000000000000e+00 0.0000000000000000e+00 0.0000000000000000e+00  0.0000000000000000e+00 0.0000000000000000e+00 0.0000000000000000e+00  0.0000000000000000e+00 0.0000000000000000e+00 0.0000000000000000e+00  0.0000000000000000e+00 0.0000000000000000e+00 0.0000000000000000e+00  0.0000000000000000e+00 0.0000000000000000e+00 0.0000000000000000e+00  0.0000000000000000e+00 0.0000000000000000e+00 0.0000000000000000e+00  0.0000000000000000e+00 0.0000000000000000e+00 0.0000000000000000e+00  0.0000000000000000e+00 0.0000000000000000e+00 0.0000000000000000e+00  0.0000000000000000e+00 0.0000000000000000e+00 0.0000000000000000e+00  0.0000000000000000e+00 0.0000000000000000e+00 0.0000000000000000e+00  0.0000000000000000e+00 0.0000000000000000e+00 0.0000000000000000e+00  0.0000000000000000e+00 0.0000000000000000e+00 0.0000000000000000e+00  0.0000000000000000e+00 0.0000000000000000e+00 0.0000000000000000e+00  0.0000000000000000e+00 0.0000000000000000e+00 0.0000000000000000e+00  0.0000000000000000e+00 0.0000000000000000e+00 0.0000000000000000e+00  0.0000000000000000e+00 0.0000000000000000e+00 0.0000000000000000e+00  0.0000000000000000e+00 0.0000000000000000e+00 0.0000000000000000e+00  0.0000000000000000e+00 0.0000000000000000e+00 0.0000000000000000e+00  0.0000000000000000e+00 0.0000000000000000e+00 0.0000000000000000e+00  0.0000000000000000e+00 0.0000000000000000e+00 0.0000000000000000e+00  0.0000000000000000e+00 0.0000000000000000e+00 0.0000000000000000e+00  0.0000000000000000e+00 0.0000000000000000e+00 0.0000000000000000e+00  0.0000000000000000e+00 0.0000000000000000e+00 0.0000000000000000e+00  0.0000000000000000e+00 0.0000000000000000e+00 0.0000000000000000e+00  0.0000000000000000e+00 0.0000000000000000e+00 0.0000000000000000e+00  0.0000000000000000e+00 0.0000000000000000e+00 0.0000000000000000e+00  0.0000000000000000e+00 0.0000000000000000e+00 0.0000000000000000e+00  0.0000000000000000e+00 0.0000000000000000e+00 0.0000000000000000e+00  0.0000000000000000e+00 0.0000000000000000e+00 0.0000000000000000e+00  0.0000000000000000e+00 0.0000000000000000e+00 0.0000000000000000e+00  0.0000000000000000e+00 0.0000000000000000e+00 0.0000000000000000e+00  0.0000000000000000e+00 0.0000000000000000e+00 0.0000000000000000e+00  0.0000000000000000e+00 0.0000000000000000e+00 0.0000000000000000e+00  0.0000000000000000e+00 0.0000000000000000e+00 0.0000000000000000e+00  0.0000000000000000e+00 0.0000000000000000e+00 0.0000000000000000e+00  0.0000000000000000e+00 0.0000000000000000e+00 0.0000000000000000e+00  0.0000000000000000e+00 0.0000000000000000e+00 0.0000000000000000e+00  0.0000000000000000e+00 0.0000000000000000e+00 0.0000000000000000e+00  0.0000000000000000e+00 0.0000000000000000e+00 0.0000000000000000e+00  0.0000000000000000e+00 0.0000000000000000e+00 0.0000000000000000e+00  0.0000000000000000e+00 0.0000000000000000e+00 0.0000000000000000e+00  0.0000000000000000e+00 0.0000000000000000e+00 0.0000000000000000e+00  0.0000000000000000e+00 0.0000000000000000e+00 0.0000000000000000e+00  0.0000000000000000e+00 0.0000000000000000e+00 0.0000000000000000e+00  3.4588090797695396e-07 -2.6924017778602537e-06 0.0000000000000000e+00  8.0785368087417340e-07 -3.2011456962499500e-06 0.0000000000000000e+00  1.3654884686992090e-06 -3.7783163158273025e-06 0.0000000000000000e+00  2.0062932287981466e-06 -4.4945935590594839e-06 0.0000000000000000e+00  2.6121777385158766e-06 -5.3937499932157301e-06 0.0000000000000000e+00  3.2309920778836049e-06 -6.5167038684478804e-06 0.0000000000000000e+00  3.7778442164742863e-06 -7.7874929751008113e-06 0.0000000000000000e+00  4.2912635911984552e-06 -9.2565147277071437e-06 0.0000000000000000e+00  4.8209718466018108e-06 -1.0879859265375033e-05 0.0000000000000000e+00  5.2599767653584566e-06 -1.2651976772935292e-05 0.0000000000000000e+00  5.7180616907938741e-06 -1.4593933500393407e-05 0.0000000000000000e+00  6.0886883548893674e-06 -1.6664100653811520e-05 0.0000000000000000e+00  6.4620636028548411e-06 -1.8881443542899391e-05 0.0000000000000000e+00  6.7697473479077852e-06 -2.1210943854823033e-05 0.0000000000000000e+00  7.0392040603763768e-06 -2.3675723546007132e-05 0.0000000000000000e+00  7.3089845565890014e-06 -2.6250704967285978e-05 0.0000000000000000e+00  7.5030201052761331e-06 -2.8919601160462070e-05 0.0000000000000000e+00  7.6958190063497134e-06 -3.1709727182801975e-05 0.0000000000000000e+00  7.8190541407161150e-06 -3.4573051906936454e-05 0.0000000000000000e+00  7.9361161842058955e-06 -3.7541215030543337e-05 0.0000000000000000e+00  7.9953720952786906e-06 -4.0574604810421487e-05 0.0000000000000000e+00  8.0333724085624289e-06 -4.3697411972005262e-05 0.0000000000000000e+00  8.0265395256678493e-06 -4.6877892774682908e-05 0.0000000000000000e+00  7.9825045597526035e-06 -5.0129969705175086e-05 0.0000000000000000e+00  7.9260268420936452e-06 -5.3439401442275609e-05 0.0000000000000000e+00  7.8192357164599236e-06 -5.6795028100741312e-05 0.0000000000000000e+00  7.6834355420511917e-06 -6.0220362673003875e-05 0.0000000000000000e+00  7.5099943479690227e-06 -6.3670156593341882e-05 0.0000000000000000e+00  7.3071609325890210e-06 -6.7181565163496575e-05 0.0000000000000000e+00  7.0685197845279666e-06 -7.0711501973103283e-05 0.0000000000000000e+00  6.8002539843213794e-06 -7.4294347720024626e-05 0.0000000000000000e+00  6.4966136233349903e-06 -7.7888349265088866e-05 0.0000000000000000e+00  6.1642939035553707e-06 -8.1528772447120979e-05 0.0000000000000000e+00  5.7966325627052344e-06 -8.5172310031005890e-05 0.0000000000000000e+00  5.3982776552765118e-06 -8.8858126315213208e-05 0.0000000000000000e+00  4.9671338817686170e-06 -9.2542572885837709e-05 0.0000000000000000e+00  4.5064777917488385e-06 -9.6262120316467192e-05 0.0000000000000000e+00  4.0133541070275295e-06 -9.9976289945465145e-05 0.0000000000000000e+00  3.4894104344152701e-06 -1.0372089584772047e-04 0.0000000000000000e+00  2.9321272929189030e-06 -1.0745636365956130e-04 0.0000000000000000e+00  2.3400234497140143e-06 -1.1121201167986922e-04 0.0000000000000000e+00  1.7225381094443313e-06 -1.1496614922194042e-04 0.0000000000000000e+00  1.0680795986249815e-06 -1.1872837144137750e-04 0.0000000000000000e+00  3.9511158833692672e-07 -1.2249283023495411e-04 0.0000000000000000e+00  -3.1521329257987638e-07 -1.2624925692021174e-04 0.0000000000000000e+00  -1.0388422446233911e-06 -1.3003180436500306e-04 0.0000000000000000e+00  -4.4477791787112769e-06 -1.3324494807093483e-04 0.0000000000000000e+00  -9.5508450839100974e-06 -1.3188889517701686e-04 0.0000000000000000e+00  -1.1252312797986318e-05 -1.2747014248913954e-04 0.0000000000000000e+00  -1.0515600749531416e-05 -1.2362589946083555e-04 0.0000000000000000e+00  -9.7944877927996370e-06 -1.1976834714414287e-04 0.0000000000000000e+00  -9.1063309902529727e-06 -1.1592660996521614e-04 0.0000000000000000e+00  -8.4377780880519706e-06 -1.1208896609788611e-04 0.0000000000000000e+00  -7.8047567393103276e-06 -1.0825804929309704e-04 0.0000000000000000e+00  -7.1912731451701447e-06 -1.0443813313739218e-04 0.0000000000000000e+00  -6.6118355409211158e-06 -1.0061625139504359e-04 0.0000000000000000e+00  -6.0553886416308645e-06 -9.6820589236752135e-05 0.0000000000000000e+00  -5.5293043941753547e-06 -9.3019084152228587e-05 0.0000000000000000e+00  -5.0238965409050937e-06 -8.9248753822409845e-05 0.0000000000000000e+00  -4.5498115280609596e-06 -8.5477347503371898e-05 0.0000000000000000e+00  -4.0940379253308463e-06 -8.1741984960356483e-05 0.0000000000000000e+00  -3.6699431123672082e-06 -7.8011295074202982e-05 0.0000000000000000e+00  -3.2611327577600441e-06 -7.4321533096051388e-05 0.0000000000000000e+00  -2.8856544309558807e-06 -7.0642304938453563e-05 0.0000000000000000e+00  -2.5228181802251368e-06 -6.7009863083281854e-05 0.0000000000000000e+00  -2.1951139055236839e-06 -6.3394838088387599e-05 0.0000000000000000e+00  -1.8767226945120324e-06 -5.9834443057243654e-05 0.0000000000000000e+00  -1.5951340676886005e-06 -5.6299836180961106e-05 0.0000000000000000e+00  -1.3189110968109201e-06 -5.2827419254761700e-05 0.0000000000000000e+00  -1.0818650626033986e-06 -4.9390341548891965e-05 0.0000000000000000e+00  -8.5152127882979754e-07 -4.6018868768387117e-05 0.0000000000000000e+00  -6.5242665500601575e-07 -4.2697671518428437e-05 0.0000000000000000e+00  -4.8045658250141136e-07 -3.9452872630224253e-05 0.0000000000000000e+00  -3.0443801049258102e-07 -3.6266436730456346e-05 0.0000000000000000e+00  -1.6612495138071550e-07 -3.3155087952688850e-05 0.0000000000000000e+00  -3.7139880895935324e-08 -3.0136537986710513e-05 0.0000000000000000e+00  6.2608052636567763e-08 -2.7191241512468909e-05 0.0000000000000000e+00  1.5222515030777375e-07 -2.4354403415749541e-05 0.0000000000000000e+00  2.1319819333768632e-07 -2.1599539387330815e-05 0.0000000000000000e+00  2.7365723249623949e-07 -1.8975160826920460e-05 0.0000000000000000e+00  2.9581598527433349e-07 -1.6440116020534283e-05 0.0000000000000000e+00  2.9409914059293802e-07 -1.4050300601908541e-05 0.0000000000000000e+00  3.1165976403586731e-07 -1.1763136280413936e-05 0.0000000000000000e+00  2.8782168106616598e-07 -9.6227284222559075e-06 0.0000000000000000e+00  2.6172565387614855e-07 -7.6354421073738771e-06 0.0000000000000000e+00  2.0447017655766824e-07 -5.7851194492752447e-06 0.0000000000000000e+00  1.6012261600750047e-07 -4.1199545159258246e-06 0.0000000000000000e+00  6.8871329474451236e-08 -2.5929379780601420e-06 0.0000000000000000e+00  -4.1910395842905369e-08 -1.2728348968953723e-06 0.0000000000000000e+00  -1.1425312879655944e-07 -1.0405025808936356e-07 0.0000000000000000e+00  -2.3316138623027795e-07 8.7636350874215869e-07 0.0000000000000000e+00  -2.9052398785120558e-07 1.6466112818968035e-06 0.0000000000000000e+00  -3.2627995737036286e-07 2.1285667492583402e-06 0.0000000000000000e+00  -1.9366953545369411e-07 2.2536666415842127e-06 0.0000000000000000e+00  -3.0510787195477487e-07 -2.3987481005662237e-07 0.0000000000000000e+00  -5.7848978925837123e-06 -1.2684804004700677e-04 0.0000000000000000e+00  -4.3353113513864647e-06 -1.1958141253248341e-04 0.0000000000000000e+00  -2.3725081337633625e-06 -1.0771640042125553e-04 0.0000000000000000e+00  6.8457062787018505e-07 -1.2801665990951945e-06 0.0000000000000000e+00  -1.3166890941954572e-06 -1.0027458837550000e-04 0.0000000000000000e+00  1.3662204264636215e-06 -3.0436209197049996e-06 0.0000000000000000e+00  -2.9476649457858849e-07 -9.2756076557405290e-05 0.0000000000000000e+00  2.3329774664501702e-06 -7.4155950873097026e-06 0.0000000000000000e+00  2.8599020605817229e-06 -1.1012145455442904e-05 0.0000000000000000e+00  6.1298947589442575e-07 -8.5296956909639422e-05 0.0000000000000000e+00  3.6471379530852675e-06 -2.2616221826692948e-05 0.0000000000000000e+00  2.0905092883283260e-06 -7.0639038594063057e-05 0.0000000000000000e+00  3.2203977555159220e-06 -1.5018363568103804e-05 0.0000000000000000e+00  3.8301212825837267e-06 -2.7968560430130855e-05 0.0000000000000000e+00  2.6619581213321217e-06 -6.3489216740891241e-05 0.0000000000000000e+00  1.4078063764119038e-06 -7.7916947879820130e-05 0.0000000000000000e+00  3.8656629316615772e-06 -3.3784827489346935e-05 0.0000000000000000e+00  3.1221675130186442e-06 -5.6498392750932518e-05 0.0000000000000000e+00  3.7444340858724977e-06 -3.9655173595061034e-05 0.0000000000000000e+00  3.5261657444487412e-06 -4.9863171117176228e-05 0.0000000000000000e+00  3.6624013386985272e-06 -4.4489479487669926e-05 0.0000000000000000e+00  3.4952322360694771e-06 -1.8559414287908917e-05 0.0000000000000000e+00  -3.4586420375557270e-06 -1.1385444385911431e-04 0.0000000000000000e+00  1.8698900566769572e-06 -4.9914729091433216e-06 0.0000000000000000e+00  -6.8255231537785255e-06 -1.2272382921834485e-04 0.0000000000000000e+00  -9.1337156793832557e-09 3.5060339942055485e-07 0.0000000000000000e+00  -2.2528811698317921e-06 -9.6045125592460198e-05 0.0000000000000000e+00  -3.3404981373220707e-06 -1.0360600604025510e-04 0.0000000000000000e+00  1.4887725414704858e-06 -3.0824252132706997e-06 0.0000000000000000e+00  3.3179022601841943e-06 -9.8671326250746973e-06 0.0000000000000000e+00  3.4974371919838099e-07 -7.3741584199266244e-05 0.0000000000000000e+00  -1.2761957540849589e-06 -8.8534336611686485e-05 0.0000000000000000e+00  4.8237619609625330e-06 -2.5880072810936787e-05 0.0000000000000000e+00  1.0023451616694414e-06 -6.6505081363191982e-05 0.0000000000000000e+00  3.8898292836102907e-06 -1.3782783441271178e-05 0.0000000000000000e+00  4.9860417116028804e-06 -3.1491539606318538e-05 0.0000000000000000e+00  1.5493105162989012e-06 -5.9411966769273256e-05 0.0000000000000000e+00  -4.0936622168522363e-07 -8.1092605838614480e-05 0.0000000000000000e+00  5.2956272760643804e-06 -3.7568865914676154e-05 0.0000000000000000e+00  1.9919443407286968e-06 -5.2494493724764810e-05 0.0000000000000000e+00  -3.9375844822050166e-07 -6.4462535047724662e-07 0.0000000000000000e+00  -4.7643862643656088e-07 4.9725471836391759e-07 0.0000000000000000e+00  -5.2238733792317891e-06 -1.3014534497720603e-04 0.0000000000000000e+00  5.3378334451338689e-07 -1.