<?xml version="1.0"?>
<VTKFile type="UnstructuredGrid"  version="0.1"  >
<UnstructuredGrid>
<Piece  NumberOfPoints="1419" NumberOfCells="2698">
<Points>
<DataArray  type="Float64"  NumberOfComponents="3"  format="ascii">0 0 0  0 0.41 0  2.5 0 0  2.5 0.41 0  0.6 0.19 0  0.6 0.21 0  0.25 0.2 0  0.15 0.2 0  0.2489897948556636 0.21 0  0.2489897948556636 0.19 0  0.6 0.2 0  0 0.3807142857143437 0  0 0.3514285714286952 0  0 0.3221428571430699 0  0 0.29285714285744 0  0 0.2635714285718054 0  0 0.2342857142861561 0  0 0.2050000000005308 0  0 0.175714285714732 0  0 0.1464285714289574 0  0 0.1171428571431897 0  0 0.08785714285737878 0  0 0.05857142857161107 0  0 0.02928571428580012 0  0.03015443760436003 0 0  0.06140001986583606 0 0  0.09377624077125973 0 0  0.1273239957535082 0 0  0.1620856860351972 0 0  0.1981052433264291 0 0  0.235428184091502 0 0  0.2741016576309132 0 0  0.3141745521465447 0 0  0.3556974926295285 0 0  0.3987229542472677 0 0  0.4433053055141081 0 0  0.4895008759286886 0 0  0.5373680609405097 0 0  0.5869673343216626 0 0  0.6383613676634521 0 0  0.6916151138468254 0 0  0.7467958595648856 0 0  0.8039733463919316 0 0  0.8632198139502143 0 0  0.9246101326867038 0 0  0.9882218810934433 0 0  1.054135445558498 0 0  1.122434100542598 0 0  1.193204177141305 0 0  1.266535089879536 0 0  1.342519516046404 0 0  1.421253448503939 0 0  1.502836389106271 0 0  1.587371439758838 0 0  1.674965418777374 0 0  1.765729001825544 0 0  1.859776908880082 0 0  1.957227977487062 0 0  2.058205329869943 0 0  2.162836591189951 0 0  2.271253957290865 0 0  2.383594446803425 0 0  2.5 0.1024999999997612 0  2.5 0.2049999999994743 0  2.5 0.3074999999997183 0  2.383594446803656 0.41 0  2.271253957291315 0.41 0  2.162836591190598 0.41 0  2.058205329870775 0.41 0  1.957227977488067 0.41 0  1.859776908881246 0.41 0  1.765729001826854 0.41 0  1.674965418778818 0.41 0  1.58737143976041 0.41 0  1.502836389107956 0.41 0  1.421253448505726 0.41 0  1.342519516048286 0.41 0  1.266535089881505 0.41 0  1.193204177143353 0.41 0  1.122434100544716 0.41 0  1.05413544556068 0.41 0  0.9882218810956305 0.41 0  0.9246101326886647 0.41 0  0.8632198139519631 0.41 0  0.8039733463934788 0.41 0  0.7467958595662458 0.41 0  0.6916151138480078 0.41 0  0.6383613676644679 0.41 0  0.5869673343225223 0.41 0  0.5373680609412221 0.41 0  0.4895008759292634 0.41 0  0.4433053055145528 0.41 0  0.3987229542475914 0.41 0  0.3556974926297398 0.41 0  0.3141745521466497 0.41 0  0.2741016576310038 0.41 0  0.2354281840915826 0.41 0  0.1981052433265003 0.41 0  0.1620856860352591 0.41 0  0.1273239957535623 0.41 0  0.09377624077128965 0.41 0  0.06140001986584975 0.41 0  0.03015443760436654 0.41 0  0.2497468076502589 0.2050254481002335 0  0.2497468076502614 0.1949745518997913 0  0.2469965252529372 0.1829317073451959 0  0.2439893735792749 0.1762316384219906 0  0.2400332147834255 0.1700443375285386 0  0.2352133972704371 0.1645032867342007 0  0.2296339016332438 0.1597280261969788 0  0.2234150974217223 0.1558215752574715 0  0.2166911463437691 0.1528682099456123 0  0.2096071079204251 0.1509316448471593 0  0.2023158100364996 0.1500536585536553 0  0.194974551899914 0.1502531923497262 0  0.1877417105387872 0.1515259415822739 0  0.1807733240461124 0.153844448527136 0  0.1742197252835808 0.15715869474974 0  0.1682222986673531 0.1613971801805478 0  0.162910430003803 0.1664684656256651 0  0.1583987151779087 0.1722631454351573 0  0.1547844879126891 0.178656207771761 0  0.1521457199348551 0.1855097315605723 0  0.1505393388476355 0.1926758619366523 0  0.1505393388476328 0.2073241380633295 0  0.1521457199348437 0.2144902684393899 0  0.1547844879126531 0.221343792228163 0  0.1583987151778488 0.2277368545647528 0  0.1629104300036858 0.2335315343742052 0  0.1682222986671726 0.2386028198193036 0  0.1742197252833576 0.2428413052501257 0  0.1807733240458683 0.2461555514727623 0  0.1877417105384929 0.2484740584176516 0  0.1949745518995776 0.2497468076502398 0  0.202315810036185 0.2499463414463592 0  0.2096071079201568 0.2490683551528932 0  0.2166911463435495 0.2471317900544655 0  0.2234150974215506 0.2441784247426195 0  0.2296339016331197 0.2402719738031125 0  0.2352133972703547 0.2354967132658811 0  0.2400332147833751 0.2299556624715287 0  0.2439893735792577 0.2237683615780412 0  0.246996525252926 0.2170682926548348 0  0.25645809709277 0.21 0  0.2639263993298655 0.21 0  0.271394701566961 0.21 0  0.2788630038040554 0.21 0  0.2863313060411479 0.21 0  0.2937996082782405 0.21 0  0.301267910515333 0.21 0  0.3087362127524279 0.21 0  0.3162045149895234 0.21 0  0.3236728172265972 0.21 0  0.3311411194636928 0.21 0  0.3386094217007701 0.21 0  0.3460777239378666 0.21 0  0.3535460261749672 0.21 0  0.3610143284120516 0.21 0  0.3684826306491596 0.21 0  0.3759509328862226 0.21 0  0.383419235123329 0.21 0  0.3908875373604028 0.21 0  0.3983558395975142 0.21 0  0.4058241418345938 0.21 0  0.4132924440716992 0.21 0  0.4207607463087888 0.21 0  0.4282290485459029 0.21 0  0.4356973507830418 0.21 0  0.4431656530201649 0.21 0  0.4506339552573136 0.21 0  0.4581022574944306 0.21 0  0.4655705597315852 0.21 0  0.4730388619686996 0.21 0  0.480507164205851 0.21 0  0.4879754664429498 0.21 0  0.4954437686800938 0.21 0  0.502912070917267 0.21 0  0.5103803731544119 0.21 0  0.5178486753915261 0.21 0  0.5253169776286404 0.21 0  0.5327852798657868 0.21 0  0.5402535821029386 0.21 0  0.54772188434007 0.21 0  0.5551901865771842 0.21 0  0.5626584888143201 0.21 0  0.5701267910514778 0.21 0  0.5775950932886138 0.21 0  0.5850633955257281 0.21 0  0.5925316977628483 0.21 0  0.6 0.2050000000000054 0  0.6 0.1950000000000217 0  0.5925316977628897 0.19 0  0.5850633955257988 0.19 0  0.5775950932887378 0.19 0  0.5701267910515998 0.19 0  0.5626584888145268 0.19 0  0.5551901865773963 0.19 0  0.547721884340339 0.19 0  0.5402535821032429 0.19 0  0.5327852798661811 0.19 0  0.5253169776290537 0.19 0  0.5178486753919799 0.19 0  0.5103803731549078 0.19 0  0.502912070917822 0.19 0  0.4954437686807294 0.19 0  0.4879754664436223 0.19 0  0.4805071642065402 0.19 0  0.4730388619694271 0.19 0  0.4655705597323621 0.19 0  0.4581022574952563 0.19 0  0.4506339552581777 0.19 0  0.4431656530210671 0.19 0  0.4356973507839815 0.19 0  0.4282290485468779 0.19 0  0.4207607463097617 0.19 0  0.4132924440726327 0.19 0  0.4058241418354857 0.19 0  0.3983558395983636 0.19 0  0.3908875373612097 0.19 0  0.3834192351240934 0.19 0  0.3759509328869369 0.19 0  0.3684826306498175 0.19 0  0.361014328412667 0.19 0  0.3535460261755617 0.19 0  0.3460777239384295 0.19 0  0.3386094217012945 0.19 0  0.3311411194641595 0.19 0  0.3236728172270245 0.19 0  0.3162045149898895 0.19 0  0.3087362127527544 0.19 0  0.3012679105156187 0.19 0  0.2937996082784807 0.19 0  0.2863313060413428 0.19 0  0.2788630038042048 0.19 0  0.2713947015670686 0.19 0  0.2639263993299336 0.19 0  0.2564580970927985 0.19 0  0.2607803159922026 0.2000727136295815 0  0.5887803774232762 0.2001272386983733 0  0.5745072403740523 0.2002044435018727 0  0.5511891430099709 0.2001122610077113 0  0.2751288526855082 0.20000000000002 0  0.5365194309847112 0.1999999999999436 0  0.2894621222999649 0.1998691686390484 0  0.5215828265105155 0.1999999999999228 0  0.3127789816668748 0.1998657885438805 0  0.3274069683451451 0.2000000000000796 0  0.5066462220363641 0.199999999999908 0  0.3650630746574081 0.199866017807523 0  0.476773013087985 0.1999999999998713 0  0.3417402379596385 0.1998691686391011 0  0.3796850840047755 0.200000000000134 0  0.4618364086138087 0.1999999999998546 0  0.4917096175621762 0.1999999999998808 0  0.3946216884789568 0.2000000000001512 0  0.446899804139621 0.1999999999998389 0  0.4089549580935208 0.1998691686391595 0  0.4322718174608562 0.200127451265745 0  0.4201487168029707 0.1999966199048527 0  0.3528922713220932 0.2000185703532356 0  0.5633122436674589 0.1999814296467508 0  0.3006558810093873 0.1999966199048318 0  0.5815926498168407 0.1966545283159175 0  0.2677053789419034 0.1964246479135325 0  0.5290511287476175 0.1970915826863981 0  0.5439877332217911 0.197091582686394 0  0.2825131256993216 0.2035478995978015 0  0.3199386661080599 0.202908417313604 0  0.4842413153250809 0.1970915826863873 0  0.5141145242734466 0.1970915826863843 0  0.3722167817676917 0.2029084173136195 0  0.4693047108508938 0.1970915826863783 0  0.3348752705822316 0.202908417313609 0  0.3871533862418661 0.2029084173136212 0  0.4543681063767183 0.1970915826863795 0  0.4991779197992749 0.1970915826863902 0  0.4020059614928624 0.203547899597858 0  0.4394315019025246 0.1970915826863714 0  0.2550657455369551 0.2034088125358657 0  0.2548908499171161 0.1966940311614271 0  0.5946539510196798 0.2024302972968126 0  0.267698176732111 0.2039977513680092 0  0.4261685417851465 0.196409292431739 0  0.3590076176283495 0.196411355804271 0  0.5571672426447437 0.2036011176410121 0  0.3066757059912147 0.1964092924317024 0  0.594380730180568 0.1966558399668133 0  0.4842413153245942 0.2040749161535287 0  0.4693047108503577 0.2040749161535231 0  0.3871533862424271 0.1959250838464788 0  0.372246743208829 0.1959123236376545 0  0.5141145242731028 0.2040749161535395 0  0.4543681063761134 0.2040749161535186 0  0.4019979587101454 0.1959834479682427 0  0.4394608940728603 0.2040870543693135 0  0.5439623148931173 0.2040856076781014 0  0.5290511287473298 0.2040749161535501 0  0.4991779197988497 0.2040749161535382 0  0.3347912413592433 0.1959225448935183 0  0.3199680582793816 0.1959123018030061 0  0.2825051229162361 0.1959834479681729 0  0.3590471196690275 0.2036304442587945 0  0.5571594006495384 0.1963685282145804 0  0.3067669986803285 0.203627750582736 0  0.4262598344738712 0.2036568242185335 0  0.5814408164431408 0.2041285596160068 0  0.5688286748170428 0.1961819304477386 0  0.4145905603063645 0.2038180695522843 0  0.3473758401724931 0.2038180695522752 0  0.2950977245128307 0.2038180695522663 0  0.5688286748170693 0.203818069552238 0  0.2950977245127906 0.1961819304477774 0  0.3473758401723931 0.1961819304478349 0  0.4145905603061963 0.1961819304479011 0  0.2601812407614425 0.2056861609747042
[...]
<PointData  Vectors="f_40-1"> 
<DataArray  type="Float64"  Name="f_40-1"  NumberOfComponents="3" format="ascii">0.0000000000000000e+00 0.0000000000000000e+00 0.0000000000000000e+00  0.0000000000000000e+00 0.0000000000000000e+00 0.0000000000000000e+00  0.0000000000000000e+00 0.0000000000000000e+00 0.0000000000000000e+00  0.0000000000000000e+00 0.0000000000000000e+00 0.0000000000000000e+00  -8.5763001621470270e-06 -1.3724889050473192e-05 0.0000000000000000e+00  -7.4134907689002984e-06 -1.4981044515427029e-05 0.0000000000000000e+00  0.0000000000000000e+00 0.0000000000000000e+00 0.0000000000000000e+00  0.0000000000000000e+00 0.0000000000000000e+00 0.0000000000000000e+00  0.0000000000000000e+00 0.0000000000000000e+00 0.0000000000000000e+00  0.0000000000000000e+00 0.0000000000000000e+00 0.0000000000000000e+00  -8.0475860332910569e-06 -1.4352682321146511e-05 0.0000000000000000e+00  0.0000000000000000e+00 0.0000000000000000e+00 0.0000000000000000e+00  0.0000000000000000e+00 0.0000000000000000e+00 0.0000000000000000e+00  0.0000000000000000e+00 0.0000000000000000e+00 0.0000000000000000e+00  0.0000000000000000e+00 0.0000000000000000e+00 0.0000000000000000e+00  0.0000000000000000e+00 0.0000000000000000e+00 0.0000000000000000e+00  0.0000000000000000e+00 0.0000000000000000e+00 0.0000000000000000e+00  0.0000000000000000e+00 0.0000000000000000e+00 0.0000000000000000e+00  0.0000000000000000e+00 0.0000000000000000e+00 0.0000000000000000e+00  0.0000000000000000e+00 0.0000000000000000e+00 0.0000000000000000e+00  0.0000000000000000e+00 0.0000000000000000e+00 0.0000000000000000e+00  0.0000000000000000e+00 0.0000000000000000e+00 0.0000000000000000e+00  0.0000000000000000e+00 0.0000000000000000e+00 0.0000000000000000e+00  0.0000000000000000e+00 0.0000000000000000e+00 0.0000000000000000e+00  0.0000000000000000e+00 0.0000000000000000e+00 0.0000000000000000e+00  0.0000000000000000e+00 0.0000000000000000e+00 0.0000000000000000e+00  0.0000000000000000e+00 0.0000000000000000e+00 0.0000000000000000e+00  0.0000000000000000e+00 0.0000000000000000e+00 0.0000000000000000e+00  0.0000000000000000e+00 0.0000000000000000e+00 0.0000000000000000e+00  0.0000000000000000e+00 0.0000000000000000e+00 0.0000000000000000e+00  0.0000000000000000e+00 0.0000000000000000e+00 0.0000000000000000e+00  0.0000000000000000e+00 0.0000000000000000e+00 0.0000000000000000e+00  0.0000000000000000e+00 0.0000000000000000e+00 0.0000000000000000e+00  0.0000000000000000e+00 0.0000000000000000e+00 0.0000000000000000e+00  0.0000000000000000e+00 0.0000000000000000e+00 0.0000000000000000e+00  0.0000000000000000e+00 0.0000000000000000e+00 0.0000000000000000e+00  0.0000000000000000e+00 0.0000000000000000e+00 0.0000000000000000e+00  0.0000000000000000e+00 0.0000000000000000e+00 0.0000000000000000e+00  0.0000000000000000e+00 0.0000000000000000e+00 0.0000000000000000e+00  0.0000000000000000e+00 0.0000000000000000e+00 0.0000000000000000e+00  0.0000000000000000e+00 0.0000000000000000e+00 0.0000000000000000e+00  0.0000000000000000e+00 0.0000000000000000e+00 0.0000000000000000e+00  0.0000000000000000e+00 0.0000000000000000e+00 0.0000000000000000e+00  0.0000000000000000e+00 0.0000000000000000e+00 0.0000000000000000e+00  0.0000000000000000e+00 0.0000000000000000e+00 0.0000000000000000e+00  0.0000000000000000e+00 0.0000000000000000e+00 0.0000000000000000e+00  0.0000000000000000e+00 0.0000000000000000e+00 0.0000000000000000e+00  0.0000000000000000e+00 0.0000000000000000e+00 0.0000000000000000e+00  0.0000000000000000e+00 0.0000000000000000e+00 0.0000000000000000e+00  0.0000000000000000e+00 0.0000000000000000e+00 0.0000000000000000e+00  0.0000000000000000e+00 0.0000000000000000e+00 0.0000000000000000e+00  0.0000000000000000e+00 0.0000000000000000e+00 0.0000000000000000e+00  0.0000000000000000e+00 0.0000000000000000e+00 0.0000000000000000e+00  0.0000000000000000e+00 0.0000000000000000e+00 0.0000000000000000e+00  0.0000000000000000e+00 0.0000000000000000e+00 0.0000000000000000e+00  0.0000000000000000e+00 0.0000000000000000e+00 0.0000000000000000e+00  0.0000000000000000e+00 0.0000000000000000e+00 0.0000000000000000e+00  0.0000000000000000e+00 0.0000000000000000e+00 0.0000000000000000e+00  0.0000000000000000e+00 0.0000000000000000e+00 0.0000000000000000e+00  0.0000000000000000e+00 0.0000000000000000e+00 0.0000000000000000e+00  0.0000000000000000e+00 0.0000000000000000e+00 0.0000000000000000e+00  0.0000000000000000e+00 0.0000000000000000e+00 0.0000000000000000e+00  0.0000000000000000e+00 0.0000000000000000e+00 0.0000000000000000e+00  0.0000000000000000e+00 0.0000000000000000e+00 0.0000000000000000e+00  0.0000000000000000e+00 0.0000000000000000e+00 0.0000000000000000e+00  0.0000000000000000e+00 0.0000000000000000e+00 0.0000000000000000e+00  0.0000000000000000e+00 0.0000000000000000e+00 0.0000000000000000e+00  0.0000000000000000e+00 0.0000000000000000e+00 0.0000000000000000e+00  0.0000000000000000e+00 0.0000000000000000e+00 0.0000000000000000e+00  0.0000000000000000e+00 0.0000000000000000e+00 0.0000000000000000e+00  0.0000000000000000e+00 0.0000000000000000e+00 0.0000000000000000e+00  0.0000000000000000e+00 0.0000000000000000e+00 0.0000000000000000e+00  0.0000000000000000e+00 0.0000000000000000e+00 0.0000000000000000e+00  0.0000000000000000e+00 0.0000000000000000e+00 0.0000000000000000e+00  0.0000000000000000e+00 0.0000000000000000e+00 0.0000000000000000e+00  0.0000000000000000e+00 0.0000000000000000e+00 0.0000000000000000e+00  0.0000000000000000e+00 0.0000000000000000e+00 0.0000000000000000e+00  0.0000000000000000e+00 0.0000000000000000e+00 0.0000000000000000e+00  0.0000000000000000e+00 0.0000000000000000e+00 0.0000000000000000e+00  0.0000000000000000e+00 0.0000000000000000e+00 0.0000000000000000e+00  0.0000000000000000e+00 0.0000000000000000e+00 0.0000000000000000e+00  0.0000000000000000e+00 0.0000000000000000e+00 0.0000000000000000e+00  0.0000000000000000e+00 0.0000000000000000e+00 0.0000000000000000e+00  0.0000000000000000e+00 0.0000000000000000e+00 0.0000000000000000e+00  0.0000000000000000e+00 0.0000000000000000e+00 0.0000000000000000e+00  0.0000000000000000e+00 0.0000000000000000e+00 0.0000000000000000e+00  0.0000000000000000e+00 0.0000000000000000e+00 0.0000000000000000e+00  0.0000000000000000e+00 0.0000000000000000e+00 0.0000000000000000e+00  0.0000000000000000e+00 0.0000000000000000e+00 0.0000000000000000e+00  0.0000000000000000e+00 0.0000000000000000e+00 0.0000000000000000e+00  0.0000000000000000e+00 0.0000000000000000e+00 0.0000000000000000e+00  0.0000000000000000e+00 0.0000000000000000e+00 0.0000000000000000e+00  0.0000000000000000e+00 0.0000000000000000e+00 0.0000000000000000e+00  0.0000000000000000e+00 0.0000000000000000e+00 0.0000000000000000e+00  0.0000000000000000e+00 0.0000000000000000e+00 0.0000000000000000e+00  0.0000000000000000e+00 0.0000000000000000e+00 0.0000000000000000e+00  0.0000000000000000e+00 0.0000000000000000e+00 0.0000000000000000e+00  0.0000000000000000e+00 0.0000000000000000e+00 0.0000000000000000e+00  0.0000000000000000e+00 0.0000000000000000e+00 0.0000000000000000e+00  0.0000000000000000e+00 0.0000000000000000e+00 0.0000000000000000e+00  0.0000000000000000e+00 0.0000000000000000e+00 0.0000000000000000e+00  0.0000000000000000e+00 0.0000000000000000e+00 0.0000000000000000e+00  0.0000000000000000e+00 0.0000000000000000e+00 0.0000000000000000e+00  0.0000000000000000e+00 0.0000000000000000e+00 0.0000000000000000e+00  0.0000000000000000e+00 0.0000000000000000e+00 0.0000000000000000e+00  0.0000000000000000e+00 0.0000000000000000e+00 0.0000000000000000e+00  0.0000000000000000e+00 0.0000000000000000e+00 0.0000000000000000e+00  0.0000000000000000e+00 0.0000000000000000e+00 0.0000000000000000e+00  0.0000000000000000e+00 0.0000000000000000e+00 0.0000000000000000e+00  0.0000000000000000e+00 0.0000000000000000e+00 0.0000000000000000e+00  0.0000000000000000e+00 0.0000000000000000e+00 0.0000000000000000e+00  0.0000000000000000e+00 0.0000000000000000e+00 0.0000000000000000e+00  0.0000000000000000e+00 0.0000000000000000e+00 0.0000000000000000e+00  0.0000000000000000e+00 0.0000000000000000e+00 0.0000000000000000e+00  0.0000000000000000e+00 0.0000000000000000e+00 0.0000000000000000e+00  0.0000000000000000e+00 0.0000000000000000e+00 0.0000000000000000e+00  0.0000000000000000e+00 0.0000000000000000e+00 0.0000000000000000e+00  0.0000000000000000e+00 0.0000000000000000e+00 0.0000000000000000e+00  0.0000000000000000e+00 0.0000000000000000e+00 0.0000000000000000e+00  0.0000000000000000e+00 0.0000000000000000e+00 0.0000000000000000e+00  0.0000000000000000e+00 0.0000000000000000e+00 0.0000000000000000e+00  0.0000000000000000e+00 0.0000000000000000e+00 0.0000000000000000e+00  0.0000000000000000e+00 0.0000000000000000e+00 0.0000000000000000e+00  0.0000000000000000e+00 0.0000000000000000e+00 0.0000000000000000e+00  0.0000000000000000e+00 0.0000000000000000e+00 0.0000000000000000e+00  0.0000000000000000e+00 0.0000000000000000e+00 0.0000000000000000e+00  0.0000000000000000e+00 0.0000000000000000e+00 0.0000000000000000e+00  0.0000000000000000e+00 0.0000000000000000e+00 0.0000000000000000e+00  0.0000000000000000e+00 0.0000000000000000e+00 0.0000000000000000e+00  0.0000000000000000e+00 0.0000000000000000e+00 0.0000000000000000e+00  0.0000000000000000e+00 0.0000000000000000e+00 0.0000000000000000e+00  0.0000000000000000e+00 0.0000000000000000e+00 0.0000000000000000e+00  0.0000000000000000e+00 0.0000000000000000e+00 0.0000000000000000e+00  0.0000000000000000e+00 0.0000000000000000e+00 0.0000000000000000e+00  0.0000000000000000e+00 0.0000000000000000e+00 0.0000000000000000e+00  0.0000000000000000e+00 0.0000000000000000e+00 0.0000000000000000e+00  0.0000000000000000e+00 0.0000000000000000e+00 0.0000000000000000e+00  0.0000000000000000e+00 0.0000000000000000e+00 0.0000000000000000e+00  0.0000000000000000e+00 0.0000000000000000e+00 0.0000000000000000e+00  0.0000000000000000e+00 0.0000000000000000e+00 0.0000000000000000e+00  0.0000000000000000e+00 0.0000000000000000e+00 0.0000000000000000e+00  0.0000000000000000e+00 0.0000000000000000e+00 0.0000000000000000e+00  0.0000000000000000e+00 0.0000000000000000e+00 0.0000000000000000e+00  -7.0410710000671778e-08 -1.0732299557549730e-06 0.0000000000000000e+00  -1.1078762895433427e-07 -1.1820998900652557e-06 0.0000000000000000e+00  -1.0297196550297234e-07 -1.2516632632221901e-06 0.0000000000000000e+00  -6.8961405279682700e-08 -1.3087098403453798e-06 0.0000000000000000e+00  -3.3802430454755544e-08 -1.3836618864372299e-06 0.0000000000000000e+00  -4.7250584951587391e-09 -1.4884586057990832e-06 0.0000000000000000e+00  1.2902404340819082e-08 -1.6078949730425450e-06 0.0000000000000000e+00  1.9634685373473756e-08 -1.7477361388300049e-06 0.0000000000000000e+00  2.3739605737097999e-08 -1.9044631417825496e-06 0.0000000000000000e+00  1.1641971919561204e-08 -2.0749211220435396e-06 0.0000000000000000e+00  -4.2224796459613208e-09 -2.2665057428298988e-06 0.0000000000000000e+00  -3.5478132829642803e-08 -2.4686692640426643e-06 0.0000000000000000e+00  -7.3202400672950118e-08 -2.6884162598674691e-06 0.0000000000000000e+00  -1.2268533040699459e-07 -2.9205668312015139e-06 0.0000000000000000e+00  -1.8404857765002530e-07 -3.1669112551901288e-06 0.0000000000000000e+00  -2.4982160575625510e-07 -3.4270051161594996e-06 0.0000000000000000e+00  -3.3102033528573127e-07 -3.6949355917947257e-06 0.0000000000000000e+00  -4.1843961149667630e-07 -3.9804255108003297e-06 0.0000000000000000e+00  -5.1989900834821206e-07 -4.2704155339754899e-06 0.0000000000000000e+00  -6.2798936868510612e-07 -4.5766115010331017e-06 0.0000000000000000e+00  -7.4904193355403929e-07 -4.8868838829935116e-06 0.0000000000000000e+00  -8.7959586654978278e-07 -5.2098905428654844e-06 0.0000000000000000e+00  -1.0197812550893550e-06 -5.5399419423467863e-06 0.0000000000000000e+00  -1.1719796074421398e-06 -5.8780061104034238e-06 0.0000000000000000e+00  -1.3299797256064934e-06 -6.2249237681463039e-06 0.0000000000000000e+00  -1.5012903674899444e-06 -6.5748552394031448e-06 0.0000000000000000e+00  -1.6823314501774756e-06 -6.9378540533648630e-06 0.0000000000000000e+00  -1.8740107793514780e-06 -7.3001931341037182e-06 0.0000000000000000e+00  -2.0754362962301194e-06 -7.6744433504658754e-06 0.0000000000000000e+00  -2.2872514534038429e-06 -8.0480953256346640e-06 0.0000000000000000e+00  -2.5087931750121862e-06 -8.4324915910130560e-06 0.0000000000000000e+00  -2.7409426401864624e-06 -8.8155415433976135e-06 0.0000000000000000e+00  -2.9824221701197143e-06 -9.2089364078849119e-06 0.0000000000000000e+00  -3.2347794925150715e-06 -9.5994831424167607e-06 0.0000000000000000e+00  -3.4973341680766495e-06 -1.0000393034825642e-05 0.0000000000000000e+00  -3.7700556910827644e-06 -1.0398278319066073e-05 0.0000000000000000e+00  -4.0524549167763236e-06 -1.0805261680914912e-05 0.0000000000000000e+00  -4.3451725354300703e-06 -1.1208896881815174e-05 0.0000000000000000e+00  -4.6481135627525975e-06 -1.1620936775193573e-05 0.0000000000000000e+00  -4.9618651213938736e-06 -1.2029177376113193e-05 0.0000000000000000e+00  -5.2871300386578563e-06 -1.2443097564572885e-05 0.0000000000000000e+00  -5.6204580578305705e-06 -1.2856242654967102e-05 0.0000000000000000e+00  -5.9664973070097079e-06 -1.3271655700273939e-05 0.0000000000000000e+00  -6.3185559474008934e-06 -1.3687741371090789e-05 0.0000000000000000e+00  -6.6827053639906013e-06 -1.4101433222669389e-05 0.0000000000000000e+00  -7.0515725253875876e-06 -1.4523340077522679e-05 0.0000000000000000e+00  -7.7500778024469194e-06 -1.4666866896965940e-05 0.0000000000000000e+00  -8.3287864712995324e-06 -1.4039137903465744e-05 0.0000000000000000e+00  -8.2116877050008998e-06 -1.3315106959594812e-05 0.0000000000000000e+00  -7.8388346031612264e-06 -1.2870881432955309e-05 0.0000000000000000e+00  -7.4715104731466381e-06 -1.2422546155882623e-05 0.0000000000000000e+00  -7.1152403357255392e-06 -1.1978791087945952e-05 0.0000000000000000e+00  -6.7655259021205167e-06 -1.1536171249108773e-05 0.0000000000000000e+00  -6.4284458318811337e-06 -1.1095271748400923e-05 0.0000000000000000e+00  -6.0983375615876883e-06 -1.0657365341738624e-05 0.0000000000000000e+00  -5.7798371969760445e-06 -1.0218193350057749e-05 0.0000000000000000e+00  -5.4700775109116991e-06 -9.7863340873961322e-06 0.0000000000000000e+00  -5.1706749370485303e-06 -9.3511679722252309e-06 0.0000000000000000e+00  -4.8798108914794258e-06 -8.9244379789863368e-06 0.0000000000000000e+00  -4.5995133426384656e-06 -8.4951313541716354e-06 0.0000000000000000e+00  -4.3274357052891115e-06 -8.0748455669028995e-06 0.0000000000000000e+00  -4.0658117657184571e-06 -7.6526280029037578e-06 0.0000000000000000e+00  -3.8120021867882008e-06 -7.2399225704502559e-06 0.0000000000000000e+00  -3.5689033257719426e-06 -6.8258616857490558e-06 0.0000000000000000e+00  -3.3334953599982823e-06 -6.4219141481696619e-06 0.0000000000000000e+00  -3.1090134326180628e-06 -6.0173648310809223e-06 0.0000000000000000e+00  -2.8917669874904657e-06 -5.6238545204256991e-06 0.0000000000000000e+00  -2.6854920466714025e-06 -5.2306342612105360e-06 0.0000000000000000e+00  -2.4860150793416230e-06 -4.8490481214790776e-06 0.0000000000000000e+00  -2.2977579417615216e-06 -4.4689058522845245e-06 0.0000000000000000e+00  -2.1173651413340778e-06 -4.0992421665073197e-06 0.0000000000000000e+00  -1.9457251862339835e-06 -3.7351955449489735e-06 0.0000000000000000e+00  -1.7853100980907179e-06 -3.3808140835912771e-06 0.0000000000000000e+00  -1.6285811597018239e-06 -3.0342978183768312e-06 0.0000000000000000e+00  -1.4838935772248752e-06 -2.6947839833163105e-06 0.0000000000000000e+00  -1.3465110691616867e-06 -2.3700356101369516e-06 0.0000000000000000e+00  -1.2191210584722103e-06 -2.0496992192890181e-06 0.0000000000000000e+00  -1.0994384594837698e-06 -1.7462273051720076e-06 0.0000000000000000e+00  -9.8944699462137046e-07 -1.4481025139891323e-06 0.0000000000000000e+00  -8.8684571345537290e-07 -1.1675745031601290e-06 0.0000000000000000e+00  -7.9307176583041802e-07 -8.9561269358982698e-07 0.0000000000000000e+00  -7.0978045345129396e-07 -6.4045023083967078e-07 0.0000000000000000e+00  -6.2884542065669017e-07 -3.9672991247324883e-07 0.0000000000000000e+00  -5.5992545921710731e-07 -1.6768651051028516e-07 0.0000000000000000e+00  -4.9767344460850046e-07 4.1402690237628182e-08 0.0000000000000000e+00  -4.4508180159235601e-07 2.3921114429820976e-07 0.0000000000000000e+00  -3.9823968005115984e-07 4.1524510294392884e-07 0.0000000000000000e+00  -3.6081704398759747e-07 5.7751336240512851e-07 0.0000000000000000e+00  -3.3308858250041771e-07 7.1796733970564435e-07 0.0000000000000000e+00  -3.0548135571806074e-07 8.4204067677047557e-07 0.0000000000000000e+00  -2.9080648073831715e-07 9.5392758354808187e-07 0.0000000000000000e+00  -2.6480938107782775e-07 1.0418153974012355e-06 0.0000000000000000e+00  -2.2165807673991695e-07 1.0749849722044805e-06 0.0000000000000000e+00  -1.2589177221861401e-07 1.0246147301197497e-06 0.0000000000000000e+00  -3.3879316407949756e-07 -2.9682023253406034e-08 0.0000000000000000e+00  -7.4578976780633018e-06 -1.3708198021534379e-05 0.0000000000000000e+00  -6.7410542653307504e-06 -1.2889046848706478e-05 0.0000000000000000e+00  -5.6797600435243839e-06 -1.1547243644223637e-05 0.0000000000000000e+00  -1.9084662662366333e-07 -1.2563054558355939e-07 0.0000000000000000e+00  -5.0664822616665341e-06 -1.0706706351735456e-05 0.0000000000000000e+00  -1.7285743757616059e-07 -2.8855271096559809e-07 0.0000000000000000e+00  -4.4737131882574836e-06 -9.8675187993557590e-06 0.0000000000000000e+00  -2.0748888652416982e-07 -7.2835229028965798e-07 0.0000000000000000e+00  -2.6763363235870852e-07 -1.1047128917932792e-06 0.0000000000000000e+00  -3.9202321908705003e-06 -9.0398884425771003e-06 0.0000000000000000e+00  -5.8966952964445776e-07 -2.2906934381460878e-06 0.0000000000000000e+00  -2.9300550528453919e-06 -7.4283558736225076e-06 0.0000000000000000e+00  -3.6431901961646773e-07 -1.5044972920208600e-06 0.0000000000000000e+00  -7.7229318611712693e-07 -2.8592162056824459e-06 0.0000000000000000e+00  -2.4929358585379432e-06 -6.6497162331261062e-06 0.0000000000000000e+00  -3.4057360889488614e-06 -8.2259600301707336e-06 0.0000000000000000e+00  -9.9956762602169295e-07 -3.4700262703921335e-06 0.0000000000000000e+00  -2.0943114396047520e-06 -5.8932212594706724e-06 0.0000000000000000e+00  -1.2581768087858730e-06 -4.0815374210221210e-06 0.0000000000000000e+00  -1.7339284736520016e-06 -5.1880255866533212e-06 0.0000000000000000e+00  -1.4783257615252293e-06 -4.6050172129698512e-06 0.0000000000000000e+00  -4.5901654968886507e-07 -1.8815804975651452e-06 0.0000000000000000e+00  -6.2328780043426641e-06 -1.2231775898315031e-05 0.0000000000000000e+00  -1.8039367869961127e-07 -4.9466662952170344e-07 0.0000000000000000e+00  -7.2934543891080672e-06 -1.3078081154437041e-05 0.0000000000000000e+00  -2.6134687057348119e-07 3.6332124380535756e-07 0.0000000000000000e+00  -4.9284076609322152e-06 -1.0076920356275622e-05 0.0000000000000000e+00  -5.5425739570461857e-06 -1.0928202290927147e-05 0.0000000000000000e+00  -1.3385467900173774e-07 -6.0744172461793790e-07 0.0000000000000000e+00  -1.6034816856578961e-07 -1.2230904576153324e-06 0.0000000000000000e+00  -3.3181813501886585e-06 -7.5939892009651333e-06 0.0000000000000000e+00  -4.3530940246180226e-06 -9.2358221171929620e-06 0.0000000000000000e+00  -5.6280033845028557e-07 -2.8565276380491073e-06 0.0000000000000000e+00  -2.8580442645075219e-06 -6.7982026032089459e-06 0.0000000000000000e+00  -2.2913351071408897e-07 -1.6178512322133351e-06 0.0000000000000000e+00  -7.6336863018613781e-07 -3.4390098677548854e-06 0.0000000000000000e+00  -2.4359135230267005e-06 -6.0230270842708567e-06 0.0000000000000000e+00  -3.8164941715047308e-06 -8.4073664502399926e-06 0.0000000000000000e+00  -9.7221011819255309e-07 -4.1196781113057319e-06 0.0000000000000000e+00  -2.0513456474652251e-06 -5.2716988207843756e-06 0.0000000000000000e+00  -2.8218170054807921e-07 -2.5709622862067951e-07 0.0000000000000000e+00  -2.8498948304879380e-07 2.2263381242580348e-07 0.0000000000000000e+00  -7.6287797196398219e-06 