<?xml version="1.0"?>
<VTKFile type="UnstructuredGrid"  version="0.1"  >
<UnstructuredGrid>
<Piece  NumberOfPoints="1419" NumberOfCells="2698">
<Points>
<DataArray  type="Float64"  NumberOfComponents="3"  format="ascii">0 0 0  0 0.41 0  2.5 0 0  2.5 0.41 0  0.6 0.19 0  0.6 0.21 0  0.25 0.2 0  0.15 0.2 0  0.2489897948556636 0.21 0  0.2489897948556636 0.19 0  0.6 0.2 0  0 0.3807142857143437 0  0 0.3514285714286952 0  0 0.3221428571430699 0  0 0.29285714285744 0  0 0.2635714285718054 0  0 0.2342857142861561 0  0 0.2050000000005308 0  0 0.175714285714732 0  0 0.1464285714289574 0  0 0.1171428571431897 0  0 0.08785714285737878 0  0 0.05857142857161107 0  0 0.02928571428580012 0  0.03015443760436003 0 0  0.06140001986583606 0 0  0.09377624077125973 0 0  0.1273239957535082 0 0  0.1620856860351972 0 0  0.1981052433264291 0 0  0.235428184091502 0 0  0.2741016576309132 0 0  0.3141745521465447 0 0  0.3556974926295285 0 0  0.3987229542472677 0 0  0.4433053055141081 0 0  0.4895008759286886 0 0  0.5373680609405097 0 0  0.5869673343216626 0 0  0.6383613676634521 0 0  0.6916151138468254 0 0  0.7467958595648856 0 0  0.8039733463919316 0 0  0.8632198139502143 0 0  0.9246101326867038 0 0  0.9882218810934433 0 0  1.054135445558498 0 0  1.122434100542598 0 0  1.193204177141305 0 0  1.266535089879536 0 0  1.342519516046404 0 0  1.421253448503939 0 0  1.502836389106271 0 0  1.587371439758838 0 0  1.674965418777374 0 0  1.765729001825544 0 0  1.859776908880082 0 0  1.957227977487062 0 0  2.058205329869943 0 0  2.162836591189951 0 0  2.271253957290865 0 0  2.383594446803425 0 0  2.5 0.1024999999997612 0  2.5 0.2049999999994743 0  2.5 0.3074999999997183 0  2.383594446803656 0.41 0  2.271253957291315 0.41 0  2.162836591190598 0.41 0  2.058205329870775 0.41 0  1.957227977488067 0.41 0  1.859776908881246 0.41 0  1.765729001826854 0.41 0  1.674965418778818 0.41 0  1.58737143976041 0.41 0  1.502836389107956 0.41 0  1.421253448505726 0.41 0  1.342519516048286 0.41 0  1.266535089881505 0.41 0  1.193204177143353 0.41 0  1.122434100544716 0.41 0  1.05413544556068 0.41 0  0.9882218810956305 0.41 0  0.9246101326886647 0.41 0  0.8632198139519631 0.41 0  0.8039733463934788 0.41 0  0.7467958595662458 0.41 0  0.6916151138480078 0.41 0  0.6383613676644679 0.41 0  0.5869673343225223 0.41 0  0.5373680609412221 0.41 0  0.4895008759292634 0.41 0  0.4433053055145528 0.41 0  0.3987229542475914 0.41 0  0.3556974926297398 0.41 0  0.3141745521466497 0.41 0  0.2741016576310038 0.41 0  0.2354281840915826 0.41 0  0.1981052433265003 0.41 0  0.1620856860352591 0.41 0  0.1273239957535623 0.41 0  0.09377624077128965 0.41 0  0.06140001986584975 0.41 0  0.03015443760436654 0.41 0  0.2497468076502589 0.2050254481002335 0  0.2497468076502614 0.1949745518997913 0  0.2469965252529372 0.1829317073451959 0  0.2439893735792749 0.1762316384219906 0  0.2400332147834255 0.1700443375285386 0  0.2352133972704371 0.1645032867342007 0  0.2296339016332438 0.1597280261969788 0  0.2234150974217223 0.1558215752574715 0  0.2166911463437691 0.1528682099456123 0  0.2096071079204251 0.1509316448471593 0  0.2023158100364996 0.1500536585536553 0  0.194974551899914 0.1502531923497262 0  0.1877417105387872 0.1515259415822739 0  0.1807733240461124 0.153844448527136 0  0.1742197252835808 0.15715869474974 0  0.1682222986673531 0.1613971801805478 0  0.162910430003803 0.1664684656256651 0  0.1583987151779087 0.1722631454351573 0  0.1547844879126891 0.178656207771761 0  0.1521457199348551 0.1855097315605723 0  0.1505393388476355 0.1926758619366523 0  0.1505393388476328 0.2073241380633295 0  0.1521457199348437 0.2144902684393899 0  0.1547844879126531 0.221343792228163 0  0.1583987151778488 0.2277368545647528 0  0.1629104300036858 0.2335315343742052 0  0.1682222986671726 0.2386028198193036 0  0.1742197252833576 0.2428413052501257 0  0.1807733240458683 0.2461555514727623 0  0.1877417105384929 0.2484740584176516 0  0.1949745518995776 0.2497468076502398 0  0.202315810036185 0.2499463414463592 0  0.2096071079201568 0.2490683551528932 0  0.2166911463435495 0.2471317900544655 0  0.2234150974215506 0.2441784247426195 0  0.2296339016331197 0.2402719738031125 0  0.2352133972703547 0.2354967132658811 0  0.2400332147833751 0.2299556624715287 0  0.2439893735792577 0.2237683615780412 0  0.246996525252926 0.2170682926548348 0  0.25645809709277 0.21 0  0.2639263993298655 0.21 0  0.271394701566961 0.21 0  0.2788630038040554 0.21 0  0.2863313060411479 0.21 0  0.2937996082782405 0.21 0  0.301267910515333 0.21 0  0.3087362127524279 0.21 0  0.3162045149895234 0.21 0  0.3236728172265972 0.21 0  0.3311411194636928 0.21 0  0.3386094217007701 0.21 0  0.3460777239378666 0.21 0  0.3535460261749672 0.21 0  0.3610143284120516 0.21 0  0.3684826306491596 0.21 0  0.3759509328862226 0.21 0  0.383419235123329 0.21 0  0.3908875373604028 0.21 0  0.3983558395975142 0.21 0  0.4058241418345938 0.21 0  0.4132924440716992 0.21 0  0.4207607463087888 0.21 0  0.4282290485459029 0.21 0  0.4356973507830418 0.21 0  0.4431656530201649 0.21 0  0.4506339552573136 0.21 0  0.4581022574944306 0.21 0  0.4655705597315852 0.21 0  0.4730388619686996 0.21 0  0.480507164205851 0.21 0  0.4879754664429498 0.21 0  0.4954437686800938 0.21 0  0.502912070917267 0.21 0  0.5103803731544119 0.21 0  0.5178486753915261 0.21 0  0.5253169776286404 0.21 0  0.5327852798657868 0.21 0  0.5402535821029386 0.21 0  0.54772188434007 0.21 0  0.5551901865771842 0.21 0  0.5626584888143201 0.21 0  0.5701267910514778 0.21 0  0.5775950932886138 0.21 0  0.5850633955257281 0.21 0  0.5925316977628483 0.21 0  0.6 0.2050000000000054 0  0.6 0.1950000000000217 0  0.5925316977628897 0.19 0  0.5850633955257988 0.19 0  0.5775950932887378 0.19 0  0.5701267910515998 0.19 0  0.5626584888145268 0.19 0  0.5551901865773963 0.19 0  0.547721884340339 0.19 0  0.5402535821032429 0.19 0  0.5327852798661811 0.19 0  0.5253169776290537 0.19 0  0.5178486753919799 0.19 0  0.5103803731549078 0.19 0  0.502912070917822 0.19 0  0.4954437686807294 0.19 0  0.4879754664436223 0.19 0  0.4805071642065402 0.19 0  0.4730388619694271 0.19 0  0.4655705597323621 0.19 0  0.4581022574952563 0.19 0  0.4506339552581777 0.19 0  0.4431656530210671 0.19 0  0.4356973507839815 0.19 0  0.4282290485468779 0.19 0  0.4207607463097617 0.19 0  0.4132924440726327 0.19 0  0.4058241418354857 0.19 0  0.3983558395983636 0.19 0  0.3908875373612097 0.19 0  0.3834192351240934 0.19 0  0.3759509328869369 0.19 0  0.3684826306498175 0.19 0  0.361014328412667 0.19 0  0.3535460261755617 0.19 0  0.3460777239384295 0.19 0  0.3386094217012945 0.19 0  0.3311411194641595 0.19 0  0.3236728172270245 0.19 0  0.3162045149898895 0.19 0  0.3087362127527544 0.19 0  0.3012679105156187 0.19 0  0.2937996082784807 0.19 0  0.2863313060413428 0.19 0  0.2788630038042048 0.19 0  0.2713947015670686 0.19 0  0.2639263993299336 0.19 0  0.2564580970927985 0.19 0  0.2607803159922026 0.2000727136295815 0  0.5887803774232762 0.2001272386983733 0  0.5745072403740523 0.2002044435018727 0  0.5511891430099709 0.2001122610077113 0  0.2751288526855082 0.20000000000002 0  0.5365194309847112 0.1999999999999436 0  0.2894621222999649 0.1998691686390484 0  0.5215828265105155 0.1999999999999228 0  0.3127789816668748 0.1998657885438805 0  0.3274069683451451 0.2000000000000796 0  0.5066462220363641 0.199999999999908 0  0.3650630746574081 0.199866017807523 0  0.476773013087985 0.1999999999998713 0  0.3417402379596385 0.1998691686391011 0  0.3796850840047755 0.200000000000134 0  0.4618364086138087 0.1999999999998546 0  0.4917096175621762 0.1999999999998808 0  0.3946216884789568 0.2000000000001512 0  0.446899804139621 0.1999999999998389 0  0.4089549580935208 0.1998691686391595 0  0.4322718174608562 0.200127451265745 0  0.4201487168029707 0.1999966199048527 0  0.3528922713220932 0.2000185703532356 0  0.5633122436674589 0.1999814296467508 0  0.3006558810093873 0.1999966199048318 0  0.5815926498168407 0.1966545283159175 0  0.2677053789419034 0.1964246479135325 0  0.5290511287476175 0.1970915826863981 0  0.5439877332217911 0.197091582686394 0  0.2825131256993216 0.2035478995978015 0  0.3199386661080599 0.202908417313604 0  0.4842413153250809 0.1970915826863873 0  0.5141145242734466 0.1970915826863843 0  0.3722167817676917 0.2029084173136195 0  0.4693047108508938 0.1970915826863783 0  0.3348752705822316 0.202908417313609 0  0.3871533862418661 0.2029084173136212 0  0.4543681063767183 0.1970915826863795 0  0.4991779197992749 0.1970915826863902 0  0.4020059614928624 0.203547899597858 0  0.4394315019025246 0.1970915826863714 0  0.2550657455369551 0.2034088125358657 0  0.2548908499171161 0.1966940311614271 0  0.5946539510196798 0.2024302972968126 0  0.267698176732111 0.2039977513680092 0  0.4261685417851465 0.196409292431739 0  0.3590076176283495 0.196411355804271 0  0.5571672426447437 0.2036011176410121 0  0.3066757059912147 0.1964092924317024 0  0.594380730180568 0.1966558399668133 0  0.4842413153245942 0.2040749161535287 0  0.4693047108503577 0.2040749161535231 0  0.3871533862424271 0.1959250838464788 0  0.372246743208829 0.1959123236376545 0  0.5141145242731028 0.2040749161535395 0  0.4543681063761134 0.2040749161535186 0  0.4019979587101454 0.1959834479682427 0  0.4394608940728603 0.2040870543693135 0  0.5439623148931173 0.2040856076781014 0  0.5290511287473298 0.2040749161535501 0  0.4991779197988497 0.2040749161535382 0  0.3347912413592433 0.1959225448935183 0  0.3199680582793816 0.1959123018030061 0  0.2825051229162361 0.1959834479681729 0  0.3590471196690275 0.2036304442587945 0  0.5571594006495384 0.1963685282145804 0  0.3067669986803285 0.203627750582736 0  0.4262598344738712 0.2036568242185335 0  0.5814408164431408 0.2041285596160068 0  0.5688286748170428 0.1961819304477386 0  0.4145905603063645 0.2038180695522843 0  0.3473758401724931 0.2038180695522752 0  0.2950977245128307 0.2038180695522663 0  0.5688286748170693 0.203818069552238 0  0.2950977245127906 0.1961819304477774 0  0.3473758401723931 0.1961819304478349 0  0.4145905603061963 0.1961819304479011 0  0.2601812407614425 0.2056861609747042
[...]
<PointData  Vectors="f_40-1"> 
<DataArray  type="Float64"  Name="f_40-1"  NumberOfComponents="3" format="ascii">0.0000000000000000e+00 0.0000000000000000e+00 0.0000000000000000e+00  0.0000000000000000e+00 0.0000000000000000e+00 0.0000000000000000e+00  0.0000000000000000e+00 0.0000000000000000e+00 0.0000000000000000e+00  0.0000000000000000e+00 0.0000000000000000e+00 0.0000000000000000e+00  3.1114952525564596e-05 1.8639203669309084e-03 0.0000000000000000e+00  -8.6489544793506170e-05 1.8616452035648424e-03 0.0000000000000000e+00  0.0000000000000000e+00 0.0000000000000000e+00 0.0000000000000000e+00  0.0000000000000000e+00 0.0000000000000000e+00 0.0000000000000000e+00  0.0000000000000000e+00 0.0000000000000000e+00 0.0000000000000000e+00  0.0000000000000000e+00 0.0000000000000000e+00 0.0000000000000000e+00  -2.7942014597188609e-05 1.8627828318819283e-03 0.0000000000000000e+00  0.0000000000000000e+00 0.0000000000000000e+00 0.0000000000000000e+00  0.0000000000000000e+00 0.0000000000000000e+00 0.0000000000000000e+00  0.0000000000000000e+00 0.0000000000000000e+00 0.0000000000000000e+00  0.0000000000000000e+00 0.0000000000000000e+00 0.0000000000000000e+00  0.0000000000000000e+00 0.0000000000000000e+00 0.0000000000000000e+00  0.0000000000000000e+00 0.0000000000000000e+00 0.0000000000000000e+00  0.0000000000000000e+00 0.0000000000000000e+00 0.0000000000000000e+00  0.0000000000000000e+00 0.0000000000000000e+00 0.0000000000000000e+00  0.0000000000000000e+00 0.0000000000000000e+00 0.0000000000000000e+00  0.0000000000000000e+00 0.0000000000000000e+00 0.0000000000000000e+00  0.0000000000000000e+00 0.0000000000000000e+00 0.0000000000000000e+00  0.0000000000000000e+00 0.0000000000000000e+00 0.0000000000000000e+00  0.0000000000000000e+00 0.0000000000000000e+00 0.0000000000000000e+00  0.0000000000000000e+00 0.0000000000000000e+00 0.0000000000000000e+00  0.0000000000000000e+00 0.0000000000000000e+00 0.0000000000000000e+00  0.0000000000000000e+00 0.0000000000000000e+00 0.0000000000000000e+00  0.0000000000000000e+00 0.0000000000000000e+00 0.0000000000000000e+00  0.0000000000000000e+00 0.0000000000000000e+00 0.0000000000000000e+00  0.0000000000000000e+00 0.0000000000000000e+00 0.0000000000000000e+00  0.0000000000000000e+00 0.0000000000000000e+00 0.0000000000000000e+00  0.0000000000000000e+00 0.0000000000000000e+00 0.0000000000000000e+00  0.0000000000000000e+00 0.0000000000000000e+00 0.0000000000000000e+00  0.0000000000000000e+00 0.0000000000000000e+00 0.0000000000000000e+00  0.0000000000000000e+00 0.0000000000000000e+00 0.0000000000000000e+00  0.0000000000000000e+00 0.0000000000000000e+00 0.0000000000000000e+00  0.0000000000000000e+00 0.0000000000000000e+00 0.0000000000000000e+00  0.0000000000000000e+00 0.0000000000000000e+00 0.0000000000000000e+00  0.0000000000000000e+00 0.0000000000000000e+00 0.0000000000000000e+00  0.0000000000000000e+00 0.0000000000000000e+00 0.0000000000000000e+00  0.0000000000000000e+00 0.0000000000000000e+00 0.0000000000000000e+00  0.0000000000000000e+00 0.0000000000000000e+00 0.0000000000000000e+00  0.0000000000000000e+00 0.0000000000000000e+00 0.0000000000000000e+00  0.0000000000000000e+00 0.0000000000000000e+00 0.0000000000000000e+00  0.0000000000000000e+00 0.0000000000000000e+00 0.0000000000000000e+00  0.0000000000000000e+00 0.0000000000000000e+00 0.0000000000000000e+00  0.0000000000000000e+00 0.0000000000000000e+00 0.0000000000000000e+00  0.0000000000000000e+00 0.0000000000000000e+00 0.0000000000000000e+00  0.0000000000000000e+00 0.0000000000000000e+00 0.0000000000000000e+00  0.0000000000000000e+00 0.0000000000000000e+00 0.0000000000000000e+00  0.0000000000000000e+00 0.0000000000000000e+00 0.0000000000000000e+00  0.0000000000000000e+00 0.0000000000000000e+00 0.0000000000000000e+00  0.0000000000000000e+00 0.0000000000000000e+00 0.0000000000000000e+00  0.0000000000000000e+00 0.0000000000000000e+00 0.0000000000000000e+00  0.0000000000000000e+00 0.0000000000000000e+00 0.0000000000000000e+00  0.0000000000000000e+00 0.0000000000000000e+00 0.0000000000000000e+00  0.0000000000000000e+00 0.0000000000000000e+00 0.0000000000000000e+00  0.0000000000000000e+00 0.0000000000000000e+00 0.0000000000000000e+00  0.0000000000000000e+00 0.0000000000000000e+00 0.0000000000000000e+00  0.0000000000000000e+00 0.0000000000000000e+00 0.0000000000000000e+00  0.0000000000000000e+00 0.0000000000000000e+00 0.0000000000000000e+00  0.0000000000000000e+00 0.0000000000000000e+00 0.0000000000000000e+00  0.0000000000000000e+00 0.0000000000000000e+00 0.0000000000000000e+00  0.0000000000000000e+00 0.0000000000000000e+00 0.0000000000000000e+00  0.0000000000000000e+00 0.0000000000000000e+00 0.0000000000000000e+00  0.0000000000000000e+00 0.0000000000000000e+00 0.0000000000000000e+00  0.0000000000000000e+00 0.0000000000000000e+00 0.0000000000000000e+00  0.0000000000000000e+00 0.0000000000000000e+00 0.0000000000000000e+00  0.0000000000000000e+00 0.0000000000000000e+00 0.0000000000000000e+00  0.0000000000000000e+00 0.0000000000000000e+00 0.0000000000000000e+00  0.0000000000000000e+00 0.0000000000000000e+00 0.0000000000000000e+00  0.0000000000000000e+00 0.0000000000000000e+00 0.0000000000000000e+00  0.0000000000000000e+00 0.0000000000000000e+00 0.0000000000000000e+00  0.0000000000000000e+00 0.0000000000000000e+00 0.0000000000000000e+00  0.0000000000000000e+00 0.0000000000000000e+00 0.0000000000000000e+00  0.0000000000000000e+00 0.0000000000000000e+00 0.0000000000000000e+00  0.0000000000000000e+00 0.0000000000000000e+00 0.0000000000000000e+00  0.0000000000000000e+00 0.0000000000000000e+00 0.0000000000000000e+00  0.0000000000000000e+00 0.0000000000000000e+00 0.0000000000000000e+00  0.0000000000000000e+00 0.0000000000000000e+00 0.0000000000000000e+00  0.0000000000000000e+00 0.0000000000000000e+00 0.0000000000000000e+00  0.0000000000000000e+00 0.0000000000000000e+00 0.0000000000000000e+00  0.0000000000000000e+00 0.0000000000000000e+00 0.0000000000000000e+00  0.0000000000000000e+00 0.0000000000000000e+00 0.0000000000000000e+00  0.0000000000000000e+00 0.0000000000000000e+00 0.0000000000000000e+00  0.0000000000000000e+00 0.0000000000000000e+00 0.0000000000000000e+00  0.0000000000000000e+00 0.0000000000000000e+00 0.0000000000000000e+00  0.0000000000000000e+00 0.0000000000000000e+00 0.0000000000000000e+00  0.0000000000000000e+00 0.0000000000000000e+00 0.0000000000000000e+00  0.0000000000000000e+00 0.0000000000000000e+00 0.0000000000000000e+00  0.0000000000000000e+00 0.0000000000000000e+00 0.0000000000000000e+00  0.0000000000000000e+00 0.0000000000000000e+00 0.0000000000000000e+00  0.0000000000000000e+00 0.0000000000000000e+00 0.0000000000000000e+00  0.0000000000000000e+00 0.0000000000000000e+00 0.0000000000000000e+00  0.0000000000000000e+00 0.0000000000000000e+00 0.0000000000000000e+00  0.0000000000000000e+00 0.0000000000000000e+00 0.0000000000000000e+00  0.0000000000000000e+00 0.0000000000000000e+00 0.0000000000000000e+00  0.0000000000000000e+00 0.0000000000000000e+00 0.0000000000000000e+00  0.0000000000000000e+00 0.0000000000000000e+00 0.0000000000000000e+00  0.0000000000000000e+00 0.0000000000000000e+00 0.0000000000000000e+00  0.0000000000000000e+00 0.0000000000000000e+00 0.0000000000000000e+00  0.0000000000000000e+00 0.0000000000000000e+00 0.0000000000000000e+00  0.0000000000000000e+00 0.0000000000000000e+00 0.0000000000000000e+00  0.0000000000000000e+00 0.0000000000000000e+00 0.0000000000000000e+00  0.0000000000000000e+00 0.0000000000000000e+00 0.0000000000000000e+00  0.0000000000000000e+00 0.0000000000000000e+00 0.0000000000000000e+00  0.0000000000000000e+00 0.0000000000000000e+00 0.0000000000000000e+00  0.0000000000000000e+00 0.0000000000000000e+00 0.0000000000000000e+00  0.0000000000000000e+00 0.0000000000000000e+00 0.0000000000000000e+00  0.0000000000000000e+00 0.0000000000000000e+00 0.0000000000000000e+00  0.0000000000000000e+00 0.0000000000000000e+00 0.0000000000000000e+00  0.0000000000000000e+00 0.0000000000000000e+00 0.0000000000000000e+00  0.0000000000000000e+00 0.0000000000000000e+00 0.0000000000000000e+00  0.0000000000000000e+00 0.0000000000000000e+00 0.0000000000000000e+00  0.0000000000000000e+00 0.0000000000000000e+00 0.0000000000000000e+00  0.0000000000000000e+00 0.0000000000000000e+00 0.0000000000000000e+00  0.0000000000000000e+00 0.0000000000000000e+00 0.0000000000000000e+00  0.0000000000000000e+00 0.0000000000000000e+00 0.0000000000000000e+00  0.0000000000000000e+00 0.0000000000000000e+00 0.0000000000000000e+00  0.0000000000000000e+00 0.0000000000000000e+00 0.0000000000000000e+00  0.0000000000000000e+00 0.0000000000000000e+00 0.0000000000000000e+00  0.0000000000000000e+00 0.0000000000000000e+00 0.0000000000000000e+00  0.0000000000000000e+00 0.0000000000000000e+00 0.0000000000000000e+00  0.0000000000000000e+00 0.0000000000000000e+00 0.0000000000000000e+00  0.0000000000000000e+00 0.0000000000000000e+00 0.0000000000000000e+00  0.0000000000000000e+00 0.0000000000000000e+00 0.0000000000000000e+00  0.0000000000000000e+00 0.0000000000000000e+00 0.0000000000000000e+00  0.0000000000000000e+00 0.0000000000000000e+00 0.0000000000000000e+00  0.0000000000000000e+00 0.0000000000000000e+00 0.0000000000000000e+00  0.0000000000000000e+00 0.0000000000000000e+00 0.0000000000000000e+00  0.0000000000000000e+00 0.0000000000000000e+00 0.0000000000000000e+00  0.0000000000000000e+00 0.0000000000000000e+00 0.0000000000000000e+00  0.0000000000000000e+00 0.0000000000000000e+00 0.0000000000000000e+00  0.0000000000000000e+00 0.0000000000000000e+00 0.0000000000000000e+00  0.0000000000000000e+00 0.0000000000000000e+00 0.0000000000000000e+00  0.0000000000000000e+00 0.0000000000000000e+00 0.0000000000000000e+00  0.0000000000000000e+00 0.0000000000000000e+00 0.0000000000000000e+00  0.0000000000000000e+00 0.0000000000000000e+00 0.0000000000000000e+00  0.0000000000000000e+00 0.0000000000000000e+00 0.0000000000000000e+00  0.0000000000000000e+00 0.0000000000000000e+00 0.0000000000000000e+00  0.0000000000000000e+00 0.0000000000000000e+00 0.0000000000000000e+00  0.0000000000000000e+00 0.0000000000000000e+00 0.0000000000000000e+00  0.0000000000000000e+00 0.0000000000000000e+00 0.0000000000000000e+00  -7.0190543019382588e-06 5.1718758268741488e-06 0.0000000000000000e+00  -1.4630477138768226e-05 1.2936048327948019e-05 0.0000000000000000e+00  -2.1132741826550427e-05 2.5170110894946828e-05 0.0000000000000000e+00  -2.7826624696045568e-05 4.2090570888344212e-05 0.0000000000000000e+00  -3.3264092680888699e-05 6.2579407896740579e-05 0.0000000000000000e+00  -3.9067661397990816e-05 8.6926590277815207e-05 0.0000000000000000e+00  -4.3639072402808934e-05 1.1394311406103098e-04 0.0000000000000000e+00  -4.7859653383492910e-05 1.4432268642127250e-04 0.0000000000000000e+00  -5.2398023986369472e-05 1.7710458405948020e-04 0.0000000000000000e+00  -5.5759688332016737e-05 2.1220039111017052e-04 0.0000000000000000e+00  -5.9507248835812569e-05 2.4949235249095150e-04 0.0000000000000000e+00  -6.2252843111225650e-05 2.8855467559366012e-04 0.0000000000000000e+00  -6.5164401830711176e-05 3.2925770786164436e-04 0.0000000000000000e+00  -6.7413205283815364e-05 3.7114463056616451e-04 0.0000000000000000e+00  -6.9417811495486222e-05 4.1435960938868979e-04 0.0000000000000000e+00  -7.1436687320694783e-05 4.5846449801574979e-04 0.0000000000000000e+00  -7.2924918866885990e-05 5.0333487003908811e-04 0.0000000000000000e+00  -7.4422171672677376e-05 5.4890159085204087e-04 0.0000000000000000e+00  -7.5530047395669722e-05 5.9489489160645338e-04 0.0000000000000000e+00  -7.6588358387676719e-05 6.4128327807687954e-04 0.0000000000000000e+00  -7.7407709891139402e-05 6.8787448398810187e-04 0.0000000000000000e+00  -7.8112429577796959e-05 7.3463168912133033e-04 0.0000000000000000e+00  -7.8694935149082373e-05 7.8142215894724473e-04 0.0000000000000000e+00  -7.9172876048315210e-05 8.2819927038336094e-04 0.0000000000000000e+00  -7.9565486703058824e-05 8.7492524615654342e-04 0.0000000000000000e+00  -7.9888795255764851e-05 9.2151134597840182e-04 0.0000000000000000e+00  -8.0143402200391828e-05 9.6796744083521916e-04 0.0000000000000000e+00  -8.0370844947155474e-05 1.0142232975826680e-03 0.0000000000000000e+00  -8.0547278565155792e-05 1.0602925734849182e-03 0.0000000000000000e+00  -8.0724241090352633e-05 1.1061442906285849e-03 0.0000000000000000e+00  -8.0868552879907586e-05 1.1517807579498058e-03 0.0000000000000000e+00  -8.1032505498325117e-05 1.1972002220568291e-03 0.0000000000000000e+00  -8.1182627948369541e-05 1.2424002776925853e-03 0.0000000000000000e+00  -8.1363703999543299e-05 1.2874016431098469e-03 0.0000000000000000e+00  -8.1545503897671466e-05 1.3322007185452636e-03 0.0000000000000000e+00  -8.1771368164810785e-05 1.3768384935961076e-03 0.0000000000000000e+00  -8.2011740156559684e-05 1.4213023971890698e-03 0.0000000000000000e+00  -8.2300775033432162e-05 1.4656480633852336e-03 0.0000000000000000e+00  -8.2613600270280439e-05 1.5098574524695153e-03 0.0000000000000000e+00  -8.2978342406105752e-05 1.5539958309968211e-03 0.0000000000000000e+00  -8.3376316381101502e-05 1.5980377809963694e-03 0.0000000000000000e+00  -8.3823546874955612e-05 1.6420439802879187e-03 0.0000000000000000e+00  -8.4310926628820764e-05 1.6860053075761394e-03 0.0000000000000000e+00  -8.4820541308793841e-05 1.7299518506516164e-03 0.0000000000000000e+00  -8.5381695205867728e-05 1.7739029129117529e-03 0.0000000000000000e+00  -8.5955530858382358e-05 1.8178277832466537e-03 0.0000000000000000e+00  -5.7299584761757267e-05 1.8622152558257709e-03 0.0000000000000000e+00  1.5057756545085491e-06 1.8633466497440553e-03 0.0000000000000000e+00  3.1654700675150725e-05 1.8199114524769548e-03 0.0000000000000000e+00  3.2249014973234704e-05 1.7760237303539642e-03 0.0000000000000000e+00  3.2841200247952314e-05 1.7321492372322684e-03 0.0000000000000000e+00  3.3422703471648839e-05 1.6882456677721836e-03 0.0000000000000000e+00  3.3998223312018029e-05 1.6443203003268115e-03 0.0000000000000000e+00  3.4573069512047589e-05 1.6003470438003668e-03 0.0000000000000000e+00  3.5169534229951524e-05 1.5563173008594864e-03 0.0000000000000000e+00  3.5750982370038399e-05 1.5122140023710864e-03 0.0000000000000000e+00  3.6377047409406480e-05 1.4680042604303942e-03 0.0000000000000000e+00  3.6979289739842347e-05 1.4236783654965075e-03 0.0000000000000000e+00  3.7644176271386716e-05 1.3792079926422383e-03 0.0000000000000000e+00  3.8276200970328599e-05 1.3345780965473915e-03 0.0000000000000000e+00  3.8984248203882216e-05 1.2897675293711299e-03 0.0000000000000000e+00  3.9645263722512738e-05 1.2447624461607069e-03 0.0000000000000000e+00  4.0385818909552928e-05 1.1995465801656049e-03 0.0000000000000000e+00  4.1066097614768207e-05 1.1541145870121571e-03 0.0000000000000000e+00  4.1821582608899558e-05 1.1084572741908623e-03 0.0000000000000000e+00  4.2507039935800894e-05 1.0625807658392720e-03 0.0000000000000000e+00  4.3253794208726082e-05 1.0164853299782996e-03 0.0000000000000000e+00  4.3923924732807065e-05 9.7019237318796158e-04 0.0000000000000000e+00  4.4626827950788295e-05 9.2370694717537009e-04 0.0000000000000000e+00  4.5252712804551481e-05 8.7707096505891492e-04 0.0000000000000000e+00  4.5858907884263333e-05 8.3030791132178091e-04 0.0000000000000000e+00  4.6396149025234645e-05 7.8347760499955271e-04 0.0000000000000000e+00  4.6872491671769495e-05 7.3663555316515010e-04 0.0000000000000000e+00  4.7251570070885034e-05 6.8982019933411189e-04 0.0000000000000000e+00  4.7537569401980341e-05 6.4317390841873816e-04 0.0000000000000000e+00  4.7666955219401570e-05 5.9671449531567306e-04 0.0000000000000000e+00  4.7689489873959950e-05 5.5066153190863869e-04 0.0000000000000000e+00  4.7493669425503482e-05 5.0502551027556256e-04 0.0000000000000000e+00  4.7180068466619451e-05 4.6004487851704579e-04 0.0000000000000000e+00  4.6461518125790950e-05 4.1592296018909853e-04 0.0000000000000000e+00  4.5776849462601250e-05 3.7261521504569959e-04 0.0000000000000000e+00  4.4882659862418966e-05 3.3067403795121258e-04 0.0000000000000000e+00  4.3436897202585923e-05 2.8977980201825817e-04 0.0000000000000000e+00  4.1912079946938739e-05 2.5069154962731598e-04 0.0000000000000000e+00  3.9894668359854211e-05 2.1329176685181290e-04 0.0000000000000000e+00  3.7773031324178405e-05 1.7800572986274629e-04 0.0000000000000000e+00  3.4795499848166264e-05 1.4527248246877270e-04 0.0000000000000000e+00  3.2116125958585578e-05 1.1475849094160214e-04 0.0000000000000000e+00  2.9131837731170023e-05 8.7658358507206201e-05 0.0000000000000000e+00  2.5018117827093087e-05 6.3116383522113803e-05 0.0000000000000000e+00  2.1066852838440623e-05 4.2476726151222917e-05 0.0000000000000000e+00  1.5997324123205590e-05 2.5714535663419130e-05 0.0000000000000000e+00  1.1311376195351440e-05 1.3326741247097083e-05 0.0000000000000000e+00  5.4088699133755393e-06 5.4283732582867433e-06 0.0000000000000000e+00  -1.3754943979118252e-06 5.8893535719344528e-06 0.0000000000000000e+00  -2.7712228929373994e-05 1.7968084706788069e-03 0.0000000000000000e+00  -2.7015311187790256e-05 1.7128864499979983e-03 0.0000000000000000e+00  -2.4839552255111444e-05 1.5756432002184831e-03 0.0000000000000000e+00  -2.9006338502631528e-06 3.0646709722674914e-05 0.0000000000000000e+00  -2.3238448672808203e-05 1.4890145439461881e-03 0.0000000000000000e+00  -4.0865548339772549e-06 7.0331175892014131e-05 0.0000000000000000e+00  -2.2327719892964703e-05 1.4003701750391463e-03 0.0000000000000000e+00  -6.3279657399460678e-06 1.6056730471048918e-04 0.0000000000000000e+00  -8.3617906415518424e-06 2.2989529989036288e-04 0.0000000000000000e+00  -2.1445408049364668e-05 1.3111271858005662e-03 0.0000000000000000e+00  -1.1032736938800182e-05 4.3835607331255377e-04 0.0000000000000000e+00  -1.9700778871185569e-05 1.1302864198869159e-03 0.0000000000000000e+00  -9.0290184549898314e-06 3.0506031506401975e-04 0.0000000000000000e+00  -1.3047079053040183e-05 5.2652831925175487e-04 0.0000000000000000e+00  -1.8809534914259919e-05 1.0385464597255502e-03 0.0000000000000000e+00  -2.0574615402331521e-05 1.2211344615836600e-03 0.0000000000000000e+00  -1.4235651693829538e-05 6.1876049579477968e-04 0.0000000000000000e+00  -1.7886553153292734e-05 9.4596209125487904e-04 0.0000000000000000e+00  -1.4498288696346476e-05 7.0836809463016115e-04 0.0000000000000000e+00  -1.7734416791259031e-05 8.5460453965869351e-04 0.0000000000000000e+00  -1.6088871875775718e-05 7.7859797933463770e-04 0.0000000000000000e+00  -1.0850767626725655e-05 3.6756902080667251e-04 0.0000000000000000e+00  -2.4905254766012231e-05 1.6470532500944567e-03 0.0000000000000000e+00  -5.6347591029570912e-06 1.1056794288889509e-04 0.0000000000000000e+00  -6.6833295380987423e-06 1.7549192740228189e-03 0.0000000000000000e+00  3.5745404842720184e-06 1.6419666290182258e-05 0.0000000000000000e+00  -5.4926897067907024e-06 1.4450893262721244e-03 0.0000000000000000e+00  -6.5075487843362101e-06 1.5334970559013014e-03 0.0000000000000000e+00  -1.3100736728479299e-05 4.9727045593657823e-05 0.0000000000000000e+00  -2.1146956909167726e-05 1.9348935087622912e-04 0.0000000000000000e+00  -2.4421490592764992e-06 1.1761437637285747e-03 0.0000000000000000e+00  -4.4846123251250974e-06 1.3561641260951740e-03 0.0000000000000000e+00  -2.9800177852008992e-05 4.8098095187964248e-04 0.0000000000000000e+00  -1.3995512332727240e-06 1.0848438969779035e-03 0.0000000000000000e+00  -2.4075354351022485e-05 2.6825998882072454e-04 0.0000000000000000e+00  -3.1465648598945932e-05 5.7222708340244383e-04 0.0000000000000000e+00  -3.4352064034218266e-07 9.9266511906162514e-04 0.0000000000000000e+00  -3.4698832298017443e-06 1.2665595648545416e-03 0.0000000000000000e+00  -3.6844877662344630e-05 6.6452658653857620e-04 0.0000000000000000e+00  7.1634937932635555e-07 8.9970194314191562e-04 0.0000000000000000e+00  -1.7257522863168723e-06 1.3842881319973790e-06 0.0000000000000000e+00  3.2364103200384875e-07 1.3199760190562663e-06 0.0000000000000000e+00  -4.1762229851465780e-05 1.8310985001273319e-03 0.0000000000000000e+00  -8.3893721363831547e-06 1.6264799593590048e-05 0.0000000000000000e+00  5.9250653338117114e-06 8.1673563404827197e-04 0.000000000