<?xml version="1.0"?>
<VTKFile type="UnstructuredGrid"  version="0.1"  >
<UnstructuredGrid>
<Piece  NumberOfPoints="1419" NumberOfCells="2698">
<Points>
<DataArray  type="Float64"  NumberOfComponents="3"  format="ascii">0 0 0  0 0.41 0  2.5 0 0  2.5 0.41 0  0.6 0.19 0  0.6 0.21 0  0.25 0.2 0  0.15 0.2 0  0.2489897948556636 0.21 0  0.2489897948556636 0.19 0  0.6 0.2 0  0 0.3807142857143437 0  0 0.3514285714286952 0  0 0.3221428571430699 0  0 0.29285714285744 0  0 0.2635714285718054 0  0 0.2342857142861561 0  0 0.2050000000005308 0  0 0.175714285714732 0  0 0.1464285714289574 0  0 0.1171428571431897 0  0 0.08785714285737878 0  0 0.05857142857161107 0  0 0.02928571428580012 0  0.03015443760436003 0 0  0.06140001986583606 0 0  0.09377624077125973 0 0  0.1273239957535082 0 0  0.1620856860351972 0 0  0.1981052433264291 0 0  0.235428184091502 0 0  0.2741016576309132 0 0  0.3141745521465447 0 0  0.3556974926295285 0 0  0.3987229542472677 0 0  0.4433053055141081 0 0  0.4895008759286886 0 0  0.5373680609405097 0 0  0.5869673343216626 0 0  0.6383613676634521 0 0  0.6916151138468254 0 0  0.7467958595648856 0 0  0.8039733463919316 0 0  0.8632198139502143 0 0  0.9246101326867038 0 0  0.9882218810934433 0 0  1.054135445558498 0 0  1.122434100542598 0 0  1.193204177141305 0 0  1.266535089879536 0 0  1.342519516046404 0 0  1.421253448503939 0 0  1.502836389106271 0 0  1.587371439758838 0 0  1.674965418777374 0 0  1.765729001825544 0 0  1.859776908880082 0 0  1.957227977487062 0 0  2.058205329869943 0 0  2.162836591189951 0 0  2.271253957290865 0 0  2.383594446803425 0 0  2.5 0.1024999999997612 0  2.5 0.2049999999994743 0  2.5 0.3074999999997183 0  2.383594446803656 0.41 0  2.271253957291315 0.41 0  2.162836591190598 0.41 0  2.058205329870775 0.41 0  1.957227977488067 0.41 0  1.859776908881246 0.41 0  1.765729001826854 0.41 0  1.674965418778818 0.41 0  1.58737143976041 0.41 0  1.502836389107956 0.41 0  1.421253448505726 0.41 0  1.342519516048286 0.41 0  1.266535089881505 0.41 0  1.193204177143353 0.41 0  1.122434100544716 0.41 0  1.05413544556068 0.41 0  0.9882218810956305 0.41 0  0.9246101326886647 0.41 0  0.8632198139519631 0.41 0  0.8039733463934788 0.41 0  0.7467958595662458 0.41 0  0.6916151138480078 0.41 0  0.6383613676644679 0.41 0  0.5869673343225223 0.41 0  0.5373680609412221 0.41 0  0.4895008759292634 0.41 0  0.4433053055145528 0.41 0  0.3987229542475914 0.41 0  0.3556974926297398 0.41 0  0.3141745521466497 0.41 0  0.2741016576310038 0.41 0  0.2354281840915826 0.41 0  0.1981052433265003 0.41 0  0.1620856860352591 0.41 0  0.1273239957535623 0.41 0  0.09377624077128965 0.41 0  0.06140001986584975 0.41 0  0.03015443760436654 0.41 0  0.2497468076502589 0.2050254481002335 0  0.2497468076502614 0.1949745518997913 0  0.2469965252529372 0.1829317073451959 0  0.2439893735792749 0.1762316384219906 0  0.2400332147834255 0.1700443375285386 0  0.2352133972704371 0.1645032867342007 0  0.2296339016332438 0.1597280261969788 0  0.2234150974217223 0.1558215752574715 0  0.2166911463437691 0.1528682099456123 0  0.2096071079204251 0.1509316448471593 0  0.2023158100364996 0.1500536585536553 0  0.194974551899914 0.1502531923497262 0  0.1877417105387872 0.1515259415822739 0  0.1807733240461124 0.153844448527136 0  0.1742197252835808 0.15715869474974 0  0.1682222986673531 0.1613971801805478 0  0.162910430003803 0.1664684656256651 0  0.1583987151779087 0.1722631454351573 0  0.1547844879126891 0.178656207771761 0  0.1521457199348551 0.1855097315605723 0  0.1505393388476355 0.1926758619366523 0  0.1505393388476328 0.2073241380633295 0  0.1521457199348437 0.2144902684393899 0  0.1547844879126531 0.221343792228163 0  0.1583987151778488 0.2277368545647528 0  0.1629104300036858 0.2335315343742052 0  0.1682222986671726 0.2386028198193036 0  0.1742197252833576 0.2428413052501257 0  0.1807733240458683 0.2461555514727623 0  0.1877417105384929 0.2484740584176516 0  0.1949745518995776 0.2497468076502398 0  0.202315810036185 0.2499463414463592 0  0.2096071079201568 0.2490683551528932 0  0.2166911463435495 0.2471317900544655 0  0.2234150974215506 0.2441784247426195 0  0.2296339016331197 0.2402719738031125 0  0.2352133972703547 0.2354967132658811 0  0.2400332147833751 0.2299556624715287 0  0.2439893735792577 0.2237683615780412 0  0.246996525252926 0.2170682926548348 0  0.25645809709277 0.21 0  0.2639263993298655 0.21 0  0.271394701566961 0.21 0  0.2788630038040554 0.21 0  0.2863313060411479 0.21 0  0.2937996082782405 0.21 0  0.301267910515333 0.21 0  0.3087362127524279 0.21 0  0.3162045149895234 0.21 0  0.3236728172265972 0.21 0  0.3311411194636928 0.21 0  0.3386094217007701 0.21 0  0.3460777239378666 0.21 0  0.3535460261749672 0.21 0  0.3610143284120516 0.21 0  0.3684826306491596 0.21 0  0.3759509328862226 0.21 0  0.383419235123329 0.21 0  0.3908875373604028 0.21 0  0.3983558395975142 0.21 0  0.4058241418345938 0.21 0  0.4132924440716992 0.21 0  0.4207607463087888 0.21 0  0.4282290485459029 0.21 0  0.4356973507830418 0.21 0  0.4431656530201649 0.21 0  0.4506339552573136 0.21 0  0.4581022574944306 0.21 0  0.4655705597315852 0.21 0  0.4730388619686996 0.21 0  0.480507164205851 0.21 0  0.4879754664429498 0.21 0  0.4954437686800938 0.21 0  0.502912070917267 0.21 0  0.5103803731544119 0.21 0  0.5178486753915261 0.21 0  0.5253169776286404 0.21 0  0.5327852798657868 0.21 0  0.5402535821029386 0.21 0  0.54772188434007 0.21 0  0.5551901865771842 0.21 0  0.5626584888143201 0.21 0  0.5701267910514778 0.21 0  0.5775950932886138 0.21 0  0.5850633955257281 0.21 0  0.5925316977628483 0.21 0  0.6 0.2050000000000054 0  0.6 0.1950000000000217 0  0.5925316977628897 0.19 0  0.5850633955257988 0.19 0  0.5775950932887378 0.19 0  0.5701267910515998 0.19 0  0.5626584888145268 0.19 0  0.5551901865773963 0.19 0  0.547721884340339 0.19 0  0.5402535821032429 0.19 0  0.5327852798661811 0.19 0  0.5253169776290537 0.19 0  0.5178486753919799 0.19 0  0.5103803731549078 0.19 0  0.502912070917822 0.19 0  0.4954437686807294 0.19 0  0.4879754664436223 0.19 0  0.4805071642065402 0.19 0  0.4730388619694271 0.19 0  0.4655705597323621 0.19 0  0.4581022574952563 0.19 0  0.4506339552581777 0.19 0  0.4431656530210671 0.19 0  0.4356973507839815 0.19 0  0.4282290485468779 0.19 0  0.4207607463097617 0.19 0  0.4132924440726327 0.19 0  0.4058241418354857 0.19 0  0.3983558395983636 0.19 0  0.3908875373612097 0.19 0  0.3834192351240934 0.19 0  0.3759509328869369 0.19 0  0.3684826306498175 0.19 0  0.361014328412667 0.19 0  0.3535460261755617 0.19 0  0.3460777239384295 0.19 0  0.3386094217012945 0.19 0  0.3311411194641595 0.19 0  0.3236728172270245 0.19 0  0.3162045149898895 0.19 0  0.3087362127527544 0.19 0  0.3012679105156187 0.19 0  0.2937996082784807 0.19 0  0.2863313060413428 0.19 0  0.2788630038042048 0.19 0  0.2713947015670686 0.19 0  0.2639263993299336 0.19 0  0.2564580970927985 0.19 0  0.2607803159922026 0.2000727136295815 0  0.5887803774232762 0.2001272386983733 0  0.5745072403740523 0.2002044435018727 0  0.5511891430099709 0.2001122610077113 0  0.2751288526855082 0.20000000000002 0  0.5365194309847112 0.1999999999999436 0  0.2894621222999649 0.1998691686390484 0  0.5215828265105155 0.1999999999999228 0  0.3127789816668748 0.1998657885438805 0  0.3274069683451451 0.2000000000000796 0  0.5066462220363641 0.199999999999908 0  0.3650630746574081 0.199866017807523 0  0.476773013087985 0.1999999999998713 0  0.3417402379596385 0.1998691686391011 0  0.3796850840047755 0.200000000000134 0  0.4618364086138087 0.1999999999998546 0  0.4917096175621762 0.1999999999998808 0  0.3946216884789568 0.2000000000001512 0  0.446899804139621 0.1999999999998389 0  0.4089549580935208 0.1998691686391595 0  0.4322718174608562 0.200127451265745 0  0.4201487168029707 0.1999966199048527 0  0.3528922713220932 0.2000185703532356 0  0.5633122436674589 0.1999814296467508 0  0.3006558810093873 0.1999966199048318 0  0.5815926498168407 0.1966545283159175 0  0.2677053789419034 0.1964246479135325 0  0.5290511287476175 0.1970915826863981 0  0.5439877332217911 0.197091582686394 0  0.2825131256993216 0.2035478995978015 0  0.3199386661080599 0.202908417313604 0  0.4842413153250809 0.1970915826863873 0  0.5141145242734466 0.1970915826863843 0  0.3722167817676917 0.2029084173136195 0  0.4693047108508938 0.1970915826863783 0  0.3348752705822316 0.202908417313609 0  0.3871533862418661 0.2029084173136212 0  0.4543681063767183 0.1970915826863795 0  0.4991779197992749 0.1970915826863902 0  0.4020059614928624 0.203547899597858 0  0.4394315019025246 0.1970915826863714 0  0.2550657455369551 0.2034088125358657 0  0.2548908499171161 0.1966940311614271 0  0.5946539510196798 0.2024302972968126 0  0.267698176732111 0.2039977513680092 0  0.4261685417851465 0.196409292431739 0  0.3590076176283495 0.196411355804271 0  0.5571672426447437 0.2036011176410121 0  0.3066757059912147 0.1964092924317024 0  0.594380730180568 0.1966558399668133 0  0.4842413153245942 0.2040749161535287 0  0.4693047108503577 0.2040749161535231 0  0.3871533862424271 0.1959250838464788 0  0.372246743208829 0.1959123236376545 0  0.5141145242731028 0.2040749161535395 0  0.4543681063761134 0.2040749161535186 0  0.4019979587101454 0.1959834479682427 0  0.4394608940728603 0.2040870543693135 0  0.5439623148931173 0.2040856076781014 0  0.5290511287473298 0.2040749161535501 0  0.4991779197988497 0.2040749161535382 0  0.3347912413592433 0.1959225448935183 0  0.3199680582793816 0.1959123018030061 0  0.2825051229162361 0.1959834479681729 0  0.3590471196690275 0.2036304442587945 0  0.5571594006495384 0.1963685282145804 0  0.3067669986803285 0.203627750582736 0  0.4262598344738712 0.2036568242185335 0  0.5814408164431408 0.2041285596160068 0  0.5688286748170428 0.1961819304477386 0  0.4145905603063645 0.2038180695522843 0  0.3473758401724931 0.2038180695522752 0  0.2950977245128307 0.2038180695522663 0  0.5688286748170693 0.203818069552238 0  0.2950977245127906 0.1961819304477774 0  0.3473758401723931 0.1961819304478349 0  0.4145905603061963 0.1961819304479011 0  0.2601812407614425 0.2056861609747042
[...]
<PointData  Vectors="f_40-1"> 
<DataArray  type="Float64"  Name="f_40-1"  NumberOfComponents="3" format="ascii">0.0000000000000000e+00 0.0000000000000000e+00 0.0000000000000000e+00  0.0000000000000000e+00 0.0000000000000000e+00 0.0000000000000000e+00  0.0000000000000000e+00 0.0000000000000000e+00 0.0000000000000000e+00  0.0000000000000000e+00 0.0000000000000000e+00 0.0000000000000000e+00  5.3639334008877196e-05 2.3803550482479792e-03 0.0000000000000000e+00  -1.0384843992611127e-04 2.3787965888385598e-03 0.0000000000000000e+00  0.0000000000000000e+00 0.0000000000000000e+00 0.0000000000000000e+00  0.0000000000000000e+00 0.0000000000000000e+00 0.0000000000000000e+00  0.0000000000000000e+00 0.0000000000000000e+00 0.0000000000000000e+00  0.0000000000000000e+00 0.0000000000000000e+00 0.0000000000000000e+00  -2.5294842891066855e-05 2.3795745778210117e-03 0.0000000000000000e+00  0.0000000000000000e+00 0.0000000000000000e+00 0.0000000000000000e+00  0.0000000000000000e+00 0.0000000000000000e+00 0.0000000000000000e+00  0.0000000000000000e+00 0.0000000000000000e+00 0.0000000000000000e+00  0.0000000000000000e+00 0.0000000000000000e+00 0.0000000000000000e+00  0.0000000000000000e+00 0.0000000000000000e+00 0.0000000000000000e+00  0.0000000000000000e+00 0.0000000000000000e+00 0.0000000000000000e+00  0.0000000000000000e+00 0.0000000000000000e+00 0.0000000000000000e+00  0.0000000000000000e+00 0.0000000000000000e+00 0.0000000000000000e+00  0.0000000000000000e+00 0.0000000000000000e+00 0.0000000000000000e+00  0.0000000000000000e+00 0.0000000000000000e+00 0.0000000000000000e+00  0.0000000000000000e+00 0.0000000000000000e+00 0.0000000000000000e+00  0.0000000000000000e+00 0.0000000000000000e+00 0.0000000000000000e+00  0.0000000000000000e+00 0.0000000000000000e+00 0.0000000000000000e+00  0.0000000000000000e+00 0.0000000000000000e+00 0.0000000000000000e+00  0.0000000000000000e+00 0.0000000000000000e+00 0.0000000000000000e+00  0.0000000000000000e+00 0.0000000000000000e+00 0.0000000000000000e+00  0.0000000000000000e+00 0.0000000000000000e+00 0.0000000000000000e+00  0.0000000000000000e+00 0.0000000000000000e+00 0.0000000000000000e+00  0.0000000000000000e+00 0.0000000000000000e+00 0.0000000000000000e+00  0.0000000000000000e+00 0.0000000000000000e+00 0.0000000000000000e+00  0.0000000000000000e+00 0.0000000000000000e+00 0.0000000000000000e+00  0.0000000000000000e+00 0.0000000000000000e+00 0.0000000000000000e+00  0.0000000000000000e+00 0.0000000000000000e+00 0.0000000000000000e+00  0.0000000000000000e+00 0.0000000000000000e+00 0.0000000000000000e+00  0.0000000000000000e+00 0.0000000000000000e+00 0.0000000000000000e+00  0.0000000000000000e+00 0.0000000000000000e+00 0.0000000000000000e+00  0.0000000000000000e+00 0.0000000000000000e+00 0.0000000000000000e+00  0.0000000000000000e+00 0.0000000000000000e+00 0.0000000000000000e+00  0.0000000000000000e+00 0.0000000000000000e+00 0.0000000000000000e+00  0.0000000000000000e+00 0.0000000000000000e+00 0.0000000000000000e+00  0.0000000000000000e+00 0.0000000000000000e+00 0.0000000000000000e+00  0.0000000000000000e+00 0.0000000000000000e+00 0.0000000000000000e+00  0.0000000000000000e+00 0.0000000000000000e+00 0.0000000000000000e+00  0.0000000000000000e+00 0.0000000000000000e+00 0.0000000000000000e+00  0.0000000000000000e+00 0.0000000000000000e+00 0.0000000000000000e+00  0.0000000000000000e+00 0.0000000000000000e+00 0.0000000000000000e+00  0.0000000000000000e+00 0.0000000000000000e+00 0.0000000000000000e+00  0.0000000000000000e+00 0.0000000000000000e+00 0.0000000000000000e+00  0.0000000000000000e+00 0.0000000000000000e+00 0.0000000000000000e+00  0.0000000000000000e+00 0.0000000000000000e+00 0.0000000000000000e+00  0.0000000000000000e+00 0.0000000000000000e+00 0.0000000000000000e+00  0.0000000000000000e+00 0.0000000000000000e+00 0.0000000000000000e+00  0.0000000000000000e+00 0.0000000000000000e+00 0.0000000000000000e+00  0.0000000000000000e+00 0.0000000000000000e+00 0.0000000000000000e+00  0.0000000000000000e+00 0.0000000000000000e+00 0.0000000000000000e+00  0.0000000000000000e+00 0.0000000000000000e+00 0.0000000000000000e+00  0.0000000000000000e+00 0.0000000000000000e+00 0.0000000000000000e+00  0.0000000000000000e+00 0.0000000000000000e+00 0.0000000000000000e+00  0.0000000000000000e+00 0.0000000000000000e+00 0.0000000000000000e+00  0.0000000000000000e+00 0.0000000000000000e+00 0.0000000000000000e+00  0.0000000000000000e+00 0.0000000000000000e+00 0.0000000000000000e+00  0.0000000000000000e+00 0.0000000000000000e+00 0.0000000000000000e+00  0.0000000000000000e+00 0.0000000000000000e+00 0.0000000000000000e+00  0.0000000000000000e+00 0.0000000000000000e+00 0.0000000000000000e+00  0.0000000000000000e+00 0.0000000000000000e+00 0.0000000000000000e+00  0.0000000000000000e+00 0.0000000000000000e+00 0.0000000000000000e+00  0.0000000000000000e+00 0.0000000000000000e+00 0.0000000000000000e+00  0.0000000000000000e+00 0.0000000000000000e+00 0.0000000000000000e+00  0.0000000000000000e+00 0.0000000000000000e+00 0.0000000000000000e+00  0.0000000000000000e+00 0.0000000000000000e+00 0.0000000000000000e+00  0.0000000000000000e+00 0.0000000000000000e+00 0.0000000000000000e+00  0.0000000000000000e+00 0.0000000000000000e+00 0.0000000000000000e+00  0.0000000000000000e+00 0.0000000000000000e+00 0.0000000000000000e+00  0.0000000000000000e+00 0.0000000000000000e+00 0.0000000000000000e+00  0.0000000000000000e+00 0.0000000000000000e+00 0.0000000000000000e+00  0.0000000000000000e+00 0.0000000000000000e+00 0.0000000000000000e+00  0.0000000000000000e+00 0.0000000000000000e+00 0.0000000000000000e+00  0.0000000000000000e+00 0.0000000000000000e+00 0.0000000000000000e+00  0.0000000000000000e+00 0.0000000000000000e+00 0.0000000000000000e+00  0.0000000000000000e+00 0.0000000000000000e+00 0.0000000000000000e+00  0.0000000000000000e+00 0.0000000000000000e+00 0.0000000000000000e+00  0.0000000000000000e+00 0.0000000000000000e+00 0.0000000000000000e+00  0.0000000000000000e+00 0.0000000000000000e+00 0.0000000000000000e+00  0.0000000000000000e+00 0.0000000000000000e+00 0.0000000000000000e+00  0.0000000000000000e+00 0.0000000000000000e+00 0.0000000000000000e+00  0.0000000000000000e+00 0.0000000000000000e+00 0.0000000000000000e+00  0.0000000000000000e+00 0.0000000000000000e+00 0.0000000000000000e+00  0.0000000000000000e+00 0.0000000000000000e+00 0.0000000000000000e+00  0.0000000000000000e+00 0.0000000000000000e+00 0.0000000000000000e+00  0.0000000000000000e+00 0.0000000000000000e+00 0.0000000000000000e+00  0.0000000000000000e+00 0.0000000000000000e+00 0.0000000000000000e+00  0.0000000000000000e+00 0.0000000000000000e+00 0.0000000000000000e+00  0.0000000000000000e+00 0.0000000000000000e+00 0.0000000000000000e+00  0.0000000000000000e+00 0.0000000000000000e+00 0.0000000000000000e+00  0.0000000000000000e+00 0.0000000000000000e+00 0.0000000000000000e+00  0.0000000000000000e+00 0.0000000000000000e+00 0.0000000000000000e+00  0.0000000000000000e+00 0.0000000000000000e+00 0.0000000000000000e+00  0.0000000000000000e+00 0.0000000000000000e+00 0.0000000000000000e+00  0.0000000000000000e+00 0.0000000000000000e+00 0.0000000000000000e+00  0.0000000000000000e+00 0.0000000000000000e+00 0.0000000000000000e+00  0.0000000000000000e+00 0.0000000000000000e+00 0.0000000000000000e+00  0.0000000000000000e+00 0.0000000000000000e+00 0.0000000000000000e+00  0.0000000000000000e+00 0.0000000000000000e+00 0.0000000000000000e+00  0.0000000000000000e+00 0.0000000000000000e+00 0.0000000000000000e+00  0.0000000000000000e+00 0.0000000000000000e+00 0.0000000000000000e+00  0.0000000000000000e+00 0.0000000000000000e+00 0.0000000000000000e+00  0.0000000000000000e+00 0.0000000000000000e+00 0.0000000000000000e+00  0.0000000000000000e+00 0.0000000000000000e+00 0.0000000000000000e+00  0.0000000000000000e+00 0.0000000000000000e+00 0.0000000000000000e+00  0.0000000000000000e+00 0.0000000000000000e+00 0.0000000000000000e+00  0.0000000000000000e+00 0.0000000000000000e+00 0.0000000000000000e+00  0.0000000000000000e+00 0.0000000000000000e+00 0.0000000000000000e+00  0.0000000000000000e+00 0.0000000000000000e+00 0.0000000000000000e+00  0.0000000000000000e+00 0.0000000000000000e+00 0.0000000000000000e+00  0.0000000000000000e+00 0.0000000000000000e+00 0.0000000000000000e+00  0.0000000000000000e+00 0.0000000000000000e+00 0.0000000000000000e+00  0.0000000000000000e+00 0.0000000000000000e+00 0.0000000000000000e+00  0.0000000000000000e+00 0.0000000000000000e+00 0.0000000000000000e+00  0.0000000000000000e+00 0.0000000000000000e+00 0.0000000000000000e+00  0.0000000000000000e+00 0.0000000000000000e+00 0.0000000000000000e+00  0.0000000000000000e+00 0.0000000000000000e+00 0.0000000000000000e+00  0.0000000000000000e+00 0.0000000000000000e+00 0.0000000000000000e+00  0.0000000000000000e+00 0.0000000000000000e+00 0.0000000000000000e+00  0.0000000000000000e+00 0.0000000000000000e+00 0.0000000000000000e+00  0.0000000000000000e+00 0.0000000000000000e+00 0.0000000000000000e+00  0.0000000000000000e+00 0.0000000000000000e+00 0.0000000000000000e+00  0.0000000000000000e+00 0.0000000000000000e+00 0.0000000000000000e+00  0.0000000000000000e+00 0.0000000000000000e+00 0.0000000000000000e+00  0.0000000000000000e+00 0.0000000000000000e+00 0.0000000000000000e+00  0.0000000000000000e+00 0.0000000000000000e+00 0.0000000000000000e+00  0.0000000000000000e+00 0.0000000000000000e+00 0.0000000000000000e+00  0.0000000000000000e+00 0.0000000000000000e+00 0.0000000000000000e+00  0.0000000000000000e+00 0.0000000000000000e+00 0.0000000000000000e+00  0.0000000000000000e+00 0.0000000000000000e+00 0.0000000000000000e+00  0.0000000000000000e+00 0.0000000000000000e+00 0.0000000000000000e+00  0.0000000000000000e+00 0.0000000000000000e+00 0.0000000000000000e+00  0.0000000000000000e+00 0.0000000000000000e+00 0.0000000000000000e+00  0.0000000000000000e+00 0.0000000000000000e+00 0.0000000000000000e+00  0.0000000000000000e+00 0.0000000000000000e+00 0.0000000000000000e+00  0.0000000000000000e+00 0.0000000000000000e+00 0.0000000000000000e+00  0.0000000000000000e+00 0.0000000000000000e+00 0.0000000000000000e+00  0.0000000000000000e+00 0.0000000000000000e+00 0.0000000000000000e+00  -7.8319193509219137e-06 6.6035670198080877e-06 0.0000000000000000e+00  -1.6421689966026564e-05 1.5521215072516504e-05 0.0000000000000000e+00  -2.3823703982730768e-05 2.9630653241255067e-05 0.0000000000000000e+00  -3.1540414246849957e-05 4.9204467154773014e-05 0.0000000000000000e+00  -3.7840007796978548e-05 7.3046049781209555e-05 0.0000000000000000e+00  -4.4655119061294961e-05 1.0151611382508547e-04 0.0000000000000000e+00  -5.0035144263337046e-05 1.3323846332758513e-04 0.0000000000000000e+00  -5.5052063086383110e-05 1.6909910266828127e-04 0.0000000000000000e+00  -6.0533400957487364e-05 2.0795765933253869e-04 0.0000000000000000e+00  -6.4605203145531385e-05 2.4976519515454296e-04 0.0000000000000000e+00  -6.9251684240657520e-05 2.9439477472448607e-04 0.0000000000000000e+00  -7.2660064386318826e-05 3.4138615409956064e-04 0.0000000000000000e+00  -7.6379434756599179e-05 3.9059068478338328e-04 0.0000000000000000e+00  -7.9257991491349773e-05 4.4145132719497802e-04 0.0000000000000000e+00  -8.1873134815697431e-05 4.9422558058927907e-04 0.0000000000000000e+00  -8.4597620512105785e-05 5.4833323572564205e-04 0.0000000000000000e+00  -8.6605400313499541e-05 6.0366754330482691e-04 0.0000000000000000e+00  -8.8737941198416162e-05 6.6014604599770317e-04 0.0000000000000000e+00  -9.0300196624332457e-05 7.1745285474799703e-04 0.0000000000000000e+00  -9.1902444975719820e-05 7.7553001501098765e-04 0.0000000000000000e+00  -9.3135191841739782e-05 8.3417094416065240e-04 0.0000000000000000e+00  -9.4296386031781417e-05 8.9332312306033223e-04 0.0000000000000000e+00  -9.5224731281459360e-05 9.5276194454350124e-04 0.0000000000000000e+00  -9.6021362550203788e-05 1.0125108129643364e-03 0.0000000000000000e+00  -9.6762564727981818e-05 1.0724257785817545e-03 0.0000000000000000e+00  -9.7352633653594872e-05 1.1324525353908284e-03 0.0000000000000000e+00  -9.7863175258239963e-05 1.1925675060442975e-03 0.0000000000000000e+00  -9.8295917224779574e-05 1.2526584040446031e-03 0.0000000000000000e+00  -9.8662955190665630e-05 1.3127475296481480e-03 0.0000000000000000e+00  -9.8985627957023242e-05 1.3727564948472649e-03 0.0000000000000000e+00  -9.9259050327066969e-05 1.4326967518306730e-03 0.0000000000000000e+00  -9.9512117235094955e-05 1.4925214274148586e-03 0.0000000000000000e+00  -9.9733819378821712e-05 1.5522378522323226e-03 0.0000000000000000e+00  -9.9951517135830786e-05 1.6118252126576329e-03 0.0000000000000000e+00  -1.0015128753546596e-04 1.6712915495590694e-03 0.0000000000000000e+00  -1.0036589696017382e-04 1.7306406253277294e-03 0.0000000000000000e+00  -1.0057771420715375e-04 1.7898712610641351e-03 0.0000000000000000e+00  -1.0081385186451348e-04 1.8490081577663456e-03 0.0000000000000000e+00  -1.0105747627419439e-04 1.9080449853591816e-03 0.0000000000000000e+00  -1.0133255532400377e-04 1.9670209642740238e-03 0.0000000000000000e+00  -1.0162498340667666e-04 2.0259210851297626e-03 0.0000000000000000e+00  -1.0195160275958792e-04 2.0847890379050208e-03 0.0000000000000000e+00  -1.0230224856172297e-04 2.1436204933589459e-03 0.0000000000000000e+00  -1.0266742238417977e-04 2.2024387325226004e-03 0.0000000000000000e+00  -1.0306790240339980e-04 2.2612592454649403e-03 0.0000000000000000e+00  -1.0347449128263022e-04 2.3200628065666940e-03 0.0000000000000000e+00  -6.4632174298646385e-05 2.3791867840272617e-03 0.0000000000000000e+00  1.4111907836326588e-05 2.3799598233229693e-03 0.0000000000000000e+00  5.4014684973716956e-05 2.3214754291158721e-03 0.0000000000000000e+00  5.4435668453014332e-05 2.2626842361341925e-03 0.0000000000000000e+00  5.4860276628916666e-05 2.2039033670804642e-03 0.0000000000000000e+00  5.5283587736076542e-05 2.1451006900897688e-03 0.0000000000000000e+00  5.5706306367809124e-05 2.0862792696367694e-03 0.0000000000000000e+00  5.6137041576671462e-05 2.0274179555214060e-03 0.0000000000000000e+00  5.6589053654046798e-05 1.9685100936237343e-03 0.0000000000000000e+00  5.7034624557669250e-05 1.9095413628326054e-03 0.0000000000000000e+00  5.7517464951857382e-05 1.8504891237376628e-03 0.0000000000000000e+00  5.7985193648391303e-05 1.7913452415047990e-03 0.0000000000000000e+00  5.8498593360777235e-05 1.7320940406818322e-03 0.0000000000000000e+00  5.8989796815706733e-05 1.6727273747126877e-03 0.0000000000000000e+00  5.9528183615130773e-05 1.6132366864719666e-03 0.0000000000000000e+00  6.0033856536930222e-05 1.5536211596987113e-03 0.0000000000000000e+00  6.0576605305340950e-05 1.4938768930343013e-03 0.0000000000000000e+00  6.1079481572113556e-05 1.4340169199261738e-03 0.0000000000000000e+00  6.1600337296597180e-05 1.3740442146412317e-03 0.0000000000000000e+00  6.2079678870769644e-05 1.3139880411087905e-03 0.0000000000000000e+00  6.2547217473294645e-05 1.2538606817708499e-03 0.0000000000000000e+00  6.2976683277153988e-05 1.1937099620877218e-03 0.0000000000000000e+00  6.3347040361975144e-05 1.1335538546507139e-03 0.0000000000000000e+00  6.3689774819508364e-05 1.0734644668202653e-03 0.0000000000000000e+00  6.3909551974929835e-05 1.0134817747699228e-03 0.0000000000000000e+00  6.4101061301594336e-05 9.5366612505464680e-04 0.0000000000000000e+00  6.4209591864619552e-05 8.9416193165792429e-04 0.0000000000000000e+00  6.4122007223321639e-05 8.3492509377269385e-04 0.0000000000000000e+00  6.3963874600232241e-05 7.7622368492260402e-04 0.0000000000000000e+00  6.3573552026485310e-05 7.1804133497195479e-04 0.0000000000000000e+00  6.3083538659648088e-05 6.6066330416317644e-04 0.0000000000000000e+00  6.2300319748932311e-05 6.0409552328289805e-04 0.0000000000000000e+00  6.1406937020705915e-05 5.4861316640367024e-04 0.0000000000000000e+00  5.9981011830669698e-05 4.9449750885980671e-04 0.0000000000000000e+00  5.8672380455362042e-05 4.4160375543762103e-04 0.0000000000000000e+00  5.7128263446249901e-05 3.9067702124913773e-04 0.0000000000000000e+00  5.4877733200149618e-05 3.4122366625427027e-04 0.0000000000000000e+00  5.2597431310571702e-05 2.9420704136897042e-04 0.0000000000000000e+00  4.9732429402688209e-05 2.4944541149687222e-04 0.0000000000000000e+00  4.6794406795430328e-05 2.0740235085207938e-04 0.0000000000000000e+00  4.2846696757543625e-05 1.6860996884357794e-04 0.0000000000000000e+00  3.9322813778628814e-05 1.3258583553647541e-04 0.0000000000000000e+00  3.5477766026285351e-05 1.0076449809833237e-04 0.0000000000000000e+00  3.0312243935618298e-05 7.2061452399130608e-05 0.0000000000000000e+00  2.5409900699046939e-05 4.8035225631656625e-05 0.0000000000000000e+00  1.9231447879442171e-05 2.8634189808376391e-05 0.0000000000000000e+00  1.3543877022815057e-05 1.4384705207662961e-05 0.0000000000000000e+00  6.4643550100518837e-06 5.4280568010790952e-06 0.0000000000000000e+00  -1.0713852069357852e-06 6.6194424513481801e-06 0.0000000000000000e+00  -2.5605449942064431e-05 2.2912307486098716e-03 0.0000000000000000e+00  -2.5391502925503399e-05 2.1788558833072016e-03 0.0000000000000000e+00  -2.3465355212841874e-05 1.9951481636801814e-03 0.0000000000000000e+00  -2.5901431186788799e-06 3.5079799771478394e-05 0.0000000000000000e+00  -2.1863582534835433e-05 1.8793342374071574e-03 0.0000000000000000e+00  -3.6509099586858773e-06 8.1196037680574291e-05 0.0000000000000000e+00  -2.1145200941171907e-05 1.7610677307438591e-03 0.0000000000000000e+00  -5.7673914479208172e-06 1.8739357048615918e-04 0.0000000000000000e+00  -7.8735232348707129e-06 2.6996976265820016e-04 0.0000000000000000e+00  -2.0422184322472489e-05 1.6423596119181302e-03 0.0000000000000000e+00  -1.0309182158229033e-05 5.2261541843626441e-04 0.0000000000000000e+00  -1.8909083945143000e-05 1.4034429471735622e-03 0.0000000000000000e+00  -8.3675503070458274e-06 3.6032268112689544e-04 0.0000000000000000e+00  -1.2492855884886945e-05 6.3136592582553424e-04 0.0000000000000000e+00  -1.8096800136551007e-05 1.2833384512041593e-03 0.0000000000000000e+00  -1.9680572950565730e-05 1.5231487958723155e-03 0.0000000000000000e+00  -1.3671659584287170e-05 7.4626815362308335e-04 0.0000000000000000e+00  -1.7231071110487807e-05 1.1630320034177342e-03 0.0000000000000000e+00  -1.3705657991581865e-05 8.5900563951711009e-04 0.0000000000000000e+00  -1.7344949606684890e-05 1.0453089130485220e-03 0.0000000000000000e+00  -1.5490912438763789e-05 9.4817605899785837e-04 0.0000000000000000e+00  -1.0342204023908374e-05 4.3616353792110235e-04 0.0000000000000000e+00  -2.3053841185846630e-05 2.0907030354491924e-03 0.0000000000000000e+00  -5.2178595863290378e-06 1.2839031419396621e-04 0.0000000000000000e+00  2.1734626668660352e-06 2.2348894266803420e-03 0.0000000000000000e+00  4.7673651580706403e-06 1.8384089888563537e-05 0.0000000000000000e+00  1.5411465776211873e-06 1.8204571907975652e-03 0.0000000000000000e+00  7.5621191173305023e-07 1.9385438297336477e-03 0.0000000000000000e+00  -1.4333036150832824e-05 5.7497821321964983e-05 0.0000000000000000e+00  -2.3291103446313579e-05 2.2676769720404524e-04 0.0000000000000000e+00  3.9995254895952473e-06 1.4635407068359061e-03 0.0000000000000000e+00  2.3401443260662730e-06 1.7019745793096658e-03 0.0000000000000000e+00  -3.3317876471665827e-05 5.7532295978884851e-04 0.0000000000000000e+00  4.8537119362255012e-06 1.3436099942916307e-03 0.0000000000000000e+00  -2.6631269108830312e-05 3.1624134795238092e-04 0.0000000000000000e+00  -3.5292011786642653e-05 6.8841952965658867e-04 0.0000000000000000e+00  5.7151674012534303e-06 1.2233666182182765e-03 0.0000000000000000e+00  3.1599516952301787e-06 1.5830123176374770e-03 0.0000000000000000e+00  -4.1968882148556604e-05 8.0404789788856613e-04 0.0000000000000000e+00  6.5719712117032311e-06 1.1030603559585928e-03 0.0000000000000000e+00  -1.6578336690834633e-06 1.6900544484545552e-06 0.0000000000000000e+00  7.0052977808066446e-07 1.2864032408128446e-06 0.0000000000000000e+00  -4.4098841278052095e-05 2.3373107840440571e-03 0.0000000000000000e+00  -9.1023248466430833e-06 1.8844806742515098e-05 0.0000000000000000e+00  1.2770891895702460e-05 9.9652216295431704e-04 0.0000000000000000e