<?xml version="1.0"?>
<VTKFile type="UnstructuredGrid"  version="0.1"  >
<UnstructuredGrid>
<Piece  NumberOfPoints="1419" NumberOfCells="2698">
<Points>
<DataArray  type="Float64"  NumberOfComponents="3"  format="ascii">0 0 0  0 0.41 0  2.5 0 0  2.5 0.41 0  0.6 0.19 0  0.6 0.21 0  0.25 0.2 0  0.15 0.2 0  0.2489897948556636 0.21 0  0.2489897948556636 0.19 0  0.6 0.2 0  0 0.3807142857143437 0  0 0.3514285714286952 0  0 0.3221428571430699 0  0 0.29285714285744 0  0 0.2635714285718054 0  0 0.2342857142861561 0  0 0.2050000000005308 0  0 0.175714285714732 0  0 0.1464285714289574 0  0 0.1171428571431897 0  0 0.08785714285737878 0  0 0.05857142857161107 0  0 0.02928571428580012 0  0.03015443760436003 0 0  0.06140001986583606 0 0  0.09377624077125973 0 0  0.1273239957535082 0 0  0.1620856860351972 0 0  0.1981052433264291 0 0  0.235428184091502 0 0  0.2741016576309132 0 0  0.3141745521465447 0 0  0.3556974926295285 0 0  0.3987229542472677 0 0  0.4433053055141081 0 0  0.4895008759286886 0 0  0.5373680609405097 0 0  0.5869673343216626 0 0  0.6383613676634521 0 0  0.6916151138468254 0 0  0.7467958595648856 0 0  0.8039733463919316 0 0  0.8632198139502143 0 0  0.9246101326867038 0 0  0.9882218810934433 0 0  1.054135445558498 0 0  1.122434100542598 0 0  1.193204177141305 0 0  1.266535089879536 0 0  1.342519516046404 0 0  1.421253448503939 0 0  1.502836389106271 0 0  1.587371439758838 0 0  1.674965418777374 0 0  1.765729001825544 0 0  1.859776908880082 0 0  1.957227977487062 0 0  2.058205329869943 0 0  2.162836591189951 0 0  2.271253957290865 0 0  2.383594446803425 0 0  2.5 0.1024999999997612 0  2.5 0.2049999999994743 0  2.5 0.3074999999997183 0  2.383594446803656 0.41 0  2.271253957291315 0.41 0  2.162836591190598 0.41 0  2.058205329870775 0.41 0  1.957227977488067 0.41 0  1.859776908881246 0.41 0  1.765729001826854 0.41 0  1.674965418778818 0.41 0  1.58737143976041 0.41 0  1.502836389107956 0.41 0  1.421253448505726 0.41 0  1.342519516048286 0.41 0  1.266535089881505 0.41 0  1.193204177143353 0.41 0  1.122434100544716 0.41 0  1.05413544556068 0.41 0  0.9882218810956305 0.41 0  0.9246101326886647 0.41 0  0.8632198139519631 0.41 0  0.8039733463934788 0.41 0  0.7467958595662458 0.41 0  0.6916151138480078 0.41 0  0.6383613676644679 0.41 0  0.5869673343225223 0.41 0  0.5373680609412221 0.41 0  0.4895008759292634 0.41 0  0.4433053055145528 0.41 0  0.3987229542475914 0.41 0  0.3556974926297398 0.41 0  0.3141745521466497 0.41 0  0.2741016576310038 0.41 0  0.2354281840915826 0.41 0  0.1981052433265003 0.41 0  0.1620856860352591 0.41 0  0.1273239957535623 0.41 0  0.09377624077128965 0.41 0  0.06140001986584975 0.41 0  0.03015443760436654 0.41 0  0.2497468076502589 0.2050254481002335 0  0.2497468076502614 0.1949745518997913 0  0.2469965252529372 0.1829317073451959 0  0.2439893735792749 0.1762316384219906 0  0.2400332147834255 0.1700443375285386 0  0.2352133972704371 0.1645032867342007 0  0.2296339016332438 0.1597280261969788 0  0.2234150974217223 0.1558215752574715 0  0.2166911463437691 0.1528682099456123 0  0.2096071079204251 0.1509316448471593 0  0.2023158100364996 0.1500536585536553 0  0.194974551899914 0.1502531923497262 0  0.1877417105387872 0.1515259415822739 0  0.1807733240461124 0.153844448527136 0  0.1742197252835808 0.15715869474974 0  0.1682222986673531 0.1613971801805478 0  0.162910430003803 0.1664684656256651 0  0.1583987151779087 0.1722631454351573 0  0.1547844879126891 0.178656207771761 0  0.1521457199348551 0.1855097315605723 0  0.1505393388476355 0.1926758619366523 0  0.1505393388476328 0.2073241380633295 0  0.1521457199348437 0.2144902684393899 0  0.1547844879126531 0.221343792228163 0  0.1583987151778488 0.2277368545647528 0  0.1629104300036858 0.2335315343742052 0  0.1682222986671726 0.2386028198193036 0  0.1742197252833576 0.2428413052501257 0  0.1807733240458683 0.2461555514727623 0  0.1877417105384929 0.2484740584176516 0  0.1949745518995776 0.2497468076502398 0  0.202315810036185 0.2499463414463592 0  0.2096071079201568 0.2490683551528932 0  0.2166911463435495 0.2471317900544655 0  0.2234150974215506 0.2441784247426195 0  0.2296339016331197 0.2402719738031125 0  0.2352133972703547 0.2354967132658811 0  0.2400332147833751 0.2299556624715287 0  0.2439893735792577 0.2237683615780412 0  0.246996525252926 0.2170682926548348 0  0.25645809709277 0.21 0  0.2639263993298655 0.21 0  0.271394701566961 0.21 0  0.2788630038040554 0.21 0  0.2863313060411479 0.21 0  0.2937996082782405 0.21 0  0.301267910515333 0.21 0  0.3087362127524279 0.21 0  0.3162045149895234 0.21 0  0.3236728172265972 0.21 0  0.3311411194636928 0.21 0  0.3386094217007701 0.21 0  0.3460777239378666 0.21 0  0.3535460261749672 0.21 0  0.3610143284120516 0.21 0  0.3684826306491596 0.21 0  0.3759509328862226 0.21 0  0.383419235123329 0.21 0  0.3908875373604028 0.21 0  0.3983558395975142 0.21 0  0.4058241418345938 0.21 0  0.4132924440716992 0.21 0  0.4207607463087888 0.21 0  0.4282290485459029 0.21 0  0.4356973507830418 0.21 0  0.4431656530201649 0.21 0  0.4506339552573136 0.21 0  0.4581022574944306 0.21 0  0.4655705597315852 0.21 0  0.4730388619686996 0.21 0  0.480507164205851 0.21 0  0.4879754664429498 0.21 0  0.4954437686800938 0.21 0  0.502912070917267 0.21 0  0.5103803731544119 0.21 0  0.5178486753915261 0.21 0  0.5253169776286404 0.21 0  0.5327852798657868 0.21 0  0.5402535821029386 0.21 0  0.54772188434007 0.21 0  0.5551901865771842 0.21 0  0.5626584888143201 0.21 0  0.5701267910514778 0.21 0  0.5775950932886138 0.21 0  0.5850633955257281 0.21 0  0.5925316977628483 0.21 0  0.6 0.2050000000000054 0  0.6 0.1950000000000217 0  0.5925316977628897 0.19 0  0.5850633955257988 0.19 0  0.5775950932887378 0.19 0  0.5701267910515998 0.19 0  0.5626584888145268 0.19 0  0.5551901865773963 0.19 0  0.547721884340339 0.19 0  0.5402535821032429 0.19 0  0.5327852798661811 0.19 0  0.5253169776290537 0.19 0  0.5178486753919799 0.19 0  0.5103803731549078 0.19 0  0.502912070917822 0.19 0  0.4954437686807294 0.19 0  0.4879754664436223 0.19 0  0.4805071642065402 0.19 0  0.4730388619694271 0.19 0  0.4655705597323621 0.19 0  0.4581022574952563 0.19 0  0.4506339552581777 0.19 0  0.4431656530210671 0.19 0  0.4356973507839815 0.19 0  0.4282290485468779 0.19 0  0.4207607463097617 0.19 0  0.4132924440726327 0.19 0  0.4058241418354857 0.19 0  0.3983558395983636 0.19 0  0.3908875373612097 0.19 0  0.3834192351240934 0.19 0  0.3759509328869369 0.19 0  0.3684826306498175 0.19 0  0.361014328412667 0.19 0  0.3535460261755617 0.19 0  0.3460777239384295 0.19 0  0.3386094217012945 0.19 0  0.3311411194641595 0.19 0  0.3236728172270245 0.19 0  0.3162045149898895 0.19 0  0.3087362127527544 0.19 0  0.3012679105156187 0.19 0  0.2937996082784807 0.19 0  0.2863313060413428 0.19 0  0.2788630038042048 0.19 0  0.2713947015670686 0.19 0  0.2639263993299336 0.19 0  0.2564580970927985 0.19 0  0.2607803159922026 0.2000727136295815 0  0.5887803774232762 0.2001272386983733 0  0.5745072403740523 0.2002044435018727 0  0.5511891430099709 0.2001122610077113 0  0.2751288526855082 0.20000000000002 0  0.5365194309847112 0.1999999999999436 0  0.2894621222999649 0.1998691686390484 0  0.5215828265105155 0.1999999999999228 0  0.3127789816668748 0.1998657885438805 0  0.3274069683451451 0.2000000000000796 0  0.5066462220363641 0.199999999999908 0  0.3650630746574081 0.199866017807523 0  0.476773013087985 0.1999999999998713 0  0.3417402379596385 0.1998691686391011 0  0.3796850840047755 0.200000000000134 0  0.4618364086138087 0.1999999999998546 0  0.4917096175621762 0.1999999999998808 0  0.3946216884789568 0.2000000000001512 0  0.446899804139621 0.1999999999998389 0  0.4089549580935208 0.1998691686391595 0  0.4322718174608562 0.200127451265745 0  0.4201487168029707 0.1999966199048527 0  0.3528922713220932 0.2000185703532356 0  0.5633122436674589 0.1999814296467508 0  0.3006558810093873 0.1999966199048318 0  0.5815926498168407 0.1966545283159175 0  0.2677053789419034 0.1964246479135325 0  0.5290511287476175 0.1970915826863981 0  0.5439877332217911 0.197091582686394 0  0.2825131256993216 0.2035478995978015 0  0.3199386661080599 0.202908417313604 0  0.4842413153250809 0.1970915826863873 0  0.5141145242734466 0.1970915826863843 0  0.3722167817676917 0.2029084173136195 0  0.4693047108508938 0.1970915826863783 0  0.3348752705822316 0.202908417313609 0  0.3871533862418661 0.2029084173136212 0  0.4543681063767183 0.1970915826863795 0  0.4991779197992749 0.1970915826863902 0  0.4020059614928624 0.203547899597858 0  0.4394315019025246 0.1970915826863714 0  0.2550657455369551 0.2034088125358657 0  0.2548908499171161 0.1966940311614271 0  0.5946539510196798 0.2024302972968126 0  0.267698176732111 0.2039977513680092 0  0.4261685417851465 0.196409292431739 0  0.3590076176283495 0.196411355804271 0  0.5571672426447437 0.2036011176410121 0  0.3066757059912147 0.1964092924317024 0  0.594380730180568 0.1966558399668133 0  0.4842413153245942 0.2040749161535287 0  0.4693047108503577 0.2040749161535231 0  0.3871533862424271 0.1959250838464788 0  0.372246743208829 0.1959123236376545 0  0.5141145242731028 0.2040749161535395 0  0.4543681063761134 0.2040749161535186 0  0.4019979587101454 0.1959834479682427 0  0.4394608940728603 0.2040870543693135 0  0.5439623148931173 0.2040856076781014 0  0.5290511287473298 0.2040749161535501 0  0.4991779197988497 0.2040749161535382 0  0.3347912413592433 0.1959225448935183 0  0.3199680582793816 0.1959123018030061 0  0.2825051229162361 0.1959834479681729 0  0.3590471196690275 0.2036304442587945 0  0.5571594006495384 0.1963685282145804 0  0.3067669986803285 0.203627750582736 0  0.4262598344738712 0.2036568242185335 0  0.5814408164431408 0.2041285596160068 0  0.5688286748170428 0.1961819304477386 0  0.4145905603063645 0.2038180695522843 0  0.3473758401724931 0.2038180695522752 0  0.2950977245128307 0.2038180695522663 0  0.5688286748170693 0.203818069552238 0  0.2950977245127906 0.1961819304477774 0  0.3473758401723931 0.1961819304478349 0  0.4145905603061963 0.1961819304479011 0  0.2601812407614425 0.2056861609747042
[...]
<PointData  Vectors="f_40-1"> 
<DataArray  type="Float64"  Name="f_40-1"  NumberOfComponents="3" format="ascii">0.0000000000000000e+00 0.0000000000000000e+00 0.0000000000000000e+00  0.0000000000000000e+00 0.0000000000000000e+00 0.0000000000000000e+00  0.0000000000000000e+00 0.0000000000000000e+00 0.0000000000000000e+00  0.0000000000000000e+00 0.0000000000000000e+00 0.0000000000000000e+00  -4.3648923431577271e-05 -7.3573231692150554e-04 0.0000000000000000e+00  2.7810339084089515e-05 -7.4013438145848008e-04 0.0000000000000000e+00  0.0000000000000000e+00 0.0000000000000000e+00 0.0000000000000000e+00  0.0000000000000000e+00 0.0000000000000000e+00 0.0000000000000000e+00  0.0000000000000000e+00 0.0000000000000000e+00 0.0000000000000000e+00  0.0000000000000000e+00 0.0000000000000000e+00 0.0000000000000000e+00  -8.4033271785781929e-06 -7.3791901455104024e-04 0.0000000000000000e+00  0.0000000000000000e+00 0.0000000000000000e+00 0.0000000000000000e+00  0.0000000000000000e+00 0.0000000000000000e+00 0.0000000000000000e+00  0.0000000000000000e+00 0.0000000000000000e+00 0.0000000000000000e+00  0.0000000000000000e+00 0.0000000000000000e+00 0.0000000000000000e+00  0.0000000000000000e+00 0.0000000000000000e+00 0.0000000000000000e+00  0.0000000000000000e+00 0.0000000000000000e+00 0.0000000000000000e+00  0.0000000000000000e+00 0.0000000000000000e+00 0.0000000000000000e+00  0.0000000000000000e+00 0.0000000000000000e+00 0.0000000000000000e+00  0.0000000000000000e+00 0.0000000000000000e+00 0.0000000000000000e+00  0.0000000000000000e+00 0.0000000000000000e+00 0.0000000000000000e+00  0.0000000000000000e+00 0.0000000000000000e+00 0.0000000000000000e+00  0.0000000000000000e+00 0.0000000000000000e+00 0.0000000000000000e+00  0.0000000000000000e+00 0.0000000000000000e+00 0.0000000000000000e+00  0.0000000000000000e+00 0.0000000000000000e+00 0.0000000000000000e+00  0.0000000000000000e+00 0.0000000000000000e+00 0.0000000000000000e+00  0.0000000000000000e+00 0.0000000000000000e+00 0.0000000000000000e+00  0.0000000000000000e+00 0.0000000000000000e+00 0.0000000000000000e+00  0.0000000000000000e+00 0.0000000000000000e+00 0.0000000000000000e+00  0.0000000000000000e+00 0.0000000000000000e+00 0.0000000000000000e+00  0.0000000000000000e+00 0.0000000000000000e+00 0.0000000000000000e+00  0.0000000000000000e+00 0.0000000000000000e+00 0.0000000000000000e+00  0.0000000000000000e+00 0.0000000000000000e+00 0.0000000000000000e+00  0.0000000000000000e+00 0.0000000000000000e+00 0.0000000000000000e+00  0.0000000000000000e+00 0.0000000000000000e+00 0.0000000000000000e+00  0.0000000000000000e+00 0.0000000000000000e+00 0.0000000000000000e+00  0.0000000000000000e+00 0.0000000000000000e+00 0.0000000000000000e+00  0.0000000000000000e+00 0.0000000000000000e+00 0.0000000000000000e+00  0.0000000000000000e+00 0.0000000000000000e+00 0.0000000000000000e+00  0.0000000000000000e+00 0.0000000000000000e+00 0.0000000000000000e+00  0.0000000000000000e+00 0.0000000000000000e+00 0.0000000000000000e+00  0.0000000000000000e+00 0.0000000000000000e+00 0.0000000000000000e+00  0.0000000000000000e+00 0.0000000000000000e+00 0.0000000000000000e+00  0.0000000000000000e+00 0.0000000000000000e+00 0.0000000000000000e+00  0.0000000000000000e+00 0.0000000000000000e+00 0.0000000000000000e+00  0.0000000000000000e+00 0.0000000000000000e+00 0.0000000000000000e+00  0.0000000000000000e+00 0.0000000000000000e+00 0.0000000000000000e+00  0.0000000000000000e+00 0.0000000000000000e+00 0.0000000000000000e+00  0.0000000000000000e+00 0.0000000000000000e+00 0.0000000000000000e+00  0.0000000000000000e+00 0.0000000000000000e+00 0.0000000000000000e+00  0.0000000000000000e+00 0.0000000000000000e+00 0.0000000000000000e+00  0.0000000000000000e+00 0.0000000000000000e+00 0.0000000000000000e+00  0.0000000000000000e+00 0.0000000000000000e+00 0.0000000000000000e+00  0.0000000000000000e+00 0.0000000000000000e+00 0.0000000000000000e+00  0.0000000000000000e+00 0.0000000000000000e+00 0.0000000000000000e+00  0.0000000000000000e+00 0.0000000000000000e+00 0.0000000000000000e+00  0.0000000000000000e+00 0.0000000000000000e+00 0.0000000000000000e+00  0.0000000000000000e+00 0.0000000000000000e+00 0.0000000000000000e+00  0.0000000000000000e+00 0.0000000000000000e+00 0.0000000000000000e+00  0.0000000000000000e+00 0.0000000000000000e+00 0.0000000000000000e+00  0.0000000000000000e+00 0.0000000000000000e+00 0.0000000000000000e+00  0.0000000000000000e+00 0.0000000000000000e+00 0.0000000000000000e+00  0.0000000000000000e+00 0.0000000000000000e+00 0.0000000000000000e+00  0.0000000000000000e+00 0.0000000000000000e+00 0.0000000000000000e+00  0.0000000000000000e+00 0.0000000000000000e+00 0.0000000000000000e+00  0.0000000000000000e+00 0.0000000000000000e+00 0.0000000000000000e+00  0.0000000000000000e+00 0.0000000000000000e+00 0.0000000000000000e+00  0.0000000000000000e+00 0.0000000000000000e+00 0.0000000000000000e+00  0.0000000000000000e+00 0.0000000000000000e+00 0.0000000000000000e+00  0.0000000000000000e+00 0.0000000000000000e+00 0.0000000000000000e+00  0.0000000000000000e+00 0.0000000000000000e+00 0.0000000000000000e+00  0.0000000000000000e+00 0.0000000000000000e+00 0.0000000000000000e+00  0.0000000000000000e+00 0.0000000000000000e+00 0.0000000000000000e+00  0.0000000000000000e+00 0.0000000000000000e+00 0.0000000000000000e+00  0.0000000000000000e+00 0.0000000000000000e+00 0.0000000000000000e+00  0.0000000000000000e+00 0.0000000000000000e+00 0.0000000000000000e+00  0.0000000000000000e+00 0.0000000000000000e+00 0.0000000000000000e+00  0.0000000000000000e+00 0.0000000000000000e+00 0.0000000000000000e+00  0.0000000000000000e+00 0.0000000000000000e+00 0.0000000000000000e+00  0.0000000000000000e+00 0.0000000000000000e+00 0.0000000000000000e+00  0.0000000000000000e+00 0.0000000000000000e+00 0.0000000000000000e+00  0.0000000000000000e+00 0.0000000000000000e+00 0.0000000000000000e+00  0.0000000000000000e+00 0.0000000000000000e+00 0.0000000000000000e+00  0.0000000000000000e+00 0.0000000000000000e+00 0.0000000000000000e+00  0.0000000000000000e+00 0.0000000000000000e+00 0.0000000000000000e+00  0.0000000000000000e+00 0.0000000000000000e+00 0.0000000000000000e+00  0.0000000000000000e+00 0.0000000000000000e+00 0.0000000000000000e+00  0.0000000000000000e+00 0.0000000000000000e+00 0.0000000000000000e+00  0.0000000000000000e+00 0.0000000000000000e+00 0.0000000000000000e+00  0.0000000000000000e+00 0.0000000000000000e+00 0.0000000000000000e+00  0.0000000000000000e+00 0.0000000000000000e+00 0.0000000000000000e+00  0.0000000000000000e+00 0.0000000000000000e+00 0.0000000000000000e+00  0.0000000000000000e+00 0.0000000000000000e+00 0.0000000000000000e+00  0.0000000000000000e+00 0.0000000000000000e+00 0.0000000000000000e+00  0.0000000000000000e+00 0.0000000000000000e+00 0.0000000000000000e+00  0.0000000000000000e+00 0.0000000000000000e+00 0.0000000000000000e+00  0.0000000000000000e+00 0.0000000000000000e+00 0.0000000000000000e+00  0.0000000000000000e+00 0.0000000000000000e+00 0.0000000000000000e+00  0.0000000000000000e+00 0.0000000000000000e+00 0.0000000000000000e+00  0.0000000000000000e+00 0.0000000000000000e+00 0.0000000000000000e+00  0.0000000000000000e+00 0.0000000000000000e+00 0.0000000000000000e+00  0.0000000000000000e+00 0.0000000000000000e+00 0.0000000000000000e+00  0.0000000000000000e+00 0.0000000000000000e+00 0.0000000000000000e+00  0.0000000000000000e+00 0.0000000000000000e+00 0.0000000000000000e+00  0.0000000000000000e+00 0.0000000000000000e+00 0.0000000000000000e+00  0.0000000000000000e+00 0.0000000000000000e+00 0.0000000000000000e+00  0.0000000000000000e+00 0.0000000000000000e+00 0.0000000000000000e+00  0.0000000000000000e+00 0.0000000000000000e+00 0.0000000000000000e+00  0.0000000000000000e+00 0.0000000000000000e+00 0.0000000000000000e+00  0.0000000000000000e+00 0.0000000000000000e+00 0.0000000000000000e+00  0.0000000000000000e+00 0.0000000000000000e+00 0.0000000000000000e+00  0.0000000000000000e+00 0.0000000000000000e+00 0.0000000000000000e+00  0.0000000000000000e+00 0.0000000000000000e+00 0.0000000000000000e+00  0.0000000000000000e+00 0.0000000000000000e+00 0.0000000000000000e+00  0.0000000000000000e+00 0.0000000000000000e+00 0.0000000000000000e+00  0.0000000000000000e+00 0.0000000000000000e+00 0.0000000000000000e+00  0.0000000000000000e+00 0.0000000000000000e+00 0.0000000000000000e+00  0.0000000000000000e+00 0.0000000000000000e+00 0.0000000000000000e+00  0.0000000000000000e+00 0.0000000000000000e+00 0.0000000000000000e+00  0.0000000000000000e+00 0.0000000000000000e+00 0.0000000000000000e+00  0.0000000000000000e+00 0.0000000000000000e+00 0.0000000000000000e+00  0.0000000000000000e+00 0.0000000000000000e+00 0.0000000000000000e+00  0.0000000000000000e+00 0.0000000000000000e+00 0.0000000000000000e+00  0.0000000000000000e+00 0.0000000000000000e+00 0.0000000000000000e+00  0.0000000000000000e+00 0.0000000000000000e+00 0.0000000000000000e+00  0.0000000000000000e+00 0.0000000000000000e+00 0.0000000000000000e+00  0.0000000000000000e+00 0.0000000000000000e+00 0.0000000000000000e+00  0.0000000000000000e+00 0.0000000000000000e+00 0.0000000000000000e+00  0.0000000000000000e+00 0.0000000000000000e+00 0.0000000000000000e+00  0.0000000000000000e+00 0.0000000000000000e+00 0.0000000000000000e+00  0.0000000000000000e+00 0.0000000000000000e+00 0.0000000000000000e+00  0.0000000000000000e+00 0.0000000000000000e+00 0.0000000000000000e+00  0.0000000000000000e+00 0.0000000000000000e+00 0.0000000000000000e+00  0.0000000000000000e+00 0.0000000000000000e+00 0.0000000000000000e+00  0.0000000000000000e+00 0.0000000000000000e+00 0.0000000000000000e+00  0.0000000000000000e+00 0.0000000000000000e+00 0.0000000000000000e+00  0.0000000000000000e+00 0.0000000000000000e+00 0.0000000000000000e+00  0.0000000000000000e+00 0.0000000000000000e+00 0.0000000000000000e+00  0.0000000000000000e+00 0.0000000000000000e+00 0.0000000000000000e+00  0.0000000000000000e+00 0.0000000000000000e+00 0.0000000000000000e+00  0.0000000000000000e+00 0.0000000000000000e+00 0.0000000000000000e+00  0.0000000000000000e+00 0.0000000000000000e+00 0.0000000000000000e+00  0.0000000000000000e+00 0.0000000000000000e+00 0.0000000000000000e+00  -5.0126274220699052e-07 -2.3022079604575958e-06 0.0000000000000000e+00  -7.3905276375028009e-07 -2.1295441965945688e-06 0.0000000000000000e+00  -6.4181582778729708e-07 -2.0078225491034604e-06 0.0000000000000000e+00  -2.3588176568797370e-07 -2.0141949198007604e-06 0.0000000000000000e+00  2.9589259337853920e-07 -2.4747314176776879e-06 0.0000000000000000e+00  1.1274160231443569e-06 -3.4674689598065287e-06 0.0000000000000000e+00  1.9298362577998823e-06 -4.9881184582983102e-06 0.0000000000000000e+00  2.8741046413855935e-06 -7.3097745942440792e-06 0.0000000000000000e+00  4.1307556393880741e-06 -1.0340452168488608e-05 0.0000000000000000e+00  5.2334119787815740e-06 -1.4250504777717522e-05 0.0000000000000000e+00  6.7506169842752408e-06 -1.9071344496087490e-05 0.0000000000000000e+00  8.0102278076677183e-06 -2.4908188455389145e-05 0.0000000000000000e+00  9.6554301202289284e-06 -3.1768077739245723e-05 0.0000000000000000e+00  1.1055862753680204e-05 -3.9551783064208346e-05 0.0000000000000000e+00  1.2516342505027578e-05 -4.8562121645390111e-05 0.0000000000000000e+00  1.4274318063686201e-05 -5.8561091210344166e-05 0.0000000000000000e+00  1.5692133380665424e-05 -6.9667991727284138e-05 0.0000000000000000e+00  1.7478597559155882e-05 -8.1882420186367078e-05 0.0000000000000000e+00  1.8864435305319478e-05 -9.5188910440054440e-05 0.0000000000000000e+00  2.0563411122123950e-05 -1.0952736001593388e-04 0.0000000000000000e+00  2.1946278191304627e-05 -1.2494477955116035e-04 0.0000000000000000e+00  2.3521302072929608e-05 -1.4141779686702489e-04 0.0000000000000000e+00  2.4783352236828622e-05 -1.5870601061816151e-04 0.0000000000000000e+00  2.5998390174956391e-05 -1.7707054371539509e-04 0.0000000000000000e+00  2.7347050285904216e-05 -1.9618259643709946e-04 0.0000000000000000e+00  2.8444081047179578e-05 -2.1619636956908992e-04 0.0000000000000000e+00  2.9526703933658988e-05 -2.3700985314323961e-04 0.0000000000000000e+00  3.0439910890856057e-05 -2.5850707580143544e-04 0.0000000000000000e+00  3.1316424523612257e-05 -2.8072888515468533e-04 0.0000000000000000e+00  3.2025505367333978e-05 -3.0351882531074218e-04 0.0000000000000000e+00  3.2681161466225699e-05 -3.2692970012218673e-04 0.0000000000000000e+00  3.3173443119737771e-05 -3.5079656545278481e-04 0.0000000000000000e+00  3.3598889797863272e-05 -3.7518003037916421e-04 0.0000000000000000e+00  3.3869015578217248e-05 -3.9991045166655020e-04 0.0000000000000000e+00  3.4057265332584886e-05 -4.2506075463166700e-04 0.0000000000000000e+00  3.4099544832692342e-05 -4.5045778424027583e-04 0.0000000000000000e+00  3.4054766303667713e-05 -4.7617849374353977e-04 0.0000000000000000e+00  3.3874118216197873e-05 -5.0205845136823608e-04 0.0000000000000000e+00  3.3600295553253512e-05 -5.2818015414988096e-04 0.0000000000000000e+00  3.3197417094298980e-05 -5.5438555539831665e-04 0.0000000000000000e+00  3.2692205816314612e-05 -5.8075349871414186e-04 0.0000000000000000e+00  3.2079982559919660e-05 -6.0716625921774820e-04 0.0000000000000000e+00  3.1355237984382466e-05 -6.3365802173803384e-04 0.0000000000000000e+00  3.0574666912861255e-05 -6.6017850532483133e-04 0.0000000000000000e+00  2.9670137994440533e-05 -6.8669302406865077e-04 0.0000000000000000e+00  2.8713670019794740e-05 -7.1328099919930538e-04 0.0000000000000000e+00  9.5288223056097376e-06 -7.3902443401371008e-04 0.0000000000000000e+00  -2.6175494159339075e-05 -7.3682471935656744e-04 0.0000000000000000e+00  -4.2701394433631702e-05 -7.0920602462693036e-04 0.0000000000000000e+00  -4.1676628150117179e-05 -6.8245572493880918e-04 0.0000000000000000e+00  -4.0691423879335692e-05 -6.5568391415827458e-04 0.0000000000000000e+00  -3.9768368807264780e-05 -6.2897948173436268e-04 0.0000000000000000e+00  -3.8888239901795137e-05 -6.0231433560886585e-04 0.0000000000000000e+00  -3.8068014885537703e-05 -5.7572870147519441e-04 0.0000000000000000e+00  -3.7246807080148537e-05 -5.4923502254481792e-04 0.0000000000000000e+00  -3.6501102925714862e-05 -5.2284186569618446e-04 0.0000000000000000e+00  -3.5722697903757478e-05 -4.9663160432326405e-04 0.0000000000000000e+00  -3.5023343046882872e-05 -4.7058072422879338e-04 0.0000000000000000e+00  -3.4250426279069503e-05 -4.4478260494287846e-04 0.0000000000000000e+00  -3.3569206212739813e-05 -4.1923228827420574e-04 0.0000000000000000e+00  -3.2770555753900412e-05 -3.9401918087753822e-04 0.0000000000000000e+00  -3.2081511855352482e-05 -3.6915436441456911e-04 0.0000000000000000e+00  -3.1229980918822835e-05 -3.4471957099247184e-04 0.0000000000000000e+00  -3.0513799465936940e-05 -3.2073973392169442e-04 0.0000000000000000e+00  -2.9590624032283726e-05 -2.9728992699099813e-04 0.0000000000000000e+00  -2.8830274931584382e-05 -2.7440709294114030e-04 0.0000000000000000e+00  -2.7817136935429306e-05 -2.5215896786889884e-04 0.0000000000000000e+00  -2.6997698150848296e-05 -2.3058943409412334e-04 0.0000000000000000e+00  -2.5877322673063090e-05 -2.0976339777745298e-04 0.0000000000000000e+00  -2.4982033394348084e-05 -1.8973220992744524e-04 0.0000000000000000e+00  -2.3775583998072634e-05 -1.7055688309697211e-04 0.0000000000000000e+00  -2.2755126149014942e-05 -1.5219280098308953e-04 0.0000000000000000e+00  -2.1710221799214720e-05 -1.3490950840161251e-04 0.0000000000000000e+00  -2.0402102110246615e-05 -1.1841387172489865e-04 0.0000000000000000e+00  -1.9234352765409544e-05 -1.0304074618310275e-04 0.0000000000000000e+00  -1.7913482033016394e-05 -8.8671743043817547e-05 0.0000000000000000e+00  -1.6685949081406791e-05 -7.5401715698616953e-05 0.0000000000000000e+00  -1.5338734112841972e-05 -6.3210316571786160e-05 0.0000000000000000e+00  -1.4088697999591946e-05 -5.2090966178234177e-05 0.0000000000000000e+00  -1.2641955560011609e-05 -4.2192469053428671e-05 0.0000000000000000e+00  -1.1459110395141862e-05 -3.3204777944813117e-05 0.0000000000000000e+00  -1.0305570275008045e-05 -2.5471868686262518e-05 0.0000000000000000e+00  -8.9373101999544369e-06 -1.8593564393674953e-05 0.0000000000000000e+00  -7.7741002968752671e-06 -1.2841601376948479e-05 0.0000000000000000e+00  -6.5669359992445287e-06 -8.0629473836780278e-06 0.0000000000000000e+00  -5.5164070482214055e-06 -4.1714554633111327e-06 0.0000000000000000e+00  -4.4052596705290869e-06 -1.2400760188968942e-06 0.0000000000000000e+00  -3.5518542186101623e-06 1.0459960529410834e-06 0.0000000000000000e+00  -2.7995462814203309e-06 2.5170975005944272e-06 0.0000000000000000e+00  -2.0037491736347414e-06 3.4788941269060283e-06 0.0000000000000000e+00  -1.4488559131686947e-06 3.9247425022190496e-06 0.0000000000000000e+00  -9.4270505463970534e-07 3.9327432751431206e-06 0.0000000000000000e+00  -5.7905412737816329e-07 3.6465488139855640e-06 0.0000000000000000e+00  -2.3459264773899430e-07 3.0352811652981291e-06 0.0000000000000000e+00  -1.0352047633649936e-06 6.1647077074937174e-07 0.0000000000000000e+00  -6.2406572673710567e-06 -6.9785435623317277e-04 0.0000000000000000e+00  -4.0528997799443739e-06 -6.4693422770330494e-04 0.0000000000000000e+00  -2.0071560896437771e-06 -5.6402060382766738e-04 0.0000000000000000e+00  -8.2969769562990640e-07 1.2020276295078804e-06 0.0000000000000000e+00  -1.2679921055542914e-06 -5.1229171457037857e-04 0.0000000000000000e+00  -8.5937611151979546e-07 5.6069612317104761e-07 0.0000000000000000e+00  -3.5583621647513331e-07 -4.6030356157376174e-04 0.0000000000000000e+00  -7.9874029109254906e-07 -5.2103406984635057e-06 0.0000000000000000e+00  -5.9348175912069311e-07 -1.2841245784227822e-05 0.0000000000000000e+00  3.2528207648156398e-07 -4.0929009055252835e-04 0.0000000000000000e+00  -1.8826280345907285e-07 -4.9875194905320744e-05 0.0000000000000000e+00  1.0903992592664454e-06 -3.1169573464752631e-04 0.0000000000000000e+00  -5.1885907369688577e-07 -2.3773249623123778e-05 0.0000000000000000e+00  2.7311713331879062e-07 -7.1709315756629570e-05 0.0000000000000000e+00  1.2233510931144485e-06 -2.6594368251921848e-04 0.0000000000000000e+00  7.9950351706949744e-07 -3.5961956269428449e-04 0.0000000000000000e+00  5.5655787992928650e-07 -9.8292617293801375e-05 0.0000000000000000e+00  1.2199612800183511e-06 -2.2280400214844400e-04 0.0000000000000000e+00  5.2199148256087796e-07 -1.2775174443626136e-04 0.0000000000000000e+00  1.4478906943365745e-06 -1.8354314826207207e-04 0.0000000000000000e+00  9.6291044152693390e-07 -1.5354671310183234e-04 0.0000000000000000e+00  -2.0268705155250421e-07 -3.5158659757265670e-05 0.0000000000000000e+00  -3.6467153709979092e-06 -6.0702403414968163e-04 0.0000000000000000e+00  -8.1493473472465461e-07 -1.5022813628553196e-06 0.0000000000000000e+00  -1.7606781973202628e-05 -6.7145444700995145e-04 0.0000000000000000e+00  -9.0500444908721174e-07 2.0890191828631085e-06 0.0000000000000000e+00  -1.0858127734364252e-05 -4.8541551382343470e-04 0.0000000000000000e+00  -1.2028669189193537e-05 -5.3780044599231129e-04 0.0000000000000000e+00  -5.2089654915764081e-07 -3.3694031962750258e-08 0.0000000000000000e+00  9.0831473353415436e-07 -9.5079417322751631e-06 0.0000000000000000e+00  -8.3030813798126956e-06 -3.3456661628756385e-04 0.0000000000000000e+00  -9.8673106284378656e-06 -4.3384439217550747e-04 0.0000000000000000e+00  4.4661910815454128e-06 -6.1083222661962298e-05 0.0000000000000000e+00  -7.6697743829096730e-06 -2.8766313421259933e-04 0.0000000000000000e+00  1.7741827174572464e-06 -1.9094896316697147e-05 0.0000000000000000e+00  5.5675225697593164e-06 -8.5501068047894054e-05 0.0000000000000000e+00  -7.0996768311313345e-06 -2.4315430965151958e-04 0.0000000000000000e+00  -9.0261915638133618e-06 -3.8343154736711306e-04 0.0000000000000000e+00  7.9445528499938022e-06 -1.1428161827990011e-04 0.0000000000000000e+00  -6.5797915497403286e-06 -2.0148138437458825e-04 0.0000000000000000e+00  -8.2101846020195436e-07 -3.6575187004570638e-07 0.0000000000000000e+00  -7.8846695867865322e-07 8.4273847809592788e-07 0.0000000000000000e+00  1.0997018927902202e-06 -7.1931006800690232e-04 0.0000000000000000e+00  -8.18069