<?xml version="1.0"?>
<VTKFile type="UnstructuredGrid"  version="0.1"  >
<UnstructuredGrid>
<Piece  NumberOfPoints="1419" NumberOfCells="2698">
<Points>
<DataArray  type="Float64"  NumberOfComponents="3"  format="ascii">0 0 0  0 0.41 0  2.5 0 0  2.5 0.41 0  0.6 0.19 0  0.6 0.21 0  0.25 0.2 0  0.15 0.2 0  0.2489897948556636 0.21 0  0.2489897948556636 0.19 0  0.6 0.2 0  0 0.3807142857143437 0  0 0.3514285714286952 0  0 0.3221428571430699 0  0 0.29285714285744 0  0 0.2635714285718054 0  0 0.2342857142861561 0  0 0.2050000000005308 0  0 0.175714285714732 0  0 0.1464285714289574 0  0 0.1171428571431897 0  0 0.08785714285737878 0  0 0.05857142857161107 0  0 0.02928571428580012 0  0.03015443760436003 0 0  0.06140001986583606 0 0  0.09377624077125973 0 0  0.1273239957535082 0 0  0.1620856860351972 0 0  0.1981052433264291 0 0  0.235428184091502 0 0  0.2741016576309132 0 0  0.3141745521465447 0 0  0.3556974926295285 0 0  0.3987229542472677 0 0  0.4433053055141081 0 0  0.4895008759286886 0 0  0.5373680609405097 0 0  0.5869673343216626 0 0  0.6383613676634521 0 0  0.6916151138468254 0 0  0.7467958595648856 0 0  0.8039733463919316 0 0  0.8632198139502143 0 0  0.9246101326867038 0 0  0.9882218810934433 0 0  1.054135445558498 0 0  1.122434100542598 0 0  1.193204177141305 0 0  1.266535089879536 0 0  1.342519516046404 0 0  1.421253448503939 0 0  1.502836389106271 0 0  1.587371439758838 0 0  1.674965418777374 0 0  1.765729001825544 0 0  1.859776908880082 0 0  1.957227977487062 0 0  2.058205329869943 0 0  2.162836591189951 0 0  2.271253957290865 0 0  2.383594446803425 0 0  2.5 0.1024999999997612 0  2.5 0.2049999999994743 0  2.5 0.3074999999997183 0  2.383594446803656 0.41 0  2.271253957291315 0.41 0  2.162836591190598 0.41 0  2.058205329870775 0.41 0  1.957227977488067 0.41 0  1.859776908881246 0.41 0  1.765729001826854 0.41 0  1.674965418778818 0.41 0  1.58737143976041 0.41 0  1.502836389107956 0.41 0  1.421253448505726 0.41 0  1.342519516048286 0.41 0  1.266535089881505 0.41 0  1.193204177143353 0.41 0  1.122434100544716 0.41 0  1.05413544556068 0.41 0  0.9882218810956305 0.41 0  0.9246101326886647 0.41 0  0.8632198139519631 0.41 0  0.8039733463934788 0.41 0  0.7467958595662458 0.41 0  0.6916151138480078 0.41 0  0.6383613676644679 0.41 0  0.5869673343225223 0.41 0  0.5373680609412221 0.41 0  0.4895008759292634 0.41 0  0.4433053055145528 0.41 0  0.3987229542475914 0.41 0  0.3556974926297398 0.41 0  0.3141745521466497 0.41 0  0.2741016576310038 0.41 0  0.2354281840915826 0.41 0  0.1981052433265003 0.41 0  0.1620856860352591 0.41 0  0.1273239957535623 0.41 0  0.09377624077128965 0.41 0  0.06140001986584975 0.41 0  0.03015443760436654 0.41 0  0.2497468076502589 0.2050254481002335 0  0.2497468076502614 0.1949745518997913 0  0.2469965252529372 0.1829317073451959 0  0.2439893735792749 0.1762316384219906 0  0.2400332147834255 0.1700443375285386 0  0.2352133972704371 0.1645032867342007 0  0.2296339016332438 0.1597280261969788 0  0.2234150974217223 0.1558215752574715 0  0.2166911463437691 0.1528682099456123 0  0.2096071079204251 0.1509316448471593 0  0.2023158100364996 0.1500536585536553 0  0.194974551899914 0.1502531923497262 0  0.1877417105387872 0.1515259415822739 0  0.1807733240461124 0.153844448527136 0  0.1742197252835808 0.15715869474974 0  0.1682222986673531 0.1613971801805478 0  0.162910430003803 0.1664684656256651 0  0.1583987151779087 0.1722631454351573 0  0.1547844879126891 0.178656207771761 0  0.1521457199348551 0.1855097315605723 0  0.1505393388476355 0.1926758619366523 0  0.1505393388476328 0.2073241380633295 0  0.1521457199348437 0.2144902684393899 0  0.1547844879126531 0.221343792228163 0  0.1583987151778488 0.2277368545647528 0  0.1629104300036858 0.2335315343742052 0  0.1682222986671726 0.2386028198193036 0  0.1742197252833576 0.2428413052501257 0  0.1807733240458683 0.2461555514727623 0  0.1877417105384929 0.2484740584176516 0  0.1949745518995776 0.2497468076502398 0  0.202315810036185 0.2499463414463592 0  0.2096071079201568 0.2490683551528932 0  0.2166911463435495 0.2471317900544655 0  0.2234150974215506 0.2441784247426195 0  0.2296339016331197 0.2402719738031125 0  0.2352133972703547 0.2354967132658811 0  0.2400332147833751 0.2299556624715287 0  0.2439893735792577 0.2237683615780412 0  0.246996525252926 0.2170682926548348 0  0.25645809709277 0.21 0  0.2639263993298655 0.21 0  0.271394701566961 0.21 0  0.2788630038040554 0.21 0  0.2863313060411479 0.21 0  0.2937996082782405 0.21 0  0.301267910515333 0.21 0  0.3087362127524279 0.21 0  0.3162045149895234 0.21 0  0.3236728172265972 0.21 0  0.3311411194636928 0.21 0  0.3386094217007701 0.21 0  0.3460777239378666 0.21 0  0.3535460261749672 0.21 0  0.3610143284120516 0.21 0  0.3684826306491596 0.21 0  0.3759509328862226 0.21 0  0.383419235123329 0.21 0  0.3908875373604028 0.21 0  0.3983558395975142 0.21 0  0.4058241418345938 0.21 0  0.4132924440716992 0.21 0  0.4207607463087888 0.21 0  0.4282290485459029 0.21 0  0.4356973507830418 0.21 0  0.4431656530201649 0.21 0  0.4506339552573136 0.21 0  0.4581022574944306 0.21 0  0.4655705597315852 0.21 0  0.4730388619686996 0.21 0  0.480507164205851 0.21 0  0.4879754664429498 0.21 0  0.4954437686800938 0.21 0  0.502912070917267 0.21 0  0.5103803731544119 0.21 0  0.5178486753915261 0.21 0  0.5253169776286404 0.21 0  0.5327852798657868 0.21 0  0.5402535821029386 0.21 0  0.54772188434007 0.21 0  0.5551901865771842 0.21 0  0.5626584888143201 0.21 0  0.5701267910514778 0.21 0  0.5775950932886138 0.21 0  0.5850633955257281 0.21 0  0.5925316977628483 0.21 0  0.6 0.2050000000000054 0  0.6 0.1950000000000217 0  0.5925316977628897 0.19 0  0.5850633955257988 0.19 0  0.5775950932887378 0.19 0  0.5701267910515998 0.19 0  0.5626584888145268 0.19 0  0.5551901865773963 0.19 0  0.547721884340339 0.19 0  0.5402535821032429 0.19 0  0.5327852798661811 0.19 0  0.5253169776290537 0.19 0  0.5178486753919799 0.19 0  0.5103803731549078 0.19 0  0.502912070917822 0.19 0  0.4954437686807294 0.19 0  0.4879754664436223 0.19 0  0.4805071642065402 0.19 0  0.4730388619694271 0.19 0  0.4655705597323621 0.19 0  0.4581022574952563 0.19 0  0.4506339552581777 0.19 0  0.4431656530210671 0.19 0  0.4356973507839815 0.19 0  0.4282290485468779 0.19 0  0.4207607463097617 0.19 0  0.4132924440726327 0.19 0  0.4058241418354857 0.19 0  0.3983558395983636 0.19 0  0.3908875373612097 0.19 0  0.3834192351240934 0.19 0  0.3759509328869369 0.19 0  0.3684826306498175 0.19 0  0.361014328412667 0.19 0  0.3535460261755617 0.19 0  0.3460777239384295 0.19 0  0.3386094217012945 0.19 0  0.3311411194641595 0.19 0  0.3236728172270245 0.19 0  0.3162045149898895 0.19 0  0.3087362127527544 0.19 0  0.3012679105156187 0.19 0  0.2937996082784807 0.19 0  0.2863313060413428 0.19 0  0.2788630038042048 0.19 0  0.2713947015670686 0.19 0  0.2639263993299336 0.19 0  0.2564580970927985 0.19 0  0.2607803159922026 0.2000727136295815 0  0.5887803774232762 0.2001272386983733 0  0.5745072403740523 0.2002044435018727 0  0.5511891430099709 0.2001122610077113 0  0.2751288526855082 0.20000000000002 0  0.5365194309847112 0.1999999999999436 0  0.2894621222999649 0.1998691686390484 0  0.5215828265105155 0.1999999999999228 0  0.3127789816668748 0.1998657885438805 0  0.3274069683451451 0.2000000000000796 0  0.5066462220363641 0.199999999999908 0  0.3650630746574081 0.199866017807523 0  0.476773013087985 0.1999999999998713 0  0.3417402379596385 0.1998691686391011 0  0.3796850840047755 0.200000000000134 0  0.4618364086138087 0.1999999999998546 0  0.4917096175621762 0.1999999999998808 0  0.3946216884789568 0.2000000000001512 0  0.446899804139621 0.1999999999998389 0  0.4089549580935208 0.1998691686391595 0  0.4322718174608562 0.200127451265745 0  0.4201487168029707 0.1999966199048527 0  0.3528922713220932 0.2000185703532356 0  0.5633122436674589 0.1999814296467508 0  0.3006558810093873 0.1999966199048318 0  0.5815926498168407 0.1966545283159175 0  0.2677053789419034 0.1964246479135325 0  0.5290511287476175 0.1970915826863981 0  0.5439877332217911 0.197091582686394 0  0.2825131256993216 0.2035478995978015 0  0.3199386661080599 0.202908417313604 0  0.4842413153250809 0.1970915826863873 0  0.5141145242734466 0.1970915826863843 0  0.3722167817676917 0.2029084173136195 0  0.4693047108508938 0.1970915826863783 0  0.3348752705822316 0.202908417313609 0  0.3871533862418661 0.2029084173136212 0  0.4543681063767183 0.1970915826863795 0  0.4991779197992749 0.1970915826863902 0  0.4020059614928624 0.203547899597858 0  0.4394315019025246 0.1970915826863714 0  0.2550657455369551 0.2034088125358657 0  0.2548908499171161 0.1966940311614271 0  0.5946539510196798 0.2024302972968126 0  0.267698176732111 0.2039977513680092 0  0.4261685417851465 0.196409292431739 0  0.3590076176283495 0.196411355804271 0  0.5571672426447437 0.2036011176410121 0  0.3066757059912147 0.1964092924317024 0  0.594380730180568 0.1966558399668133 0  0.4842413153245942 0.2040749161535287 0  0.4693047108503577 0.2040749161535231 0  0.3871533862424271 0.1959250838464788 0  0.372246743208829 0.1959123236376545 0  0.5141145242731028 0.2040749161535395 0  0.4543681063761134 0.2040749161535186 0  0.4019979587101454 0.1959834479682427 0  0.4394608940728603 0.2040870543693135 0  0.5439623148931173 0.2040856076781014 0  0.5290511287473298 0.2040749161535501 0  0.4991779197988497 0.2040749161535382 0  0.3347912413592433 0.1959225448935183 0  0.3199680582793816 0.1959123018030061 0  0.2825051229162361 0.1959834479681729 0  0.3590471196690275 0.2036304442587945 0  0.5571594006495384 0.1963685282145804 0  0.3067669986803285 0.203627750582736 0  0.4262598344738712 0.2036568242185335 0  0.5814408164431408 0.2041285596160068 0  0.5688286748170428 0.1961819304477386 0  0.4145905603063645 0.2038180695522843 0  0.3473758401724931 0.2038180695522752 0  0.2950977245128307 0.2038180695522663 0  0.5688286748170693 0.203818069552238 0  0.2950977245127906 0.1961819304477774 0  0.3473758401723931 0.1961819304478349 0  0.4145905603061963 0.1961819304479011 0  0.2601812407614425 0.2056861609747042
[...]
<PointData  Vectors="f_40-1"> 
<DataArray  type="Float64"  Name="f_40-1"  NumberOfComponents="3" format="ascii">0.0000000000000000e+00 0.0000000000000000e+00 0.0000000000000000e+00  0.0000000000000000e+00 0.0000000000000000e+00 0.0000000000000000e+00  0.0000000000000000e+00 0.0000000000000000e+00 0.0000000000000000e+00  0.0000000000000000e+00 0.0000000000000000e+00 0.0000000000000000e+00  2.0022125174589348e-06 1.0638814279079712e-03 0.0000000000000000e+00  -5.6379963041521051e-05 1.0608022273490478e-03 0.0000000000000000e+00  0.0000000000000000e+00 0.0000000000000000e+00 0.0000000000000000e+00  0.0000000000000000e+00 0.0000000000000000e+00 0.0000000000000000e+00  0.0000000000000000e+00 0.0000000000000000e+00 0.0000000000000000e+00  0.0000000000000000e+00 0.0000000000000000e+00 0.0000000000000000e+00  -2.7531333750390098e-05 1.0623447138908948e-03 0.0000000000000000e+00  0.0000000000000000e+00 0.0000000000000000e+00 0.0000000000000000e+00  0.0000000000000000e+00 0.0000000000000000e+00 0.0000000000000000e+00  0.0000000000000000e+00 0.0000000000000000e+00 0.0000000000000000e+00  0.0000000000000000e+00 0.0000000000000000e+00 0.0000000000000000e+00  0.0000000000000000e+00 0.0000000000000000e+00 0.0000000000000000e+00  0.0000000000000000e+00 0.0000000000000000e+00 0.0000000000000000e+00  0.0000000000000000e+00 0.0000000000000000e+00 0.0000000000000000e+00  0.0000000000000000e+00 0.0000000000000000e+00 0.0000000000000000e+00  0.0000000000000000e+00 0.0000000000000000e+00 0.0000000000000000e+00  0.0000000000000000e+00 0.0000000000000000e+00 0.0000000000000000e+00  0.0000000000000000e+00 0.0000000000000000e+00 0.0000000000000000e+00  0.0000000000000000e+00 0.0000000000000000e+00 0.0000000000000000e+00  0.0000000000000000e+00 0.0000000000000000e+00 0.0000000000000000e+00  0.0000000000000000e+00 0.0000000000000000e+00 0.0000000000000000e+00  0.0000000000000000e+00 0.0000000000000000e+00 0.0000000000000000e+00  0.0000000000000000e+00 0.0000000000000000e+00 0.0000000000000000e+00  0.0000000000000000e+00 0.0000000000000000e+00 0.0000000000000000e+00  0.0000000000000000e+00 0.0000000000000000e+00 0.0000000000000000e+00  0.0000000000000000e+00 0.0000000000000000e+00 0.0000000000000000e+00  0.0000000000000000e+00 0.0000000000000000e+00 0.0000000000000000e+00  0.0000000000000000e+00 0.0000000000000000e+00 0.0000000000000000e+00  0.0000000000000000e+00 0.0000000000000000e+00 0.0000000000000000e+00  0.0000000000000000e+00 0.0000000000000000e+00 0.0000000000000000e+00  0.0000000000000000e+00 0.0000000000000000e+00 0.0000000000000000e+00  0.0000000000000000e+00 0.0000000000000000e+00 0.0000000000000000e+00  0.0000000000000000e+00 0.0000000000000000e+00 0.0000000000000000e+00  0.0000000000000000e+00 0.0000000000000000e+00 0.0000000000000000e+00  0.0000000000000000e+00 0.0000000000000000e+00 0.0000000000000000e+00  0.0000000000000000e+00 0.0000000000000000e+00 0.0000000000000000e+00  0.0000000000000000e+00 0.0000000000000000e+00 0.0000000000000000e+00  0.0000000000000000e+00 0.0000000000000000e+00 0.0000000000000000e+00  0.0000000000000000e+00 0.0000000000000000e+00 0.0000000000000000e+00  0.0000000000000000e+00 0.0000000000000000e+00 0.0000000000000000e+00  0.0000000000000000e+00 0.0000000000000000e+00 0.0000000000000000e+00  0.0000000000000000e+00 0.0000000000000000e+00 0.0000000000000000e+00  0.0000000000000000e+00 0.0000000000000000e+00 0.0000000000000000e+00  0.0000000000000000e+00 0.0000000000000000e+00 0.0000000000000000e+00  0.0000000000000000e+00 0.0000000000000000e+00 0.0000000000000000e+00  0.0000000000000000e+00 0.0000000000000000e+00 0.0000000000000000e+00  0.0000000000000000e+00 0.0000000000000000e+00 0.0000000000000000e+00  0.0000000000000000e+00 0.0000000000000000e+00 0.0000000000000000e+00  0.0000000000000000e+00 0.0000000000000000e+00 0.0000000000000000e+00  0.0000000000000000e+00 0.0000000000000000e+00 0.0000000000000000e+00  0.0000000000000000e+00 0.0000000000000000e+00 0.0000000000000000e+00  0.0000000000000000e+00 0.0000000000000000e+00 0.0000000000000000e+00  0.0000000000000000e+00 0.0000000000000000e+00 0.0000000000000000e+00  0.0000000000000000e+00 0.0000000000000000e+00 0.0000000000000000e+00  0.0000000000000000e+00 0.0000000000000000e+00 0.0000000000000000e+00  0.0000000000000000e+00 0.0000000000000000e+00 0.0000000000000000e+00  0.0000000000000000e+00 0.0000000000000000e+00 0.0000000000000000e+00  0.0000000000000000e+00 0.0000000000000000e+00 0.0000000000000000e+00  0.0000000000000000e+00 0.0000000000000000e+00 0.0000000000000000e+00  0.0000000000000000e+00 0.0000000000000000e+00 0.0000000000000000e+00  0.0000000000000000e+00 0.0000000000000000e+00 0.0000000000000000e+00  0.0000000000000000e+00 0.0000000000000000e+00 0.0000000000000000e+00  0.0000000000000000e+00 0.0000000000000000e+00 0.0000000000000000e+00  0.0000000000000000e+00 0.0000000000000000e+00 0.0000000000000000e+00  0.0000000000000000e+00 0.0000000000000000e+00 0.0000000000000000e+00  0.0000000000000000e+00 0.0000000000000000e+00 0.0000000000000000e+00  0.0000000000000000e+00 0.0000000000000000e+00 0.0000000000000000e+00  0.0000000000000000e+00 0.0000000000000000e+00 0.0000000000000000e+00  0.0000000000000000e+00 0.0000000000000000e+00 0.0000000000000000e+00  0.0000000000000000e+00 0.0000000000000000e+00 0.0000000000000000e+00  0.0000000000000000e+00 0.0000000000000000e+00 0.0000000000000000e+00  0.0000000000000000e+00 0.0000000000000000e+00 0.0000000000000000e+00  0.0000000000000000e+00 0.0000000000000000e+00 0.0000000000000000e+00  0.0000000000000000e+00 0.0000000000000000e+00 0.0000000000000000e+00  0.0000000000000000e+00 0.0000000000000000e+00 0.0000000000000000e+00  0.0000000000000000e+00 0.0000000000000000e+00 0.0000000000000000e+00  0.0000000000000000e+00 0.0000000000000000e+00 0.0000000000000000e+00  0.0000000000000000e+00 0.0000000000000000e+00 0.0000000000000000e+00  0.0000000000000000e+00 0.0000000000000000e+00 0.0000000000000000e+00  0.0000000000000000e+00 0.0000000000000000e+00 0.0000000000000000e+00  0.0000000000000000e+00 0.0000000000000000e+00 0.0000000000000000e+00  0.0000000000000000e+00 0.0000000000000000e+00 0.0000000000000000e+00  0.0000000000000000e+00 0.0000000000000000e+00 0.0000000000000000e+00  0.0000000000000000e+00 0.0000000000000000e+00 0.0000000000000000e+00  0.0000000000000000e+00 0.0000000000000000e+00 0.0000000000000000e+00  0.0000000000000000e+00 0.0000000000000000e+00 0.0000000000000000e+00  0.0000000000000000e+00 0.0000000000000000e+00 0.0000000000000000e+00  0.0000000000000000e+00 0.0000000000000000e+00 0.0000000000000000e+00  0.0000000000000000e+00 0.0000000000000000e+00 0.0000000000000000e+00  0.0000000000000000e+00 0.0000000000000000e+00 0.0000000000000000e+00  0.0000000000000000e+00 0.0000000000000000e+00 0.0000000000000000e+00  0.0000000000000000e+00 0.0000000000000000e+00 0.0000000000000000e+00  0.0000000000000000e+00 0.0000000000000000e+00 0.0000000000000000e+00  0.0000000000000000e+00 0.0000000000000000e+00 0.0000000000000000e+00  0.0000000000000000e+00 0.0000000000000000e+00 0.0000000000000000e+00  0.0000000000000000e+00 0.0000000000000000e+00 0.0000000000000000e+00  0.0000000000000000e+00 0.0000000000000000e+00 0.0000000000000000e+00  0.0000000000000000e+00 0.0000000000000000e+00 0.0000000000000000e+00  0.0000000000000000e+00 0.0000000000000000e+00 0.0000000000000000e+00  0.0000000000000000e+00 0.0000000000000000e+00 0.0000000000000000e+00  0.0000000000000000e+00 0.0000000000000000e+00 0.0000000000000000e+00  0.0000000000000000e+00 0.0000000000000000e+00 0.0000000000000000e+00  0.0000000000000000e+00 0.0000000000000000e+00 0.0000000000000000e+00  0.0000000000000000e+00 0.0000000000000000e+00 0.0000000000000000e+00  0.0000000000000000e+00 0.0000000000000000e+00 0.0000000000000000e+00  0.0000000000000000e+00 0.0000000000000000e+00 0.0000000000000000e+00  0.0000000000000000e+00 0.0000000000000000e+00 0.0000000000000000e+00  0.0000000000000000e+00 0.0000000000000000e+00 0.0000000000000000e+00  0.0000000000000000e+00 0.0000000000000000e+00 0.0000000000000000e+00  0.0000000000000000e+00 0.0000000000000000e+00 0.0000000000000000e+00  0.0000000000000000e+00 0.0000000000000000e+00 0.0000000000000000e+00  0.0000000000000000e+00 0.0000000000000000e+00 0.0000000000000000e+00  0.0000000000000000e+00 0.0000000000000000e+00 0.0000000000000000e+00  0.0000000000000000e+00 0.0000000000000000e+00 0.0000000000000000e+00  0.0000000000000000e+00 0.0000000000000000e+00 0.0000000000000000e+00  0.0000000000000000e+00 0.0000000000000000e+00 0.0000000000000000e+00  0.0000000000000000e+00 0.0000000000000000e+00 0.0000000000000000e+00  0.0000000000000000e+00 0.0000000000000000e+00 0.0000000000000000e+00  0.0000000000000000e+00 0.0000000000000000e+00 0.0000000000000000e+00  0.0000000000000000e+00 0.0000000000000000e+00 0.0000000000000000e+00  0.0000000000000000e+00 0.0000000000000000e+00 0.0000000000000000e+00  0.0000000000000000e+00 0.0000000000000000e+00 0.0000000000000000e+00  0.0000000000000000e+00 0.0000000000000000e+00 0.0000000000000000e+00  0.0000000000000000e+00 0.0000000000000000e+00 0.0000000000000000e+00  0.0000000000000000e+00 0.0000000000000000e+00 0.0000000000000000e+00  0.0000000000000000e+00 0.0000000000000000e+00 0.0000000000000000e+00  0.0000000000000000e+00 0.0000000000000000e+00 0.0000000000000000e+00  0.0000000000000000e+00 0.0000000000000000e+00 0.0000000000000000e+00  0.0000000000000000e+00 0.0000000000000000e+00 0.0000000000000000e+00  0.0000000000000000e+00 0.0000000000000000e+00 0.0000000000000000e+00  0.0000000000000000e+00 0.0000000000000000e+00 0.0000000000000000e+00  0.0000000000000000e+00 0.0000000000000000e+00 0.0000000000000000e+00  0.0000000000000000e+00 0.0000000000000000e+00 0.0000000000000000e+00  0.0000000000000000e+00 0.0000000000000000e+00 0.0000000000000000e+00  0.0000000000000000e+00 0.0000000000000000e+00 0.0000000000000000e+00  0.0000000000000000e+00 0.0000000000000000e+00 0.0000000000000000e+00  0.0000000000000000e+00 0.0000000000000000e+00 0.0000000000000000e+00  0.0000000000000000e+00 0.0000000000000000e+00 0.0000000000000000e+00  0.0000000000000000e+00 0.0000000000000000e+00 0.0000000000000000e+00  -5.3352473836933700e-06 2.9422823499948953e-06 0.0000000000000000e+00  -1.1006423004654407e-05 8.5485178413576175e-06 0.0000000000000000e+00  -1.5773131303553984e-05 1.7316508458784040e-05 0.0000000000000000e+00  -2.0565613814130573e-05 2.9375822912991258e-05 0.0000000000000000e+00  -2.4417858687578806e-05 4.3813891007102987e-05 0.0000000000000000e+00  -2.8420792244037492e-05 6.0809068357720126e-05 0.0000000000000000e+00  -3.1555312100531832e-05 7.9514067129702755e-05 0.0000000000000000e+00  -3.4386986570106472e-05 1.0032457344196076e-04 0.0000000000000000e+00  -3.7329664009247293e-05 1.2258974620996200e-04 0.0000000000000000e+00  -3.9488371591737942e-05 1.4618270532424805e-04 0.0000000000000000e+00  -4.1769100322924507e-05 1.7100943095369630e-04 0.0000000000000000e+00  -4.3427510497721220e-05 1.9672635852956908e-04 0.0000000000000000e+00  -4.5061943774692655e-05 2.2324021541267054e-04 0.0000000000000000e+00  -4.6310955727414502e-05 2.5025942967038327e-04 0.0000000000000000e+00  -4.7361933500818986e-05 2.7777840366951292e-04 0.0000000000000000e+00  -4.8312909003792445e-05 3.0557222505411049e-04 0.0000000000000000e+00  -4.9006646208802477e-05 3.3350761356103334e-04 0.0000000000000000e+00  -4.9571161775479755e-05 3.6153905388536489e-04 0.0000000000000000e+00  -5.0000064924152191e-05 3.8947788610387539e-04 0.0000000000000000e+00  -5.0278590166790643e-05 4.1732796248895605e-04 0.0000000000000000e+00  -5.0497304228895434e-05 4.4493318106941608e-04 0.0000000000000000e+00  -5.0562605464914622e-05 4.7227984704007538e-04 0.0000000000000000e+00  -5.0649748566976027e-05 4.9935837445101803e-04 0.0000000000000000e+00  -5.0675397911946684e-05 5.2604388166350134e-04 0.0000000000000000e+00  -5.0590162681270061e-05 5.5242852927537775e-04 0.0000000000000000e+00  -5.0539931832218048e-05 5.7839239616692332e-04 0.0000000000000000e+00  -5.0441644759702307e-05 6.0398426381479456e-04 0.0000000000000000e+00  -5.0379271580945822e-05 6.2919057863609267e-04 0.0000000000000000e+00  -5.0288966521618704e-05 6.5401325846203926e-04 0.0000000000000000e+00  -5.0252779544762440e-05 6.7848047947727957e-04 0.0000000000000000e+00  -5.0207116784619676e-05 7.0258219387295826e-04 0.0000000000000000e+00  -5.0226928863786529e-05 7.2636975198141543e-04 0.0000000000000000e+00  -5.0255186975167275e-05 7.4982772508375064e-04 0.0000000000000000e+00  -5.0353278065769606e-05 7.7302360405382764e-04 0.0000000000000000e+00  -5.0474615240769678e-05 7.9593799179802211e-04 0.0000000000000000e+00  -5.0671775804537070e-05 8.1865256185117540e-04 0.0000000000000000e+00  -5.0903525907250430e-05 8.4113944954310096e-04 0.0000000000000000e+00  -5.1210570293087933e-05 8.6348755402981738e-04 0.0000000000000000e+00  -5.1560405080990494e-05 8.8566290014309022e-04 0.0000000000000000e+00  -5.1985467623591350e-05 9.0775917755074218e-04 0.0000000000000000e+00  -5.2462986078593413e-05 9.2973686385586349e-04 0.0000000000000000e+00  -5.3007501766061280e-05 9.5167518843135410e-04 0.0000000000000000e+00  -5.3613029590147596e-05 9.7355853920582096e-04 0.0000000000000000e+00  -5.4250621453084628e-05 9.9542420158775708e-04 0.0000000000000000e+00  -5.4961700548955615e-05 1.0172967864116506e-03 0.0000000000000000e+00  -5.5695060783859704e-05 1.0391297248326648e-03 0.0000000000000000e+00  -4.2071946317504227e-05 1.0615749555674095e-03 0.0000000000000000e+00  -1.2872489060812113e-05 1.0631086868820834e-03 0.0000000000000000e+00  2.7010490612885261e-06 1.0419580075243112e-03 0.0000000000000000e+00  3.4661339607675377e-06 1.0201984498319780e-03 0.0000000000000000e+00  4.2201466194867368e-06 9.9845543052288024e-04 0.0000000000000000e+00  4.9490346688682354e-06 9.7667199077549759e-04 0.0000000000000000e+00  5.6629504557166417e-06 9.5486145266476525e-04 0.0000000000000000e+00  6.3618149840018821e-06 9.3299254989020564e-04 0.0000000000000000e+00  7.0791264217195432e-06 9.1105510782602797e-04 0.0000000000000000e+00  7.7674061400595348e-06 8.8903198204832589e-04 0.0000000000000000e+00  8.5026608769686973e-06 8.6687687892922209e-04 0.0000000000000000e+00  9.2012247187918879e-06 8.4458433464431324e-04 0.0000000000000000e+00  9.9742696160652133e-06 8.2210958181401755e-04 0.0000000000000000e+00  1.0700507337503584e-05 7.9943614549211526e-04 0.0000000000000000e+00  1.1526848536236343e-05 7.7652636538818557e-04 0.0000000000000000e+00  1.2289991815122666e-05 7.5335766528832266e-04 0.0000000000000000e+00  1.3172143535329576e-05 7.2989802741370475e-04 0.0000000000000000e+00  1.3972815112256296e-05 7.0612579476278579e-04 0.0000000000000000e+00  1.4905870387054799e-05 6.8201596093547953e-04 0.0000000000000000e+00  1.5740377888658311e-05 6.5755057045692249e-04 0.0000000000000000e+00  1.6713971596218892e-05 6.3271393224518515e-04 0.0000000000000000e+00  1.7572445804735315e-05 6.0749658420798625e-04 0.0000000000000000e+00  1.8567119013250291e-05 5.8188629810026538e-04 0.0000000000000000e+00  1.9434385335666523e-05 5.5588629521527736e-04 0.0000000000000000e+00  2.0405119360711926e-05 5.2949693601418908e-04 0.0000000000000000e+00  2.1266190061338889e-05 5.0277186006529367e-04 0.0000000000000000e+00  2.2099194345061704e-05 4.7565528339564475e-04 0.0000000000000000e+00  2.2961506843283146e-05 4.4827858133559699e-04 0.0000000000000000e+00  2.3714184695765477e-05 4.2062040938563864e-04 0.0000000000000000e+00  2.4415874151049068e-05 3.9273792784170602e-04 0.0000000000000000e+00  2.5013503495976563e-05 3.6474848495037849e-04 0.0000000000000000e+00  2.5503920624750868e-05 3.3666902473004169e-04 0.0000000000000000e+00  2.5879968430155462e-05 3.0866801902015015e-04 0.0000000000000000e+00  2.6043737254831652e-05 2.8083776198902850e-04 0.0000000000000000e+00  2.6139277924011023e-05 2.5325620035441832e-04 0.0000000000000000e+00  2.6078284020107414e-05 2.2619218515241863e-04 0.0000000000000000e+00  2.5705164065338469e-05 1.9956399673283308e-04 0.0000000000000000e+00  2.5203723375369220e-05 1.7381219104804332e-04 0.0000000000000000e+00  2.4369476474344121e-05 1.4890858607299331e-04 0.0000000000000000e+00  2.3405656171072454e-05 1.2518825690060149e-04 0.0000000000000000e+00  2.1855836871034731e-05 1.0293739457916506e-04 0.0000000000000000e+00  2.0426121646407903e-05 8.2032134434352420e-05 0.0000000000000000e+00  1.8743587599591116e-05 6.3262578553485005e-05 0.0000000000000000e+00  1.6273103727367554e-05 4.6130613884624260e-05 0.0000000000000000e+00  1.3831720905448818e-05 3.1590069332151105e-05 0.0000000000000000e+00  1.0574626675884749e-05 1.9651610348379885e-05 0.0000000000000000e+00  7.5374174589087271e-06 1.0724212575860005e-05 0.0000000000000000e+00  3.6178871483006748e-06 4.8815224355542127e-06 0.0000000000000000e+00  -1.5827825348016024e-06 4.4232218996303511e-06 0.0000000000000000e+00  -2.6633734262405774e-05 1.0295870072600613e-03 0.0000000000000000e+00  -2.5389229448406798e-05 9.8791054324075971e-04 0.0000000000000000e+00  -2.3112286064918517e-05 9.1965020773919590e-04 0.0000000000000000e+00  -2.9369473732840644e-06 2.2279812812714424e-05 0.0000000000000000e+00  -2.1678050827351528e-05 8.7636826493138725e-04 0.0000000000000000e+00  -4.1221895265630681e-06 5.0324568150285995e-05 0.0000000000000000e+00  -2.0647830481749881e-05 8.3176673630461163e-04 0.0000000000000000e+00  -6.2246904330271180e-06 1.1252603290825040e-04 0.0000000000000000e+00  -7.9222734483061683e-06 1.5915285068993535e-04 0.0000000000000000e+00  -1.9692827999551671e-05 7.8641981148075499e-04 0.0000000000000000e+00  -1.0469151045492487e-05 2.9420889948945234e-04 0.0000000000000000e+00  -1.7928009313343487e-05 6.9256249100904622e-04 0.0000000000000000e+00  -8.6793836250232643e-06 2.0873141939913527e-04 0.0000000000000000e+00  -1.2023184701819633e-05 3.4909376368827806e-04 0.0000000000000000e+00  -1.7081356373837278e-05 6.4365098386021851e-04 0.0000000000000000e+00  -1.8792390068864154e-05 7.4009166085870111e-04 0.0000000000000000e+00  -1.3045138144609622e-05 4.0515115703709743e-04 0.0000000000000000e+00  -1.6236108926182549e-05 5.9322925399301208e-04 0.0000000000000000e+00  -1.3496183192457939e-05 4.5830699760336061e-04 0.0000000000000000e+00  -1.5838484205382630e-05 5.4231403543525294e-04 0.0000000000000000e+00  -1.4652305123642179e-05 4.9900638333995947e-04 0.0000000000000000e+00  -1.0095770013578181e-05 2.4912998340484302e-04 0.0000000000000000e+00  -2.3747111842637194e-05 9.5521113865541937e-04 0.0000000000000000e+00  -5.4639643648483548e-06 7.8247959947514638e-05 0.0000000000000000e+00  -1.5713005333716030e-05 1.0091119737534327e-03 0.0000000000000000e+00  1.8238493520292045e-06 1.2424387326286316e-05 0.0000000000000000e+00  -1.2434560029376729e-05 8.5462812934998869e-04 0.0000000000000000e+00  -1.3613058924737085e-05 8.9893617249202828e-04 0.0000000000000000e+00  -1.0262529958155782e-05 3.5467294049720050e-05 0.0000000000000000e+00  -1.6320759546110472e-05 1.3446691748874044e-04 0.0000000000000000e+00  -9.0757067015543863e-06 7.1697547563159846e-04 0.0000000000000000e+00  -1.1298813627991696e-05 8.0968720622857633e-04 0.0000000000000000e+00  -2.2289492573979743e-05 3.2056150459156864e-04 0.0000000000000000e+00  -7.9610427568141708e-06 6.6877159943454592e-04 0.0000000000000000e+00  -1.8417853401036351e-05 1.8426155451277876e-04 0.0000000000000000e+00  -2.3363389347492231e-05 3.7670052762502309e-04 0.0000000000000000e+00  -6.8329317622718959e-06 6.1911369146552516e-04 0.0000000000000000e+00  -1.0184515742991258e-05 7.6388014028673696e-04 0.0000000000000000e+00  -2.6604847131595867e-05 4.3202997549500672e-04 0.0000000000000000e+00  -5.6953239164422328e-06 5.6790670321610792e-04 0.0000000000000000e+00  -1.6256478244049510e-06 8.7827021291813762e-07 0.0000000000000000e+00  -1.5010075351699459e-07 1.2257004044090188e-06 0.0000000000000000e+00  -3.4015592295590129e-05 1.0464000439808112e-03 0.0000000000000000e+00  -6.6697468429454067e-06 1.1548891630187823e-05 0.0000000000000000e+00  -2.2365943612228765e-06 5.2123841809151338e-04 0.00000