<?xml version="1.0"?>
<VTKFile type="UnstructuredGrid"  version="0.1"  >
<UnstructuredGrid>
<Piece  NumberOfPoints="1419" NumberOfCells="2698">
<Points>
<DataArray  type="Float64"  NumberOfComponents="3"  format="ascii">0 0 0  0 0.41 0  2.5 0 0  2.5 0.41 0  0.6 0.19 0  0.6 0.21 0  0.25 0.2 0  0.15 0.2 0  0.2489897948556636 0.21 0  0.2489897948556636 0.19 0  0.6 0.2 0  0 0.3807142857143437 0  0 0.3514285714286952 0  0 0.3221428571430699 0  0 0.29285714285744 0  0 0.2635714285718054 0  0 0.2342857142861561 0  0 0.2050000000005308 0  0 0.175714285714732 0  0 0.1464285714289574 0  0 0.1171428571431897 0  0 0.08785714285737878 0  0 0.05857142857161107 0  0 0.02928571428580012 0  0.03015443760436003 0 0  0.06140001986583606 0 0  0.09377624077125973 0 0  0.1273239957535082 0 0  0.1620856860351972 0 0  0.1981052433264291 0 0  0.235428184091502 0 0  0.2741016576309132 0 0  0.3141745521465447 0 0  0.3556974926295285 0 0  0.3987229542472677 0 0  0.4433053055141081 0 0  0.4895008759286886 0 0  0.5373680609405097 0 0  0.5869673343216626 0 0  0.6383613676634521 0 0  0.6916151138468254 0 0  0.7467958595648856 0 0  0.8039733463919316 0 0  0.8632198139502143 0 0  0.9246101326867038 0 0  0.9882218810934433 0 0  1.054135445558498 0 0  1.122434100542598 0 0  1.193204177141305 0 0  1.266535089879536 0 0  1.342519516046404 0 0  1.421253448503939 0 0  1.502836389106271 0 0  1.587371439758838 0 0  1.674965418777374 0 0  1.765729001825544 0 0  1.859776908880082 0 0  1.957227977487062 0 0  2.058205329869943 0 0  2.162836591189951 0 0  2.271253957290865 0 0  2.383594446803425 0 0  2.5 0.1024999999997612 0  2.5 0.2049999999994743 0  2.5 0.3074999999997183 0  2.383594446803656 0.41 0  2.271253957291315 0.41 0  2.162836591190598 0.41 0  2.058205329870775 0.41 0  1.957227977488067 0.41 0  1.859776908881246 0.41 0  1.765729001826854 0.41 0  1.674965418778818 0.41 0  1.58737143976041 0.41 0  1.502836389107956 0.41 0  1.421253448505726 0.41 0  1.342519516048286 0.41 0  1.266535089881505 0.41 0  1.193204177143353 0.41 0  1.122434100544716 0.41 0  1.05413544556068 0.41 0  0.9882218810956305 0.41 0  0.9246101326886647 0.41 0  0.8632198139519631 0.41 0  0.8039733463934788 0.41 0  0.7467958595662458 0.41 0  0.6916151138480078 0.41 0  0.6383613676644679 0.41 0  0.5869673343225223 0.41 0  0.5373680609412221 0.41 0  0.4895008759292634 0.41 0  0.4433053055145528 0.41 0  0.3987229542475914 0.41 0  0.3556974926297398 0.41 0  0.3141745521466497 0.41 0  0.2741016576310038 0.41 0  0.2354281840915826 0.41 0  0.1981052433265003 0.41 0  0.1620856860352591 0.41 0  0.1273239957535623 0.41 0  0.09377624077128965 0.41 0  0.06140001986584975 0.41 0  0.03015443760436654 0.41 0  0.2497468076502589 0.2050254481002335 0  0.2497468076502614 0.1949745518997913 0  0.2469965252529372 0.1829317073451959 0  0.2439893735792749 0.1762316384219906 0  0.2400332147834255 0.1700443375285386 0  0.2352133972704371 0.1645032867342007 0  0.2296339016332438 0.1597280261969788 0  0.2234150974217223 0.1558215752574715 0  0.2166911463437691 0.1528682099456123 0  0.2096071079204251 0.1509316448471593 0  0.2023158100364996 0.1500536585536553 0  0.194974551899914 0.1502531923497262 0  0.1877417105387872 0.1515259415822739 0  0.1807733240461124 0.153844448527136 0  0.1742197252835808 0.15715869474974 0  0.1682222986673531 0.1613971801805478 0  0.162910430003803 0.1664684656256651 0  0.1583987151779087 0.1722631454351573 0  0.1547844879126891 0.178656207771761 0  0.1521457199348551 0.1855097315605723 0  0.1505393388476355 0.1926758619366523 0  0.1505393388476328 0.2073241380633295 0  0.1521457199348437 0.2144902684393899 0  0.1547844879126531 0.221343792228163 0  0.1583987151778488 0.2277368545647528 0  0.1629104300036858 0.2335315343742052 0  0.1682222986671726 0.2386028198193036 0  0.1742197252833576 0.2428413052501257 0  0.1807733240458683 0.2461555514727623 0  0.1877417105384929 0.2484740584176516 0  0.1949745518995776 0.2497468076502398 0  0.202315810036185 0.2499463414463592 0  0.2096071079201568 0.2490683551528932 0  0.2166911463435495 0.2471317900544655 0  0.2234150974215506 0.2441784247426195 0  0.2296339016331197 0.2402719738031125 0  0.2352133972703547 0.2354967132658811 0  0.2400332147833751 0.2299556624715287 0  0.2439893735792577 0.2237683615780412 0  0.246996525252926 0.2170682926548348 0  0.25645809709277 0.21 0  0.2639263993298655 0.21 0  0.271394701566961 0.21 0  0.2788630038040554 0.21 0  0.2863313060411479 0.21 0  0.2937996082782405 0.21 0  0.301267910515333 0.21 0  0.3087362127524279 0.21 0  0.3162045149895234 0.21 0  0.3236728172265972 0.21 0  0.3311411194636928 0.21 0  0.3386094217007701 0.21 0  0.3460777239378666 0.21 0  0.3535460261749672 0.21 0  0.3610143284120516 0.21 0  0.3684826306491596 0.21 0  0.3759509328862226 0.21 0  0.383419235123329 0.21 0  0.3908875373604028 0.21 0  0.3983558395975142 0.21 0  0.4058241418345938 0.21 0  0.4132924440716992 0.21 0  0.4207607463087888 0.21 0  0.4282290485459029 0.21 0  0.4356973507830418 0.21 0  0.4431656530201649 0.21 0  0.4506339552573136 0.21 0  0.4581022574944306 0.21 0  0.4655705597315852 0.21 0  0.4730388619686996 0.21 0  0.480507164205851 0.21 0  0.4879754664429498 0.21 0  0.4954437686800938 0.21 0  0.502912070917267 0.21 0  0.5103803731544119 0.21 0  0.5178486753915261 0.21 0  0.5253169776286404 0.21 0  0.5327852798657868 0.21 0  0.5402535821029386 0.21 0  0.54772188434007 0.21 0  0.5551901865771842 0.21 0  0.5626584888143201 0.21 0  0.5701267910514778 0.21 0  0.5775950932886138 0.21 0  0.5850633955257281 0.21 0  0.5925316977628483 0.21 0  0.6 0.2050000000000054 0  0.6 0.1950000000000217 0  0.5925316977628897 0.19 0  0.5850633955257988 0.19 0  0.5775950932887378 0.19 0  0.5701267910515998 0.19 0  0.5626584888145268 0.19 0  0.5551901865773963 0.19 0  0.547721884340339 0.19 0  0.5402535821032429 0.19 0  0.5327852798661811 0.19 0  0.5253169776290537 0.19 0  0.5178486753919799 0.19 0  0.5103803731549078 0.19 0  0.502912070917822 0.19 0  0.4954437686807294 0.19 0  0.4879754664436223 0.19 0  0.4805071642065402 0.19 0  0.4730388619694271 0.19 0  0.4655705597323621 0.19 0  0.4581022574952563 0.19 0  0.4506339552581777 0.19 0  0.4431656530210671 0.19 0  0.4356973507839815 0.19 0  0.4282290485468779 0.19 0  0.4207607463097617 0.19 0  0.4132924440726327 0.19 0  0.4058241418354857 0.19 0  0.3983558395983636 0.19 0  0.3908875373612097 0.19 0  0.3834192351240934 0.19 0  0.3759509328869369 0.19 0  0.3684826306498175 0.19 0  0.361014328412667 0.19 0  0.3535460261755617 0.19 0  0.3460777239384295 0.19 0  0.3386094217012945 0.19 0  0.3311411194641595 0.19 0  0.3236728172270245 0.19 0  0.3162045149898895 0.19 0  0.3087362127527544 0.19 0  0.3012679105156187 0.19 0  0.2937996082784807 0.19 0  0.2863313060413428 0.19 0  0.2788630038042048 0.19 0  0.2713947015670686 0.19 0  0.2639263993299336 0.19 0  0.2564580970927985 0.19 0  0.2607803159922026 0.2000727136295815 0  0.5887803774232762 0.2001272386983733 0  0.5745072403740523 0.2002044435018727 0  0.5511891430099709 0.2001122610077113 0  0.2751288526855082 0.20000000000002 0  0.5365194309847112 0.1999999999999436 0  0.2894621222999649 0.1998691686390484 0  0.5215828265105155 0.1999999999999228 0  0.3127789816668748 0.1998657885438805 0  0.3274069683451451 0.2000000000000796 0  0.5066462220363641 0.199999999999908 0  0.3650630746574081 0.199866017807523 0  0.476773013087985 0.1999999999998713 0  0.3417402379596385 0.1998691686391011 0  0.3796850840047755 0.200000000000134 0  0.4618364086138087 0.1999999999998546 0  0.4917096175621762 0.1999999999998808 0  0.3946216884789568 0.2000000000001512 0  0.446899804139621 0.1999999999998389 0  0.4089549580935208 0.1998691686391595 0  0.4322718174608562 0.200127451265745 0  0.4201487168029707 0.1999966199048527 0  0.3528922713220932 0.2000185703532356 0  0.5633122436674589 0.1999814296467508 0  0.3006558810093873 0.1999966199048318 0  0.5815926498168407 0.1966545283159175 0  0.2677053789419034 0.1964246479135325 0  0.5290511287476175 0.1970915826863981 0  0.5439877332217911 0.197091582686394 0  0.2825131256993216 0.2035478995978015 0  0.3199386661080599 0.202908417313604 0  0.4842413153250809 0.1970915826863873 0  0.5141145242734466 0.1970915826863843 0  0.3722167817676917 0.2029084173136195 0  0.4693047108508938 0.1970915826863783 0  0.3348752705822316 0.202908417313609 0  0.3871533862418661 0.2029084173136212 0  0.4543681063767183 0.1970915826863795 0  0.4991779197992749 0.1970915826863902 0  0.4020059614928624 0.203547899597858 0  0.4394315019025246 0.1970915826863714 0  0.2550657455369551 0.2034088125358657 0  0.2548908499171161 0.1966940311614271 0  0.5946539510196798 0.2024302972968126 0  0.267698176732111 0.2039977513680092 0  0.4261685417851465 0.196409292431739 0  0.3590076176283495 0.196411355804271 0  0.5571672426447437 0.2036011176410121 0  0.3066757059912147 0.1964092924317024 0  0.594380730180568 0.1966558399668133 0  0.4842413153245942 0.2040749161535287 0  0.4693047108503577 0.2040749161535231 0  0.3871533862424271 0.1959250838464788 0  0.372246743208829 0.1959123236376545 0  0.5141145242731028 0.2040749161535395 0  0.4543681063761134 0.2040749161535186 0  0.4019979587101454 0.1959834479682427 0  0.4394608940728603 0.2040870543693135 0  0.5439623148931173 0.2040856076781014 0  0.5290511287473298 0.2040749161535501 0  0.4991779197988497 0.2040749161535382 0  0.3347912413592433 0.1959225448935183 0  0.3199680582793816 0.1959123018030061 0  0.2825051229162361 0.1959834479681729 0  0.3590471196690275 0.2036304442587945 0  0.5571594006495384 0.1963685282145804 0  0.3067669986803285 0.203627750582736 0  0.4262598344738712 0.2036568242185335 0  0.5814408164431408 0.2041285596160068 0  0.5688286748170428 0.1961819304477386 0  0.4145905603063645 0.2038180695522843 0  0.3473758401724931 0.2038180695522752 0  0.2950977245128307 0.2038180695522663 0  0.5688286748170693 0.203818069552238 0  0.2950977245127906 0.1961819304477774 0  0.3473758401723931 0.1961819304478349 0  0.4145905603061963 0.1961819304479011 0  0.2601812407614425 0.2056861609747042
[...]
<PointData  Vectors="f_40-1"> 
<DataArray  type="Float64"  Name="f_40-1"  NumberOfComponents="3" format="ascii">0.0000000000000000e+00 0.0000000000000000e+00 0.0000000000000000e+00  0.0000000000000000e+00 0.0000000000000000e+00 0.0000000000000000e+00  0.0000000000000000e+00 0.0000000000000000e+00 0.0000000000000000e+00  0.0000000000000000e+00 0.0000000000000000e+00 0.0000000000000000e+00  -4.2995686628796983e-05 -5.7584591753704489e-04 0.0000000000000000e+00  1.7663876760872895e-05 -5.8013578991345589e-04 0.0000000000000000e+00  0.0000000000000000e+00 0.0000000000000000e+00 0.0000000000000000e+00  0.0000000000000000e+00 0.0000000000000000e+00 0.0000000000000000e+00  0.0000000000000000e+00 0.0000000000000000e+00 0.0000000000000000e+00  0.0000000000000000e+00 0.0000000000000000e+00 0.0000000000000000e+00  -1.3148096458739129e-05 -5.7797715875933849e-04 0.0000000000000000e+00  0.0000000000000000e+00 0.0000000000000000e+00 0.0000000000000000e+00  0.0000000000000000e+00 0.0000000000000000e+00 0.0000000000000000e+00  0.0000000000000000e+00 0.0000000000000000e+00 0.0000000000000000e+00  0.0000000000000000e+00 0.0000000000000000e+00 0.0000000000000000e+00  0.0000000000000000e+00 0.0000000000000000e+00 0.0000000000000000e+00  0.0000000000000000e+00 0.0000000000000000e+00 0.0000000000000000e+00  0.0000000000000000e+00 0.0000000000000000e+00 0.0000000000000000e+00  0.0000000000000000e+00 0.0000000000000000e+00 0.0000000000000000e+00  0.0000000000000000e+00 0.0000000000000000e+00 0.0000000000000000e+00  0.0000000000000000e+00 0.0000000000000000e+00 0.0000000000000000e+00  0.0000000000000000e+00 0.0000000000000000e+00 0.0000000000000000e+00  0.0000000000000000e+00 0.0000000000000000e+00 0.0000000000000000e+00  0.0000000000000000e+00 0.0000000000000000e+00 0.0000000000000000e+00  0.0000000000000000e+00 0.0000000000000000e+00 0.0000000000000000e+00  0.0000000000000000e+00 0.0000000000000000e+00 0.0000000000000000e+00  0.0000000000000000e+00 0.0000000000000000e+00 0.0000000000000000e+00  0.0000000000000000e+00 0.0000000000000000e+00 0.0000000000000000e+00  0.0000000000000000e+00 0.0000000000000000e+00 0.0000000000000000e+00  0.0000000000000000e+00 0.0000000000000000e+00 0.0000000000000000e+00  0.0000000000000000e+00 0.0000000000000000e+00 0.0000000000000000e+00  0.0000000000000000e+00 0.0000000000000000e+00 0.0000000000000000e+00  0.0000000000000000e+00 0.0000000000000000e+00 0.0000000000000000e+00  0.0000000000000000e+00 0.0000000000000000e+00 0.0000000000000000e+00  0.0000000000000000e+00 0.0000000000000000e+00 0.0000000000000000e+00  0.0000000000000000e+00 0.0000000000000000e+00 0.0000000000000000e+00  0.0000000000000000e+00 0.0000000000000000e+00 0.0000000000000000e+00  0.0000000000000000e+00 0.0000000000000000e+00 0.0000000000000000e+00  0.0000000000000000e+00 0.0000000000000000e+00 0.0000000000000000e+00  0.0000000000000000e+00 0.0000000000000000e+00 0.0000000000000000e+00  0.0000000000000000e+00 0.0000000000000000e+00 0.0000000000000000e+00  0.0000000000000000e+00 0.0000000000000000e+00 0.0000000000000000e+00  0.0000000000000000e+00 0.0000000000000000e+00 0.0000000000000000e+00  0.0000000000000000e+00 0.0000000000000000e+00 0.0000000000000000e+00  0.0000000000000000e+00 0.0000000000000000e+00 0.0000000000000000e+00  0.0000000000000000e+00 0.0000000000000000e+00 0.0000000000000000e+00  0.0000000000000000e+00 0.0000000000000000e+00 0.0000000000000000e+00  0.0000000000000000e+00 0.0000000000000000e+00 0.0000000000000000e+00  0.0000000000000000e+00 0.0000000000000000e+00 0.0000000000000000e+00  0.0000000000000000e+00 0.0000000000000000e+00 0.0000000000000000e+00  0.0000000000000000e+00 0.0000000000000000e+00 0.0000000000000000e+00  0.0000000000000000e+00 0.0000000000000000e+00 0.0000000000000000e+00  0.0000000000000000e+00 0.0000000000000000e+00 0.0000000000000000e+00  0.0000000000000000e+00 0.0000000000000000e+00 0.0000000000000000e+00  0.0000000000000000e+00 0.0000000000000000e+00 0.0000000000000000e+00  0.0000000000000000e+00 0.0000000000000000e+00 0.0000000000000000e+00  0.0000000000000000e+00 0.0000000000000000e+00 0.0000000000000000e+00  0.0000000000000000e+00 0.0000000000000000e+00 0.0000000000000000e+00  0.0000000000000000e+00 0.0000000000000000e+00 0.0000000000000000e+00  0.0000000000000000e+00 0.0000000000000000e+00 0.0000000000000000e+00  0.0000000000000000e+00 0.0000000000000000e+00 0.0000000000000000e+00  0.0000000000000000e+00 0.0000000000000000e+00 0.0000000000000000e+00  0.0000000000000000e+00 0.0000000000000000e+00 0.0000000000000000e+00  0.0000000000000000e+00 0.0000000000000000e+00 0.0000000000000000e+00  0.0000000000000000e+00 0.0000000000000000e+00 0.0000000000000000e+00  0.0000000000000000e+00 0.0000000000000000e+00 0.0000000000000000e+00  0.0000000000000000e+00 0.0000000000000000e+00 0.0000000000000000e+00  0.0000000000000000e+00 0.0000000000000000e+00 0.0000000000000000e+00  0.0000000000000000e+00 0.0000000000000000e+00 0.0000000000000000e+00  0.0000000000000000e+00 0.0000000000000000e+00 0.0000000000000000e+00  0.0000000000000000e+00 0.0000000000000000e+00 0.0000000000000000e+00  0.0000000000000000e+00 0.0000000000000000e+00 0.0000000000000000e+00  0.0000000000000000e+00 0.0000000000000000e+00 0.0000000000000000e+00  0.0000000000000000e+00 0.0000000000000000e+00 0.0000000000000000e+00  0.0000000000000000e+00 0.0000000000000000e+00 0.0000000000000000e+00  0.0000000000000000e+00 0.0000000000000000e+00 0.0000000000000000e+00  0.0000000000000000e+00 0.0000000000000000e+00 0.0000000000000000e+00  0.0000000000000000e+00 0.0000000000000000e+00 0.0000000000000000e+00  0.0000000000000000e+00 0.0000000000000000e+00 0.0000000000000000e+00  0.0000000000000000e+00 0.0000000000000000e+00 0.0000000000000000e+00  0.0000000000000000e+00 0.0000000000000000e+00 0.0000000000000000e+00  0.0000000000000000e+00 0.0000000000000000e+00 0.0000000000000000e+00  0.0000000000000000e+00 0.0000000000000000e+00 0.0000000000000000e+00  0.0000000000000000e+00 0.0000000000000000e+00 0.0000000000000000e+00  0.0000000000000000e+00 0.0000000000000000e+00 0.0000000000000000e+00  0.0000000000000000e+00 0.0000000000000000e+00 0.0000000000000000e+00  0.0000000000000000e+00 0.0000000000000000e+00 0.0000000000000000e+00  0.0000000000000000e+00 0.0000000000000000e+00 0.0000000000000000e+00  0.0000000000000000e+00 0.0000000000000000e+00 0.0000000000000000e+00  0.0000000000000000e+00 0.0000000000000000e+00 0.0000000000000000e+00  0.0000000000000000e+00 0.0000000000000000e+00 0.0000000000000000e+00  0.0000000000000000e+00 0.0000000000000000e+00 0.0000000000000000e+00  0.0000000000000000e+00 0.0000000000000000e+00 0.0000000000000000e+00  0.0000000000000000e+00 0.0000000000000000e+00 0.0000000000000000e+00  0.0000000000000000e+00 0.0000000000000000e+00 0.0000000000000000e+00  0.0000000000000000e+00 0.0000000000000000e+00 0.0000000000000000e+00  0.0000000000000000e+00 0.0000000000000000e+00 0.0000000000000000e+00  0.0000000000000000e+00 0.0000000000000000e+00 0.0000000000000000e+00  0.0000000000000000e+00 0.0000000000000000e+00 0.0000000000000000e+00  0.0000000000000000e+00 0.0000000000000000e+00 0.0000000000000000e+00  0.0000000000000000e+00 0.0000000000000000e+00 0.0000000000000000e+00  0.0000000000000000e+00 0.0000000000000000e+00 0.0000000000000000e+00  0.0000000000000000e+00 0.0000000000000000e+00 0.0000000000000000e+00  0.0000000000000000e+00 0.0000000000000000e+00 0.0000000000000000e+00  0.0000000000000000e+00 0.0000000000000000e+00 0.0000000000000000e+00  0.0000000000000000e+00 0.0000000000000000e+00 0.0000000000000000e+00  0.0000000000000000e+00 0.0000000000000000e+00 0.0000000000000000e+00  0.0000000000000000e+00 0.0000000000000000e+00 0.0000000000000000e+00  0.0000000000000000e+00 0.0000000000000000e+00 0.0000000000000000e+00  0.0000000000000000e+00 0.0000000000000000e+00 0.0000000000000000e+00  0.0000000000000000e+00 0.0000000000000000e+00 0.0000000000000000e+00  0.0000000000000000e+00 0.0000000000000000e+00 0.0000000000000000e+00  0.0000000000000000e+00 0.0000000000000000e+00 0.0000000000000000e+00  0.0000000000000000e+00 0.0000000000000000e+00 0.0000000000000000e+00  0.0000000000000000e+00 0.0000000000000000e+00 0.0000000000000000e+00  0.0000000000000000e+00 0.0000000000000000e+00 0.0000000000000000e+00  0.0000000000000000e+00 0.0000000000000000e+00 0.0000000000000000e+00  0.0000000000000000e+00 0.0000000000000000e+00 0.0000000000000000e+00  0.0000000000000000e+00 0.0000000000000000e+00 0.0000000000000000e+00  0.0000000000000000e+00 0.0000000000000000e+00 0.0000000000000000e+00  0.0000000000000000e+00 0.0000000000000000e+00 0.0000000000000000e+00  0.0000000000000000e+00 0.0000000000000000e+00 0.0000000000000000e+00  0.0000000000000000e+00 0.0000000000000000e+00 0.0000000000000000e+00  0.0000000000000000e+00 0.0000000000000000e+00 0.0000000000000000e+00  0.0000000000000000e+00 0.0000000000000000e+00 0.0000000000000000e+00  0.0000000000000000e+00 0.0000000000000000e+00 0.0000000000000000e+00  0.0000000000000000e+00 0.0000000000000000e+00 0.0000000000000000e+00  0.0000000000000000e+00 0.0000000000000000e+00 0.0000000000000000e+00  0.0000000000000000e+00 0.0000000000000000e+00 0.0000000000000000e+00  0.0000000000000000e+00 0.0000000000000000e+00 0.0000000000000000e+00  0.0000000000000000e+00 0.0000000000000000e+00 0.0000000000000000e+00  0.0000000000000000e+00 0.0000000000000000e+00 0.0000000000000000e+00  0.0000000000000000e+00 0.0000000000000000e+00 0.0000000000000000e+00  0.0000000000000000e+00 0.0000000000000000e+00 0.0000000000000000e+00  0.0000000000000000e+00 0.0000000000000000e+00 0.0000000000000000e+00  0.0000000000000000e+00 0.0000000000000000e+00 0.0000000000000000e+00  0.0000000000000000e+00 0.0000000000000000e+00 0.0000000000000000e+00  0.0000000000000000e+00 0.0000000000000000e+00 0.0000000000000000e+00  0.0000000000000000e+00 0.0000000000000000e+00 0.0000000000000000e+00  0.0000000000000000e+00 0.0000000000000000e+00 0.0000000000000000e+00  0.0000000000000000e+00 0.0000000000000000e+00 0.0000000000000000e+00  0.0000000000000000e+00 0.0000000000000000e+00 0.0000000000000000e+00  0.0000000000000000e+00 0.0000000000000000e+00 0.0000000000000000e+00  -1.1152112355073792e-06 -1.6324453804703738e-06 0.0000000000000000e+00  -2.0283848231309971e-06 -8.5192294979614011e-07 0.0000000000000000e+00  -2.5432849395859774e-06 2.0748460443835395e-07 0.0000000000000000e+00  -2.7765961161508580e-06 1.4921201707112806e-06 0.0000000000000000e+00  -2.7938300768368771e-06 2.6054871508699258e-06 0.0000000000000000e+00  -2.5452926448184037e-06 3.4939920141896015e-06 0.0000000000000000e+00  -2.2311181527349124e-06 4.0692830252916316e-06 0.0000000000000000e+00  -1.7513171514297313e-06 4.1174120925207135e-06 0.0000000000000000e+00  -9.8979633998782040e-07 3.6552476322785351e-06 0.0000000000000000e+00  -2.8859921754775730e-07 2.5087113821279750e-06 0.0000000000000000e+00  7.8922285223809693e-07 6.3903848619267183e-07 0.0000000000000000e+00  1.6926205155015349e-06 -2.0902731232106971e-06 0.0000000000000000e+00  2.9614146317531732e-06 -5.6948395911546846e-06 0.0000000000000000e+00  4.0428483238717415e-06 -1.0113394299258503e-05 0.0000000000000000e+00  5.2032353140073213e-06 -1.5630520496557209e-05 0.0000000000000000e+00  6.6549245467800948e-06 -2.2046262609388705e-05 0.0000000000000000e+00  7.8171218539425787e-06 -2.9488379617664316e-05 0.0000000000000000e+00  9.3410431623834210e-06 -3.7958414407570838e-05 0.0000000000000000e+00  1.0506279351988286e-05 -4.7465357591133618e-05 0.0000000000000000e+00  1.1983624484110885e-05 -5.7948076191839575e-05 0.0000000000000000e+00  1.3174189696837638e-05 -6.9471178815186290e-05 0.0000000000000000e+00  1.4564682935344828e-05 -8.2010286880937540e-05 0.0000000000000000e+00  1.5662433165954078e-05 -9.5342141058746656e-05 0.0000000000000000e+00  1.6726906262715407e-05 -1.0972451570537238e-04 0.0000000000000000e+00  1.7931141970384035e-05 -1.2483755786341772e-04 0.0000000000000000e+00  1.8901477768223259e-05 -1.4084124662399605e-04 0.0000000000000000e+00  1.9868065279121528e-05 -1.5762866545283969e-04 0.0000000000000000e+00  2.0677317627659419e-05 -1.7509909868275279e-04 0.0000000000000000e+00  2.1460315314544529e-05 -1.9328318160310342e-04 0.0000000000000000e+00  2.2086432782169434e-05 -2.1203793468380983e-04 0.0000000000000000e+00  2.2669194251173516e-05 -2.3140682162087144e-04 0.0000000000000000e+00  2.3098230168209678e-05 -2.5123695042726131e-04 0.0000000000000000e+00  2.3469498765067657e-05 -2.7157939062610621e-04 0.0000000000000000e+00  2.3694711530328787e-05 -2.9227601235201986e-04 0.0000000000000000e+00  2.3847032827957028e-05 -3.1338872038216983e-04 0.0000000000000000e+00  2.3860783885817560e-05 -3.3475508026045681e-04 0.0000000000000000e+00  2.3795420453202956e-05 -3.5644271665178826e-04 0.0000000000000000e+00  2.3600822072795309e-05 -3.7829586225214816e-04 0.0000000000000000e+00  2.3320624784404199e-05 -4.0038845902974114e-04 0.0000000000000000e+00  2.2917090153757860e-05 -4.2256944017066172e-04 0.0000000000000000e+00  2.2418394067562345e-05 -4.4491198417663042e-04 0.0000000000000000e+00  2.1816206104643490e-05 -4.6730089336327618e-04 0.0000000000000000e+00  2.1107701065244821e-05 -4.8976837048999699e-04 0.0000000000000000e+00  2.0346514124986973e-05 -5.1226389271194614e-04 0.0000000000000000e+00  1.9465819242631667e-05 -5.3475365900980637e-04 0.0000000000000000e+00  1.8537343168005011e-05 -5.5731450740193725e-04 0.0000000000000000e+00  2.0848475999038904e-06 -5.7905401511020472e-04 0.0000000000000000e+00  -2.8220613598997564e-05 -5.7691138822867419e-04 0.0000000000000000e+00  -4.2078748685393723e-05 -5.5335470995709045e-04 0.0000000000000000e+00  -4.1082629901422882e-05 -5.3064124010305668e-04 0.0000000000000000e+00  -4.0121955922983102e-05 -5.0790800200568290e-04 0.0000000000000000e+00  -3.9218395562100452e-05 -4.8524159035773657e-04 0.0000000000000000e+00  -3.8353891575131015e-05 -4.6261514384756791e-04 0.0000000000000000e+00  -3.7541854306965683e-05 -4.4006929931072135e-04 0.0000000000000000e+00  -3.6724120255414895e-05 -4.1761592109564082e-04 0.0000000000000000e+00  -3.5974285901196778e-05 -3.9526681276772684e-04 0.0000000000000000e+00  -3.5184838824960237e-05 -3.7309926547131615e-04 0.0000000000000000e+00  -3.4467403398759228e-05 -3.5109750467681285e-04 0.0000000000000000e+00  -3.3668878579719438e-05 -3.2934688088483713e-04 0.0000000000000000e+00  -3.2954486887478817e-05 -3.0785085851711219e-04 0.0000000000000000e+00  -3.2114757140605974e-05 -2.8668950507479987e-04 0.0000000000000000e+00  -3.1377577678223712e-05 -2.6588283643117682e-04 0.0000000000000000e+00  -3.0470775159084041e-05 -2.4550324157106697e-04 0.0000000000000000e+00  -2.9692273176737043e-05 -2.2558367238650713e-04 0.0000000000000000e+00  -2.8700766280276824e-05 -2.0618958064297818e-04 0.0000000000000000e+00  -2.7865067084298421e-05 -1.8736496987853735e-04 0.0000000000000000e+00  -2.6772533716504196e-05 -1.6916715573638691e-04 0.0000000000000000e+00  -2.5866910285563614e-05 -1.5164606336898467e-04 0.0000000000000000e+00  -2.4659576848549503e-05 -1.3485684774402934e-04 0.0000000000000000e+00  -2.3670335329581101e-05 -1.1885463943667143e-04 0.0000000000000000e+00  -2.2372548769240985e-05 -1.0369144285429118e-04 0.0000000000000000e+00  -2.1256151300387703e-05 -8.9323346362556771e-05 0.0000000000000000e+00  -2.0114158174279421e-05 -7.6008006598289794e-05 0.0000000000000000e+00  -1.8719061239159859e-05 -6.3457152494718282e-05 0.0000000000000000e+00  -1.7461986523702116e-05 -5.1989052340541420e-05 0.0000000000000000e+00  -1.6062773011765465e-05 -4.1483605145048833e-05 0.0000000000000000e+00  -1.4758578096212016e-05 -3.2021954745755190e-05 0.0000000000000000e+00  -1.3350301898982426e-05 -2.3579544849143673e-05 0.0000000000000000e+00  -1.2042766605780222e-05 -1.6135887417066474e-05 0.0000000000000000e+00  -1.0570497641781951e-05 -9.8183817988733123e-06 0.0000000000000000e+00  -9.3516381105068179e-06 -4.3293263262451713e-06 0.0000000000000000e+00  -8.1753376951127760e-06 3.7548346528285222e-08 0.0000000000000000e+00  -6.8294518337902594e-06 3.6492565265306712e-06 0.0000000000000000e+00  -5.6886624783935568e-06 6.2971538485339458e-06 0.0000000000000000e+00  -4.5410764069856259e-06 8.1223187042516436e-06 0.0000000000000000e+00  -3.5539156349111573e-06 9.2409065431295872e-06 0.0000000000000000e+00  -2.5717525912438233e-06 9.6152290932887716e-06 0.0000000000000000e+00  -1.8185778324512787e-06 9.5272775073999351e-06 0.0000000000000000e+00  -1.1872922970478164e-06 8.9021764559534617e-06 0.0000000000000000e+00  -5.9926661684878011e-07 7.9738338588050908e-06 0.0000000000000000e+00  -2.3417898440625391e-07 6.8361222273011193e-06 0.0000000000000000e+00  -5.3533515649902692e-09 5.5647298904436895e-06 0.0000000000000000e+00  1.0779161933766005e-07 4.3454304566176737e-06 0.0000000000000000e+00  9.5253900609283751e-08 3.1623732403235563e-06 0.0000000000000000e+00  -1.2210118975181941e-06 1.0559520858071681e-06 0.0000000000000000e+00  -1.1099605537038353e-05 -5.4397014613996651e-04 0.0000000000000000e+00  -9.0009299690405537e-06 -5.0075442041539831e-04 0.0000000000000000e+00  -6.9428459997749203e-06 -4.3042880759738052e-04 0.0000000000000000e+00  -1.3957096081945206e-06 3.5177903411803155e-06 0.0000000000000000e+00  -6.1367427296263905e-06 -3.8662512130692781e-04 0.0000000000000000e+00  -1.7510684378512658e-06 5.9146633450638042e-06 0.0000000000000000e+00  -5.1919027888791242e-06 -3.4271290038843797e-04 0.0000000000000000e+00  -2.2442822760495149e-06 7.1502927003507574e-06 0.0000000000000000e+00  -2.4354999590204819e-06 4.9752792387691643e-06 0.0000000000000000e+00  -4.4483767026487900e-06 -2.9978438781364181e-04 0.0000000000000000e+00  -2.8314559648855410e-06 -1.5357665207811203e-05 0.0000000000000000e+00  -3.4638225559655044e-06 -2.1838206281767227e-04 0.0000000000000000e+00  -2.6421681696445729e-06 9.4103164879754156e-09 0.0000000000000000e+00  -2.7479432416695321e-06 -2.9984573555307313e-05 0.0000000000000000e+00  -3.1730844938427678e-06 -1.8072571753937206e-04 0.0000000000000000e+00  -3.8804713375006135e-06 -2.5820732734652173e-04 0.0000000000000000e+00  -2.7684922985492975e-06 -4.8946078866983916e-05 0.0000000000000000e+00  -2.9872417481046592e-06 -1.4566532434354590e-04 0.0000000000000000e+00  -3.0074835243675356e-06 -7.0916595382122303e-05 0.0000000000000000e+00  -2.6140533481375512e-06 -1.1427985625500338e-04 0.0000000000000000e+00  -2.8288455413045027e-06 -9.0768605092074017e-05 0.0000000000000000e+00  -2.6454132846647909e-06 -6.3568986333595499e-06 0.0000000000000000e+00  -8.4972472349077379e-06 -4.6688874081914371e-04 0.0000000000000000e+00  -2.0091105203248448e-06 6.9683311648144254e-06 0.0000000000000000e+00  -2.0616322825202362e-05 -5.2147307073402102e-04 0.0000000000000000e+00  -8.4742220978738904e-07 3.2073884229869447e-06 0.0000000000000000e+00  -1.4141464073597771e-05 -3.6382104024240556e-04 0.0000000000000000e+00  -1.5332033701654275e-05 -4.0812919194897150e-04 0.0000000000000000e+00  -1.9931732800009926e-06 3.8524824561360698e-06 0.0000000000000000e+00  -1.8202975981893126e-06 5.5356538729901982e-06 0.0000000000000000e+00  -1.1348729880595636e-05 -2.3725490405271491e-04 0.0000000000000000e+00  -1.3102029020063851e-05 -3.2033575355222235e-04 0.0000000000000000e+00  1.8382916718667793e-07 -2.2987550464048714e-05 0.0000000000000000e+00  -1.0575040228043903e-05 -1.9845509174279432e-04 0.0000000000000000e+00  -1.4368836806222247e-06 1.8601144606649062e-06 0.0000000000000000e+00  9.1967239492802272e-07 -3.9909239726568986e-05 0.0000000000000000e+00  -9.8352762435601141e-06 -1.6204040447219392e-04 0.0000000000000000e+00  -1.2181766554844961e-05 -2.7801778918459835e-04 0.0000000000000000e+00  2.6329780780751826e-06 -6.0995333680913644e-05 0.0000000000000000e+00  -9.1190042532693255e-06 -1.2843597816196146e-04 0.0000000000000000e+00  -9.5786280323466585e-07 -1.9624495601091706e-07 0.0000000000000000e+00  -7.6809792296236621e-07 8.7625166188310783e-07 0.0000000000000000e+00  -4.9792550893945166e-06 -5.6224107215016854e-04 0.0000000000000000e+00  -1.6758926911