<?xml version="1.0"?>
<VTKFile type="UnstructuredGrid"  version="0.1"  >
<UnstructuredGrid>
<Piece  NumberOfPoints="1419" NumberOfCells="2698">
<Points>
<DataArray  type="Float64"  NumberOfComponents="3"  format="ascii">0 0 0  0 0.41 0  2.5 0 0  2.5 0.41 0  0.6 0.19 0  0.6 0.21 0  0.25 0.2 0  0.15 0.2 0  0.2489897948556636 0.21 0  0.2489897948556636 0.19 0  0.6 0.2 0  0 0.3807142857143437 0  0 0.3514285714286952 0  0 0.3221428571430699 0  0 0.29285714285744 0  0 0.2635714285718054 0  0 0.2342857142861561 0  0 0.2050000000005308 0  0 0.175714285714732 0  0 0.1464285714289574 0  0 0.1171428571431897 0  0 0.08785714285737878 0  0 0.05857142857161107 0  0 0.02928571428580012 0  0.03015443760436003 0 0  0.06140001986583606 0 0  0.09377624077125973 0 0  0.1273239957535082 0 0  0.1620856860351972 0 0  0.1981052433264291 0 0  0.235428184091502 0 0  0.2741016576309132 0 0  0.3141745521465447 0 0  0.3556974926295285 0 0  0.3987229542472677 0 0  0.4433053055141081 0 0  0.4895008759286886 0 0  0.5373680609405097 0 0  0.5869673343216626 0 0  0.6383613676634521 0 0  0.6916151138468254 0 0  0.7467958595648856 0 0  0.8039733463919316 0 0  0.8632198139502143 0 0  0.9246101326867038 0 0  0.9882218810934433 0 0  1.054135445558498 0 0  1.122434100542598 0 0  1.193204177141305 0 0  1.266535089879536 0 0  1.342519516046404 0 0  1.421253448503939 0 0  1.502836389106271 0 0  1.587371439758838 0 0  1.674965418777374 0 0  1.765729001825544 0 0  1.859776908880082 0 0  1.957227977487062 0 0  2.058205329869943 0 0  2.162836591189951 0 0  2.271253957290865 0 0  2.383594446803425 0 0  2.5 0.1024999999997612 0  2.5 0.2049999999994743 0  2.5 0.3074999999997183 0  2.383594446803656 0.41 0  2.271253957291315 0.41 0  2.162836591190598 0.41 0  2.058205329870775 0.41 0  1.957227977488067 0.41 0  1.859776908881246 0.41 0  1.765729001826854 0.41 0  1.674965418778818 0.41 0  1.58737143976041 0.41 0  1.502836389107956 0.41 0  1.421253448505726 0.41 0  1.342519516048286 0.41 0  1.266535089881505 0.41 0  1.193204177143353 0.41 0  1.122434100544716 0.41 0  1.05413544556068 0.41 0  0.9882218810956305 0.41 0  0.9246101326886647 0.41 0  0.8632198139519631 0.41 0  0.8039733463934788 0.41 0  0.7467958595662458 0.41 0  0.6916151138480078 0.41 0  0.6383613676644679 0.41 0  0.5869673343225223 0.41 0  0.5373680609412221 0.41 0  0.4895008759292634 0.41 0  0.4433053055145528 0.41 0  0.3987229542475914 0.41 0  0.3556974926297398 0.41 0  0.3141745521466497 0.41 0  0.2741016576310038 0.41 0  0.2354281840915826 0.41 0  0.1981052433265003 0.41 0  0.1620856860352591 0.41 0  0.1273239957535623 0.41 0  0.09377624077128965 0.41 0  0.06140001986584975 0.41 0  0.03015443760436654 0.41 0  0.2497468076502589 0.2050254481002335 0  0.2497468076502614 0.1949745518997913 0  0.2469965252529372 0.1829317073451959 0  0.2439893735792749 0.1762316384219906 0  0.2400332147834255 0.1700443375285386 0  0.2352133972704371 0.1645032867342007 0  0.2296339016332438 0.1597280261969788 0  0.2234150974217223 0.1558215752574715 0  0.2166911463437691 0.1528682099456123 0  0.2096071079204251 0.1509316448471593 0  0.2023158100364996 0.1500536585536553 0  0.194974551899914 0.1502531923497262 0  0.1877417105387872 0.1515259415822739 0  0.1807733240461124 0.153844448527136 0  0.1742197252835808 0.15715869474974 0  0.1682222986673531 0.1613971801805478 0  0.162910430003803 0.1664684656256651 0  0.1583987151779087 0.1722631454351573 0  0.1547844879126891 0.178656207771761 0  0.1521457199348551 0.1855097315605723 0  0.1505393388476355 0.1926758619366523 0  0.1505393388476328 0.2073241380633295 0  0.1521457199348437 0.2144902684393899 0  0.1547844879126531 0.221343792228163 0  0.1583987151778488 0.2277368545647528 0  0.1629104300036858 0.2335315343742052 0  0.1682222986671726 0.2386028198193036 0  0.1742197252833576 0.2428413052501257 0  0.1807733240458683 0.2461555514727623 0  0.1877417105384929 0.2484740584176516 0  0.1949745518995776 0.2497468076502398 0  0.202315810036185 0.2499463414463592 0  0.2096071079201568 0.2490683551528932 0  0.2166911463435495 0.2471317900544655 0  0.2234150974215506 0.2441784247426195 0  0.2296339016331197 0.2402719738031125 0  0.2352133972703547 0.2354967132658811 0  0.2400332147833751 0.2299556624715287 0  0.2439893735792577 0.2237683615780412 0  0.246996525252926 0.2170682926548348 0  0.25645809709277 0.21 0  0.2639263993298655 0.21 0  0.271394701566961 0.21 0  0.2788630038040554 0.21 0  0.2863313060411479 0.21 0  0.2937996082782405 0.21 0  0.301267910515333 0.21 0  0.3087362127524279 0.21 0  0.3162045149895234 0.21 0  0.3236728172265972 0.21 0  0.3311411194636928 0.21 0  0.3386094217007701 0.21 0  0.3460777239378666 0.21 0  0.3535460261749672 0.21 0  0.3610143284120516 0.21 0  0.3684826306491596 0.21 0  0.3759509328862226 0.21 0  0.383419235123329 0.21 0  0.3908875373604028 0.21 0  0.3983558395975142 0.21 0  0.4058241418345938 0.21 0  0.4132924440716992 0.21 0  0.4207607463087888 0.21 0  0.4282290485459029 0.21 0  0.4356973507830418 0.21 0  0.4431656530201649 0.21 0  0.4506339552573136 0.21 0  0.4581022574944306 0.21 0  0.4655705597315852 0.21 0  0.4730388619686996 0.21 0  0.480507164205851 0.21 0  0.4879754664429498 0.21 0  0.4954437686800938 0.21 0  0.502912070917267 0.21 0  0.5103803731544119 0.21 0  0.5178486753915261 0.21 0  0.5253169776286404 0.21 0  0.5327852798657868 0.21 0  0.5402535821029386 0.21 0  0.54772188434007 0.21 0  0.5551901865771842 0.21 0  0.5626584888143201 0.21 0  0.5701267910514778 0.21 0  0.5775950932886138 0.21 0  0.5850633955257281 0.21 0  0.5925316977628483 0.21 0  0.6 0.2050000000000054 0  0.6 0.1950000000000217 0  0.5925316977628897 0.19 0  0.5850633955257988 0.19 0  0.5775950932887378 0.19 0  0.5701267910515998 0.19 0  0.5626584888145268 0.19 0  0.5551901865773963 0.19 0  0.547721884340339 0.19 0  0.5402535821032429 0.19 0  0.5327852798661811 0.19 0  0.5253169776290537 0.19 0  0.5178486753919799 0.19 0  0.5103803731549078 0.19 0  0.502912070917822 0.19 0  0.4954437686807294 0.19 0  0.4879754664436223 0.19 0  0.4805071642065402 0.19 0  0.4730388619694271 0.19 0  0.4655705597323621 0.19 0  0.4581022574952563 0.19 0  0.4506339552581777 0.19 0  0.4431656530210671 0.19 0  0.4356973507839815 0.19 0  0.4282290485468779 0.19 0  0.4207607463097617 0.19 0  0.4132924440726327 0.19 0  0.4058241418354857 0.19 0  0.3983558395983636 0.19 0  0.3908875373612097 0.19 0  0.3834192351240934 0.19 0  0.3759509328869369 0.19 0  0.3684826306498175 0.19 0  0.361014328412667 0.19 0  0.3535460261755617 0.19 0  0.3460777239384295 0.19 0  0.3386094217012945 0.19 0  0.3311411194641595 0.19 0  0.3236728172270245 0.19 0  0.3162045149898895 0.19 0  0.3087362127527544 0.19 0  0.3012679105156187 0.19 0  0.2937996082784807 0.19 0  0.2863313060413428 0.19 0  0.2788630038042048 0.19 0  0.2713947015670686 0.19 0  0.2639263993299336 0.19 0  0.2564580970927985 0.19 0  0.2607803159922026 0.2000727136295815 0  0.5887803774232762 0.2001272386983733 0  0.5745072403740523 0.2002044435018727 0  0.5511891430099709 0.2001122610077113 0  0.2751288526855082 0.20000000000002 0  0.5365194309847112 0.1999999999999436 0  0.2894621222999649 0.1998691686390484 0  0.5215828265105155 0.1999999999999228 0  0.3127789816668748 0.1998657885438805 0  0.3274069683451451 0.2000000000000796 0  0.5066462220363641 0.199999999999908 0  0.3650630746574081 0.199866017807523 0  0.476773013087985 0.1999999999998713 0  0.3417402379596385 0.1998691686391011 0  0.3796850840047755 0.200000000000134 0  0.4618364086138087 0.1999999999998546 0  0.4917096175621762 0.1999999999998808 0  0.3946216884789568 0.2000000000001512 0  0.446899804139621 0.1999999999998389 0  0.4089549580935208 0.1998691686391595 0  0.4322718174608562 0.200127451265745 0  0.4201487168029707 0.1999966199048527 0  0.3528922713220932 0.2000185703532356 0  0.5633122436674589 0.1999814296467508 0  0.3006558810093873 0.1999966199048318 0  0.5815926498168407 0.1966545283159175 0  0.2677053789419034 0.1964246479135325 0  0.5290511287476175 0.1970915826863981 0  0.5439877332217911 0.197091582686394 0  0.2825131256993216 0.2035478995978015 0  0.3199386661080599 0.202908417313604 0  0.4842413153250809 0.1970915826863873 0  0.5141145242734466 0.1970915826863843 0  0.3722167817676917 0.2029084173136195 0  0.4693047108508938 0.1970915826863783 0  0.3348752705822316 0.202908417313609 0  0.3871533862418661 0.2029084173136212 0  0.4543681063767183 0.1970915826863795 0  0.4991779197992749 0.1970915826863902 0  0.4020059614928624 0.203547899597858 0  0.4394315019025246 0.1970915826863714 0  0.2550657455369551 0.2034088125358657 0  0.2548908499171161 0.1966940311614271 0  0.5946539510196798 0.2024302972968126 0  0.267698176732111 0.2039977513680092 0  0.4261685417851465 0.196409292431739 0  0.3590076176283495 0.196411355804271 0  0.5571672426447437 0.2036011176410121 0  0.3066757059912147 0.1964092924317024 0  0.594380730180568 0.1966558399668133 0  0.4842413153245942 0.2040749161535287 0  0.4693047108503577 0.2040749161535231 0  0.3871533862424271 0.1959250838464788 0  0.372246743208829 0.1959123236376545 0  0.5141145242731028 0.2040749161535395 0  0.4543681063761134 0.2040749161535186 0  0.4019979587101454 0.1959834479682427 0  0.4394608940728603 0.2040870543693135 0  0.5439623148931173 0.2040856076781014 0  0.5290511287473298 0.2040749161535501 0  0.4991779197988497 0.2040749161535382 0  0.3347912413592433 0.1959225448935183 0  0.3199680582793816 0.1959123018030061 0  0.2825051229162361 0.1959834479681729 0  0.3590471196690275 0.2036304442587945 0  0.5571594006495384 0.1963685282145804 0  0.3067669986803285 0.203627750582736 0  0.4262598344738712 0.2036568242185335 0  0.5814408164431408 0.2041285596160068 0  0.5688286748170428 0.1961819304477386 0  0.4145905603063645 0.2038180695522843 0  0.3473758401724931 0.2038180695522752 0  0.2950977245128307 0.2038180695522663 0  0.5688286748170693 0.203818069552238 0  0.2950977245127906 0.1961819304477774 0  0.3473758401723931 0.1961819304478349 0  0.4145905603061963 0.1961819304479011 0  0.2601812407614425 0.2056861609747042
[...]
<PointData  Vectors="f_40-1"> 
<DataArray  type="Float64"  Name="f_40-1"  NumberOfComponents="3" format="ascii">0.0000000000000000e+00 0.0000000000000000e+00 0.0000000000000000e+00  0.0000000000000000e+00 0.0000000000000000e+00 0.0000000000000000e+00  0.0000000000000000e+00 0.0000000000000000e+00 0.0000000000000000e+00  0.0000000000000000e+00 0.0000000000000000e+00 0.0000000000000000e+00  1.9641612243390504e-05 1.5675976798850567e-03 0.0000000000000000e+00  -7.5710040986858430e-05 1.5649963024636385e-03 0.0000000000000000e+00  0.0000000000000000e+00 0.0000000000000000e+00 0.0000000000000000e+00  0.0000000000000000e+00 0.0000000000000000e+00 0.0000000000000000e+00  0.0000000000000000e+00 0.0000000000000000e+00 0.0000000000000000e+00  0.0000000000000000e+00 0.0000000000000000e+00 0.0000000000000000e+00  -2.8322379430282042e-05 1.5662979098169914e-03 0.0000000000000000e+00  0.0000000000000000e+00 0.0000000000000000e+00 0.0000000000000000e+00  0.0000000000000000e+00 0.0000000000000000e+00 0.0000000000000000e+00  0.0000000000000000e+00 0.0000000000000000e+00 0.0000000000000000e+00  0.0000000000000000e+00 0.0000000000000000e+00 0.0000000000000000e+00  0.0000000000000000e+00 0.0000000000000000e+00 0.0000000000000000e+00  0.0000000000000000e+00 0.0000000000000000e+00 0.0000000000000000e+00  0.0000000000000000e+00 0.0000000000000000e+00 0.0000000000000000e+00  0.0000000000000000e+00 0.0000000000000000e+00 0.0000000000000000e+00  0.0000000000000000e+00 0.0000000000000000e+00 0.0000000000000000e+00  0.0000000000000000e+00 0.0000000000000000e+00 0.0000000000000000e+00  0.0000000000000000e+00 0.0000000000000000e+00 0.0000000000000000e+00  0.0000000000000000e+00 0.0000000000000000e+00 0.0000000000000000e+00  0.0000000000000000e+00 0.0000000000000000e+00 0.0000000000000000e+00  0.0000000000000000e+00 0.0000000000000000e+00 0.0000000000000000e+00  0.0000000000000000e+00 0.0000000000000000e+00 0.0000000000000000e+00  0.0000000000000000e+00 0.0000000000000000e+00 0.0000000000000000e+00  0.0000000000000000e+00 0.0000000000000000e+00 0.0000000000000000e+00  0.0000000000000000e+00 0.0000000000000000e+00 0.0000000000000000e+00  0.0000000000000000e+00 0.0000000000000000e+00 0.0000000000000000e+00  0.0000000000000000e+00 0.0000000000000000e+00 0.0000000000000000e+00  0.0000000000000000e+00 0.0000000000000000e+00 0.0000000000000000e+00  0.0000000000000000e+00 0.0000000000000000e+00 0.0000000000000000e+00  0.0000000000000000e+00 0.0000000000000000e+00 0.0000000000000000e+00  0.0000000000000000e+00 0.0000000000000000e+00 0.0000000000000000e+00  0.0000000000000000e+00 0.0000000000000000e+00 0.0000000000000000e+00  0.0000000000000000e+00 0.0000000000000000e+00 0.0000000000000000e+00  0.0000000000000000e+00 0.0000000000000000e+00 0.0000000000000000e+00  0.0000000000000000e+00 0.0000000000000000e+00 0.0000000000000000e+00  0.0000000000000000e+00 0.0000000000000000e+00 0.0000000000000000e+00  0.0000000000000000e+00 0.0000000000000000e+00 0.0000000000000000e+00  0.0000000000000000e+00 0.0000000000000000e+00 0.0000000000000000e+00  0.0000000000000000e+00 0.0000000000000000e+00 0.0000000000000000e+00  0.0000000000000000e+00 0.0000000000000000e+00 0.0000000000000000e+00  0.0000000000000000e+00 0.0000000000000000e+00 0.0000000000000000e+00  0.0000000000000000e+00 0.0000000000000000e+00 0.0000000000000000e+00  0.0000000000000000e+00 0.0000000000000000e+00 0.0000000000000000e+00  0.0000000000000000e+00 0.0000000000000000e+00 0.0000000000000000e+00  0.0000000000000000e+00 0.0000000000000000e+00 0.0000000000000000e+00  0.0000000000000000e+00 0.0000000000000000e+00 0.0000000000000000e+00  0.0000000000000000e+00 0.0000000000000000e+00 0.0000000000000000e+00  0.0000000000000000e+00 0.0000000000000000e+00 0.0000000000000000e+00  0.0000000000000000e+00 0.0000000000000000e+00 0.0000000000000000e+00  0.0000000000000000e+00 0.0000000000000000e+00 0.0000000000000000e+00  0.0000000000000000e+00 0.0000000000000000e+00 0.0000000000000000e+00  0.0000000000000000e+00 0.0000000000000000e+00 0.0000000000000000e+00  0.0000000000000000e+00 0.0000000000000000e+00 0.0000000000000000e+00  0.0000000000000000e+00 0.0000000000000000e+00 0.0000000000000000e+00  0.0000000000000000e+00 0.0000000000000000e+00 0.0000000000000000e+00  0.0000000000000000e+00 0.0000000000000000e+00 0.0000000000000000e+00  0.0000000000000000e+00 0.0000000000000000e+00 0.0000000000000000e+00  0.0000000000000000e+00 0.0000000000000000e+00 0.0000000000000000e+00  0.0000000000000000e+00 0.0000000000000000e+00 0.0000000000000000e+00  0.0000000000000000e+00 0.0000000000000000e+00 0.0000000000000000e+00  0.0000000000000000e+00 0.0000000000000000e+00 0.0000000000000000e+00  0.0000000000000000e+00 0.0000000000000000e+00 0.0000000000000000e+00  0.0000000000000000e+00 0.0000000000000000e+00 0.0000000000000000e+00  0.0000000000000000e+00 0.0000000000000000e+00 0.0000000000000000e+00  0.0000000000000000e+00 0.0000000000000000e+00 0.0000000000000000e+00  0.0000000000000000e+00 0.0000000000000000e+00 0.0000000000000000e+00  0.0000000000000000e+00 0.0000000000000000e+00 0.0000000000000000e+00  0.0000000000000000e+00 0.0000000000000000e+00 0.0000000000000000e+00  0.0000000000000000e+00 0.0000000000000000e+00 0.0000000000000000e+00  0.0000000000000000e+00 0.0000000000000000e+00 0.0000000000000000e+00  0.0000000000000000e+00 0.0000000000000000e+00 0.0000000000000000e+00  0.0000000000000000e+00 0.0000000000000000e+00 0.0000000000000000e+00  0.0000000000000000e+00 0.0000000000000000e+00 0.0000000000000000e+00  0.0000000000000000e+00 0.0000000000000000e+00 0.0000000000000000e+00  0.0000000000000000e+00 0.0000000000000000e+00 0.0000000000000000e+00  0.0000000000000000e+00 0.0000000000000000e+00 0.0000000000000000e+00  0.0000000000000000e+00 0.0000000000000000e+00 0.0000000000000000e+00  0.0000000000000000e+00 0.0000000000000000e+00 0.0000000000000000e+00  0.0000000000000000e+00 0.0000000000000000e+00 0.0000000000000000e+00  0.0000000000000000e+00 0.0000000000000000e+00 0.0000000000000000e+00  0.0000000000000000e+00 0.0000000000000000e+00 0.0000000000000000e+00  0.0000000000000000e+00 0.0000000000000000e+00 0.0000000000000000e+00  0.0000000000000000e+00 0.0000000000000000e+00 0.0000000000000000e+00  0.0000000000000000e+00 0.0000000000000000e+00 0.0000000000000000e+00  0.0000000000000000e+00 0.0000000000000000e+00 0.0000000000000000e+00  0.0000000000000000e+00 0.0000000000000000e+00 0.0000000000000000e+00  0.0000000000000000e+00 0.0000000000000000e+00 0.0000000000000000e+00  0.0000000000000000e+00 0.0000000000000000e+00 0.0000000000000000e+00  0.0000000000000000e+00 0.0000000000000000e+00 0.0000000000000000e+00  0.0000000000000000e+00 0.0000000000000000e+00 0.0000000000000000e+00  0.0000000000000000e+00 0.0000000000000000e+00 0.0000000000000000e+00  0.0000000000000000e+00 0.0000000000000000e+00 0.0000000000000000e+00  0.0000000000000000e+00 0.0000000000000000e+00 0.0000000000000000e+00  0.0000000000000000e+00 0.0000000000000000e+00 0.0000000000000000e+00  0.0000000000000000e+00 0.0000000000000000e+00 0.0000000000000000e+00  0.0000000000000000e+00 0.0000000000000000e+00 0.0000000000000000e+00  0.0000000000000000e+00 0.0000000000000000e+00 0.0000000000000000e+00  0.0000000000000000e+00 0.0000000000000000e+00 0.0000000000000000e+00  0.0000000000000000e+00 0.0000000000000000e+00 0.0000000000000000e+00  0.0000000000000000e+00 0.0000000000000000e+00 0.0000000000000000e+00  0.0000000000000000e+00 0.0000000000000000e+00 0.0000000000000000e+00  0.0000000000000000e+00 0.0000000000000000e+00 0.0000000000000000e+00  0.0000000000000000e+00 0.0000000000000000e+00 0.0000000000000000e+00  0.0000000000000000e+00 0.0000000000000000e+00 0.0000000000000000e+00  0.0000000000000000e+00 0.0000000000000000e+00 0.0000000000000000e+00  0.0000000000000000e+00 0.0000000000000000e+00 0.0000000000000000e+00  0.0000000000000000e+00 0.0000000000000000e+00 0.0000000000000000e+00  0.0000000000000000e+00 0.0000000000000000e+00 0.0000000000000000e+00  0.0000000000000000e+00 0.0000000000000000e+00 0.0000000000000000e+00  0.0000000000000000e+00 0.0000000000000000e+00 0.0000000000000000e+00  0.0000000000000000e+00 0.0000000000000000e+00 0.0000000000000000e+00  0.0000000000000000e+00 0.0000000000000000e+00 0.0000000000000000e+00  0.0000000000000000e+00 0.0000000000000000e+00 0.0000000000000000e+00  0.0000000000000000e+00 0.0000000000000000e+00 0.0000000000000000e+00  0.0000000000000000e+00 0.0000000000000000e+00 0.0000000000000000e+00  0.0000000000000000e+00 0.0000000000000000e+00 0.0000000000000000e+00  0.0000000000000000e+00 0.0000000000000000e+00 0.0000000000000000e+00  0.0000000000000000e+00 0.0000000000000000e+00 0.0000000000000000e+00  0.0000000000000000e+00 0.0000000000000000e+00 0.0000000000000000e+00  0.0000000000000000e+00 0.0000000000000000e+00 0.0000000000000000e+00  0.0000000000000000e+00 0.0000000000000000e+00 0.0000000000000000e+00  0.0000000000000000e+00 0.0000000000000000e+00 0.0000000000000000e+00  0.0000000000000000e+00 0.0000000000000000e+00 0.0000000000000000e+00  0.0000000000000000e+00 0.0000000000000000e+00 0.0000000000000000e+00  0.0000000000000000e+00 0.0000000000000000e+00 0.0000000000000000e+00  0.0000000000000000e+00 0.0000000000000000e+00 0.0000000000000000e+00  0.0000000000000000e+00 0.0000000000000000e+00 0.0000000000000000e+00  0.0000000000000000e+00 0.0000000000000000e+00 0.0000000000000000e+00  0.0000000000000000e+00 0.0000000000000000e+00 0.0000000000000000e+00  0.0000000000000000e+00 0.0000000000000000e+00 0.0000000000000000e+00  0.0000000000000000e+00 0.0000000000000000e+00 0.0000000000000000e+00  0.0000000000000000e+00 0.0000000000000000e+00 0.0000000000000000e+00  0.0000000000000000e+00 0.0000000000000000e+00 0.0000000000000000e+00  0.0000000000000000e+00 0.0000000000000000e+00 0.0000000000000000e+00  0.0000000000000000e+00 0.0000000000000000e+00 0.0000000000000000e+00  0.0000000000000000e+00 0.0000000000000000e+00 0.0000000000000000e+00  0.0000000000000000e+00 0.0000000000000000e+00 0.0000000000000000e+00  0.0000000000000000e+00 0.0000000000000000e+00 0.0000000000000000e+00  0.0000000000000000e+00 0.0000000000000000e+00 0.0000000000000000e+00  -6.4504062447571072e-06 4.3565053134166028e-06 0.0000000000000000e+00  -1.3398273133494608e-05 1.1371221334121363e-05 0.0000000000000000e+00  -1.9302231370405263e-05 2.2395750042316570e-05 0.0000000000000000e+00  -2.5333197040188771e-05 3.7614546708402205e-05 0.0000000000000000e+00  -3.0216045745753109e-05 5.5974881751243943e-05 0.0000000000000000e+00  -3.5382891022726414e-05 7.7725652944453177e-05 0.0000000000000000e+00  -3.9445791600908778e-05 1.0179753290201505e-04 0.0000000000000000e+00  -4.3171713640966434e-05 1.2877372573562361e-04 0.0000000000000000e+00  -4.7135957106127312e-05 1.5780418342908921e-04 0.0000000000000000e+00  -5.0064785073189076e-05 1.8878312724717304e-04 0.0000000000000000e+00  -5.3277780247653079e-05 2.2160036385724389e-04 0.0000000000000000e+00  -5.5627711676435747e-05 2.5585667434942461e-04 0.0000000000000000e+00  -5.8068512150406998e-05 2.9143501360549037e-04 0.0000000000000000e+00  -5.9949192672555182e-05 3.2793849893518348e-04 0.0000000000000000e+00  -6.1600613194391862e-05 3.6545236480103183e-04 0.0000000000000000e+00  -6.3219573048321610e-05 4.0361848989411606e-04 0.0000000000000000e+00  -6.4411249824076428e-05 4.4230674474469886e-04 0.0000000000000000e+00  -6.5555334415727550e-05 4.8145644611765373e-04 0.0000000000000000e+00  -6.6407644201817937e-05 5.2082668626277908e-04 0.0000000000000000e+00  -6.7168137145614274e-05 5.6039991694532463e-04 0.0000000000000000e+00  -6.7759143236903810e-05 5.9999554818843256e-04 0.0000000000000000e+00  -6.8217632270917874e-05 6.3958561452327322e-04 0.0000000000000000e+00  -6.8610871069643535e-05 6.7908558125360065e-04 0.0000000000000000e+00  -6.8915450038795469e-05 7.1841605205282726e-04 0.0000000000000000e+00  -6.9122680006349129e-05 7.5759188966823508e-04 0.0000000000000000e+00  -6.9302156239055867e-05 7.9651009167381985e-04 0.0000000000000000e+00  -6.9420153426887863e-05 8.3519670213242421e-04 0.0000000000000000e+00  -6.9536309098969666e-05 8.7360361324245901e-04 0.0000000000000000e+00  -6.9610015168582176e-05 9.1174004925698637e-04 0.0000000000000000e+00  -6.9706072961514393e-05 9.4959875545098428e-04 0.0000000000000000e+00  -6.9778400987838550e-05 9.8717735640714501e-04 0.0000000000000000e+00  -6.9889272570743070e-05 1.0244958292643575e-03 0.0000000000000000e+00  -6.9995146600893070e-05 1.0615468405726657e-03 0.0000000000000000e+00  -7.0148142821854325e-05 1.0983704964793878e-03 0.0000000000000000e+00  -7.0310915216915433e-05 1.1349572263123363e-03 0.0000000000000000e+00  -7.0531011992078384e-05 1.1713649948404737e-03 0.0000000000000000e+00  -7.0773767432178171e-05 1.2075754524409473e-03 0.0000000000000000e+00  -7.1076223860675543e-05 1.2436581397494400e-03 0.0000000000000000e+00  -7.1410136416828553e-05 1.2795890023328184e-03 0.0000000000000000e+00  -7.1805419940455979e-05 1.3154450554961623e-03 0.0000000000000000e+00  -7.2241548674577792e-05 1.3511955806097997e-03 0.0000000000000000e+00  -7.2734016024636437e-05 1.3869089041670538e-03 0.0000000000000000e+00  -7.3274666190937108e-05 1.4225734471295806e-03 0.0000000000000000e+00  -7.3841365562187129e-05 1.4582222988268319e-03 0.0000000000000000e+00  -7.4467904047219969e-05 1.4938767823672050e-03 0.0000000000000000e+00  -7.5110621471904962e-05 1.5295001891952595e-03 0.0000000000000000e+00  -5.2112248922616276e-05 1.5656483998965829e-03 0.0000000000000000e+00  -4.4315633383601074e-06 1.5669429673637934e-03 0.0000000000000000e+00  2.0249397751807845e-05 1.5318870231846393e-03 0.0000000000000000e+00  2.0916280088467394e-05 1.4963141512643930e-03 0.0000000000000000e+00  2.1577826448667568e-05 1.4607559187272492e-03 0.0000000000000000e+00  2.2223437539971872e-05 1.4251646278033751e-03 0.0000000000000000e+00  2.2859915078974163e-05 1.3895497584246557e-03 0.0000000000000000e+00  2.3490641808517011e-05 1.3538830524457146e-03 0.0000000000000000e+00  2.4142292955079053e-05 1.3181551657692318e-03 0.0000000000000000e+00  2.4774023805307755e-05 1.2823484838995296e-03 0.0000000000000000e+00  2.5452360981454824e-05 1.2464249880846251e-03 0.0000000000000000e+00  2.6102227084567278e-05 1.2103756014775467e-03 0.0000000000000000e+00  2.6820892789253507e-05 1.1741657111191859e-03 0.0000000000000000e+00  2.7501431489827097e-05 1.1377784824036495e-03 0.0000000000000000e+00  2.8269441164484867e-05 1.1011864567698094e-03 0.0000000000000000e+00  2.8983922190647122e-05 1.0643709948204962e-03 0.0000000000000000e+00  2.9795825203377224e-05 1.0273097342580475e-03 0.0000000000000000e+00  3.0538563155738559e-05 9.8998959942600139e-04 0.0000000000000000e+00  3.1381639007663308e-05 9.5239529620694339e-04 0.0000000000000000e+00  3.2142431095481400e-05 9.1452234045805820e-04 0.0000000000000000e+00  3.2997841736464976e-05 8.7636487318252761e-04 0.0000000000000000e+00  3.3759958929673839e-05 8.3793136295576894e-04 0.0000000000000000e+00  3.4598175203854256e-05 7.9922020799988122e-04 0.0000000000000000e+00  3.5337641897810950e-05 7.6025770564256789e-04 0.0000000000000000e+00  3.6107890868639165e-05 7.2105850741984454e-04 0.0000000000000000e+00  3.6791447199413569e-05 6.8168064686378578e-04 0.0000000000000000e+00  3.7426629503250271e-05 6.4213495130651223e-04 0.0000000000000000e+00  3.8015004628421996e-05 6.0249867503112662e-04 0.0000000000000000e+00  3.8502013871626299e-05 5.6284937165585727e-04 0.0000000000000000e+00  3.8873216041290230e-05 5.2322120291094221e-04 0.0000000000000000e+00  3.9136961007211769e-05 4.8379565498539380e-04 0.0000000000000000e+00  3.9224337145267226e-05 4.4458576309422827e-04 0.0000000000000000e+00  3.9193331759013797e-05 4.0580553263790895e-04 0.0000000000000000e+00  3.8829616539470475e-05 3.6761587793982415e-04 0.0000000000000000e+00  3.8458408230152743e-05 3.3002190856015458e-04 0.0000000000000000e+00  3.7895714207813017e-05 2.9346886586686808e-04 0.0000000000000000e+00  3.6870364145216589e-05 2.5772953674117158e-04 0.0000000000000000e+00  3.5744138529941033e-05 2.2344508762456647e-04 0.0000000000000000e+00  3.4182334794258423e-05 1.9053250027288717e-04 0.0000000000000000e+00  3.2503862323767863e-05 1.5938770923909907e-04 0.0000000000000000e+00  3.0065380220897818e-05 1.3039427200389609e-04 0.0000000000000000e+00  2.7856819600626759e-05 1.0329921704884658e-04 0.0000000000000000e+00  2.5359087598897949e-05 7.9151566481571925e-05 0.0000000000000000e+00  2.1852465813518522e-05 5.7227827782974503e-05 0.0000000000000000e+00  1.8455845286876531e-05 3.8735146255933106e-05 0.0000000000000000e+00  1.4045248118930922e-05 2.3662709105716845e-05 0.0000000000000000e+00  9.9569701457623586e-06 1.2480851384002069e-05 0.0000000000000000e+00  4.7671730452108327e-06 5.2895654553853685e-06 0.0000000000000000e+00  -1.4839206629342294e-06 5.3909378768453076e-06 0.0000000000000000e+00  -2.7828522695187885e-05 1.5128047546825879e-03 0.0000000000000000e+00  -2.6908930698797768e-05 1.4447574208360868e-03 0.0000000000000000e+00  -2.4667194069432978e-05 1.3334377214013155e-03 0.0000000000000000e+00  -2.9703865713407182e-06 2.7745941447513371e-05 0.0000000000000000e+00  -2.3110965679484098e-05 1.2630973125961971e-03 0.0000000000000000e+00  -4.1815327183239766e-06 6.3339431521345957e-05 0.0000000000000000e+00  -2.2137010043139129e-05 1.1909978158621288e-03 0.0000000000000000e+00  -6.4146727567640487e-06 1.4362456581067703e-04 0.0000000000000000e+00  -8.3528318795201528e-06 2.0482736802746778e-04 0.0000000000000000e+00  -2.1208838890750218e-05 1.1182347912600881e-03 0.0000000000000000e+00  -1.1039847350701900e-05 3.8673394619790291e-04 0.0000000000000000e+00  -1.9418718329472500e-05 9.6999545301445773e-04 0.0000000000000000e+00  -9.0761303874581470e-06 2.7078077486072802e-04 0.0000000000000000e+00  -1.2908440363276240e-05 4.6275265743593596e-04 0.0000000000000000e+00  -1.8524708633892787e-05 8.9426555464490747e-04 0.0000000000000000e+00  -2.0308112923775222e-05 1.0446191628748374e-03 0.0000000000000000e+00  -1.4057784956405664e-05 5.4171423741480981e-04 0.0000000000000000e+00  -1.7610992597074215e-05 8.1740456691803550e-04 0.0000000000000000e+00  -1.4410566158473050e-05 6.1789170597305982e-04 0.0000000000000000e+00  -1.7348031867941802e-05 7.4108587973696291e-04 0.0000000000000000e+00  -1.5856278151907271e-05 6.7720140267635526e-04 0.0000000000000000e+00  -1.0769119694602296e-05 3.2528645463702577e-04 0.0000000000000000e+00  -2.4961331258655909e-05 1.3913759003469633e-03 0.0000000000000000e+00  -5.6763780818308910e-06 9.9216728171516825e-05 0.0000000000000000e+00  -1.0589481317251744e-05 1.4789663140969485e-03 0.0000000000000000e+00  2.9157455730115433e-06 1.5062322894065451e-05 0.0000000000000000e+00  -8.5493920113108151e-06 1.2275099841418584e-03 0.0000000000000000e+00  -9.6450914168340890e-06 1.2993486131107125e-03 0.0000000000000000e+00  -1.2169392430777661e-05 4.4742061815335470e-05 0.0000000000000000e+00  -1.9553414727110795e-05 1.7261048661122491e-04 0.0000000000000000e+00  -5.3172555795187973e-06 1.0078276025183997e-03 0.0000000000000000e+00  -7.4728617428041371e-06 1.1551033708496626e-03 0.0000000000000000e+00  -2.7281234234060383e-05 4.2341608144269837e-04 0.0000000000000000e+00  -4.2225201216247193e-06 9.3265417718917999e-04 0.0000000000000000e+00  -2.2198321846661809e-05 2.3841502712309835e-04 0.0000000000000000e+00  -2.8741050525969650e-05 5.0181395238645045e-04 0.0000000000000000e+00  -3.1127338780394372e-06 8.5635244347962922e-04 0.0000000000000000e+00  -6.3988583546416463e-06 1.0819345501299977e-03 0.0000000000000000e+00  -3.3343330626792426e-05 5.8051923290065139e-04 0.0000000000000000e+00  -1.9956669705545788e-06 7.7893974326206331e-04 0.0000000000000000e+00  -1.7132219022929292e-06 1.2033887149681130e-06 0.0000000000000000e+00  1.3612769837425542e-07 1.3026424681230211e-06 0.0000000000000000e+00  -3.9379787635158853e-05 1.5405249742398912e-03 0.0000000000000000e+00  -7.8310336690228768e-06 1.4617396007145047e-05 0.0000000000000000e+00  2.5907430546933440e-06 7.0945269514789678e-04 0.0000000