<?xml version="1.0"?>
<VTKFile type="UnstructuredGrid"  version="0.1"  >
<UnstructuredGrid>
<Piece  NumberOfPoints="1419" NumberOfCells="2698">
<Points>
<DataArray  type="Float64"  NumberOfComponents="3"  format="ascii">0 0 0  0 0.41 0  2.5 0 0  2.5 0.41 0  0.6 0.19 0  0.6 0.21 0  0.25 0.2 0  0.15 0.2 0  0.2489897948556636 0.21 0  0.2489897948556636 0.19 0  0.6 0.2 0  0 0.3807142857143437 0  0 0.3514285714286952 0  0 0.3221428571430699 0  0 0.29285714285744 0  0 0.2635714285718054 0  0 0.2342857142861561 0  0 0.2050000000005308 0  0 0.175714285714732 0  0 0.1464285714289574 0  0 0.1171428571431897 0  0 0.08785714285737878 0  0 0.05857142857161107 0  0 0.02928571428580012 0  0.03015443760436003 0 0  0.06140001986583606 0 0  0.09377624077125973 0 0  0.1273239957535082 0 0  0.1620856860351972 0 0  0.1981052433264291 0 0  0.235428184091502 0 0  0.2741016576309132 0 0  0.3141745521465447 0 0  0.3556974926295285 0 0  0.3987229542472677 0 0  0.4433053055141081 0 0  0.4895008759286886 0 0  0.5373680609405097 0 0  0.5869673343216626 0 0  0.6383613676634521 0 0  0.6916151138468254 0 0  0.7467958595648856 0 0  0.8039733463919316 0 0  0.8632198139502143 0 0  0.9246101326867038 0 0  0.9882218810934433 0 0  1.054135445558498 0 0  1.122434100542598 0 0  1.193204177141305 0 0  1.266535089879536 0 0  1.342519516046404 0 0  1.421253448503939 0 0  1.502836389106271 0 0  1.587371439758838 0 0  1.674965418777374 0 0  1.765729001825544 0 0  1.859776908880082 0 0  1.957227977487062 0 0  2.058205329869943 0 0  2.162836591189951 0 0  2.271253957290865 0 0  2.383594446803425 0 0  2.5 0.1024999999997612 0  2.5 0.2049999999994743 0  2.5 0.3074999999997183 0  2.383594446803656 0.41 0  2.271253957291315 0.41 0  2.162836591190598 0.41 0  2.058205329870775 0.41 0  1.957227977488067 0.41 0  1.859776908881246 0.41 0  1.765729001826854 0.41 0  1.674965418778818 0.41 0  1.58737143976041 0.41 0  1.502836389107956 0.41 0  1.421253448505726 0.41 0  1.342519516048286 0.41 0  1.266535089881505 0.41 0  1.193204177143353 0.41 0  1.122434100544716 0.41 0  1.05413544556068 0.41 0  0.9882218810956305 0.41 0  0.9246101326886647 0.41 0  0.8632198139519631 0.41 0  0.8039733463934788 0.41 0  0.7467958595662458 0.41 0  0.6916151138480078 0.41 0  0.6383613676644679 0.41 0  0.5869673343225223 0.41 0  0.5373680609412221 0.41 0  0.4895008759292634 0.41 0  0.4433053055145528 0.41 0  0.3987229542475914 0.41 0  0.3556974926297398 0.41 0  0.3141745521466497 0.41 0  0.2741016576310038 0.41 0  0.2354281840915826 0.41 0  0.1981052433265003 0.41 0  0.1620856860352591 0.41 0  0.1273239957535623 0.41 0  0.09377624077128965 0.41 0  0.06140001986584975 0.41 0  0.03015443760436654 0.41 0  0.2497468076502589 0.2050254481002335 0  0.2497468076502614 0.1949745518997913 0  0.2469965252529372 0.1829317073451959 0  0.2439893735792749 0.1762316384219906 0  0.2400332147834255 0.1700443375285386 0  0.2352133972704371 0.1645032867342007 0  0.2296339016332438 0.1597280261969788 0  0.2234150974217223 0.1558215752574715 0  0.2166911463437691 0.1528682099456123 0  0.2096071079204251 0.1509316448471593 0  0.2023158100364996 0.1500536585536553 0  0.194974551899914 0.1502531923497262 0  0.1877417105387872 0.1515259415822739 0  0.1807733240461124 0.153844448527136 0  0.1742197252835808 0.15715869474974 0  0.1682222986673531 0.1613971801805478 0  0.162910430003803 0.1664684656256651 0  0.1583987151779087 0.1722631454351573 0  0.1547844879126891 0.178656207771761 0  0.1521457199348551 0.1855097315605723 0  0.1505393388476355 0.1926758619366523 0  0.1505393388476328 0.2073241380633295 0  0.1521457199348437 0.2144902684393899 0  0.1547844879126531 0.221343792228163 0  0.1583987151778488 0.2277368545647528 0  0.1629104300036858 0.2335315343742052 0  0.1682222986671726 0.2386028198193036 0  0.1742197252833576 0.2428413052501257 0  0.1807733240458683 0.2461555514727623 0  0.1877417105384929 0.2484740584176516 0  0.1949745518995776 0.2497468076502398 0  0.202315810036185 0.2499463414463592 0  0.2096071079201568 0.2490683551528932 0  0.2166911463435495 0.2471317900544655 0  0.2234150974215506 0.2441784247426195 0  0.2296339016331197 0.2402719738031125 0  0.2352133972703547 0.2354967132658811 0  0.2400332147833751 0.2299556624715287 0  0.2439893735792577 0.2237683615780412 0  0.246996525252926 0.2170682926548348 0  0.25645809709277 0.21 0  0.2639263993298655 0.21 0  0.271394701566961 0.21 0  0.2788630038040554 0.21 0  0.2863313060411479 0.21 0  0.2937996082782405 0.21 0  0.301267910515333 0.21 0  0.3087362127524279 0.21 0  0.3162045149895234 0.21 0  0.3236728172265972 0.21 0  0.3311411194636928 0.21 0  0.3386094217007701 0.21 0  0.3460777239378666 0.21 0  0.3535460261749672 0.21 0  0.3610143284120516 0.21 0  0.3684826306491596 0.21 0  0.3759509328862226 0.21 0  0.383419235123329 0.21 0  0.3908875373604028 0.21 0  0.3983558395975142 0.21 0  0.4058241418345938 0.21 0  0.4132924440716992 0.21 0  0.4207607463087888 0.21 0  0.4282290485459029 0.21 0  0.4356973507830418 0.21 0  0.4431656530201649 0.21 0  0.4506339552573136 0.21 0  0.4581022574944306 0.21 0  0.4655705597315852 0.21 0  0.4730388619686996 0.21 0  0.480507164205851 0.21 0  0.4879754664429498 0.21 0  0.4954437686800938 0.21 0  0.502912070917267 0.21 0  0.5103803731544119 0.21 0  0.5178486753915261 0.21 0  0.5253169776286404 0.21 0  0.5327852798657868 0.21 0  0.5402535821029386 0.21 0  0.54772188434007 0.21 0  0.5551901865771842 0.21 0  0.5626584888143201 0.21 0  0.5701267910514778 0.21 0  0.5775950932886138 0.21 0  0.5850633955257281 0.21 0  0.5925316977628483 0.21 0  0.6 0.2050000000000054 0  0.6 0.1950000000000217 0  0.5925316977628897 0.19 0  0.5850633955257988 0.19 0  0.5775950932887378 0.19 0  0.5701267910515998 0.19 0  0.5626584888145268 0.19 0  0.5551901865773963 0.19 0  0.547721884340339 0.19 0  0.5402535821032429 0.19 0  0.5327852798661811 0.19 0  0.5253169776290537 0.19 0  0.5178486753919799 0.19 0  0.5103803731549078 0.19 0  0.502912070917822 0.19 0  0.4954437686807294 0.19 0  0.4879754664436223 0.19 0  0.4805071642065402 0.19 0  0.4730388619694271 0.19 0  0.4655705597323621 0.19 0  0.4581022574952563 0.19 0  0.4506339552581777 0.19 0  0.4431656530210671 0.19 0  0.4356973507839815 0.19 0  0.4282290485468779 0.19 0  0.4207607463097617 0.19 0  0.4132924440726327 0.19 0  0.4058241418354857 0.19 0  0.3983558395983636 0.19 0  0.3908875373612097 0.19 0  0.3834192351240934 0.19 0  0.3759509328869369 0.19 0  0.3684826306498175 0.19 0  0.361014328412667 0.19 0  0.3535460261755617 0.19 0  0.3460777239384295 0.19 0  0.3386094217012945 0.19 0  0.3311411194641595 0.19 0  0.3236728172270245 0.19 0  0.3162045149898895 0.19 0  0.3087362127527544 0.19 0  0.3012679105156187 0.19 0  0.2937996082784807 0.19 0  0.2863313060413428 0.19 0  0.2788630038042048 0.19 0  0.2713947015670686 0.19 0  0.2639263993299336 0.19 0  0.2564580970927985 0.19 0  0.2607803159922026 0.2000727136295815 0  0.5887803774232762 0.2001272386983733 0  0.5745072403740523 0.2002044435018727 0  0.5511891430099709 0.2001122610077113 0  0.2751288526855082 0.20000000000002 0  0.5365194309847112 0.1999999999999436 0  0.2894621222999649 0.1998691686390484 0  0.5215828265105155 0.1999999999999228 0  0.3127789816668748 0.1998657885438805 0  0.3274069683451451 0.2000000000000796 0  0.5066462220363641 0.199999999999908 0  0.3650630746574081 0.199866017807523 0  0.476773013087985 0.1999999999998713 0  0.3417402379596385 0.1998691686391011 0  0.3796850840047755 0.200000000000134 0  0.4618364086138087 0.1999999999998546 0  0.4917096175621762 0.1999999999998808 0  0.3946216884789568 0.2000000000001512 0  0.446899804139621 0.1999999999998389 0  0.4089549580935208 0.1998691686391595 0  0.4322718174608562 0.200127451265745 0  0.4201487168029707 0.1999966199048527 0  0.3528922713220932 0.2000185703532356 0  0.5633122436674589 0.1999814296467508 0  0.3006558810093873 0.1999966199048318 0  0.5815926498168407 0.1966545283159175 0  0.2677053789419034 0.1964246479135325 0  0.5290511287476175 0.1970915826863981 0  0.5439877332217911 0.197091582686394 0  0.2825131256993216 0.2035478995978015 0  0.3199386661080599 0.202908417313604 0  0.4842413153250809 0.1970915826863873 0  0.5141145242734466 0.1970915826863843 0  0.3722167817676917 0.2029084173136195 0  0.4693047108508938 0.1970915826863783 0  0.3348752705822316 0.202908417313609 0  0.3871533862418661 0.2029084173136212 0  0.4543681063767183 0.1970915826863795 0  0.4991779197992749 0.1970915826863902 0  0.4020059614928624 0.203547899597858 0  0.4394315019025246 0.1970915826863714 0  0.2550657455369551 0.2034088125358657 0  0.2548908499171161 0.1966940311614271 0  0.5946539510196798 0.2024302972968126 0  0.267698176732111 0.2039977513680092 0  0.4261685417851465 0.196409292431739 0  0.3590076176283495 0.196411355804271 0  0.5571672426447437 0.2036011176410121 0  0.3066757059912147 0.1964092924317024 0  0.594380730180568 0.1966558399668133 0  0.4842413153245942 0.2040749161535287 0  0.4693047108503577 0.2040749161535231 0  0.3871533862424271 0.1959250838464788 0  0.372246743208829 0.1959123236376545 0  0.5141145242731028 0.2040749161535395 0  0.4543681063761134 0.2040749161535186 0  0.4019979587101454 0.1959834479682427 0  0.4394608940728603 0.2040870543693135 0  0.5439623148931173 0.2040856076781014 0  0.5290511287473298 0.2040749161535501 0  0.4991779197988497 0.2040749161535382 0  0.3347912413592433 0.1959225448935183 0  0.3199680582793816 0.1959123018030061 0  0.2825051229162361 0.1959834479681729 0  0.3590471196690275 0.2036304442587945 0  0.5571594006495384 0.1963685282145804 0  0.3067669986803285 0.203627750582736 0  0.4262598344738712 0.2036568242185335 0  0.5814408164431408 0.2041285596160068 0  0.5688286748170428 0.1961819304477386 0  0.4145905603063645 0.2038180695522843 0  0.3473758401724931 0.2038180695522752 0  0.2950977245128307 0.2038180695522663 0  0.5688286748170693 0.203818069552238 0  0.2950977245127906 0.1961819304477774 0  0.3473758401723931 0.1961819304478349 0  0.4145905603061963 0.1961819304479011 0  0.2601812407614425 0.2056861609747042
[...]
<PointData  Vectors="f_40-1"> 
<DataArray  type="Float64"  Name="f_40-1"  NumberOfComponents="3" format="ascii">0.0000000000000000e+00 0.0000000000000000e+00 0.0000000000000000e+00  0.0000000000000000e+00 0.0000000000000000e+00 0.0000000000000000e+00  0.0000000000000000e+00 0.0000000000000000e+00 0.0000000000000000e+00  0.0000000000000000e+00 0.0000000000000000e+00 0.0000000000000000e+00  -2.7454294406115380e-05 8.6882039024025886e-05 0.0000000000000000e+00  -1.5161973588055535e-05 8.3063324592350991e-05 0.0000000000000000e+00  0.0000000000000000e+00 0.0000000000000000e+00 0.0000000000000000e+00  0.0000000000000000e+00 0.0000000000000000e+00 0.0000000000000000e+00  0.0000000000000000e+00 0.0000000000000000e+00 0.0000000000000000e+00  0.0000000000000000e+00 0.0000000000000000e+00 0.0000000000000000e+00  -2.1742513127935053e-05 8.4981230092181993e-05 0.0000000000000000e+00  0.0000000000000000e+00 0.0000000000000000e+00 0.0000000000000000e+00  0.0000000000000000e+00 0.0000000000000000e+00 0.0000000000000000e+00  0.0000000000000000e+00 0.0000000000000000e+00 0.0000000000000000e+00  0.0000000000000000e+00 0.0000000000000000e+00 0.0000000000000000e+00  0.0000000000000000e+00 0.0000000000000000e+00 0.0000000000000000e+00  0.0000000000000000e+00 0.0000000000000000e+00 0.0000000000000000e+00  0.0000000000000000e+00 0.0000000000000000e+00 0.0000000000000000e+00  0.0000000000000000e+00 0.0000000000000000e+00 0.0000000000000000e+00  0.0000000000000000e+00 0.0000000000000000e+00 0.0000000000000000e+00  0.0000000000000000e+00 0.0000000000000000e+00 0.0000000000000000e+00  0.0000000000000000e+00 0.0000000000000000e+00 0.0000000000000000e+00  0.0000000000000000e+00 0.0000000000000000e+00 0.0000000000000000e+00  0.0000000000000000e+00 0.0000000000000000e+00 0.0000000000000000e+00  0.0000000000000000e+00 0.0000000000000000e+00 0.0000000000000000e+00  0.0000000000000000e+00 0.0000000000000000e+00 0.0000000000000000e+00  0.0000000000000000e+00 0.0000000000000000e+00 0.0000000000000000e+00  0.0000000000000000e+00 0.0000000000000000e+00 0.0000000000000000e+00  0.0000000000000000e+00 0.0000000000000000e+00 0.0000000000000000e+00  0.0000000000000000e+00 0.0000000000000000e+00 0.0000000000000000e+00  0.0000000000000000e+00 0.0000000000000000e+00 0.0000000000000000e+00  0.0000000000000000e+00 0.0000000000000000e+00 0.0000000000000000e+00  0.0000000000000000e+00 0.0000000000000000e+00 0.0000000000000000e+00  0.0000000000000000e+00 0.0000000000000000e+00 0.0000000000000000e+00  0.0000000000000000e+00 0.0000000000000000e+00 0.0000000000000000e+00  0.0000000000000000e+00 0.0000000000000000e+00 0.0000000000000000e+00  0.0000000000000000e+00 0.0000000000000000e+00 0.0000000000000000e+00  0.0000000000000000e+00 0.0000000000000000e+00 0.0000000000000000e+00  0.0000000000000000e+00 0.0000000000000000e+00 0.0000000000000000e+00  0.0000000000000000e+00 0.0000000000000000e+00 0.0000000000000000e+00  0.0000000000000000e+00 0.0000000000000000e+00 0.0000000000000000e+00  0.0000000000000000e+00 0.0000000000000000e+00 0.0000000000000000e+00  0.0000000000000000e+00 0.0000000000000000e+00 0.0000000000000000e+00  0.0000000000000000e+00 0.0000000000000000e+00 0.0000000000000000e+00  0.0000000000000000e+00 0.0000000000000000e+00 0.0000000000000000e+00  0.0000000000000000e+00 0.0000000000000000e+00 0.0000000000000000e+00  0.0000000000000000e+00 0.0000000000000000e+00 0.0000000000000000e+00  0.0000000000000000e+00 0.0000000000000000e+00 0.0000000000000000e+00  0.0000000000000000e+00 0.0000000000000000e+00 0.0000000000000000e+00  0.0000000000000000e+00 0.0000000000000000e+00 0.0000000000000000e+00  0.0000000000000000e+00 0.0000000000000000e+00 0.0000000000000000e+00  0.0000000000000000e+00 0.0000000000000000e+00 0.0000000000000000e+00  0.0000000000000000e+00 0.0000000000000000e+00 0.0000000000000000e+00  0.0000000000000000e+00 0.0000000000000000e+00 0.0000000000000000e+00  0.0000000000000000e+00 0.0000000000000000e+00 0.0000000000000000e+00  0.0000000000000000e+00 0.0000000000000000e+00 0.0000000000000000e+00  0.0000000000000000e+00 0.0000000000000000e+00 0.0000000000000000e+00  0.0000000000000000e+00 0.0000000000000000e+00 0.0000000000000000e+00  0.0000000000000000e+00 0.0000000000000000e+00 0.0000000000000000e+00  0.0000000000000000e+00 0.0000000000000000e+00 0.0000000000000000e+00  0.0000000000000000e+00 0.0000000000000000e+00 0.0000000000000000e+00  0.0000000000000000e+00 0.0000000000000000e+00 0.0000000000000000e+00  0.0000000000000000e+00 0.0000000000000000e+00 0.0000000000000000e+00  0.0000000000000000e+00 0.0000000000000000e+00 0.0000000000000000e+00  0.0000000000000000e+00 0.0000000000000000e+00 0.0000000000000000e+00  0.0000000000000000e+00 0.0000000000000000e+00 0.0000000000000000e+00  0.0000000000000000e+00 0.0000000000000000e+00 0.0000000000000000e+00  0.0000000000000000e+00 0.0000000000000000e+00 0.0000000000000000e+00  0.0000000000000000e+00 0.0000000000000000e+00 0.0000000000000000e+00  0.0000000000000000e+00 0.0000000000000000e+00 0.0000000000000000e+00  0.0000000000000000e+00 0.0000000000000000e+00 0.0000000000000000e+00  0.0000000000000000e+00 0.0000000000000000e+00 0.0000000000000000e+00  0.0000000000000000e+00 0.0000000000000000e+00 0.0000000000000000e+00  0.0000000000000000e+00 0.0000000000000000e+00 0.0000000000000000e+00  0.0000000000000000e+00 0.0000000000000000e+00 0.0000000000000000e+00  0.0000000000000000e+00 0.0000000000000000e+00 0.0000000000000000e+00  0.0000000000000000e+00 0.0000000000000000e+00 0.0000000000000000e+00  0.0000000000000000e+00 0.0000000000000000e+00 0.0000000000000000e+00  0.0000000000000000e+00 0.0000000000000000e+00 0.0000000000000000e+00  0.0000000000000000e+00 0.0000000000000000e+00 0.0000000000000000e+00  0.0000000000000000e+00 0.0000000000000000e+00 0.0000000000000000e+00  0.0000000000000000e+00 0.0000000000000000e+00 0.0000000000000000e+00  0.0000000000000000e+00 0.0000000000000000e+00 0.0000000000000000e+00  0.0000000000000000e+00 0.0000000000000000e+00 0.0000000000000000e+00  0.0000000000000000e+00 0.0000000000000000e+00 0.0000000000000000e+00  0.0000000000000000e+00 0.0000000000000000e+00 0.0000000000000000e+00  0.0000000000000000e+00 0.0000000000000000e+00 0.0000000000000000e+00  0.0000000000000000e+00 0.0000000000000000e+00 0.0000000000000000e+00  0.0000000000000000e+00 0.0000000000000000e+00 0.0000000000000000e+00  0.0000000000000000e+00 0.0000000000000000e+00 0.0000000000000000e+00  0.0000000000000000e+00 0.0000000000000000e+00 0.0000000000000000e+00  0.0000000000000000e+00 0.0000000000000000e+00 0.0000000000000000e+00  0.0000000000000000e+00 0.0000000000000000e+00 0.0000000000000000e+00  0.0000000000000000e+00 0.0000000000000000e+00 0.0000000000000000e+00  0.0000000000000000e+00 0.0000000000000000e+00 0.0000000000000000e+00  0.0000000000000000e+00 0.0000000000000000e+00 0.0000000000000000e+00  0.0000000000000000e+00 0.0000000000000000e+00 0.0000000000000000e+00  0.0000000000000000e+00 0.0000000000000000e+00 0.0000000000000000e+00  0.0000000000000000e+00 0.0000000000000000e+00 0.0000000000000000e+00  0.0000000000000000e+00 0.0000000000000000e+00 0.0000000000000000e+00  0.0000000000000000e+00 0.0000000000000000e+00 0.0000000000000000e+00  0.0000000000000000e+00 0.0000000000000000e+00 0.0000000000000000e+00  0.0000000000000000e+00 0.0000000000000000e+00 0.0000000000000000e+00  0.0000000000000000e+00 0.0000000000000000e+00 0.0000000000000000e+00  0.0000000000000000e+00 0.0000000000000000e+00 0.0000000000000000e+00  0.0000000000000000e+00 0.0000000000000000e+00 0.0000000000000000e+00  0.0000000000000000e+00 0.0000000000000000e+00 0.0000000000000000e+00  0.0000000000000000e+00 0.0000000000000000e+00 0.0000000000000000e+00  0.0000000000000000e+00 0.0000000000000000e+00 0.0000000000000000e+00  0.0000000000000000e+00 0.0000000000000000e+00 0.0000000000000000e+00  0.0000000000000000e+00 0.0000000000000000e+00 0.0000000000000000e+00  0.0000000000000000e+00 0.0000000000000000e+00 0.0000000000000000e+00  0.0000000000000000e+00 0.0000000000000000e+00 0.0000000000000000e+00  0.0000000000000000e+00 0.0000000000000000e+00 0.0000000000000000e+00  0.0000000000000000e+00 0.0000000000000000e+00 0.0000000000000000e+00  0.0000000000000000e+00 0.0000000000000000e+00 0.0000000000000000e+00  0.0000000000000000e+00 0.0000000000000000e+00 0.0000000000000000e+00  0.0000000000000000e+00 0.0000000000000000e+00 0.0000000000000000e+00  0.0000000000000000e+00 0.0000000000000000e+00 0.0000000000000000e+00  0.0000000000000000e+00 0.0000000000000000e+00 0.0000000000000000e+00  0.0000000000000000e+00 0.0000000000000000e+00 0.0000000000000000e+00  0.0000000000000000e+00 0.0000000000000000e+00 0.0000000000000000e+00  0.0000000000000000e+00 0.0000000000000000e+00 0.0000000000000000e+00  0.0000000000000000e+00 0.0000000000000000e+00 0.0000000000000000e+00  0.0000000000000000e+00 0.0000000000000000e+00 0.0000000000000000e+00  0.0000000000000000e+00 0.0000000000000000e+00 0.0000000000000000e+00  0.0000000000000000e+00 0.0000000000000000e+00 0.0000000000000000e+00  0.0000000000000000e+00 0.0000000000000000e+00 0.0000000000000000e+00  0.0000000000000000e+00 0.0000000000000000e+00 0.0000000000000000e+00  0.0000000000000000e+00 0.0000000000000000e+00 0.0000000000000000e+00  0.0000000000000000e+00 0.0000000000000000e+00 0.0000000000000000e+00  0.0000000000000000e+00 0.0000000000000000e+00 0.0000000000000000e+00  0.0000000000000000e+00 0.0000000000000000e+00 0.0000000000000000e+00  0.0000000000000000e+00 0.0000000000000000e+00 0.0000000000000000e+00  0.0000000000000000e+00 0.0000000000000000e+00 0.0000000000000000e+00  0.0000000000000000e+00 0.0000000000000000e+00 0.0000000000000000e+00  0.0000000000000000e+00 0.0000000000000000e+00 0.0000000000000000e+00  0.0000000000000000e+00 0.0000000000000000e+00 0.0000000000000000e+00  0.0000000000000000e+00 0.0000000000000000e+00 0.0000000000000000e+00  0.0000000000000000e+00 0.0000000000000000e+00 0.0000000000000000e+00  0.0000000000000000e+00 0.0000000000000000e+00 0.0000000000000000e+00  0.0000000000000000e+00 0.0000000000000000e+00 0.0000000000000000e+00  0.0000000000000000e+00 0.0000000000000000e+00 0.0000000000000000e+00  -2.9102780592846205e-06 2.5466865512153439e-07 0.0000000000000000e+00  -5.8401294393630417e-06 2.9820406461196665e-06 0.0000000000000000e+00  -8.1713854054457914e-06 7.1448718254292879e-06 0.0000000000000000e+00  -1.0344491837257236e-05 1.2765735815105707e-05 0.0000000000000000e+00  -1.2009745452182389e-05 1.9240631573636440e-05 0.0000000000000000e+00  -1.3574942807980061e-05 2.6609891402053990e-05 0.0000000000000000e+00  -1.4750630845005150e-05 3.4478774092975332e-05 0.0000000000000000e+00  -1.5703822592070498e-05 4.2878596711902212e-05 0.0000000000000000e+00  -1.6531610147985343e-05 5.1558024888738209e-05 0.0000000000000000e+00  -1.7078847759912927e-05 6.0360750594300125e-05 0.0000000000000000e+00  -1.7448211893586159e-05 6.9227036496639647e-05 0.0000000000000000e+00  -1.7670226902118891e-05 7.7935714059369025e-05 0.0000000000000000e+00  -1.7662656043920717e-05 8.6441459010737928e-05 0.0000000000000000e+00  -1.7610839335084758e-05 9.4662837985333802e-05 0.0000000000000000e+00  -1.7430578078985658e-05 1.0242847557334054e-04 0.0000000000000000e+00  -1.7035176482036486e-05 1.0976838928007910e-04 0.0000000000000000e+00  -1.6707412814042154e-05 1.1655205919686440e-04 0.0000000000000000e+00  -1.6111097087879246e-05 1.2276299005438860e-04 0.0000000000000000e+00  -1.5672098717255810e-05 1.2831876036576291e-04 0.0000000000000000e+00  -1.4986257111579941e-05 1.3326049487214222e-04 0.0000000000000000e+00  -1.4444883433142186e-05 1.3748603339692916e-04 0.0000000000000000e+00  -1.3722253048720311e-05 1.4100743955948805e-04 0.0000000000000000e+00  -1.3180179187620187e-05 1.4395300211575977e-04 0.0000000000000000e+00  -1.2631027842829975e-05 1.4612153249107842e-04 0.0000000000000000e+00  -1.1954178660029021e-05 1.4774049460545866e-04 0.0000000000000000e+00  -1.1426574698691981e-05 1.4866703783001850e-04 0.0000000000000000e+00  -1.0880007861707802e-05 1.4898735911050078e-04 0.0000000000000000e+00  -1.0437873832668212e-05 1.4875299890714199e-04 0.0000000000000000e+00  -9.9976767985768590e-06 1.4795065654949437e-04 0.0000000000000000e+00  -9.6683914440256087e-06 1.4667315388522940e-04 0.0000000000000000e+00  -9.3579911038913112e-06 1.4489447849714261e-04 0.0000000000000000e+00  -9.1606038196015700e-06 1.4272181225913661e-04 0.0000000000000000e+00  -8.9975713056021071e-06 1.4012265010184758e-04 0.0000000000000000e+00  -8.9442089908934517e-06 1.3721272313001323e-04 0.0000000000000000e+00  -8.9395968521319660e-06 1.3395211437008261e-04 0.0000000000000000e+00  -9.0430950206010690e-06 1.3046423062201780e-04 0.0000000000000000e+00  -9.2035739452436415e-06 1.2670156622503616e-04 0.0000000000000000e+00  -9.4667978721506021e-06 1.2278701561386661e-04 0.0000000000000000e+00  -9.7941656938751071e-06 1.1866640573920027e-04 0.0000000000000000e+00  -1.0221582481995164e-05 1.1446273227482819e-04 0.0000000000000000e+00  -1.0723313359147394e-05 1.1011888935210538e-04 0.0000000000000000e+00  -1.1311172144169283e-05 1.0573257814342610e-04 0.0000000000000000e+00  -1.1984174416379499e-05 1.0127953361245703e-04 0.0000000000000000e+00  -1.2700278771350183e-05 9.6804030446705992e-05 0.0000000000000000e+00  -1.3515617273565348e-05 9.2336088840957477e-05 0.0000000000000000e+00  -1.4366287884460531e-05 8.7810695392633994e-05 0.0000000000000000e+00  -1.8604626397993896e-05 8.4024355029442227e-05 0.0000000000000000e+00  -2.4733616952155659e-05 8.5929268743026730e-05 0.0000000000000000e+00  -2.6628830492982134e-05 9.1322218775847269e-05 0.0000000000000000e+00  -2.5726949978659967e-05 9.5966033003514834e-05 0.0000000000000000e+00  -2.4849143550919133e-05 1.0062837999321716e-04 0.0000000000000000e+00  -2.4015075814733384e-05 1.0523496187391357e-04 0.0000000000000000e+00  -2.3209081627286755e-05 1.0980715282871144e-04 0.0000000000000000e+00  -2.2438460318026180e-05 1.1430893076416910e-04 0.0000000000000000e+00  -2.1656842222137755e-05 1.1872933734466922e-04 0.0000000000000000e+00  -2.0924348354450115e-05 1.2305458118548203e-04 0.0000000000000000e+00  -2.0149178435383470e-05 1.2722226056552846e-04 0.0000000000000000e+00  -1.9428147930341162e-05 1.3123820547636343e-04 0.0000000000000000e+00  -1.8628913735551942e-05 1.3503712716515288e-04 0.0000000000000000e+00  -1.7894110562439824e-05 1.3860860044129556e-04 0.0000000000000000e+00  -1.7044511900692884e-05 1.4189409471231221e-04 0.0000000000000000e+00  -1.6276256143470202e-05 1.4487005264466257e-04 0.0000000000000000e+00  -1.5359355550272329e-05 1.4748478106621539e-04 0.0000000000000000e+00  -1.4545587549560737e-05 1.4970698781015227e-04 0.0000000000000000e+00  -1.3551712146757873e-05 1.5149190505158082e-04 0.0000000000000000e+00  -1.2683530019819324e-05 1.5280244377450321e-04 0.0000000000000000e+00  -1.1606018452232779e-05 1.5360268100672377e-04 0.0000000000000000e+00  -1.0679147230471513e-05 1.5385458814049598e-04 0.0000000000000000e+00  -9.5169179170800514e-06 1.5352442575744939e-04 0.0000000000000000e+00  -8.5288245787309729e-06 1.5257591585725051e-04 0.0000000000000000e+00  -7.3131060319603286e-06 1.5098108719966463e-04 0.0000000000000000e+00  -6.2440613721246698e-06 1.4878408563299516e-04 0.0000000000000000e+00  -5.1662432889454439e-06 1.4581042472296908e-04 0.0000000000000000e+00  -3.9238999372305894e-06 1.4228212363058264e-04 0.0000000000000000e+00  -2.8020953006325076e-06 1.3799987191339565e-04 0.0000000000000000e+00  -1.6124647481066697e-06 1.3305923550986927e-04 0.0000000000000000e+00  -5.1692196377261329e-07 1.2745466755650027e-04 0.0000000000000000e+00  6.0118838341325156e-07 1.2120984999235723e-04 0.0000000000000000e+00  1.6168604288573995e-06 1.1440080789433601e-04 0.0000000000000000e+00  2.6491321060434117e-06 1.0699032325272292e-04 0.0000000000000000e+00  3.5052555425720772e-06 9.9184806134667975e-05 0.0000000000000000e+00  4.2759715722944227e-06 9.0917221578900461e-05 0.0000000000000000e+00  5.0246715237619041e-06 8.2373793904442477e-05 0.0000000000000000e+00  5.6016454135533846e-06 7.3605822297601861e-05 0.0000000000000000e+00  6.0509431009808837e-06 6.4686787186845260e-05 0.0000000000000000e+00  6.3538802287924265e-06 5.5819992143371042e-05 0.0000000000000000e+00  6.4200906046188592e-06 4.7098589040562375e-05 0.0000000000000000e+00  6.3987353362600117e-06 3.8640769950214177e-05 0.0000000000000000e+00  6.2043029189258805e-06 3.0719789784172017e-05 0.0000000000000000e+00  5.6681297092024528e-06 2.3275719066244780e-05 0.0000000000000000e+00  5.0114138041350396e-06 1.6747361212888834e-05 0.0000000000000000e+00  3.9451504649349666e-06 1.1184993187716973e-05 0.0000000000000000e+00  2.8976536413135514e-06 6.8650460611995775e-06 0.0000000000000000e+00  1.4159728476301222e-06 3.8101003940602957e-06 0.0000000000000000e+00  -1.5133005174014342e-06 2.4128002374272946e-06 0.0000000000000000e+00  -2.0157655365131616e-05 9.1861595597029561e-05 0.0000000000000000e+00  -1.8399883495414019e-05 1.0058759895889318e-04 0.0000000000000000e+00  -1.6233888172189392e-05 1.1461666381260418e-04 0.0000000000000000e+00  -2.3751315589396283e-06 1.1070089038207885e-05 0.0000000000000000e+00  -1.5150002765009380e-05 1.2305321866924946e-04 0.0000000000000000e+00  -3.2681814320088802e-06 2.3784480652931737e-05 0.0000000000000000e+00  -1.4136539720834389e-05 1.3103225483601462e-04 0.0000000000000000e+00  -4.7302502661096222e-06 4.9539185470134945e-05 0.0000000000000000e+00  -5.7214091220972714e-06 6.6987439742919054e-05 0.0000000000000000e+00  -1.3260474516769919e-05 1.3814639379575660e-04 0.0000000000000000e+00  -7.4502020656782443e-06 1.0912357351062235e-04 0.0000000000000000e+00  -1.1824157484962925e-05 1.4854116540029838e-04 0.0000000000000000e+00  -6.3334944936415511e-06 8.3949189565285282e-05 0.0000000000000000e+00  -8.1919741264809936e-06 1.2244833978294374e-04 0.0000000000000000e+00  -1.1218772857220579e-05 1.5118363531150050e-04 0.0000000000000000e+00  -1.2497195448901772e-05 1.4408956038973898e-04 0.0000000000000000e+00  -8.7760256380033529e-06 1.3366354404151080e-04 0.0000000000000000e+00  -1.0662181616152329e-05 1.5171213474839414e-04 0.0000000000000000e+00  -9.2443419458681814e-06 1.4193019246741290e-04 0.0000000000000000e+00  -1.0163627215667730e-05 1.4989128952403350e-04 0.0000000000000000e+00  -9.7069906191454325e-06 1.4646920890486670e-04 0.0000000000000000e+00  -7.0426039226955553e-06 9.6384037984482832e-05 0.0000000000000000e+00  -1.7426371455274778e-05 1.0741185299221467e-04 0.0000000000000000e+00  -4.1178934308648453e-06 3.5646138533437337e-05 0.0000000000000000e+00  -2.1368228171814036e-05 9.6901165902513352e-05 0.0000000000000000e+00  -2.3772118564073168e-08 6.8998971564999663e-06 0.0000000000000000e+00  -1.6138428708315345e-05 1.2776755043694991e-04 0.0000000000000000e+00  -1.7349250153643628e-05 1.1944402044977844e-04 0.0000000000000000e+00  -5.7842359055343971e-06 1.6594237393212056e-05 0.0000000000000000e+00  -8.6315344099366432e-06 5.7415143039408089e-05 0.0000000000000000e+00  -1.2971817068379708e-05 1.4718050704196436e-04 0.0000000000000000e+00  -1.5024158792777840e-05 1.3536299409559033e-04 0.0000000000000000e+00  -1.0483280547819784e-05 1.1517954416552754e-04 0.0000000000000000e+00  -1.1985432309618560e-05 1.5076681854575409e-04 0.0000000000000000e+00  -9.4401623720764381e-06 7.5238703253895087e-05 0.0000000000000000e+00  -1.0643320654541867e-05 1.2764074876612548e-04 0.0000000000000000e+00  -1.0999479925788574e-05 1.5238750465927805e-04 0.0000000000000000e+00  -1.3977396810088050e-05 1.4193958419816632e-04 0.0000000000000000e+00  -1.1082382448181607e-05 1.3730645007446496e-04 0.0000000000000000e+00  -1.0009292709699192e-05 1.5175028462606282e-04 0.0000000000000000e+00  -1.2914952621088846e-06 2.4891124342869495e-07 0.0000000000000000e+00  -5.8209612034723407e-07 1.0064912104999598e-06 0.0000000000000000e+00  -1.9525201773791923e-05 8.7843938280586099e-05 0.0000000000000000e+00  -3.9360687127055703e-06 5.3335827626347741e-06 0.0000000000000000e+00  -8.9107167888938573e-06