<?xml version="1.0"?>
<VTKFile type="UnstructuredGrid"  version="0.1"  >
<UnstructuredGrid>
<Piece  NumberOfPoints="1419" NumberOfCells="2698">
<Points>
<DataArray  type="Float64"  NumberOfComponents="3"  format="ascii">0 0 0  0 0.41 0  2.5 0 0  2.5 0.41 0  0.6 0.19 0  0.6 0.21 0  0.25 0.2 0  0.15 0.2 0  0.2489897948556636 0.21 0  0.2489897948556636 0.19 0  0.6 0.2 0  0 0.3807142857143437 0  0 0.3514285714286952 0  0 0.3221428571430699 0  0 0.29285714285744 0  0 0.2635714285718054 0  0 0.2342857142861561 0  0 0.2050000000005308 0  0 0.175714285714732 0  0 0.1464285714289574 0  0 0.1171428571431897 0  0 0.08785714285737878 0  0 0.05857142857161107 0  0 0.02928571428580012 0  0.03015443760436003 0 0  0.06140001986583606 0 0  0.09377624077125973 0 0  0.1273239957535082 0 0  0.1620856860351972 0 0  0.1981052433264291 0 0  0.235428184091502 0 0  0.2741016576309132 0 0  0.3141745521465447 0 0  0.3556974926295285 0 0  0.3987229542472677 0 0  0.4433053055141081 0 0  0.4895008759286886 0 0  0.5373680609405097 0 0  0.5869673343216626 0 0  0.6383613676634521 0 0  0.6916151138468254 0 0  0.7467958595648856 0 0  0.8039733463919316 0 0  0.8632198139502143 0 0  0.9246101326867038 0 0  0.9882218810934433 0 0  1.054135445558498 0 0  1.122434100542598 0 0  1.193204177141305 0 0  1.266535089879536 0 0  1.342519516046404 0 0  1.421253448503939 0 0  1.502836389106271 0 0  1.587371439758838 0 0  1.674965418777374 0 0  1.765729001825544 0 0  1.859776908880082 0 0  1.957227977487062 0 0  2.058205329869943 0 0  2.162836591189951 0 0  2.271253957290865 0 0  2.383594446803425 0 0  2.5 0.1024999999997612 0  2.5 0.2049999999994743 0  2.5 0.3074999999997183 0  2.383594446803656 0.41 0  2.271253957291315 0.41 0  2.162836591190598 0.41 0  2.058205329870775 0.41 0  1.957227977488067 0.41 0  1.859776908881246 0.41 0  1.765729001826854 0.41 0  1.674965418778818 0.41 0  1.58737143976041 0.41 0  1.502836389107956 0.41 0  1.421253448505726 0.41 0  1.342519516048286 0.41 0  1.266535089881505 0.41 0  1.193204177143353 0.41 0  1.122434100544716 0.41 0  1.05413544556068 0.41 0  0.9882218810956305 0.41 0  0.9246101326886647 0.41 0  0.8632198139519631 0.41 0  0.8039733463934788 0.41 0  0.7467958595662458 0.41 0  0.6916151138480078 0.41 0  0.6383613676644679 0.41 0  0.5869673343225223 0.41 0  0.5373680609412221 0.41 0  0.4895008759292634 0.41 0  0.4433053055145528 0.41 0  0.3987229542475914 0.41 0  0.3556974926297398 0.41 0  0.3141745521466497 0.41 0  0.2741016576310038 0.41 0  0.2354281840915826 0.41 0  0.1981052433265003 0.41 0  0.1620856860352591 0.41 0  0.1273239957535623 0.41 0  0.09377624077128965 0.41 0  0.06140001986584975 0.41 0  0.03015443760436654 0.41 0  0.2497468076502589 0.2050254481002335 0  0.2497468076502614 0.1949745518997913 0  0.2469965252529372 0.1829317073451959 0  0.2439893735792749 0.1762316384219906 0  0.2400332147834255 0.1700443375285386 0  0.2352133972704371 0.1645032867342007 0  0.2296339016332438 0.1597280261969788 0  0.2234150974217223 0.1558215752574715 0  0.2166911463437691 0.1528682099456123 0  0.2096071079204251 0.1509316448471593 0  0.2023158100364996 0.1500536585536553 0  0.194974551899914 0.1502531923497262 0  0.1877417105387872 0.1515259415822739 0  0.1807733240461124 0.153844448527136 0  0.1742197252835808 0.15715869474974 0  0.1682222986673531 0.1613971801805478 0  0.162910430003803 0.1664684656256651 0  0.1583987151779087 0.1722631454351573 0  0.1547844879126891 0.178656207771761 0  0.1521457199348551 0.1855097315605723 0  0.1505393388476355 0.1926758619366523 0  0.1505393388476328 0.2073241380633295 0  0.1521457199348437 0.2144902684393899 0  0.1547844879126531 0.221343792228163 0  0.1583987151778488 0.2277368545647528 0  0.1629104300036858 0.2335315343742052 0  0.1682222986671726 0.2386028198193036 0  0.1742197252833576 0.2428413052501257 0  0.1807733240458683 0.2461555514727623 0  0.1877417105384929 0.2484740584176516 0  0.1949745518995776 0.2497468076502398 0  0.202315810036185 0.2499463414463592 0  0.2096071079201568 0.2490683551528932 0  0.2166911463435495 0.2471317900544655 0  0.2234150974215506 0.2441784247426195 0  0.2296339016331197 0.2402719738031125 0  0.2352133972703547 0.2354967132658811 0  0.2400332147833751 0.2299556624715287 0  0.2439893735792577 0.2237683615780412 0  0.246996525252926 0.2170682926548348 0  0.25645809709277 0.21 0  0.2639263993298655 0.21 0  0.271394701566961 0.21 0  0.2788630038040554 0.21 0  0.2863313060411479 0.21 0  0.2937996082782405 0.21 0  0.301267910515333 0.21 0  0.3087362127524279 0.21 0  0.3162045149895234 0.21 0  0.3236728172265972 0.21 0  0.3311411194636928 0.21 0  0.3386094217007701 0.21 0  0.3460777239378666 0.21 0  0.3535460261749672 0.21 0  0.3610143284120516 0.21 0  0.3684826306491596 0.21 0  0.3759509328862226 0.21 0  0.383419235123329 0.21 0  0.3908875373604028 0.21 0  0.3983558395975142 0.21 0  0.4058241418345938 0.21 0  0.4132924440716992 0.21 0  0.4207607463087888 0.21 0  0.4282290485459029 0.21 0  0.4356973507830418 0.21 0  0.4431656530201649 0.21 0  0.4506339552573136 0.21 0  0.4581022574944306 0.21 0  0.4655705597315852 0.21 0  0.4730388619686996 0.21 0  0.480507164205851 0.21 0  0.4879754664429498 0.21 0  0.4954437686800938 0.21 0  0.502912070917267 0.21 0  0.5103803731544119 0.21 0  0.5178486753915261 0.21 0  0.5253169776286404 0.21 0  0.5327852798657868 0.21 0  0.5402535821029386 0.21 0  0.54772188434007 0.21 0  0.5551901865771842 0.21 0  0.5626584888143201 0.21 0  0.5701267910514778 0.21 0  0.5775950932886138 0.21 0  0.5850633955257281 0.21 0  0.5925316977628483 0.21 0  0.6 0.2050000000000054 0  0.6 0.1950000000000217 0  0.5925316977628897 0.19 0  0.5850633955257988 0.19 0  0.5775950932887378 0.19 0  0.5701267910515998 0.19 0  0.5626584888145268 0.19 0  0.5551901865773963 0.19 0  0.547721884340339 0.19 0  0.5402535821032429 0.19 0  0.5327852798661811 0.19 0  0.5253169776290537 0.19 0  0.5178486753919799 0.19 0  0.5103803731549078 0.19 0  0.502912070917822 0.19 0  0.4954437686807294 0.19 0  0.4879754664436223 0.19 0  0.4805071642065402 0.19 0  0.4730388619694271 0.19 0  0.4655705597323621 0.19 0  0.4581022574952563 0.19 0  0.4506339552581777 0.19 0  0.4431656530210671 0.19 0  0.4356973507839815 0.19 0  0.4282290485468779 0.19 0  0.4207607463097617 0.19 0  0.4132924440726327 0.19 0  0.4058241418354857 0.19 0  0.3983558395983636 0.19 0  0.3908875373612097 0.19 0  0.3834192351240934 0.19 0  0.3759509328869369 0.19 0  0.3684826306498175 0.19 0  0.361014328412667 0.19 0  0.3535460261755617 0.19 0  0.3460777239384295 0.19 0  0.3386094217012945 0.19 0  0.3311411194641595 0.19 0  0.3236728172270245 0.19 0  0.3162045149898895 0.19 0  0.3087362127527544 0.19 0  0.3012679105156187 0.19 0  0.2937996082784807 0.19 0  0.2863313060413428 0.19 0  0.2788630038042048 0.19 0  0.2713947015670686 0.19 0  0.2639263993299336 0.19 0  0.2564580970927985 0.19 0  0.2607803159922026 0.2000727136295815 0  0.5887803774232762 0.2001272386983733 0  0.5745072403740523 0.2002044435018727 0  0.5511891430099709 0.2001122610077113 0  0.2751288526855082 0.20000000000002 0  0.5365194309847112 0.1999999999999436 0  0.2894621222999649 0.1998691686390484 0  0.5215828265105155 0.1999999999999228 0  0.3127789816668748 0.1998657885438805 0  0.3274069683451451 0.2000000000000796 0  0.5066462220363641 0.199999999999908 0  0.3650630746574081 0.199866017807523 0  0.476773013087985 0.1999999999998713 0  0.3417402379596385 0.1998691686391011 0  0.3796850840047755 0.200000000000134 0  0.4618364086138087 0.1999999999998546 0  0.4917096175621762 0.1999999999998808 0  0.3946216884789568 0.2000000000001512 0  0.446899804139621 0.1999999999998389 0  0.4089549580935208 0.1998691686391595 0  0.4322718174608562 0.200127451265745 0  0.4201487168029707 0.1999966199048527 0  0.3528922713220932 0.2000185703532356 0  0.5633122436674589 0.1999814296467508 0  0.3006558810093873 0.1999966199048318 0  0.5815926498168407 0.1966545283159175 0  0.2677053789419034 0.1964246479135325 0  0.5290511287476175 0.1970915826863981 0  0.5439877332217911 0.197091582686394 0  0.2825131256993216 0.2035478995978015 0  0.3199386661080599 0.202908417313604 0  0.4842413153250809 0.1970915826863873 0  0.5141145242734466 0.1970915826863843 0  0.3722167817676917 0.2029084173136195 0  0.4693047108508938 0.1970915826863783 0  0.3348752705822316 0.202908417313609 0  0.3871533862418661 0.2029084173136212 0  0.4543681063767183 0.1970915826863795 0  0.4991779197992749 0.1970915826863902 0  0.4020059614928624 0.203547899597858 0  0.4394315019025246 0.1970915826863714 0  0.2550657455369551 0.2034088125358657 0  0.2548908499171161 0.1966940311614271 0  0.5946539510196798 0.2024302972968126 0  0.267698176732111 0.2039977513680092 0  0.4261685417851465 0.196409292431739 0  0.3590076176283495 0.196411355804271 0  0.5571672426447437 0.2036011176410121 0  0.3066757059912147 0.1964092924317024 0  0.594380730180568 0.1966558399668133 0  0.4842413153245942 0.2040749161535287 0  0.4693047108503577 0.2040749161535231 0  0.3871533862424271 0.1959250838464788 0  0.372246743208829 0.1959123236376545 0  0.5141145242731028 0.2040749161535395 0  0.4543681063761134 0.2040749161535186 0  0.4019979587101454 0.1959834479682427 0  0.4394608940728603 0.2040870543693135 0  0.5439623148931173 0.2040856076781014 0  0.5290511287473298 0.2040749161535501 0  0.4991779197988497 0.2040749161535382 0  0.3347912413592433 0.1959225448935183 0  0.3199680582793816 0.1959123018030061 0  0.2825051229162361 0.1959834479681729 0  0.3590471196690275 0.2036304442587945 0  0.5571594006495384 0.1963685282145804 0  0.3067669986803285 0.203627750582736 0  0.4262598344738712 0.2036568242185335 0  0.5814408164431408 0.2041285596160068 0  0.5688286748170428 0.1961819304477386 0  0.4145905603063645 0.2038180695522843 0  0.3473758401724931 0.2038180695522752 0  0.2950977245128307 0.2038180695522663 0  0.5688286748170693 0.203818069552238 0  0.2950977245127906 0.1961819304477774 0  0.3473758401723931 0.1961819304478349 0  0.4145905603061963 0.1961819304479011 0  0.2601812407614425 0.2056861609747042
[...]
<PointData  Vectors="f_40-1"> 
<DataArray  type="Float64"  Name="f_40-1"  NumberOfComponents="3" format="ascii">0.0000000000000000e+00 0.0000000000000000e+00 0.0000000000000000e+00  0.0000000000000000e+00 0.0000000000000000e+00 0.0000000000000000e+00  0.0000000000000000e+00 0.0000000000000000e+00 0.0000000000000000e+00  0.0000000000000000e+00 0.0000000000000000e+00 0.0000000000000000e+00  5.6416374757868316e-05 2.4385354977898262e-03 0.0000000000000000e+00  -1.0567147676774459e-04 2.4370746726324259e-03 0.0000000000000000e+00  0.0000000000000000e+00 0.0000000000000000e+00 0.0000000000000000e+00  0.0000000000000000e+00 0.0000000000000000e+00 0.0000000000000000e+00  0.0000000000000000e+00 0.0000000000000000e+00 0.0000000000000000e+00  0.0000000000000000e+00 0.0000000000000000e+00 0.0000000000000000e+00  -2.4809736172594299e-05 2.4378036653498435e-03 0.0000000000000000e+00  0.0000000000000000e+00 0.0000000000000000e+00 0.0000000000000000e+00  0.0000000000000000e+00 0.0000000000000000e+00 0.0000000000000000e+00  0.0000000000000000e+00 0.0000000000000000e+00 0.0000000000000000e+00  0.0000000000000000e+00 0.0000000000000000e+00 0.0000000000000000e+00  0.0000000000000000e+00 0.0000000000000000e+00 0.0000000000000000e+00  0.0000000000000000e+00 0.0000000000000000e+00 0.0000000000000000e+00  0.0000000000000000e+00 0.0000000000000000e+00 0.0000000000000000e+00  0.0000000000000000e+00 0.0000000000000000e+00 0.0000000000000000e+00  0.0000000000000000e+00 0.0000000000000000e+00 0.0000000000000000e+00  0.0000000000000000e+00 0.0000000000000000e+00 0.0000000000000000e+00  0.0000000000000000e+00 0.0000000000000000e+00 0.0000000000000000e+00  0.0000000000000000e+00 0.0000000000000000e+00 0.0000000000000000e+00  0.0000000000000000e+00 0.0000000000000000e+00 0.0000000000000000e+00  0.0000000000000000e+00 0.0000000000000000e+00 0.0000000000000000e+00  0.0000000000000000e+00 0.0000000000000000e+00 0.0000000000000000e+00  0.0000000000000000e+00 0.0000000000000000e+00 0.0000000000000000e+00  0.0000000000000000e+00 0.0000000000000000e+00 0.0000000000000000e+00  0.0000000000000000e+00 0.0000000000000000e+00 0.0000000000000000e+00  0.0000000000000000e+00 0.0000000000000000e+00 0.0000000000000000e+00  0.0000000000000000e+00 0.0000000000000000e+00 0.0000000000000000e+00  0.0000000000000000e+00 0.0000000000000000e+00 0.0000000000000000e+00  0.0000000000000000e+00 0.0000000000000000e+00 0.0000000000000000e+00  0.0000000000000000e+00 0.0000000000000000e+00 0.0000000000000000e+00  0.0000000000000000e+00 0.0000000000000000e+00 0.0000000000000000e+00  0.0000000000000000e+00 0.0000000000000000e+00 0.0000000000000000e+00  0.0000000000000000e+00 0.0000000000000000e+00 0.0000000000000000e+00  0.0000000000000000e+00 0.0000000000000000e+00 0.0000000000000000e+00  0.0000000000000000e+00 0.0000000000000000e+00 0.0000000000000000e+00  0.0000000000000000e+00 0.0000000000000000e+00 0.0000000000000000e+00  0.0000000000000000e+00 0.0000000000000000e+00 0.0000000000000000e+00  0.0000000000000000e+00 0.0000000000000000e+00 0.0000000000000000e+00  0.0000000000000000e+00 0.0000000000000000e+00 0.0000000000000000e+00  0.0000000000000000e+00 0.0000000000000000e+00 0.0000000000000000e+00  0.0000000000000000e+00 0.0000000000000000e+00 0.0000000000000000e+00  0.0000000000000000e+00 0.0000000000000000e+00 0.0000000000000000e+00  0.0000000000000000e+00 0.0000000000000000e+00 0.0000000000000000e+00  0.0000000000000000e+00 0.0000000000000000e+00 0.0000000000000000e+00  0.0000000000000000e+00 0.0000000000000000e+00 0.0000000000000000e+00  0.0000000000000000e+00 0.0000000000000000e+00 0.0000000000000000e+00  0.0000000000000000e+00 0.0000000000000000e+00 0.0000000000000000e+00  0.0000000000000000e+00 0.0000000000000000e+00 0.0000000000000000e+00  0.0000000000000000e+00 0.0000000000000000e+00 0.0000000000000000e+00  0.0000000000000000e+00 0.0000000000000000e+00 0.0000000000000000e+00  0.0000000000000000e+00 0.0000000000000000e+00 0.0000000000000000e+00  0.0000000000000000e+00 0.0000000000000000e+00 0.0000000000000000e+00  0.0000000000000000e+00 0.0000000000000000e+00 0.0000000000000000e+00  0.0000000000000000e+00 0.0000000000000000e+00 0.0000000000000000e+00  0.0000000000000000e+00 0.0000000000000000e+00 0.0000000000000000e+00  0.0000000000000000e+00 0.0000000000000000e+00 0.0000000000000000e+00  0.0000000000000000e+00 0.0000000000000000e+00 0.0000000000000000e+00  0.0000000000000000e+00 0.0000000000000000e+00 0.0000000000000000e+00  0.0000000000000000e+00 0.0000000000000000e+00 0.0000000000000000e+00  0.0000000000000000e+00 0.0000000000000000e+00 0.0000000000000000e+00  0.0000000000000000e+00 0.0000000000000000e+00 0.0000000000000000e+00  0.0000000000000000e+00 0.0000000000000000e+00 0.0000000000000000e+00  0.0000000000000000e+00 0.0000000000000000e+00 0.0000000000000000e+00  0.0000000000000000e+00 0.0000000000000000e+00 0.0000000000000000e+00  0.0000000000000000e+00 0.0000000000000000e+00 0.0000000000000000e+00  0.0000000000000000e+00 0.0000000000000000e+00 0.0000000000000000e+00  0.0000000000000000e+00 0.0000000000000000e+00 0.0000000000000000e+00  0.0000000000000000e+00 0.0000000000000000e+00 0.0000000000000000e+00  0.0000000000000000e+00 0.0000000000000000e+00 0.0000000000000000e+00  0.0000000000000000e+00 0.0000000000000000e+00 0.0000000000000000e+00  0.0000000000000000e+00 0.0000000000000000e+00 0.0000000000000000e+00  0.0000000000000000e+00 0.0000000000000000e+00 0.0000000000000000e+00  0.0000000000000000e+00 0.0000000000000000e+00 0.0000000000000000e+00  0.0000000000000000e+00 0.0000000000000000e+00 0.0000000000000000e+00  0.0000000000000000e+00 0.0000000000000000e+00 0.0000000000000000e+00  0.0000000000000000e+00 0.0000000000000000e+00 0.0000000000000000e+00  0.0000000000000000e+00 0.0000000000000000e+00 0.0000000000000000e+00  0.0000000000000000e+00 0.0000000000000000e+00 0.0000000000000000e+00  0.0000000000000000e+00 0.0000000000000000e+00 0.0000000000000000e+00  0.0000000000000000e+00 0.0000000000000000e+00 0.0000000000000000e+00  0.0000000000000000e+00 0.0000000000000000e+00 0.0000000000000000e+00  0.0000000000000000e+00 0.0000000000000000e+00 0.0000000000000000e+00  0.0000000000000000e+00 0.0000000000000000e+00 0.0000000000000000e+00  0.0000000000000000e+00 0.0000000000000000e+00 0.0000000000000000e+00  0.0000000000000000e+00 0.0000000000000000e+00 0.0000000000000000e+00  0.0000000000000000e+00 0.0000000000000000e+00 0.0000000000000000e+00  0.0000000000000000e+00 0.0000000000000000e+00 0.0000000000000000e+00  0.0000000000000000e+00 0.0000000000000000e+00 0.0000000000000000e+00  0.0000000000000000e+00 0.0000000000000000e+00 0.0000000000000000e+00  0.0000000000000000e+00 0.0000000000000000e+00 0.0000000000000000e+00  0.0000000000000000e+00 0.0000000000000000e+00 0.0000000000000000e+00  0.0000000000000000e+00 0.0000000000000000e+00 0.0000000000000000e+00  0.0000000000000000e+00 0.0000000000000000e+00 0.0000000000000000e+00  0.0000000000000000e+00 0.0000000000000000e+00 0.0000000000000000e+00  0.0000000000000000e+00 0.0000000000000000e+00 0.0000000000000000e+00  0.0000000000000000e+00 0.0000000000000000e+00 0.0000000000000000e+00  0.0000000000000000e+00 0.0000000000000000e+00 0.0000000000000000e+00  0.0000000000000000e+00 0.0000000000000000e+00 0.0000000000000000e+00  0.0000000000000000e+00 0.0000000000000000e+00 0.0000000000000000e+00  0.0000000000000000e+00 0.0000000000000000e+00 0.0000000000000000e+00  0.0000000000000000e+00 0.0000000000000000e+00 0.0000000000000000e+00  0.0000000000000000e+00 0.0000000000000000e+00 0.0000000000000000e+00  0.0000000000000000e+00 0.0000000000000000e+00 0.0000000000000000e+00  0.0000000000000000e+00 0.0000000000000000e+00 0.0000000000000000e+00  0.0000000000000000e+00 0.0000000000000000e+00 0.0000000000000000e+00  0.0000000000000000e+00 0.0000000000000000e+00 0.0000000000000000e+00  0.0000000000000000e+00 0.0000000000000000e+00 0.0000000000000000e+00  0.0000000000000000e+00 0.0000000000000000e+00 0.0000000000000000e+00  0.0000000000000000e+00 0.0000000000000000e+00 0.0000000000000000e+00  0.0000000000000000e+00 0.0000000000000000e+00 0.0000000000000000e+00  0.0000000000000000e+00 0.0000000000000000e+00 0.0000000000000000e+00  0.0000000000000000e+00 0.0000000000000000e+00 0.0000000000000000e+00  0.0000000000000000e+00 0.0000000000000000e+00 0.0000000000000000e+00  0.0000000000000000e+00 0.0000000000000000e+00 0.0000000000000000e+00  0.0000000000000000e+00 0.0000000000000000e+00 0.0000000000000000e+00  0.0000000000000000e+00 0.0000000000000000e+00 0.0000000000000000e+00  0.0000000000000000e+00 0.0000000000000000e+00 0.0000000000000000e+00  0.0000000000000000e+00 0.0000000000000000e+00 0.0000000000000000e+00  0.0000000000000000e+00 0.0000000000000000e+00 0.0000000000000000e+00  0.0000000000000000e+00 0.0000000000000000e+00 0.0000000000000000e+00  0.0000000000000000e+00 0.0000000000000000e+00 0.0000000000000000e+00  0.0000000000000000e+00 0.0000000000000000e+00 0.0000000000000000e+00  0.0000000000000000e+00 0.0000000000000000e+00 0.0000000000000000e+00  0.0000000000000000e+00 0.0000000000000000e+00 0.0000000000000000e+00  0.0000000000000000e+00 0.0000000000000000e+00 0.0000000000000000e+00  0.0000000000000000e+00 0.0000000000000000e+00 0.0000000000000000e+00  0.0000000000000000e+00 0.0000000000000000e+00 0.0000000000000000e+00  0.0000000000000000e+00 0.0000000000000000e+00 0.0000000000000000e+00  0.0000000000000000e+00 0.0000000000000000e+00 0.0000000000000000e+00  0.0000000000000000e+00 0.0000000000000000e+00 0.0000000000000000e+00  0.0000000000000000e+00 0.0000000000000000e+00 0.0000000000000000e+00  0.0000000000000000e+00 0.0000000000000000e+00 0.0000000000000000e+00  0.0000000000000000e+00 0.0000000000000000e+00 0.0000000000000000e+00  0.0000000000000000e+00 0.0000000000000000e+00 0.0000000000000000e+00  0.0000000000000000e+00 0.0000000000000000e+00 0.0000000000000000e+00  0.0000000000000000e+00 0.0000000000000000e+00 0.0000000000000000e+00  0.0000000000000000e+00 0.0000000000000000e+00 0.0000000000000000e+00  0.0000000000000000e+00 0.0000000000000000e+00 0.0000000000000000e+00  0.0000000000000000e+00 0.0000000000000000e+00 0.0000000000000000e+00  -7.9075950490477104e-06 6.7684795400242560e-06 0.0000000000000000e+00  -1.6591738473684849e-05 1.5802809151691551e-05 0.0000000000000000e+00  -2.4082512670530998e-05 3.0103025747595180e-05 0.0000000000000000e+00  -3.1902820818495503e-05 4.9948097962791894e-05 0.0000000000000000e+00  -3.8290410306525268e-05 7.4135762829210505e-05 0.0000000000000000e+00  -4.5210863347297206e-05 1.0303462909443809e-04 0.0000000000000000e+00  -5.0675177085386047e-05 1.3524927930184534e-04 0.0000000000000000e+00  -5.5776020196066983e-05 1.7168731722743436e-04 0.0000000000000000e+00  -6.1358459246793715e-05 2.1118931224490926e-04 0.0000000000000000e+00  -6.5506319669497313e-05 2.5371153894931947e-04 0.0000000000000000e+00  -7.0251058710173105e-05 2.9912638482237881e-04 0.0000000000000000e+00  -7.3731641622790925e-05 3.4697072515484453e-04 0.0000000000000000e+00  -7.7540727051244994e-05 3.9709404270458755e-04 0.0000000000000000e+00  -8.0489039071521051e-05 4.4892838266823783e-04 0.0000000000000000e+00  -8.3172361264392014e-05 5.0274491214281024e-04 0.0000000000000000e+00  -8.5976896850472486e-05 5.5794723215320838e-04 0.0000000000000000e+00  -8.8043292794354284e-05 6.1443125615340927e-04 0.0000000000000000e+00  -9.0248966827019290e-05 6.7211317996902298e-04 0.0000000000000000e+00  -9.1863073234068940e-05 7.3067230940097438e-04 0.0000000000000000e+00  -9.3528669602994813e-05 7.9004756632621432e-04 0.0000000000000000e+00  -9.4809260904942487e-05 8.5003132300897320e-04 0.0000000000000000e+00  -9.6024242974403700e-05 9.1056932000628304e-04 0.0000000000000000e+00  -9.6992928250710478e-05 9.7142593674587785e-04 0.0000000000000000e+00  -9.7826922531876067e-05 1.0326336606077317e-03 0.0000000000000000e+00  -9.8609702133825532e-05 1.0940353128429531e-03 0.0000000000000000e+00  -9.9231299805577485e-05 1.1555813785288050e-03 0.0000000000000000e+00  -9.9772341418613683e-05 1.2172440729921283e-03 0.0000000000000000e+00  -1.0022929838445020e-04 1.2789060862336153e-03 0.0000000000000000e+00  -1.0061894856501951e-04 1.3405908124825905e-03 0.0000000000000000e+00  -1.0095854596349370e-04 1.4022139889158733e-03 0.0000000000000000e+00  -1.0124695610422219e-04 1.4637882258498544e-03 0.0000000000000000e+00  -1.0150983765329073e-04 1.5252609183320194e-03 0.0000000000000000e+00  -1.0173920239234360e-04 1.5866406559362225e-03 0.0000000000000000e+00  -1.0195996754133173e-04 1.6479012273659794e-03 0.0000000000000000e+00  -1.0216044625305924e-04 1.7090521538885618e-03 0.0000000000000000e+00  -1.0237185312038816e-04 1.7700922656379897e-03 0.0000000000000000e+00  -1.0257822308494732e-04 1.8310218511081605e-03 0.0000000000000000e+00  -1.0280562530459379e-04 1.8918614472650558e-03 0.0000000000000000e+00  -1.0303837416423800e-04 1.9526062124942164e-03 0.0000000000000000e+00  -1.0329980514393692e-04 2.0132918206572400e-03 0.0000000000000000e+00  -1.0357650476253151e-04 2.0739046243438640e-03 0.0000000000000000e+00  -1.0388533280075259e-04 2.1344859319560212e-03 0.0000000000000000e+00  -1.0421607132178002e-04 2.1950320343790443e-03 0.0000000000000000e+00  -1.0456033768745654e-04 2.2555652266104654e-03 0.0000000000000000e+00  -1.0493778349975030e-04 2.3161005247785780e-03 0.0000000000000000e+00  -1.0532048973845812e-04 2.3766201130209111e-03 0.0000000000000000e+00  -6.5298211614515093e-05 2.4374403594751232e-03 0.0000000000000000e+00  1.5745527648335495e-05 2.4381645894547182e-03 0.0000000000000000e+00  5.6768138507920522e-05 2.3779409423331042e-03 0.0000000000000000e+00  5.7164376863688846e-05 2.3174306899519164e-03 0.0000000000000000e+00  5.7564917601847560e-05 2.2569304593467628e-03 0.0000000000000000e+00  5.7965223694347461e-05 2.1964094230993332e-03 0.0000000000000000e+00  5.8365569682228827e-05 2.1358701167915337e-03 0.0000000000000000e+00  5.8774916473522957e-05 2.0752921265329619e-03 0.0000000000000000e+00  5.9205309741107369e-05 2.0146690759891062e-03 0.0000000000000000e+00  5.9630329030006478e-05 1.9539871524868017e-03 0.0000000000000000e+00  6.0091367400401644e-05 1.8932250484186826e-03 0.0000000000000000e+00  6.0538455194467415e-05 1.8323750146416547e-03 0.0000000000000000e+00  6.1028668137887253e-05 1.7714230233147978e-03 0.0000000000000000e+00  6.1498162645135925e-05 1.7103619973620951e-03 0.0000000000000000e+00  6.2010728677384990e-05 1.6491849995172007e-03 0.0000000000000000e+00  6.2492615735151096e-05 1.5878930328356656e-03 0.0000000000000000e+00  6.3005732932096007e-05 1.5264838012856758e-03 0.0000000000000000e+00  6.3481872423272362e-05 1.4649727663188588e-03 0.0000000000000000e+00  6.3968310408520781e-05 1.4033644580120075e-03 0.0000000000000000e+00  6.4417230798422830e-05 1.3416910719913091e-03 0.0000000000000000e+00  6.4844750723441383e-05 1.2799664033492164e-03 0.0000000000000000e+00  6.5239520705723131e-05 1.2182415120186231e-03 0.0000000000000000e+00  6.5563372046857009e-05 1.1565359820162461e-03 0.0000000000000000e+00  6.5866307799209781e-05 1.0949254953423228e-03 0.0000000000000000e+00  6.6033326091656346e-05 1.0334519991473865e-03 0.0000000000000000e+00  6.6177612745968670e-05 9.7217559639108141e-04 0.0000000000000000e+00  6.6236479162208671e-05 9.1125168390999555e-04 0.0000000000000000e+00  6.6087177082145828e-05 8.5062548994458136e-04 0.0000000000000000e+00  6.5870666604688201e-05 7.9058032499322323e-04 0.0000000000000000e+00  6.5413131428935936e-05 7.3109546645125855e-04 0.0000000000000000e+00  6.4857312851721057e-05 6.7246341158446734e-04 0.0000000000000000e+00  6.3999777880462987e-05 6.1468959284607006e-04 0.0000000000000000e+00  6.3033555024175726e-05 5.5805272576103576e-04 0.0000000000000000e+00  6.1520338740073677e-05 5.0284322002799896e-04 0.0000000000000000e+00  6.0134797033902654e-05 4.4890378392954168e-04 0.0000000000000000e+00  5.8511342613647633e-05 3.9700171689015435e-04 0.0000000000000000e+00  5.6164091532534549e-05 3.4662269414561516e-04 0.0000000000000000e+00  5.3793590965390337e-05 2.9875293715206385e-04 0.0000000000000000e+00  5.0828667718732867e-05 2.5320314517030901e-04 0.0000000000000000e+00  4.7795057230345292e-05 2.1044009565032894e-04 0.0000000000000000e+00  4.3735621394076867e-05 1.7100606118192920e-04 0.0000000000000000e+00  4.0114731756389738e-05 1.3440113997339299e-04 0.0000000000000000e+00  3.6171824121954717e-05 1.0208567694681417e-04 0.0000000000000000e+00  3.0888611432939693e-05 7.2949582640136355e-05 0.0000000000000000e+00  2.5880727233603723e-05 4.8573342565031664e-05 0.0000000000000000e+00  1.9581025126760814e-05 2.8902132444746887e-05 0.0000000000000000e+00  1.3784259810900613e-05 1.4464241820740848e-05 0.0000000000000000e+00  6.5778535447225938e-06 5.4039763626958019e-06 0.0000000000000000e+00  -1.0262539179345709e-06 6.6895049628956807e-06 0.0000000000000000e+00  -2.5189963600880036e-05 2.3468797860627154e-03 0.0000000000000000e+00  -2.5040701817940362e-05 2.2312233203227779e-03 0.0000000000000000e+00  -2.3157023191154836e-05 2.0421577165917397e-03 0.0000000000000000e+00  -2.5383731322693841e-06 3.5524215769862725e-05 0.0000000000000000e+00  -2.1563291423030195e-05 1.9229803147527190e-03 0.0000000000000000e+00  -3.5781812167137569e-06 8.2303128223833259e-05 0.0000000000000000e+00  -2.0874981336147560e-05 1.8013031668215767e-03 0.0000000000000000e+00  -5.6687145985357596e-06 1.9017595719901626e-04 0.0000000000000000e+00  -7.7748547007471283e-06 2.7416304191264372e-04 0.0000000000000000e+00  -2.0177890839889740e-05 1.6792073347076564e-03 0.0000000000000000e+00  -1.0166027459587518e-05 5.3159584679365456e-04 0.0000000000000000e+00  -1.8705790726491816e-05 1.4336359385062484e-03 0.0000000000000000e+00  -8.2428792221874362e-06 3.6614884422768516e-04 0.0000000000000000e+00  -1.2361276624586865e-05 6.4260805172079380e-04 0.0000000000000000e+00  -1.7909487013649848e-05 1.3102965773042960e-03 0.0000000000000000e+00  -1.9458443400315968e-05 1.5566440271636711e-03 0.0000000000000000e+00  -1.3532010017562973e-05 7.6001981091598455e-04 0.0000000000000000e+00  -1.7057124338813001e-05 1.1868413084660523e-03 0.0000000000000000e+00  -1.3533825412199747e-05 8.7533458889884892e-04 0.0000000000000000e+00  -1.7207721664452524e-05 1.0661374747773715e-03 0.0000000000000000e+00  -1.5335697541270897e-05 9.6662770248239795e-04 0.0000000000000000e+00  -1.0228503322139459e-05 4.4343562093852662e-04 0.0000000000000000e+00  -2.2683450754459399e-05 2.1404963872626733e-03 0.0000000000000000e+00  -5.1408964660680861e-06 1.3022437584410531e-04 0.0000000000000000e+00  3.3628205446334868e-06 2.2888690400903050e-03 0.0000000000000000e+00  4.9060026343199914e-06 1.8568872764369692e-05 0.0000000000000000e+00  2.4887871201429458e-06 1.8623789051262886e-03 0.0000000000000000e+00  1.7390813289243110e-06 1.9838845282943349e-03 0.0000000000000000e+00  -1.4437335073554583e-05 5.8293181429746307e-05 0.0000000000000000e+00  -2.3477252614127467e-05 2.3024141832482959e-04 0.0000000000000000e+00  4.8526653859316162e-06 1.4953593921224724e-03 0.0000000000000000e+00  3.2549936582179583e-06 1.7404952510011969e-03 0.0000000000000000e+00  -3.3637635799554467e-05 5.8541443095648158e-04 0.0000000000000000e+00  5.6761834063764995e-06 1.3721575828882357e-03 0.0000000000000000e+00  -2.6856623258351679e-05 3.2128858195354170e-04 0.0000000000000000e+00  -3.5642038171291596e-05 7.0092104371804900e-04 0.0000000000000000e+00  6.5061255247367773e-06 1.2487196637290146e-03 0.0000000000000000e+00  4.0436014881188108e-06 1.6181607284176439e-03 0.0000000000000000e+00  -4.2459798485421488e-05 8.1914160045728850e-04 0.0000000000000000e+00  7.3303776376055399e-06 1.1253145596348821e-03 0.0000000000000000e+00  -1.6416002218131935e-06 1.7243236139853258e-06 0.0000000000000000e+00  7.4804913624650577e-07 1.2764277232460773e-06 0.0000000000000000e+00  -4.4192022333383034e-05 2.3943213767543383e-03 0.0000000000000000e+00  -9.1593108663969213e-06 1.9110993017165300e-05 0.0000000000000000e+00  1.3631971537033856e-05 1.0161167221992248e-03 0.0000000000000000e