<?xml version="1.0"?>
<VTKFile type="UnstructuredGrid"  version="0.1"  >
<UnstructuredGrid>
<Piece  NumberOfPoints="1419" NumberOfCells="2698">
<Points>
<DataArray  type="Float64"  NumberOfComponents="3"  format="ascii">0 0 0  0 0.41 0  2.5 0 0  2.5 0.41 0  0.6 0.19 0  0.6 0.21 0  0.25 0.2 0  0.15 0.2 0  0.2489897948556636 0.21 0  0.2489897948556636 0.19 0  0.6 0.2 0  0 0.3807142857143437 0  0 0.3514285714286952 0  0 0.3221428571430699 0  0 0.29285714285744 0  0 0.2635714285718054 0  0 0.2342857142861561 0  0 0.2050000000005308 0  0 0.175714285714732 0  0 0.1464285714289574 0  0 0.1171428571431897 0  0 0.08785714285737878 0  0 0.05857142857161107 0  0 0.02928571428580012 0  0.03015443760436003 0 0  0.06140001986583606 0 0  0.09377624077125973 0 0  0.1273239957535082 0 0  0.1620856860351972 0 0  0.1981052433264291 0 0  0.235428184091502 0 0  0.2741016576309132 0 0  0.3141745521465447 0 0  0.3556974926295285 0 0  0.3987229542472677 0 0  0.4433053055141081 0 0  0.4895008759286886 0 0  0.5373680609405097 0 0  0.5869673343216626 0 0  0.6383613676634521 0 0  0.6916151138468254 0 0  0.7467958595648856 0 0  0.8039733463919316 0 0  0.8632198139502143 0 0  0.9246101326867038 0 0  0.9882218810934433 0 0  1.054135445558498 0 0  1.122434100542598 0 0  1.193204177141305 0 0  1.266535089879536 0 0  1.342519516046404 0 0  1.421253448503939 0 0  1.502836389106271 0 0  1.587371439758838 0 0  1.674965418777374 0 0  1.765729001825544 0 0  1.859776908880082 0 0  1.957227977487062 0 0  2.058205329869943 0 0  2.162836591189951 0 0  2.271253957290865 0 0  2.383594446803425 0 0  2.5 0.1024999999997612 0  2.5 0.2049999999994743 0  2.5 0.3074999999997183 0  2.383594446803656 0.41 0  2.271253957291315 0.41 0  2.162836591190598 0.41 0  2.058205329870775 0.41 0  1.957227977488067 0.41 0  1.859776908881246 0.41 0  1.765729001826854 0.41 0  1.674965418778818 0.41 0  1.58737143976041 0.41 0  1.502836389107956 0.41 0  1.421253448505726 0.41 0  1.342519516048286 0.41 0  1.266535089881505 0.41 0  1.193204177143353 0.41 0  1.122434100544716 0.41 0  1.05413544556068 0.41 0  0.9882218810956305 0.41 0  0.9246101326886647 0.41 0  0.8632198139519631 0.41 0  0.8039733463934788 0.41 0  0.7467958595662458 0.41 0  0.6916151138480078 0.41 0  0.6383613676644679 0.41 0  0.5869673343225223 0.41 0  0.5373680609412221 0.41 0  0.4895008759292634 0.41 0  0.4433053055145528 0.41 0  0.3987229542475914 0.41 0  0.3556974926297398 0.41 0  0.3141745521466497 0.41 0  0.2741016576310038 0.41 0  0.2354281840915826 0.41 0  0.1981052433265003 0.41 0  0.1620856860352591 0.41 0  0.1273239957535623 0.41 0  0.09377624077128965 0.41 0  0.06140001986584975 0.41 0  0.03015443760436654 0.41 0  0.2497468076502589 0.2050254481002335 0  0.2497468076502614 0.1949745518997913 0  0.2469965252529372 0.1829317073451959 0  0.2439893735792749 0.1762316384219906 0  0.2400332147834255 0.1700443375285386 0  0.2352133972704371 0.1645032867342007 0  0.2296339016332438 0.1597280261969788 0  0.2234150974217223 0.1558215752574715 0  0.2166911463437691 0.1528682099456123 0  0.2096071079204251 0.1509316448471593 0  0.2023158100364996 0.1500536585536553 0  0.194974551899914 0.1502531923497262 0  0.1877417105387872 0.1515259415822739 0  0.1807733240461124 0.153844448527136 0  0.1742197252835808 0.15715869474974 0  0.1682222986673531 0.1613971801805478 0  0.162910430003803 0.1664684656256651 0  0.1583987151779087 0.1722631454351573 0  0.1547844879126891 0.178656207771761 0  0.1521457199348551 0.1855097315605723 0  0.1505393388476355 0.1926758619366523 0  0.1505393388476328 0.2073241380633295 0  0.1521457199348437 0.2144902684393899 0  0.1547844879126531 0.221343792228163 0  0.1583987151778488 0.2277368545647528 0  0.1629104300036858 0.2335315343742052 0  0.1682222986671726 0.2386028198193036 0  0.1742197252833576 0.2428413052501257 0  0.1807733240458683 0.2461555514727623 0  0.1877417105384929 0.2484740584176516 0  0.1949745518995776 0.2497468076502398 0  0.202315810036185 0.2499463414463592 0  0.2096071079201568 0.2490683551528932 0  0.2166911463435495 0.2471317900544655 0  0.2234150974215506 0.2441784247426195 0  0.2296339016331197 0.2402719738031125 0  0.2352133972703547 0.2354967132658811 0  0.2400332147833751 0.2299556624715287 0  0.2439893735792577 0.2237683615780412 0  0.246996525252926 0.2170682926548348 0  0.25645809709277 0.21 0  0.2639263993298655 0.21 0  0.271394701566961 0.21 0  0.2788630038040554 0.21 0  0.2863313060411479 0.21 0  0.2937996082782405 0.21 0  0.301267910515333 0.21 0  0.3087362127524279 0.21 0  0.3162045149895234 0.21 0  0.3236728172265972 0.21 0  0.3311411194636928 0.21 0  0.3386094217007701 0.21 0  0.3460777239378666 0.21 0  0.3535460261749672 0.21 0  0.3610143284120516 0.21 0  0.3684826306491596 0.21 0  0.3759509328862226 0.21 0  0.383419235123329 0.21 0  0.3908875373604028 0.21 0  0.3983558395975142 0.21 0  0.4058241418345938 0.21 0  0.4132924440716992 0.21 0  0.4207607463087888 0.21 0  0.4282290485459029 0.21 0  0.4356973507830418 0.21 0  0.4431656530201649 0.21 0  0.4506339552573136 0.21 0  0.4581022574944306 0.21 0  0.4655705597315852 0.21 0  0.4730388619686996 0.21 0  0.480507164205851 0.21 0  0.4879754664429498 0.21 0  0.4954437686800938 0.21 0  0.502912070917267 0.21 0  0.5103803731544119 0.21 0  0.5178486753915261 0.21 0  0.5253169776286404 0.21 0  0.5327852798657868 0.21 0  0.5402535821029386 0.21 0  0.54772188434007 0.21 0  0.5551901865771842 0.21 0  0.5626584888143201 0.21 0  0.5701267910514778 0.21 0  0.5775950932886138 0.21 0  0.5850633955257281 0.21 0  0.5925316977628483 0.21 0  0.6 0.2050000000000054 0  0.6 0.1950000000000217 0  0.5925316977628897 0.19 0  0.5850633955257988 0.19 0  0.5775950932887378 0.19 0  0.5701267910515998 0.19 0  0.5626584888145268 0.19 0  0.5551901865773963 0.19 0  0.547721884340339 0.19 0  0.5402535821032429 0.19 0  0.5327852798661811 0.19 0  0.5253169776290537 0.19 0  0.5178486753919799 0.19 0  0.5103803731549078 0.19 0  0.502912070917822 0.19 0  0.4954437686807294 0.19 0  0.4879754664436223 0.19 0  0.4805071642065402 0.19 0  0.4730388619694271 0.19 0  0.4655705597323621 0.19 0  0.4581022574952563 0.19 0  0.4506339552581777 0.19 0  0.4431656530210671 0.19 0  0.4356973507839815 0.19 0  0.4282290485468779 0.19 0  0.4207607463097617 0.19 0  0.4132924440726327 0.19 0  0.4058241418354857 0.19 0  0.3983558395983636 0.19 0  0.3908875373612097 0.19 0  0.3834192351240934 0.19 0  0.3759509328869369 0.19 0  0.3684826306498175 0.19 0  0.361014328412667 0.19 0  0.3535460261755617 0.19 0  0.3460777239384295 0.19 0  0.3386094217012945 0.19 0  0.3311411194641595 0.19 0  0.3236728172270245 0.19 0  0.3162045149898895 0.19 0  0.3087362127527544 0.19 0  0.3012679105156187 0.19 0  0.2937996082784807 0.19 0  0.2863313060413428 0.19 0  0.2788630038042048 0.19 0  0.2713947015670686 0.19 0  0.2639263993299336 0.19 0  0.2564580970927985 0.19 0  0.2607803159922026 0.2000727136295815 0  0.5887803774232762 0.2001272386983733 0  0.5745072403740523 0.2002044435018727 0  0.5511891430099709 0.2001122610077113 0  0.2751288526855082 0.20000000000002 0  0.5365194309847112 0.1999999999999436 0  0.2894621222999649 0.1998691686390484 0  0.5215828265105155 0.1999999999999228 0  0.3127789816668748 0.1998657885438805 0  0.3274069683451451 0.2000000000000796 0  0.5066462220363641 0.199999999999908 0  0.3650630746574081 0.199866017807523 0  0.476773013087985 0.1999999999998713 0  0.3417402379596385 0.1998691686391011 0  0.3796850840047755 0.200000000000134 0  0.4618364086138087 0.1999999999998546 0  0.4917096175621762 0.1999999999998808 0  0.3946216884789568 0.2000000000001512 0  0.446899804139621 0.1999999999998389 0  0.4089549580935208 0.1998691686391595 0  0.4322718174608562 0.200127451265745 0  0.4201487168029707 0.1999966199048527 0  0.3528922713220932 0.2000185703532356 0  0.5633122436674589 0.1999814296467508 0  0.3006558810093873 0.1999966199048318 0  0.5815926498168407 0.1966545283159175 0  0.2677053789419034 0.1964246479135325 0  0.5290511287476175 0.1970915826863981 0  0.5439877332217911 0.197091582686394 0  0.2825131256993216 0.2035478995978015 0  0.3199386661080599 0.202908417313604 0  0.4842413153250809 0.1970915826863873 0  0.5141145242734466 0.1970915826863843 0  0.3722167817676917 0.2029084173136195 0  0.4693047108508938 0.1970915826863783 0  0.3348752705822316 0.202908417313609 0  0.3871533862418661 0.2029084173136212 0  0.4543681063767183 0.1970915826863795 0  0.4991779197992749 0.1970915826863902 0  0.4020059614928624 0.203547899597858 0  0.4394315019025246 0.1970915826863714 0  0.2550657455369551 0.2034088125358657 0  0.2548908499171161 0.1966940311614271 0  0.5946539510196798 0.2024302972968126 0  0.267698176732111 0.2039977513680092 0  0.4261685417851465 0.196409292431739 0  0.3590076176283495 0.196411355804271 0  0.5571672426447437 0.2036011176410121 0  0.3066757059912147 0.1964092924317024 0  0.594380730180568 0.1966558399668133 0  0.4842413153245942 0.2040749161535287 0  0.4693047108503577 0.2040749161535231 0  0.3871533862424271 0.1959250838464788 0  0.372246743208829 0.1959123236376545 0  0.5141145242731028 0.2040749161535395 0  0.4543681063761134 0.2040749161535186 0  0.4019979587101454 0.1959834479682427 0  0.4394608940728603 0.2040870543693135 0  0.5439623148931173 0.2040856076781014 0  0.5290511287473298 0.2040749161535501 0  0.4991779197988497 0.2040749161535382 0  0.3347912413592433 0.1959225448935183 0  0.3199680582793816 0.1959123018030061 0  0.2825051229162361 0.1959834479681729 0  0.3590471196690275 0.2036304442587945 0  0.5571594006495384 0.1963685282145804 0  0.3067669986803285 0.203627750582736 0  0.4262598344738712 0.2036568242185335 0  0.5814408164431408 0.2041285596160068 0  0.5688286748170428 0.1961819304477386 0  0.4145905603063645 0.2038180695522843 0  0.3473758401724931 0.2038180695522752 0  0.2950977245128307 0.2038180695522663 0  0.5688286748170693 0.203818069552238 0  0.2950977245127906 0.1961819304477774 0  0.3473758401723931 0.1961819304478349 0  0.4145905603061963 0.1961819304479011 0  0.2601812407614425 0.2056861609747042
[...]
<PointData  Vectors="f_40-1"> 
<DataArray  type="Float64"  Name="f_40-1"  NumberOfComponents="3" format="ascii">0.0000000000000000e+00 0.0000000000000000e+00 0.0000000000000000e+00  0.0000000000000000e+00 0.0000000000000000e+00 0.0000000000000000e+00  0.0000000000000000e+00 0.0000000000000000e+00 0.0000000000000000e+00  0.0000000000000000e+00 0.0000000000000000e+00 0.0000000000000000e+00  -2.3210202751220411e-05 2.3821259549084350e-04 0.0000000000000000e+00  -2.1919677685869418e-05 2.3449935737068244e-04 0.0000000000000000e+00  0.0000000000000000e+00 0.0000000000000000e+00 0.0000000000000000e+00  0.0000000000000000e+00 0.0000000000000000e+00 0.0000000000000000e+00  0.0000000000000000e+00 0.0000000000000000e+00 0.0000000000000000e+00  0.0000000000000000e+00 0.0000000000000000e+00 0.0000000000000000e+00  -2.2986474554489488e-05 2.3636346529730078e-04 0.0000000000000000e+00  0.0000000000000000e+00 0.0000000000000000e+00 0.0000000000000000e+00  0.0000000000000000e+00 0.0000000000000000e+00 0.0000000000000000e+00  0.0000000000000000e+00 0.0000000000000000e+00 0.0000000000000000e+00  0.0000000000000000e+00 0.0000000000000000e+00 0.0000000000000000e+00  0.0000000000000000e+00 0.0000000000000000e+00 0.0000000000000000e+00  0.0000000000000000e+00 0.0000000000000000e+00 0.0000000000000000e+00  0.0000000000000000e+00 0.0000000000000000e+00 0.0000000000000000e+00  0.0000000000000000e+00 0.0000000000000000e+00 0.0000000000000000e+00  0.0000000000000000e+00 0.0000000000000000e+00 0.0000000000000000e+00  0.0000000000000000e+00 0.0000000000000000e+00 0.0000000000000000e+00  0.0000000000000000e+00 0.0000000000000000e+00 0.0000000000000000e+00  0.0000000000000000e+00 0.0000000000000000e+00 0.0000000000000000e+00  0.0000000000000000e+00 0.0000000000000000e+00 0.0000000000000000e+00  0.0000000000000000e+00 0.0000000000000000e+00 0.0000000000000000e+00  0.0000000000000000e+00 0.0000000000000000e+00 0.0000000000000000e+00  0.0000000000000000e+00 0.0000000000000000e+00 0.0000000000000000e+00  0.0000000000000000e+00 0.0000000000000000e+00 0.0000000000000000e+00  0.0000000000000000e+00 0.0000000000000000e+00 0.0000000000000000e+00  0.0000000000000000e+00 0.0000000000000000e+00 0.0000000000000000e+00  0.0000000000000000e+00 0.0000000000000000e+00 0.0000000000000000e+00  0.0000000000000000e+00 0.0000000000000000e+00 0.0000000000000000e+00  0.0000000000000000e+00 0.0000000000000000e+00 0.0000000000000000e+00  0.0000000000000000e+00 0.0000000000000000e+00 0.0000000000000000e+00  0.0000000000000000e+00 0.0000000000000000e+00 0.0000000000000000e+00  0.0000000000000000e+00 0.0000000000000000e+00 0.0000000000000000e+00  0.0000000000000000e+00 0.0000000000000000e+00 0.0000000000000000e+00  0.0000000000000000e+00 0.0000000000000000e+00 0.0000000000000000e+00  0.0000000000000000e+00 0.0000000000000000e+00 0.0000000000000000e+00  0.0000000000000000e+00 0.0000000000000000e+00 0.0000000000000000e+00  0.0000000000000000e+00 0.0000000000000000e+00 0.0000000000000000e+00  0.0000000000000000e+00 0.0000000000000000e+00 0.0000000000000000e+00  0.0000000000000000e+00 0.0000000000000000e+00 0.0000000000000000e+00  0.0000000000000000e+00 0.0000000000000000e+00 0.0000000000000000e+00  0.0000000000000000e+00 0.0000000000000000e+00 0.0000000000000000e+00  0.0000000000000000e+00 0.0000000000000000e+00 0.0000000000000000e+00  0.0000000000000000e+00 0.0000000000000000e+00 0.0000000000000000e+00  0.0000000000000000e+00 0.0000000000000000e+00 0.0000000000000000e+00  0.0000000000000000e+00 0.0000000000000000e+00 0.0000000000000000e+00  0.0000000000000000e+00 0.0000000000000000e+00 0.0000000000000000e+00  0.0000000000000000e+00 0.0000000000000000e+00 0.0000000000000000e+00  0.0000000000000000e+00 0.0000000000000000e+00 0.0000000000000000e+00  0.0000000000000000e+00 0.0000000000000000e+00 0.0000000000000000e+00  0.0000000000000000e+00 0.0000000000000000e+00 0.0000000000000000e+00  0.0000000000000000e+00 0.0000000000000000e+00 0.0000000000000000e+00  0.0000000000000000e+00 0.0000000000000000e+00 0.0000000000000000e+00  0.0000000000000000e+00 0.0000000000000000e+00 0.0000000000000000e+00  0.0000000000000000e+00 0.0000000000000000e+00 0.0000000000000000e+00  0.0000000000000000e+00 0.0000000000000000e+00 0.0000000000000000e+00  0.0000000000000000e+00 0.0000000000000000e+00 0.0000000000000000e+00  0.0000000000000000e+00 0.0000000000000000e+00 0.0000000000000000e+00  0.0000000000000000e+00 0.0000000000000000e+00 0.0000000000000000e+00  0.0000000000000000e+00 0.0000000000000000e+00 0.0000000000000000e+00  0.0000000000000000e+00 0.0000000000000000e+00 0.0000000000000000e+00  0.0000000000000000e+00 0.0000000000000000e+00 0.0000000000000000e+00  0.0000000000000000e+00 0.0000000000000000e+00 0.0000000000000000e+00  0.0000000000000000e+00 0.0000000000000000e+00 0.0000000000000000e+00  0.0000000000000000e+00 0.0000000000000000e+00 0.0000000000000000e+00  0.0000000000000000e+00 0.0000000000000000e+00 0.0000000000000000e+00  0.0000000000000000e+00 0.0000000000000000e+00 0.0000000000000000e+00  0.0000000000000000e+00 0.0000000000000000e+00 0.0000000000000000e+00  0.0000000000000000e+00 0.0000000000000000e+00 0.0000000000000000e+00  0.0000000000000000e+00 0.0000000000000000e+00 0.0000000000000000e+00  0.0000000000000000e+00 0.0000000000000000e+00 0.0000000000000000e+00  0.0000000000000000e+00 0.0000000000000000e+00 0.0000000000000000e+00  0.0000000000000000e+00 0.0000000000000000e+00 0.0000000000000000e+00  0.0000000000000000e+00 0.0000000000000000e+00 0.0000000000000000e+00  0.0000000000000000e+00 0.0000000000000000e+00 0.0000000000000000e+00  0.0000000000000000e+00 0.0000000000000000e+00 0.0000000000000000e+00  0.0000000000000000e+00 0.0000000000000000e+00 0.0000000000000000e+00  0.0000000000000000e+00 0.0000000000000000e+00 0.0000000000000000e+00  0.0000000000000000e+00 0.0000000000000000e+00 0.0000000000000000e+00  0.0000000000000000e+00 0.0000000000000000e+00 0.0000000000000000e+00  0.0000000000000000e+00 0.0000000000000000e+00 0.0000000000000000e+00  0.0000000000000000e+00 0.0000000000000000e+00 0.0000000000000000e+00  0.0000000000000000e+00 0.0000000000000000e+00 0.0000000000000000e+00  0.0000000000000000e+00 0.0000000000000000e+00 0.0000000000000000e+00  0.0000000000000000e+00 0.0000000000000000e+00 0.0000000000000000e+00  0.0000000000000000e+00 0.0000000000000000e+00 0.0000000000000000e+00  0.0000000000000000e+00 0.0000000000000000e+00 0.0000000000000000e+00  0.0000000000000000e+00 0.0000000000000000e+00 0.0000000000000000e+00  0.0000000000000000e+00 0.0000000000000000e+00 0.0000000000000000e+00  0.0000000000000000e+00 0.0000000000000000e+00 0.0000000000000000e+00  0.0000000000000000e+00 0.0000000000000000e+00 0.0000000000000000e+00  0.0000000000000000e+00 0.0000000000000000e+00 0.0000000000000000e+00  0.0000000000000000e+00 0.0000000000000000e+00 0.0000000000000000e+00  0.0000000000000000e+00 0.0000000000000000e+00 0.0000000000000000e+00  0.0000000000000000e+00 0.0000000000000000e+00 0.0000000000000000e+00  0.0000000000000000e+00 0.0000000000000000e+00 0.0000000000000000e+00  0.0000000000000000e+00 0.0000000000000000e+00 0.0000000000000000e+00  0.0000000000000000e+00 0.0000000000000000e+00 0.0000000000000000e+00  0.0000000000000000e+00 0.0000000000000000e+00 0.0000000000000000e+00  0.0000000000000000e+00 0.0000000000000000e+00 0.0000000000000000e+00  0.0000000000000000e+00 0.0000000000000000e+00 0.0000000000000000e+00  0.0000000000000000e+00 0.0000000000000000e+00 0.0000000000000000e+00  0.0000000000000000e+00 0.0000000000000000e+00 0.0000000000000000e+00  0.0000000000000000e+00 0.0000000000000000e+00 0.0000000000000000e+00  0.0000000000000000e+00 0.0000000000000000e+00 0.0000000000000000e+00  0.0000000000000000e+00 0.0000000000000000e+00 0.0000000000000000e+00  0.0000000000000000e+00 0.0000000000000000e+00 0.0000000000000000e+00  0.0000000000000000e+00 0.0000000000000000e+00 0.0000000000000000e+00  0.0000000000000000e+00 0.0000000000000000e+00 0.0000000000000000e+00  0.0000000000000000e+00 0.0000000000000000e+00 0.0000000000000000e+00  0.0000000000000000e+00 0.0000000000000000e+00 0.0000000000000000e+00  0.0000000000000000e+00 0.0000000000000000e+00 0.0000000000000000e+00  0.0000000000000000e+00 0.0000000000000000e+00 0.0000000000000000e+00  0.0000000000000000e+00 0.0000000000000000e+00 0.0000000000000000e+00  0.0000000000000000e+00 0.0000000000000000e+00 0.0000000000000000e+00  0.0000000000000000e+00 0.0000000000000000e+00 0.0000000000000000e+00  0.0000000000000000e+00 0.0000000000000000e+00 0.0000000000000000e+00  0.0000000000000000e+00 0.0000000000000000e+00 0.0000000000000000e+00  0.0000000000000000e+00 0.0000000000000000e+00 0.0000000000000000e+00  0.0000000000000000e+00 0.0000000000000000e+00 0.0000000000000000e+00  0.0000000000000000e+00 0.0000000000000000e+00 0.0000000000000000e+00  0.0000000000000000e+00 0.0000000000000000e+00 0.0000000000000000e+00  0.0000000000000000e+00 0.0000000000000000e+00 0.0000000000000000e+00  0.0000000000000000e+00 0.0000000000000000e+00 0.0000000000000000e+00  0.0000000000000000e+00 0.0000000000000000e+00 0.0000000000000000e+00  0.0000000000000000e+00 0.0000000000000000e+00 0.0000000000000000e+00  0.0000000000000000e+00 0.0000000000000000e+00 0.0000000000000000e+00  0.0000000000000000e+00 0.0000000000000000e+00 0.0000000000000000e+00  0.0000000000000000e+00 0.0000000000000000e+00 0.0000000000000000e+00  0.0000000000000000e+00 0.0000000000000000e+00 0.0000000000000000e+00  0.0000000000000000e+00 0.0000000000000000e+00 0.0000000000000000e+00  0.0000000000000000e+00 0.0000000000000000e+00 0.0000000000000000e+00  0.0000000000000000e+00 0.0000000000000000e+00 0.0000000000000000e+00  0.0000000000000000e+00 0.0000000000000000e+00 0.0000000000000000e+00  0.0000000000000000e+00 0.0000000000000000e+00 0.0000000000000000e+00  0.0000000000000000e+00 0.0000000000000000e+00 0.0000000000000000e+00  0.0000000000000000e+00 0.0000000000000000e+00 0.0000000000000000e+00  0.0000000000000000e+00 0.0000000000000000e+00 0.0000000000000000e+00  0.0000000000000000e+00 0.0000000000000000e+00 0.0000000000000000e+00  0.0000000000000000e+00 0.0000000000000000e+00 0.0000000000000000e+00  -3.2956015187401629e-06 6.6218060168903200e-07 0.0000000000000000e+00  -6.6600771708644089e-06 3.8313149651404381e-06 0.0000000000000000e+00  -9.3790370850262013e-06 8.7017353258503840e-06 0.0000000000000000e+00  -1.1968078867102996e-05 1.5312632824010270e-05 0.0000000000000000e+00  -1.3982687951934449e-05 2.3012489311529743e-05 0.0000000000000000e+00  -1.5935881040911206e-05 3.1862990720592201e-05 0.0000000000000000e+00  -1.7425707507664139e-05 4.1399741823910081e-05 0.0000000000000000e+00  -1.8680533318344847e-05 5.1710404539524618e-05 0.0000000000000000e+00  -1.9846337581162130e-05 6.2482149356286523e-05 0.0000000000000000e+00  -2.0653759320994858e-05 7.3563130223095843e-05 0.0000000000000000e+00  -2.1329494729259670e-05 8.4888529575090449e-05 0.0000000000000000e+00  -2.1784334793615208e-05 9.6218198576675305e-05 0.0000000000000000e+00  -2.2041282613668868e-05 1.0749962891507058e-04 0.0000000000000000e+00  -2.2201081303248784e-05 1.1861879988335813e-04 0.0000000000000000e+00  -2.2221531368850687e-05 1.2943023333857997e-04 0.0000000000000000e+00  -2.2044657006003920e-05 1.3992462066623752e-04 0.0000000000000000e+00  -2.1884931994030453e-05 1.4997105241794655e-04 0.0000000000000000e+00  -2.1478339513674275e-05 1.5954884765502855e-04 0.0000000000000000e+00  -2.1183404388135794e-05 1.6855917868997442e-04 0.0000000000000000e+00  -2.0656778412486443e-05 1.7703765642155443e-04 0.0000000000000000e+00  -2.0242661067799877e-05 1.8487390332212744e-04 0.0000000000000000e+00  -1.9651820118540369e-05 1.9207626862076374e-04 0.0000000000000000e+00  -1.9216548182198240e-05 1.9875149615757712e-04 0.0000000000000000e+00  -1.8765649764257350e-05 2.0471077226785794e-04 0.0000000000000000e+00  -1.8189904262350974e-05 2.1016031613581716e-04 0.0000000000000000e+00  -1.7745237653374333e-05 2.1496118785332131e-04 0.0000000000000000e+00  -1.7277066621119002e-05 2.1919386712457585e-04 0.0000000000000000e+00  -1.6902334553190102e-05 2.2289967703596831e-04 0.0000000000000000e+00  -1.6524816831274748e-05 2.2606796853732588e-04 0.0000000000000000e+00  -1.6248971875347850e-05 2.2878129707113807e-04 0.0000000000000000e+00  -1.5987450436894884e-05 2.3101642292569014e-04 0.0000000000000000e+00  -1.5831069504590642e-05 2.3287152330525522e-04 0.0000000000000000e+00  -1.5704808415404294e-05 2.3431707160604989e-04 0.0000000000000000e+00  -1.5681474888966934e-05 2.3546083141409764e-04 0.0000000000000000e+00  -1.5702641612756861e-05 2.3626644601421927e-04 0.0000000000000000e+00  -1.5826359740905353e-05 2.3685025236961030e-04 0.0000000000000000e+00  -1.6003244304334222e-05 2.3716810900271303e-04 0.0000000000000000e+00  -1.6278084978781979e-05 2.3733703052362921e-04 0.0000000000000000e+00  -1.6613379203768793e-05 2.3730626257155069e-04 0.0000000000000000e+00  -1.7044412087198232e-05 2.3719370581574205e-04 0.0000000000000000e+00  -1.7546047680292383e-05 2.3694522028787189e-04 0.0000000000000000e+00  -1.8130452390154377e-05 2.3665516381021241e-04 0.0000000000000000e+00  -1.8795947265750813e-05 2.3630079624275074e-04 0.0000000000000000e+00  -1.9502723935832827e-05 2.3592504826150103e-04 0.0000000000000000e+00  -2.0304496601065483e-05 2.3555709852941898e-04 0.0000000000000000e+00  -2.1139287666059473e-05 2.3513463141427434e-04 0.0000000000000000e+00  -2.2600221993191723e-05 2.3543337818286199e-04 0.0000000000000000e+00  -2.3229846870256251e-05 2.3728523683938792e-04 0.0000000000000000e+00  -2.2402929940020063e-05 2.3854795857175599e-04 0.0000000000000000e+00  -2.1520486134995825e-05 2.3908172957236770e-04 0.0000000000000000e+00  -2.0659979815023262e-05 2.3963387923041913e-04 0.0000000000000000e+00  -1.9840466140804368e-05 2.4013285473818954e-04 0.0000000000000000e+00  -1.9046899484740834e-05 2.4059881943962397e-04 0.0000000000000000e+00  -1.8285500307816374e-05 2.4099672209102735e-04 0.0000000000000000e+00  -1.7512153518958716e-05 2.4131572191894775e-04 0.0000000000000000e+00  -1.6784506223092932e-05 2.4154168040375706e-04 0.0000000000000000e+00  -1.6013814984119108e-05 2.4161491547842193e-04 0.0000000000000000e+00  -1.5294127984590844e-05 2.4153953379339697e-04 0.0000000000000000e+00  -1.4497172235556531e-05 2.4125374429921360e-04 0.0000000000000000e+00  -1.3761345424082517e-05 2.4074617213668947e-04 0.0000000000000000e+00  -1.2913385351645940e-05 2.3996189679729950e-04 0.0000000000000000e+00  -1.2143271793208234e-05 2.3887738511111579e-04 0.0000000000000000e+00  -1.1229498380671210e-05 2.3744435769620538e-04 0.0000000000000000e+00  -1.0414689216109376e-05 2.3563281596100297e-04 0.0000000000000000e+00  -9.4275244691517575e-06 2.3340140445925791e-04 0.0000000000000000e+00  -8.5609474276435077e-06 2.3071570465094172e-04 0.0000000000000000e+00  -7.4962333308274825e-06 2.2754329306643500e-04 0.0000000000000000e+00  -6.5757209537892472e-06 2.2385018644416628e-04 0.0000000000000000e+00  -5.4354674282529426e-06 2.1960631053694952e-04 0.0000000000000000e+00  -4.4611680530287557e-06 2.1478109626499903e-04 0.0000000000000000e+00  -3.2785559243681646e-06 2.0935119609875416e-04 0.0000000000000000e+00  -2.2361307786401169e-06 2.0336177956188799e-04 0.0000000000000000e+00  -1.1901624687968685e-06 1.9665705857171653e-04 0.0000000000000000e+00  -5.6152018923075766e-10 1.8944448518915856e-04 0.0000000000000000e+00  1.0709411608676569e-06 1.8155238016134706e-04 0.0000000000000000e+00  2.1922165413168828e-06 1.7307028843156923e-04 0.0000000000000000e+00  3.2184659000399437e-06 1.6401126555512906e-04 0.0000000000000000e+00  4.2476127545493679e-06 1.5439806346125351e-04 0.0000000000000000e+00  5.1730148536555839e-06 1.4432056141721654e-04 0.0000000000000000e+00  6.0800588180734097e-06 1.3376172773247092e-04 0.0000000000000000e+00  6.8281206133972983e-06 1.2290763076048733e-04 0.0000000000000000e+00  7.4802341646086980e-06 1.1174325545671602e-04 0.0000000000000000e+00  8.0657827532927942e-06 1.0041327571545584e-04 0.0000000000000000e+00  8.4867784450564330e-06 8.9028984430086400e-05 0.0000000000000000e+00  8.7487636609103833e-06 7.7648140675326476e-05 0.0000000000000000e+00  8.8673520764879166e-06 6.6494227004011594e-05 0.0000000000000000e+00  8.6956952836627418e-06 5.5690233362328407e-05 0.0000000000000000e+00  8.4688577677138346e-06 4.5316750895418386e-05 0.0000000000000000e+00  8.0570442951343000e-06 3.5726770867790414e-05 0.0000000000000000e+00  7.2350064395480806e-06 2.6792744306211015e-05 0.0000000000000000e+00  6.3159088079951776e-06 1.9032625720920929e-05 0.0000000000000000e+00  4.9251516801101718e-06 1.2490512772481461e-05 0.0000000000000000e+00  3.5846267691138293e-06 7.4625962530930984e-06 0.0000000000000000e+00  1.7413496007126907e-06 3.9793406977321345e-06 0.0000000000000000e+00  -1.5453419676273454e-06 2.7209108045633399e-06 0.0000000000000000e+00  -2.1504855631480591e-05 2.3707342005993743e-04 0.0000000000000000e+00  -1.9822252582234622e-05 2.3795386694276045e-04 0.0000000000000000e+00  -1.7630913243093983e-05 2.3917655745191117e-04 0.0000000000000000e+00  -2.5071513592481851e-06 1.2791571859218975e-05 0.0000000000000000e+00  -1.6486649333042746e-05 2.3956723005027941e-04 0.0000000000000000e+00  -3.4692555806288565e-06 2.7863373275697021e-05 0.0000000000000000e+00  -1.5463729705388156e-05 2.3936979066639517e-04 0.0000000000000000e+00  -5.0674116889754813e-06 5.9227385756220784e-05 0.0000000000000000e+00  -6.1896625869882763e-06 8.1169297876547791e-05 0.0000000000000000e+00  -1.4567525645997750e-05 2.3833089582509415e-04 0.0000000000000000e+00  -8.0971552136376568e-06 1.3762660029641377e-04 0.0000000000000000e+00  -1.3061073306162450e-05 2.3254248911860130e-04 0.0000000000000000e+00  -6.8449523516784304e-06 1.0315639280204725e-04 0.0000000000000000e+00  -8.9827006701594435e-06 1.5736161762617420e-04 0.0000000000000000e+00  -1.2406913709290384e-05 2.2719273739690740e-04 0.0000000000000000e+00  -1.3773964166207238e-05 2.3615651706646065e-04 0.0000000000000000e+00  -9.6520868927687423e-06 1.7549711974447965e-04 0.0000000000000000e+00  -1.1793032749686261e-05 2.1982988036533732e-04 0.0000000000000000e+00  -1.0133674460468887e-05 1.9069582223521611e-04 0.0000000000000000e+00  -1.1296642289169966e-05 2.1041194303492877e-04 0.0000000000000000e+00  -1.0715115354373231e-05 2.0082280052538358e-04 0.0000000000000000e+00  -7.6785436144728353e-06 1.1990123032857155e-04 0.0000000000000000e+00  -1.8740942494876604e-05 2.3862682608994705e-04 0.0000000000000000e+00  -4.4129561196306902e-06 4.2196368784904138e-05 0.0000000000000000e+00  -2.0824771193027196e-05 2.3814274151125225e-04 0.0000000000000000e+00  2.2723046083218534e-07 7.7497875987294546e-06 0.0000000000000000e+00  -1.5880893352748934e-05 2.4016807526862504e-04 0.0000000000000000e+00  -1.7092352615341641e-05 2.4003103978258449e-04 0.0000000000000000e+00  -6.5311002689127218e-06 1.9492190791967995e-05 0.0000000000000000e+00  -9.9337156995974765e-06 6.9268335621956132e-05 0.0000000000000000e+00  -1.2662454119763280e-05 2.3518044133551746e-04 0.0000000000000000e+00  -1.4756883775638379e-05 2.3959603925311022e-04 0.0000000000000000e+00  -1.2494779365341489e-05 1.4681277187780168e-04 0.0000000000000000e+00  -1.1646770248985831e-05 2.3073413563754559e-04 0.0000000000000000e+00  -1.0963468408187480e-05 9.2017021021195347e-05 0.0000000000000000e+00  -1.2814867656676829e-05 1.6601280366679747e-04 0.0000000000000000e+00  -1.0628189670561743e-05 2.2440884563372358e-04 0.0000000000000000e+00  -1.3692344829234347e-05 2.3803435578640428e-04 0.0000000000000000e+00  -1.3704625036707036e-05 1.8272803065316293e-04 0.0000000000000000e+00  -9.6033361143651283e-06 2.1594271358022738e-04 0.0000000000000000e+00  -1.3536825307942613e-06 3.4418380436163514e-07 0.0000000000000000e+00  -5.2621663685688408e-07 1.0407546636269281e-06 0.0000000000000000e+00  -2.2121881466785777e-05 2.3629747698987615e-04 0.0000000000000000e+00  -4.3892517260587342e-06 6.2853815577698351e-06 0.0000000000000000e+00  -8.1283067433300542e-06 2.0