<?xml version="1.0"?>
<VTKFile type="UnstructuredGrid"  version="0.1"  >
<UnstructuredGrid>
<Piece  NumberOfPoints="1419" NumberOfCells="2698">
<Points>
<DataArray  type="Float64"  NumberOfComponents="3"  format="ascii">0 0 0  0 0.41 0  2.5 0 0  2.5 0.41 0  0.6 0.19 0  0.6 0.21 0  0.25 0.2 0  0.15 0.2 0  0.2489897948556636 0.21 0  0.2489897948556636 0.19 0  0.6 0.2 0  0 0.3807142857143437 0  0 0.3514285714286952 0  0 0.3221428571430699 0  0 0.29285714285744 0  0 0.2635714285718054 0  0 0.2342857142861561 0  0 0.2050000000005308 0  0 0.175714285714732 0  0 0.1464285714289574 0  0 0.1171428571431897 0  0 0.08785714285737878 0  0 0.05857142857161107 0  0 0.02928571428580012 0  0.03015443760436003 0 0  0.06140001986583606 0 0  0.09377624077125973 0 0  0.1273239957535082 0 0  0.1620856860351972 0 0  0.1981052433264291 0 0  0.235428184091502 0 0  0.2741016576309132 0 0  0.3141745521465447 0 0  0.3556974926295285 0 0  0.3987229542472677 0 0  0.4433053055141081 0 0  0.4895008759286886 0 0  0.5373680609405097 0 0  0.5869673343216626 0 0  0.6383613676634521 0 0  0.6916151138468254 0 0  0.7467958595648856 0 0  0.8039733463919316 0 0  0.8632198139502143 0 0  0.9246101326867038 0 0  0.9882218810934433 0 0  1.054135445558498 0 0  1.122434100542598 0 0  1.193204177141305 0 0  1.266535089879536 0 0  1.342519516046404 0 0  1.421253448503939 0 0  1.502836389106271 0 0  1.587371439758838 0 0  1.674965418777374 0 0  1.765729001825544 0 0  1.859776908880082 0 0  1.957227977487062 0 0  2.058205329869943 0 0  2.162836591189951 0 0  2.271253957290865 0 0  2.383594446803425 0 0  2.5 0.1024999999997612 0  2.5 0.2049999999994743 0  2.5 0.3074999999997183 0  2.383594446803656 0.41 0  2.271253957291315 0.41 0  2.162836591190598 0.41 0  2.058205329870775 0.41 0  1.957227977488067 0.41 0  1.859776908881246 0.41 0  1.765729001826854 0.41 0  1.674965418778818 0.41 0  1.58737143976041 0.41 0  1.502836389107956 0.41 0  1.421253448505726 0.41 0  1.342519516048286 0.41 0  1.266535089881505 0.41 0  1.193204177143353 0.41 0  1.122434100544716 0.41 0  1.05413544556068 0.41 0  0.9882218810956305 0.41 0  0.9246101326886647 0.41 0  0.8632198139519631 0.41 0  0.8039733463934788 0.41 0  0.7467958595662458 0.41 0  0.6916151138480078 0.41 0  0.6383613676644679 0.41 0  0.5869673343225223 0.41 0  0.5373680609412221 0.41 0  0.4895008759292634 0.41 0  0.4433053055145528 0.41 0  0.3987229542475914 0.41 0  0.3556974926297398 0.41 0  0.3141745521466497 0.41 0  0.2741016576310038 0.41 0  0.2354281840915826 0.41 0  0.1981052433265003 0.41 0  0.1620856860352591 0.41 0  0.1273239957535623 0.41 0  0.09377624077128965 0.41 0  0.06140001986584975 0.41 0  0.03015443760436654 0.41 0  0.2497468076502589 0.2050254481002335 0  0.2497468076502614 0.1949745518997913 0  0.2469965252529372 0.1829317073451959 0  0.2439893735792749 0.1762316384219906 0  0.2400332147834255 0.1700443375285386 0  0.2352133972704371 0.1645032867342007 0  0.2296339016332438 0.1597280261969788 0  0.2234150974217223 0.1558215752574715 0  0.2166911463437691 0.1528682099456123 0  0.2096071079204251 0.1509316448471593 0  0.2023158100364996 0.1500536585536553 0  0.194974551899914 0.1502531923497262 0  0.1877417105387872 0.1515259415822739 0  0.1807733240461124 0.153844448527136 0  0.1742197252835808 0.15715869474974 0  0.1682222986673531 0.1613971801805478 0  0.162910430003803 0.1664684656256651 0  0.1583987151779087 0.1722631454351573 0  0.1547844879126891 0.178656207771761 0  0.1521457199348551 0.1855097315605723 0  0.1505393388476355 0.1926758619366523 0  0.1505393388476328 0.2073241380633295 0  0.1521457199348437 0.2144902684393899 0  0.1547844879126531 0.221343792228163 0  0.1583987151778488 0.2277368545647528 0  0.1629104300036858 0.2335315343742052 0  0.1682222986671726 0.2386028198193036 0  0.1742197252833576 0.2428413052501257 0  0.1807733240458683 0.2461555514727623 0  0.1877417105384929 0.2484740584176516 0  0.1949745518995776 0.2497468076502398 0  0.202315810036185 0.2499463414463592 0  0.2096071079201568 0.2490683551528932 0  0.2166911463435495 0.2471317900544655 0  0.2234150974215506 0.2441784247426195 0  0.2296339016331197 0.2402719738031125 0  0.2352133972703547 0.2354967132658811 0  0.2400332147833751 0.2299556624715287 0  0.2439893735792577 0.2237683615780412 0  0.246996525252926 0.2170682926548348 0  0.25645809709277 0.21 0  0.2639263993298655 0.21 0  0.271394701566961 0.21 0  0.2788630038040554 0.21 0  0.2863313060411479 0.21 0  0.2937996082782405 0.21 0  0.301267910515333 0.21 0  0.3087362127524279 0.21 0  0.3162045149895234 0.21 0  0.3236728172265972 0.21 0  0.3311411194636928 0.21 0  0.3386094217007701 0.21 0  0.3460777239378666 0.21 0  0.3535460261749672 0.21 0  0.3610143284120516 0.21 0  0.3684826306491596 0.21 0  0.3759509328862226 0.21 0  0.383419235123329 0.21 0  0.3908875373604028 0.21 0  0.3983558395975142 0.21 0  0.4058241418345938 0.21 0  0.4132924440716992 0.21 0  0.4207607463087888 0.21 0  0.4282290485459029 0.21 0  0.4356973507830418 0.21 0  0.4431656530201649 0.21 0  0.4506339552573136 0.21 0  0.4581022574944306 0.21 0  0.4655705597315852 0.21 0  0.4730388619686996 0.21 0  0.480507164205851 0.21 0  0.4879754664429498 0.21 0  0.4954437686800938 0.21 0  0.502912070917267 0.21 0  0.5103803731544119 0.21 0  0.5178486753915261 0.21 0  0.5253169776286404 0.21 0  0.5327852798657868 0.21 0  0.5402535821029386 0.21 0  0.54772188434007 0.21 0  0.5551901865771842 0.21 0  0.5626584888143201 0.21 0  0.5701267910514778 0.21 0  0.5775950932886138 0.21 0  0.5850633955257281 0.21 0  0.5925316977628483 0.21 0  0.6 0.2050000000000054 0  0.6 0.1950000000000217 0  0.5925316977628897 0.19 0  0.5850633955257988 0.19 0  0.5775950932887378 0.19 0  0.5701267910515998 0.19 0  0.5626584888145268 0.19 0  0.5551901865773963 0.19 0  0.547721884340339 0.19 0  0.5402535821032429 0.19 0  0.5327852798661811 0.19 0  0.5253169776290537 0.19 0  0.5178486753919799 0.19 0  0.5103803731549078 0.19 0  0.502912070917822 0.19 0  0.4954437686807294 0.19 0  0.4879754664436223 0.19 0  0.4805071642065402 0.19 0  0.4730388619694271 0.19 0  0.4655705597323621 0.19 0  0.4581022574952563 0.19 0  0.4506339552581777 0.19 0  0.4431656530210671 0.19 0  0.4356973507839815 0.19 0  0.4282290485468779 0.19 0  0.4207607463097617 0.19 0  0.4132924440726327 0.19 0  0.4058241418354857 0.19 0  0.3983558395983636 0.19 0  0.3908875373612097 0.19 0  0.3834192351240934 0.19 0  0.3759509328869369 0.19 0  0.3684826306498175 0.19 0  0.361014328412667 0.19 0  0.3535460261755617 0.19 0  0.3460777239384295 0.19 0  0.3386094217012945 0.19 0  0.3311411194641595 0.19 0  0.3236728172270245 0.19 0  0.3162045149898895 0.19 0  0.3087362127527544 0.19 0  0.3012679105156187 0.19 0  0.2937996082784807 0.19 0  0.2863313060413428 0.19 0  0.2788630038042048 0.19 0  0.2713947015670686 0.19 0  0.2639263993299336 0.19 0  0.2564580970927985 0.19 0  0.2607803159922026 0.2000727136295815 0  0.5887803774232762 0.2001272386983733 0  0.5745072403740523 0.2002044435018727 0  0.5511891430099709 0.2001122610077113 0  0.2751288526855082 0.20000000000002 0  0.5365194309847112 0.1999999999999436 0  0.2894621222999649 0.1998691686390484 0  0.5215828265105155 0.1999999999999228 0  0.3127789816668748 0.1998657885438805 0  0.3274069683451451 0.2000000000000796 0  0.5066462220363641 0.199999999999908 0  0.3650630746574081 0.199866017807523 0  0.476773013087985 0.1999999999998713 0  0.3417402379596385 0.1998691686391011 0  0.3796850840047755 0.200000000000134 0  0.4618364086138087 0.1999999999998546 0  0.4917096175621762 0.1999999999998808 0  0.3946216884789568 0.2000000000001512 0  0.446899804139621 0.1999999999998389 0  0.4089549580935208 0.1998691686391595 0  0.4322718174608562 0.200127451265745 0  0.4201487168029707 0.1999966199048527 0  0.3528922713220932 0.2000185703532356 0  0.5633122436674589 0.1999814296467508 0  0.3006558810093873 0.1999966199048318 0  0.5815926498168407 0.1966545283159175 0  0.2677053789419034 0.1964246479135325 0  0.5290511287476175 0.1970915826863981 0  0.5439877332217911 0.197091582686394 0  0.2825131256993216 0.2035478995978015 0  0.3199386661080599 0.202908417313604 0  0.4842413153250809 0.1970915826863873 0  0.5141145242734466 0.1970915826863843 0  0.3722167817676917 0.2029084173136195 0  0.4693047108508938 0.1970915826863783 0  0.3348752705822316 0.202908417313609 0  0.3871533862418661 0.2029084173136212 0  0.4543681063767183 0.1970915826863795 0  0.4991779197992749 0.1970915826863902 0  0.4020059614928624 0.203547899597858 0  0.4394315019025246 0.1970915826863714 0  0.2550657455369551 0.2034088125358657 0  0.2548908499171161 0.1966940311614271 0  0.5946539510196798 0.2024302972968126 0  0.267698176732111 0.2039977513680092 0  0.4261685417851465 0.196409292431739 0  0.3590076176283495 0.196411355804271 0  0.5571672426447437 0.2036011176410121 0  0.3066757059912147 0.1964092924317024 0  0.594380730180568 0.1966558399668133 0  0.4842413153245942 0.2040749161535287 0  0.4693047108503577 0.2040749161535231 0  0.3871533862424271 0.1959250838464788 0  0.372246743208829 0.1959123236376545 0  0.5141145242731028 0.2040749161535395 0  0.4543681063761134 0.2040749161535186 0  0.4019979587101454 0.1959834479682427 0  0.4394608940728603 0.2040870543693135 0  0.5439623148931173 0.2040856076781014 0  0.5290511287473298 0.2040749161535501 0  0.4991779197988497 0.2040749161535382 0  0.3347912413592433 0.1959225448935183 0  0.3199680582793816 0.1959123018030061 0  0.2825051229162361 0.1959834479681729 0  0.3590471196690275 0.2036304442587945 0  0.5571594006495384 0.1963685282145804 0  0.3067669986803285 0.203627750582736 0  0.4262598344738712 0.2036568242185335 0  0.5814408164431408 0.2041285596160068 0  0.5688286748170428 0.1961819304477386 0  0.4145905603063645 0.2038180695522843 0  0.3473758401724931 0.2038180695522752 0  0.2950977245128307 0.2038180695522663 0  0.5688286748170693 0.203818069552238 0  0.2950977245127906 0.1961819304477774 0  0.3473758401723931 0.1961819304478349 0  0.4145905603061963 0.1961819304479011 0  0.2601812407614425 0.2056861609747042
[...]
<PointData  Vectors="f_40-1"> 
<DataArray  type="Float64"  Name="f_40-1"  NumberOfComponents="3" format="ascii">0.0000000000000000e+00 0.0000000000000000e+00 0.0000000000000000e+00  0.0000000000000000e+00 0.0000000000000000e+00 0.0000000000000000e+00  0.0000000000000000e+00 0.0000000000000000e+00 0.0000000000000000e+00  0.0000000000000000e+00 0.0000000000000000e+00 0.0000000000000000e+00  -4.2181114278141130e-05 -5.2750450976978708e-04 0.0000000000000000e+00  1.4920217285631341e-05 -5.3175904855577618e-04 0.0000000000000000e+00  0.0000000000000000e+00 0.0000000000000000e+00 0.0000000000000000e+00  0.0000000000000000e+00 0.0000000000000000e+00 0.0000000000000000e+00  0.0000000000000000e+00 0.0000000000000000e+00 0.0000000000000000e+00  0.0000000000000000e+00 0.0000000000000000e+00 0.0000000000000000e+00  -1.4110198873631971e-05 -5.2961847077293825e-04 0.0000000000000000e+00  0.0000000000000000e+00 0.0000000000000000e+00 0.0000000000000000e+00  0.0000000000000000e+00 0.0000000000000000e+00 0.0000000000000000e+00  0.0000000000000000e+00 0.0000000000000000e+00 0.0000000000000000e+00  0.0000000000000000e+00 0.0000000000000000e+00 0.0000000000000000e+00  0.0000000000000000e+00 0.0000000000000000e+00 0.0000000000000000e+00  0.0000000000000000e+00 0.0000000000000000e+00 0.0000000000000000e+00  0.0000000000000000e+00 0.0000000000000000e+00 0.0000000000000000e+00  0.0000000000000000e+00 0.0000000000000000e+00 0.0000000000000000e+00  0.0000000000000000e+00 0.0000000000000000e+00 0.0000000000000000e+00  0.0000000000000000e+00 0.0000000000000000e+00 0.0000000000000000e+00  0.0000000000000000e+00 0.0000000000000000e+00 0.0000000000000000e+00  0.0000000000000000e+00 0.0000000000000000e+00 0.0000000000000000e+00  0.0000000000000000e+00 0.0000000000000000e+00 0.0000000000000000e+00  0.0000000000000000e+00 0.0000000000000000e+00 0.0000000000000000e+00  0.0000000000000000e+00 0.0000000000000000e+00 0.0000000000000000e+00  0.0000000000000000e+00 0.0000000000000000e+00 0.0000000000000000e+00  0.0000000000000000e+00 0.0000000000000000e+00 0.0000000000000000e+00  0.0000000000000000e+00 0.0000000000000000e+00 0.0000000000000000e+00  0.0000000000000000e+00 0.0000000000000000e+00 0.0000000000000000e+00  0.0000000000000000e+00 0.0000000000000000e+00 0.0000000000000000e+00  0.0000000000000000e+00 0.0000000000000000e+00 0.0000000000000000e+00  0.0000000000000000e+00 0.0000000000000000e+00 0.0000000000000000e+00  0.0000000000000000e+00 0.0000000000000000e+00 0.0000000000000000e+00  0.0000000000000000e+00 0.0000000000000000e+00 0.0000000000000000e+00  0.0000000000000000e+00 0.0000000000000000e+00 0.0000000000000000e+00  0.0000000000000000e+00 0.0000000000000000e+00 0.0000000000000000e+00  0.0000000000000000e+00 0.0000000000000000e+00 0.0000000000000000e+00  0.0000000000000000e+00 0.0000000000000000e+00 0.0000000000000000e+00  0.0000000000000000e+00 0.0000000000000000e+00 0.0000000000000000e+00  0.0000000000000000e+00 0.0000000000000000e+00 0.0000000000000000e+00  0.0000000000000000e+00 0.0000000000000000e+00 0.0000000000000000e+00  0.0000000000000000e+00 0.0000000000000000e+00 0.0000000000000000e+00  0.0000000000000000e+00 0.0000000000000000e+00 0.0000000000000000e+00  0.0000000000000000e+00 0.0000000000000000e+00 0.0000000000000000e+00  0.0000000000000000e+00 0.0000000000000000e+00 0.0000000000000000e+00  0.0000000000000000e+00 0.0000000000000000e+00 0.0000000000000000e+00  0.0000000000000000e+00 0.0000000000000000e+00 0.0000000000000000e+00  0.0000000000000000e+00 0.0000000000000000e+00 0.0000000000000000e+00  0.0000000000000000e+00 0.0000000000000000e+00 0.0000000000000000e+00  0.0000000000000000e+00 0.0000000000000000e+00 0.0000000000000000e+00  0.0000000000000000e+00 0.0000000000000000e+00 0.0000000000000000e+00  0.0000000000000000e+00 0.0000000000000000e+00 0.0000000000000000e+00  0.0000000000000000e+00 0.0000000000000000e+00 0.0000000000000000e+00  0.0000000000000000e+00 0.0000000000000000e+00 0.0000000000000000e+00  0.0000000000000000e+00 0.0000000000000000e+00 0.0000000000000000e+00  0.0000000000000000e+00 0.0000000000000000e+00 0.0000000000000000e+00  0.0000000000000000e+00 0.0000000000000000e+00 0.0000000000000000e+00  0.0000000000000000e+00 0.0000000000000000e+00 0.0000000000000000e+00  0.0000000000000000e+00 0.0000000000000000e+00 0.0000000000000000e+00  0.0000000000000000e+00 0.0000000000000000e+00 0.0000000000000000e+00  0.0000000000000000e+00 0.0000000000000000e+00 0.0000000000000000e+00  0.0000000000000000e+00 0.0000000000000000e+00 0.0000000000000000e+00  0.0000000000000000e+00 0.0000000000000000e+00 0.0000000000000000e+00  0.0000000000000000e+00 0.0000000000000000e+00 0.0000000000000000e+00  0.0000000000000000e+00 0.0000000000000000e+00 0.0000000000000000e+00  0.0000000000000000e+00 0.0000000000000000e+00 0.0000000000000000e+00  0.0000000000000000e+00 0.0000000000000000e+00 0.0000000000000000e+00  0.0000000000000000e+00 0.0000000000000000e+00 0.0000000000000000e+00  0.0000000000000000e+00 0.0000000000000000e+00 0.0000000000000000e+00  0.0000000000000000e+00 0.0000000000000000e+00 0.0000000000000000e+00  0.0000000000000000e+00 0.0000000000000000e+00 0.0000000000000000e+00  0.0000000000000000e+00 0.0000000000000000e+00 0.0000000000000000e+00  0.0000000000000000e+00 0.0000000000000000e+00 0.0000000000000000e+00  0.0000000000000000e+00 0.0000000000000000e+00 0.0000000000000000e+00  0.0000000000000000e+00 0.0000000000000000e+00 0.0000000000000000e+00  0.0000000000000000e+00 0.0000000000000000e+00 0.0000000000000000e+00  0.0000000000000000e+00 0.0000000000000000e+00 0.0000000000000000e+00  0.0000000000000000e+00 0.0000000000000000e+00 0.0000000000000000e+00  0.0000000000000000e+00 0.0000000000000000e+00 0.0000000000000000e+00  0.0000000000000000e+00 0.0000000000000000e+00 0.0000000000000000e+00  0.0000000000000000e+00 0.0000000000000000e+00 0.0000000000000000e+00  0.0000000000000000e+00 0.0000000000000000e+00 0.0000000000000000e+00  0.0000000000000000e+00 0.0000000000000000e+00 0.0000000000000000e+00  0.0000000000000000e+00 0.0000000000000000e+00 0.0000000000000000e+00  0.0000000000000000e+00 0.0000000000000000e+00 0.0000000000000000e+00  0.0000000000000000e+00 0.0000000000000000e+00 0.0000000000000000e+00  0.0000000000000000e+00 0.0000000000000000e+00 0.0000000000000000e+00  0.0000000000000000e+00 0.0000000000000000e+00 0.0000000000000000e+00  0.0000000000000000e+00 0.0000000000000000e+00 0.0000000000000000e+00  0.0000000000000000e+00 0.0000000000000000e+00 0.0000000000000000e+00  0.0000000000000000e+00 0.0000000000000000e+00 0.0000000000000000e+00  0.0000000000000000e+00 0.0000000000000000e+00 0.0000000000000000e+00  0.0000000000000000e+00 0.0000000000000000e+00 0.0000000000000000e+00  0.0000000000000000e+00 0.0000000000000000e+00 0.0000000000000000e+00  0.0000000000000000e+00 0.0000000000000000e+00 0.0000000000000000e+00  0.0000000000000000e+00 0.0000000000000000e+00 0.0000000000000000e+00  0.0000000000000000e+00 0.0000000000000000e+00 0.0000000000000000e+00  0.0000000000000000e+00 0.0000000000000000e+00 0.0000000000000000e+00  0.0000000000000000e+00 0.0000000000000000e+00 0.0000000000000000e+00  0.0000000000000000e+00 0.0000000000000000e+00 0.0000000000000000e+00  0.0000000000000000e+00 0.0000000000000000e+00 0.0000000000000000e+00  0.0000000000000000e+00 0.0000000000000000e+00 0.0000000000000000e+00  0.0000000000000000e+00 0.0000000000000000e+00 0.0000000000000000e+00  0.0000000000000000e+00 0.0000000000000000e+00 0.0000000000000000e+00  0.0000000000000000e+00 0.0000000000000000e+00 0.0000000000000000e+00  0.0000000000000000e+00 0.0000000000000000e+00 0.0000000000000000e+00  0.0000000000000000e+00 0.0000000000000000e+00 0.0000000000000000e+00  0.0000000000000000e+00 0.0000000000000000e+00 0.0000000000000000e+00  0.0000000000000000e+00 0.0000000000000000e+00 0.0000000000000000e+00  0.0000000000000000e+00 0.0000000000000000e+00 0.0000000000000000e+00  0.0000000000000000e+00 0.0000000000000000e+00 0.0000000000000000e+00  0.0000000000000000e+00 0.0000000000000000e+00 0.0000000000000000e+00  0.0000000000000000e+00 0.0000000000000000e+00 0.0000000000000000e+00  0.0000000000000000e+00 0.0000000000000000e+00 0.0000000000000000e+00  0.0000000000000000e+00 0.0000000000000000e+00 0.0000000000000000e+00  0.0000000000000000e+00 0.0000000000000000e+00 0.0000000000000000e+00  0.0000000000000000e+00 0.0000000000000000e+00 0.0000000000000000e+00  0.0000000000000000e+00 0.0000000000000000e+00 0.0000000000000000e+00  0.0000000000000000e+00 0.0000000000000000e+00 0.0000000000000000e+00  0.0000000000000000e+00 0.0000000000000000e+00 0.0000000000000000e+00  0.0000000000000000e+00 0.0000000000000000e+00 0.0000000000000000e+00  0.0000000000000000e+00 0.0000000000000000e+00 0.0000000000000000e+00  0.0000000000000000e+00 0.0000000000000000e+00 0.0000000000000000e+00  0.0000000000000000e+00 0.0000000000000000e+00 0.0000000000000000e+00  0.0000000000000000e+00 0.0000000000000000e+00 0.0000000000000000e+00  0.0000000000000000e+00 0.0000000000000000e+00 0.0000000000000000e+00  0.0000000000000000e+00 0.0000000000000000e+00 0.0000000000000000e+00  0.0000000000000000e+00 0.0000000000000000e+00 0.0000000000000000e+00  0.0000000000000000e+00 0.0000000000000000e+00 0.0000000000000000e+00  0.0000000000000000e+00 0.0000000000000000e+00 0.0000000000000000e+00  0.0000000000000000e+00 0.0000000000000000e+00 0.0000000000000000e+00  0.0000000000000000e+00 0.0000000000000000e+00 0.0000000000000000e+00  0.0000000000000000e+00 0.0000000000000000e+00 0.0000000000000000e+00  0.0000000000000000e+00 0.0000000000000000e+00 0.0000000000000000e+00  0.0000000000000000e+00 0.0000000000000000e+00 0.0000000000000000e+00  0.0000000000000000e+00 0.0000000000000000e+00 0.0000000000000000e+00  0.0000000000000000e+00 0.0000000000000000e+00 0.0000000000000000e+00  0.0000000000000000e+00 0.0000000000000000e+00 0.0000000000000000e+00  0.0000000000000000e+00 0.0000000000000000e+00 0.0000000000000000e+00  0.0000000000000000e+00 0.0000000000000000e+00 0.0000000000000000e+00  0.0000000000000000e+00 0.0000000000000000e+00 0.0000000000000000e+00  0.0000000000000000e+00 0.0000000000000000e+00 0.0000000000000000e+00  -1.2573624026761618e-06 -1.4799731711409243e-06 0.0000000000000000e+00  -2.3293636140426575e-06 -5.5549813602666495e-07 0.0000000000000000e+00  -2.9890710767858463e-06 7.3106690047220263e-07 0.0000000000000000e+00  -3.3761484484835755e-06 2.3320207890239856e-06 0.0000000000000000e+00  -3.5258791249723219e-06 3.8358007848624753e-06 0.0000000000000000e+00  -3.4214622843456976e-06 5.1956890313199207e-06 0.0000000000000000e+00  -3.2278356586974704e-06 6.3008615552016104e-06 0.0000000000000000e+00  -2.8642493193972058e-06 6.9549994420658083e-06 0.0000000000000000e+00  -2.2300039693377609e-06 7.1556013269055245e-06 0.0000000000000000e+00  -1.6313790527679207e-06 6.7297312048333392e-06 0.0000000000000000e+00  -6.7025027496102812e-07 5.6372290370752760e-06 0.0000000000000000e+00  1.3972784717973051e-07 3.7353336272757081e-06 0.0000000000000000e+00  1.3054793685475638e-06 1.0064651803747588e-06 0.0000000000000000e+00  2.3006392272348231e-06 -2.4984150629936644e-06 0.0000000000000000e+00  3.3784735701441358e-06 -7.0556667456055125e-06 0.0000000000000000e+00  4.7421898929836757e-06 -1.2477418493683388e-05 0.0000000000000000e+00  5.8326145888655557e-06 -1.8891695424894746e-05 0.0000000000000000e+00  7.2780865007932290e-06 -2.6300724132771896e-05 0.0000000000000000e+00  8.3796958736483946e-06 -3.4718988954243051e-05 0.0000000000000000e+00  9.7886936574329424e-06 -4.4086322612209399e-05 0.0000000000000000e+00  1.0921559244607193e-05 -5.4470216743140314e-05 0.0000000000000000e+00  1.2253055218984805e-05 -6.5846702951568082e-05 0.0000000000000000e+00  1.3300332610232172e-05 -7.7999518169473363e-05 0.0000000000000000e+00  1.4317601023780498e-05 -9.1181971411382587e-05 0.0000000000000000e+00  1.5473736439286285e-05 -1.0508091451414072e-04 0.0000000000000000e+00  1.6402779081988565e-05 -1.1985501175162974e-04 0.0000000000000000e+00  1.7330034193734292e-05 -1.3539834794242661e-04 0.0000000000000000e+00  1.8104395631506080e-05 -1.5161433151022620e-04 0.0000000000000000e+00  1.8854682375081874e-05 -1.6853163477103099e-04 0.0000000000000000e+00  1.9452110004515746e-05 -1.8601155950676460e-04 0.0000000000000000e+00  2.0008472288722222e-05 -2.0409566112639314e-04 0.0000000000000000e+00  2.0414825231030057e-05 -2.2263512351708737e-04 0.0000000000000000e+00  2.0765657458578111e-05 -2.4167901956216709e-04 0.0000000000000000e+00  2.0973902917448285e-05 -2.6107318028387091e-04 0.0000000000000000e+00  2.1111621497153734e-05 -2.8087716756321261e-04 0.0000000000000000e+00  2.1113702436246735e-05 -3.0093229985398378e-04 0.0000000000000000e+00  2.1038868932052902e-05 -3.2130413548746084e-04 0.0000000000000000e+00  2.0837376908166319e-05 -3.4184010768196474e-04 0.0000000000000000e+00  2.0552425586330943e-05 -3.6261219264836791e-04 0.0000000000000000e+00  2.0146352426467732e-05 -3.8347203018738150e-04 0.0000000000000000e+00  1.9647131848482029e-05 -4.0449128839450407e-04 0.0000000000000000e+00  1.9046040629042662e-05 -4.2555644669881184e-04 0.0000000000000000e+00  1.8340576255427200e-05 -4.4669900373969096e-04 0.0000000000000000e+00  1.7583319574923918e-05 -4.6786901707392543e-04 0.0000000000000000e+00  1.6708256169646724e-05 -4.8903300894636247e-04 0.0000000000000000e+00  1.5786584843181060e-05 -5.1026703714099797e-04 0.0000000000000000e+00  2.3315308877691641e-07 -5.3068631073753308e-04 0.0000000000000000e+00  -2.8293706779315119e-05 -5.2856157183410989e-04 0.0000000000000000e+00  -4.1272216135789524e-05 -5.0634187099576466e-04 0.0000000000000000e+00  -4.0284091408408582e-05 -4.8495795959263723e-04 0.0000000000000000e+00  -3.9330451816478292e-05 -4.6355442773129599e-04 0.0000000000000000e+00  -3.8432931344952400e-05 -4.4221693860260926e-04 0.0000000000000000e+00  -3.7573553371529888e-05 -4.2091897673162049e-04 0.0000000000000000e+00  -3.6765165917717002e-05 -3.9970072527085868e-04 0.0000000000000000e+00  -3.5950696992378445e-05 -3.7857392663595953e-04 0.0000000000000000e+00  -3.5202354327313590e-05 -3.5755050517621704e-04 0.0000000000000000e+00  -3.4414156187198374e-05 -3.3670634644801598e-04 0.0000000000000000e+00  -3.3696153395521956e-05 -3.1602661381145708e-04 0.0000000000000000e+00  -3.2897268141530030e-05 -2.9559468970599841e-04 0.0000000000000000e+00  -3.2180404594919498e-05 -2.7541483270414834e-04 0.0000000000000000e+00  -3.1338958331730490e-05 -2.5556490821732205e-04 0.0000000000000000e+00  -3.0597742548476373e-05 -2.3606559913506262e-04 0.0000000000000000e+00  -2.9688439282799925e-05 -2.1698713561194691e-04 0.0000000000000000e+00  -2.8904701458501920e-05 -1.9836280734925120e-04 0.0000000000000000e+00  -2.7910332443129251e-05 -1.8025589182617122e-04 0.0000000000000000e+00  -2.7068567861185668e-05 -1.6271044629170180e-04 0.0000000000000000e+00  -2.5973341149076345e-05 -1.4578150909571835e-04 0.0000000000000000e+00  -2.5061329649537938e-05 -1.2951883234001586e-04 0.0000000000000000e+00  -2.3852284021349494e-05 -1.1397536658380409e-04 0.0000000000000000e+00  -2.2857068284802554e-05 -9.9205609140165537e-05 0.0000000000000000e+00  -2.1558829771795686e-05 -8.5259366636951638e-05 0.0000000000000000e+00  -2.0438632108664619e-05 -7.2093239201555118e-05 0.0000000000000000e+00  -1.9293321488730595e-05 -5.9958633940963184e-05 0.0000000000000000e+00  -1.7901052830649950e-05 -4.8572488742318015e-05 0.0000000000000000e+00  -1.6644675854717042e-05 -3.8244614215912440e-05 0.0000000000000000e+00  -1.5251016281254926e-05 -2.8856488311053241e-05 0.0000000000000000e+00  -1.3951687414292636e-05 -2.0484511048414665e-05 0.0000000000000000e+00  -1.2553667353924593e-05 -1.3103773160064937e-05 0.0000000000000000e+00  -1.1256023201360411e-05 -6.6904341191839782e-06 0.0000000000000000e+00  -9.8038527697289747e-06 -1.3650948830355729e-06 0.0000000000000000e+00  -8.5992118327609713e-06 3.1629889521600742e-06 0.0000000000000000e+00  -7.4398686033267068e-06 6.6164428171037104e-06 0.0000000000000000e+00  -6.1244785603729475e-06 9.3492048518798573e-06 0.0000000000000000e+00  -5.0115354962975172e-06 1.1171198901997632e-05 0.0000000000000000e+00  -3.9012605304452115e-06 1.2218721837200966e-05 0.0000000000000000e+00  -2.9502898169850687e-06 1.2614059498270993e-05 0.0000000000000000e+00  -2.0208801060363369e-06 1.2329043375612857e-05 0.0000000000000000e+00  -1.3102857032204506e-06 1.1633869991325405e-05 0.0000000000000000e+00  -7.2527125432256442e-07 1.0478816108184614e-05 0.0000000000000000e+00  -2.0510858440801565e-07 9.0766982966726649e-06 0.0000000000000000e+00  9.9391594597438123e-08 7.5463112015335913e-06 0.0000000000000000e+00  2.4743641813114487e-07 5.9617143043456871e-06 0.0000000000000000e+00  2.8898550210851608e-07 4.5160121418708849e-06 0.0000000000000000e+00  1.8113975764682537e-07 3.1966579540352912e-06 0.0000000000000000e+00  -1.2571957020332097e-06 1.1564296232782555e-06 0.0000000000000000e+00  -1.2097036210703648e-05 -4.9760724096419712e-04 0.0000000000000000e+00  -1.0024922473639248e-05 -4.5692909510207331e-04 0.0000000000000000e+00  -7.9602106666780160e-06 -3.9074475570468394e-04 0.0000000000000000e+00  -1.5088832127172698e-06 4.0713960184426487e-06 0.0000000000000000e+00  -7.1330833554347187e-06 -3.4954144658682658e-04 0.0000000000000000e+00  -1.9286051414310504e-06 7.2197482605453611e-06 0.0000000000000000e+00  -6.1810722378069513e-06 -3.0826925722442873e-04 0.0000000000000000e+00  -2.5326378498874844e-06 1.0235499277255779e-05 0.0000000000000000e+00  -2.8066916739880486e-06 9.4820428098268505e-06 0.0000000000000000e+00  -5.4238379973936782e-06 -2.6796911937204638e-04 0.0000000000000000e+00  -3.3602687962350264e-06 -6.3345223455954313e-06 0.0000000000000000e+00  -4.3918939896739049e-06 -1.9176538600246487e-04 0.0000000000000000e+00  -3.0665962525248593e-06 6.1022697968183034e-06 0.0000000000000000e+00  -3.3585130550030321e-06 -1.8941292542485337e-05 0.0000000000000000e+00  -4.0676396123377391e-06 -1.5666467667529535e-04 0.0000000000000000e+00  -4.8355634985551101e-06 -2.2900327707930132e-04 0.0000000000000000e+00  -3.4411524117675288e-06 -3.5721206131512913e-05 0.0000000000000000e+00  -3.8419587331402915e-06 -1.2411904050851989e-04 0.0000000000000000e+00  -3.7158142649490544e-06 -5.5504029553858163e-05 0.0000000000000000e+00  -3.4450050794228557e-06 -9.5146390658029648e-05 0.0000000000000000e+00  -3.5972161901007407e-06 -7.3588793066447231e-05 0.0000000000000000e+00  -3.1389160664887403e-06 1.0953462314019226e-06 0.0000000000000000e+00  -9.4875365227332039e-06 -4.2505283497257804e-04 0.0000000000000000e+00  -2.2491252047041861e-06 9.0589790712903282e-06 0.0000000000000000e+00  -2.1003434550202884e-05 -4.7639497412902510e-04 0.0000000000000000e+00  -8.1558725750634456e-07 3.4732511282818058e-06 0.0000000000000000e+00  -1.4621583659140154e-05 -3.2806777990159846e-04 0.0000000000000000e+00  -1.5814555141611874e-05 -3.6973074988670858e-04 0.0000000000000000e+00  -2.3239904263336119e-06 4.7897945238011263e-06 0.0000000000000000e+00  -2.4341631568406096e-06 9.3132729435105297e-06 0.0000000000000000e+00  -1.1788518131903271e-05 -2.0936011345434736e-04 0.0000000000000000e+00  -1.3574212693529319e-05 -2.8721833444667137e-04 0.0000000000000000e+00  -7.9311894482210369e-07 -1.2970744977282220e-05 0.0000000000000000e+00  -1.0990900593041953e-05 -1.7313369046902772e-04 0.0000000000000000e+00  -2.1618836059812391e-06 7.1939101581931723e-06 0.0000000000000000e+00  -1.4422180537126988e-07 -2.7768877814366937e-05 0.0000000000000000e+00  -1.0222532539633969e-05 -1.3925610164887506e-04 0.0000000000000000e+00  -1.2640425222684511e-05 -2.4752190205751978e-04 0.0000000000000000e+00  1.3924292975586772e-06 -4.6630159375766550e-05 0.0000000000000000e+00  -9.4733905289040969e-06 -1.0814284885439439e-04 0.0000000000000000e+00  -9.8769615202796405e-07 -1.5966614692229825e-07 0.0000000000000000e+00  -7.5974410676461242e-07 8.8318443480397036e-07 0.0000000000000000e+00  -6.3797744107085164e-06 -5.1482929736885845e-04 0.0000000000000000e+00  -1.8690642471183