<?xml version="1.0"?>
<VTKFile type="UnstructuredGrid"  version="0.1"  >
<UnstructuredGrid>
<Piece  NumberOfPoints="1419" NumberOfCells="2698">
<Points>
<DataArray  type="Float64"  NumberOfComponents="3"  format="ascii">0 0 0  0 0.41 0  2.5 0 0  2.5 0.41 0  0.6 0.19 0  0.6 0.21 0  0.25 0.2 0  0.15 0.2 0  0.2489897948556636 0.21 0  0.2489897948556636 0.19 0  0.6 0.2 0  0 0.3807142857143437 0  0 0.3514285714286952 0  0 0.3221428571430699 0  0 0.29285714285744 0  0 0.2635714285718054 0  0 0.2342857142861561 0  0 0.2050000000005308 0  0 0.175714285714732 0  0 0.1464285714289574 0  0 0.1171428571431897 0  0 0.08785714285737878 0  0 0.05857142857161107 0  0 0.02928571428580012 0  0.03015443760436003 0 0  0.06140001986583606 0 0  0.09377624077125973 0 0  0.1273239957535082 0 0  0.1620856860351972 0 0  0.1981052433264291 0 0  0.235428184091502 0 0  0.2741016576309132 0 0  0.3141745521465447 0 0  0.3556974926295285 0 0  0.3987229542472677 0 0  0.4433053055141081 0 0  0.4895008759286886 0 0  0.5373680609405097 0 0  0.5869673343216626 0 0  0.6383613676634521 0 0  0.6916151138468254 0 0  0.7467958595648856 0 0  0.8039733463919316 0 0  0.8632198139502143 0 0  0.9246101326867038 0 0  0.9882218810934433 0 0  1.054135445558498 0 0  1.122434100542598 0 0  1.193204177141305 0 0  1.266535089879536 0 0  1.342519516046404 0 0  1.421253448503939 0 0  1.502836389106271 0 0  1.587371439758838 0 0  1.674965418777374 0 0  1.765729001825544 0 0  1.859776908880082 0 0  1.957227977487062 0 0  2.058205329869943 0 0  2.162836591189951 0 0  2.271253957290865 0 0  2.383594446803425 0 0  2.5 0.1024999999997612 0  2.5 0.2049999999994743 0  2.5 0.3074999999997183 0  2.383594446803656 0.41 0  2.271253957291315 0.41 0  2.162836591190598 0.41 0  2.058205329870775 0.41 0  1.957227977488067 0.41 0  1.859776908881246 0.41 0  1.765729001826854 0.41 0  1.674965418778818 0.41 0  1.58737143976041 0.41 0  1.502836389107956 0.41 0  1.421253448505726 0.41 0  1.342519516048286 0.41 0  1.266535089881505 0.41 0  1.193204177143353 0.41 0  1.122434100544716 0.41 0  1.05413544556068 0.41 0  0.9882218810956305 0.41 0  0.9246101326886647 0.41 0  0.8632198139519631 0.41 0  0.8039733463934788 0.41 0  0.7467958595662458 0.41 0  0.6916151138480078 0.41 0  0.6383613676644679 0.41 0  0.5869673343225223 0.41 0  0.5373680609412221 0.41 0  0.4895008759292634 0.41 0  0.4433053055145528 0.41 0  0.3987229542475914 0.41 0  0.3556974926297398 0.41 0  0.3141745521466497 0.41 0  0.2741016576310038 0.41 0  0.2354281840915826 0.41 0  0.1981052433265003 0.41 0  0.1620856860352591 0.41 0  0.1273239957535623 0.41 0  0.09377624077128965 0.41 0  0.06140001986584975 0.41 0  0.03015443760436654 0.41 0  0.2497468076502589 0.2050254481002335 0  0.2497468076502614 0.1949745518997913 0  0.2469965252529372 0.1829317073451959 0  0.2439893735792749 0.1762316384219906 0  0.2400332147834255 0.1700443375285386 0  0.2352133972704371 0.1645032867342007 0  0.2296339016332438 0.1597280261969788 0  0.2234150974217223 0.1558215752574715 0  0.2166911463437691 0.1528682099456123 0  0.2096071079204251 0.1509316448471593 0  0.2023158100364996 0.1500536585536553 0  0.194974551899914 0.1502531923497262 0  0.1877417105387872 0.1515259415822739 0  0.1807733240461124 0.153844448527136 0  0.1742197252835808 0.15715869474974 0  0.1682222986673531 0.1613971801805478 0  0.162910430003803 0.1664684656256651 0  0.1583987151779087 0.1722631454351573 0  0.1547844879126891 0.178656207771761 0  0.1521457199348551 0.1855097315605723 0  0.1505393388476355 0.1926758619366523 0  0.1505393388476328 0.2073241380633295 0  0.1521457199348437 0.2144902684393899 0  0.1547844879126531 0.221343792228163 0  0.1583987151778488 0.2277368545647528 0  0.1629104300036858 0.2335315343742052 0  0.1682222986671726 0.2386028198193036 0  0.1742197252833576 0.2428413052501257 0  0.1807733240458683 0.2461555514727623 0  0.1877417105384929 0.2484740584176516 0  0.1949745518995776 0.2497468076502398 0  0.202315810036185 0.2499463414463592 0  0.2096071079201568 0.2490683551528932 0  0.2166911463435495 0.2471317900544655 0  0.2234150974215506 0.2441784247426195 0  0.2296339016331197 0.2402719738031125 0  0.2352133972703547 0.2354967132658811 0  0.2400332147833751 0.2299556624715287 0  0.2439893735792577 0.2237683615780412 0  0.246996525252926 0.2170682926548348 0  0.25645809709277 0.21 0  0.2639263993298655 0.21 0  0.271394701566961 0.21 0  0.2788630038040554 0.21 0  0.2863313060411479 0.21 0  0.2937996082782405 0.21 0  0.301267910515333 0.21 0  0.3087362127524279 0.21 0  0.3162045149895234 0.21 0  0.3236728172265972 0.21 0  0.3311411194636928 0.21 0  0.3386094217007701 0.21 0  0.3460777239378666 0.21 0  0.3535460261749672 0.21 0  0.3610143284120516 0.21 0  0.3684826306491596 0.21 0  0.3759509328862226 0.21 0  0.383419235123329 0.21 0  0.3908875373604028 0.21 0  0.3983558395975142 0.21 0  0.4058241418345938 0.21 0  0.4132924440716992 0.21 0  0.4207607463087888 0.21 0  0.4282290485459029 0.21 0  0.4356973507830418 0.21 0  0.4431656530201649 0.21 0  0.4506339552573136 0.21 0  0.4581022574944306 0.21 0  0.4655705597315852 0.21 0  0.4730388619686996 0.21 0  0.480507164205851 0.21 0  0.4879754664429498 0.21 0  0.4954437686800938 0.21 0  0.502912070917267 0.21 0  0.5103803731544119 0.21 0  0.5178486753915261 0.21 0  0.5253169776286404 0.21 0  0.5327852798657868 0.21 0  0.5402535821029386 0.21 0  0.54772188434007 0.21 0  0.5551901865771842 0.21 0  0.5626584888143201 0.21 0  0.5701267910514778 0.21 0  0.5775950932886138 0.21 0  0.5850633955257281 0.21 0  0.5925316977628483 0.21 0  0.6 0.2050000000000054 0  0.6 0.1950000000000217 0  0.5925316977628897 0.19 0  0.5850633955257988 0.19 0  0.5775950932887378 0.19 0  0.5701267910515998 0.19 0  0.5626584888145268 0.19 0  0.5551901865773963 0.19 0  0.547721884340339 0.19 0  0.5402535821032429 0.19 0  0.5327852798661811 0.19 0  0.5253169776290537 0.19 0  0.5178486753919799 0.19 0  0.5103803731549078 0.19 0  0.502912070917822 0.19 0  0.4954437686807294 0.19 0  0.4879754664436223 0.19 0  0.4805071642065402 0.19 0  0.4730388619694271 0.19 0  0.4655705597323621 0.19 0  0.4581022574952563 0.19 0  0.4506339552581777 0.19 0  0.4431656530210671 0.19 0  0.4356973507839815 0.19 0  0.4282290485468779 0.19 0  0.4207607463097617 0.19 0  0.4132924440726327 0.19 0  0.4058241418354857 0.19 0  0.3983558395983636 0.19 0  0.3908875373612097 0.19 0  0.3834192351240934 0.19 0  0.3759509328869369 0.19 0  0.3684826306498175 0.19 0  0.361014328412667 0.19 0  0.3535460261755617 0.19 0  0.3460777239384295 0.19 0  0.3386094217012945 0.19 0  0.3311411194641595 0.19 0  0.3236728172270245 0.19 0  0.3162045149898895 0.19 0  0.3087362127527544 0.19 0  0.3012679105156187 0.19 0  0.2937996082784807 0.19 0  0.2863313060413428 0.19 0  0.2788630038042048 0.19 0  0.2713947015670686 0.19 0  0.2639263993299336 0.19 0  0.2564580970927985 0.19 0  0.2607803159922026 0.2000727136295815 0  0.5887803774232762 0.2001272386983733 0  0.5745072403740523 0.2002044435018727 0  0.5511891430099709 0.2001122610077113 0  0.2751288526855082 0.20000000000002 0  0.5365194309847112 0.1999999999999436 0  0.2894621222999649 0.1998691686390484 0  0.5215828265105155 0.1999999999999228 0  0.3127789816668748 0.1998657885438805 0  0.3274069683451451 0.2000000000000796 0  0.5066462220363641 0.199999999999908 0  0.3650630746574081 0.199866017807523 0  0.476773013087985 0.1999999999998713 0  0.3417402379596385 0.1998691686391011 0  0.3796850840047755 0.200000000000134 0  0.4618364086138087 0.1999999999998546 0  0.4917096175621762 0.1999999999998808 0  0.3946216884789568 0.2000000000001512 0  0.446899804139621 0.1999999999998389 0  0.4089549580935208 0.1998691686391595 0  0.4322718174608562 0.200127451265745 0  0.4201487168029707 0.1999966199048527 0  0.3528922713220932 0.2000185703532356 0  0.5633122436674589 0.1999814296467508 0  0.3006558810093873 0.1999966199048318 0  0.5815926498168407 0.1966545283159175 0  0.2677053789419034 0.1964246479135325 0  0.5290511287476175 0.1970915826863981 0  0.5439877332217911 0.197091582686394 0  0.2825131256993216 0.2035478995978015 0  0.3199386661080599 0.202908417313604 0  0.4842413153250809 0.1970915826863873 0  0.5141145242734466 0.1970915826863843 0  0.3722167817676917 0.2029084173136195 0  0.4693047108508938 0.1970915826863783 0  0.3348752705822316 0.202908417313609 0  0.3871533862418661 0.2029084173136212 0  0.4543681063767183 0.1970915826863795 0  0.4991779197992749 0.1970915826863902 0  0.4020059614928624 0.203547899597858 0  0.4394315019025246 0.1970915826863714 0  0.2550657455369551 0.2034088125358657 0  0.2548908499171161 0.1966940311614271 0  0.5946539510196798 0.2024302972968126 0  0.267698176732111 0.2039977513680092 0  0.4261685417851465 0.196409292431739 0  0.3590076176283495 0.196411355804271 0  0.5571672426447437 0.2036011176410121 0  0.3066757059912147 0.1964092924317024 0  0.594380730180568 0.1966558399668133 0  0.4842413153245942 0.2040749161535287 0  0.4693047108503577 0.2040749161535231 0  0.3871533862424271 0.1959250838464788 0  0.372246743208829 0.1959123236376545 0  0.5141145242731028 0.2040749161535395 0  0.4543681063761134 0.2040749161535186 0  0.4019979587101454 0.1959834479682427 0  0.4394608940728603 0.2040870543693135 0  0.5439623148931173 0.2040856076781014 0  0.5290511287473298 0.2040749161535501 0  0.4991779197988497 0.2040749161535382 0  0.3347912413592433 0.1959225448935183 0  0.3199680582793816 0.1959123018030061 0  0.2825051229162361 0.1959834479681729 0  0.3590471196690275 0.2036304442587945 0  0.5571594006495384 0.1963685282145804 0  0.3067669986803285 0.203627750582736 0  0.4262598344738712 0.2036568242185335 0  0.5814408164431408 0.2041285596160068 0  0.5688286748170428 0.1961819304477386 0  0.4145905603063645 0.2038180695522843 0  0.3473758401724931 0.2038180695522752 0  0.2950977245128307 0.2038180695522663 0  0.5688286748170693 0.203818069552238 0  0.2950977245127906 0.1961819304477774 0  0.3473758401723931 0.1961819304478349 0  0.4145905603061963 0.1961819304479011 0  0.2601812407614425 0.2056861609747042
[...]
<PointData  Vectors="f_40-1"> 
<DataArray  type="Float64"  Name="f_40-1"  NumberOfComponents="3" format="ascii">0.0000000000000000e+00 0.0000000000000000e+00 0.0000000000000000e+00  0.0000000000000000e+00 0.0000000000000000e+00 0.0000000000000000e+00  0.0000000000000000e+00 0.0000000000000000e+00 0.0000000000000000e+00  0.0000000000000000e+00 0.0000000000000000e+00 0.0000000000000000e+00  6.0145943013273339e-05 2.5147892809289718e-03 0.0000000000000000e+00  -1.0800773703429214e-04 2.5134639141235178e-03 0.0000000000000000e+00  0.0000000000000000e+00 0.0000000000000000e+00 0.0000000000000000e+00  0.0000000000000000e+00 0.0000000000000000e+00 0.0000000000000000e+00  0.0000000000000000e+00 0.0000000000000000e+00 0.0000000000000000e+00  0.0000000000000000e+00 0.0000000000000000e+00 0.0000000000000000e+00  -2.4102047156390298e-05 2.5141249110140298e-03 0.0000000000000000e+00  0.0000000000000000e+00 0.0000000000000000e+00 0.0000000000000000e+00  0.0000000000000000e+00 0.0000000000000000e+00 0.0000000000000000e+00  0.0000000000000000e+00 0.0000000000000000e+00 0.0000000000000000e+00  0.0000000000000000e+00 0.0000000000000000e+00 0.0000000000000000e+00  0.0000000000000000e+00 0.0000000000000000e+00 0.0000000000000000e+00  0.0000000000000000e+00 0.0000000000000000e+00 0.0000000000000000e+00  0.0000000000000000e+00 0.0000000000000000e+00 0.0000000000000000e+00  0.0000000000000000e+00 0.0000000000000000e+00 0.0000000000000000e+00  0.0000000000000000e+00 0.0000000000000000e+00 0.0000000000000000e+00  0.0000000000000000e+00 0.0000000000000000e+00 0.0000000000000000e+00  0.0000000000000000e+00 0.0000000000000000e+00 0.0000000000000000e+00  0.0000000000000000e+00 0.0000000000000000e+00 0.0000000000000000e+00  0.0000000000000000e+00 0.0000000000000000e+00 0.0000000000000000e+00  0.0000000000000000e+00 0.0000000000000000e+00 0.0000000000000000e+00  0.0000000000000000e+00 0.0000000000000000e+00 0.0000000000000000e+00  0.0000000000000000e+00 0.0000000000000000e+00 0.0000000000000000e+00  0.0000000000000000e+00 0.0000000000000000e+00 0.0000000000000000e+00  0.0000000000000000e+00 0.0000000000000000e+00 0.0000000000000000e+00  0.0000000000000000e+00 0.0000000000000000e+00 0.0000000000000000e+00  0.0000000000000000e+00 0.0000000000000000e+00 0.0000000000000000e+00  0.0000000000000000e+00 0.0000000000000000e+00 0.0000000000000000e+00  0.0000000000000000e+00 0.0000000000000000e+00 0.0000000000000000e+00  0.0000000000000000e+00 0.0000000000000000e+00 0.0000000000000000e+00  0.0000000000000000e+00 0.0000000000000000e+00 0.0000000000000000e+00  0.0000000000000000e+00 0.0000000000000000e+00 0.0000000000000000e+00  0.0000000000000000e+00 0.0000000000000000e+00 0.0000000000000000e+00  0.0000000000000000e+00 0.0000000000000000e+00 0.0000000000000000e+00  0.0000000000000000e+00 0.0000000000000000e+00 0.0000000000000000e+00  0.0000000000000000e+00 0.0000000000000000e+00 0.0000000000000000e+00  0.0000000000000000e+00 0.0000000000000000e+00 0.0000000000000000e+00  0.0000000000000000e+00 0.0000000000000000e+00 0.0000000000000000e+00  0.0000000000000000e+00 0.0000000000000000e+00 0.0000000000000000e+00  0.0000000000000000e+00 0.0000000000000000e+00 0.0000000000000000e+00  0.0000000000000000e+00 0.0000000000000000e+00 0.0000000000000000e+00  0.0000000000000000e+00 0.0000000000000000e+00 0.0000000000000000e+00  0.0000000000000000e+00 0.0000000000000000e+00 0.0000000000000000e+00  0.0000000000000000e+00 0.0000000000000000e+00 0.0000000000000000e+00  0.0000000000000000e+00 0.0000000000000000e+00 0.0000000000000000e+00  0.0000000000000000e+00 0.0000000000000000e+00 0.0000000000000000e+00  0.0000000000000000e+00 0.0000000000000000e+00 0.0000000000000000e+00  0.0000000000000000e+00 0.0000000000000000e+00 0.0000000000000000e+00  0.0000000000000000e+00 0.0000000000000000e+00 0.0000000000000000e+00  0.0000000000000000e+00 0.0000000000000000e+00 0.0000000000000000e+00  0.0000000000000000e+00 0.0000000000000000e+00 0.0000000000000000e+00  0.0000000000000000e+00 0.0000000000000000e+00 0.0000000000000000e+00  0.0000000000000000e+00 0.0000000000000000e+00 0.0000000000000000e+00  0.0000000000000000e+00 0.0000000000000000e+00 0.0000000000000000e+00  0.0000000000000000e+00 0.0000000000000000e+00 0.0000000000000000e+00  0.0000000000000000e+00 0.0000000000000000e+00 0.0000000000000000e+00  0.0000000000000000e+00 0.0000000000000000e+00 0.0000000000000000e+00  0.0000000000000000e+00 0.0000000000000000e+00 0.0000000000000000e+00  0.0000000000000000e+00 0.0000000000000000e+00 0.0000000000000000e+00  0.0000000000000000e+00 0.0000000000000000e+00 0.0000000000000000e+00  0.0000000000000000e+00 0.0000000000000000e+00 0.0000000000000000e+00  0.0000000000000000e+00 0.0000000000000000e+00 0.0000000000000000e+00  0.0000000000000000e+00 0.0000000000000000e+00 0.0000000000000000e+00  0.0000000000000000e+00 0.0000000000000000e+00 0.0000000000000000e+00  0.0000000000000000e+00 0.0000000000000000e+00 0.0000000000000000e+00  0.0000000000000000e+00 0.0000000000000000e+00 0.0000000000000000e+00  0.0000000000000000e+00 0.0000000000000000e+00 0.0000000000000000e+00  0.0000000000000000e+00 0.0000000000000000e+00 0.0000000000000000e+00  0.0000000000000000e+00 0.0000000000000000e+00 0.0000000000000000e+00  0.0000000000000000e+00 0.0000000000000000e+00 0.0000000000000000e+00  0.0000000000000000e+00 0.0000000000000000e+00 0.0000000000000000e+00  0.0000000000000000e+00 0.0000000000000000e+00 0.0000000000000000e+00  0.0000000000000000e+00 0.0000000000000000e+00 0.0000000000000000e+00  0.0000000000000000e+00 0.0000000000000000e+00 0.0000000000000000e+00  0.0000000000000000e+00 0.0000000000000000e+00 0.0000000000000000e+00  0.0000000000000000e+00 0.0000000000000000e+00 0.0000000000000000e+00  0.0000000000000000e+00 0.0000000000000000e+00 0.0000000000000000e+00  0.0000000000000000e+00 0.0000000000000000e+00 0.0000000000000000e+00  0.0000000000000000e+00 0.0000000000000000e+00 0.0000000000000000e+00  0.0000000000000000e+00 0.0000000000000000e+00 0.0000000000000000e+00  0.0000000000000000e+00 0.0000000000000000e+00 0.0000000000000000e+00  0.0000000000000000e+00 0.0000000000000000e+00 0.0000000000000000e+00  0.0000000000000000e+00 0.0000000000000000e+00 0.0000000000000000e+00  0.0000000000000000e+00 0.0000000000000000e+00 0.0000000000000000e+00  0.0000000000000000e+00 0.0000000000000000e+00 0.0000000000000000e+00  0.0000000000000000e+00 0.0000000000000000e+00 0.0000000000000000e+00  0.0000000000000000e+00 0.0000000000000000e+00 0.0000000000000000e+00  0.0000000000000000e+00 0.0000000000000000e+00 0.0000000000000000e+00  0.0000000000000000e+00 0.0000000000000000e+00 0.0000000000000000e+00  0.0000000000000000e+00 0.0000000000000000e+00 0.0000000000000000e+00  0.0000000000000000e+00 0.0000000000000000e+00 0.0000000000000000e+00  0.0000000000000000e+00 0.0000000000000000e+00 0.0000000000000000e+00  0.0000000000000000e+00 0.0000000000000000e+00 0.0000000000000000e+00  0.0000000000000000e+00 0.0000000000000000e+00 0.0000000000000000e+00  0.0000000000000000e+00 0.0000000000000000e+00 0.0000000000000000e+00  0.0000000000000000e+00 0.0000000000000000e+00 0.0000000000000000e+00  0.0000000000000000e+00 0.0000000000000000e+00 0.0000000000000000e+00  0.0000000000000000e+00 0.0000000000000000e+00 0.0000000000000000e+00  0.0000000000000000e+00 0.0000000000000000e+00 0.0000000000000000e+00  0.0000000000000000e+00 0.0000000000000000e+00 0.0000000000000000e+00  0.0000000000000000e+00 0.0000000000000000e+00 0.0000000000000000e+00  0.0000000000000000e+00 0.0000000000000000e+00 0.0000000000000000e+00  0.0000000000000000e+00 0.0000000000000000e+00 0.0000000000000000e+00  0.0000000000000000e+00 0.0000000000000000e+00 0.0000000000000000e+00  0.0000000000000000e+00 0.0000000000000000e+00 0.0000000000000000e+00  0.0000000000000000e+00 0.0000000000000000e+00 0.0000000000000000e+00  0.0000000000000000e+00 0.0000000000000000e+00 0.0000000000000000e+00  0.0000000000000000e+00 0.0000000000000000e+00 0.0000000000000000e+00  0.0000000000000000e+00 0.0000000000000000e+00 0.0000000000000000e+00  0.0000000000000000e+00 0.0000000000000000e+00 0.0000000000000000e+00  0.0000000000000000e+00 0.0000000000000000e+00 0.0000000000000000e+00  0.0000000000000000e+00 0.0000000000000000e+00 0.0000000000000000e+00  0.0000000000000000e+00 0.0000000000000000e+00 0.0000000000000000e+00  0.0000000000000000e+00 0.0000000000000000e+00 0.0000000000000000e+00  0.0000000000000000e+00 0.0000000000000000e+00 0.0000000000000000e+00  0.0000000000000000e+00 0.0000000000000000e+00 0.0000000000000000e+00  0.0000000000000000e+00 0.0000000000000000e+00 0.0000000000000000e+00  0.0000000000000000e+00 0.0000000000000000e+00 0.0000000000000000e+00  0.0000000000000000e+00 0.0000000000000000e+00 0.0000000000000000e+00  0.0000000000000000e+00 0.0000000000000000e+00 0.0000000000000000e+00  0.0000000000000000e+00 0.0000000000000000e+00 0.0000000000000000e+00  0.0000000000000000e+00 0.0000000000000000e+00 0.0000000000000000e+00  0.0000000000000000e+00 0.0000000000000000e+00 0.0000000000000000e+00  0.0000000000000000e+00 0.0000000000000000e+00 0.0000000000000000e+00  0.0000000000000000e+00 0.0000000000000000e+00 0.0000000000000000e+00  0.0000000000000000e+00 0.0000000000000000e+00 0.0000000000000000e+00  0.0000000000000000e+00 0.0000000000000000e+00 0.0000000000000000e+00  0.0000000000000000e+00 0.0000000000000000e+00 0.0000000000000000e+00  0.0000000000000000e+00 0.0000000000000000e+00 0.0000000000000000e+00  0.0000000000000000e+00 0.0000000000000000e+00 0.0000000000000000e+00  0.0000000000000000e+00 0.0000000000000000e+00 0.0000000000000000e+00  0.0000000000000000e+00 0.0000000000000000e+00 0.0000000000000000e+00  0.0000000000000000e+00 0.0000000000000000e+00 0.0000000000000000e+00  0.0000000000000000e+00 0.0000000000000000e+00 0.0000000000000000e+00  0.0000000000000000e+00 0.0000000000000000e+00 0.0000000000000000e+00  0.0000000000000000e+00 0.0000000000000000e+00 0.0000000000000000e+00  0.0000000000000000e+00 0.0000000000000000e+00 0.0000000000000000e+00  0.0000000000000000e+00 0.0000000000000000e+00 0.0000000000000000e+00  0.0000000000000000e+00 0.0000000000000000e+00 0.0000000000000000e+00  -8.0011891379872631e-06 6.9869374854616324e-06 0.0000000000000000e+00  -1.6803497424457528e-05 1.6169718341664964e-05 0.0000000000000000e+00  -2.4406267531130939e-05 3.0712998513217741e-05 0.0000000000000000e+00  -3.2358401702500024e-05 5.0904159072359274e-05 0.0000000000000000e+00  -3.8858240772998645e-05 7.5534677769680534e-05 0.0000000000000000e+00  -4.5913870160547403e-05 1.0498349591383461e-04 0.0000000000000000e+00  -5.1486372892334667e-05 1.3783062950473618e-04 0.0000000000000000e+00  -5.6695275145006902e-05 1.7501198396621171e-04 0.0000000000000000e+00  -6.2408516736713507e-05 2.1534354192338635e-04 0.0000000000000000e+00  -6.6654737368275206e-05 2.5878866382749333e-04 0.0000000000000000e+00  -7.1527249606688015e-05 3.0521897298313834e-04 0.0000000000000000e+00  -7.5101617106500948e-05 3.5416788824913203e-04 0.0000000000000000e+00  -7.9027827633619747e-05 4.0548253297838346e-04 0.0000000000000000e+00  -8.2067118679521789e-05 4.5858075702614608e-04 0.0000000000000000e+00  -8.4839538112204839e-05 5.1375194007483255e-04 0.0000000000000000e+00  -8.7749106017108154e-05 5.7037839255568541e-04 0.0000000000000000e+00  -8.9892268721842181e-05 6.2835972862285562e-04 0.0000000000000000e+00  -9.2194215461276525e-05 6.8761043501234663e-04 0.0000000000000000e+00  -9.3876388852905476e-05 7.4780363228919389e-04 0.0000000000000000e+00  -9.5625573890448747e-05 8.0887411538969032e-04 0.0000000000000000e+00  -9.6969158279541112e-05 8.7061305908639128e-04 0.0000000000000000e+00  -9.8255267132754936e-05 9.3296394190184773e-04 0.0000000000000000e+00  -9.9277119949853142e-05 9.9567648284548519e-04 0.0000000000000000e+00  -1.0016039323198169e-04 1.0587954595816301e-03 0.0000000000000000e+00  -1.0099823940167752e-04 1.1221459396834348e-03 0.0000000000000000e+00  -1.0166144617660703e-04 1.1856849695862906e-03 0.0000000000000000e+00  -1.0224279554440970e-04 1.2493791188771298e-03 0.0000000000000000e+00  -1.0273162174104769e-04 1.3131043777975145e-03 0.0000000000000000e+00  -1.0315104659908942e-04 1.3768856294772934e-03 0.0000000000000000e+00  -1.0351275010609149e-04 1.4406307206755707e-03 0.0000000000000000e+00  -1.0382070074691898e-04 1.5043538391075928e-03 0.0000000000000000e+00  -1.0409611818846253e-04 1.5679946515766785e-03 0.0000000000000000e+00  -1.0433513878817435e-04 1.6315634768974639e-03 0.0000000000000000e+00  -1.0455931714725087e-04 1.6950267944585539e-03 0.0000000000000000e+00  -1.0476003207351224e-04 1.7583961485631847e-03 0.0000000000000000e+00  -1.0496633833124044e-04 1.8216636593180971e-03 0.0000000000000000e+00  -1.0516456659988967e-04 1.8848316234420760e-03 0.0000000000000000e+00  -1.0537932245182766e-04 1.9479148859105884e-03 0.0000000000000000e+00  -1.0559651275304685e-04 2.0109106358502612e-03 0.0000000000000000e+00  -1.0583857196878958e-04 2.0738496767063494e-03 0.0000000000000000e+00  -1.0609306365460425e-04 2.1367202405730579e-03 0.0000000000000000e+00  -1.0637682548962876e-04 2.1995603299681484e-03 0.0000000000000000e+00  -1.0667959235492539e-04 2.2623670956169128e-03 0.0000000000000000e+00  -1.0699452189798291e-04 2.3251614426711147e-03 0.0000000000000000e+00  -1.0733969151218148e-04 2.3879577474936963e-03 0.0000000000000000e+00  -1.0768894831923464e-04 2.4507400971316832e-03 0.0000000000000000e+00  -6.6108502117369992e-05 2.5137955833285002e-03 0.0000000000000000e+00  1.7967608406975640e-05 2.5144520972018468e-03 0.0000000000000000e+00  6.0464578893329983e-05 2.4519334504057139e-03 0.0000000000000000e+00  6.0826093894641746e-05 2.3891563313906323e-03 0.0000000000000000e+00  6.1192820020697307e-05 2.3263888717334428e-03 0.0000000000000000e+00  6.1560712717083783e-05 2.2636020487481361e-03 0.0000000000000000e+00  6.1929502278238434e-05 2.2007976728023581e-03 0.0000000000000000e+00  6.2308604304258801e-05 2.1379563707365394e-03 0.0000000000000000e+00  6.2708386829644105e-05 2.0750721442850889e-03 0.0000000000000000e+00  6.3104273185994968e-05 2.0121319090460016e-03 0.0000000000000000e+00  6.3534404364189964e-05 1.9491161828658348e-03 0.0000000000000000e+00  6.3952210962353191e-05 1.8860177544592312e-03 0.0000000000000000e+00  6.4409606975719821e-05 1.8228248546010612e-03 0.0000000000000000e+00  6.4848356720817883e-05 1.7595318654044911e-03 0.0000000000000000e+00  6.5324524068273993e-05 1.6961340626948543e-03 0.0000000000000000e+00  6.5772858210137483e-05 1.6326349045597919e-03 0.0000000000000000e+00  6.6244438617431897e-05 1.5690342890965388e-03 0.0000000000000000e+00  6.6683063002229246e-05 1.5053509316560344e-03 0.0000000000000000e+00  6.7121542363489931e-05 1.4415914821782317e-03 0.0000000000000000e+00  6.7528017267223846e-05 1.3777920480009356e-03 0.0000000000000000e+00  6.7900088136610732e-05 1.3139684775312047e-03 0.0000000000000000e+00  6.8246713459890935e-05 1.2501761335350016e-03 0.0000000000000000e+00  6.8506478735641595e-05 1.1864367824775532e-03 0.0000000000000000e+00  6.8754494135248398e-05 1.1228308356565253e-03 0.0000000000000000e+00  6.8849180839092254e-05 1.0594028764840109e-03 0.0000000000000000e+00  6.8928703367229709e-05 9.9621258896693491e-04 0.0000000000000000e+00  6.8919625677479060e-05 9.3343008746885731e-04 0.0000000000000000e+00  6.8686283225125792e-05 8.7098616984998968e-04 0.0000000000000000e+00  6.8390378852117823e-05 8.0918447013636821e-04 0.0000000000000000e+00  6.7841770096223894e-05 7.4799840573647452e-04 0.0000000000000000e+00  6.7196925604167854e-05 6.8772989828832370e-04 0.0000000000000000e+00  6.6239186689475281e-05 6.2838374174392804e-04 0.0000000000000000e+00  6.5174900266750860e-05 5.7024309260045509e-04 0.0000000000000000e+00  6.3544651878048164e-05 5.1361045979698625e-04 0.0000000000000000e+00  6.2056009844665654e-05 4.5831177619535781e-04 0.0000000000000000e+00  6.0326435456250389e-05 4.0514358613677053e-04 0.0000000000000000e+00  5.7850291903953974e-05 3.5356409516825208e-04 0.0000000000000000e+00  5.5359768746650453e-05 3.0458946570341568e-04 0.0000000000000000e+00  5.2262291496360295e-05 2.5802037352040956e-04 0.0000000000000000e+00  4.9102081596682737e-05 2.1432743043074085e-04 0.0000000000000000e+00  4.4895287737677932e-05 1.7406612966869056e-04 0.0000000000000000e+00  4.1146532630188864e-05 1.3671342740543348e-04 0.0000000000000000e+00  3.7074976540014432e-05 1.0376307616873910e-04 0.0000000000000000e+00  3.1637694010731176e-05 7.4071502578607897e-05 0.0000000000000000e+00  2.6491956625544229e-05 4.9247218356760134e-05 0.0000000000000000e+00  2.0034512916569550e-05 2.9231149551425800e-05 0.0000000000000000e+00  1.4095788409084196e-05 1.4553657468270145e-05 0.0000000000000000e+00  6.7249041072292312e-06 5.3630499406754051e-06 0.0000000000000000e+00  -9.6295792051228612e-07 6.7771111958778446e-06 0.0000000000000000e+00  -2.4577265075153690e-05 2.4197988848721468e-03 0.0000000000000000e+00  -2.4517179104844609e-05 2.2998153108195335e-03 0.0000000000000000e+00  -2.2695294195887834e-05 2.1036856025148784e-03 0.0000000000000000e+00  -2.4644297799967924e-06 3.6087793410855985e-05 0.0000000000000000e+00  -2.1115544903653442e-05 1.9800745713060789e-03 0.0000000000000000e+00  -3.4743862308044674e-06 8.3714183398351266e-05 0.0000000000000000e+00  -2.0470127158819663e-05 1.8539029146786787e-03 0.0000000000000000e+00  -5.5267797351517587e-06 1.9374139048670090e-04 0.0000000000000000e+00  -7.6300998827100976e-06 2.7955046361359651e-04 0.0000000000000000e+00  -1.9810284085623066e-05 1.7273445671913126e-03 0.0000000000000000e+00  -9.9566099106519031e-06 5.4319455858617774e-04 0.0000000000000000e+00  -1.8397905954653470e-05 1.4730146921397953e-03 0.0000000000000000e+00  -8.0617538992978119e-06 3.7365048005509729e-04 0.0000000000000000e+00  -1.2164358099888913e-05 6.5715250768912993e-04 0.0000000000000000e+00  -1.7625325046205976e-05 1.3454227569808617e-03 0.0000000000000000e+00  -1.9122961679965148e-05 1.6003674816799764e-03 0.0000000000000000e+00  -1.3321985533932285e-05 7.7783885164644606e-04 0.0000000000000000e+00  -1.6793156697566611e-05 1.2178320817531534e-03 0.0000000000000000e+00  -1.3279249039069810e-05 8.9652226907322981e-04 0.0000000000000000e+00  -1.6994454253831582e-05 1.0932180788295195e-03 0.0000000000000000e+00  -1.5100925012392332e-05 9.9059393507364905e-04 0.0000000000000000e+00  -1.0059563366532739e-05 4.5281387771044218e-04 0.0000000000000000e+00  -2.2136930298717824e-05 2.2056943660730775e-03 0.0000000000000000e+00  -5.0293517401582515e-06 1.3256906891665856e-04 0.0000000000000000e+00  4.9939226235803541e-06 2.3595856598939350e-03 0.0000000000000000e+00  5.0895336260409269e-06 1.8798024067325818e-05 0.0000000000000000e+00  3.7878887984515698e-06 1.9171995359266081e-03 0.0000000000000000e+00  3.0882232970379505e-06 2.0432113845632867e-03 0.0000000000000000e+00  -1.4561904529377511e-05 5.9308635416992239e-05 0.0000000000000000e+00  -2.3701937842231591e-05 2.3470150445473035e-04 0.0000000000000000e+00  6.0168750513030313e-06 1.5368754158156866e-03 0.0000000000000000e+00  4.5073627232574809e-06 1.7908348140358156e-03 0.0000000000000000e+00  -3.4029948609039825e-05 5.9846163027041800e-04 0.0000000000000000e+00  6.7966216491785380e-06 1.4093715243011329e-03 0.0000000000000000e+00  -2.7130200243898163e-05 3.2778344033495063e-04 0.0000000000000000e+00  -3.6072324982188590e-05 7.1711006423958010e-04 0.0000000000000000e+00  7.5816953695989152e-06 1.2817359682058623e-03 0.0000000000000000e+00  5.2514084992718212e-06 1.6640591988859891e-03 0.0000000000000000e+00  -4.3072757299970478e-05 8.3871641315282086e-04 0.0000000000000000e+00  8.3597356916905044e-06 1.1542633020958310e-03 0.0000000000000000e+00  -1.6170539888892460e-06 1.7694157142384067e-06 0.0000000000000000e+00  8.1239038955356813e-07 1.2609678536403385e-06 0.0000000000000000e+00  -4.4248393314234989e-05 2.4690366387777026e-03 0.0000000000000000e+00  -9.2256778262892790e-06 1.9451926961588628e-05 0.0000000000000000e+00  1.4792684668505124e-05 1.0415780930467962e-03 0.0000000000000000e