<?xml version="1.0"?>
<VTKFile type="UnstructuredGrid"  version="0.1"  >
<UnstructuredGrid>
<Piece  NumberOfPoints="1419" NumberOfCells="2698">
<Points>
<DataArray  type="Float64"  NumberOfComponents="3"  format="ascii">0 0 0  0 0.41 0  2.5 0 0  2.5 0.41 0  0.6 0.19 0  0.6 0.21 0  0.25 0.2 0  0.15 0.2 0  0.2489897948556636 0.21 0  0.2489897948556636 0.19 0  0.6 0.2 0  0 0.3807142857143437 0  0 0.3514285714286952 0  0 0.3221428571430699 0  0 0.29285714285744 0  0 0.2635714285718054 0  0 0.2342857142861561 0  0 0.2050000000005308 0  0 0.175714285714732 0  0 0.1464285714289574 0  0 0.1171428571431897 0  0 0.08785714285737878 0  0 0.05857142857161107 0  0 0.02928571428580012 0  0.03015443760436003 0 0  0.06140001986583606 0 0  0.09377624077125973 0 0  0.1273239957535082 0 0  0.1620856860351972 0 0  0.1981052433264291 0 0  0.235428184091502 0 0  0.2741016576309132 0 0  0.3141745521465447 0 0  0.3556974926295285 0 0  0.3987229542472677 0 0  0.4433053055141081 0 0  0.4895008759286886 0 0  0.5373680609405097 0 0  0.5869673343216626 0 0  0.6383613676634521 0 0  0.6916151138468254 0 0  0.7467958595648856 0 0  0.8039733463919316 0 0  0.8632198139502143 0 0  0.9246101326867038 0 0  0.9882218810934433 0 0  1.054135445558498 0 0  1.122434100542598 0 0  1.193204177141305 0 0  1.266535089879536 0 0  1.342519516046404 0 0  1.421253448503939 0 0  1.502836389106271 0 0  1.587371439758838 0 0  1.674965418777374 0 0  1.765729001825544 0 0  1.859776908880082 0 0  1.957227977487062 0 0  2.058205329869943 0 0  2.162836591189951 0 0  2.271253957290865 0 0  2.383594446803425 0 0  2.5 0.1024999999997612 0  2.5 0.2049999999994743 0  2.5 0.3074999999997183 0  2.383594446803656 0.41 0  2.271253957291315 0.41 0  2.162836591190598 0.41 0  2.058205329870775 0.41 0  1.957227977488067 0.41 0  1.859776908881246 0.41 0  1.765729001826854 0.41 0  1.674965418778818 0.41 0  1.58737143976041 0.41 0  1.502836389107956 0.41 0  1.421253448505726 0.41 0  1.342519516048286 0.41 0  1.266535089881505 0.41 0  1.193204177143353 0.41 0  1.122434100544716 0.41 0  1.05413544556068 0.41 0  0.9882218810956305 0.41 0  0.9246101326886647 0.41 0  0.8632198139519631 0.41 0  0.8039733463934788 0.41 0  0.7467958595662458 0.41 0  0.6916151138480078 0.41 0  0.6383613676644679 0.41 0  0.5869673343225223 0.41 0  0.5373680609412221 0.41 0  0.4895008759292634 0.41 0  0.4433053055145528 0.41 0  0.3987229542475914 0.41 0  0.3556974926297398 0.41 0  0.3141745521466497 0.41 0  0.2741016576310038 0.41 0  0.2354281840915826 0.41 0  0.1981052433265003 0.41 0  0.1620856860352591 0.41 0  0.1273239957535623 0.41 0  0.09377624077128965 0.41 0  0.06140001986584975 0.41 0  0.03015443760436654 0.41 0  0.2497468076502589 0.2050254481002335 0  0.2497468076502614 0.1949745518997913 0  0.2469965252529372 0.1829317073451959 0  0.2439893735792749 0.1762316384219906 0  0.2400332147834255 0.1700443375285386 0  0.2352133972704371 0.1645032867342007 0  0.2296339016332438 0.1597280261969788 0  0.2234150974217223 0.1558215752574715 0  0.2166911463437691 0.1528682099456123 0  0.2096071079204251 0.1509316448471593 0  0.2023158100364996 0.1500536585536553 0  0.194974551899914 0.1502531923497262 0  0.1877417105387872 0.1515259415822739 0  0.1807733240461124 0.153844448527136 0  0.1742197252835808 0.15715869474974 0  0.1682222986673531 0.1613971801805478 0  0.162910430003803 0.1664684656256651 0  0.1583987151779087 0.1722631454351573 0  0.1547844879126891 0.178656207771761 0  0.1521457199348551 0.1855097315605723 0  0.1505393388476355 0.1926758619366523 0  0.1505393388476328 0.2073241380633295 0  0.1521457199348437 0.2144902684393899 0  0.1547844879126531 0.221343792228163 0  0.1583987151778488 0.2277368545647528 0  0.1629104300036858 0.2335315343742052 0  0.1682222986671726 0.2386028198193036 0  0.1742197252833576 0.2428413052501257 0  0.1807733240458683 0.2461555514727623 0  0.1877417105384929 0.2484740584176516 0  0.1949745518995776 0.2497468076502398 0  0.202315810036185 0.2499463414463592 0  0.2096071079201568 0.2490683551528932 0  0.2166911463435495 0.2471317900544655 0  0.2234150974215506 0.2441784247426195 0  0.2296339016331197 0.2402719738031125 0  0.2352133972703547 0.2354967132658811 0  0.2400332147833751 0.2299556624715287 0  0.2439893735792577 0.2237683615780412 0  0.246996525252926 0.2170682926548348 0  0.25645809709277 0.21 0  0.2639263993298655 0.21 0  0.271394701566961 0.21 0  0.2788630038040554 0.21 0  0.2863313060411479 0.21 0  0.2937996082782405 0.21 0  0.301267910515333 0.21 0  0.3087362127524279 0.21 0  0.3162045149895234 0.21 0  0.3236728172265972 0.21 0  0.3311411194636928 0.21 0  0.3386094217007701 0.21 0  0.3460777239378666 0.21 0  0.3535460261749672 0.21 0  0.3610143284120516 0.21 0  0.3684826306491596 0.21 0  0.3759509328862226 0.21 0  0.383419235123329 0.21 0  0.3908875373604028 0.21 0  0.3983558395975142 0.21 0  0.4058241418345938 0.21 0  0.4132924440716992 0.21 0  0.4207607463087888 0.21 0  0.4282290485459029 0.21 0  0.4356973507830418 0.21 0  0.4431656530201649 0.21 0  0.4506339552573136 0.21 0  0.4581022574944306 0.21 0  0.4655705597315852 0.21 0  0.4730388619686996 0.21 0  0.480507164205851 0.21 0  0.4879754664429498 0.21 0  0.4954437686800938 0.21 0  0.502912070917267 0.21 0  0.5103803731544119 0.21 0  0.5178486753915261 0.21 0  0.5253169776286404 0.21 0  0.5327852798657868 0.21 0  0.5402535821029386 0.21 0  0.54772188434007 0.21 0  0.5551901865771842 0.21 0  0.5626584888143201 0.21 0  0.5701267910514778 0.21 0  0.5775950932886138 0.21 0  0.5850633955257281 0.21 0  0.5925316977628483 0.21 0  0.6 0.2050000000000054 0  0.6 0.1950000000000217 0  0.5925316977628897 0.19 0  0.5850633955257988 0.19 0  0.5775950932887378 0.19 0  0.5701267910515998 0.19 0  0.5626584888145268 0.19 0  0.5551901865773963 0.19 0  0.547721884340339 0.19 0  0.5402535821032429 0.19 0  0.5327852798661811 0.19 0  0.5253169776290537 0.19 0  0.5178486753919799 0.19 0  0.5103803731549078 0.19 0  0.502912070917822 0.19 0  0.4954437686807294 0.19 0  0.4879754664436223 0.19 0  0.4805071642065402 0.19 0  0.4730388619694271 0.19 0  0.4655705597323621 0.19 0  0.4581022574952563 0.19 0  0.4506339552581777 0.19 0  0.4431656530210671 0.19 0  0.4356973507839815 0.19 0  0.4282290485468779 0.19 0  0.4207607463097617 0.19 0  0.4132924440726327 0.19 0  0.4058241418354857 0.19 0  0.3983558395983636 0.19 0  0.3908875373612097 0.19 0  0.3834192351240934 0.19 0  0.3759509328869369 0.19 0  0.3684826306498175 0.19 0  0.361014328412667 0.19 0  0.3535460261755617 0.19 0  0.3460777239384295 0.19 0  0.3386094217012945 0.19 0  0.3311411194641595 0.19 0  0.3236728172270245 0.19 0  0.3162045149898895 0.19 0  0.3087362127527544 0.19 0  0.3012679105156187 0.19 0  0.2937996082784807 0.19 0  0.2863313060413428 0.19 0  0.2788630038042048 0.19 0  0.2713947015670686 0.19 0  0.2639263993299336 0.19 0  0.2564580970927985 0.19 0  0.2607803159922026 0.2000727136295815 0  0.5887803774232762 0.2001272386983733 0  0.5745072403740523 0.2002044435018727 0  0.5511891430099709 0.2001122610077113 0  0.2751288526855082 0.20000000000002 0  0.5365194309847112 0.1999999999999436 0  0.2894621222999649 0.1998691686390484 0  0.5215828265105155 0.1999999999999228 0  0.3127789816668748 0.1998657885438805 0  0.3274069683451451 0.2000000000000796 0  0.5066462220363641 0.199999999999908 0  0.3650630746574081 0.199866017807523 0  0.476773013087985 0.1999999999998713 0  0.3417402379596385 0.1998691686391011 0  0.3796850840047755 0.200000000000134 0  0.4618364086138087 0.1999999999998546 0  0.4917096175621762 0.1999999999998808 0  0.3946216884789568 0.2000000000001512 0  0.446899804139621 0.1999999999998389 0  0.4089549580935208 0.1998691686391595 0  0.4322718174608562 0.200127451265745 0  0.4201487168029707 0.1999966199048527 0  0.3528922713220932 0.2000185703532356 0  0.5633122436674589 0.1999814296467508 0  0.3006558810093873 0.1999966199048318 0  0.5815926498168407 0.1966545283159175 0  0.2677053789419034 0.1964246479135325 0  0.5290511287476175 0.1970915826863981 0  0.5439877332217911 0.197091582686394 0  0.2825131256993216 0.2035478995978015 0  0.3199386661080599 0.202908417313604 0  0.4842413153250809 0.1970915826863873 0  0.5141145242734466 0.1970915826863843 0  0.3722167817676917 0.2029084173136195 0  0.4693047108508938 0.1970915826863783 0  0.3348752705822316 0.202908417313609 0  0.3871533862418661 0.2029084173136212 0  0.4543681063767183 0.1970915826863795 0  0.4991779197992749 0.1970915826863902 0  0.4020059614928624 0.203547899597858 0  0.4394315019025246 0.1970915826863714 0  0.2550657455369551 0.2034088125358657 0  0.2548908499171161 0.1966940311614271 0  0.5946539510196798 0.2024302972968126 0  0.267698176732111 0.2039977513680092 0  0.4261685417851465 0.196409292431739 0  0.3590076176283495 0.196411355804271 0  0.5571672426447437 0.2036011176410121 0  0.3066757059912147 0.1964092924317024 0  0.594380730180568 0.1966558399668133 0  0.4842413153245942 0.2040749161535287 0  0.4693047108503577 0.2040749161535231 0  0.3871533862424271 0.1959250838464788 0  0.372246743208829 0.1959123236376545 0  0.5141145242731028 0.2040749161535395 0  0.4543681063761134 0.2040749161535186 0  0.4019979587101454 0.1959834479682427 0  0.4394608940728603 0.2040870543693135 0  0.5439623148931173 0.2040856076781014 0  0.5290511287473298 0.2040749161535501 0  0.4991779197988497 0.2040749161535382 0  0.3347912413592433 0.1959225448935183 0  0.3199680582793816 0.1959123018030061 0  0.2825051229162361 0.1959834479681729 0  0.3590471196690275 0.2036304442587945 0  0.5571594006495384 0.1963685282145804 0  0.3067669986803285 0.203627750582736 0  0.4262598344738712 0.2036568242185335 0  0.5814408164431408 0.2041285596160068 0  0.5688286748170428 0.1961819304477386 0  0.4145905603063645 0.2038180695522843 0  0.3473758401724931 0.2038180695522752 0  0.2950977245128307 0.2038180695522663 0  0.5688286748170693 0.203818069552238 0  0.2950977245127906 0.1961819304477774 0  0.3473758401723931 0.1961819304478349 0  0.4145905603061963 0.1961819304479011 0  0.2601812407614425 0.2056861609747042
[...]
<PointData  Vectors="f_40-1"> 
<DataArray  type="Float64"  Name="f_40-1"  NumberOfComponents="3" format="ascii">0.0000000000000000e+00 0.0000000000000000e+00 0.0000000000000000e+00  0.0000000000000000e+00 0.0000000000000000e+00 0.0000000000000000e+00  0.0000000000000000e+00 0.0000000000000000e+00 0.0000000000000000e+00  0.0000000000000000e+00 0.0000000000000000e+00 0.0000000000000000e+00  6.0650293850602607e-05 2.5249275128943149e-03 0.0000000000000000e+00  -1.0831284254740114e-04 2.5236209106879056e-03 0.0000000000000000e+00  0.0000000000000000e+00 0.0000000000000000e+00 0.0000000000000000e+00  0.0000000000000000e+00 0.0000000000000000e+00 0.0000000000000000e+00  0.0000000000000000e+00 0.0000000000000000e+00 0.0000000000000000e+00  0.0000000000000000e+00 0.0000000000000000e+00 0.0000000000000000e+00  -2.4000915638069987e-05 2.5242724868963077e-03 0.0000000000000000e+00  0.0000000000000000e+00 0.0000000000000000e+00 0.0000000000000000e+00  0.0000000000000000e+00 0.0000000000000000e+00 0.0000000000000000e+00  0.0000000000000000e+00 0.0000000000000000e+00 0.0000000000000000e+00  0.0000000000000000e+00 0.0000000000000000e+00 0.0000000000000000e+00  0.0000000000000000e+00 0.0000000000000000e+00 0.0000000000000000e+00  0.0000000000000000e+00 0.0000000000000000e+00 0.0000000000000000e+00  0.0000000000000000e+00 0.0000000000000000e+00 0.0000000000000000e+00  0.0000000000000000e+00 0.0000000000000000e+00 0.0000000000000000e+00  0.0000000000000000e+00 0.0000000000000000e+00 0.0000000000000000e+00  0.0000000000000000e+00 0.0000000000000000e+00 0.0000000000000000e+00  0.0000000000000000e+00 0.0000000000000000e+00 0.0000000000000000e+00  0.0000000000000000e+00 0.0000000000000000e+00 0.0000000000000000e+00  0.0000000000000000e+00 0.0000000000000000e+00 0.0000000000000000e+00  0.0000000000000000e+00 0.0000000000000000e+00 0.0000000000000000e+00  0.0000000000000000e+00 0.0000000000000000e+00 0.0000000000000000e+00  0.0000000000000000e+00 0.0000000000000000e+00 0.0000000000000000e+00  0.0000000000000000e+00 0.0000000000000000e+00 0.0000000000000000e+00  0.0000000000000000e+00 0.0000000000000000e+00 0.0000000000000000e+00  0.0000000000000000e+00 0.0000000000000000e+00 0.0000000000000000e+00  0.0000000000000000e+00 0.0000000000000000e+00 0.0000000000000000e+00  0.0000000000000000e+00 0.0000000000000000e+00 0.0000000000000000e+00  0.0000000000000000e+00 0.0000000000000000e+00 0.0000000000000000e+00  0.0000000000000000e+00 0.0000000000000000e+00 0.0000000000000000e+00  0.0000000000000000e+00 0.0000000000000000e+00 0.0000000000000000e+00  0.0000000000000000e+00 0.0000000000000000e+00 0.0000000000000000e+00  0.0000000000000000e+00 0.0000000000000000e+00 0.0000000000000000e+00  0.0000000000000000e+00 0.0000000000000000e+00 0.0000000000000000e+00  0.0000000000000000e+00 0.0000000000000000e+00 0.0000000000000000e+00  0.0000000000000000e+00 0.0000000000000000e+00 0.0000000000000000e+00  0.0000000000000000e+00 0.0000000000000000e+00 0.0000000000000000e+00  0.0000000000000000e+00 0.0000000000000000e+00 0.0000000000000000e+00  0.0000000000000000e+00 0.0000000000000000e+00 0.0000000000000000e+00  0.0000000000000000e+00 0.0000000000000000e+00 0.0000000000000000e+00  0.0000000000000000e+00 0.0000000000000000e+00 0.0000000000000000e+00  0.0000000000000000e+00 0.0000000000000000e+00 0.0000000000000000e+00  0.0000000000000000e+00 0.0000000000000000e+00 0.0000000000000000e+00  0.0000000000000000e+00 0.0000000000000000e+00 0.0000000000000000e+00  0.0000000000000000e+00 0.0000000000000000e+00 0.0000000000000000e+00  0.0000000000000000e+00 0.0000000000000000e+00 0.0000000000000000e+00  0.0000000000000000e+00 0.0000000000000000e+00 0.0000000000000000e+00  0.0000000000000000e+00 0.0000000000000000e+00 0.0000000000000000e+00  0.0000000000000000e+00 0.0000000000000000e+00 0.0000000000000000e+00  0.0000000000000000e+00 0.0000000000000000e+00 0.0000000000000000e+00  0.0000000000000000e+00 0.0000000000000000e+00 0.0000000000000000e+00  0.0000000000000000e+00 0.0000000000000000e+00 0.0000000000000000e+00  0.0000000000000000e+00 0.0000000000000000e+00 0.0000000000000000e+00  0.0000000000000000e+00 0.0000000000000000e+00 0.0000000000000000e+00  0.0000000000000000e+00 0.0000000000000000e+00 0.0000000000000000e+00  0.0000000000000000e+00 0.0000000000000000e+00 0.0000000000000000e+00  0.0000000000000000e+00 0.0000000000000000e+00 0.0000000000000000e+00  0.0000000000000000e+00 0.0000000000000000e+00 0.0000000000000000e+00  0.0000000000000000e+00 0.0000000000000000e+00 0.0000000000000000e+00  0.0000000000000000e+00 0.0000000000000000e+00 0.0000000000000000e+00  0.0000000000000000e+00 0.0000000000000000e+00 0.0000000000000000e+00  0.0000000000000000e+00 0.0000000000000000e+00 0.0000000000000000e+00  0.0000000000000000e+00 0.0000000000000000e+00 0.0000000000000000e+00  0.0000000000000000e+00 0.0000000000000000e+00 0.0000000000000000e+00  0.0000000000000000e+00 0.0000000000000000e+00 0.0000000000000000e+00  0.0000000000000000e+00 0.0000000000000000e+00 0.0000000000000000e+00  0.0000000000000000e+00 0.0000000000000000e+00 0.0000000000000000e+00  0.0000000000000000e+00 0.0000000000000000e+00 0.0000000000000000e+00  0.0000000000000000e+00 0.0000000000000000e+00 0.0000000000000000e+00  0.0000000000000000e+00 0.0000000000000000e+00 0.0000000000000000e+00  0.0000000000000000e+00 0.0000000000000000e+00 0.0000000000000000e+00  0.0000000000000000e+00 0.0000000000000000e+00 0.0000000000000000e+00  0.0000000000000000e+00 0.0000000000000000e+00 0.0000000000000000e+00  0.0000000000000000e+00 0.0000000000000000e+00 0.0000000000000000e+00  0.0000000000000000e+00 0.0000000000000000e+00 0.0000000000000000e+00  0.0000000000000000e+00 0.0000000000000000e+00 0.0000000000000000e+00  0.0000000000000000e+00 0.0000000000000000e+00 0.0000000000000000e+00  0.0000000000000000e+00 0.0000000000000000e+00 0.0000000000000000e+00  0.0000000000000000e+00 0.0000000000000000e+00 0.0000000000000000e+00  0.0000000000000000e+00 0.0000000000000000e+00 0.0000000000000000e+00  0.0000000000000000e+00 0.0000000000000000e+00 0.0000000000000000e+00  0.0000000000000000e+00 0.0000000000000000e+00 0.0000000000000000e+00  0.0000000000000000e+00 0.0000000000000000e+00 0.0000000000000000e+00  0.0000000000000000e+00 0.0000000000000000e+00 0.0000000000000000e+00  0.0000000000000000e+00 0.0000000000000000e+00 0.0000000000000000e+00  0.0000000000000000e+00 0.0000000000000000e+00 0.0000000000000000e+00  0.0000000000000000e+00 0.0000000000000000e+00 0.0000000000000000e+00  0.0000000000000000e+00 0.0000000000000000e+00 0.0000000000000000e+00  0.0000000000000000e+00 0.0000000000000000e+00 0.0000000000000000e+00  0.0000000000000000e+00 0.0000000000000000e+00 0.0000000000000000e+00  0.0000000000000000e+00 0.0000000000000000e+00 0.0000000000000000e+00  0.0000000000000000e+00 0.0000000000000000e+00 0.0000000000000000e+00  0.0000000000000000e+00 0.0000000000000000e+00 0.0000000000000000e+00  0.0000000000000000e+00 0.0000000000000000e+00 0.0000000000000000e+00  0.0000000000000000e+00 0.0000000000000000e+00 0.0000000000000000e+00  0.0000000000000000e+00 0.0000000000000000e+00 0.0000000000000000e+00  0.0000000000000000e+00 0.0000000000000000e+00 0.0000000000000000e+00  0.0000000000000000e+00 0.0000000000000000e+00 0.0000000000000000e+00  0.0000000000000000e+00 0.0000000000000000e+00 0.0000000000000000e+00  0.0000000000000000e+00 0.0000000000000000e+00 0.0000000000000000e+00  0.0000000000000000e+00 0.0000000000000000e+00 0.0000000000000000e+00  0.0000000000000000e+00 0.0000000000000000e+00 0.0000000000000000e+00  0.0000000000000000e+00 0.0000000000000000e+00 0.0000000000000000e+00  0.0000000000000000e+00 0.0000000000000000e+00 0.0000000000000000e+00  0.0000000000000000e+00 0.0000000000000000e+00 0.0000000000000000e+00  0.0000000000000000e+00 0.0000000000000000e+00 0.0000000000000000e+00  0.0000000000000000e+00 0.0000000000000000e+00 0.0000000000000000e+00  0.0000000000000000e+00 0.0000000000000000e+00 0.0000000000000000e+00  0.0000000000000000e+00 0.0000000000000000e+00 0.0000000000000000e+00  0.0000000000000000e+00 0.0000000000000000e+00 0.0000000000000000e+00  0.0000000000000000e+00 0.0000000000000000e+00 0.0000000000000000e+00  0.0000000000000000e+00 0.0000000000000000e+00 0.0000000000000000e+00  0.0000000000000000e+00 0.0000000000000000e+00 0.0000000000000000e+00  0.0000000000000000e+00 0.0000000000000000e+00 0.0000000000000000e+00  0.0000000000000000e+00 0.0000000000000000e+00 0.0000000000000000e+00  0.0000000000000000e+00 0.0000000000000000e+00 0.0000000000000000e+00  0.0000000000000000e+00 0.0000000000000000e+00 0.0000000000000000e+00  0.0000000000000000e+00 0.0000000000000000e+00 0.0000000000000000e+00  0.0000000000000000e+00 0.0000000000000000e+00 0.0000000000000000e+00  0.0000000000000000e+00 0.0000000000000000e+00 0.0000000000000000e+00  0.0000000000000000e+00 0.0000000000000000e+00 0.0000000000000000e+00  0.0000000000000000e+00 0.0000000000000000e+00 0.0000000000000000e+00  0.0000000000000000e+00 0.0000000000000000e+00 0.0000000000000000e+00  0.0000000000000000e+00 0.0000000000000000e+00 0.0000000000000000e+00  0.0000000000000000e+00 0.0000000000000000e+00 0.0000000000000000e+00  0.0000000000000000e+00 0.0000000000000000e+00 0.0000000000000000e+00  0.0000000000000000e+00 0.0000000000000000e+00 0.0000000000000000e+00  0.0000000000000000e+00 0.0000000000000000e+00 0.0000000000000000e+00  0.0000000000000000e+00 0.0000000000000000e+00 0.0000000000000000e+00  0.0000000000000000e+00 0.0000000000000000e+00 0.0000000000000000e+00  0.0000000000000000e+00 0.0000000000000000e+00 0.0000000000000000e+00  0.0000000000000000e+00 0.0000000000000000e+00 0.0000000000000000e+00  0.0000000000000000e+00 0.0000000000000000e+00 0.0000000000000000e+00  0.0000000000000000e+00 0.0000000000000000e+00 0.0000000000000000e+00  0.0000000000000000e+00 0.0000000000000000e+00 0.0000000000000000e+00  0.0000000000000000e+00 0.0000000000000000e+00 0.0000000000000000e+00  0.0000000000000000e+00 0.0000000000000000e+00 0.0000000000000000e+00  0.0000000000000000e+00 0.0000000000000000e+00 0.0000000000000000e+00  0.0000000000000000e+00 0.0000000000000000e+00 0.0000000000000000e+00  -8.0131301233069127e-06 7.0162452215719678e-06 0.0000000000000000e+00  -1.6830655159905212e-05 1.6218377445084624e-05 0.0000000000000000e+00  -2.4447929820544993e-05 3.0793370620741353e-05 0.0000000000000000e+00  -3.2417242165221352e-05 5.1029729843502320e-05 0.0000000000000000e+00  -3.8931733369115717e-05 7.5718204910272746e-05 0.0000000000000000e+00  -4.6005081860943931e-05 1.0523911027939267e-04 0.0000000000000000e+00  -5.1591767150021786e-05 1.3816924918710961e-04 0.0000000000000000e+00  -5.6814865154651419e-05 1.7544829102970780e-04 0.0000000000000000e+00  -6.2545347736961518e-05 2.1588898225958903e-04 0.0000000000000000e+00  -6.6804526767171447e-05 2.5945564756203461e-04 0.0000000000000000e+00  -7.1693936716410621e-05 3.0601981936240023e-04 0.0000000000000000e+00  -7.5280694372858743e-05 3.5511448357751296e-04 0.0000000000000000e+00  -7.9222432168318582e-05 4.0658645732166184e-04 0.0000000000000000e+00  -8.2273773416280635e-05 4.5985171131992261e-04 0.0000000000000000e+00  -8.5058007757800883e-05 5.1520207262906951e-04 0.0000000000000000e+00  -8.7981541101730680e-05 5.7201701347305651e-04 0.0000000000000000e+00  -9.0134894352864690e-05 6.3019665715427563e-04 0.0000000000000000e+00  -9.2449665303578893e-05 6.8965526792351688e-04 0.0000000000000000e+00  -9.4140884501662617e-05 7.5006515184816290e-04 0.0000000000000000e+00  -9.5901216454870333e-05 8.1136055278117436e-04 0.0000000000000000e+00  -9.7253184627316093e-05 8.7333249915937669e-04 0.0000000000000000e+00  -9.8548786010263148e-05 9.3592417040792701e-04 0.0000000000000000e+00  -9.9577714363606272e-05 9.9888331640523307e-04 0.0000000000000000e+00  -1.0046754569902001e-04 1.0622563800804037e-03 0.0000000000000000e+00  -1.0131273962947443e-04 1.1258660337351018e-03 0.0000000000000000e+00  -1.0198147925809225e-04 1.1896702172863162e-03 0.0000000000000000e+00  -1.0256819021068848e-04 1.2536347394437083e-03 0.0000000000000000e+00  -1.0306123789086592e-04 1.3176346871483164e-03 0.0000000000000000e+00  -1.0348460416068749e-04 1.3816951469241389e-03 0.0000000000000000e+00  -1.0384921064524401e-04 1.4457228979991102e-03 0.0000000000000000e+00  -1.0415971911594636e-04 1.5097323436105196e-03 0.0000000000000000e+00  -1.0443674386305462e-04 1.5736621034310337e-03 0.0000000000000000e+00  -1.0467698258096666e-04 1.6375227340014115e-03 0.0000000000000000e+00  -1.0490153083160064e-04 1.7012797226141055e-03 0.0000000000000000e+00  -1.0510218530918817e-04 1.7649448907839228e-03 0.0000000000000000e+00  -1.0530770431481678e-04 1.8285094460844329e-03 0.0000000000000000e+00  -1.0550473231832109e-04 1.8919759608101742e-03 0.0000000000000000e+00  -1.0571767310393619e-04 1.9553585039574087e-03 0.0000000000000000e+00  -1.0593265192758162e-04 2.0186545424833286e-03 0.0000000000000000e+00  -1.0617197772051541e-04 2.0818942138872828e-03 0.0000000000000000e+00  -1.0642334921614678e-04 2.1450660090746175e-03 0.0000000000000000e+00  -1.0670359800689830e-04 2.2082074764122007e-03 0.0000000000000000e+00  -1.0700245381783505e-04 2.2713158853891330e-03 0.0000000000000000e+00  -1.0731328592614187e-04 2.3344119487605109e-03 0.0000000000000000e+00  -1.0765395342725279e-04 2.3975099562957686e-03 0.0000000000000000e+00  -1.0799854650126758e-04 2.4605942542740909e-03 0.0000000000000000e+00  -6.6209942039534286e-05 2.5239478663422283e-03 0.0000000000000000e+00  1.8270820308296075e-05 2.5245949999668799e-03 0.0000000000000000e+00  6.0964303012747836e-05 2.4617699371975365e-03 0.0000000000000000e+00  6.1320971488912240e-05 2.3986903104458901e-03 0.0000000000000000e+00  6.1682974669766293e-05 2.3356202976421974e-03 0.0000000000000000e+00  6.2046333426428552e-05 2.2725311254501797e-03 0.0000000000000000e+00  6.2410706595707177e-05 2.2094245040909228e-03 0.0000000000000000e+00  6.2785570458684538e-05 2.1462812042560005e-03 0.0000000000000000e+00  6.3181062805092470e-05 2.0830952789060871e-03 0.0000000000000000e+00  6.3572863717214362e-05 2.0198537440319392e-03 0.0000000000000000e+00  6.3998665149485857e-05 1.9565373676592116e-03 0.0000000000000000e+00  6.4412367749738301e-05 1.8931390100409586e-03 0.0000000000000000e+00  6.4865176509116713e-05 1.8296472117588416e-03 0.0000000000000000e+00  6.5299626126236402e-05 1.7660565509656013e-03 0.0000000000000000e+00  6.5770723285212012e-05 1.7023626062651063e-03 0.0000000000000000e+00  6.6214380054995870e-05 1.6385691655488692e-03 0.0000000000000000e+00  6.6680198283442798e-05 1.5746764272154094e-03 0.0000000000000000e+00  6.7113612897316157e-05 1.5107035435401321e-03 0.0000000000000000e+00  6.7545465462733899e-05 1.4466574542052627e-03 0.0000000000000000e+00  6.7946067524728433e-05 1.3825747918232844e-03 0.0000000000000000e+00  6.8310503118272902e-05 1.3184716848937158e-03 0.0000000000000000e+00  6.8650489478945116e-05 1.2544040740134408e-03 0.0000000000000000e+00  6.8901458637855284e-05 1.1903940228624313e-03 0.0000000000000000e+00  6.9141925946679297e-05 1.1265225760276032e-03 0.0000000000000000e+00  6.9226714265868027e-05 1.0628346730281388e-03 0.0000000000000000e+00  6.9297369301937105e-05 9.9938993502151968e-04 0.0000000000000000e+00  6.9279002435357050e-05 9.3636046082961580e-04 0.0000000000000000e+00  6.9034205118958606e-05 8.7367509348188117e-04 0.0000000000000000e+00  6.8727485637595399e-05 8.1164019948229416e-04 0.0000000000000000e+00  6.8166499794355734e-05 7.5022840471657300e-04 0.0000000000000000e+00  6.7509567127087161e-05 6.8974287952050929e-04 0.0000000000000000e+00  6.6538251096056185e-05 6.3018833463959398e-04 0.0000000000000000e+00  6.5460689151256799e-05 5.7184850084046580e-04 0.0000000000000000e+00  6.3814639551595950e-05 5.1502750749237152e-04 0.0000000000000000e+00  6.2312076494345142e-05 4.5954902336731558e-04 0.0000000000000000e+00  6.0568192769969773e-05 4.0621349724115385e-04 0.0000000000000000e+00  5.8074711582701718e-05 3.5447545090637613e-04 0.0000000000000000e+00  5.5568057662495568e-05 3.0535502662480804e-04 0.0000000000000000e+00  5.2452800765076567e-05 2.5865155809754570e-04 0.0000000000000000e+00  4.9275626775532441e-05 2.1483613620544955e-04 0.0000000000000000e+00  4.5049141614184004e-05 1.7446600417322315e-04 0.0000000000000000e+00  4.1283305555557511e-05 1.3701501910279179e-04 0.0000000000000000e+00  3.7194593793598733e-05 1.0398134194147097e-04 0.0000000000000000e+00  3.1736824217477623e-05 7.4216949697202372e-05 0.0000000000000000e+00  2.6572783170949441e-05 4.9334015113579461e-05 0.0000000000000000e+00  2.0094451858906623e-05 2.9272893832591991e-05 0.0000000000000000e+00  1.4136937092474905e-05 1.4564183215029904e-05 0.0000000000000000e+00  6.7443246713787899e-06 5.3567280952756489e-06 0.0000000000000000e+00  -9.5414354511074425e-07 6.7883873456288976e-06 0.0000000000000000e+00  -2.4489134942594834e-05 2.4294924613608064e-03 0.0000000000000000e+00  -2.4441344438227033e-05 2.3089314693972699e-03 0.0000000000000000e+00  -2.2628294113696343e-05 2.1118591795798907e-03 0.0000000000000000e+00  -2.4540171234270462e-06 3.6161077824345155e-05 0.0000000000000000e+00  -2.1050752947979106e-05 1.9876566306354995e-03 0.0000000000000000e+00  -3.4597775539915928e-06 8.3898331663595461e-05 0.0000000000000000e+00  -2.0411386645736452e-05 1.8608854314374767e-03 0.0000000000000000e+00  -5.5067083393054028e-06 1.9420845845432712e-04 0.0000000000000000e+00  -7.6093876554944938e-06 2.8025749139017650e-04 0.0000000000000000e+00  -1.9756822767838491e-05 1.7337319398331690e-03 0.0000000000000000e+00  -9.9266924556928844e-06 5.4472222093740323e-04 0.0000000000000000e+00  -1.8352981691720569e-05 1.4782345418682078e-03 0.0000000000000000e+00  -8.0359857440625735e-06 3.7463644762758671e-04 0.0000000000000000e+00  -1.2135848910555312e-05 6.5907033658807121e-04 0.0000000000000000e+00  -1.7583830474267670e-05 1.3500760965411761e-03 0.0000000000000000e+00  -1.9074078649494287e-05 1.6061663808485077e-03 0.0000000000000000e+00  -1.3291490136096432e-05 7.8019091688055753e-04 0.0000000000000000e+00  -1.6754611527145998e-05 1.2219348321880928e-03 0.0000000000000000e+00  -1.3242598981168770e-05 8.9932151746160939e-04 0.0000000000000000e+00  -1.6962903598108400e-05 1.0968005862691023e-03 0.0000000000000000e+00  -1.5066716912419784e-05 9.9376237681485582e-04 0.0000000000000000e+00  -1.0035209616726245e-05 4.5404783443497095e-04 0.0000000000000000e+00  -2.2058314570911801e-05 2.2143576347356943e-03 0.0000000000000000e+00  -5.0135061077719619e-06 1.3287571463734555e-04 0.0000000000000000e+00  5.2177453155743309e-06 2.3689852120824038e-03 0.0000000000000000e+00  5.1141390029684218e-06 1.8827325844091670e-05 0.0000000000000000e+00  3.9660753782038134e-06 1.9244781797228452e-03 0.0000000000000000e+00  3.2734439155391174e-06 2.0510911885458366e-03 0.0000000000000000e+00  -1.4577355724764086e-05 5.9441328430141091e-05 0.0000000000000000e+00  -2.3730035486827996e-05 2.3528658465592409e-04 0.0000000000000000e+00  6.1760617911273150e-06 1.5423799593793895e-03 0.0000000000000000e+00  4.6789697131697328e-06 1.7975157655107123e-03 0.0000000000000000e+00  -3.4079615314221907e-05 6.0018129000132144e-04 0.0000000000000000e+00  6.9496500677333153e-06 1.4143028200603940e-03 0.0000000000000000e+00  -2.7164564403738236e-05 3.2863675199556482e-04 0.0000000000000000e+00  -3.6126869461164361e-05 7.1924610446606871e-04 0.0000000000000000e+00  7.7284225781941568e-06 1.2861082192372709e-03 0.0000000000000000e+00  5.4167365246330861e-06 1.6701479401866320e-03 0.0000000000000000e+00  -4.3151395287606210e-05 8.4130172485002367e-04 0.0000000000000000e+00  8.4999857051054184e-06 1.1580941701597965e-03 0.0000000000000000e+00  -1.6134804045755470e-06 1.7754389908957381e-06 0.0000000000000000e+00  8.2114959236495851e-07 1.2586888224134696e-06 0.0000000000000000e+00  -4.4249376203409993e-05 2.4789699826895878e-03 0.0000000000000000e+00  -9.2337373435933134e-06 1.9496588978426368e-05 0.0000000000000000e+00  1.4950102516389174e-05 1.0449450897991955e-03 0.0000000000000000e