<?xml version="1.0"?>
<VTKFile type="UnstructuredGrid"  version="0.1"  >
<UnstructuredGrid>
<Piece  NumberOfPoints="1419" NumberOfCells="2698">
<Points>
<DataArray  type="Float64"  NumberOfComponents="3"  format="ascii">0 0 0  0 0.41 0  2.5 0 0  2.5 0.41 0  0.6 0.19 0  0.6 0.21 0  0.25 0.2 0  0.15 0.2 0  0.2489897948556636 0.21 0  0.2489897948556636 0.19 0  0.6 0.2 0  0 0.3807142857143437 0  0 0.3514285714286952 0  0 0.3221428571430699 0  0 0.29285714285744 0  0 0.2635714285718054 0  0 0.2342857142861561 0  0 0.2050000000005308 0  0 0.175714285714732 0  0 0.1464285714289574 0  0 0.1171428571431897 0  0 0.08785714285737878 0  0 0.05857142857161107 0  0 0.02928571428580012 0  0.03015443760436003 0 0  0.06140001986583606 0 0  0.09377624077125973 0 0  0.1273239957535082 0 0  0.1620856860351972 0 0  0.1981052433264291 0 0  0.235428184091502 0 0  0.2741016576309132 0 0  0.3141745521465447 0 0  0.3556974926295285 0 0  0.3987229542472677 0 0  0.4433053055141081 0 0  0.4895008759286886 0 0  0.5373680609405097 0 0  0.5869673343216626 0 0  0.6383613676634521 0 0  0.6916151138468254 0 0  0.7467958595648856 0 0  0.8039733463919316 0 0  0.8632198139502143 0 0  0.9246101326867038 0 0  0.9882218810934433 0 0  1.054135445558498 0 0  1.122434100542598 0 0  1.193204177141305 0 0  1.266535089879536 0 0  1.342519516046404 0 0  1.421253448503939 0 0  1.502836389106271 0 0  1.587371439758838 0 0  1.674965418777374 0 0  1.765729001825544 0 0  1.859776908880082 0 0  1.957227977487062 0 0  2.058205329869943 0 0  2.162836591189951 0 0  2.271253957290865 0 0  2.383594446803425 0 0  2.5 0.1024999999997612 0  2.5 0.2049999999994743 0  2.5 0.3074999999997183 0  2.383594446803656 0.41 0  2.271253957291315 0.41 0  2.162836591190598 0.41 0  2.058205329870775 0.41 0  1.957227977488067 0.41 0  1.859776908881246 0.41 0  1.765729001826854 0.41 0  1.674965418778818 0.41 0  1.58737143976041 0.41 0  1.502836389107956 0.41 0  1.421253448505726 0.41 0  1.342519516048286 0.41 0  1.266535089881505 0.41 0  1.193204177143353 0.41 0  1.122434100544716 0.41 0  1.05413544556068 0.41 0  0.9882218810956305 0.41 0  0.9246101326886647 0.41 0  0.8632198139519631 0.41 0  0.8039733463934788 0.41 0  0.7467958595662458 0.41 0  0.6916151138480078 0.41 0  0.6383613676644679 0.41 0  0.5869673343225223 0.41 0  0.5373680609412221 0.41 0  0.4895008759292634 0.41 0  0.4433053055145528 0.41 0  0.3987229542475914 0.41 0  0.3556974926297398 0.41 0  0.3141745521466497 0.41 0  0.2741016576310038 0.41 0  0.2354281840915826 0.41 0  0.1981052433265003 0.41 0  0.1620856860352591 0.41 0  0.1273239957535623 0.41 0  0.09377624077128965 0.41 0  0.06140001986584975 0.41 0  0.03015443760436654 0.41 0  0.2497468076502589 0.2050254481002335 0  0.2497468076502614 0.1949745518997913 0  0.2469965252529372 0.1829317073451959 0  0.2439893735792749 0.1762316384219906 0  0.2400332147834255 0.1700443375285386 0  0.2352133972704371 0.1645032867342007 0  0.2296339016332438 0.1597280261969788 0  0.2234150974217223 0.1558215752574715 0  0.2166911463437691 0.1528682099456123 0  0.2096071079204251 0.1509316448471593 0  0.2023158100364996 0.1500536585536553 0  0.194974551899914 0.1502531923497262 0  0.1877417105387872 0.1515259415822739 0  0.1807733240461124 0.153844448527136 0  0.1742197252835808 0.15715869474974 0  0.1682222986673531 0.1613971801805478 0  0.162910430003803 0.1664684656256651 0  0.1583987151779087 0.1722631454351573 0  0.1547844879126891 0.178656207771761 0  0.1521457199348551 0.1855097315605723 0  0.1505393388476355 0.1926758619366523 0  0.1505393388476328 0.2073241380633295 0  0.1521457199348437 0.2144902684393899 0  0.1547844879126531 0.221343792228163 0  0.1583987151778488 0.2277368545647528 0  0.1629104300036858 0.2335315343742052 0  0.1682222986671726 0.2386028198193036 0  0.1742197252833576 0.2428413052501257 0  0.1807733240458683 0.2461555514727623 0  0.1877417105384929 0.2484740584176516 0  0.1949745518995776 0.2497468076502398 0  0.202315810036185 0.2499463414463592 0  0.2096071079201568 0.2490683551528932 0  0.2166911463435495 0.2471317900544655 0  0.2234150974215506 0.2441784247426195 0  0.2296339016331197 0.2402719738031125 0  0.2352133972703547 0.2354967132658811 0  0.2400332147833751 0.2299556624715287 0  0.2439893735792577 0.2237683615780412 0  0.246996525252926 0.2170682926548348 0  0.25645809709277 0.21 0  0.2639263993298655 0.21 0  0.271394701566961 0.21 0  0.2788630038040554 0.21 0  0.2863313060411479 0.21 0  0.2937996082782405 0.21 0  0.301267910515333 0.21 0  0.3087362127524279 0.21 0  0.3162045149895234 0.21 0  0.3236728172265972 0.21 0  0.3311411194636928 0.21 0  0.3386094217007701 0.21 0  0.3460777239378666 0.21 0  0.3535460261749672 0.21 0  0.3610143284120516 0.21 0  0.3684826306491596 0.21 0  0.3759509328862226 0.21 0  0.383419235123329 0.21 0  0.3908875373604028 0.21 0  0.3983558395975142 0.21 0  0.4058241418345938 0.21 0  0.4132924440716992 0.21 0  0.4207607463087888 0.21 0  0.4282290485459029 0.21 0  0.4356973507830418 0.21 0  0.4431656530201649 0.21 0  0.4506339552573136 0.21 0  0.4581022574944306 0.21 0  0.4655705597315852 0.21 0  0.4730388619686996 0.21 0  0.480507164205851 0.21 0  0.4879754664429498 0.21 0  0.4954437686800938 0.21 0  0.502912070917267 0.21 0  0.5103803731544119 0.21 0  0.5178486753915261 0.21 0  0.5253169776286404 0.21 0  0.5327852798657868 0.21 0  0.5402535821029386 0.21 0  0.54772188434007 0.21 0  0.5551901865771842 0.21 0  0.5626584888143201 0.21 0  0.5701267910514778 0.21 0  0.5775950932886138 0.21 0  0.5850633955257281 0.21 0  0.5925316977628483 0.21 0  0.6 0.2050000000000054 0  0.6 0.1950000000000217 0  0.5925316977628897 0.19 0  0.5850633955257988 0.19 0  0.5775950932887378 0.19 0  0.5701267910515998 0.19 0  0.5626584888145268 0.19 0  0.5551901865773963 0.19 0  0.547721884340339 0.19 0  0.5402535821032429 0.19 0  0.5327852798661811 0.19 0  0.5253169776290537 0.19 0  0.5178486753919799 0.19 0  0.5103803731549078 0.19 0  0.502912070917822 0.19 0  0.4954437686807294 0.19 0  0.4879754664436223 0.19 0  0.4805071642065402 0.19 0  0.4730388619694271 0.19 0  0.4655705597323621 0.19 0  0.4581022574952563 0.19 0  0.4506339552581777 0.19 0  0.4431656530210671 0.19 0  0.4356973507839815 0.19 0  0.4282290485468779 0.19 0  0.4207607463097617 0.19 0  0.4132924440726327 0.19 0  0.4058241418354857 0.19 0  0.3983558395983636 0.19 0  0.3908875373612097 0.19 0  0.3834192351240934 0.19 0  0.3759509328869369 0.19 0  0.3684826306498175 0.19 0  0.361014328412667 0.19 0  0.3535460261755617 0.19 0  0.3460777239384295 0.19 0  0.3386094217012945 0.19 0  0.3311411194641595 0.19 0  0.3236728172270245 0.19 0  0.3162045149898895 0.19 0  0.3087362127527544 0.19 0  0.3012679105156187 0.19 0  0.2937996082784807 0.19 0  0.2863313060413428 0.19 0  0.2788630038042048 0.19 0  0.2713947015670686 0.19 0  0.2639263993299336 0.19 0  0.2564580970927985 0.19 0  0.2607803159922026 0.2000727136295815 0  0.5887803774232762 0.2001272386983733 0  0.5745072403740523 0.2002044435018727 0  0.5511891430099709 0.2001122610077113 0  0.2751288526855082 0.20000000000002 0  0.5365194309847112 0.1999999999999436 0  0.2894621222999649 0.1998691686390484 0  0.5215828265105155 0.1999999999999228 0  0.3127789816668748 0.1998657885438805 0  0.3274069683451451 0.2000000000000796 0  0.5066462220363641 0.199999999999908 0  0.3650630746574081 0.199866017807523 0  0.476773013087985 0.1999999999998713 0  0.3417402379596385 0.1998691686391011 0  0.3796850840047755 0.200000000000134 0  0.4618364086138087 0.1999999999998546 0  0.4917096175621762 0.1999999999998808 0  0.3946216884789568 0.2000000000001512 0  0.446899804139621 0.1999999999998389 0  0.4089549580935208 0.1998691686391595 0  0.4322718174608562 0.200127451265745 0  0.4201487168029707 0.1999966199048527 0  0.3528922713220932 0.2000185703532356 0  0.5633122436674589 0.1999814296467508 0  0.3006558810093873 0.1999966199048318 0  0.5815926498168407 0.1966545283159175 0  0.2677053789419034 0.1964246479135325 0  0.5290511287476175 0.1970915826863981 0  0.5439877332217911 0.197091582686394 0  0.2825131256993216 0.2035478995978015 0  0.3199386661080599 0.202908417313604 0  0.4842413153250809 0.1970915826863873 0  0.5141145242734466 0.1970915826863843 0  0.3722167817676917 0.2029084173136195 0  0.4693047108508938 0.1970915826863783 0  0.3348752705822316 0.202908417313609 0  0.3871533862418661 0.2029084173136212 0  0.4543681063767183 0.1970915826863795 0  0.4991779197992749 0.1970915826863902 0  0.4020059614928624 0.203547899597858 0  0.4394315019025246 0.1970915826863714 0  0.2550657455369551 0.2034088125358657 0  0.2548908499171161 0.1966940311614271 0  0.5946539510196798 0.2024302972968126 0  0.267698176732111 0.2039977513680092 0  0.4261685417851465 0.196409292431739 0  0.3590076176283495 0.196411355804271 0  0.5571672426447437 0.2036011176410121 0  0.3066757059912147 0.1964092924317024 0  0.594380730180568 0.1966558399668133 0  0.4842413153245942 0.2040749161535287 0  0.4693047108503577 0.2040749161535231 0  0.3871533862424271 0.1959250838464788 0  0.372246743208829 0.1959123236376545 0  0.5141145242731028 0.2040749161535395 0  0.4543681063761134 0.2040749161535186 0  0.4019979587101454 0.1959834479682427 0  0.4394608940728603 0.2040870543693135 0  0.5439623148931173 0.2040856076781014 0  0.5290511287473298 0.2040749161535501 0  0.4991779197988497 0.2040749161535382 0  0.3347912413592433 0.1959225448935183 0  0.3199680582793816 0.1959123018030061 0  0.2825051229162361 0.1959834479681729 0  0.3590471196690275 0.2036304442587945 0  0.5571594006495384 0.1963685282145804 0  0.3067669986803285 0.203627750582736 0  0.4262598344738712 0.2036568242185335 0  0.5814408164431408 0.2041285596160068 0  0.5688286748170428 0.1961819304477386 0  0.4145905603063645 0.2038180695522843 0  0.3473758401724931 0.2038180695522752 0  0.2950977245128307 0.2038180695522663 0  0.5688286748170693 0.203818069552238 0  0.2950977245127906 0.1961819304477774 0  0.3473758401723931 0.1961819304478349 0  0.4145905603061963 0.1961819304479011 0  0.2601812407614425 0.2056861609747042
[...]
<PointData  Vectors="f_40-1"> 
<DataArray  type="Float64"  Name="f_40-1"  NumberOfComponents="3" format="ascii">0.0000000000000000e+00 0.0000000000000000e+00 0.0000000000000000e+00  0.0000000000000000e+00 0.0000000000000000e+00 0.0000000000000000e+00  0.0000000000000000e+00 0.0000000000000000e+00 0.0000000000000000e+00  0.0000000000000000e+00 0.0000000000000000e+00 0.0000000000000000e+00  5.6154584968519260e-05 2.4331007971081149e-03 0.0000000000000000e+00  -1.0550252159452108e-04 2.4316306602636495e-03 0.0000000000000000e+00  0.0000000000000000e+00 0.0000000000000000e+00 0.0000000000000000e+00  0.0000000000000000e+00 0.0000000000000000e+00 0.0000000000000000e+00  0.0000000000000000e+00 0.0000000000000000e+00 0.0000000000000000e+00  0.0000000000000000e+00 0.0000000000000000e+00 0.0000000000000000e+00  -2.4856921083528324e-05 2.4323643263969436e-03 0.0000000000000000e+00  0.0000000000000000e+00 0.0000000000000000e+00 0.0000000000000000e+00  0.0000000000000000e+00 0.0000000000000000e+00 0.0000000000000000e+00  0.0000000000000000e+00 0.0000000000000000e+00 0.0000000000000000e+00  0.0000000000000000e+00 0.0000000000000000e+00 0.0000000000000000e+00  0.0000000000000000e+00 0.0000000000000000e+00 0.0000000000000000e+00  0.0000000000000000e+00 0.0000000000000000e+00 0.0000000000000000e+00  0.0000000000000000e+00 0.0000000000000000e+00 0.0000000000000000e+00  0.0000000000000000e+00 0.0000000000000000e+00 0.0000000000000000e+00  0.0000000000000000e+00 0.0000000000000000e+00 0.0000000000000000e+00  0.0000000000000000e+00 0.0000000000000000e+00 0.0000000000000000e+00  0.0000000000000000e+00 0.0000000000000000e+00 0.0000000000000000e+00  0.0000000000000000e+00 0.0000000000000000e+00 0.0000000000000000e+00  0.0000000000000000e+00 0.0000000000000000e+00 0.0000000000000000e+00  0.0000000000000000e+00 0.0000000000000000e+00 0.0000000000000000e+00  0.0000000000000000e+00 0.0000000000000000e+00 0.0000000000000000e+00  0.0000000000000000e+00 0.0000000000000000e+00 0.0000000000000000e+00  0.0000000000000000e+00 0.0000000000000000e+00 0.0000000000000000e+00  0.0000000000000000e+00 0.0000000000000000e+00 0.0000000000000000e+00  0.0000000000000000e+00 0.0000000000000000e+00 0.0000000000000000e+00  0.0000000000000000e+00 0.0000000000000000e+00 0.0000000000000000e+00  0.0000000000000000e+00 0.0000000000000000e+00 0.0000000000000000e+00  0.0000000000000000e+00 0.0000000000000000e+00 0.0000000000000000e+00  0.0000000000000000e+00 0.0000000000000000e+00 0.0000000000000000e+00  0.0000000000000000e+00 0.0000000000000000e+00 0.0000000000000000e+00  0.0000000000000000e+00 0.0000000000000000e+00 0.0000000000000000e+00  0.0000000000000000e+00 0.0000000000000000e+00 0.0000000000000000e+00  0.0000000000000000e+00 0.0000000000000000e+00 0.0000000000000000e+00  0.0000000000000000e+00 0.0000000000000000e+00 0.0000000000000000e+00  0.0000000000000000e+00 0.0000000000000000e+00 0.0000000000000000e+00  0.0000000000000000e+00 0.0000000000000000e+00 0.0000000000000000e+00  0.0000000000000000e+00 0.0000000000000000e+00 0.0000000000000000e+00  0.0000000000000000e+00 0.0000000000000000e+00 0.0000000000000000e+00  0.0000000000000000e+00 0.0000000000000000e+00 0.0000000000000000e+00  0.0000000000000000e+00 0.0000000000000000e+00 0.0000000000000000e+00  0.0000000000000000e+00 0.0000000000000000e+00 0.0000000000000000e+00  0.0000000000000000e+00 0.0000000000000000e+00 0.0000000000000000e+00  0.0000000000000000e+00 0.0000000000000000e+00 0.0000000000000000e+00  0.0000000000000000e+00 0.0000000000000000e+00 0.0000000000000000e+00  0.0000000000000000e+00 0.0000000000000000e+00 0.0000000000000000e+00  0.0000000000000000e+00 0.0000000000000000e+00 0.0000000000000000e+00  0.0000000000000000e+00 0.0000000000000000e+00 0.0000000000000000e+00  0.0000000000000000e+00 0.0000000000000000e+00 0.0000000000000000e+00  0.0000000000000000e+00 0.0000000000000000e+00 0.0000000000000000e+00  0.0000000000000000e+00 0.0000000000000000e+00 0.0000000000000000e+00  0.0000000000000000e+00 0.0000000000000000e+00 0.0000000000000000e+00  0.0000000000000000e+00 0.0000000000000000e+00 0.0000000000000000e+00  0.0000000000000000e+00 0.0000000000000000e+00 0.0000000000000000e+00  0.0000000000000000e+00 0.0000000000000000e+00 0.0000000000000000e+00  0.0000000000000000e+00 0.0000000000000000e+00 0.0000000000000000e+00  0.0000000000000000e+00 0.0000000000000000e+00 0.0000000000000000e+00  0.0000000000000000e+00 0.0000000000000000e+00 0.0000000000000000e+00  0.0000000000000000e+00 0.0000000000000000e+00 0.0000000000000000e+00  0.0000000000000000e+00 0.0000000000000000e+00 0.0000000000000000e+00  0.0000000000000000e+00 0.0000000000000000e+00 0.0000000000000000e+00  0.0000000000000000e+00 0.0000000000000000e+00 0.0000000000000000e+00  0.0000000000000000e+00 0.0000000000000000e+00 0.0000000000000000e+00  0.0000000000000000e+00 0.0000000000000000e+00 0.0000000000000000e+00  0.0000000000000000e+00 0.0000000000000000e+00 0.0000000000000000e+00  0.0000000000000000e+00 0.0000000000000000e+00 0.0000000000000000e+00  0.0000000000000000e+00 0.0000000000000000e+00 0.0000000000000000e+00  0.0000000000000000e+00 0.0000000000000000e+00 0.0000000000000000e+00  0.0000000000000000e+00 0.0000000000000000e+00 0.0000000000000000e+00  0.0000000000000000e+00 0.0000000000000000e+00 0.0000000000000000e+00  0.0000000000000000e+00 0.0000000000000000e+00 0.0000000000000000e+00  0.0000000000000000e+00 0.0000000000000000e+00 0.0000000000000000e+00  0.0000000000000000e+00 0.0000000000000000e+00 0.0000000000000000e+00  0.0000000000000000e+00 0.0000000000000000e+00 0.0000000000000000e+00  0.0000000000000000e+00 0.0000000000000000e+00 0.0000000000000000e+00  0.0000000000000000e+00 0.0000000000000000e+00 0.0000000000000000e+00  0.0000000000000000e+00 0.0000000000000000e+00 0.0000000000000000e+00  0.0000000000000000e+00 0.0000000000000000e+00 0.0000000000000000e+00  0.0000000000000000e+00 0.0000000000000000e+00 0.0000000000000000e+00  0.0000000000000000e+00 0.0000000000000000e+00 0.0000000000000000e+00  0.0000000000000000e+00 0.0000000000000000e+00 0.0000000000000000e+00  0.0000000000000000e+00 0.0000000000000000e+00 0.0000000000000000e+00  0.0000000000000000e+00 0.0000000000000000e+00 0.0000000000000000e+00  0.0000000000000000e+00 0.0000000000000000e+00 0.0000000000000000e+00  0.0000000000000000e+00 0.0000000000000000e+00 0.0000000000000000e+00  0.0000000000000000e+00 0.0000000000000000e+00 0.0000000000000000e+00  0.0000000000000000e+00 0.0000000000000000e+00 0.0000000000000000e+00  0.0000000000000000e+00 0.0000000000000000e+00 0.0000000000000000e+00  0.0000000000000000e+00 0.0000000000000000e+00 0.0000000000000000e+00  0.0000000000000000e+00 0.0000000000000000e+00 0.0000000000000000e+00  0.0000000000000000e+00 0.0000000000000000e+00 0.0000000000000000e+00  0.0000000000000000e+00 0.0000000000000000e+00 0.0000000000000000e+00  0.0000000000000000e+00 0.0000000000000000e+00 0.0000000000000000e+00  0.0000000000000000e+00 0.0000000000000000e+00 0.0000000000000000e+00  0.0000000000000000e+00 0.0000000000000000e+00 0.0000000000000000e+00  0.0000000000000000e+00 0.0000000000000000e+00 0.0000000000000000e+00  0.0000000000000000e+00 0.0000000000000000e+00 0.0000000000000000e+00  0.0000000000000000e+00 0.0000000000000000e+00 0.0000000000000000e+00  0.0000000000000000e+00 0.0000000000000000e+00 0.0000000000000000e+00  0.0000000000000000e+00 0.0000000000000000e+00 0.0000000000000000e+00  0.0000000000000000e+00 0.0000000000000000e+00 0.0000000000000000e+00  0.0000000000000000e+00 0.0000000000000000e+00 0.0000000000000000e+00  0.0000000000000000e+00 0.0000000000000000e+00 0.0000000000000000e+00  0.0000000000000000e+00 0.0000000000000000e+00 0.0000000000000000e+00  0.0000000000000000e+00 0.0000000000000000e+00 0.0000000000000000e+00  0.0000000000000000e+00 0.0000000000000000e+00 0.0000000000000000e+00  0.0000000000000000e+00 0.0000000000000000e+00 0.0000000000000000e+00  0.0000000000000000e+00 0.0000000000000000e+00 0.0000000000000000e+00  0.0000000000000000e+00 0.0000000000000000e+00 0.0000000000000000e+00  0.0000000000000000e+00 0.0000000000000000e+00 0.0000000000000000e+00  0.0000000000000000e+00 0.0000000000000000e+00 0.0000000000000000e+00  0.0000000000000000e+00 0.0000000000000000e+00 0.0000000000000000e+00  0.0000000000000000e+00 0.0000000000000000e+00 0.0000000000000000e+00  0.0000000000000000e+00 0.0000000000000000e+00 0.0000000000000000e+00  0.0000000000000000e+00 0.0000000000000000e+00 0.0000000000000000e+00  0.0000000000000000e+00 0.0000000000000000e+00 0.0000000000000000e+00  0.0000000000000000e+00 0.0000000000000000e+00 0.0000000000000000e+00  0.0000000000000000e+00 0.0000000000000000e+00 0.0000000000000000e+00  0.0000000000000000e+00 0.0000000000000000e+00 0.0000000000000000e+00  0.0000000000000000e+00 0.0000000000000000e+00 0.0000000000000000e+00  0.0000000000000000e+00 0.0000000000000000e+00 0.0000000000000000e+00  0.0000000000000000e+00 0.0000000000000000e+00 0.0000000000000000e+00  0.0000000000000000e+00 0.0000000000000000e+00 0.0000000000000000e+00  0.0000000000000000e+00 0.0000000000000000e+00 0.0000000000000000e+00  0.0000000000000000e+00 0.0000000000000000e+00 0.0000000000000000e+00  0.0000000000000000e+00 0.0000000000000000e+00 0.0000000000000000e+00  0.0000000000000000e+00 0.0000000000000000e+00 0.0000000000000000e+00  0.0000000000000000e+00 0.0000000000000000e+00 0.0000000000000000e+00  0.0000000000000000e+00 0.0000000000000000e+00 0.0000000000000000e+00  0.0000000000000000e+00 0.0000000000000000e+00 0.0000000000000000e+00  0.0000000000000000e+00 0.0000000000000000e+00 0.0000000000000000e+00  0.0000000000000000e+00 0.0000000000000000e+00 0.0000000000000000e+00  0.0000000000000000e+00 0.0000000000000000e+00 0.0000000000000000e+00  0.0000000000000000e+00 0.0000000000000000e+00 0.0000000000000000e+00  0.0000000000000000e+00 0.0000000000000000e+00 0.0000000000000000e+00  0.0000000000000000e+00 0.0000000000000000e+00 0.0000000000000000e+00  0.0000000000000000e+00 0.0000000000000000e+00 0.0000000000000000e+00  0.0000000000000000e+00 0.0000000000000000e+00 0.0000000000000000e+00  0.0000000000000000e+00 0.0000000000000000e+00 0.0000000000000000e+00  -7.9006774831636181e-06 6.7530195038237621e-06 0.0000000000000000e+00  -1.6576155513288023e-05 1.5776573104975392e-05 0.0000000000000000e+00  -2.4058756673083988e-05 3.0059160993905451e-05 0.0000000000000000e+00  -3.1869495812594793e-05 4.9879154496904895e-05 0.0000000000000000e+00  -3.8248949869898168e-05 7.4034787865213326e-05 0.0000000000000000e+00  -4.5159642228197651e-05 1.0289393284611191e-04 0.0000000000000000e+00  -5.0616145080974386e-05 1.3506295016208934e-04 0.0000000000000000e+00  -5.5709201838669135e-05 1.7144742647252049e-04 0.0000000000000000e+00  -6.1282243928162392e-05 2.1088970043815327e-04 0.0000000000000000e+00  -6.5423035887530239e-05 2.5334555278931479e-04 0.0000000000000000e+00  -7.0158624278916513e-05 2.9868743088132938e-04 0.0000000000000000e+00  -7.3632485565468302e-05 3.4645247017970016e-04 0.0000000000000000e+00  -7.7433202931888581e-05 3.9649032548676053e-04 0.0000000000000000e+00  -8.0375010628206637e-05 4.4823405834057287e-04 0.0000000000000000e+00  -8.3051970521777339e-05 5.0195355092918744e-04 0.0000000000000000e+00  -8.5849024486785156e-05 5.5705391832045316e-04 0.0000000000000000e+00  -8.7909945411762075e-05 6.1343081927210403e-04 0.0000000000000000e+00  -9.0108775019036251e-05 6.7100057385263744e-04 0.0000000000000000e+00  -9.1718033338947100e-05 7.2944293331092015e-04 0.0000000000000000e+00  -9.3377694921536396e-05 7.8869711227025569e-04 0.0000000000000000e+00  -9.4653807041202004e-05 8.4855557553690716e-04 0.0000000000000000e+00  -9.5863744868229908e-05 9.0896422569045358e-04 0.0000000000000000e+00  -9.6828651184763123e-05 9.6968847704411657e-04 0.0000000000000000e+00  -9.7659143938573837e-05 1.0307599575363614e-03 0.0000000000000000e+00  -9.8438020620667942e-05 1.0920227357313899e-03 0.0000000000000000e+00  -9.9056661785650634e-05 1.1534268408368189e-03 0.0000000000000000e+00  -9.9594841298249065e-05 1.2149448849694854e-03 0.0000000000000000e+00  -1.0004952866513797e-04 1.2764600301376722e-03 0.0000000000000000e+00  -1.0043705844052705e-04 1.3379955669552193e-03 0.0000000000000000e+00  -1.0077507257393774e-04 1.3994677863034097e-03 0.0000000000000000e+00  -1.0106208084531754e-04 1.4608891887715233e-03 0.0000000000000000e+00  -1.0132404999204618e-04 1.5222077106371087e-03 0.0000000000000000e+00  -1.0155270481860904e-04 1.5834318218381897e-03 0.0000000000000000e+00  -1.0177319551362995e-04 1.6445358217923745e-03 0.0000000000000000e+00  -1.0197362239773111e-04 1.7055290913646490e-03 0.0000000000000000e+00  -1.0218534875952884e-04 1.7664109283467681e-03 0.0000000000000000e+00  -1.0239225062088643e-04 1.8271814819924659e-03 0.0000000000000000e+00  -1.0262049744512881e-04 1.8878616848782301e-03 0.0000000000000000e+00  -1.0285429379753115e-04 1.9484465542690839e-03 0.0000000000000000e+00  -1.0311703631695051e-04 2.0089721015946038e-03 0.0000000000000000e+00  -1.0339524481430233e-04 2.0694245497221847e-03 0.0000000000000000e+00  -1.0370577880638320e-04 2.1298454348626619e-03 0.0000000000000000e+00  -1.0403842456859231e-04 2.1902309887442887e-03 0.0000000000000000e+00  -1.0438469309041238e-04 2.2506036013070913e-03 0.0000000000000000e+00  -1.0476434382268739e-04 2.3109783334950220e-03 0.0000000000000000e+00  -1.0514933587393341e-04 2.3713372364673620e-03 0.0000000000000000e+00  -6.5237603991266844e-05 2.4319986849350092e-03 0.0000000000000000e+00  1.5590799534625553e-05 2.4327275699563182e-03 0.0000000000000000e+00  5.6508608675793756e-05 2.3726668234736615e-03 0.0000000000000000e+00  5.6907217178178323e-05 2.3123175428688540e-03 0.0000000000000000e+00  5.7310064360183170e-05 2.2519783113455968e-03 0.0000000000000000e+00  5.7712577731156703e-05 2.1916181771827782e-03 0.0000000000000000e+00  5.8115071342902569e-05 2.1312397260811297e-03 0.0000000000000000e+00  5.8526473539797003e-05 2.0708224730920277e-03 0.0000000000000000e+00  5.8958945867175084e-05 2.0103600154981723e-03 0.0000000000000000e+00  5.9385942555148292e-05 1.9498384911228596e-03 0.0000000000000000e+00  5.9849079401537587e-05 1.8892364658141059e-03 0.0000000000000000e+00  6.0298154394026309e-05 1.8285461530778949e-03 0.0000000000000000e+00  6.0790598492735486e-05 1.7677533685720598e-03 0.0000000000000000e+00  6.1262182334684485e-05 1.7068509332899356e-03 0.0000000000000000e+00  6.1777229837133851e-05 1.6458317562773794e-03 0.0000000000000000e+00  6.2261403166002528e-05 1.5846966682733497e-03 0.0000000000000000e+00  6.2777362328370512e-05 1.5234432209153550e-03 0.0000000000000000e+00  6.3256066755415681e-05 1.4620866465703832e-03 0.0000000000000000e+00  6.3745798218139271e-05 1.4006313278874041e-03 0.0000000000000000e+00  6.4197630685526016e-05 1.3391091846058601e-03 0.0000000000000000e+00  6.4628971429503697e-05 1.2775338687137055e-03 0.0000000000000000e+00  6.5027055409042385e-05 1.2159561363240246e-03 0.0000000000000000e+00  6.5355337048519344e-05 1.1543954191319383e-03 0.0000000000000000e+00  6.5662065704629558e-05 1.0929270641655278e-03 0.0000000000000000e+00  6.5834099419057276e-05 1.0315928331705200e-03 0.0000000000000000e+00  6.5982875380730474e-05 9.7045285488686953e-04 0.0000000000000000e+00  6.6046458476473404e-05 9.0966149132740690e-04 0.0000000000000000e+00  6.5903007207504405e-05 8.4916498013693344e-04 0.0000000000000000e+00  6.5692027920652234e-05 7.8924519880090537e-04 0.0000000000000000e+00  6.5240851859970698e-05 7.2988183572875512e-04 0.0000000000000000e+00  6.4691255181894991e-05 6.7136671404040185e-04 0.0000000000000000e+00  6.3840737613288074e-05 6.1370531238974903e-04 0.0000000000000000e+00  6.2881388495178515e-05 5.5717602122388142e-04 0.0000000000000000e+00  6.1376396388532231e-05 5.0206839361148460e-04 0.0000000000000000e+00  5.9998100175352961e-05 4.4822631614517663e-04 0.0000000000000000e+00  5.8382113404523468e-05 3.9641501160520167e-04 0.0000000000000000e+00  5.6043953220026612e-05 3.4612209719112215e-04 0.0000000000000000e+00  5.3681925447788752e-05 2.9833165926834384e-04 0.0000000000000000e+00  5.0726377218952677e-05 2.5285510674062189e-04 0.0000000000000000e+00  4.7701729426873777e-05 2.1015892795509284e-04 0.0000000000000000e+00  4.3652752769592471e-05 1.7078444902661499e-04 0.0000000000000000e+00  4.0040942085455988e-05 1.3423340667856055e-04 0.0000000000000000e+00  3.6107183954213765e-05 1.0196374742350701e-04 0.0000000000000000e+00  3.0834957389920234e-05 7.2867770054537977e-05 0.0000000000000000e+00  2.5836916670040304e-05 4.8523929666490623e-05 0.0000000000000000e+00  1.9548506112812772e-05 2.8877702174972848e-05 0.0000000000000000e+00  1.3761906879358453e-05 1.4457209442814282e-05 0.0000000000000000e+00  6.5673006084033836e-06 5.4064739433369377e-06 0.0000000000000000e+00  -1.0305785505737791e-06 6.6830755420204999e-06 0.0000000000000000e+00  -2.5230548777508672e-05 2.3416820396265064e-03 0.0000000000000000e+00  -2.5075131715382965e-05 2.2263328555249349e-03 0.0000000000000000e+00  -2.3187329324992840e-05 2.0377689301295967e-03 0.0000000000000000e+00  -2.5433698350566915e-06 3.5483220673443751e-05 0.0000000000000000e+00  -2.1592758648467123e-05 1.9189064351336400e-03 0.0000000000000000e+00  -3.5851987112721170e-06 8.2200812846527764e-05 0.0000000000000000e+00  -2.0901550249681650e-05 1.7975485717926832e-03 0.0000000000000000e+00  -5.6782654247036975e-06 1.8991829801170409e-04 0.0000000000000000e+00  -7.7844801063106546e-06 2.7377434925164899e-04 0.0000000000000000e+00  -2.0201954012387621e-05 1.6757698249878314e-03 0.0000000000000000e+00  -1.0179976081417695e-05 5.3076175717339780e-04 0.0000000000000000e+00  -1.8725869842295585e-05 1.4308210774225472e-03 0.0000000000000000e+00  -8.2549938237536517e-06 3.6560834954594212e-04 0.0000000000000000e+00  -1.2374214752322384e-05 6.4156322495911129e-04 0.0000000000000000e+00  -1.7928001596393518e-05 1.3077842402267619e-03 0.0000000000000000e+00  -1.9480357055883981e-05 1.5535202363260842e-03 0.0000000000000000e+00  -1.3545768432768922e-05 7.5874098664559697e-04 0.0000000000000000e+00  -1.7074321044332885e-05 1.1846233304585447e-03 0.0000000000000000e+00  -1.3550651957517495e-05 8.7381529153045430e-04 0.0000000000000000e+00  -1.7221421627441877e-05 1.0641980144088833e-03 0.0000000000000000e+00  -1.5351023642829914e-05 9.6491023357277660e-04 0.0000000000000000e+00  -1.0239651575353855e-05 4.4276058286210997e-04 0.0000000000000000e+00  -2.2719643061983343e-05 2.1358469492163629e-03 0.0000000000000000e+00  -5.1483680743639317e-06 1.3005468440839093e-04 0.0000000000000000e+00  3.2498230871274003e-06 2.2838276445140732e-03 0.0000000000000000e+00  4.8930079438344546e-06 1.8551965479105591e-05 0.0000000000000000e+00  2.3987627651638756e-06 1.8584664833612024e-03 0.0000000000000000e+00  1.6456659062425815e-06 1.9796520196371332e-03 0.0000000000000000e+00  -1.4427918680809102e-05 5.8219630839172722e-05 0.0000000000000000e+00  -2.3460382509610777e-05 2.2991950376334986e-04 0.0000000000000000e+00  4.7717579629928568e-06 1.4923924876319569e-03 0.0000000000000000e+00  3.1681302968939319e-06 1.7369011915553620e-03 0.0000000000000000e+00  -3.3608482963674012e-05 5.8447678219431302e-04 0.0000000000000000e+00  5.5982355822287469e-06 1.3694966459139697e-03 0.0000000000000000e+00  -2.6836157491194038e-05 3.2082045509328937e-04 0.0000000000000000e+00  -3.5610101707832531e-05 6.9975875590497021e-04 0.0000000000000000e+00  6.4312162275719497e-06 1.2463574233385142e-03 0.0000000000000000e+00  3.9597488277201268e-06 1.6148822759942609e-03 0.0000000000000000e+00  -4.2414753413583404e-05 8.1773751520045079e-04 0.0000000000000000e+00  7.2586034989005189e-06 1.1232419424429979e-03 0.0000000000000000e+00  -1.6432030454863832e-06 1.7211192833951746e-06 0.0000000000000000e+00  7.4355706908048452e-07 1.2774228268355513e-06 0.0000000000000000e+00  -4.4185019028498806e-05 2.3889961166722916e-03 0.0000000000000000e+00  -9.1542111726582317e-06 1.9086349425588938e-05 0.0000000000000000e+00  1.3550692977329951e-05 1.0142925733046609e-03 0.0000000000000000e