<?xml version="1.0"?>
<VTKFile type="UnstructuredGrid"  version="0.1"  >
<UnstructuredGrid>
<Piece  NumberOfPoints="1419" NumberOfCells="2698">
<Points>
<DataArray  type="Float64"  NumberOfComponents="3"  format="ascii">0 0 0  0 0.41 0  2.5 0 0  2.5 0.41 0  0.6 0.19 0  0.6 0.21 0  0.25 0.2 0  0.15 0.2 0  0.2489897948556636 0.21 0  0.2489897948556636 0.19 0  0.6 0.2 0  0 0.3807142857143437 0  0 0.3514285714286952 0  0 0.3221428571430699 0  0 0.29285714285744 0  0 0.2635714285718054 0  0 0.2342857142861561 0  0 0.2050000000005308 0  0 0.175714285714732 0  0 0.1464285714289574 0  0 0.1171428571431897 0  0 0.08785714285737878 0  0 0.05857142857161107 0  0 0.02928571428580012 0  0.03015443760436003 0 0  0.06140001986583606 0 0  0.09377624077125973 0 0  0.1273239957535082 0 0  0.1620856860351972 0 0  0.1981052433264291 0 0  0.235428184091502 0 0  0.2741016576309132 0 0  0.3141745521465447 0 0  0.3556974926295285 0 0  0.3987229542472677 0 0  0.4433053055141081 0 0  0.4895008759286886 0 0  0.5373680609405097 0 0  0.5869673343216626 0 0  0.6383613676634521 0 0  0.6916151138468254 0 0  0.7467958595648856 0 0  0.8039733463919316 0 0  0.8632198139502143 0 0  0.9246101326867038 0 0  0.9882218810934433 0 0  1.054135445558498 0 0  1.122434100542598 0 0  1.193204177141305 0 0  1.266535089879536 0 0  1.342519516046404 0 0  1.421253448503939 0 0  1.502836389106271 0 0  1.587371439758838 0 0  1.674965418777374 0 0  1.765729001825544 0 0  1.859776908880082 0 0  1.957227977487062 0 0  2.058205329869943 0 0  2.162836591189951 0 0  2.271253957290865 0 0  2.383594446803425 0 0  2.5 0.1024999999997612 0  2.5 0.2049999999994743 0  2.5 0.3074999999997183 0  2.383594446803656 0.41 0  2.271253957291315 0.41 0  2.162836591190598 0.41 0  2.058205329870775 0.41 0  1.957227977488067 0.41 0  1.859776908881246 0.41 0  1.765729001826854 0.41 0  1.674965418778818 0.41 0  1.58737143976041 0.41 0  1.502836389107956 0.41 0  1.421253448505726 0.41 0  1.342519516048286 0.41 0  1.266535089881505 0.41 0  1.193204177143353 0.41 0  1.122434100544716 0.41 0  1.05413544556068 0.41 0  0.9882218810956305 0.41 0  0.9246101326886647 0.41 0  0.8632198139519631 0.41 0  0.8039733463934788 0.41 0  0.7467958595662458 0.41 0  0.6916151138480078 0.41 0  0.6383613676644679 0.41 0  0.5869673343225223 0.41 0  0.5373680609412221 0.41 0  0.4895008759292634 0.41 0  0.4433053055145528 0.41 0  0.3987229542475914 0.41 0  0.3556974926297398 0.41 0  0.3141745521466497 0.41 0  0.2741016576310038 0.41 0  0.2354281840915826 0.41 0  0.1981052433265003 0.41 0  0.1620856860352591 0.41 0  0.1273239957535623 0.41 0  0.09377624077128965 0.41 0  0.06140001986584975 0.41 0  0.03015443760436654 0.41 0  0.2497468076502589 0.2050254481002335 0  0.2497468076502614 0.1949745518997913 0  0.2469965252529372 0.1829317073451959 0  0.2439893735792749 0.1762316384219906 0  0.2400332147834255 0.1700443375285386 0  0.2352133972704371 0.1645032867342007 0  0.2296339016332438 0.1597280261969788 0  0.2234150974217223 0.1558215752574715 0  0.2166911463437691 0.1528682099456123 0  0.2096071079204251 0.1509316448471593 0  0.2023158100364996 0.1500536585536553 0  0.194974551899914 0.1502531923497262 0  0.1877417105387872 0.1515259415822739 0  0.1807733240461124 0.153844448527136 0  0.1742197252835808 0.15715869474974 0  0.1682222986673531 0.1613971801805478 0  0.162910430003803 0.1664684656256651 0  0.1583987151779087 0.1722631454351573 0  0.1547844879126891 0.178656207771761 0  0.1521457199348551 0.1855097315605723 0  0.1505393388476355 0.1926758619366523 0  0.1505393388476328 0.2073241380633295 0  0.1521457199348437 0.2144902684393899 0  0.1547844879126531 0.221343792228163 0  0.1583987151778488 0.2277368545647528 0  0.1629104300036858 0.2335315343742052 0  0.1682222986671726 0.2386028198193036 0  0.1742197252833576 0.2428413052501257 0  0.1807733240458683 0.2461555514727623 0  0.1877417105384929 0.2484740584176516 0  0.1949745518995776 0.2497468076502398 0  0.202315810036185 0.2499463414463592 0  0.2096071079201568 0.2490683551528932 0  0.2166911463435495 0.2471317900544655 0  0.2234150974215506 0.2441784247426195 0  0.2296339016331197 0.2402719738031125 0  0.2352133972703547 0.2354967132658811 0  0.2400332147833751 0.2299556624715287 0  0.2439893735792577 0.2237683615780412 0  0.246996525252926 0.2170682926548348 0  0.25645809709277 0.21 0  0.2639263993298655 0.21 0  0.271394701566961 0.21 0  0.2788630038040554 0.21 0  0.2863313060411479 0.21 0  0.2937996082782405 0.21 0  0.301267910515333 0.21 0  0.3087362127524279 0.21 0  0.3162045149895234 0.21 0  0.3236728172265972 0.21 0  0.3311411194636928 0.21 0  0.3386094217007701 0.21 0  0.3460777239378666 0.21 0  0.3535460261749672 0.21 0  0.3610143284120516 0.21 0  0.3684826306491596 0.21 0  0.3759509328862226 0.21 0  0.383419235123329 0.21 0  0.3908875373604028 0.21 0  0.3983558395975142 0.21 0  0.4058241418345938 0.21 0  0.4132924440716992 0.21 0  0.4207607463087888 0.21 0  0.4282290485459029 0.21 0  0.4356973507830418 0.21 0  0.4431656530201649 0.21 0  0.4506339552573136 0.21 0  0.4581022574944306 0.21 0  0.4655705597315852 0.21 0  0.4730388619686996 0.21 0  0.480507164205851 0.21 0  0.4879754664429498 0.21 0  0.4954437686800938 0.21 0  0.502912070917267 0.21 0  0.5103803731544119 0.21 0  0.5178486753915261 0.21 0  0.5253169776286404 0.21 0  0.5327852798657868 0.21 0  0.5402535821029386 0.21 0  0.54772188434007 0.21 0  0.5551901865771842 0.21 0  0.5626584888143201 0.21 0  0.5701267910514778 0.21 0  0.5775950932886138 0.21 0  0.5850633955257281 0.21 0  0.5925316977628483 0.21 0  0.6 0.2050000000000054 0  0.6 0.1950000000000217 0  0.5925316977628897 0.19 0  0.5850633955257988 0.19 0  0.5775950932887378 0.19 0  0.5701267910515998 0.19 0  0.5626584888145268 0.19 0  0.5551901865773963 0.19 0  0.547721884340339 0.19 0  0.5402535821032429 0.19 0  0.5327852798661811 0.19 0  0.5253169776290537 0.19 0  0.5178486753919799 0.19 0  0.5103803731549078 0.19 0  0.502912070917822 0.19 0  0.4954437686807294 0.19 0  0.4879754664436223 0.19 0  0.4805071642065402 0.19 0  0.4730388619694271 0.19 0  0.4655705597323621 0.19 0  0.4581022574952563 0.19 0  0.4506339552581777 0.19 0  0.4431656530210671 0.19 0  0.4356973507839815 0.19 0  0.4282290485468779 0.19 0  0.4207607463097617 0.19 0  0.4132924440726327 0.19 0  0.4058241418354857 0.19 0  0.3983558395983636 0.19 0  0.3908875373612097 0.19 0  0.3834192351240934 0.19 0  0.3759509328869369 0.19 0  0.3684826306498175 0.19 0  0.361014328412667 0.19 0  0.3535460261755617 0.19 0  0.3460777239384295 0.19 0  0.3386094217012945 0.19 0  0.3311411194641595 0.19 0  0.3236728172270245 0.19 0  0.3162045149898895 0.19 0  0.3087362127527544 0.19 0  0.3012679105156187 0.19 0  0.2937996082784807 0.19 0  0.2863313060413428 0.19 0  0.2788630038042048 0.19 0  0.2713947015670686 0.19 0  0.2639263993299336 0.19 0  0.2564580970927985 0.19 0  0.2607803159922026 0.2000727136295815 0  0.5887803774232762 0.2001272386983733 0  0.5745072403740523 0.2002044435018727 0  0.5511891430099709 0.2001122610077113 0  0.2751288526855082 0.20000000000002 0  0.5365194309847112 0.1999999999999436 0  0.2894621222999649 0.1998691686390484 0  0.5215828265105155 0.1999999999999228 0  0.3127789816668748 0.1998657885438805 0  0.3274069683451451 0.2000000000000796 0  0.5066462220363641 0.199999999999908 0  0.3650630746574081 0.199866017807523 0  0.476773013087985 0.1999999999998713 0  0.3417402379596385 0.1998691686391011 0  0.3796850840047755 0.200000000000134 0  0.4618364086138087 0.1999999999998546 0  0.4917096175621762 0.1999999999998808 0  0.3946216884789568 0.2000000000001512 0  0.446899804139621 0.1999999999998389 0  0.4089549580935208 0.1998691686391595 0  0.4322718174608562 0.200127451265745 0  0.4201487168029707 0.1999966199048527 0  0.3528922713220932 0.2000185703532356 0  0.5633122436674589 0.1999814296467508 0  0.3006558810093873 0.1999966199048318 0  0.5815926498168407 0.1966545283159175 0  0.2677053789419034 0.1964246479135325 0  0.5290511287476175 0.1970915826863981 0  0.5439877332217911 0.197091582686394 0  0.2825131256993216 0.2035478995978015 0  0.3199386661080599 0.202908417313604 0  0.4842413153250809 0.1970915826863873 0  0.5141145242734466 0.1970915826863843 0  0.3722167817676917 0.2029084173136195 0  0.4693047108508938 0.1970915826863783 0  0.3348752705822316 0.202908417313609 0  0.3871533862418661 0.2029084173136212 0  0.4543681063767183 0.1970915826863795 0  0.4991779197992749 0.1970915826863902 0  0.4020059614928624 0.203547899597858 0  0.4394315019025246 0.1970915826863714 0  0.2550657455369551 0.2034088125358657 0  0.2548908499171161 0.1966940311614271 0  0.5946539510196798 0.2024302972968126 0  0.267698176732111 0.2039977513680092 0  0.4261685417851465 0.196409292431739 0  0.3590076176283495 0.196411355804271 0  0.5571672426447437 0.2036011176410121 0  0.3066757059912147 0.1964092924317024 0  0.594380730180568 0.1966558399668133 0  0.4842413153245942 0.2040749161535287 0  0.4693047108503577 0.2040749161535231 0  0.3871533862424271 0.1959250838464788 0  0.372246743208829 0.1959123236376545 0  0.5141145242731028 0.2040749161535395 0  0.4543681063761134 0.2040749161535186 0  0.4019979587101454 0.1959834479682427 0  0.4394608940728603 0.2040870543693135 0  0.5439623148931173 0.2040856076781014 0  0.5290511287473298 0.2040749161535501 0  0.4991779197988497 0.2040749161535382 0  0.3347912413592433 0.1959225448935183 0  0.3199680582793816 0.1959123018030061 0  0.2825051229162361 0.1959834479681729 0  0.3590471196690275 0.2036304442587945 0  0.5571594006495384 0.1963685282145804 0  0.3067669986803285 0.203627750582736 0  0.4262598344738712 0.2036568242185335 0  0.5814408164431408 0.2041285596160068 0  0.5688286748170428 0.1961819304477386 0  0.4145905603063645 0.2038180695522843 0  0.3473758401724931 0.2038180695522752 0  0.2950977245128307 0.2038180695522663 0  0.5688286748170693 0.203818069552238 0  0.2950977245127906 0.1961819304477774 0  0.3473758401723931 0.1961819304478349 0  0.4145905603061963 0.1961819304479011 0  0.2601812407614425 0.2056861609747042
[...]
<PointData  Vectors="f_40-1"> 
<DataArray  type="Float64"  Name="f_40-1"  NumberOfComponents="3" format="ascii">0.0000000000000000e+00 0.0000000000000000e+00 0.0000000000000000e+00  0.0000000000000000e+00 0.0000000000000000e+00 0.0000000000000000e+00  0.0000000000000000e+00 0.0000000000000000e+00 0.0000000000000000e+00  0.0000000000000000e+00 0.0000000000000000e+00 0.0000000000000000e+00  1.4230535938745509e-05 1.4200136848906543e-03 0.0000000000000000e+00  -7.0151088282235891e-05 1.4172643728529474e-03 0.0000000000000000e+00  0.0000000000000000e+00 0.0000000000000000e+00 0.0000000000000000e+00  0.0000000000000000e+00 0.0000000000000000e+00 0.0000000000000000e+00  0.0000000000000000e+00 0.0000000000000000e+00 0.0000000000000000e+00  0.0000000000000000e+00 0.0000000000000000e+00 0.0000000000000000e+00  -2.8264608190510506e-05 1.4186404767366420e-03 0.0000000000000000e+00  0.0000000000000000e+00 0.0000000000000000e+00 0.0000000000000000e+00  0.0000000000000000e+00 0.0000000000000000e+00 0.0000000000000000e+00  0.0000000000000000e+00 0.0000000000000000e+00 0.0000000000000000e+00  0.0000000000000000e+00 0.0000000000000000e+00 0.0000000000000000e+00  0.0000000000000000e+00 0.0000000000000000e+00 0.0000000000000000e+00  0.0000000000000000e+00 0.0000000000000000e+00 0.0000000000000000e+00  0.0000000000000000e+00 0.0000000000000000e+00 0.0000000000000000e+00  0.0000000000000000e+00 0.0000000000000000e+00 0.0000000000000000e+00  0.0000000000000000e+00 0.0000000000000000e+00 0.0000000000000000e+00  0.0000000000000000e+00 0.0000000000000000e+00 0.0000000000000000e+00  0.0000000000000000e+00 0.0000000000000000e+00 0.0000000000000000e+00  0.0000000000000000e+00 0.0000000000000000e+00 0.0000000000000000e+00  0.0000000000000000e+00 0.0000000000000000e+00 0.0000000000000000e+00  0.0000000000000000e+00 0.0000000000000000e+00 0.0000000000000000e+00  0.0000000000000000e+00 0.0000000000000000e+00 0.0000000000000000e+00  0.0000000000000000e+00 0.0000000000000000e+00 0.0000000000000000e+00  0.0000000000000000e+00 0.0000000000000000e+00 0.0000000000000000e+00  0.0000000000000000e+00 0.0000000000000000e+00 0.0000000000000000e+00  0.0000000000000000e+00 0.0000000000000000e+00 0.0000000000000000e+00  0.0000000000000000e+00 0.0000000000000000e+00 0.0000000000000000e+00  0.0000000000000000e+00 0.0000000000000000e+00 0.0000000000000000e+00  0.0000000000000000e+00 0.0000000000000000e+00 0.0000000000000000e+00  0.0000000000000000e+00 0.0000000000000000e+00 0.0000000000000000e+00  0.0000000000000000e+00 0.0000000000000000e+00 0.0000000000000000e+00  0.0000000000000000e+00 0.0000000000000000e+00 0.0000000000000000e+00  0.0000000000000000e+00 0.0000000000000000e+00 0.0000000000000000e+00  0.0000000000000000e+00 0.0000000000000000e+00 0.0000000000000000e+00  0.0000000000000000e+00 0.0000000000000000e+00 0.0000000000000000e+00  0.0000000000000000e+00 0.0000000000000000e+00 0.0000000000000000e+00  0.0000000000000000e+00 0.0000000000000000e+00 0.0000000000000000e+00  0.0000000000000000e+00 0.0000000000000000e+00 0.0000000000000000e+00  0.0000000000000000e+00 0.0000000000000000e+00 0.0000000000000000e+00  0.0000000000000000e+00 0.0000000000000000e+00 0.0000000000000000e+00  0.0000000000000000e+00 0.0000000000000000e+00 0.0000000000000000e+00  0.0000000000000000e+00 0.0000000000000000e+00 0.0000000000000000e+00  0.0000000000000000e+00 0.0000000000000000e+00 0.0000000000000000e+00  0.0000000000000000e+00 0.0000000000000000e+00 0.0000000000000000e+00  0.0000000000000000e+00 0.0000000000000000e+00 0.0000000000000000e+00  0.0000000000000000e+00 0.0000000000000000e+00 0.0000000000000000e+00  0.0000000000000000e+00 0.0000000000000000e+00 0.0000000000000000e+00  0.0000000000000000e+00 0.0000000000000000e+00 0.0000000000000000e+00  0.0000000000000000e+00 0.0000000000000000e+00 0.0000000000000000e+00  0.0000000000000000e+00 0.0000000000000000e+00 0.0000000000000000e+00  0.0000000000000000e+00 0.0000000000000000e+00 0.0000000000000000e+00  0.0000000000000000e+00 0.0000000000000000e+00 0.0000000000000000e+00  0.0000000000000000e+00 0.0000000000000000e+00 0.0000000000000000e+00  0.0000000000000000e+00 0.0000000000000000e+00 0.0000000000000000e+00  0.0000000000000000e+00 0.0000000000000000e+00 0.0000000000000000e+00  0.0000000000000000e+00 0.0000000000000000e+00 0.0000000000000000e+00  0.0000000000000000e+00 0.0000000000000000e+00 0.0000000000000000e+00  0.0000000000000000e+00 0.0000000000000000e+00 0.0000000000000000e+00  0.0000000000000000e+00 0.0000000000000000e+00 0.0000000000000000e+00  0.0000000000000000e+00 0.0000000000000000e+00 0.0000000000000000e+00  0.0000000000000000e+00 0.0000000000000000e+00 0.0000000000000000e+00  0.0000000000000000e+00 0.0000000000000000e+00 0.0000000000000000e+00  0.0000000000000000e+00 0.0000000000000000e+00 0.0000000000000000e+00  0.0000000000000000e+00 0.0000000000000000e+00 0.0000000000000000e+00  0.0000000000000000e+00 0.0000000000000000e+00 0.0000000000000000e+00  0.0000000000000000e+00 0.0000000000000000e+00 0.0000000000000000e+00  0.0000000000000000e+00 0.0000000000000000e+00 0.0000000000000000e+00  0.0000000000000000e+00 0.0000000000000000e+00 0.0000000000000000e+00  0.0000000000000000e+00 0.0000000000000000e+00 0.0000000000000000e+00  0.0000000000000000e+00 0.0000000000000000e+00 0.0000000000000000e+00  0.0000000000000000e+00 0.0000000000000000e+00 0.0000000000000000e+00  0.0000000000000000e+00 0.0000000000000000e+00 0.0000000000000000e+00  0.0000000000000000e+00 0.0000000000000000e+00 0.0000000000000000e+00  0.0000000000000000e+00 0.0000000000000000e+00 0.0000000000000000e+00  0.0000000000000000e+00 0.0000000000000000e+00 0.0000000000000000e+00  0.0000000000000000e+00 0.0000000000000000e+00 0.0000000000000000e+00  0.0000000000000000e+00 0.0000000000000000e+00 0.0000000000000000e+00  0.0000000000000000e+00 0.0000000000000000e+00 0.0000000000000000e+00  0.0000000000000000e+00 0.0000000000000000e+00 0.0000000000000000e+00  0.0000000000000000e+00 0.0000000000000000e+00 0.0000000000000000e+00  0.0000000000000000e+00 0.0000000000000000e+00 0.0000000000000000e+00  0.0000000000000000e+00 0.0000000000000000e+00 0.0000000000000000e+00  0.0000000000000000e+00 0.0000000000000000e+00 0.0000000000000000e+00  0.0000000000000000e+00 0.0000000000000000e+00 0.0000000000000000e+00  0.0000000000000000e+00 0.0000000000000000e+00 0.0000000000000000e+00  0.0000000000000000e+00 0.0000000000000000e+00 0.0000000000000000e+00  0.0000000000000000e+00 0.0000000000000000e+00 0.0000000000000000e+00  0.0000000000000000e+00 0.0000000000000000e+00 0.0000000000000000e+00  0.0000000000000000e+00 0.0000000000000000e+00 0.0000000000000000e+00  0.0000000000000000e+00 0.0000000000000000e+00 0.0000000000000000e+00  0.0000000000000000e+00 0.0000000000000000e+00 0.0000000000000000e+00  0.0000000000000000e+00 0.0000000000000000e+00 0.0000000000000000e+00  0.0000000000000000e+00 0.0000000000000000e+00 0.0000000000000000e+00  0.0000000000000000e+00 0.0000000000000000e+00 0.0000000000000000e+00  0.0000000000000000e+00 0.0000000000000000e+00 0.0000000000000000e+00  0.0000000000000000e+00 0.0000000000000000e+00 0.0000000000000000e+00  0.0000000000000000e+00 0.0000000000000000e+00 0.0000000000000000e+00  0.0000000000000000e+00 0.0000000000000000e+00 0.0000000000000000e+00  0.0000000000000000e+00 0.0000000000000000e+00 0.0000000000000000e+00  0.0000000000000000e+00 0.0000000000000000e+00 0.0000000000000000e+00  0.0000000000000000e+00 0.0000000000000000e+00 0.0000000000000000e+00  0.0000000000000000e+00 0.0000000000000000e+00 0.0000000000000000e+00  0.0000000000000000e+00 0.0000000000000000e+00 0.0000000000000000e+00  0.0000000000000000e+00 0.0000000000000000e+00 0.0000000000000000e+00  0.0000000000000000e+00 0.0000000000000000e+00 0.0000000000000000e+00  0.0000000000000000e+00 0.0000000000000000e+00 0.0000000000000000e+00  0.0000000000000000e+00 0.0000000000000000e+00 0.0000000000000000e+00  0.0000000000000000e+00 0.0000000000000000e+00 0.0000000000000000e+00  0.0000000000000000e+00 0.0000000000000000e+00 0.0000000000000000e+00  0.0000000000000000e+00 0.0000000000000000e+00 0.0000000000000000e+00  0.0000000000000000e+00 0.0000000000000000e+00 0.0000000000000000e+00  0.0000000000000000e+00 0.0000000000000000e+00 0.0000000000000000e+00  0.0000000000000000e+00 0.0000000000000000e+00 0.0000000000000000e+00  0.0000000000000000e+00 0.0000000000000000e+00 0.0000000000000000e+00  0.0000000000000000e+00 0.0000000000000000e+00 0.0000000000000000e+00  0.0000000000000000e+00 0.0000000000000000e+00 0.0000000000000000e+00  0.0000000000000000e+00 0.0000000000000000e+00 0.0000000000000000e+00  0.0000000000000000e+00 0.0000000000000000e+00 0.0000000000000000e+00  0.0000000000000000e+00 0.0000000000000000e+00 0.0000000000000000e+00  0.0000000000000000e+00 0.0000000000000000e+00 0.0000000000000000e+00  0.0000000000000000e+00 0.0000000000000000e+00 0.0000000000000000e+00  0.0000000000000000e+00 0.0000000000000000e+00 0.0000000000000000e+00  0.0000000000000000e+00 0.0000000000000000e+00 0.0000000000000000e+00  0.0000000000000000e+00 0.0000000000000000e+00 0.0000000000000000e+00  0.0000000000000000e+00 0.0000000000000000e+00 0.0000000000000000e+00  0.0000000000000000e+00 0.0000000000000000e+00 0.0000000000000000e+00  0.0000000000000000e+00 0.0000000000000000e+00 0.0000000000000000e+00  0.0000000000000000e+00 0.0000000000000000e+00 0.0000000000000000e+00  0.0000000000000000e+00 0.0000000000000000e+00 0.0000000000000000e+00  0.0000000000000000e+00 0.0000000000000000e+00 0.0000000000000000e+00  0.0000000000000000e+00 0.0000000000000000e+00 0.0000000000000000e+00  0.0000000000000000e+00 0.0000000000000000e+00 0.0000000000000000e+00  0.0000000000000000e+00 0.0000000000000000e+00 0.0000000000000000e+00  0.0000000000000000e+00 0.0000000000000000e+00 0.0000000000000000e+00  0.0000000000000000e+00 0.0000000000000000e+00 0.0000000000000000e+00  0.0000000000000000e+00 0.0000000000000000e+00 0.0000000000000000e+00  0.0000000000000000e+00 0.0000000000000000e+00 0.0000000000000000e+00  0.0000000000000000e+00 0.0000000000000000e+00 0.0000000000000000e+00  0.0000000000000000e+00 0.0000000000000000e+00 0.0000000000000000e+00  -6.1437873313280214e-06 3.9481905673057458e-06 0.0000000000000000e+00  -1.2737912110834032e-05 1.0569154836395070e-05 0.0000000000000000e+00  -1.8325192146733002e-05 2.0960813231418800e-05 0.0000000000000000e+00  -2.4008807038492561e-05 3.5291662294763063e-05 0.0000000000000000e+00  -2.8601911173783393e-05 5.2546126588563621e-05 0.0000000000000000e+00  -3.3439208635712923e-05 7.2952582218314334e-05 0.0000000000000000e+00  -3.7239033075933384e-05 9.5504099137240584e-05 0.0000000000000000e+00  -4.0710415533499755e-05 1.2072900990982092e-04 0.0000000000000000e+00  -4.4381825720821648e-05 1.4783399271909458e-04 0.0000000000000000e+00  -4.7089776358244107e-05 1.7670592543008075e-04 0.0000000000000000e+00  -5.0032974225428504e-05 2.0723888237090678e-04 0.0000000000000000e+00  -5.2182842734831629e-05 2.3904843445381543e-04 0.0000000000000000e+00  -5.4388177246559777e-05 2.7202414659932642e-04 0.0000000000000000e+00  -5.6084422394627224e-05 3.0579943532488404e-04 0.0000000000000000e+00  -5.7559686348614996e-05 3.4043162101268738e-04 0.0000000000000000e+00  -5.8981008644628121e-05 3.7560191720011510e-04 0.0000000000000000e+00  -6.0025549923811643e-05 4.1117829486795855e-04 0.0000000000000000e+00  -6.0996471752197321e-05 4.4710437771172337e-04 0.0000000000000000e+00  -6.1722664016262537e-05 4.8315400289044170e-04 0.0000000000000000e+00  -6.2337917011270896e-05 5.1931621455174250e-04 0.0000000000000000e+00  -6.2816947972391371e-05 5.5541681477142501e-04 0.0000000000000000e+00  -6.3155861668702848e-05 5.9143210317038567e-04 0.0000000000000000e+00  -6.3456407308363588e-05 6.2730046132867178e-04 0.0000000000000000e+00  -6.3676153698613805e-05 6.6292758352380339e-04 0.0000000000000000e+00  -6.3793467769268446e-05 6.9835276100983345e-04 0.0000000000000000e+00  -6.3902504487813462e-05 7.3346681712142261e-04 0.0000000000000000e+00  -6.3953716869062947e-05 7.6830318469201734e-04 0.0000000000000000e+00  -6.4014871944108591e-05 8.0282418359069044e-04 0.0000000000000000e+00  -6.4037720856052649e-05 8.3703689502274720e-04 0.0000000000000000e+00  -6.4092974212925116e-05 8.7094503235031386e-04 0.0000000000000000e+00  -6.4128696775409282e-05 9.0454395434287583e-04 0.0000000000000000e+00  -6.4211600814108858e-05 9.3786353745223261e-04 0.0000000000000000e+00  -6.4293577405600440e-05 9.7089406218548802e-04 0.0000000000000000e+00  -6.4430041339110362e-05 1.0036844032008481e-03 0.0000000000000000e+00  -6.4580432808049079e-05 1.0362220953015295e-03 0.0000000000000000e+00  -6.4794204578600456e-05 1.0685727811148790e-03 0.0000000000000000e+00  -6.5034372541515961e-05 1.1007153094576686e-03 0.0000000000000000e+00  -6.5339346367635764e-05 1.1327255577391530e-03 0.0000000000000000e+00  -6.5679339924835478e-05 1.1645765485233978e-03 0.0000000000000000e+00  -6.6085176610254797e-05 1.1963507497618200e-03 0.0000000000000000e+00  -6.6535459314406915e-05 1.2280148251114947e-03 0.0000000000000000e+00  -6.7045527867464386e-05 1.2596407804027899e-03 0.0000000000000000e+00  -6.7607717519271529e-05 1.2912158174353146e-03 0.0000000000000000e+00  -6.8197799840777972e-05 1.3227745069123737e-03 0.0000000000000000e+00  -6.8851864587828003e-05 1.3543391841641368e-03 0.0000000000000000e+00  -6.9523909794383783e-05 1.3858702837457788e-03 0.0000000000000000e+00  -4.9309866859065037e-05 1.4179537682212375e-03 0.0000000000000000e+00  -7.1132339773522292e-06 1.4193223521227355e-03 0.0000000000000000e+00  1.4867594960770448e-05 1.3883940637171002e-03 0.0000000000000000e+00  1.5565957012721559e-05 1.3569201326716137e-03 0.0000000000000000e+00  1.6257399299944319e-05 1.3254614200213044e-03 0.0000000000000000e+00  1.6930386220074801e-05 1.2939674897579773e-03 0.0000000000000000e+00  1.7592642681605993e-05 1.2624488788247272e-03 0.0000000000000000e+00  1.8246634079208479e-05 1.2308762299973281e-03 0.0000000000000000e+00  1.8921193972305673e-05 1.1992398950703179e-03 0.0000000000000000e+00  1.9573275522890738e-05 1.1675220584057644e-03 0.0000000000000000e+00  2.0272749684747385e-05 1.1356821975490516e-03 0.0000000000000000e+00  2.0941315234053296e-05 1.1037118071111724e-03 0.0000000000000000e+00  2.1681293729788598e-05 1.0715732431363578e-03 0.0000000000000000e+00  2.2380432917249950e-05 1.0392491899418321e-03 0.0000000000000000e+00  2.3171973278181267e-05 1.0067091430123192e-03 0.0000000000000000e+00  2.3906779641556692e-05 9.7393265611975201e-04 0.0000000000000000e+00  2.4746820392872871e-05 9.4089446981424378e-04 0.0000000000000000e+00  2.5513480071589379e-05 9.0757833480084170e-04 0.0000000000000000e+00  2.6391580710465258e-05 8.7396604841032620e-04 0.0000000000000000e+00  2.7181758984480980e-05 8.4004855586503079e-04 0.0000000000000000e+00  2.8081469424663990e-05 8.0581706743318969e-04 0.0000000000000000e+00  2.8880347620526146e-05 7.7127427241567039e-04 0.0000000000000000e+00  2.9774972250014455e-05 7.3641538559643383e-04 0.0000000000000000e+00  3.0561074756592343e-05 7.0125951366354223e-04 0.0000000000000000e+00  3.1401171730340417e-05 6.6581705475437559e-04 0.0000000000000000e+00  3.2146676610704490e-05 6.3014504775327142e-04 0.0000000000000000e+00  3.2849827981019972e-05 5.9423346314509931e-04 0.0000000000000000e+00  3.3529824967972614e-05 5.5817722141212006e-04 0.0000000000000000e+00  3.4105089980698558e-05 5.2202332122407689e-04 0.0000000000000000e+00  3.4584115519831175e-05 4.8581339501469628e-04 0.0000000000000000e+00  3.4955963671266137e-05 4.4971015385418967e-04 0.0000000000000000e+00  3.5171933673127669e-05 4.1372785252016792e-04 0.0000000000000000e+00  3.5269914731926609e-05 3.7806782156013361e-04 0.0000000000000000e+00  3.5070692286892452e-05 3.4287042434210990e-04 0.0000000000000000e+00  3.4844807117078101e-05 3.0816377791484791e-04 0.0000000000000000e+00  3.4437011402537893e-05 2.7434073739839314e-04 0.0000000000000000e+00  3.3610638898340122e-05 2.4121830134662332e-04 0.0000000000000000e+00  3.2673977557780760e-05 2.0937902834493118e-04 0.0000000000000000e+00  3.1330951620567550e-05 1.7875648221218280e-04 0.0000000000000000e+00  2.9866320240464350e-05 1.4973035254592677e-04 0.0000000000000000e+00  2.7691025928626270e-05 1.2265614933420869e-04 0.0000000000000000e+00  2.5712693313139193e-05 9.7319746287241891e-05 0.0000000000000000e+00  2.3454510509493158e-05 7.4696029820597168e-05 0.0000000000000000e+00  2.0249857020303820e-05 5.4127317748085282e-05 0.0000000000000000e+00  1.7130459252314617e-05 3.6749437815953308e-05 0.0000000000000000e+00  1.3052223536645650e-05 2.2558185620820960e-05 0.0000000000000000e+00  9.2661337794208101e-06 1.2008139080691419e-05 0.0000000000000000e+00  4.4394114681921425e-06 5.1917167243786185e-06 0.0000000000000000e+00  -1.5233013632044857e-06 5.1239810686456491e-06 0.0000000000000000e+00  -2.7647384720333453e-05 1.3713002902306587e-03 0.0000000000000000e+00  -2.6626694651978333e-05 1.3110784683575633e-03 0.0000000000000000e+00  -2.4366480795733583e-05 1.2125360905398852e-03 0.0000000000000000e+00  -2.9795938367937685e-06 2.6219244806170325e-05 0.0000000000000000e+00  -2.2841142111147012e-05 1.1502228735154898e-03 0.0000000000000000e+00  -4.1918119866720371e-06 5.9685613843631289e-05 0.0000000000000000e+00  -2.1844930384072081e-05 1.0862771748473858e-03 0.0000000000000000e+00  -6.4014306007116672e-06 1.3484133382241602e-04 0.0000000000000000e+00  -8.2791085885059339e-06 1.9188592375985101e-04 0.0000000000000000e+00  -2.0903042379368101e-05 1.0216375830215600e-03 0.0000000000000000e+00  -1.0946061208782051e-05 3.6032489470158157e-04 0.0000000000000000e+00  -1.9108302149892770e-05 8.8948286522282213e-04 0.0000000000000000e+00  -9.0199469462141059e-06 2.5314853152026072e-04 0.0000000000000000e+00  -1.2731020404209218e-05 4.3022687070150761e-04 0.0000000000000000e+00  -1.8221939232506552e-05 8.2166513092557969e-04 0.0000000000000000e+00  -1.9996446184980123e-05 9.5609856332387762e-04 0.0000000000000000e+00  -1.3850629631366726e-05 5.0253522034454949e-04 0.0000000000000000e+00  -1.7321910930250185e-05 7.5258771730742796e-04 0.0000000000000000e+00  -1.4238958172503261e-05 5.7200268556268610e-04 0.0000000000000000e+00  -1.7012966182887598e-05 6.8372935556251303e-04 0.0000000000000000e+00  -1.5605261999948101e-05 6.2587219547259533e-04 0.0000000000000000e+00  -1.0639347534082537e-05 3.0359735349510099e-04 0.0000000000000000e+00  -2.4765920151301417e-05 1.2638343465700811e-03 0.0000000000000000e+00  -5.6498117273718716e-06 9.3310727489075788e-05 0.0000000000000000e+00  -1.2280878979311172e-05 1.3414283905750087e-03 0.0000000000000000e+00  2.5939015922475209e-06 1.4334494608466326e-05 0.0000000000000000e+00  -9.8534601448808457e-06 1.1187428091504856e-03 0.0000000000000000e+00  -1.0979979059346033e-05 1.1824158723908748e-03 0.0000000000000000e+00  -1.1653650883070328e-05 4.2138112936181730e-05 0.0000000000000000e+00  -1.8675434616709016e-05 1.6181591929668475e-04 0.0000000000000000e+00  -6.5610493837181870e-06 9.2335106622454092e-04 0.0000000000000000e+00  -8.7524860439588582e-06 1.0544776262045056e-03 0.0000000000000000e+00  -2.5911248551524807e-05 3.9401742194544444e-04 0.0000000000000000e+00  -5.4514584704434079e-06 8.5614189171071106e-04 0.0000000000000000e+00  -2.1168358916733277e-05 2.2304355505212766e-04 0.0000000000000000e+00  -2.7262169023654926e-05 4.6596132222579578e-04 0.0000000000000000e+00  -4.3266590713554852e-06 7.8769273023912079e-04 0.0000000000000000e+00  -7.6589753445456122e-06 9.8941206497343902e-04 0.0000000000000000e+00  -3.1470721888734643e-05 5.3786408065525254e-04 0.0000000000000000e+00  -3.1934393173338801e-06 7.1798565190138138e-04 0.0000000000000000e+00  -1.6958552654802369e-06 1.1109661245389094e-06 0.0000000000000000e+00  4.8712632296187876e-08 1.2861076144420745e-06 0.0000000000000000e+00  -3.7963306580580112e-05 1.3957832161704984e-03 0.0000000000000000e+00  -7.5188272313892346e-06 1.3756613208618799e-05 0.0000000000000000e+00  1.0720947486620620e-06 6.5519191241479981e-04 0.0000000