<?xml version="1.0"?>
<VTKFile type="UnstructuredGrid"  version="0.1"  >
<UnstructuredGrid>
<Piece  NumberOfPoints="1419" NumberOfCells="2698">
<Points>
<DataArray  type="Float64"  NumberOfComponents="3"  format="ascii">0 0 0  0 0.41 0  2.5 0 0  2.5 0.41 0  0.6 0.19 0  0.6 0.21 0  0.25 0.2 0  0.15 0.2 0  0.2489897948556636 0.21 0  0.2489897948556636 0.19 0  0.6 0.2 0  0 0.3807142857143437 0  0 0.3514285714286952 0  0 0.3221428571430699 0  0 0.29285714285744 0  0 0.2635714285718054 0  0 0.2342857142861561 0  0 0.2050000000005308 0  0 0.175714285714732 0  0 0.1464285714289574 0  0 0.1171428571431897 0  0 0.08785714285737878 0  0 0.05857142857161107 0  0 0.02928571428580012 0  0.03015443760436003 0 0  0.06140001986583606 0 0  0.09377624077125973 0 0  0.1273239957535082 0 0  0.1620856860351972 0 0  0.1981052433264291 0 0  0.235428184091502 0 0  0.2741016576309132 0 0  0.3141745521465447 0 0  0.3556974926295285 0 0  0.3987229542472677 0 0  0.4433053055141081 0 0  0.4895008759286886 0 0  0.5373680609405097 0 0  0.5869673343216626 0 0  0.6383613676634521 0 0  0.6916151138468254 0 0  0.7467958595648856 0 0  0.8039733463919316 0 0  0.8632198139502143 0 0  0.9246101326867038 0 0  0.9882218810934433 0 0  1.054135445558498 0 0  1.122434100542598 0 0  1.193204177141305 0 0  1.266535089879536 0 0  1.342519516046404 0 0  1.421253448503939 0 0  1.502836389106271 0 0  1.587371439758838 0 0  1.674965418777374 0 0  1.765729001825544 0 0  1.859776908880082 0 0  1.957227977487062 0 0  2.058205329869943 0 0  2.162836591189951 0 0  2.271253957290865 0 0  2.383594446803425 0 0  2.5 0.1024999999997612 0  2.5 0.2049999999994743 0  2.5 0.3074999999997183 0  2.383594446803656 0.41 0  2.271253957291315 0.41 0  2.162836591190598 0.41 0  2.058205329870775 0.41 0  1.957227977488067 0.41 0  1.859776908881246 0.41 0  1.765729001826854 0.41 0  1.674965418778818 0.41 0  1.58737143976041 0.41 0  1.502836389107956 0.41 0  1.421253448505726 0.41 0  1.342519516048286 0.41 0  1.266535089881505 0.41 0  1.193204177143353 0.41 0  1.122434100544716 0.41 0  1.05413544556068 0.41 0  0.9882218810956305 0.41 0  0.9246101326886647 0.41 0  0.8632198139519631 0.41 0  0.8039733463934788 0.41 0  0.7467958595662458 0.41 0  0.6916151138480078 0.41 0  0.6383613676644679 0.41 0  0.5869673343225223 0.41 0  0.5373680609412221 0.41 0  0.4895008759292634 0.41 0  0.4433053055145528 0.41 0  0.3987229542475914 0.41 0  0.3556974926297398 0.41 0  0.3141745521466497 0.41 0  0.2741016576310038 0.41 0  0.2354281840915826 0.41 0  0.1981052433265003 0.41 0  0.1620856860352591 0.41 0  0.1273239957535623 0.41 0  0.09377624077128965 0.41 0  0.06140001986584975 0.41 0  0.03015443760436654 0.41 0  0.2497468076502589 0.2050254481002335 0  0.2497468076502614 0.1949745518997913 0  0.2469965252529372 0.1829317073451959 0  0.2439893735792749 0.1762316384219906 0  0.2400332147834255 0.1700443375285386 0  0.2352133972704371 0.1645032867342007 0  0.2296339016332438 0.1597280261969788 0  0.2234150974217223 0.1558215752574715 0  0.2166911463437691 0.1528682099456123 0  0.2096071079204251 0.1509316448471593 0  0.2023158100364996 0.1500536585536553 0  0.194974551899914 0.1502531923497262 0  0.1877417105387872 0.1515259415822739 0  0.1807733240461124 0.153844448527136 0  0.1742197252835808 0.15715869474974 0  0.1682222986673531 0.1613971801805478 0  0.162910430003803 0.1664684656256651 0  0.1583987151779087 0.1722631454351573 0  0.1547844879126891 0.178656207771761 0  0.1521457199348551 0.1855097315605723 0  0.1505393388476355 0.1926758619366523 0  0.1505393388476328 0.2073241380633295 0  0.1521457199348437 0.2144902684393899 0  0.1547844879126531 0.221343792228163 0  0.1583987151778488 0.2277368545647528 0  0.1629104300036858 0.2335315343742052 0  0.1682222986671726 0.2386028198193036 0  0.1742197252833576 0.2428413052501257 0  0.1807733240458683 0.2461555514727623 0  0.1877417105384929 0.2484740584176516 0  0.1949745518995776 0.2497468076502398 0  0.202315810036185 0.2499463414463592 0  0.2096071079201568 0.2490683551528932 0  0.2166911463435495 0.2471317900544655 0  0.2234150974215506 0.2441784247426195 0  0.2296339016331197 0.2402719738031125 0  0.2352133972703547 0.2354967132658811 0  0.2400332147833751 0.2299556624715287 0  0.2439893735792577 0.2237683615780412 0  0.246996525252926 0.2170682926548348 0  0.25645809709277 0.21 0  0.2639263993298655 0.21 0  0.271394701566961 0.21 0  0.2788630038040554 0.21 0  0.2863313060411479 0.21 0  0.2937996082782405 0.21 0  0.301267910515333 0.21 0  0.3087362127524279 0.21 0  0.3162045149895234 0.21 0  0.3236728172265972 0.21 0  0.3311411194636928 0.21 0  0.3386094217007701 0.21 0  0.3460777239378666 0.21 0  0.3535460261749672 0.21 0  0.3610143284120516 0.21 0  0.3684826306491596 0.21 0  0.3759509328862226 0.21 0  0.383419235123329 0.21 0  0.3908875373604028 0.21 0  0.3983558395975142 0.21 0  0.4058241418345938 0.21 0  0.4132924440716992 0.21 0  0.4207607463087888 0.21 0  0.4282290485459029 0.21 0  0.4356973507830418 0.21 0  0.4431656530201649 0.21 0  0.4506339552573136 0.21 0  0.4581022574944306 0.21 0  0.4655705597315852 0.21 0  0.4730388619686996 0.21 0  0.480507164205851 0.21 0  0.4879754664429498 0.21 0  0.4954437686800938 0.21 0  0.502912070917267 0.21 0  0.5103803731544119 0.21 0  0.5178486753915261 0.21 0  0.5253169776286404 0.21 0  0.5327852798657868 0.21 0  0.5402535821029386 0.21 0  0.54772188434007 0.21 0  0.5551901865771842 0.21 0  0.5626584888143201 0.21 0  0.5701267910514778 0.21 0  0.5775950932886138 0.21 0  0.5850633955257281 0.21 0  0.5925316977628483 0.21 0  0.6 0.2050000000000054 0  0.6 0.1950000000000217 0  0.5925316977628897 0.19 0  0.5850633955257988 0.19 0  0.5775950932887378 0.19 0  0.5701267910515998 0.19 0  0.5626584888145268 0.19 0  0.5551901865773963 0.19 0  0.547721884340339 0.19 0  0.5402535821032429 0.19 0  0.5327852798661811 0.19 0  0.5253169776290537 0.19 0  0.5178486753919799 0.19 0  0.5103803731549078 0.19 0  0.502912070917822 0.19 0  0.4954437686807294 0.19 0  0.4879754664436223 0.19 0  0.4805071642065402 0.19 0  0.4730388619694271 0.19 0  0.4655705597323621 0.19 0  0.4581022574952563 0.19 0  0.4506339552581777 0.19 0  0.4431656530210671 0.19 0  0.4356973507839815 0.19 0  0.4282290485468779 0.19 0  0.4207607463097617 0.19 0  0.4132924440726327 0.19 0  0.4058241418354857 0.19 0  0.3983558395983636 0.19 0  0.3908875373612097 0.19 0  0.3834192351240934 0.19 0  0.3759509328869369 0.19 0  0.3684826306498175 0.19 0  0.361014328412667 0.19 0  0.3535460261755617 0.19 0  0.3460777239384295 0.19 0  0.3386094217012945 0.19 0  0.3311411194641595 0.19 0  0.3236728172270245 0.19 0  0.3162045149898895 0.19 0  0.3087362127527544 0.19 0  0.3012679105156187 0.19 0  0.2937996082784807 0.19 0  0.2863313060413428 0.19 0  0.2788630038042048 0.19 0  0.2713947015670686 0.19 0  0.2639263993299336 0.19 0  0.2564580970927985 0.19 0  0.2607803159922026 0.2000727136295815 0  0.5887803774232762 0.2001272386983733 0  0.5745072403740523 0.2002044435018727 0  0.5511891430099709 0.2001122610077113 0  0.2751288526855082 0.20000000000002 0  0.5365194309847112 0.1999999999999436 0  0.2894621222999649 0.1998691686390484 0  0.5215828265105155 0.1999999999999228 0  0.3127789816668748 0.1998657885438805 0  0.3274069683451451 0.2000000000000796 0  0.5066462220363641 0.199999999999908 0  0.3650630746574081 0.199866017807523 0  0.476773013087985 0.1999999999998713 0  0.3417402379596385 0.1998691686391011 0  0.3796850840047755 0.200000000000134 0  0.4618364086138087 0.1999999999998546 0  0.4917096175621762 0.1999999999998808 0  0.3946216884789568 0.2000000000001512 0  0.446899804139621 0.1999999999998389 0  0.4089549580935208 0.1998691686391595 0  0.4322718174608562 0.200127451265745 0  0.4201487168029707 0.1999966199048527 0  0.3528922713220932 0.2000185703532356 0  0.5633122436674589 0.1999814296467508 0  0.3006558810093873 0.1999966199048318 0  0.5815926498168407 0.1966545283159175 0  0.2677053789419034 0.1964246479135325 0  0.5290511287476175 0.1970915826863981 0  0.5439877332217911 0.197091582686394 0  0.2825131256993216 0.2035478995978015 0  0.3199386661080599 0.202908417313604 0  0.4842413153250809 0.1970915826863873 0  0.5141145242734466 0.1970915826863843 0  0.3722167817676917 0.2029084173136195 0  0.4693047108508938 0.1970915826863783 0  0.3348752705822316 0.202908417313609 0  0.3871533862418661 0.2029084173136212 0  0.4543681063767183 0.1970915826863795 0  0.4991779197992749 0.1970915826863902 0  0.4020059614928624 0.203547899597858 0  0.4394315019025246 0.1970915826863714 0  0.2550657455369551 0.2034088125358657 0  0.2548908499171161 0.1966940311614271 0  0.5946539510196798 0.2024302972968126 0  0.267698176732111 0.2039977513680092 0  0.4261685417851465 0.196409292431739 0  0.3590076176283495 0.196411355804271 0  0.5571672426447437 0.2036011176410121 0  0.3066757059912147 0.1964092924317024 0  0.594380730180568 0.1966558399668133 0  0.4842413153245942 0.2040749161535287 0  0.4693047108503577 0.2040749161535231 0  0.3871533862424271 0.1959250838464788 0  0.372246743208829 0.1959123236376545 0  0.5141145242731028 0.2040749161535395 0  0.4543681063761134 0.2040749161535186 0  0.4019979587101454 0.1959834479682427 0  0.4394608940728603 0.2040870543693135 0  0.5439623148931173 0.2040856076781014 0  0.5290511287473298 0.2040749161535501 0  0.4991779197988497 0.2040749161535382 0  0.3347912413592433 0.1959225448935183 0  0.3199680582793816 0.1959123018030061 0  0.2825051229162361 0.1959834479681729 0  0.3590471196690275 0.2036304442587945 0  0.5571594006495384 0.1963685282145804 0  0.3067669986803285 0.203627750582736 0  0.4262598344738712 0.2036568242185335 0  0.5814408164431408 0.2041285596160068 0  0.5688286748170428 0.1961819304477386 0  0.4145905603063645 0.2038180695522843 0  0.3473758401724931 0.2038180695522752 0  0.2950977245128307 0.2038180695522663 0  0.5688286748170693 0.203818069552238 0  0.2950977245127906 0.1961819304477774 0  0.3473758401723931 0.1961819304478349 0  0.4145905603061963 0.1961819304479011 0  0.2601812407614425 0.2056861609747042
[...]
<PointData  Vectors="f_40-1"> 
<DataArray  type="Float64"  Name="f_40-1"  NumberOfComponents="3" format="ascii">0.0000000000000000e+00 0.0000000000000000e+00 0.0000000000000000e+00  0.0000000000000000e+00 0.0000000000000000e+00 0.0000000000000000e+00  0.0000000000000000e+00 0.0000000000000000e+00 0.0000000000000000e+00  0.0000000000000000e+00 0.0000000000000000e+00 0.0000000000000000e+00  3.2967730718363800e-06 1.1032256799881793e-03 0.0000000000000000e+00  -5.7924795724405126e-05 1.1001811545366894e-03 0.0000000000000000e+00  0.0000000000000000e+00 0.0000000000000000e+00 0.0000000000000000e+00  0.0000000000000000e+00 0.0000000000000000e+00 0.0000000000000000e+00  0.0000000000000000e+00 0.0000000000000000e+00 0.0000000000000000e+00  0.0000000000000000e+00 0.0000000000000000e+00 0.0000000000000000e+00  -2.7652331920863701e-05 1.1017061353185060e-03 0.0000000000000000e+00  0.0000000000000000e+00 0.0000000000000000e+00 0.0000000000000000e+00  0.0000000000000000e+00 0.0000000000000000e+00 0.0000000000000000e+00  0.0000000000000000e+00 0.0000000000000000e+00 0.0000000000000000e+00  0.0000000000000000e+00 0.0000000000000000e+00 0.0000000000000000e+00  0.0000000000000000e+00 0.0000000000000000e+00 0.0000000000000000e+00  0.0000000000000000e+00 0.0000000000000000e+00 0.0000000000000000e+00  0.0000000000000000e+00 0.0000000000000000e+00 0.0000000000000000e+00  0.0000000000000000e+00 0.0000000000000000e+00 0.0000000000000000e+00  0.0000000000000000e+00 0.0000000000000000e+00 0.0000000000000000e+00  0.0000000000000000e+00 0.0000000000000000e+00 0.0000000000000000e+00  0.0000000000000000e+00 0.0000000000000000e+00 0.0000000000000000e+00  0.0000000000000000e+00 0.0000000000000000e+00 0.0000000000000000e+00  0.0000000000000000e+00 0.0000000000000000e+00 0.0000000000000000e+00  0.0000000000000000e+00 0.0000000000000000e+00 0.0000000000000000e+00  0.0000000000000000e+00 0.0000000000000000e+00 0.0000000000000000e+00  0.0000000000000000e+00 0.0000000000000000e+00 0.0000000000000000e+00  0.0000000000000000e+00 0.0000000000000000e+00 0.0000000000000000e+00  0.0000000000000000e+00 0.0000000000000000e+00 0.0000000000000000e+00  0.0000000000000000e+00 0.0000000000000000e+00 0.0000000000000000e+00  0.0000000000000000e+00 0.0000000000000000e+00 0.0000000000000000e+00  0.0000000000000000e+00 0.0000000000000000e+00 0.0000000000000000e+00  0.0000000000000000e+00 0.0000000000000000e+00 0.0000000000000000e+00  0.0000000000000000e+00 0.0000000000000000e+00 0.0000000000000000e+00  0.0000000000000000e+00 0.0000000000000000e+00 0.0000000000000000e+00  0.0000000000000000e+00 0.0000000000000000e+00 0.0000000000000000e+00  0.0000000000000000e+00 0.0000000000000000e+00 0.0000000000000000e+00  0.0000000000000000e+00 0.0000000000000000e+00 0.0000000000000000e+00  0.0000000000000000e+00 0.0000000000000000e+00 0.0000000000000000e+00  0.0000000000000000e+00 0.0000000000000000e+00 0.0000000000000000e+00  0.0000000000000000e+00 0.0000000000000000e+00 0.0000000000000000e+00  0.0000000000000000e+00 0.0000000000000000e+00 0.0000000000000000e+00  0.0000000000000000e+00 0.0000000000000000e+00 0.0000000000000000e+00  0.0000000000000000e+00 0.0000000000000000e+00 0.0000000000000000e+00  0.0000000000000000e+00 0.0000000000000000e+00 0.0000000000000000e+00  0.0000000000000000e+00 0.0000000000000000e+00 0.0000000000000000e+00  0.0000000000000000e+00 0.0000000000000000e+00 0.0000000000000000e+00  0.0000000000000000e+00 0.0000000000000000e+00 0.0000000000000000e+00  0.0000000000000000e+00 0.0000000000000000e+00 0.0000000000000000e+00  0.0000000000000000e+00 0.0000000000000000e+00 0.0000000000000000e+00  0.0000000000000000e+00 0.0000000000000000e+00 0.0000000000000000e+00  0.0000000000000000e+00 0.0000000000000000e+00 0.0000000000000000e+00  0.0000000000000000e+00 0.0000000000000000e+00 0.0000000000000000e+00  0.0000000000000000e+00 0.0000000000000000e+00 0.0000000000000000e+00  0.0000000000000000e+00 0.0000000000000000e+00 0.0000000000000000e+00  0.0000000000000000e+00 0.0000000000000000e+00 0.0000000000000000e+00  0.0000000000000000e+00 0.0000000000000000e+00 0.0000000000000000e+00  0.0000000000000000e+00 0.0000000000000000e+00 0.0000000000000000e+00  0.0000000000000000e+00 0.0000000000000000e+00 0.0000000000000000e+00  0.0000000000000000e+00 0.0000000000000000e+00 0.0000000000000000e+00  0.0000000000000000e+00 0.0000000000000000e+00 0.0000000000000000e+00  0.0000000000000000e+00 0.0000000000000000e+00 0.0000000000000000e+00  0.0000000000000000e+00 0.0000000000000000e+00 0.0000000000000000e+00  0.0000000000000000e+00 0.0000000000000000e+00 0.0000000000000000e+00  0.0000000000000000e+00 0.0000000000000000e+00 0.0000000000000000e+00  0.0000000000000000e+00 0.0000000000000000e+00 0.0000000000000000e+00  0.0000000000000000e+00 0.0000000000000000e+00 0.0000000000000000e+00  0.0000000000000000e+00 0.0000000000000000e+00 0.0000000000000000e+00  0.0000000000000000e+00 0.0000000000000000e+00 0.0000000000000000e+00  0.0000000000000000e+00 0.0000000000000000e+00 0.0000000000000000e+00  0.0000000000000000e+00 0.0000000000000000e+00 0.0000000000000000e+00  0.0000000000000000e+00 0.0000000000000000e+00 0.0000000000000000e+00  0.0000000000000000e+00 0.0000000000000000e+00 0.0000000000000000e+00  0.0000000000000000e+00 0.0000000000000000e+00 0.0000000000000000e+00  0.0000000000000000e+00 0.0000000000000000e+00 0.0000000000000000e+00  0.0000000000000000e+00 0.0000000000000000e+00 0.0000000000000000e+00  0.0000000000000000e+00 0.0000000000000000e+00 0.0000000000000000e+00  0.0000000000000000e+00 0.0000000000000000e+00 0.0000000000000000e+00  0.0000000000000000e+00 0.0000000000000000e+00 0.0000000000000000e+00  0.0000000000000000e+00 0.0000000000000000e+00 0.0000000000000000e+00  0.0000000000000000e+00 0.0000000000000000e+00 0.0000000000000000e+00  0.0000000000000000e+00 0.0000000000000000e+00 0.0000000000000000e+00  0.0000000000000000e+00 0.0000000000000000e+00 0.0000000000000000e+00  0.0000000000000000e+00 0.0000000000000000e+00 0.0000000000000000e+00  0.0000000000000000e+00 0.0000000000000000e+00 0.0000000000000000e+00  0.0000000000000000e+00 0.0000000000000000e+00 0.0000000000000000e+00  0.0000000000000000e+00 0.0000000000000000e+00 0.0000000000000000e+00  0.0000000000000000e+00 0.0000000000000000e+00 0.0000000000000000e+00  0.0000000000000000e+00 0.0000000000000000e+00 0.0000000000000000e+00  0.0000000000000000e+00 0.0000000000000000e+00 0.0000000000000000e+00  0.0000000000000000e+00 0.0000000000000000e+00 0.0000000000000000e+00  0.0000000000000000e+00 0.0000000000000000e+00 0.0000000000000000e+00  0.0000000000000000e+00 0.0000000000000000e+00 0.0000000000000000e+00  0.0000000000000000e+00 0.0000000000000000e+00 0.0000000000000000e+00  0.0000000000000000e+00 0.0000000000000000e+00 0.0000000000000000e+00  0.0000000000000000e+00 0.0000000000000000e+00 0.0000000000000000e+00  0.0000000000000000e+00 0.0000000000000000e+00 0.0000000000000000e+00  0.0000000000000000e+00 0.0000000000000000e+00 0.0000000000000000e+00  0.0000000000000000e+00 0.0000000000000000e+00 0.0000000000000000e+00  0.0000000000000000e+00 0.0000000000000000e+00 0.0000000000000000e+00  0.0000000000000000e+00 0.0000000000000000e+00 0.0000000000000000e+00  0.0000000000000000e+00 0.0000000000000000e+00 0.0000000000000000e+00  0.0000000000000000e+00 0.0000000000000000e+00 0.0000000000000000e+00  0.0000000000000000e+00 0.0000000000000000e+00 0.0000000000000000e+00  0.0000000000000000e+00 0.0000000000000000e+00 0.0000000000000000e+00  0.0000000000000000e+00 0.0000000000000000e+00 0.0000000000000000e+00  0.0000000000000000e+00 0.0000000000000000e+00 0.0000000000000000e+00  0.0000000000000000e+00 0.0000000000000000e+00 0.0000000000000000e+00  0.0000000000000000e+00 0.0000000000000000e+00 0.0000000000000000e+00  0.0000000000000000e+00 0.0000000000000000e+00 0.0000000000000000e+00  0.0000000000000000e+00 0.0000000000000000e+00 0.0000000000000000e+00  0.0000000000000000e+00 0.0000000000000000e+00 0.0000000000000000e+00  0.0000000000000000e+00 0.0000000000000000e+00 0.0000000000000000e+00  0.0000000000000000e+00 0.0000000000000000e+00 0.0000000000000000e+00  0.0000000000000000e+00 0.0000000000000000e+00 0.0000000000000000e+00  0.0000000000000000e+00 0.0000000000000000e+00 0.0000000000000000e+00  0.0000000000000000e+00 0.0000000000000000e+00 0.0000000000000000e+00  0.0000000000000000e+00 0.0000000000000000e+00 0.0000000000000000e+00  0.0000000000000000e+00 0.0000000000000000e+00 0.0000000000000000e+00  0.0000000000000000e+00 0.0000000000000000e+00 0.0000000000000000e+00  0.0000000000000000e+00 0.0000000000000000e+00 0.0000000000000000e+00  0.0000000000000000e+00 0.0000000000000000e+00 0.0000000000000000e+00  0.0000000000000000e+00 0.0000000000000000e+00 0.0000000000000000e+00  0.0000000000000000e+00 0.0000000000000000e+00 0.0000000000000000e+00  0.0000000000000000e+00 0.0000000000000000e+00 0.0000000000000000e+00  0.0000000000000000e+00 0.0000000000000000e+00 0.0000000000000000e+00  0.0000000000000000e+00 0.0000000000000000e+00 0.0000000000000000e+00  0.0000000000000000e+00 0.0000000000000000e+00 0.0000000000000000e+00  0.0000000000000000e+00 0.0000000000000000e+00 0.0000000000000000e+00  0.0000000000000000e+00 0.0000000000000000e+00 0.0000000000000000e+00  0.0000000000000000e+00 0.0000000000000000e+00 0.0000000000000000e+00  0.0000000000000000e+00 0.0000000000000000e+00 0.0000000000000000e+00  0.0000000000000000e+00 0.0000000000000000e+00 0.0000000000000000e+00  0.0000000000000000e+00 0.0000000000000000e+00 0.0000000000000000e+00  0.0000000000000000e+00 0.0000000000000000e+00 0.0000000000000000e+00  0.0000000000000000e+00 0.0000000000000000e+00 0.0000000000000000e+00  0.0000000000000000e+00 0.0000000000000000e+00 0.0000000000000000e+00  0.0000000000000000e+00 0.0000000000000000e+00 0.0000000000000000e+00  0.0000000000000000e+00 0.0000000000000000e+00 0.0000000000000000e+00  0.0000000000000000e+00 0.0000000000000000e+00 0.0000000000000000e+00  0.0000000000000000e+00 0.0000000000000000e+00 0.0000000000000000e+00  0.0000000000000000e+00 0.0000000000000000e+00 0.0000000000000000e+00  0.0000000000000000e+00 0.0000000000000000e+00 0.0000000000000000e+00  -5.4290455868854535e-06 3.0547022103025559e-06 0.0000000000000000e+00  -1.1206734582977934e-05 8.7771585534106139e-06 0.0000000000000000e+00  -1.6067835704365404e-05 1.7730730007643583e-05 0.0000000000000000e+00  -2.0962307175100287e-05 3.0049319874068673e-05 0.0000000000000000e+00  -2.4899217045375220e-05 4.4808138544868817e-05 0.0000000000000000e+00  -2.8997004071883930e-05 6.2191106624918775e-05 0.0000000000000000e+00  -3.2207129872382554e-05 8.1332709897451654e-05 0.0000000000000000e+00  -3.5111261921881532e-05 1.0264332457823831e-04 0.0000000000000000e+00  -3.8136028556212688e-05 1.2545599431210196e-04 0.0000000000000000e+00  -4.0356593396562442e-05 1.4964510448651298e-04 0.0000000000000000e+00  -4.2711391016739161e-05 1.7511521662094646e-04 0.0000000000000000e+00  -4.4424772502406404e-05 2.0151790773894371e-04 0.0000000000000000e+00  -4.6122571783889147e-05 2.2875792754205025e-04 0.0000000000000000e+00  -4.7421230638865427e-05 2.5653527963636908e-04 0.0000000000000000e+00  -4.8519117682426156e-05 2.8485103344276562e-04 0.0000000000000000e+00  -4.9521712424767172e-05 3.1346995797674560e-04 0.0000000000000000e+00  -5.0253991910337885e-05 3.4225868541790133e-04 0.0000000000000000e+00  -5.0862715603170804e-05 3.7117046706964933e-04 0.0000000000000000e+00  -5.1324042545153082e-05 4.0001235651882129e-04 0.0000000000000000e+00  -5.1638897113950980e-05 4.2878664138691581e-04 0.0000000000000000e+00  -5.1885738757233653e-05 4.5733502622127890e-04 0.0000000000000000e+00  -5.1980285346226628e-05 4.8564272448865494e-04 0.0000000000000000e+00  -5.2090321712780260e-05 5.1369460788683948e-04 0.0000000000000000e+00  -5.2136695460603416e-05 5.4136879815671192e-04 0.0000000000000000e+00  -5.2072845611380850e-05 5.6875201852884182e-04 0.0000000000000000e+00  -5.2039456208393044e-05 5.9572523349229686e-04 0.0000000000000000e+00  -5.1956850892889963e-05 6.2233569757038417e-04 0.0000000000000000e+00  -5.1907448233051061e-05 6.4856723985945615e-04 0.0000000000000000e+00  -5.1828927199052460e-05 6.7442235151039852e-04 0.0000000000000000e+00  -5.1802293749313851e-05 6.9992662501235786e-04 0.0000000000000000e+00  -5.1765067061483892e-05 7.2507060906064726e-04 0.0000000000000000e+00  -5.1791467766277860e-05 7.4990343594444234e-04 0.0000000000000000e+00  -5.1825301243450377e-05 7.7441030895268148e-04 0.0000000000000000e+00  -5.1927441498077246e-05 7.9865683258701194e-04 0.0000000000000000e+00  -5.2051841342698913e-05 8.2262437688561103e-04 0.0000000000000000e+00  -5.2250844311237864e-05 8.4639301609286649e-04 0.0000000000000000e+00  -5.2483585527885684e-05 8.6993562778019985e-04 0.0000000000000000e+00  -5.2790593724674894e-05 8.9333983149904480e-04 0.0000000000000000e+00  -5.3139588914370172e-05 9.1657242443894270e-04 0.0000000000000000e+00  -5.3562878266212503e-05 9.3972599432805694e-04 0.0000000000000000e+00  -5.4037783665410990e-05 9.6276169058706629e-04 0.0000000000000000e+00  -5.4578974535453215e-05 9.8575807174661298e-04 0.0000000000000000e+00  -5.5180242698111029e-05 1.0086998284352569e-03 0.0000000000000000e+00  -5.5813133695613021e-05 1.0316240115481113e-03 0.0000000000000000e+00  -5.6518504091813779e-05 1.0545549962166082e-03 0.0000000000000000e+00  -5.7245687180398466e-05 1.0774470019499615e-03 0.0000000000000000e+00  -4.2903299561871442e-05 1.1009451139620285e-03 0.0000000000000000e+00  -1.2284441108113599e-05 1.1024614773268498e-03 0.0000000000000000e+00  3.9893428864055678e-06 1.0802433172437623e-03 0.0000000000000000e+00  4.7476512042522234e-06 1.0574228853391491e-03 0.0000000000000000e+00  5.4953758675847506e-06 1.0346188472433798e-03 0.0000000000000000e+00  6.2187630108996184e-06 1.0117749479407944e-03 0.0000000000000000e+00  6.9276766539268307e-06 9.8890418249254156e-04 0.0000000000000000e+00  7.6223479236123347e-06 9.6597543614880110e-04 0.0000000000000000e+00  8.3358025164848545e-06 9.4297858057460762e-04 0.0000000000000000e+00  9.0209738935292200e-06 9.1989630792172795e-04 0.0000000000000000e+00  9.7533439836605301e-06 8.9668294201998252e-04 0.0000000000000000e+00  1.0449649394863665e-05 8.7333256139011006e-04 0.0000000000000000e+00  1.1220340971523361e-05 8.4980117585590185e-04 0.0000000000000000e+00  1.1944835769919603e-05 8.2607207185313582e-04 0.0000000000000000e+00  1.2768892683321257e-05 8.0210836758018390e-04 0.0000000000000000e+00  1.3530365616233277e-05 7.7788756157618529e-04 0.0000000000000000e+00  1.4409693892157102e-05 7.5337836946097166e-04 0.0000000000000000e+00  1.5208277525650478e-05 7.2855957436397905e-04 0.0000000000000000e+00  1.6137347331812693e-05 7.0340691001471718e-04 0.0000000000000000e+00  1.6968818722380294e-05 6.7790326202127869e-04 0.0000000000000000e+00  1.7936559065561172e-05 6.5203369426530670e-04 0.0000000000000000e+00  1.8790469789252108e-05 6.2578997453508194e-04 0.0000000000000000e+00  1.9776584525878433e-05 5.9916068521457427e-04 0.0000000000000000e+00  2.0637038618133403e-05 5.7215071744132033e-04 0.0000000000000000e+00  2.1595929793878611e-05 5.4476153219571333e-04 0.0000000000000000e+00  2.2446536482947027e-05 5.1704722753730819e-04 0.0000000000000000e+00  2.3267501578514280e-05 4.8895677478500192e-04 0.0000000000000000e+00  2.4112276159522563e-05 4.6061794692959981e-04 0.0000000000000000e+00  2.4847728105106613e-05 4.3201660292430403e-04 0.0000000000000000e+00  2.5527309455512903e-05 4.0320835875616963e-04 0.0000000000000000e+00  2.6102313921997299e-05 3.7431559598240612e-04 0.0000000000000000e+00  2.6564767526629924e-05 3.4535497900700852e-04 0.0000000000000000e+00  2.6912268269768226e-05 3.1649877534073207e-04 0.0000000000000000e+00  2.7038139936217166e-05 2.8784449757907358e-04 0.0000000000000000e+00  2.7100069553285184e-05 2.5946496149627756e-04 0.0000000000000000e+00  2.7002506085744136e-05 2.3164257970189296e-04 0.0000000000000000e+00  2.6581033733148394e-05 2.0428478578764350e-04 0.0000000000000000e+00  2.6032929453866493e-05 1.7784788321709513e-04 0.0000000000000000e+00  2.5143683561836328e-05 1.5229957421242704e-04 0.0000000000000000e+00  2.4125492581957845e-05 1.2798022123863966e-04 0.0000000000000000e+00  2.2507156986931755e-05 1.0518378803745617e-04 0.0000000000000000e+00  2.1017260633108285e-05 8.3776647397389351e-05 0.0000000000000000e+00  1.9271272824505035e-05 6.4569716234929748e-05 0.0000000000000000e+00  1.6719305522587996e-05 4.7047181231402287e-05 0.0000000000000000e+00  1.4202437357613793e-05 3.2183622403062127e-05 0.0000000000000000e+00  1.0853405556400680e-05 1.9988125644969725e-05 0.0000000000000000e+00  7.7322330986278800e-06 1.0875166712220336e-05 0.0000000000000000e+00  3.7105353285926746e-06 4.9204970348990202e-06 0.0000000000000000e+00  -1.5786067769525197e-06 4.5041976370247035e-06 0.0000000000000000e+00  -2.6784580256392021e-05 1.0673559161979871e-03 0.0000000000000000e+00  -2.5563499208944868e-05 1.0236542340075940e-03 0.0000000000000000e+00  -2.3286620583168838e-05 9.5208675064039478e-04 0.0000000000000000e+00  -2.9460825925449331e-06 2.2731343482933925e-05 0.0000000000000000e+00  -2.1841252214724461e-05 9.0672574306734284e-04 0.0000000000000000e+00  -4.1363385361224036e-06 5.1393786026704270e-05 0.0000000000000000e+00  -2.0813496207872181e-05 8.6000992716945863e-04 0.0000000000000000e+00  -6.2541106247684388e-06 1.1506426984621064e-04 0.0000000000000000e+00  -7.9739095704174854e-06 1.6286753203279588e-04 0.0000000000000000e+00  -1.9858619824381706e-05 8.1255273164070139e-04 0.0000000000000000e+00  -1.0538921182730398e-05 3.0167162105632284e-04 0.0000000000000000e+00  -1.8087747862892577e-05 7.1449894710321447e-04 0.0000000000000000e+00  -8.7309956820711238e-06 2.1376142960705078e-04 0.0000000000000000e+00  -1.2120446906090679e-05 3.5823345846516130e-04 0.0000000000000000e+00  -1.7235273126974617e-05 6.6351077147632409e-04 0.0000000000000000e+00  -1.8956146582644971e-05 7.6412100227044543e-04 0.0000000000000000e+00  -1.3154948482982387e-05 4.1610025353773728e-04 0.0000000000000000e+00  -1.6382500321635237e-05 6.1103579451718718e-04 0.0000000000000000e+00  -1.3600624312498315e-05 4.7106714811376245e-04 0.0000000000000000e+00  -1.5993167751028587e-05 5.5814135645888439e-04 0.0000000000000000e+00  -1.4781235201519773e-05 5.1322515548039263e-04 0.0000000000000000e+00  -1.0171537890949234e-05 2.5528803297846197e-04 0.0000000000000000e+00  -2.3896665482279840e-05 9.8936645885156936e-04 0.0000000000000000e+00  -5.4928117063617238e-06 7.9964563078076403e-05 0.0000000000000000e+00  -1.5377821752887225e-05 1.0458549226591946e-03 0.0000000000000000e+00  1.9083319317423112e-06 1.2645185517680851e-05 0.0000000000000000e+00  -1.2187837884341496e-05 8.8392133601781532e-04 0.0000000000000000e+00  -1.3362095174829925e-05 9.3034537502394697e-04 0.0000000000000000e+00  -1.0426016937793930e-05 3.6229129158498229e-05 0.0000000000000000e+00  -1.6596887710855889e-05 1.3757325384057613e-04 0.0000000000000000e+00  -8.8309251462135014e-06 7.3994923024172158e-04 0.0000000000000000e+00  -1.1054290767437574e-05 8.3686755395961780e-04 0.0000000000000000e+00  -2.2711220687261884e-05 3.2884391233003243e-04 0.0000000000000000e+00  -7.7147014795844188e-06 6.8965966275079816e-04 0.0000000000000000e+00  -1.8739740610658587e-05 1.8865695255996970e-04 0.0000000000000000e+00  -2.3816732828346539e-05 3.8674530162855907e-04 0.0000000000000000e+00  -6.5846918075167488e-06 6.3793572200098348e-04 0.0000000000000000e+00  -9.9404917863661431e-06 7.8895289453971540e-04 0.0000000000000000e+00  -2.7166255106986300e-05 4.4391728815264232e-04 0.0000000000000000e+00  -5.4451986669895107e-06 5.8469039141507734e-04 0.0000000000000000e+00  -1.6352760331803115e-06 9.0456543811125182e-07 0.0000000000000000e+00  -1.2896527191990824e-07 1.2336527645768336e-06 0.0000000000000000e+00  -3.4487268974058274e-05 1.0850063994204940e-03 0.0000000000000000e+00  -6.7698978259626185e-06 1.1801089401490828e-05 0.0000000000000000e+00  -1.8950757520394074e-06 5.3624149244591197e-04 0.00000