<?xml version="1.0"?>
<VTKFile type="UnstructuredGrid"  version="0.1"  >
<UnstructuredGrid>
<Piece  NumberOfPoints="1419" NumberOfCells="2698">
<Points>
<DataArray  type="Float64"  NumberOfComponents="3"  format="ascii">0 0 0  0 0.41 0  2.5 0 0  2.5 0.41 0  0.6 0.19 0  0.6 0.21 0  0.25 0.2 0  0.15 0.2 0  0.2489897948556636 0.21 0  0.2489897948556636 0.19 0  0.6 0.2 0  0 0.3807142857143437 0  0 0.3514285714286952 0  0 0.3221428571430699 0  0 0.29285714285744 0  0 0.2635714285718054 0  0 0.2342857142861561 0  0 0.2050000000005308 0  0 0.175714285714732 0  0 0.1464285714289574 0  0 0.1171428571431897 0  0 0.08785714285737878 0  0 0.05857142857161107 0  0 0.02928571428580012 0  0.03015443760436003 0 0  0.06140001986583606 0 0  0.09377624077125973 0 0  0.1273239957535082 0 0  0.1620856860351972 0 0  0.1981052433264291 0 0  0.235428184091502 0 0  0.2741016576309132 0 0  0.3141745521465447 0 0  0.3556974926295285 0 0  0.3987229542472677 0 0  0.4433053055141081 0 0  0.4895008759286886 0 0  0.5373680609405097 0 0  0.5869673343216626 0 0  0.6383613676634521 0 0  0.6916151138468254 0 0  0.7467958595648856 0 0  0.8039733463919316 0 0  0.8632198139502143 0 0  0.9246101326867038 0 0  0.9882218810934433 0 0  1.054135445558498 0 0  1.122434100542598 0 0  1.193204177141305 0 0  1.266535089879536 0 0  1.342519516046404 0 0  1.421253448503939 0 0  1.502836389106271 0 0  1.587371439758838 0 0  1.674965418777374 0 0  1.765729001825544 0 0  1.859776908880082 0 0  1.957227977487062 0 0  2.058205329869943 0 0  2.162836591189951 0 0  2.271253957290865 0 0  2.383594446803425 0 0  2.5 0.1024999999997612 0  2.5 0.2049999999994743 0  2.5 0.3074999999997183 0  2.383594446803656 0.41 0  2.271253957291315 0.41 0  2.162836591190598 0.41 0  2.058205329870775 0.41 0  1.957227977488067 0.41 0  1.859776908881246 0.41 0  1.765729001826854 0.41 0  1.674965418778818 0.41 0  1.58737143976041 0.41 0  1.502836389107956 0.41 0  1.421253448505726 0.41 0  1.342519516048286 0.41 0  1.266535089881505 0.41 0  1.193204177143353 0.41 0  1.122434100544716 0.41 0  1.05413544556068 0.41 0  0.9882218810956305 0.41 0  0.9246101326886647 0.41 0  0.8632198139519631 0.41 0  0.8039733463934788 0.41 0  0.7467958595662458 0.41 0  0.6916151138480078 0.41 0  0.6383613676644679 0.41 0  0.5869673343225223 0.41 0  0.5373680609412221 0.41 0  0.4895008759292634 0.41 0  0.4433053055145528 0.41 0  0.3987229542475914 0.41 0  0.3556974926297398 0.41 0  0.3141745521466497 0.41 0  0.2741016576310038 0.41 0  0.2354281840915826 0.41 0  0.1981052433265003 0.41 0  0.1620856860352591 0.41 0  0.1273239957535623 0.41 0  0.09377624077128965 0.41 0  0.06140001986584975 0.41 0  0.03015443760436654 0.41 0  0.2497468076502589 0.2050254481002335 0  0.2497468076502614 0.1949745518997913 0  0.2469965252529372 0.1829317073451959 0  0.2439893735792749 0.1762316384219906 0  0.2400332147834255 0.1700443375285386 0  0.2352133972704371 0.1645032867342007 0  0.2296339016332438 0.1597280261969788 0  0.2234150974217223 0.1558215752574715 0  0.2166911463437691 0.1528682099456123 0  0.2096071079204251 0.1509316448471593 0  0.2023158100364996 0.1500536585536553 0  0.194974551899914 0.1502531923497262 0  0.1877417105387872 0.1515259415822739 0  0.1807733240461124 0.153844448527136 0  0.1742197252835808 0.15715869474974 0  0.1682222986673531 0.1613971801805478 0  0.162910430003803 0.1664684656256651 0  0.1583987151779087 0.1722631454351573 0  0.1547844879126891 0.178656207771761 0  0.1521457199348551 0.1855097315605723 0  0.1505393388476355 0.1926758619366523 0  0.1505393388476328 0.2073241380633295 0  0.1521457199348437 0.2144902684393899 0  0.1547844879126531 0.221343792228163 0  0.1583987151778488 0.2277368545647528 0  0.1629104300036858 0.2335315343742052 0  0.1682222986671726 0.2386028198193036 0  0.1742197252833576 0.2428413052501257 0  0.1807733240458683 0.2461555514727623 0  0.1877417105384929 0.2484740584176516 0  0.1949745518995776 0.2497468076502398 0  0.202315810036185 0.2499463414463592 0  0.2096071079201568 0.2490683551528932 0  0.2166911463435495 0.2471317900544655 0  0.2234150974215506 0.2441784247426195 0  0.2296339016331197 0.2402719738031125 0  0.2352133972703547 0.2354967132658811 0  0.2400332147833751 0.2299556624715287 0  0.2439893735792577 0.2237683615780412 0  0.246996525252926 0.2170682926548348 0  0.25645809709277 0.21 0  0.2639263993298655 0.21 0  0.271394701566961 0.21 0  0.2788630038040554 0.21 0  0.2863313060411479 0.21 0  0.2937996082782405 0.21 0  0.301267910515333 0.21 0  0.3087362127524279 0.21 0  0.3162045149895234 0.21 0  0.3236728172265972 0.21 0  0.3311411194636928 0.21 0  0.3386094217007701 0.21 0  0.3460777239378666 0.21 0  0.3535460261749672 0.21 0  0.3610143284120516 0.21 0  0.3684826306491596 0.21 0  0.3759509328862226 0.21 0  0.383419235123329 0.21 0  0.3908875373604028 0.21 0  0.3983558395975142 0.21 0  0.4058241418345938 0.21 0  0.4132924440716992 0.21 0  0.4207607463087888 0.21 0  0.4282290485459029 0.21 0  0.4356973507830418 0.21 0  0.4431656530201649 0.21 0  0.4506339552573136 0.21 0  0.4581022574944306 0.21 0  0.4655705597315852 0.21 0  0.4730388619686996 0.21 0  0.480507164205851 0.21 0  0.4879754664429498 0.21 0  0.4954437686800938 0.21 0  0.502912070917267 0.21 0  0.5103803731544119 0.21 0  0.5178486753915261 0.21 0  0.5253169776286404 0.21 0  0.5327852798657868 0.21 0  0.5402535821029386 0.21 0  0.54772188434007 0.21 0  0.5551901865771842 0.21 0  0.5626584888143201 0.21 0  0.5701267910514778 0.21 0  0.5775950932886138 0.21 0  0.5850633955257281 0.21 0  0.5925316977628483 0.21 0  0.6 0.2050000000000054 0  0.6 0.1950000000000217 0  0.5925316977628897 0.19 0  0.5850633955257988 0.19 0  0.5775950932887378 0.19 0  0.5701267910515998 0.19 0  0.5626584888145268 0.19 0  0.5551901865773963 0.19 0  0.547721884340339 0.19 0  0.5402535821032429 0.19 0  0.5327852798661811 0.19 0  0.5253169776290537 0.19 0  0.5178486753919799 0.19 0  0.5103803731549078 0.19 0  0.502912070917822 0.19 0  0.4954437686807294 0.19 0  0.4879754664436223 0.19 0  0.4805071642065402 0.19 0  0.4730388619694271 0.19 0  0.4655705597323621 0.19 0  0.4581022574952563 0.19 0  0.4506339552581777 0.19 0  0.4431656530210671 0.19 0  0.4356973507839815 0.19 0  0.4282290485468779 0.19 0  0.4207607463097617 0.19 0  0.4132924440726327 0.19 0  0.4058241418354857 0.19 0  0.3983558395983636 0.19 0  0.3908875373612097 0.19 0  0.3834192351240934 0.19 0  0.3759509328869369 0.19 0  0.3684826306498175 0.19 0  0.361014328412667 0.19 0  0.3535460261755617 0.19 0  0.3460777239384295 0.19 0  0.3386094217012945 0.19 0  0.3311411194641595 0.19 0  0.3236728172270245 0.19 0  0.3162045149898895 0.19 0  0.3087362127527544 0.19 0  0.3012679105156187 0.19 0  0.2937996082784807 0.19 0  0.2863313060413428 0.19 0  0.2788630038042048 0.19 0  0.2713947015670686 0.19 0  0.2639263993299336 0.19 0  0.2564580970927985 0.19 0  0.2607803159922026 0.2000727136295815 0  0.5887803774232762 0.2001272386983733 0  0.5745072403740523 0.2002044435018727 0  0.5511891430099709 0.2001122610077113 0  0.2751288526855082 0.20000000000002 0  0.5365194309847112 0.1999999999999436 0  0.2894621222999649 0.1998691686390484 0  0.5215828265105155 0.1999999999999228 0  0.3127789816668748 0.1998657885438805 0  0.3274069683451451 0.2000000000000796 0  0.5066462220363641 0.199999999999908 0  0.3650630746574081 0.199866017807523 0  0.476773013087985 0.1999999999998713 0  0.3417402379596385 0.1998691686391011 0  0.3796850840047755 0.200000000000134 0  0.4618364086138087 0.1999999999998546 0  0.4917096175621762 0.1999999999998808 0  0.3946216884789568 0.2000000000001512 0  0.446899804139621 0.1999999999998389 0  0.4089549580935208 0.1998691686391595 0  0.4322718174608562 0.200127451265745 0  0.4201487168029707 0.1999966199048527 0  0.3528922713220932 0.2000185703532356 0  0.5633122436674589 0.1999814296467508 0  0.3006558810093873 0.1999966199048318 0  0.5815926498168407 0.1966545283159175 0  0.2677053789419034 0.1964246479135325 0  0.5290511287476175 0.1970915826863981 0  0.5439877332217911 0.197091582686394 0  0.2825131256993216 0.2035478995978015 0  0.3199386661080599 0.202908417313604 0  0.4842413153250809 0.1970915826863873 0  0.5141145242734466 0.1970915826863843 0  0.3722167817676917 0.2029084173136195 0  0.4693047108508938 0.1970915826863783 0  0.3348752705822316 0.202908417313609 0  0.3871533862418661 0.2029084173136212 0  0.4543681063767183 0.1970915826863795 0  0.4991779197992749 0.1970915826863902 0  0.4020059614928624 0.203547899597858 0  0.4394315019025246 0.1970915826863714 0  0.2550657455369551 0.2034088125358657 0  0.2548908499171161 0.1966940311614271 0  0.5946539510196798 0.2024302972968126 0  0.267698176732111 0.2039977513680092 0  0.4261685417851465 0.196409292431739 0  0.3590076176283495 0.196411355804271 0  0.5571672426447437 0.2036011176410121 0  0.3066757059912147 0.1964092924317024 0  0.594380730180568 0.1966558399668133 0  0.4842413153245942 0.2040749161535287 0  0.4693047108503577 0.2040749161535231 0  0.3871533862424271 0.1959250838464788 0  0.372246743208829 0.1959123236376545 0  0.5141145242731028 0.2040749161535395 0  0.4543681063761134 0.2040749161535186 0  0.4019979587101454 0.1959834479682427 0  0.4394608940728603 0.2040870543693135 0  0.5439623148931173 0.2040856076781014 0  0.5290511287473298 0.2040749161535501 0  0.4991779197988497 0.2040749161535382 0  0.3347912413592433 0.1959225448935183 0  0.3199680582793816 0.1959123018030061 0  0.2825051229162361 0.1959834479681729 0  0.3590471196690275 0.2036304442587945 0  0.5571594006495384 0.1963685282145804 0  0.3067669986803285 0.203627750582736 0  0.4262598344738712 0.2036568242185335 0  0.5814408164431408 0.2041285596160068 0  0.5688286748170428 0.1961819304477386 0  0.4145905603063645 0.2038180695522843 0  0.3473758401724931 0.2038180695522752 0  0.2950977245128307 0.2038180695522663 0  0.5688286748170693 0.203818069552238 0  0.2950977245127906 0.1961819304477774 0  0.3473758401723931 0.1961819304478349 0  0.4145905603061963 0.1961819304479011 0  0.2601812407614425 0.2056861609747042
[...]
<PointData  Vectors="f_40-1"> 
<DataArray  type="Float64"  Name="f_40-1"  NumberOfComponents="3" format="ascii">0.0000000000000000e+00 0.0000000000000000e+00 0.0000000000000000e+00  0.0000000000000000e+00 0.0000000000000000e+00 0.0000000000000000e+00  0.0000000000000000e+00 0.0000000000000000e+00 0.0000000000000000e+00  0.0000000000000000e+00 0.0000000000000000e+00 0.0000000000000000e+00  5.9892828613378970e-05 2.5096852736172003e-03 0.0000000000000000e+00  -1.0785359286497983e-04 2.5083505330047787e-03 0.0000000000000000e+00  0.0000000000000000e+00 0.0000000000000000e+00 0.0000000000000000e+00  0.0000000000000000e+00 0.0000000000000000e+00 0.0000000000000000e+00  0.0000000000000000e+00 0.0000000000000000e+00 0.0000000000000000e+00  0.0000000000000000e+00 0.0000000000000000e+00 0.0000000000000000e+00  -2.4152287843993465e-05 2.5090162358558563e-03 0.0000000000000000e+00  0.0000000000000000e+00 0.0000000000000000e+00 0.0000000000000000e+00  0.0000000000000000e+00 0.0000000000000000e+00 0.0000000000000000e+00  0.0000000000000000e+00 0.0000000000000000e+00 0.0000000000000000e+00  0.0000000000000000e+00 0.0000000000000000e+00 0.0000000000000000e+00  0.0000000000000000e+00 0.0000000000000000e+00 0.0000000000000000e+00  0.0000000000000000e+00 0.0000000000000000e+00 0.0000000000000000e+00  0.0000000000000000e+00 0.0000000000000000e+00 0.0000000000000000e+00  0.0000000000000000e+00 0.0000000000000000e+00 0.0000000000000000e+00  0.0000000000000000e+00 0.0000000000000000e+00 0.0000000000000000e+00  0.0000000000000000e+00 0.0000000000000000e+00 0.0000000000000000e+00  0.0000000000000000e+00 0.0000000000000000e+00 0.0000000000000000e+00  0.0000000000000000e+00 0.0000000000000000e+00 0.0000000000000000e+00  0.0000000000000000e+00 0.0000000000000000e+00 0.0000000000000000e+00  0.0000000000000000e+00 0.0000000000000000e+00 0.0000000000000000e+00  0.0000000000000000e+00 0.0000000000000000e+00 0.0000000000000000e+00  0.0000000000000000e+00 0.0000000000000000e+00 0.0000000000000000e+00  0.0000000000000000e+00 0.0000000000000000e+00 0.0000000000000000e+00  0.0000000000000000e+00 0.0000000000000000e+00 0.0000000000000000e+00  0.0000000000000000e+00 0.0000000000000000e+00 0.0000000000000000e+00  0.0000000000000000e+00 0.0000000000000000e+00 0.0000000000000000e+00  0.0000000000000000e+00 0.0000000000000000e+00 0.0000000000000000e+00  0.0000000000000000e+00 0.0000000000000000e+00 0.0000000000000000e+00  0.0000000000000000e+00 0.0000000000000000e+00 0.0000000000000000e+00  0.0000000000000000e+00 0.0000000000000000e+00 0.0000000000000000e+00  0.0000000000000000e+00 0.0000000000000000e+00 0.0000000000000000e+00  0.0000000000000000e+00 0.0000000000000000e+00 0.0000000000000000e+00  0.0000000000000000e+00 0.0000000000000000e+00 0.0000000000000000e+00  0.0000000000000000e+00 0.0000000000000000e+00 0.0000000000000000e+00  0.0000000000000000e+00 0.0000000000000000e+00 0.0000000000000000e+00  0.0000000000000000e+00 0.0000000000000000e+00 0.0000000000000000e+00  0.0000000000000000e+00 0.0000000000000000e+00 0.0000000000000000e+00  0.0000000000000000e+00 0.0000000000000000e+00 0.0000000000000000e+00  0.0000000000000000e+00 0.0000000000000000e+00 0.0000000000000000e+00  0.0000000000000000e+00 0.0000000000000000e+00 0.0000000000000000e+00  0.0000000000000000e+00 0.0000000000000000e+00 0.0000000000000000e+00  0.0000000000000000e+00 0.0000000000000000e+00 0.0000000000000000e+00  0.0000000000000000e+00 0.0000000000000000e+00 0.0000000000000000e+00  0.0000000000000000e+00 0.0000000000000000e+00 0.0000000000000000e+00  0.0000000000000000e+00 0.0000000000000000e+00 0.0000000000000000e+00  0.0000000000000000e+00 0.0000000000000000e+00 0.0000000000000000e+00  0.0000000000000000e+00 0.0000000000000000e+00 0.0000000000000000e+00  0.0000000000000000e+00 0.0000000000000000e+00 0.0000000000000000e+00  0.0000000000000000e+00 0.0000000000000000e+00 0.0000000000000000e+00  0.0000000000000000e+00 0.0000000000000000e+00 0.0000000000000000e+00  0.0000000000000000e+00 0.0000000000000000e+00 0.0000000000000000e+00  0.0000000000000000e+00 0.0000000000000000e+00 0.0000000000000000e+00  0.0000000000000000e+00 0.0000000000000000e+00 0.0000000000000000e+00  0.0000000000000000e+00 0.0000000000000000e+00 0.0000000000000000e+00  0.0000000000000000e+00 0.0000000000000000e+00 0.0000000000000000e+00  0.0000000000000000e+00 0.0000000000000000e+00 0.0000000000000000e+00  0.0000000000000000e+00 0.0000000000000000e+00 0.0000000000000000e+00  0.0000000000000000e+00 0.0000000000000000e+00 0.0000000000000000e+00  0.0000000000000000e+00 0.0000000000000000e+00 0.0000000000000000e+00  0.0000000000000000e+00 0.0000000000000000e+00 0.0000000000000000e+00  0.0000000000000000e+00 0.0000000000000000e+00 0.0000000000000000e+00  0.0000000000000000e+00 0.0000000000000000e+00 0.0000000000000000e+00  0.0000000000000000e+00 0.0000000000000000e+00 0.0000000000000000e+00  0.0000000000000000e+00 0.0000000000000000e+00 0.0000000000000000e+00  0.0000000000000000e+00 0.0000000000000000e+00 0.0000000000000000e+00  0.0000000000000000e+00 0.0000000000000000e+00 0.0000000000000000e+00  0.0000000000000000e+00 0.0000000000000000e+00 0.0000000000000000e+00  0.0000000000000000e+00 0.0000000000000000e+00 0.0000000000000000e+00  0.0000000000000000e+00 0.0000000000000000e+00 0.0000000000000000e+00  0.0000000000000000e+00 0.0000000000000000e+00 0.0000000000000000e+00  0.0000000000000000e+00 0.0000000000000000e+00 0.0000000000000000e+00  0.0000000000000000e+00 0.0000000000000000e+00 0.0000000000000000e+00  0.0000000000000000e+00 0.0000000000000000e+00 0.0000000000000000e+00  0.0000000000000000e+00 0.0000000000000000e+00 0.0000000000000000e+00  0.0000000000000000e+00 0.0000000000000000e+00 0.0000000000000000e+00  0.0000000000000000e+00 0.0000000000000000e+00 0.0000000000000000e+00  0.0000000000000000e+00 0.0000000000000000e+00 0.0000000000000000e+00  0.0000000000000000e+00 0.0000000000000000e+00 0.0000000000000000e+00  0.0000000000000000e+00 0.0000000000000000e+00 0.0000000000000000e+00  0.0000000000000000e+00 0.0000000000000000e+00 0.0000000000000000e+00  0.0000000000000000e+00 0.0000000000000000e+00 0.0000000000000000e+00  0.0000000000000000e+00 0.0000000000000000e+00 0.0000000000000000e+00  0.0000000000000000e+00 0.0000000000000000e+00 0.0000000000000000e+00  0.0000000000000000e+00 0.0000000000000000e+00 0.0000000000000000e+00  0.0000000000000000e+00 0.0000000000000000e+00 0.0000000000000000e+00  0.0000000000000000e+00 0.0000000000000000e+00 0.0000000000000000e+00  0.0000000000000000e+00 0.0000000000000000e+00 0.0000000000000000e+00  0.0000000000000000e+00 0.0000000000000000e+00 0.0000000000000000e+00  0.0000000000000000e+00 0.0000000000000000e+00 0.0000000000000000e+00  0.0000000000000000e+00 0.0000000000000000e+00 0.0000000000000000e+00  0.0000000000000000e+00 0.0000000000000000e+00 0.0000000000000000e+00  0.0000000000000000e+00 0.0000000000000000e+00 0.0000000000000000e+00  0.0000000000000000e+00 0.0000000000000000e+00 0.0000000000000000e+00  0.0000000000000000e+00 0.0000000000000000e+00 0.0000000000000000e+00  0.0000000000000000e+00 0.0000000000000000e+00 0.0000000000000000e+00  0.0000000000000000e+00 0.0000000000000000e+00 0.0000000000000000e+00  0.0000000000000000e+00 0.0000000000000000e+00 0.0000000000000000e+00  0.0000000000000000e+00 0.0000000000000000e+00 0.0000000000000000e+00  0.0000000000000000e+00 0.0000000000000000e+00 0.0000000000000000e+00  0.0000000000000000e+00 0.0000000000000000e+00 0.0000000000000000e+00  0.0000000000000000e+00 0.0000000000000000e+00 0.0000000000000000e+00  0.0000000000000000e+00 0.0000000000000000e+00 0.0000000000000000e+00  0.0000000000000000e+00 0.0000000000000000e+00 0.0000000000000000e+00  0.0000000000000000e+00 0.0000000000000000e+00 0.0000000000000000e+00  0.0000000000000000e+00 0.0000000000000000e+00 0.0000000000000000e+00  0.0000000000000000e+00 0.0000000000000000e+00 0.0000000000000000e+00  0.0000000000000000e+00 0.0000000000000000e+00 0.0000000000000000e+00  0.0000000000000000e+00 0.0000000000000000e+00 0.0000000000000000e+00  0.0000000000000000e+00 0.0000000000000000e+00 0.0000000000000000e+00  0.0000000000000000e+00 0.0000000000000000e+00 0.0000000000000000e+00  0.0000000000000000e+00 0.0000000000000000e+00 0.0000000000000000e+00  0.0000000000000000e+00 0.0000000000000000e+00 0.0000000000000000e+00  0.0000000000000000e+00 0.0000000000000000e+00 0.0000000000000000e+00  0.0000000000000000e+00 0.0000000000000000e+00 0.0000000000000000e+00  0.0000000000000000e+00 0.0000000000000000e+00 0.0000000000000000e+00  0.0000000000000000e+00 0.0000000000000000e+00 0.0000000000000000e+00  0.0000000000000000e+00 0.0000000000000000e+00 0.0000000000000000e+00  0.0000000000000000e+00 0.0000000000000000e+00 0.0000000000000000e+00  0.0000000000000000e+00 0.0000000000000000e+00 0.0000000000000000e+00  0.0000000000000000e+00 0.0000000000000000e+00 0.0000000000000000e+00  0.0000000000000000e+00 0.0000000000000000e+00 0.0000000000000000e+00  0.0000000000000000e+00 0.0000000000000000e+00 0.0000000000000000e+00  0.0000000000000000e+00 0.0000000000000000e+00 0.0000000000000000e+00  0.0000000000000000e+00 0.0000000000000000e+00 0.0000000000000000e+00  0.0000000000000000e+00 0.0000000000000000e+00 0.0000000000000000e+00  0.0000000000000000e+00 0.0000000000000000e+00 0.0000000000000000e+00  0.0000000000000000e+00 0.0000000000000000e+00 0.0000000000000000e+00  0.0000000000000000e+00 0.0000000000000000e+00 0.0000000000000000e+00  0.0000000000000000e+00 0.0000000000000000e+00 0.0000000000000000e+00  0.0000000000000000e+00 0.0000000000000000e+00 0.0000000000000000e+00  0.0000000000000000e+00 0.0000000000000000e+00 0.0000000000000000e+00  0.0000000000000000e+00 0.0000000000000000e+00 0.0000000000000000e+00  0.0000000000000000e+00 0.0000000000000000e+00 0.0000000000000000e+00  0.0000000000000000e+00 0.0000000000000000e+00 0.0000000000000000e+00  0.0000000000000000e+00 0.0000000000000000e+00 0.0000000000000000e+00  0.0000000000000000e+00 0.0000000000000000e+00 0.0000000000000000e+00  0.0000000000000000e+00 0.0000000000000000e+00 0.0000000000000000e+00  0.0000000000000000e+00 0.0000000000000000e+00 0.0000000000000000e+00  -7.9951318070421981e-06 6.9722097147009674e-06 0.0000000000000000e+00  -1.6789734583010964e-05 1.6145214157040157e-05 0.0000000000000000e+00  -2.4385167606291589e-05 3.0672475190669413e-05 0.0000000000000000e+00  -3.2328622195149568e-05 5.0840808586239741e-05 0.0000000000000000e+00  -3.8821060274301372e-05 7.5442068070616716e-05 0.0000000000000000e+00  -4.5867746400181740e-05 1.0485450363923170e-04 0.0000000000000000e+00  -5.1433090838926686e-05 1.3765975343311173e-04 0.0000000000000000e+00  -5.6634830874933370e-05 1.7479182812545662e-04 0.0000000000000000e+00  -6.2339379118464718e-05 2.1506834240859828e-04 0.0000000000000000e+00  -6.6579065053608510e-05 2.5845217326579076e-04 0.0000000000000000e+00  -7.1443061987844572e-05 3.0481499070599292e-04 0.0000000000000000e+00  -7.5011184355412965e-05 3.5369043384956520e-04 0.0000000000000000e+00  -7.8929573409187865e-05 4.0492578086580354e-04 0.0000000000000000e+00  -8.1962793305221006e-05 4.5793982829870922e-04 0.0000000000000000e+00  -8.4729261309225649e-05 5.1302072601556298e-04 0.0000000000000000e+00  -8.7631797905955082e-05 5.6955221258691820e-04 0.0000000000000000e+00  -8.9769828157387042e-05 6.2743364729937843e-04 0.0000000000000000e+00  -9.2065320051168016e-05 6.8657962931413475e-04 0.0000000000000000e+00  -9.3742938234288965e-05 7.4666368985133887e-04 0.0000000000000000e+00  -9.5486513508589370e-05 8.0762090110220522e-04 0.0000000000000000e+00  -9.6825876965002091e-05 8.6924251255683530e-04 0.0000000000000000e+00  -9.8107209008711611e-05 9.3147215347127857e-04 0.0000000000000000e+00  -9.9125499228396128e-05 9.9406053241392085e-04 0.0000000000000000e+00  -1.0000547031958581e-04 1.0570515913588909e-03 0.0000000000000000e+00  -1.0083961840340782e-04 1.1202716007266134e-03 0.0000000000000000e+00  -1.0150003847674282e-04 1.1836771588632057e-03 0.0000000000000000e+00  -1.0207868741529201e-04 1.2472352175647529e-03 0.0000000000000000e+00  -1.0256538550649027e-04 1.3108222206006260e-03 0.0000000000000000e+00  -1.0298282301607919e-04 1.3744629492259371e-03 0.0000000000000000e+00  -1.0334306026813586e-04 1.4380657859005726e-03 0.0000000000000000e+00  -1.0364971797198960e-04 1.5016448103886517e-03 0.0000000000000000e+00  -1.0392431930101932e-04 1.5651402148625449e-03 0.0000000000000000e+00  -1.0416271910332019e-04 1.6285621992011981e-03 0.0000000000000000e+00  -1.0438670210554237e-04 1.6918777404400971e-03 0.0000000000000000e+00  -1.0458743758579770e-04 1.7550982441119922e-03 0.0000000000000000e+00  -1.0479412880903939e-04 1.8182162879479928e-03 0.0000000000000000e+00  -1.0499294918963100e-04 1.8812340307604756e-03 0.0000000000000000e+00  -1.0520860530033920e-04 1.9441667065287988e-03 0.0000000000000000e+00  -1.0542689460981651e-04 2.0070113652607786e-03 0.0000000000000000e+00  -1.0567031429236795e-04 2.0697991440651320e-03 0.0000000000000000e+00  -1.0592636028164857e-04 2.1325181455769827e-03 0.0000000000000000e+00  -1.0621187307383965e-04 2.1952065997065842e-03 0.0000000000000000e+00  -1.0651659020365354e-04 2.2578615978006908e-03 0.0000000000000000e+00  -1.0683356339383862e-04 2.3205041412292810e-03 0.0000000000000000e+00  -1.0718097910525863e-04 2.3831486498106409e-03 0.0000000000000000e+00  -1.0753256285521915e-04 2.4457790807108698e-03 0.0000000000000000e+00  -6.6056824259212038e-05 2.5086845567521177e-03 0.0000000000000000e+00  1.7815695030424213e-05 2.5093457565293358e-03 0.0000000000000000e+00  6.0213772307345545e-05 2.4469812601065765e-03 0.0000000000000000e+00  6.0577705041636624e-05 2.3843563401288216e-03 0.0000000000000000e+00  6.0946786976002874e-05 2.3217411026024166e-03 0.0000000000000000e+00  6.1316940662612521e-05 2.2591064002109905e-03 0.0000000000000000e+00  6.1687932414012530e-05 2.1964540933666937e-03 0.0000000000000000e+00  6.2069147340958029e-05 2.1337647369312107e-03 0.0000000000000000e+00  6.2471068758860400e-05 2.0710323069249243e-03 0.0000000000000000e+00  6.2868991748179817e-05 2.0082436686362794e-03 0.0000000000000000e+00  6.3301281966758288e-05 1.9453792146624134e-03 0.0000000000000000e+00  6.3721134844144648e-05 1.8824316975592198e-03 0.0000000000000000e+00  6.4180819457629153e-05 1.8193891930274814e-03 0.0000000000000000e+00  6.4621714291998315e-05 1.7562459845103973e-03 0.0000000000000000e+00  6.5100413000448954e-05 1.6929971962039521e-03 0.0000000000000000e+00  6.5551081987167309e-05 1.6296461203248714e-03 0.0000000000000000e+00  6.6025541520861348e-05 1.5661925045949846e-03 0.0000000000000000e+00  6.6466768411753928e-05 1.5026548446902205e-03 0.0000000000000000e+00  6.6908561326217933e-05 1.4390396454367473e-03 0.0000000000000000e+00  6.7317971946510952e-05 1.3753827501485959e-03 0.0000000000000000e+00  6.7693862985653469e-05 1.3116998669061041e-03 0.0000000000000000e+00  6.8043808987650875e-05 1.2480460680853987e-03 0.0000000000000000e+00  6.8307977714970395e-05 1.1844429711989029e-03 0.0000000000000000e+00  6.8559770738725628e-05 1.1209706691387227e-03 0.0000000000000000e+00  6.8659415238249839e-05 1.0576735665856450e-03 0.0000000000000000e+00  6.8743378674472410e-05 9.9461137861092653e-04 0.0000000000000000e+00  6.8738954268191124e-05 9.3195322295877309e-04 0.0000000000000000e+00  6.8511353145565208e-05 8.6963087851543014e-04 0.0000000000000000e+00  6.8220869920726851e-05 8.0794660633702305e-04 0.0000000000000000e+00  6.7678467860230035e-05 7.4687422126727980e-04 0.0000000000000000e+00  6.7039686052856146e-05 6.8671501594730279e-04 0.0000000000000000e+00  6.6088759141757494e-05 6.2747382639368398e-04 0.0000000000000000e+00  6.5031134358463924e-05 5.6943351860923503e-04 0.0000000000000000e+00  6.3408818755473115e-05 5.1289578682535040e-04 0.0000000000000000e+00  6.1927165394345956e-05 4.5768770078671969e-04 0.0000000000000000e+00  6.0204776294863686e-05 4.0460384069031501e-04 0.0000000000000000e+00  5.7737342473490051e-05 3.5310426382778668e-04 0.0000000000000000e+00  5.5254923883268883e-05 3.0420312901099190e-04 0.0000000000000000e+00  5.2166382785850233e-05 2.5770178684034434e-04 0.0000000000000000e+00  4.9014700567772754e-05 2.1407060526370717e-04 0.0000000000000000e+00  4.4817810219003164e-05 1.7386419585553952e-04 0.0000000000000000e+00  4.1077646186748919e-05 1.3656107295938712e-04 0.0000000000000000e+00  3.7014721410118886e-05 1.0365276685833787e-04 0.0000000000000000e+00  3.1587751606861799e-05 7.3997944387516989e-05 0.0000000000000000e+00  2.6451230262924421e-05 4.9203268374386750e-05 0.0000000000000000e+00  2.0004308790242505e-05 2.9209951550907426e-05 0.0000000000000000e+00  1.4075050555745689e-05 1.4548232910073528e-05 0.0000000000000000e+00  6.7151164497919861e-06 5.3661504392492605e-06 0.0000000000000000e+00  -9.6735765881461083e-07 6.7714010220005614e-06 0.0000000000000000e+00  -2.4620996110788273e-05 2.4149186287843035e-03 0.0000000000000000e+00  -2.4554762450229901e-05 2.2952255701289320e-03 0.0000000000000000e+00  -2.2728489840439955e-05 2.0995701073144024e-03 0.0000000000000000e+00  -2.4696170571170697e-06 3.6050752406566822e-05 0.0000000000000000e+00  -2.1147662807407706e-05 1.9762566953230860e-03 0.0000000000000000e+00  -3.4816645244528231e-06 8.3621168678973409e-05 0.0000000000000000e+00  -2.0499232220712404e-05 1.8503867036141839e-03 0.0000000000000000e+00  -5.5367713248528536e-06 1.9350563373736842e-04 0.0000000000000000e+00  -7.6403892212491991e-06 2.7919370239330927e-04 0.0000000000000000e+00  -1.9836762966332207e-05 1.7241278184688927e-03 0.0000000000000000e+00  -9.9714761004532984e-06 5.4242420922080974e-04 0.0000000000000000e+00  -1.8420144484269763e-05 1.4703854575176135e-03 0.0000000000000000e+00  -8.0745677216302127e-06 3.7315310232140730e-04 0.0000000000000000e+00  -1.2178491461869349e-05 6.5618560661981817e-04 0.0000000000000000e+00  -1.7645863454264138e-05 1.3430786281376490e-03 0.0000000000000000e+00  -1.9147165299662807e-05 1.5974468524657774e-03 0.0000000000000000e+00  -1.3337095718391683e-05 7.7665324321908656e-04 0.0000000000000000e+00  -1.6812235663362655e-05 1.2157650721723314e-03 0.0000000000000000e+00  -1.3297435666368289e-05 8.9511147385109820e-04 0.0000000000000000e+00  -1.7010036219313964e-05 1.0914129452547188e-03 0.0000000000000000e+00  -1.5117864101614605e-05 9.8899725612817198e-04 0.0000000000000000e+00  -1.0071645894313579e-05 4.5219152158316019e-04 0.0000000000000000e+00  -2.2175940852008041e-05 2.2013324883697230e-03 0.0000000000000000e+00  -5.0372334457537898e-06 1.3241424022676147e-04 0.0000000000000000e+00  4.8819008522442275e-06 2.3548533239969209e-03 0.0000000000000000e+00  5.0771671295920429e-06 1.8783166871289325e-05 0.0000000000000000e+00  3.6986988875379016e-06 1.9135343138966105e-03 0.0000000000000000e+00  2.9955286879887368e-06 2.0392436882171053e-03 0.0000000000000000e+00  -1.4554023457597206e-05 5.9241627874297805e-05 0.0000000000000000e+00  -2.3687628242496507e-05 2.3440625536376322e-04 0.0000000000000000e+00  5.9371492668691143e-06 1.5341029002692644e-03 0.0000000000000000e+00  4.4214502906780065e-06 1.7874703305303409e-03 0.0000000000000000e+00  -3.4004712195210048e-05 5.9759457364775214e-04 0.0000000000000000e+00  6.7199643488564756e-06 1.4068874936357112e-03 0.0000000000000000e+00  -2.7112713917434871e-05 3.2735295254168474e-04 0.0000000000000000e+00  -3.6044616239852240e-05 7.1603327158600079e-04 0.0000000000000000e+00  7.5081788689549699e-06 1.2795332983519276e-03 0.0000000000000000e+00  5.1686235198168136e-06 1.6609927075281440e-03 0.0000000000000000e+00  -4.3032900349075538e-05 8.3741336601419645e-04 0.0000000000000000e+00  8.2894488979688028e-06 1.1523331325078198e-03 0.0000000000000000e+00  -1.6188239687809673e-06 1.7663865922672899e-06 0.0000000000000000e+00  8.0800037397224465e-07 1.2620943921305853e-06 0.0000000000000000e+00  -4.4247272607414837e-05 2.4640357570227403e-03 0.0000000000000000e+00  -9.2215498624171091e-06 1.9429384341553161e-05 0.0000000000000000e+00  1.4713727380922500e-05 1.0398814332072651e-03 0.0000000000000000e