<?xml version="1.0"?>
<VTKFile type="UnstructuredGrid"  version="0.1"  >
<UnstructuredGrid>
<Piece  NumberOfPoints="1419" NumberOfCells="2698">
<Points>
<DataArray  type="Float64"  NumberOfComponents="3"  format="ascii">0 0 0  0 0.41 0  2.5 0 0  2.5 0.41 0  0.6 0.19 0  0.6 0.21 0  0.25 0.2 0  0.15 0.2 0  0.2489897948556636 0.21 0  0.2489897948556636 0.19 0  0.6 0.2 0  0 0.3807142857143437 0  0 0.3514285714286952 0  0 0.3221428571430699 0  0 0.29285714285744 0  0 0.2635714285718054 0  0 0.2342857142861561 0  0 0.2050000000005308 0  0 0.175714285714732 0  0 0.1464285714289574 0  0 0.1171428571431897 0  0 0.08785714285737878 0  0 0.05857142857161107 0  0 0.02928571428580012 0  0.03015443760436003 0 0  0.06140001986583606 0 0  0.09377624077125973 0 0  0.1273239957535082 0 0  0.1620856860351972 0 0  0.1981052433264291 0 0  0.235428184091502 0 0  0.2741016576309132 0 0  0.3141745521465447 0 0  0.3556974926295285 0 0  0.3987229542472677 0 0  0.4433053055141081 0 0  0.4895008759286886 0 0  0.5373680609405097 0 0  0.5869673343216626 0 0  0.6383613676634521 0 0  0.6916151138468254 0 0  0.7467958595648856 0 0  0.8039733463919316 0 0  0.8632198139502143 0 0  0.9246101326867038 0 0  0.9882218810934433 0 0  1.054135445558498 0 0  1.122434100542598 0 0  1.193204177141305 0 0  1.266535089879536 0 0  1.342519516046404 0 0  1.421253448503939 0 0  1.502836389106271 0 0  1.587371439758838 0 0  1.674965418777374 0 0  1.765729001825544 0 0  1.859776908880082 0 0  1.957227977487062 0 0  2.058205329869943 0 0  2.162836591189951 0 0  2.271253957290865 0 0  2.383594446803425 0 0  2.5 0.1024999999997612 0  2.5 0.2049999999994743 0  2.5 0.3074999999997183 0  2.383594446803656 0.41 0  2.271253957291315 0.41 0  2.162836591190598 0.41 0  2.058205329870775 0.41 0  1.957227977488067 0.41 0  1.859776908881246 0.41 0  1.765729001826854 0.41 0  1.674965418778818 0.41 0  1.58737143976041 0.41 0  1.502836389107956 0.41 0  1.421253448505726 0.41 0  1.342519516048286 0.41 0  1.266535089881505 0.41 0  1.193204177143353 0.41 0  1.122434100544716 0.41 0  1.05413544556068 0.41 0  0.9882218810956305 0.41 0  0.9246101326886647 0.41 0  0.8632198139519631 0.41 0  0.8039733463934788 0.41 0  0.7467958595662458 0.41 0  0.6916151138480078 0.41 0  0.6383613676644679 0.41 0  0.5869673343225223 0.41 0  0.5373680609412221 0.41 0  0.4895008759292634 0.41 0  0.4433053055145528 0.41 0  0.3987229542475914 0.41 0  0.3556974926297398 0.41 0  0.3141745521466497 0.41 0  0.2741016576310038 0.41 0  0.2354281840915826 0.41 0  0.1981052433265003 0.41 0  0.1620856860352591 0.41 0  0.1273239957535623 0.41 0  0.09377624077128965 0.41 0  0.06140001986584975 0.41 0  0.03015443760436654 0.41 0  0.2497468076502589 0.2050254481002335 0  0.2497468076502614 0.1949745518997913 0  0.2469965252529372 0.1829317073451959 0  0.2439893735792749 0.1762316384219906 0  0.2400332147834255 0.1700443375285386 0  0.2352133972704371 0.1645032867342007 0  0.2296339016332438 0.1597280261969788 0  0.2234150974217223 0.1558215752574715 0  0.2166911463437691 0.1528682099456123 0  0.2096071079204251 0.1509316448471593 0  0.2023158100364996 0.1500536585536553 0  0.194974551899914 0.1502531923497262 0  0.1877417105387872 0.1515259415822739 0  0.1807733240461124 0.153844448527136 0  0.1742197252835808 0.15715869474974 0  0.1682222986673531 0.1613971801805478 0  0.162910430003803 0.1664684656256651 0  0.1583987151779087 0.1722631454351573 0  0.1547844879126891 0.178656207771761 0  0.1521457199348551 0.1855097315605723 0  0.1505393388476355 0.1926758619366523 0  0.1505393388476328 0.2073241380633295 0  0.1521457199348437 0.2144902684393899 0  0.1547844879126531 0.221343792228163 0  0.1583987151778488 0.2277368545647528 0  0.1629104300036858 0.2335315343742052 0  0.1682222986671726 0.2386028198193036 0  0.1742197252833576 0.2428413052501257 0  0.1807733240458683 0.2461555514727623 0  0.1877417105384929 0.2484740584176516 0  0.1949745518995776 0.2497468076502398 0  0.202315810036185 0.2499463414463592 0  0.2096071079201568 0.2490683551528932 0  0.2166911463435495 0.2471317900544655 0  0.2234150974215506 0.2441784247426195 0  0.2296339016331197 0.2402719738031125 0  0.2352133972703547 0.2354967132658811 0  0.2400332147833751 0.2299556624715287 0  0.2439893735792577 0.2237683615780412 0  0.246996525252926 0.2170682926548348 0  0.25645809709277 0.21 0  0.2639263993298655 0.21 0  0.271394701566961 0.21 0  0.2788630038040554 0.21 0  0.2863313060411479 0.21 0  0.2937996082782405 0.21 0  0.301267910515333 0.21 0  0.3087362127524279 0.21 0  0.3162045149895234 0.21 0  0.3236728172265972 0.21 0  0.3311411194636928 0.21 0  0.3386094217007701 0.21 0  0.3460777239378666 0.21 0  0.3535460261749672 0.21 0  0.3610143284120516 0.21 0  0.3684826306491596 0.21 0  0.3759509328862226 0.21 0  0.383419235123329 0.21 0  0.3908875373604028 0.21 0  0.3983558395975142 0.21 0  0.4058241418345938 0.21 0  0.4132924440716992 0.21 0  0.4207607463087888 0.21 0  0.4282290485459029 0.21 0  0.4356973507830418 0.21 0  0.4431656530201649 0.21 0  0.4506339552573136 0.21 0  0.4581022574944306 0.21 0  0.4655705597315852 0.21 0  0.4730388619686996 0.21 0  0.480507164205851 0.21 0  0.4879754664429498 0.21 0  0.4954437686800938 0.21 0  0.502912070917267 0.21 0  0.5103803731544119 0.21 0  0.5178486753915261 0.21 0  0.5253169776286404 0.21 0  0.5327852798657868 0.21 0  0.5402535821029386 0.21 0  0.54772188434007 0.21 0  0.5551901865771842 0.21 0  0.5626584888143201 0.21 0  0.5701267910514778 0.21 0  0.5775950932886138 0.21 0  0.5850633955257281 0.21 0  0.5925316977628483 0.21 0  0.6 0.2050000000000054 0  0.6 0.1950000000000217 0  0.5925316977628897 0.19 0  0.5850633955257988 0.19 0  0.5775950932887378 0.19 0  0.5701267910515998 0.19 0  0.5626584888145268 0.19 0  0.5551901865773963 0.19 0  0.547721884340339 0.19 0  0.5402535821032429 0.19 0  0.5327852798661811 0.19 0  0.5253169776290537 0.19 0  0.5178486753919799 0.19 0  0.5103803731549078 0.19 0  0.502912070917822 0.19 0  0.4954437686807294 0.19 0  0.4879754664436223 0.19 0  0.4805071642065402 0.19 0  0.4730388619694271 0.19 0  0.4655705597323621 0.19 0  0.4581022574952563 0.19 0  0.4506339552581777 0.19 0  0.4431656530210671 0.19 0  0.4356973507839815 0.19 0  0.4282290485468779 0.19 0  0.4207607463097617 0.19 0  0.4132924440726327 0.19 0  0.4058241418354857 0.19 0  0.3983558395983636 0.19 0  0.3908875373612097 0.19 0  0.3834192351240934 0.19 0  0.3759509328869369 0.19 0  0.3684826306498175 0.19 0  0.361014328412667 0.19 0  0.3535460261755617 0.19 0  0.3460777239384295 0.19 0  0.3386094217012945 0.19 0  0.3311411194641595 0.19 0  0.3236728172270245 0.19 0  0.3162045149898895 0.19 0  0.3087362127527544 0.19 0  0.3012679105156187 0.19 0  0.2937996082784807 0.19 0  0.2863313060413428 0.19 0  0.2788630038042048 0.19 0  0.2713947015670686 0.19 0  0.2639263993299336 0.19 0  0.2564580970927985 0.19 0  0.2607803159922026 0.2000727136295815 0  0.5887803774232762 0.2001272386983733 0  0.5745072403740523 0.2002044435018727 0  0.5511891430099709 0.2001122610077113 0  0.2751288526855082 0.20000000000002 0  0.5365194309847112 0.1999999999999436 0  0.2894621222999649 0.1998691686390484 0  0.5215828265105155 0.1999999999999228 0  0.3127789816668748 0.1998657885438805 0  0.3274069683451451 0.2000000000000796 0  0.5066462220363641 0.199999999999908 0  0.3650630746574081 0.199866017807523 0  0.476773013087985 0.1999999999998713 0  0.3417402379596385 0.1998691686391011 0  0.3796850840047755 0.200000000000134 0  0.4618364086138087 0.1999999999998546 0  0.4917096175621762 0.1999999999998808 0  0.3946216884789568 0.2000000000001512 0  0.446899804139621 0.1999999999998389 0  0.4089549580935208 0.1998691686391595 0  0.4322718174608562 0.200127451265745 0  0.4201487168029707 0.1999966199048527 0  0.3528922713220932 0.2000185703532356 0  0.5633122436674589 0.1999814296467508 0  0.3006558810093873 0.1999966199048318 0  0.5815926498168407 0.1966545283159175 0  0.2677053789419034 0.1964246479135325 0  0.5290511287476175 0.1970915826863981 0  0.5439877332217911 0.197091582686394 0  0.2825131256993216 0.2035478995978015 0  0.3199386661080599 0.202908417313604 0  0.4842413153250809 0.1970915826863873 0  0.5141145242734466 0.1970915826863843 0  0.3722167817676917 0.2029084173136195 0  0.4693047108508938 0.1970915826863783 0  0.3348752705822316 0.202908417313609 0  0.3871533862418661 0.2029084173136212 0  0.4543681063767183 0.1970915826863795 0  0.4991779197992749 0.1970915826863902 0  0.4020059614928624 0.203547899597858 0  0.4394315019025246 0.1970915826863714 0  0.2550657455369551 0.2034088125358657 0  0.2548908499171161 0.1966940311614271 0  0.5946539510196798 0.2024302972968126 0  0.267698176732111 0.2039977513680092 0  0.4261685417851465 0.196409292431739 0  0.3590076176283495 0.196411355804271 0  0.5571672426447437 0.2036011176410121 0  0.3066757059912147 0.1964092924317024 0  0.594380730180568 0.1966558399668133 0  0.4842413153245942 0.2040749161535287 0  0.4693047108503577 0.2040749161535231 0  0.3871533862424271 0.1959250838464788 0  0.372246743208829 0.1959123236376545 0  0.5141145242731028 0.2040749161535395 0  0.4543681063761134 0.2040749161535186 0  0.4019979587101454 0.1959834479682427 0  0.4394608940728603 0.2040870543693135 0  0.5439623148931173 0.2040856076781014 0  0.5290511287473298 0.2040749161535501 0  0.4991779197988497 0.2040749161535382 0  0.3347912413592433 0.1959225448935183 0  0.3199680582793816 0.1959123018030061 0  0.2825051229162361 0.1959834479681729 0  0.3590471196690275 0.2036304442587945 0  0.5571594006495384 0.1963685282145804 0  0.3067669986803285 0.203627750582736 0  0.4262598344738712 0.2036568242185335 0  0.5814408164431408 0.2041285596160068 0  0.5688286748170428 0.1961819304477386 0  0.4145905603063645 0.2038180695522843 0  0.3473758401724931 0.2038180695522752 0  0.2950977245128307 0.2038180695522663 0  0.5688286748170693 0.203818069552238 0  0.2950977245127906 0.1961819304477774 0  0.3473758401723931 0.1961819304478349 0  0.4145905603061963 0.1961819304479011 0  0.2601812407614425 0.2056861609747042
[...]
<PointData  Vectors="f_40-1"> 
<DataArray  type="Float64"  Name="f_40-1"  NumberOfComponents="3" format="ascii">0.0000000000000000e+00 0.0000000000000000e+00 0.0000000000000000e+00  0.0000000000000000e+00 0.0000000000000000e+00 0.0000000000000000e+00  0.0000000000000000e+00 0.0000000000000000e+00 0.0000000000000000e+00  0.0000000000000000e+00 0.0000000000000000e+00 0.0000000000000000e+00  -1.3558499899164282e-05 5.6584679741144455e-04 0.0000000000000000e+00  -3.6097632214985519e-05 5.6236774953713313e-04 0.0000000000000000e+00  0.0000000000000000e+00 0.0000000000000000e+00 0.0000000000000000e+00  0.0000000000000000e+00 0.0000000000000000e+00 0.0000000000000000e+00  0.0000000000000000e+00 0.0000000000000000e+00 0.0000000000000000e+00  0.0000000000000000e+00 0.0000000000000000e+00 0.0000000000000000e+00  -2.5220134086311687e-05 5.6411266711212744e-04 0.0000000000000000e+00  0.0000000000000000e+00 0.0000000000000000e+00 0.0000000000000000e+00  0.0000000000000000e+00 0.0000000000000000e+00 0.0000000000000000e+00  0.0000000000000000e+00 0.0000000000000000e+00 0.0000000000000000e+00  0.0000000000000000e+00 0.0000000000000000e+00 0.0000000000000000e+00  0.0000000000000000e+00 0.0000000000000000e+00 0.0000000000000000e+00  0.0000000000000000e+00 0.0000000000000000e+00 0.0000000000000000e+00  0.0000000000000000e+00 0.0000000000000000e+00 0.0000000000000000e+00  0.0000000000000000e+00 0.0000000000000000e+00 0.0000000000000000e+00  0.0000000000000000e+00 0.0000000000000000e+00 0.0000000000000000e+00  0.0000000000000000e+00 0.0000000000000000e+00 0.0000000000000000e+00  0.0000000000000000e+00 0.0000000000000000e+00 0.0000000000000000e+00  0.0000000000000000e+00 0.0000000000000000e+00 0.0000000000000000e+00  0.0000000000000000e+00 0.0000000000000000e+00 0.0000000000000000e+00  0.0000000000000000e+00 0.0000000000000000e+00 0.0000000000000000e+00  0.0000000000000000e+00 0.0000000000000000e+00 0.0000000000000000e+00  0.0000000000000000e+00 0.0000000000000000e+00 0.0000000000000000e+00  0.0000000000000000e+00 0.0000000000000000e+00 0.0000000000000000e+00  0.0000000000000000e+00 0.0000000000000000e+00 0.0000000000000000e+00  0.0000000000000000e+00 0.0000000000000000e+00 0.0000000000000000e+00  0.0000000000000000e+00 0.0000000000000000e+00 0.0000000000000000e+00  0.0000000000000000e+00 0.0000000000000000e+00 0.0000000000000000e+00  0.0000000000000000e+00 0.0000000000000000e+00 0.0000000000000000e+00  0.0000000000000000e+00 0.0000000000000000e+00 0.0000000000000000e+00  0.0000000000000000e+00 0.0000000000000000e+00 0.0000000000000000e+00  0.0000000000000000e+00 0.0000000000000000e+00 0.0000000000000000e+00  0.0000000000000000e+00 0.0000000000000000e+00 0.0000000000000000e+00  0.0000000000000000e+00 0.0000000000000000e+00 0.0000000000000000e+00  0.0000000000000000e+00 0.0000000000000000e+00 0.0000000000000000e+00  0.0000000000000000e+00 0.0000000000000000e+00 0.0000000000000000e+00  0.0000000000000000e+00 0.0000000000000000e+00 0.0000000000000000e+00  0.0000000000000000e+00 0.0000000000000000e+00 0.0000000000000000e+00  0.0000000000000000e+00 0.0000000000000000e+00 0.0000000000000000e+00  0.0000000000000000e+00 0.0000000000000000e+00 0.0000000000000000e+00  0.0000000000000000e+00 0.0000000000000000e+00 0.0000000000000000e+00  0.0000000000000000e+00 0.0000000000000000e+00 0.0000000000000000e+00  0.0000000000000000e+00 0.0000000000000000e+00 0.0000000000000000e+00  0.0000000000000000e+00 0.0000000000000000e+00 0.0000000000000000e+00  0.0000000000000000e+00 0.0000000000000000e+00 0.0000000000000000e+00  0.0000000000000000e+00 0.0000000000000000e+00 0.0000000000000000e+00  0.0000000000000000e+00 0.0000000000000000e+00 0.0000000000000000e+00  0.0000000000000000e+00 0.0000000000000000e+00 0.0000000000000000e+00  0.0000000000000000e+00 0.0000000000000000e+00 0.0000000000000000e+00  0.0000000000000000e+00 0.0000000000000000e+00 0.0000000000000000e+00  0.0000000000000000e+00 0.0000000000000000e+00 0.0000000000000000e+00  0.0000000000000000e+00 0.0000000000000000e+00 0.0000000000000000e+00  0.0000000000000000e+00 0.0000000000000000e+00 0.0000000000000000e+00  0.0000000000000000e+00 0.0000000000000000e+00 0.0000000000000000e+00  0.0000000000000000e+00 0.0000000000000000e+00 0.0000000000000000e+00  0.0000000000000000e+00 0.0000000000000000e+00 0.0000000000000000e+00  0.0000000000000000e+00 0.0000000000000000e+00 0.0000000000000000e+00  0.0000000000000000e+00 0.0000000000000000e+00 0.0000000000000000e+00  0.0000000000000000e+00 0.0000000000000000e+00 0.0000000000000000e+00  0.0000000000000000e+00 0.0000000000000000e+00 0.0000000000000000e+00  0.0000000000000000e+00 0.0000000000000000e+00 0.0000000000000000e+00  0.0000000000000000e+00 0.0000000000000000e+00 0.0000000000000000e+00  0.0000000000000000e+00 0.0000000000000000e+00 0.0000000000000000e+00  0.0000000000000000e+00 0.0000000000000000e+00 0.0000000000000000e+00  0.0000000000000000e+00 0.0000000000000000e+00 0.0000000000000000e+00  0.0000000000000000e+00 0.0000000000000000e+00 0.0000000000000000e+00  0.0000000000000000e+00 0.0000000000000000e+00 0.0000000000000000e+00  0.0000000000000000e+00 0.0000000000000000e+00 0.0000000000000000e+00  0.0000000000000000e+00 0.0000000000000000e+00 0.0000000000000000e+00  0.0000000000000000e+00 0.0000000000000000e+00 0.0000000000000000e+00  0.0000000000000000e+00 0.0000000000000000e+00 0.0000000000000000e+00  0.0000000000000000e+00 0.0000000000000000e+00 0.0000000000000000e+00  0.0000000000000000e+00 0.0000000000000000e+00 0.0000000000000000e+00  0.0000000000000000e+00 0.0000000000000000e+00 0.0000000000000000e+00  0.0000000000000000e+00 0.0000000000000000e+00 0.0000000000000000e+00  0.0000000000000000e+00 0.0000000000000000e+00 0.0000000000000000e+00  0.0000000000000000e+00 0.0000000000000000e+00 0.0000000000000000e+00  0.0000000000000000e+00 0.0000000000000000e+00 0.0000000000000000e+00  0.0000000000000000e+00 0.0000000000000000e+00 0.0000000000000000e+00  0.0000000000000000e+00 0.0000000000000000e+00 0.0000000000000000e+00  0.0000000000000000e+00 0.0000000000000000e+00 0.0000000000000000e+00  0.0000000000000000e+00 0.0000000000000000e+00 0.0000000000000000e+00  0.0000000000000000e+00 0.0000000000000000e+00 0.0000000000000000e+00  0.0000000000000000e+00 0.0000000000000000e+00 0.0000000000000000e+00  0.0000000000000000e+00 0.0000000000000000e+00 0.0000000000000000e+00  0.0000000000000000e+00 0.0000000000000000e+00 0.0000000000000000e+00  0.0000000000000000e+00 0.0000000000000000e+00 0.0000000000000000e+00  0.0000000000000000e+00 0.0000000000000000e+00 0.0000000000000000e+00  0.0000000000000000e+00 0.0000000000000000e+00 0.0000000000000000e+00  0.0000000000000000e+00 0.0000000000000000e+00 0.0000000000000000e+00  0.0000000000000000e+00 0.0000000000000000e+00 0.0000000000000000e+00  0.0000000000000000e+00 0.0000000000000000e+00 0.0000000000000000e+00  0.0000000000000000e+00 0.0000000000000000e+00 0.0000000000000000e+00  0.0000000000000000e+00 0.0000000000000000e+00 0.0000000000000000e+00  0.0000000000000000e+00 0.0000000000000000e+00 0.0000000000000000e+00  0.0000000000000000e+00 0.0000000000000000e+00 0.0000000000000000e+00  0.0000000000000000e+00 0.0000000000000000e+00 0.0000000000000000e+00  0.0000000000000000e+00 0.0000000000000000e+00 0.0000000000000000e+00  0.0000000000000000e+00 0.0000000000000000e+00 0.0000000000000000e+00  0.0000000000000000e+00 0.0000000000000000e+00 0.0000000000000000e+00  0.0000000000000000e+00 0.0000000000000000e+00 0.0000000000000000e+00  0.0000000000000000e+00 0.0000000000000000e+00 0.0000000000000000e+00  0.0000000000000000e+00 0.0000000000000000e+00 0.0000000000000000e+00  0.0000000000000000e+00 0.0000000000000000e+00 0.0000000000000000e+00  0.0000000000000000e+00 0.0000000000000000e+00 0.0000000000000000e+00  0.0000000000000000e+00 0.0000000000000000e+00 0.0000000000000000e+00  0.0000000000000000e+00 0.0000000000000000e+00 0.0000000000000000e+00  0.0000000000000000e+00 0.0000000000000000e+00 0.0000000000000000e+00  0.0000000000000000e+00 0.0000000000000000e+00 0.0000000000000000e+00  0.0000000000000000e+00 0.0000000000000000e+00 0.0000000000000000e+00  0.0000000000000000e+00 0.0000000000000000e+00 0.0000000000000000e+00  0.0000000000000000e+00 0.0000000000000000e+00 0.0000000000000000e+00  0.0000000000000000e+00 0.0000000000000000e+00 0.0000000000000000e+00  0.0000000000000000e+00 0.0000000000000000e+00 0.0000000000000000e+00  0.0000000000000000e+00 0.0000000000000000e+00 0.0000000000000000e+00  0.0000000000000000e+00 0.0000000000000000e+00 0.0000000000000000e+00  0.0000000000000000e+00 0.0000000000000000e+00 0.0000000000000000e+00  0.0000000000000000e+00 0.0000000000000000e+00 0.0000000000000000e+00  0.0000000000000000e+00 0.0000000000000000e+00 0.0000000000000000e+00  0.0000000000000000e+00 0.0000000000000000e+00 0.0000000000000000e+00  0.0000000000000000e+00 0.0000000000000000e+00 0.0000000000000000e+00  0.0000000000000000e+00 0.0000000000000000e+00 0.0000000000000000e+00  0.0000000000000000e+00 0.0000000000000000e+00 0.0000000000000000e+00  0.0000000000000000e+00 0.0000000000000000e+00 0.0000000000000000e+00  0.0000000000000000e+00 0.0000000000000000e+00 0.0000000000000000e+00  0.0000000000000000e+00 0.0000000000000000e+00 0.0000000000000000e+00  0.0000000000000000e+00 0.0000000000000000e+00 0.0000000000000000e+00  0.0000000000000000e+00 0.0000000000000000e+00 0.0000000000000000e+00  0.0000000000000000e+00 0.0000000000000000e+00 0.0000000000000000e+00  0.0000000000000000e+00 0.0000000000000000e+00 0.0000000000000000e+00  0.0000000000000000e+00 0.0000000000000000e+00 0.0000000000000000e+00  0.0000000000000000e+00 0.0000000000000000e+00 0.0000000000000000e+00  0.0000000000000000e+00 0.0000000000000000e+00 0.0000000000000000e+00  0.0000000000000000e+00 0.0000000000000000e+00 0.0000000000000000e+00  0.0000000000000000e+00 0.0000000000000000e+00 0.0000000000000000e+00  0.0000000000000000e+00 0.0000000000000000e+00 0.0000000000000000e+00  0.0000000000000000e+00 0.0000000000000000e+00 0.0000000000000000e+00  0.0000000000000000e+00 0.0000000000000000e+00 0.0000000000000000e+00  0.0000000000000000e+00 0.0000000000000000e+00 0.0000000000000000e+00  -4.1102755476722695e-06 1.5430254002754864e-06 0.0000000000000000e+00  -8.3952247453914444e-06 5.6650342763431112e-06 0.0000000000000000e+00  -1.1933452944369734e-05 1.2061938785896019e-05 0.0000000000000000e+00  -1.5403164882288922e-05 2.0808559923830762e-05 0.0000000000000000e+00  -1.8155112063760769e-05 3.1151360270927586e-05 0.0000000000000000e+00  -2.0929701803414796e-05 4.3198143245395155e-05 0.0000000000000000e+00  -2.3081831433497210e-05 5.6334444565457872e-05 0.0000000000000000e+00  -2.4972581664358563e-05 7.0769869035919371e-05 0.0000000000000000e+00  -2.6853681000033097e-05 8.6058817620989571e-05 0.0000000000000000e+00  -2.8208654421388866e-05 1.0205971557275287e-04 0.0000000000000000e+00  -2.9532778339222908e-05 1.1869667347797210e-04 0.0000000000000000e+00  -3.0477309288819260e-05 1.3568923612130736e-04 0.0000000000000000e+00  -3.1293519288412469e-05 1.5296922785543689e-04 0.0000000000000000e+00  -3.1898349339879166e-05 1.7035246165567351e-04 0.0000000000000000e+00  -3.2340869692834051e-05 1.8774987074100897e-04 0.0000000000000000e+00  -3.2625490264894586e-05 2.0506676820593371e-04 0.0000000000000000e+00  -3.2818025130436208e-05 2.2217191573449793e-04 0.0000000000000000e+00  -3.2811604801268232e-05 2.3903524002372349e-04 0.0000000000000000e+00  -3.2817876797254472e-05 2.5552281973836914e-04 0.0000000000000000e+00  -3.2626083432807059e-05 2.7165778801961909e-04 0.0000000000000000e+00  -3.2477582460975048e-05 2.8731241673916392e-04 0.0000000000000000e+00  -3.2162811657475064e-05 3.0248658756742096e-04 0.0000000000000000e+00  -3.1949410057952920e-05 3.1724021832852306e-04 0.0000000000000000e+00  -3.1702221871590743e-05 3.3141150058886522e-04 0.0000000000000000e+00  -3.1336761903848056e-05 3.4516004904347990e-04 0.0000000000000000e+00  -3.1063215516569493e-05 3.5835573485289108e-04 0.0000000000000000e+00  -3.0756676889720925e-05 3.7106602716390023e-04 0.0000000000000000e+00  -3.0519998331672644e-05 3.8331036378685084e-04 0.0000000000000000e+00  -3.0270653907112404e-05 3.9508328698057750e-04 0.0000000000000000e+00  -3.0103266136595275e-05 4.0644533879164802e-04 0.0000000000000000e+00  -2.9940700642579661e-05 4.1737876207773288e-04 0.0000000000000000e+00  -2.9866606408792211e-05 4.2796253071160676e-04 0.0000000000000000e+00  -2.9813849246342185e-05 4.3817300192969586e-04 0.0000000000000000e+00  -2.9849903009183038e-05 4.4810113897387262e-04 0.0000000000000000e+00  -2.9921709694909486e-05 4.5771763033805298e-04 0.0000000000000000e+00  -3.0084499463107258e-05 4.6712408809007145e-04 0.0000000000000000e+00  -3.0292664763726353e-05 4.7628310319876803e-04 0.0000000000000000e+00  -3.0588890380568529e-05 4.8529952893294379e-04 0.0000000000000000e+00  -3.0938072886207175e-05 4.9412950320314717e-04 0.0000000000000000e+00  -3.1374077549014913e-05 5.0288037326168169e-04 0.0000000000000000e+00  -3.1873081896294472e-05 5.1150405629401836e-04 0.0000000000000000e+00  -3.2447887427193067e-05 5.2008795052552843e-04 0.0000000000000000e+00  -3.3095369501842176e-05 5.2861239483041156e-04 0.0000000000000000e+00  -3.3780344398394275e-05 5.3711752522277742e-04 0.0000000000000000e+00  -3.4551390428493587e-05 5.4563069307944547e-04 0.0000000000000000e+00  -3.5350827336810767e-05 5.5409550623157131e-04 0.0000000000000000e+00  -3.0794276993524970e-05 5.6324194517730418e-04 0.0000000000000000e+00  -1.9512199629030322e-05 5.6497615977118274e-04 0.0000000000000000e+00  -1.2790629753473135e-05 5.5729221293826080e-04 0.0000000000000000e+00  -1.1950775332858514e-05 5.4892365492951545e-04 0.0000000000000000e+00  -1.1128511505579230e-05 5.4057306540268937e-04 0.0000000000000000e+00  -1.0341390959420421e-05 5.3217474758376709e-04 0.0000000000000000e+00  -9.5758523730472856e-06 5.2374628187250533e-04 0.0000000000000000e+00  -8.8358996607591994e-06 5.1525463400921778e-04 0.0000000000000000e+00  -8.0820695020205734e-06 5.0668922167498517e-04 0.0000000000000000e+00  -7.3670633536154453e-06 4.9803524746413607e-04 0.0000000000000000e+00  -6.6084512645819139e-06 4.8923860503801797e-04 0.0000000000000000e+00  -5.8946191603340600e-06 4.8030006224366060e-04 0.0000000000000000e+00  -5.1058432179835372e-06 4.7116488855056200e-04 0.0000000000000000e+00  -4.3716909845283702e-06 4.6182012810972801e-04 0.0000000000000000e+00  -3.5315660824489234e-06 4.5221807580475955e-04 0.0000000000000000e+00  -2.7623782409955706e-06 4.4233588084190031e-04 0.0000000000000000e+00  -1.8608200696409609e-06 4.3213207268355097e-04 0.0000000000000000e+00  -1.0498957175762705e-06 4.2158015873694461e-04 0.0000000000000000e+00  -8.4033518358210374e-08 4.1064560713172381e-04 0.0000000000000000e+00  7.7162408948295011e-07 3.9930057542793599e-04 0.0000000000000000e+00  1.8004221145463868e-06 3.8751962265904749e-04 0.0000000000000000e+00  2.6983795303171337e-06 3.7527838024853280e-04 0.0000000000000000e+00  3.7813820533891231e-06 3.6255419088049523e-04 0.0000000000000000e+00  4.7156754875502641e-06 3.4932967659662915e-04 0.0000000000000000e+00  5.8154608148574345e-06 3.3559112679415790e-04 0.0000000000000000e+00  6.7887839975973577e-06 3.2138632483233567e-04 0.0000000000000000e+00  7.7536554553486073e-06 3.0660024094130177e-04 0.0000000000000000e+00  8.8161723105414456e-06 2.9140845521496181e-04 0.0000000000000000e+00  9.7654389221936030e-06 2.7569980573312520e-04 0.0000000000000000e+00  1.0724701275514188e-05 2.5955041279040260e-04 0.0000000000000000e+00  1.1586560584815829e-05 2.4301410856254947e-04 0.0000000000000000e+00  1.2408156648971744e-05 2.2611134139203083e-04 0.0000000000000000e+00  1.3122948815598798e-05 2.0896219096764207e-04 0.0000000000000000e+00  1.3743102147009928e-05 1.9159326390549809e-04 0.0000000000000000e+00  1.4241553498913887e-05 1.7414631950497255e-04 0.0000000000000000e+00  1.4621020437432760e-05 1.5671915775615296e-04 0.0000000000000000e+00  1.4837140074404328e-05 1.3936588105306806e-04 0.0000000000000000e+00  1.4904329619442235e-05 1.2232779138048212e-04 0.0000000000000000e+00  1.4744622524216170e-05 1.0562833727092858e-04 0.0000000000000000e+00  1.4448015589115137e-05 8.9534234488230428e-05 0.0000000000000000e+00  1.3745426960681253e-05 7.4232851013235064e-05 0.0000000000000000e+00  1.3057768258717665e-05 5.9723141975160995e-05 0.0000000000000000e+00  1.2159395044490689e-05 4.6530213257982627e-05 0.0000000000000000e+00  1.0702866944953343e-05 3.4380068936793800e-05 0.0000000000000000e+00  9.2000447485824708e-06 2.3961514247250763e-05 0.0000000000000000e+00  7.0914905653090630e-06 1.5305139477339133e-05 0.0000000000000000e+00  5.1010302474508012e-06 8.7497430367885598e-06 0.0000000000000000e+00  2.4601228795863624e-06 4.3426126466631371e-06 0.0000000000000000e+00  -1.5874847547647479e-06 3.3853973582067546e-06 0.0000000000000000e+00  -2.3963790911878065e-05 5.5145755781855284e-04 0.0000000000000000e+00  -2.2446348412209302e-05 5.3534401351241199e-04 0.0000000000000000e+00  -2.0205351080833056e-05 5.0882544106694812e-04 0.0000000000000000e+00  -2.7316549088139431e-06 1.6505110728473179e-05 0.0000000000000000e+00  -1.8935270204590945e-05 4.9178586064097386e-04 0.0000000000000000e+00  -3.8100592747125864e-06 3.6663712347022587e-05 0.0000000000000000e+00  -1.7898592241579221e-05 4.7387414725505136e-04 0.0000000000000000e+00  -5.6507581942889254e-06 8.0136154302036161e-05 0.0000000000000000e+00  -7.0255162977374015e-06 1.1178296411557998e-04 0.0000000000000000e+00  -1.6967376227543154e-05 4.5517039296991488e-04 0.0000000000000000e+00  -9.2463026611812830e-06 1.9919725696152240e-04 0.0000000000000000e+00  -1.5332272794122284e-05 4.1431444738203777e-04 0.0000000000000000e+00  -7.7453268408303499e-06 1.4462834696954885e-04 0.0000000000000000e+00  -1.0417125512064977e-05 2.3280081015168789e-04 0.0000000000000000e+00  -1.4587186845124346e-05 3.9164526245725166e-04 0.0000000000000000e+00  -1.6118824330113142e-05 4.3540657714007390e-04 0.0000000000000000e+00  -1.1246448795166278e-05 2.6591523388521022e-04 0.0000000000000000e+00  -1.3865949678154318e-05 3.6718215747266958e-04 0.0000000000000000e+00  -1.1734485300490716e-05 2.9612421543980357e-04 0.0000000000000000e+00  -1.3392511324232167e-05 3.4130335769800240e-04 0.0000000000000000e+00  -1.2557080308243327e-05 3.1835437439134407e-04 0.0000000000000000e+00  -8.8265588530258083e-06 1.7069005008302565e-04 0.0000000000000000e+00  -2.1133769707129186e-05 5.2269223317152826e-04 0.0000000000000000e+00  -4.9317500329316337e-06 5.6330729168853279e-05 0.0000000000000000e+00  -1.9189560384335288e-05 5.4392657586873759e-04 0.0000000000000000e+00  8.1201002438191790e-07 9.5823208440094490e-06 0.0000000000000000e+00  -1.4878767297677864e-05 4.8347540124851204e-04 0.0000000000000000e+00  -1.6086000746148631e-05 5.0107345699594954e-04 0.0000000000000000e+00  -8.0656823302885246e-06 2.5744583428492617e-05 0.0000000000000000e+00  -1.2586463688336338e-05 9.4851836768431851e-05 0.0000000000000000e+00  -1.1576259190865108e-05 4.2561878411829981e-04 0.0000000000000000e+00  -1.3741043847912476e-05 4.6520825194627574e-04 0.0000000000000000e+00  -1.6583503400258439e-05 2.1515320811645204e-04 0.0000000000000000e+00  -1.0510769118303038e-05 4.0376588674226511e-04 0.0000000000000000e+00  -1.4064172103125397e-05 1.2823942068599425e-04 0.0000000000000000e+00  -1.7225575970163672e-05 2.4893595270395239e-04 0.0000000000000000e+00  -9.4374183059741009e-06 3.8022176740118755e-04 0.0000000000000000e+00  -1.2647354779355114e-05 4.4601326543680571e-04 0.0000000000000000e+00  -1.9068442120975899e-05 2.8091242108972019e-04 0.0000000000000000e+00  -8.3555626552792785e-06 3.5479164388109029e-04 0.0000000000000000e+00  -1.4747196277035561e-06 5.4985620506551935e-07 0.0000000000000000e+00  -3.9292492452466525e-07 1.1144068400327763e-06 0.0000000000000000e+00  -2.7286344244151555e-05 5.5770362660944261e-04 0.0000000000000000e+00  -5.3240567861118000e-06 8.3391546838498872e-06 0.0000000000000000e+00  -6.0828294564564632e-06 3.3065200083