<?xml version="1.0"?>
<VTKFile type="UnstructuredGrid"  version="0.1"  >
<UnstructuredGrid>
<Piece  NumberOfPoints="1419" NumberOfCells="2698">
<Points>
<DataArray  type="Float64"  NumberOfComponents="3"  format="ascii">0 0 0  0 0.41 0  2.5 0 0  2.5 0.41 0  0.6 0.19 0  0.6 0.21 0  0.25 0.2 0  0.15 0.2 0  0.2489897948556636 0.21 0  0.2489897948556636 0.19 0  0.6 0.2 0  0 0.3807142857143437 0  0 0.3514285714286952 0  0 0.3221428571430699 0  0 0.29285714285744 0  0 0.2635714285718054 0  0 0.2342857142861561 0  0 0.2050000000005308 0  0 0.175714285714732 0  0 0.1464285714289574 0  0 0.1171428571431897 0  0 0.08785714285737878 0  0 0.05857142857161107 0  0 0.02928571428580012 0  0.03015443760436003 0 0  0.06140001986583606 0 0  0.09377624077125973 0 0  0.1273239957535082 0 0  0.1620856860351972 0 0  0.1981052433264291 0 0  0.235428184091502 0 0  0.2741016576309132 0 0  0.3141745521465447 0 0  0.3556974926295285 0 0  0.3987229542472677 0 0  0.4433053055141081 0 0  0.4895008759286886 0 0  0.5373680609405097 0 0  0.5869673343216626 0 0  0.6383613676634521 0 0  0.6916151138468254 0 0  0.7467958595648856 0 0  0.8039733463919316 0 0  0.8632198139502143 0 0  0.9246101326867038 0 0  0.9882218810934433 0 0  1.054135445558498 0 0  1.122434100542598 0 0  1.193204177141305 0 0  1.266535089879536 0 0  1.342519516046404 0 0  1.421253448503939 0 0  1.502836389106271 0 0  1.587371439758838 0 0  1.674965418777374 0 0  1.765729001825544 0 0  1.859776908880082 0 0  1.957227977487062 0 0  2.058205329869943 0 0  2.162836591189951 0 0  2.271253957290865 0 0  2.383594446803425 0 0  2.5 0.1024999999997612 0  2.5 0.2049999999994743 0  2.5 0.3074999999997183 0  2.383594446803656 0.41 0  2.271253957291315 0.41 0  2.162836591190598 0.41 0  2.058205329870775 0.41 0  1.957227977488067 0.41 0  1.859776908881246 0.41 0  1.765729001826854 0.41 0  1.674965418778818 0.41 0  1.58737143976041 0.41 0  1.502836389107956 0.41 0  1.421253448505726 0.41 0  1.342519516048286 0.41 0  1.266535089881505 0.41 0  1.193204177143353 0.41 0  1.122434100544716 0.41 0  1.05413544556068 0.41 0  0.9882218810956305 0.41 0  0.9246101326886647 0.41 0  0.8632198139519631 0.41 0  0.8039733463934788 0.41 0  0.7467958595662458 0.41 0  0.6916151138480078 0.41 0  0.6383613676644679 0.41 0  0.5869673343225223 0.41 0  0.5373680609412221 0.41 0  0.4895008759292634 0.41 0  0.4433053055145528 0.41 0  0.3987229542475914 0.41 0  0.3556974926297398 0.41 0  0.3141745521466497 0.41 0  0.2741016576310038 0.41 0  0.2354281840915826 0.41 0  0.1981052433265003 0.41 0  0.1620856860352591 0.41 0  0.1273239957535623 0.41 0  0.09377624077128965 0.41 0  0.06140001986584975 0.41 0  0.03015443760436654 0.41 0  0.2497468076502589 0.2050254481002335 0  0.2497468076502614 0.1949745518997913 0  0.2469965252529372 0.1829317073451959 0  0.2439893735792749 0.1762316384219906 0  0.2400332147834255 0.1700443375285386 0  0.2352133972704371 0.1645032867342007 0  0.2296339016332438 0.1597280261969788 0  0.2234150974217223 0.1558215752574715 0  0.2166911463437691 0.1528682099456123 0  0.2096071079204251 0.1509316448471593 0  0.2023158100364996 0.1500536585536553 0  0.194974551899914 0.1502531923497262 0  0.1877417105387872 0.1515259415822739 0  0.1807733240461124 0.153844448527136 0  0.1742197252835808 0.15715869474974 0  0.1682222986673531 0.1613971801805478 0  0.162910430003803 0.1664684656256651 0  0.1583987151779087 0.1722631454351573 0  0.1547844879126891 0.178656207771761 0  0.1521457199348551 0.1855097315605723 0  0.1505393388476355 0.1926758619366523 0  0.1505393388476328 0.2073241380633295 0  0.1521457199348437 0.2144902684393899 0  0.1547844879126531 0.221343792228163 0  0.1583987151778488 0.2277368545647528 0  0.1629104300036858 0.2335315343742052 0  0.1682222986671726 0.2386028198193036 0  0.1742197252833576 0.2428413052501257 0  0.1807733240458683 0.2461555514727623 0  0.1877417105384929 0.2484740584176516 0  0.1949745518995776 0.2497468076502398 0  0.202315810036185 0.2499463414463592 0  0.2096071079201568 0.2490683551528932 0  0.2166911463435495 0.2471317900544655 0  0.2234150974215506 0.2441784247426195 0  0.2296339016331197 0.2402719738031125 0  0.2352133972703547 0.2354967132658811 0  0.2400332147833751 0.2299556624715287 0  0.2439893735792577 0.2237683615780412 0  0.246996525252926 0.2170682926548348 0  0.25645809709277 0.21 0  0.2639263993298655 0.21 0  0.271394701566961 0.21 0  0.2788630038040554 0.21 0  0.2863313060411479 0.21 0  0.2937996082782405 0.21 0  0.301267910515333 0.21 0  0.3087362127524279 0.21 0  0.3162045149895234 0.21 0  0.3236728172265972 0.21 0  0.3311411194636928 0.21 0  0.3386094217007701 0.21 0  0.3460777239378666 0.21 0  0.3535460261749672 0.21 0  0.3610143284120516 0.21 0  0.3684826306491596 0.21 0  0.3759509328862226 0.21 0  0.383419235123329 0.21 0  0.3908875373604028 0.21 0  0.3983558395975142 0.21 0  0.4058241418345938 0.21 0  0.4132924440716992 0.21 0  0.4207607463087888 0.21 0  0.4282290485459029 0.21 0  0.4356973507830418 0.21 0  0.4431656530201649 0.21 0  0.4506339552573136 0.21 0  0.4581022574944306 0.21 0  0.4655705597315852 0.21 0  0.4730388619686996 0.21 0  0.480507164205851 0.21 0  0.4879754664429498 0.21 0  0.4954437686800938 0.21 0  0.502912070917267 0.21 0  0.5103803731544119 0.21 0  0.5178486753915261 0.21 0  0.5253169776286404 0.21 0  0.5327852798657868 0.21 0  0.5402535821029386 0.21 0  0.54772188434007 0.21 0  0.5551901865771842 0.21 0  0.5626584888143201 0.21 0  0.5701267910514778 0.21 0  0.5775950932886138 0.21 0  0.5850633955257281 0.21 0  0.5925316977628483 0.21 0  0.6 0.2050000000000054 0  0.6 0.1950000000000217 0  0.5925316977628897 0.19 0  0.5850633955257988 0.19 0  0.5775950932887378 0.19 0  0.5701267910515998 0.19 0  0.5626584888145268 0.19 0  0.5551901865773963 0.19 0  0.547721884340339 0.19 0  0.5402535821032429 0.19 0  0.5327852798661811 0.19 0  0.5253169776290537 0.19 0  0.5178486753919799 0.19 0  0.5103803731549078 0.19 0  0.502912070917822 0.19 0  0.4954437686807294 0.19 0  0.4879754664436223 0.19 0  0.4805071642065402 0.19 0  0.4730388619694271 0.19 0  0.4655705597323621 0.19 0  0.4581022574952563 0.19 0  0.4506339552581777 0.19 0  0.4431656530210671 0.19 0  0.4356973507839815 0.19 0  0.4282290485468779 0.19 0  0.4207607463097617 0.19 0  0.4132924440726327 0.19 0  0.4058241418354857 0.19 0  0.3983558395983636 0.19 0  0.3908875373612097 0.19 0  0.3834192351240934 0.19 0  0.3759509328869369 0.19 0  0.3684826306498175 0.19 0  0.361014328412667 0.19 0  0.3535460261755617 0.19 0  0.3460777239384295 0.19 0  0.3386094217012945 0.19 0  0.3311411194641595 0.19 0  0.3236728172270245 0.19 0  0.3162045149898895 0.19 0  0.3087362127527544 0.19 0  0.3012679105156187 0.19 0  0.2937996082784807 0.19 0  0.2863313060413428 0.19 0  0.2788630038042048 0.19 0  0.2713947015670686 0.19 0  0.2639263993299336 0.19 0  0.2564580970927985 0.19 0  0.2607803159922026 0.2000727136295815 0  0.5887803774232762 0.2001272386983733 0  0.5745072403740523 0.2002044435018727 0  0.5511891430099709 0.2001122610077113 0  0.2751288526855082 0.20000000000002 0  0.5365194309847112 0.1999999999999436 0  0.2894621222999649 0.1998691686390484 0  0.5215828265105155 0.1999999999999228 0  0.3127789816668748 0.1998657885438805 0  0.3274069683451451 0.2000000000000796 0  0.5066462220363641 0.199999999999908 0  0.3650630746574081 0.199866017807523 0  0.476773013087985 0.1999999999998713 0  0.3417402379596385 0.1998691686391011 0  0.3796850840047755 0.200000000000134 0  0.4618364086138087 0.1999999999998546 0  0.4917096175621762 0.1999999999998808 0  0.3946216884789568 0.2000000000001512 0  0.446899804139621 0.1999999999998389 0  0.4089549580935208 0.1998691686391595 0  0.4322718174608562 0.200127451265745 0  0.4201487168029707 0.1999966199048527 0  0.3528922713220932 0.2000185703532356 0  0.5633122436674589 0.1999814296467508 0  0.3006558810093873 0.1999966199048318 0  0.5815926498168407 0.1966545283159175 0  0.2677053789419034 0.1964246479135325 0  0.5290511287476175 0.1970915826863981 0  0.5439877332217911 0.197091582686394 0  0.2825131256993216 0.2035478995978015 0  0.3199386661080599 0.202908417313604 0  0.4842413153250809 0.1970915826863873 0  0.5141145242734466 0.1970915826863843 0  0.3722167817676917 0.2029084173136195 0  0.4693047108508938 0.1970915826863783 0  0.3348752705822316 0.202908417313609 0  0.3871533862418661 0.2029084173136212 0  0.4543681063767183 0.1970915826863795 0  0.4991779197992749 0.1970915826863902 0  0.4020059614928624 0.203547899597858 0  0.4394315019025246 0.1970915826863714 0  0.2550657455369551 0.2034088125358657 0  0.2548908499171161 0.1966940311614271 0  0.5946539510196798 0.2024302972968126 0  0.267698176732111 0.2039977513680092 0  0.4261685417851465 0.196409292431739 0  0.3590076176283495 0.196411355804271 0  0.5571672426447437 0.2036011176410121 0  0.3066757059912147 0.1964092924317024 0  0.594380730180568 0.1966558399668133 0  0.4842413153245942 0.2040749161535287 0  0.4693047108503577 0.2040749161535231 0  0.3871533862424271 0.1959250838464788 0  0.372246743208829 0.1959123236376545 0  0.5141145242731028 0.2040749161535395 0  0.4543681063761134 0.2040749161535186 0  0.4019979587101454 0.1959834479682427 0  0.4394608940728603 0.2040870543693135 0  0.5439623148931173 0.2040856076781014 0  0.5290511287473298 0.2040749161535501 0  0.4991779197988497 0.2040749161535382 0  0.3347912413592433 0.1959225448935183 0  0.3199680582793816 0.1959123018030061 0  0.2825051229162361 0.1959834479681729 0  0.3590471196690275 0.2036304442587945 0  0.5571594006495384 0.1963685282145804 0  0.3067669986803285 0.203627750582736 0  0.4262598344738712 0.2036568242185335 0  0.5814408164431408 0.2041285596160068 0  0.5688286748170428 0.1961819304477386 0  0.4145905603063645 0.2038180695522843 0  0.3473758401724931 0.2038180695522752 0  0.2950977245128307 0.2038180695522663 0  0.5688286748170693 0.203818069552238 0  0.2950977245127906 0.1961819304477774 0  0.3473758401723931 0.1961819304478349 0  0.4145905603061963 0.1961819304479011 0  0.2601812407614425 0.2056861609747042
[...]
<PointData  Vectors="f_40-1"> 
<DataArray  type="Float64"  Name="f_40-1"  NumberOfComponents="3" format="ascii">0.0000000000000000e+00 0.0000000000000000e+00 0.0000000000000000e+00  0.0000000000000000e+00 0.0000000000000000e+00 0.0000000000000000e+00  0.0000000000000000e+00 0.0000000000000000e+00 0.0000000000000000e+00  0.0000000000000000e+00 0.0000000000000000e+00 0.0000000000000000e+00  -3.8630453203997227e-05 -7.8065690559696299e-04 0.0000000000000000e+00  3.2272861278242470e-05 -7.8506728480717770e-04 0.0000000000000000e+00  0.0000000000000000e+00 0.0000000000000000e+00 0.0000000000000000e+00  0.0000000000000000e+00 0.0000000000000000e+00 0.0000000000000000e+00  0.0000000000000000e+00 0.0000000000000000e+00 0.0000000000000000e+00  0.0000000000000000e+00 0.0000000000000000e+00 0.0000000000000000e+00  -3.6484024436346328e-06 -7.8284961836115954e-04 0.0000000000000000e+00  0.0000000000000000e+00 0.0000000000000000e+00 0.0000000000000000e+00  0.0000000000000000e+00 0.0000000000000000e+00 0.0000000000000000e+00  0.0000000000000000e+00 0.0000000000000000e+00 0.0000000000000000e+00  0.0000000000000000e+00 0.0000000000000000e+00 0.0000000000000000e+00  0.0000000000000000e+00 0.0000000000000000e+00 0.0000000000000000e+00  0.0000000000000000e+00 0.0000000000000000e+00 0.0000000000000000e+00  0.0000000000000000e+00 0.0000000000000000e+00 0.0000000000000000e+00  0.0000000000000000e+00 0.0000000000000000e+00 0.0000000000000000e+00  0.0000000000000000e+00 0.0000000000000000e+00 0.0000000000000000e+00  0.0000000000000000e+00 0.0000000000000000e+00 0.0000000000000000e+00  0.0000000000000000e+00 0.0000000000000000e+00 0.0000000000000000e+00  0.0000000000000000e+00 0.0000000000000000e+00 0.0000000000000000e+00  0.0000000000000000e+00 0.0000000000000000e+00 0.0000000000000000e+00  0.0000000000000000e+00 0.0000000000000000e+00 0.0000000000000000e+00  0.0000000000000000e+00 0.0000000000000000e+00 0.0000000000000000e+00  0.0000000000000000e+00 0.0000000000000000e+00 0.0000000000000000e+00  0.0000000000000000e+00 0.0000000000000000e+00 0.0000000000000000e+00  0.0000000000000000e+00 0.0000000000000000e+00 0.0000000000000000e+00  0.0000000000000000e+00 0.0000000000000000e+00 0.0000000000000000e+00  0.0000000000000000e+00 0.0000000000000000e+00 0.0000000000000000e+00  0.0000000000000000e+00 0.0000000000000000e+00 0.0000000000000000e+00  0.0000000000000000e+00 0.0000000000000000e+00 0.0000000000000000e+00  0.0000000000000000e+00 0.0000000000000000e+00 0.0000000000000000e+00  0.0000000000000000e+00 0.0000000000000000e+00 0.0000000000000000e+00  0.0000000000000000e+00 0.0000000000000000e+00 0.0000000000000000e+00  0.0000000000000000e+00 0.0000000000000000e+00 0.0000000000000000e+00  0.0000000000000000e+00 0.0000000000000000e+00 0.0000000000000000e+00  0.0000000000000000e+00 0.0000000000000000e+00 0.0000000000000000e+00  0.0000000000000000e+00 0.0000000000000000e+00 0.0000000000000000e+00  0.0000000000000000e+00 0.0000000000000000e+00 0.0000000000000000e+00  0.0000000000000000e+00 0.0000000000000000e+00 0.0000000000000000e+00  0.0000000000000000e+00 0.0000000000000000e+00 0.0000000000000000e+00  0.0000000000000000e+00 0.0000000000000000e+00 0.0000000000000000e+00  0.0000000000000000e+00 0.0000000000000000e+00 0.0000000000000000e+00  0.0000000000000000e+00 0.0000000000000000e+00 0.0000000000000000e+00  0.0000000000000000e+00 0.0000000000000000e+00 0.0000000000000000e+00  0.0000000000000000e+00 0.0000000000000000e+00 0.0000000000000000e+00  0.0000000000000000e+00 0.0000000000000000e+00 0.0000000000000000e+00  0.0000000000000000e+00 0.0000000000000000e+00 0.0000000000000000e+00  0.0000000000000000e+00 0.0000000000000000e+00 0.0000000000000000e+00  0.0000000000000000e+00 0.0000000000000000e+00 0.0000000000000000e+00  0.0000000000000000e+00 0.0000000000000000e+00 0.0000000000000000e+00  0.0000000000000000e+00 0.0000000000000000e+00 0.0000000000000000e+00  0.0000000000000000e+00 0.0000000000000000e+00 0.0000000000000000e+00  0.0000000000000000e+00 0.0000000000000000e+00 0.0000000000000000e+00  0.0000000000000000e+00 0.0000000000000000e+00 0.0000000000000000e+00  0.0000000000000000e+00 0.0000000000000000e+00 0.0000000000000000e+00  0.0000000000000000e+00 0.0000000000000000e+00 0.0000000000000000e+00  0.0000000000000000e+00 0.0000000000000000e+00 0.0000000000000000e+00  0.0000000000000000e+00 0.0000000000000000e+00 0.0000000000000000e+00  0.0000000000000000e+00 0.0000000000000000e+00 0.0000000000000000e+00  0.0000000000000000e+00 0.0000000000000000e+00 0.0000000000000000e+00  0.0000000000000000e+00 0.0000000000000000e+00 0.0000000000000000e+00  0.0000000000000000e+00 0.0000000000000000e+00 0.0000000000000000e+00  0.0000000000000000e+00 0.0000000000000000e+00 0.0000000000000000e+00  0.0000000000000000e+00 0.0000000000000000e+00 0.0000000000000000e+00  0.0000000000000000e+00 0.0000000000000000e+00 0.0000000000000000e+00  0.0000000000000000e+00 0.0000000000000000e+00 0.0000000000000000e+00  0.0000000000000000e+00 0.0000000000000000e+00 0.0000000000000000e+00  0.0000000000000000e+00 0.0000000000000000e+00 0.0000000000000000e+00  0.0000000000000000e+00 0.0000000000000000e+00 0.0000000000000000e+00  0.0000000000000000e+00 0.0000000000000000e+00 0.0000000000000000e+00  0.0000000000000000e+00 0.0000000000000000e+00 0.0000000000000000e+00  0.0000000000000000e+00 0.0000000000000000e+00 0.0000000000000000e+00  0.0000000000000000e+00 0.0000000000000000e+00 0.0000000000000000e+00  0.0000000000000000e+00 0.0000000000000000e+00 0.0000000000000000e+00  0.0000000000000000e+00 0.0000000000000000e+00 0.0000000000000000e+00  0.0000000000000000e+00 0.0000000000000000e+00 0.0000000000000000e+00  0.0000000000000000e+00 0.0000000000000000e+00 0.0000000000000000e+00  0.0000000000000000e+00 0.0000000000000000e+00 0.0000000000000000e+00  0.0000000000000000e+00 0.0000000000000000e+00 0.0000000000000000e+00  0.0000000000000000e+00 0.0000000000000000e+00 0.0000000000000000e+00  0.0000000000000000e+00 0.0000000000000000e+00 0.0000000000000000e+00  0.0000000000000000e+00 0.0000000000000000e+00 0.0000000000000000e+00  0.0000000000000000e+00 0.0000000000000000e+00 0.0000000000000000e+00  0.0000000000000000e+00 0.0000000000000000e+00 0.0000000000000000e+00  0.0000000000000000e+00 0.0000000000000000e+00 0.0000000000000000e+00  0.0000000000000000e+00 0.0000000000000000e+00 0.0000000000000000e+00  0.0000000000000000e+00 0.0000000000000000e+00 0.0000000000000000e+00  0.0000000000000000e+00 0.0000000000000000e+00 0.0000000000000000e+00  0.0000000000000000e+00 0.0000000000000000e+00 0.0000000000000000e+00  0.0000000000000000e+00 0.0000000000000000e+00 0.0000000000000000e+00  0.0000000000000000e+00 0.0000000000000000e+00 0.0000000000000000e+00  0.0000000000000000e+00 0.0000000000000000e+00 0.0000000000000000e+00  0.0000000000000000e+00 0.0000000000000000e+00 0.0000000000000000e+00  0.0000000000000000e+00 0.0000000000000000e+00 0.0000000000000000e+00  0.0000000000000000e+00 0.0000000000000000e+00 0.0000000000000000e+00  0.0000000000000000e+00 0.0000000000000000e+00 0.0000000000000000e+00  0.0000000000000000e+00 0.0000000000000000e+00 0.0000000000000000e+00  0.0000000000000000e+00 0.0000000000000000e+00 0.0000000000000000e+00  0.0000000000000000e+00 0.0000000000000000e+00 0.0000000000000000e+00  0.0000000000000000e+00 0.0000000000000000e+00 0.0000000000000000e+00  0.0000000000000000e+00 0.0000000000000000e+00 0.0000000000000000e+00  0.0000000000000000e+00 0.0000000000000000e+00 0.0000000000000000e+00  0.0000000000000000e+00 0.0000000000000000e+00 0.0000000000000000e+00  0.0000000000000000e+00 0.0000000000000000e+00 0.0000000000000000e+00  0.0000000000000000e+00 0.0000000000000000e+00 0.0000000000000000e+00  0.0000000000000000e+00 0.0000000000000000e+00 0.0000000000000000e+00  0.0000000000000000e+00 0.0000000000000000e+00 0.0000000000000000e+00  0.0000000000000000e+00 0.0000000000000000e+00 0.0000000000000000e+00  0.0000000000000000e+00 0.0000000000000000e+00 0.0000000000000000e+00  0.0000000000000000e+00 0.0000000000000000e+00 0.0000000000000000e+00  0.0000000000000000e+00 0.0000000000000000e+00 0.0000000000000000e+00  0.0000000000000000e+00 0.0000000000000000e+00 0.0000000000000000e+00  0.0000000000000000e+00 0.0000000000000000e+00 0.0000000000000000e+00  0.0000000000000000e+00 0.0000000000000000e+00 0.0000000000000000e+00  0.0000000000000000e+00 0.0000000000000000e+00 0.0000000000000000e+00  0.0000000000000000e+00 0.0000000000000000e+00 0.0000000000000000e+00  0.0000000000000000e+00 0.0000000000000000e+00 0.0000000000000000e+00  0.0000000000000000e+00 0.0000000000000000e+00 0.0000000000000000e+00  0.0000000000000000e+00 0.0000000000000000e+00 0.0000000000000000e+00  0.0000000000000000e+00 0.0000000000000000e+00 0.0000000000000000e+00  0.0000000000000000e+00 0.0000000000000000e+00 0.0000000000000000e+00  0.0000000000000000e+00 0.0000000000000000e+00 0.0000000000000000e+00  0.0000000000000000e+00 0.0000000000000000e+00 0.0000000000000000e+00  0.0000000000000000e+00 0.0000000000000000e+00 0.0000000000000000e+00  0.0000000000000000e+00 0.0000000000000000e+00 0.0000000000000000e+00  0.0000000000000000e+00 0.0000000000000000e+00 0.0000000000000000e+00  0.0000000000000000e+00 0.0000000000000000e+00 0.0000000000000000e+00  0.0000000000000000e+00 0.0000000000000000e+00 0.0000000000000000e+00  0.0000000000000000e+00 0.0000000000000000e+00 0.0000000000000000e+00  0.0000000000000000e+00 0.0000000000000000e+00 0.0000000000000000e+00  0.0000000000000000e+00 0.0000000000000000e+00 0.0000000000000000e+00  0.0000000000000000e+00 0.0000000000000000e+00 0.0000000000000000e+00  0.0000000000000000e+00 0.0000000000000000e+00 0.0000000000000000e+00  0.0000000000000000e+00 0.0000000000000000e+00 0.0000000000000000e+00  0.0000000000000000e+00 0.0000000000000000e+00 0.0000000000000000e+00  0.0000000000000000e+00 0.0000000000000000e+00 0.0000000000000000e+00  0.0000000000000000e+00 0.0000000000000000e+00 0.0000000000000000e+00  0.0000000000000000e+00 0.0000000000000000e+00 0.0000000000000000e+00  0.0000000000000000e+00 0.0000000000000000e+00 0.0000000000000000e+00  0.0000000000000000e+00 0.0000000000000000e+00 0.0000000000000000e+00  9.0550262318796332e-08 -2.9567190381179619e-06 0.0000000000000000e+00  4.8159322298146264e-07 -3.3731298445501972e-06 0.0000000000000000e+00  1.1332353565644146e-06 -4.1186686273399777e-06 0.0000000000000000e+00  2.0946229405470622e-06 -5.2880131148172470e-06 0.0000000000000000e+00  3.0917662766141102e-06 -7.1211244468011774e-06 0.0000000000000000e+00  4.3874805819899720e-06 -9.7089692866834610e-06 0.0000000000000000e+00  5.5718092446692744e-06 -1.2961844341975218e-05 0.0000000000000000e+00  6.8616276515885542e-06 -1.7175156745096511e-05 0.0000000000000000e+00  8.4561262741320859e-06 -2.2198091921306196e-05 0.0000000000000000e+00  9.8287036879094779e-06 -2.8176664918973396e-05 0.0000000000000000e+00  1.1601109092699180e-05 -3.5131035335411185e-05 0.0000000000000000e+00  1.3069055287060139e-05 -4.3122998928558217e-05 0.0000000000000000e+00  1.4892405231396952e-05 -5.2149547311951983e-05 0.0000000000000000e+00  1.6445806093227611e-05 -6.2086558445017268e-05 0.0000000000000000e+00  1.8031910299624454e-05 -7.3213576553026911e-05 0.0000000000000000e+00  1.9879472788302551e-05 -8.5285524199788456e-05 0.0000000000000000e+00  2.1379712156889913e-05 -9.8394084104212872e-05 0.0000000000000000e+00  2.3200962772475145e-05 -1.1253774017665300e-04 0.0000000000000000e+00  2.4631284570370976e-05 -1.2767224557716676e-04 0.0000000000000000e+00  2.6326219328969457e-05 -1.4374980660716798e-04 0.0000000000000000e+00  2.7715404814461125e-05 -1.6078459795670170e-04 0.0000000000000000e+00  2.9253118694276388e-05 -1.7875893466630494e-04 0.0000000000000000e+00  3.0498724405859796e-05 -1.9744648521880594e-04 0.0000000000000000e+00  3.1683447773603523e-05 -2.1706863916550151e-04 0.0000000000000000e+00  3.2967833133046131e-05 -2.3733757225158594e-04 0.0000000000000000e+00  3.4012908879535176e-05 -2.5836946828976259e-04 0.0000000000000000e+00  3.5026073236675852e-05 -2.8008892212528082e-04 0.0000000000000000e+00  3.5876707470030760e-05 -3.0237025582632431e-04 0.0000000000000000e+00  3.6676769452711486e-05 -3.2526648783729340e-04 0.0000000000000000e+00  3.7318068217943749e-05 -3.4862031200991596e-04 0.0000000000000000e+00  3.7895175911591387e-05 -3.7249429552122914e-04 0.0000000000000000e+00  3.8318439158447998e-05 -3.9672655928553251e-04 0.0000000000000000e+00  3.8667731025049929e-05 -4.2138697868069697e-04 0.0000000000000000e+00  3.8870909450615747e-05 -4.4631103114609034e-04 0.0000000000000000e+00  3.8987713909138624e-05 -4.7158169022404843e-04 0.0000000000000000e+00  3.8968947889422231e-05 -4.9703294611233508e-04 0.0000000000000000e+00  3.8861374459305217e-05 -5.2274926010580168e-04 0.0000000000000000e+00  3.8627777630825687e-05 -5.4857561109939031e-04 0.0000000000000000e+00  3.8300971867042134e-05 -5.7460044549206238e-04 0.0000000000000000e+00  3.7854400067239984e-05 -6.0067657892751408e-04 0.0000000000000000e+00  3.7306044269152659e-05 -6.2688405964963232e-04 0.0000000000000000e+00  3.6661095500815210e-05 -6.5312067769489313e-04 0.0000000000000000e+00  3.5907507168260622e-05 -6.7941911582314926e-04 0.0000000000000000e+00  3.5099048226685981e-05 -7.0573947511426026e-04 0.0000000000000000e+00  3.4173352814310495e-05 -7.3204882729454202e-04 0.0000000000000000e+00  3.3196937343580967e-05 -7.5842830877408997e-04 0.0000000000000000e+00  1.4142822378100769e-05 -7.8395678647490640e-04 0.0000000000000000e+00  -2.1285254583987413e-05 -7.8175231583368183e-04 0.0000000000000000e+00  -3.7668097481964584e-05 -7.5433341065630002e-04 0.0000000000000000e+00  -3.6633734665434539e-05 -7.2778988872852616e-04 0.0000000000000000e+00  -3.5642667752306454e-05 -7.0122093700880368e-04 0.0000000000000000e+00  -3.4722091603257190e-05 -6.7471190652499313e-04 0.0000000000000000e+00  -3.3848138063481748e-05 -6.4823288259692816e-04 0.0000000000000000e+00  -3.3044328895526872e-05 -6.2181441704153124e-04 0.0000000000000000e+00  -3.2254985598544307e-05 -5.9546880332523656e-04 0.0000000000000000e+00  -3.1545932494294214e-05 -5.6919184944202457e-04 0.0000000000000000e+00  -3.0829939522106454e-05 -5.4306589074957199e-04 0.0000000000000000e+00  -3.0193329319957609e-05 -5.1704979859491470e-04 0.0000000000000000e+00  -2.9516196345205370e-05 -4.9124092244048792e-04 0.0000000000000000e+00  -2.8928011551916299e-05 -4.6561386036947475e-04 0.0000000000000000e+00  -2.8262382593344912e-05 -4.4026385380285885e-04 0.0000000000000000e+00  -2.7698489209343145e-05 -4.1517982629175648e-04 0.0000000000000000e+00  -2.7017349108057020e-05 -3.9045015687626922e-04 0.0000000000000000e+00  -2.6458351133905677e-05 -3.6607816882184755e-04 0.0000000000000000e+00  -2.5741862266719035e-05 -3.4214659915602757e-04 0.0000000000000000e+00  -2.5169567983561059e-05 -3.1867188854775498e-04 0.0000000000000000e+00  -2.4396840433408591e-05 -2.9573114605502911e-04 0.0000000000000000e+00  -2.3793351276642967e-05 -2.7334967261767715e-04 0.0000000000000000e+00  -2.2942762315390271e-05 -2.5160064093127473e-04 0.0000000000000000e+00  -2.2288066924136562e-05 -2.3052006840741546e-04 0.0000000000000000e+00  -2.1371298154640851e-05 -2.1017584920876383e-04 0.0000000000000000e+00  -2.0614908032529528e-05 -1.9053053649837723e-04 0.0000000000000000e+00  -1.9839174714099217e-05 -1.7182776522844625e-04 0.0000000000000000e+00  -1.8828909109372485e-05 -1.5381693709272656e-04 0.0000000000000000e+00  -1.7939321941341006e-05 -1.3680198503440591e-04 0.0000000000000000e+00  -1.6906838397185515e-05 -1.2068771749475246e-04 0.0000000000000000e+00  -1.5950953158845242e-05 -1.0557102149537377e-04 0.0000000000000000e+00  -1.4875039985909853e-05 -9.1441424899369047e-05 0.0000000000000000e+00  -1.3877325074936321e-05 -7.8309481299618214e-05 0.0000000000000000e+00  -1.2676002339505809e-05 -6.6326639715658892e-05 0.0000000000000000e+00  -1.1711784659761655e-05 -5.5215130901852223e-05 0.0000000000000000e+00  -1.0757687764666074e-05 -4.5323222657327857e-05 0.0000000000000000e+00  -9.5718233216436025e-06 -3.6272551841201195e-05 0.0000000000000000e+00  -8.5620827121760301e-06 -2.8361625108440619e-05 0.0000000000000000e+00  -7.4769368535275907e-06 -2.1445677218555823e-05 0.0000000000000000e+00  -6.5232868355495699e-06 -1.5479655031525269e-05 0.0000000000000000e+00  -5.4532576569193972e-06 -1.0559671477505844e-05 0.0000000000000000e+00  -4.6354109592796134e-06 -6.3794818938515899e-06 0.0000000000000000e+00  -3.8854274351457530e-06 -3.1757151046732841e-06 0.0000000000000000e+00  -3.0163950190908657e-06 -6.1252428528387554e-07 0.0000000000000000e+00  -2.3761500402479831e-06 1.2148125127674439e-06 0.0000000000000000e+00  -1.6943617904984155e-06 2.3768904368875017e-06 0.0000000000000000e+00  -1.1556541276965266e-06 2.9524275393411954e-06 0.0000000000000000e+00  -5.2155845930138670e-07 2.8953419775448452e-06 0.0000000000000000e+00  -8.3122859541279108e-07 1.5505053683239538e-07 0.0000000000000000e+00  -1.4722068912755885e-06 -7.4309911843716599e-04 0.0000000000000000e+00  7.3653698707608493e-07 -6.9257337094119132e-04 0.0000000000000000e+00  2.8140635457224675e-06 -6.1023255424317462e-04 0.0000000000000000e+00  -2.2890420209646603e-07 -1.0104442255618290e-06 0.0000000000000000e+00  3.5569429970002835e-06 -5.5875302031866780e-04 0.0000000000000000e+00  8.8902874455092318e-08 -4.3222859377039947e-06 0.0000000000000000e+00  4.4524526045974731e-06 -5.0686445468462696e-04 0.0000000000000000e+00  7.3595831906814001e-07 -1.5800556070653951e-05 0.0000000000000000e+00  1.3416710012554863e-06 -2.7527724920606622e-05 0.0000000000000000e+00  5.0925578174907886e-06 -4.5573183199776340e-04 0.0000000000000000e+00  2.6038275355012491e-06 -7.5434381551460345e-05 0.0000000000000000e+00  5.6877025806103112e-06 -3.5698733172447218e-04 0.0000000000000000e+00  1.7293454108666211e-06 -4.2624386902368769e-05 0.0000000000000000e+00  3.4196843604559981e-06 -1.0121728941507737e-04 0.0000000000000000e+00  5.6867714819340568e-06 -3.1008785897719402e-04 0.0000000000000000e+00  5.4974441145565276e-06 -4.0565883766261097e-04 0.0000000000000000e+00  4.0074389766885004e-06 -1.3149181565262546e-04 0.0000000000000000e+00  5.5158953279960969e-06 -2.6535643724237968e-04 0.0000000000000000e+00  4.2159506813075349e-06 -1.6409354599932174e-04 0.0000000000000000e+00  5.5666528661857021e-06 -2.2407762827413269e-04 0.0000000000000000e+00  4.8705716020173537e-06 -1.9203119632064564e-04 0.0000000000000000e+00  2.3511187759038729e-06 -5.7255575305486992e-05 0.0000000000000000e+00  1.1646818097981340e-06 -6.5295268660289882e-04 0.0000000000000000e+00  4.4468836600372620e-07 -8.9834491971195239e-06 0.0000000000000000e+00  -1.2735068141080156e-05 -7.1689431875468523e-04 0.0000000000000000e+00  -8.8987560745682686e-07 9.8453481896007134e-07 0.0000000000000000e+00  -6.0281537321678121e-06 -5.3193220375159951e-04 0.0000000000000000e+00  -7.1614544062769509e-06 -5.8413734044449322e-04 0.0000000000000000e+00  8.9000135464728108e-07 -3.6487828608922626e-06 0.0000000000000000e+00  3.4439226904158725e-06 -2.2158323782519805e-05 0.0000000000000000e+00  -3.8044578978904229e-06 -3.8023962118850985e-04 0.0000000000000000e+00  -5.1083181023141473e-06 -4.8035271994746246e-04 0.0000000000000000e+00  8.2218908648919366e-06 -8.8678031556346505e-05 0.0000000000000000e+00  -3.3645227178906974e-06 -3.3238698712426660e-04 0.0000000000000000e+00  4.7138310517044576e-06 -3.6025367574493807e-05 0.0000000000000000e+00  9.5770764374187385e-06 -1.1696453831562121e-04 0.0000000000000000e+00  -3.0299867999343276e-06 -2.8650623958402732e-04 0.0000000000000000e+00  -4.3767497491178112e-06 -4.2967992179295070e-04 0.0000000000000000e+00  1.2307978578104101e-05 -1.4922196287807087e-04 0.0000000000000000e+00  -2.7833255768124568e-06 -2.4299959709822469e-04 0.0000000000000000e+00  -6.8088066483120653e-07 -5.5000877807414577e-07 0.0000000000000000e+00  -7.9214653994800600e-07 7.8853635374595290e-07 0.0000000000000000e+00  5.7957499975521666e-06 -7.6439238979171358e-04 0.0000000000000000e+00  1.3932287611137293e-