<?xml version="1.0"?>
<VTKFile type="UnstructuredGrid"  version="0.1"  >
<UnstructuredGrid>
<Piece  NumberOfPoints="1419" NumberOfCells="2698">
<Points>
<DataArray  type="Float64"  NumberOfComponents="3"  format="ascii">0 0 0  0 0.41 0  2.5 0 0  2.5 0.41 0  0.6 0.19 0  0.6 0.21 0  0.25 0.2 0  0.15 0.2 0  0.2489897948556636 0.21 0  0.2489897948556636 0.19 0  0.6 0.2 0  0 0.3807142857143437 0  0 0.3514285714286952 0  0 0.3221428571430699 0  0 0.29285714285744 0  0 0.2635714285718054 0  0 0.2342857142861561 0  0 0.2050000000005308 0  0 0.175714285714732 0  0 0.1464285714289574 0  0 0.1171428571431897 0  0 0.08785714285737878 0  0 0.05857142857161107 0  0 0.02928571428580012 0  0.03015443760436003 0 0  0.06140001986583606 0 0  0.09377624077125973 0 0  0.1273239957535082 0 0  0.1620856860351972 0 0  0.1981052433264291 0 0  0.235428184091502 0 0  0.2741016576309132 0 0  0.3141745521465447 0 0  0.3556974926295285 0 0  0.3987229542472677 0 0  0.4433053055141081 0 0  0.4895008759286886 0 0  0.5373680609405097 0 0  0.5869673343216626 0 0  0.6383613676634521 0 0  0.6916151138468254 0 0  0.7467958595648856 0 0  0.8039733463919316 0 0  0.8632198139502143 0 0  0.9246101326867038 0 0  0.9882218810934433 0 0  1.054135445558498 0 0  1.122434100542598 0 0  1.193204177141305 0 0  1.266535089879536 0 0  1.342519516046404 0 0  1.421253448503939 0 0  1.502836389106271 0 0  1.587371439758838 0 0  1.674965418777374 0 0  1.765729001825544 0 0  1.859776908880082 0 0  1.957227977487062 0 0  2.058205329869943 0 0  2.162836591189951 0 0  2.271253957290865 0 0  2.383594446803425 0 0  2.5 0.1024999999997612 0  2.5 0.2049999999994743 0  2.5 0.3074999999997183 0  2.383594446803656 0.41 0  2.271253957291315 0.41 0  2.162836591190598 0.41 0  2.058205329870775 0.41 0  1.957227977488067 0.41 0  1.859776908881246 0.41 0  1.765729001826854 0.41 0  1.674965418778818 0.41 0  1.58737143976041 0.41 0  1.502836389107956 0.41 0  1.421253448505726 0.41 0  1.342519516048286 0.41 0  1.266535089881505 0.41 0  1.193204177143353 0.41 0  1.122434100544716 0.41 0  1.05413544556068 0.41 0  0.9882218810956305 0.41 0  0.9246101326886647 0.41 0  0.8632198139519631 0.41 0  0.8039733463934788 0.41 0  0.7467958595662458 0.41 0  0.6916151138480078 0.41 0  0.6383613676644679 0.41 0  0.5869673343225223 0.41 0  0.5373680609412221 0.41 0  0.4895008759292634 0.41 0  0.4433053055145528 0.41 0  0.3987229542475914 0.41 0  0.3556974926297398 0.41 0  0.3141745521466497 0.41 0  0.2741016576310038 0.41 0  0.2354281840915826 0.41 0  0.1981052433265003 0.41 0  0.1620856860352591 0.41 0  0.1273239957535623 0.41 0  0.09377624077128965 0.41 0  0.06140001986584975 0.41 0  0.03015443760436654 0.41 0  0.2497468076502589 0.2050254481002335 0  0.2497468076502614 0.1949745518997913 0  0.2469965252529372 0.1829317073451959 0  0.2439893735792749 0.1762316384219906 0  0.2400332147834255 0.1700443375285386 0  0.2352133972704371 0.1645032867342007 0  0.2296339016332438 0.1597280261969788 0  0.2234150974217223 0.1558215752574715 0  0.2166911463437691 0.1528682099456123 0  0.2096071079204251 0.1509316448471593 0  0.2023158100364996 0.1500536585536553 0  0.194974551899914 0.1502531923497262 0  0.1877417105387872 0.1515259415822739 0  0.1807733240461124 0.153844448527136 0  0.1742197252835808 0.15715869474974 0  0.1682222986673531 0.1613971801805478 0  0.162910430003803 0.1664684656256651 0  0.1583987151779087 0.1722631454351573 0  0.1547844879126891 0.178656207771761 0  0.1521457199348551 0.1855097315605723 0  0.1505393388476355 0.1926758619366523 0  0.1505393388476328 0.2073241380633295 0  0.1521457199348437 0.2144902684393899 0  0.1547844879126531 0.221343792228163 0  0.1583987151778488 0.2277368545647528 0  0.1629104300036858 0.2335315343742052 0  0.1682222986671726 0.2386028198193036 0  0.1742197252833576 0.2428413052501257 0  0.1807733240458683 0.2461555514727623 0  0.1877417105384929 0.2484740584176516 0  0.1949745518995776 0.2497468076502398 0  0.202315810036185 0.2499463414463592 0  0.2096071079201568 0.2490683551528932 0  0.2166911463435495 0.2471317900544655 0  0.2234150974215506 0.2441784247426195 0  0.2296339016331197 0.2402719738031125 0  0.2352133972703547 0.2354967132658811 0  0.2400332147833751 0.2299556624715287 0  0.2439893735792577 0.2237683615780412 0  0.246996525252926 0.2170682926548348 0  0.25645809709277 0.21 0  0.2639263993298655 0.21 0  0.271394701566961 0.21 0  0.2788630038040554 0.21 0  0.2863313060411479 0.21 0  0.2937996082782405 0.21 0  0.301267910515333 0.21 0  0.3087362127524279 0.21 0  0.3162045149895234 0.21 0  0.3236728172265972 0.21 0  0.3311411194636928 0.21 0  0.3386094217007701 0.21 0  0.3460777239378666 0.21 0  0.3535460261749672 0.21 0  0.3610143284120516 0.21 0  0.3684826306491596 0.21 0  0.3759509328862226 0.21 0  0.383419235123329 0.21 0  0.3908875373604028 0.21 0  0.3983558395975142 0.21 0  0.4058241418345938 0.21 0  0.4132924440716992 0.21 0  0.4207607463087888 0.21 0  0.4282290485459029 0.21 0  0.4356973507830418 0.21 0  0.4431656530201649 0.21 0  0.4506339552573136 0.21 0  0.4581022574944306 0.21 0  0.4655705597315852 0.21 0  0.4730388619686996 0.21 0  0.480507164205851 0.21 0  0.4879754664429498 0.21 0  0.4954437686800938 0.21 0  0.502912070917267 0.21 0  0.5103803731544119 0.21 0  0.5178486753915261 0.21 0  0.5253169776286404 0.21 0  0.5327852798657868 0.21 0  0.5402535821029386 0.21 0  0.54772188434007 0.21 0  0.5551901865771842 0.21 0  0.5626584888143201 0.21 0  0.5701267910514778 0.21 0  0.5775950932886138 0.21 0  0.5850633955257281 0.21 0  0.5925316977628483 0.21 0  0.6 0.2050000000000054 0  0.6 0.1950000000000217 0  0.5925316977628897 0.19 0  0.5850633955257988 0.19 0  0.5775950932887378 0.19 0  0.5701267910515998 0.19 0  0.5626584888145268 0.19 0  0.5551901865773963 0.19 0  0.547721884340339 0.19 0  0.5402535821032429 0.19 0  0.5327852798661811 0.19 0  0.5253169776290537 0.19 0  0.5178486753919799 0.19 0  0.5103803731549078 0.19 0  0.502912070917822 0.19 0  0.4954437686807294 0.19 0  0.4879754664436223 0.19 0  0.4805071642065402 0.19 0  0.4730388619694271 0.19 0  0.4655705597323621 0.19 0  0.4581022574952563 0.19 0  0.4506339552581777 0.19 0  0.4431656530210671 0.19 0  0.4356973507839815 0.19 0  0.4282290485468779 0.19 0  0.4207607463097617 0.19 0  0.4132924440726327 0.19 0  0.4058241418354857 0.19 0  0.3983558395983636 0.19 0  0.3908875373612097 0.19 0  0.3834192351240934 0.19 0  0.3759509328869369 0.19 0  0.3684826306498175 0.19 0  0.361014328412667 0.19 0  0.3535460261755617 0.19 0  0.3460777239384295 0.19 0  0.3386094217012945 0.19 0  0.3311411194641595 0.19 0  0.3236728172270245 0.19 0  0.3162045149898895 0.19 0  0.3087362127527544 0.19 0  0.3012679105156187 0.19 0  0.2937996082784807 0.19 0  0.2863313060413428 0.19 0  0.2788630038042048 0.19 0  0.2713947015670686 0.19 0  0.2639263993299336 0.19 0  0.2564580970927985 0.19 0  0.2607803159922026 0.2000727136295815 0  0.5887803774232762 0.2001272386983733 0  0.5745072403740523 0.2002044435018727 0  0.5511891430099709 0.2001122610077113 0  0.2751288526855082 0.20000000000002 0  0.5365194309847112 0.1999999999999436 0  0.2894621222999649 0.1998691686390484 0  0.5215828265105155 0.1999999999999228 0  0.3127789816668748 0.1998657885438805 0  0.3274069683451451 0.2000000000000796 0  0.5066462220363641 0.199999999999908 0  0.3650630746574081 0.199866017807523 0  0.476773013087985 0.1999999999998713 0  0.3417402379596385 0.1998691686391011 0  0.3796850840047755 0.200000000000134 0  0.4618364086138087 0.1999999999998546 0  0.4917096175621762 0.1999999999998808 0  0.3946216884789568 0.2000000000001512 0  0.446899804139621 0.1999999999998389 0  0.4089549580935208 0.1998691686391595 0  0.4322718174608562 0.200127451265745 0  0.4201487168029707 0.1999966199048527 0  0.3528922713220932 0.2000185703532356 0  0.5633122436674589 0.1999814296467508 0  0.3006558810093873 0.1999966199048318 0  0.5815926498168407 0.1966545283159175 0  0.2677053789419034 0.1964246479135325 0  0.5290511287476175 0.1970915826863981 0  0.5439877332217911 0.197091582686394 0  0.2825131256993216 0.2035478995978015 0  0.3199386661080599 0.202908417313604 0  0.4842413153250809 0.1970915826863873 0  0.5141145242734466 0.1970915826863843 0  0.3722167817676917 0.2029084173136195 0  0.4693047108508938 0.1970915826863783 0  0.3348752705822316 0.202908417313609 0  0.3871533862418661 0.2029084173136212 0  0.4543681063767183 0.1970915826863795 0  0.4991779197992749 0.1970915826863902 0  0.4020059614928624 0.203547899597858 0  0.4394315019025246 0.1970915826863714 0  0.2550657455369551 0.2034088125358657 0  0.2548908499171161 0.1966940311614271 0  0.5946539510196798 0.2024302972968126 0  0.267698176732111 0.2039977513680092 0  0.4261685417851465 0.196409292431739 0  0.3590076176283495 0.196411355804271 0  0.5571672426447437 0.2036011176410121 0  0.3066757059912147 0.1964092924317024 0  0.594380730180568 0.1966558399668133 0  0.4842413153245942 0.2040749161535287 0  0.4693047108503577 0.2040749161535231 0  0.3871533862424271 0.1959250838464788 0  0.372246743208829 0.1959123236376545 0  0.5141145242731028 0.2040749161535395 0  0.4543681063761134 0.2040749161535186 0  0.4019979587101454 0.1959834479682427 0  0.4394608940728603 0.2040870543693135 0  0.5439623148931173 0.2040856076781014 0  0.5290511287473298 0.2040749161535501 0  0.4991779197988497 0.2040749161535382 0  0.3347912413592433 0.1959225448935183 0  0.3199680582793816 0.1959123018030061 0  0.2825051229162361 0.1959834479681729 0  0.3590471196690275 0.2036304442587945 0  0.5571594006495384 0.1963685282145804 0  0.3067669986803285 0.203627750582736 0  0.4262598344738712 0.2036568242185335 0  0.5814408164431408 0.2041285596160068 0  0.5688286748170428 0.1961819304477386 0  0.4145905603063645 0.2038180695522843 0  0.3473758401724931 0.2038180695522752 0  0.2950977245128307 0.2038180695522663 0  0.5688286748170693 0.203818069552238 0  0.2950977245127906 0.1961819304477774 0  0.3473758401723931 0.1961819304478349 0  0.4145905603061963 0.1961819304479011 0  0.2601812407614425 0.2056861609747042
[...]
<PointData  Vectors="f_40-1"> 
<DataArray  type="Float64"  Name="f_40-1"  NumberOfComponents="3" format="ascii">0.0000000000000000e+00 0.0000000000000000e+00 0.0000000000000000e+00  0.0000000000000000e+00 0.0000000000000000e+00 0.0000000000000000e+00  0.0000000000000000e+00 0.0000000000000000e+00 0.0000000000000000e+00  0.0000000000000000e+00 0.0000000000000000e+00 0.0000000000000000e+00  3.7991944893762459e-05 2.0306432675191478e-03 0.0000000000000000e+00  -9.2302269538884415e-05 2.0285749320443562e-03 0.0000000000000000e+00  0.0000000000000000e+00 0.0000000000000000e+00 0.0000000000000000e+00  0.0000000000000000e+00 0.0000000000000000e+00 0.0000000000000000e+00  0.0000000000000000e+00 0.0000000000000000e+00 0.0000000000000000e+00  0.0000000000000000e+00 0.0000000000000000e+00 0.0000000000000000e+00  -2.7390176736145833e-05 2.0296087433937567e-03 0.0000000000000000e+00  0.0000000000000000e+00 0.0000000000000000e+00 0.0000000000000000e+00  0.0000000000000000e+00 0.0000000000000000e+00 0.0000000000000000e+00  0.0000000000000000e+00 0.0000000000000000e+00 0.0000000000000000e+00  0.0000000000000000e+00 0.0000000000000000e+00 0.0000000000000000e+00  0.0000000000000000e+00 0.0000000000000000e+00 0.0000000000000000e+00  0.0000000000000000e+00 0.0000000000000000e+00 0.0000000000000000e+00  0.0000000000000000e+00 0.0000000000000000e+00 0.0000000000000000e+00  0.0000000000000000e+00 0.0000000000000000e+00 0.0000000000000000e+00  0.0000000000000000e+00 0.0000000000000000e+00 0.0000000000000000e+00  0.0000000000000000e+00 0.0000000000000000e+00 0.0000000000000000e+00  0.0000000000000000e+00 0.0000000000000000e+00 0.0000000000000000e+00  0.0000000000000000e+00 0.0000000000000000e+00 0.0000000000000000e+00  0.0000000000000000e+00 0.0000000000000000e+00 0.0000000000000000e+00  0.0000000000000000e+00 0.0000000000000000e+00 0.0000000000000000e+00  0.0000000000000000e+00 0.0000000000000000e+00 0.0000000000000000e+00  0.0000000000000000e+00 0.0000000000000000e+00 0.0000000000000000e+00  0.0000000000000000e+00 0.0000000000000000e+00 0.0000000000000000e+00  0.0000000000000000e+00 0.0000000000000000e+00 0.0000000000000000e+00  0.0000000000000000e+00 0.0000000000000000e+00 0.0000000000000000e+00  0.0000000000000000e+00 0.0000000000000000e+00 0.0000000000000000e+00  0.0000000000000000e+00 0.0000000000000000e+00 0.0000000000000000e+00  0.0000000000000000e+00 0.0000000000000000e+00 0.0000000000000000e+00  0.0000000000000000e+00 0.0000000000000000e+00 0.0000000000000000e+00  0.0000000000000000e+00 0.0000000000000000e+00 0.0000000000000000e+00  0.0000000000000000e+00 0.0000000000000000e+00 0.0000000000000000e+00  0.0000000000000000e+00 0.0000000000000000e+00 0.0000000000000000e+00  0.0000000000000000e+00 0.0000000000000000e+00 0.0000000000000000e+00  0.0000000000000000e+00 0.0000000000000000e+00 0.0000000000000000e+00  0.0000000000000000e+00 0.0000000000000000e+00 0.0000000000000000e+00  0.0000000000000000e+00 0.0000000000000000e+00 0.0000000000000000e+00  0.0000000000000000e+00 0.0000000000000000e+00 0.0000000000000000e+00  0.0000000000000000e+00 0.0000000000000000e+00 0.0000000000000000e+00  0.0000000000000000e+00 0.0000000000000000e+00 0.0000000000000000e+00  0.0000000000000000e+00 0.0000000000000000e+00 0.0000000000000000e+00  0.0000000000000000e+00 0.0000000000000000e+00 0.0000000000000000e+00  0.0000000000000000e+00 0.0000000000000000e+00 0.0000000000000000e+00  0.0000000000000000e+00 0.0000000000000000e+00 0.0000000000000000e+00  0.0000000000000000e+00 0.0000000000000000e+00 0.0000000000000000e+00  0.0000000000000000e+00 0.0000000000000000e+00 0.0000000000000000e+00  0.0000000000000000e+00 0.0000000000000000e+00 0.0000000000000000e+00  0.0000000000000000e+00 0.0000000000000000e+00 0.0000000000000000e+00  0.0000000000000000e+00 0.0000000000000000e+00 0.0000000000000000e+00  0.0000000000000000e+00 0.0000000000000000e+00 0.0000000000000000e+00  0.0000000000000000e+00 0.0000000000000000e+00 0.0000000000000000e+00  0.0000000000000000e+00 0.0000000000000000e+00 0.0000000000000000e+00  0.0000000000000000e+00 0.0000000000000000e+00 0.0000000000000000e+00  0.0000000000000000e+00 0.0000000000000000e+00 0.0000000000000000e+00  0.0000000000000000e+00 0.0000000000000000e+00 0.0000000000000000e+00  0.0000000000000000e+00 0.0000000000000000e+00 0.0000000000000000e+00  0.0000000000000000e+00 0.0000000000000000e+00 0.0000000000000000e+00  0.0000000000000000e+00 0.0000000000000000e+00 0.0000000000000000e+00  0.0000000000000000e+00 0.0000000000000000e+00 0.0000000000000000e+00  0.0000000000000000e+00 0.0000000000000000e+00 0.0000000000000000e+00  0.0000000000000000e+00 0.0000000000000000e+00 0.0000000000000000e+00  0.0000000000000000e+00 0.0000000000000000e+00 0.0000000000000000e+00  0.0000000000000000e+00 0.0000000000000000e+00 0.0000000000000000e+00  0.0000000000000000e+00 0.0000000000000000e+00 0.0000000000000000e+00  0.0000000000000000e+00 0.0000000000000000e+00 0.0000000000000000e+00  0.0000000000000000e+00 0.0000000000000000e+00 0.0000000000000000e+00  0.0000000000000000e+00 0.0000000000000000e+00 0.0000000000000000e+00  0.0000000000000000e+00 0.0000000000000000e+00 0.0000000000000000e+00  0.0000000000000000e+00 0.0000000000000000e+00 0.0000000000000000e+00  0.0000000000000000e+00 0.0000000000000000e+00 0.0000000000000000e+00  0.0000000000000000e+00 0.0000000000000000e+00 0.0000000000000000e+00  0.0000000000000000e+00 0.0000000000000000e+00 0.0000000000000000e+00  0.0000000000000000e+00 0.0000000000000000e+00 0.0000000000000000e+00  0.0000000000000000e+00 0.0000000000000000e+00 0.0000000000000000e+00  0.0000000000000000e+00 0.0000000000000000e+00 0.0000000000000000e+00  0.0000000000000000e+00 0.0000000000000000e+00 0.0000000000000000e+00  0.0000000000000000e+00 0.0000000000000000e+00 0.0000000000000000e+00  0.0000000000000000e+00 0.0000000000000000e+00 0.0000000000000000e+00  0.0000000000000000e+00 0.0000000000000000e+00 0.0000000000000000e+00  0.0000000000000000e+00 0.0000000000000000e+00 0.0000000000000000e+00  0.0000000000000000e+00 0.0000000000000000e+00 0.0000000000000000e+00  0.0000000000000000e+00 0.0000000000000000e+00 0.0000000000000000e+00  0.0000000000000000e+00 0.0000000000000000e+00 0.0000000000000000e+00  0.0000000000000000e+00 0.0000000000000000e+00 0.0000000000000000e+00  0.0000000000000000e+00 0.0000000000000000e+00 0.0000000000000000e+00  0.0000000000000000e+00 0.0000000000000000e+00 0.0000000000000000e+00  0.0000000000000000e+00 0.0000000000000000e+00 0.0000000000000000e+00  0.0000000000000000e+00 0.0000000000000000e+00 0.0000000000000000e+00  0.0000000000000000e+00 0.0000000000000000e+00 0.0000000000000000e+00  0.0000000000000000e+00 0.0000000000000000e+00 0.0000000000000000e+00  0.0000000000000000e+00 0.0000000000000000e+00 0.0000000000000000e+00  0.0000000000000000e+00 0.0000000000000000e+00 0.0000000000000000e+00  0.0000000000000000e+00 0.0000000000000000e+00 0.0000000000000000e+00  0.0000000000000000e+00 0.0000000000000000e+00 0.0000000000000000e+00  0.0000000000000000e+00 0.0000000000000000e+00 0.0000000000000000e+00  0.0000000000000000e+00 0.0000000000000000e+00 0.0000000000000000e+00  0.0000000000000000e+00 0.0000000000000000e+00 0.0000000000000000e+00  0.0000000000000000e+00 0.0000000000000000e+00 0.0000000000000000e+00  0.0000000000000000e+00 0.0000000000000000e+00 0.0000000000000000e+00  0.0000000000000000e+00 0.0000000000000000e+00 0.0000000000000000e+00  0.0000000000000000e+00 0.0000000000000000e+00 0.0000000000000000e+00  0.0000000000000000e+00 0.0000000000000000e+00 0.0000000000000000e+00  0.0000000000000000e+00 0.0000000000000000e+00 0.0000000000000000e+00  0.0000000000000000e+00 0.0000000000000000e+00 0.0000000000000000e+00  0.0000000000000000e+00 0.0000000000000000e+00 0.0000000000000000e+00  0.0000000000000000e+00 0.0000000000000000e+00 0.0000000000000000e+00  0.0000000000000000e+00 0.0000000000000000e+00 0.0000000000000000e+00  0.0000000000000000e+00 0.0000000000000000e+00 0.0000000000000000e+00  0.0000000000000000e+00 0.0000000000000000e+00 0.0000000000000000e+00  0.0000000000000000e+00 0.0000000000000000e+00 0.0000000000000000e+00  0.0000000000000000e+00 0.0000000000000000e+00 0.0000000000000000e+00  0.0000000000000000e+00 0.0000000000000000e+00 0.0000000000000000e+00  0.0000000000000000e+00 0.0000000000000000e+00 0.0000000000000000e+00  0.0000000000000000e+00 0.0000000000000000e+00 0.0000000000000000e+00  0.0000000000000000e+00 0.0000000000000000e+00 0.0000000000000000e+00  0.0000000000000000e+00 0.0000000000000000e+00 0.0000000000000000e+00  0.0000000000000000e+00 0.0000000000000000e+00 0.0000000000000000e+00  0.0000000000000000e+00 0.0000000000000000e+00 0.0000000000000000e+00  0.0000000000000000e+00 0.0000000000000000e+00 0.0000000000000000e+00  0.0000000000000000e+00 0.0000000000000000e+00 0.0000000000000000e+00  0.0000000000000000e+00 0.0000000000000000e+00 0.0000000000000000e+00  0.0000000000000000e+00 0.0000000000000000e+00 0.0000000000000000e+00  0.0000000000000000e+00 0.0000000000000000e+00 0.0000000000000000e+00  0.0000000000000000e+00 0.0000000000000000e+00 0.0000000000000000e+00  0.0000000000000000e+00 0.0000000000000000e+00 0.0000000000000000e+00  0.0000000000000000e+00 0.0000000000000000e+00 0.0000000000000000e+00  0.0000000000000000e+00 0.0000000000000000e+00 0.0000000000000000e+00  0.0000000000000000e+00 0.0000000000000000e+00 0.0000000000000000e+00  0.0000000000000000e+00 0.0000000000000000e+00 0.0000000000000000e+00  0.0000000000000000e+00 0.0000000000000000e+00 0.0000000000000000e+00  0.0000000000000000e+00 0.0000000000000000e+00 0.0000000000000000e+00  0.0000000000000000e+00 0.0000000000000000e+00 0.0000000000000000e+00  0.0000000000000000e+00 0.0000000000000000e+00 0.0000000000000000e+00  0.0000000000000000e+00 0.0000000000000000e+00 0.0000000000000000e+00  0.0000000000000000e+00 0.0000000000000000e+00 0.0000000000000000e+00  0.0000000000000000e+00 0.0000000000000000e+00 0.0000000000000000e+00  0.0000000000000000e+00 0.0000000000000000e+00 0.0000000000000000e+00  0.0000000000000000e+00 0.0000000000000000e+00 0.0000000000000000e+00  0.0000000000000000e+00 0.0000000000000000e+00 0.0000000000000000e+00  -7.3091488500093267e-06 5.6316758956476331e-06 0.0000000000000000e+00  -1.5264122995588322e-05 1.3792222843251574e-05 0.0000000000000000e+00  -2.2079027533434063e-05 2.6668493193031363e-05 0.0000000000000000e+00  -2.9123695286658985e-05 4.4495060525970534e-05 0.0000000000000000e+00  -3.4855643190393643e-05 6.6123001672899412e-05 0.0000000000000000e+00  -4.1001021770908375e-05 9.1865269702154966e-05 0.0000000000000000e+00  -4.5845464450303330e-05 1.2046904404454056e-04 0.0000000000000000e+00  -5.0333272693056762e-05 1.5269022324072739e-04 0.0000000000000000e+00  -5.5185004429595777e-05 1.8750794704226829e-04 0.0000000000000000e+00  -5.8782692470202965e-05 2.2484512664007759e-04 0.0000000000000000e+00  -6.2825498198765319e-05 2.6458039809966401e-04 0.0000000000000000e+00  -6.5789096374847017e-05 3.0627498051849110e-04 0.0000000000000000e+00  -6.8963300529792347e-05 3.4979259370741193e-04 0.0000000000000000e+00  -7.1417077841364753e-05 3.9464336574454172e-04 0.0000000000000000e+00  -7.3619365949321343e-05 4.4100638264253211e-04 0.0000000000000000e+00  -7.5864472180329901e-05 4.8839798266833571e-04 0.0000000000000000e+00  -7.7519739355662686e-05 5.3669820322806974e-04 0.0000000000000000e+00  -7.9218677937024158e-05 5.8583335166252431e-04 0.0000000000000000e+00  -8.0471498444306401e-05 6.3551805117847515e-04 0.0000000000000000e+00  -8.1701100509951960e-05 6.8571257388694708e-04 0.0000000000000000e+00  -8.2651068227523652e-05 7.3621900596961378e-04 0.0000000000000000e+00  -8.3498349834195459e-05 7.8699545993962010e-04 0.0000000000000000e+00  -8.4189500930488756e-05 8.3788076863306729e-04 0.0000000000000000e+00  -8.4767193267332852e-05 8.8884878380362164e-04 0.0000000000000000e+00  -8.5267710900371104e-05 9.3982976932531677e-04 0.0000000000000000e+00  -8.5674011528439573e-05 9.9074449119901722e-04 0.0000000000000000e+00  -8.6007790064680662e-05 1.0415928632885000e-03 0.0000000000000000e+00  -8.6299099356085650e-05 1.0922915973155705e-03 0.0000000000000000e+00  -8.6534577817483973e-05 1.1428569801085705e-03 0.0000000000000000e+00  -8.6757203847267607e-05 1.1932436778189926e-03 0.0000000000000000e+00  -8.6941950045052143e-05 1.2434567749107029e-03 0.0000000000000000e+00  -8.7134580403032055e-05 1.2934810948595325e-03 0.0000000000000000e+00  -8.7308030377792443e-05 1.3433171589075873e-03 0.0000000000000000e+00  -8.7502269341559652e-05 1.3929735163504733e-03 0.0000000000000000e+00  -8.7691649119497938e-05 1.4424500957963906e-03 0.0000000000000000e+00  -8.7916691648516946e-05 1.4917771147195235e-03 0.0000000000000000e+00  -8.8151148682762991e-05 1.5409454314566971e-03 0.0000000000000000e+00  -8.8427299775208006e-05 1.5900018217457938e-03 0.0000000000000000e+00  -8.8722469225643009e-05 1.6389318001141808e-03 0.0000000000000000e+00  -8.9063682847167575e-05 1.6877932101766592e-03 0.0000000000000000e+00  -8.9433457156676646e-05 1.7365637505577713e-03 0.0000000000000000e+00  -8.9848178211056763e-05 1.7852993398409457e-03 0.0000000000000000e+00  -9.0298272283928567e-05 1.8339922884167052e-03 0.0000000000000000e+00  -9.0768312010657500e-05 1.8826708360012989e-03 0.0000000000000000e+00  -9.1285052155037278e-05 1.9313531196397248e-03 0.0000000000000000e+00  -9.1812491116974245e-05 1.9800119770387267e-03 0.0000000000000000e+00  -5.9922892295934033e-05 2.0290930645623451e-03 0.0000000000000000e+00  5.2264169046803029e-06 2.0301210296547177e-03 0.0000000000000000e+00  3.8486146290082943e-05 1.9819026303071977e-03 0.0000000000000000e+00  3.9032227113210306e-05 1.9332732244667465e-03 0.0000000000000000e+00  3.9578008479042365e-05 1.8846561141754950e-03 0.0000000000000000e+00  4.0116152673627599e-05 1.8360120944362129e-03 0.0000000000000000e+00  4.0650056176993401e-05 1.7873471402261852e-03 0.0000000000000000e+00  4.1186132935961367e-05 1.7386364795034259e-03 0.0000000000000000e+00  4.1744050369378589e-05 1.6898720393997921e-03 0.0000000000000000e+00  4.2289645457986986e-05 1.6410372872182955e-03 0.0000000000000000e+00  4.2878222213136311e-05 1.5921023947185762e-03 0.0000000000000000e+00  4.3445582978194753e-05 1.5430577237284108e-03 0.0000000000000000e+00  4.4071222554198586e-05 1.4938787235919406e-03 0.0000000000000000e+00  4.4667071435084916e-05 1.4445519823033405e-03 0.0000000000000000e+00  4.5331157514400744e-05 1.3950601313898092e-03 0.0000000000000000e+00  4.5952206074339969e-05 1.3453928253464944e-03 0.0000000000000000e+00  4.6640978852385351e-05 1.2955374838985395e-03 0.0000000000000000e+00  4.7275122309131936e-05 1.2454939652361333e-03 0.0000000000000000e+00  4.7968213739580673e-05 1.1952567350552003e-03 0.0000000000000000e+00  4.8599194154446941e-05 1.1448387049070212e-03 0.0000000000000000e+00  4.9270332620118312e-05 1.0942437882249000e-03 0.0000000000000000e+00  4.9875641293370586e-05 1.0435013603953766e-03 0.0000000000000000e+00  5.0486716279944155e-05 9.9262041196912379e-04 0.0000000000000000e+00  5.1034757072424580e-05 9.4165218950478390e-04 0.0000000000000000e+00  5.1532217844338421e-05 8.9062532185458186e-04 0.0000000000000000e+00  5.1972205453798502e-05 8.3960027875376142e-04 0.0000000000000000e+00  5.2344146122972946e-05 7.8865950412705351e-04 0.0000000000000000e+00  5.2588617933107290e-05 7.3781724208043370e-04 0.0000000000000000e+00  5.2745900454792914e-05 6.8725444442204473e-04 0.0000000000000000e+00  5.2722810957310826e-05 6.3697881467810445e-04 0.0000000000000000e+00  5.2594134052105935e-05 5.8723133981163403e-04 0.0000000000000000e+00  5.2223125214111741e-05 5.3802104961984455e-04 0.0000000000000000e+00  5.1735690430294641e-05 4.8959927112521870e-04 0.0000000000000000e+00  5.0802287531221555e-05 4.4219386896015276e-04 0.0000000000000000e+00  4.9927887076217764e-05 3.9573013588034404e-04 0.0000000000000000e+00  4.8834670128732535e-05 3.5082180760586263e-04 0.0000000000000000e+00  4.7139790474709266e-05 3.0709508282219676e-04 0.0000000000000000e+00  4.5379974396936137e-05 2.6537522770474209e-04 0.0000000000000000e+00  4.3096628924996943e-05 2.2552462148667433e-04 0.0000000000000000e+00  4.0717624965652427e-05 1.8798294805637684e-04 0.0000000000000000e+00  3.7430911419755171e-05 1.5321989121433257e-04 0.0000000000000000e+00  3.4481900191892081e-05 1.2085513706111857e-04 0.0000000000000000e+00  3.1220957672135538e-05 9.2162987406626761e-05 0.0000000000000000e+00  2.6765854759343212e-05 6.6213536060451140e-05 0.0000000000000000e+00  2.2504302440814326e-05 4.4424052709445871e-05 0.0000000000000000e+00  1.7069761893338464e-05 2.6761385584193447e-05 0.0000000000000000e+00  1.2053434367998372e-05 1.3734559145285085e-05 0.0000000000000000e+00  5.7600452996223854e-06 5.4670482913426454e-06 0.0000000000000000e+00  -1.2948377506868929e-06 6.1467456131665692e-06 0.0000000000000000e+00  -2.7321701580622341e-05 1.9565170511655311e-03 0.0000000000000000e+00  -2.6765258473171284e-05 1.8635421829532818e-03 0.0000000000000000e+00  -2.4648505205419611e-05 1.7115143019170859e-03 0.0000000000000000e+00  -2.8283837355068385e-06 3.2176066511219849e-05 0.0000000000000000e+00  -2.3034909624611375e-05 1.6155964801404469e-03 0.0000000000000000e+00  -3.9856340224360479e-06 7.4047893140336392e-05 0.0000000000000000e+00  -2.2173316613747172e-05 1.5175190307607129e-03 0.0000000000000000e+00  -6.2070723894789818e-06 1.6965789427696761e-04 0.0000000000000000e+00  -8.2782427598335105e-06 2.4340988080215003e-04 0.0000000000000000e+00  -2.1330000038357684e-05 1.4188851495262806e-03 0.0000000000000000e+00  -1.0903851547108179e-05 4.6647708829910276e-04 0.0000000000000000e+00  -1.9636529274000264e-05 1.2194972960749707e-03 0.0000000000000000e+00  -8.9005968120300288e-06 3.2361859900273355e-04 0.0000000000000000e+00  -1.2985600837954458e-05 5.6139334088035062e-04 0.0000000000000000e+00  -1.8759404851822711e-05 1.1186725414644987e-03 0.0000000000000000e+00  -2.0488937461348608e-05 1.3195689505213896e-03 0.0000000000000000e+00  -1.4182736373074988e-05 6.6102221789490474e-04 0.0000000000000000e+00  -1.7843706879331740e-05 1.0171868388092957e-03 0.0000000000000000e+00  -1.4382278344372999e-05 7.5814583296740913e-04 0.0000000000000000e+00  -1.7766399199262275e-05 9.1733887157263781e-04 0.0000000000000000e+00  -1.6044502435161558e-05 8.3450847061474734e-04 0.0000000000000000e+00  -1.0782439849865265e-05 3.9053203478922995e-04 0.0000000000000000e+00  -2.4572874043631252e-05 1.7906075173228957e-03 0.0000000000000000e+00  -5.5508217921009313e-06 1.1663300408366283e-04 0.0000000000000000e+00  -4.1383679137545725e-06 1.9100332650082933e-03 0.0000000000000000e+00  3.9539033202814391e-06 1.7117276528362057e-05 0.0000000000000000e+00  -3.4805926837514245e-06 1.5669139091619786e-03 0.0000000000000000e+00  -4.4355716355855980e-06 1.6647700194000743e-03 0.0000000000000000e+00  -1.3558091049847654e-05 5.2380495515585205e-05 0.0000000000000000e+00  -2.1934700925431808e-05 2.0472835322300325e-04 0.0000000000000000e+00  -5.7722628369681695e-07 1.2699119004349929e-03 0.0000000000000000e+00  -2.5256059639983894e-06 1.4685727857866834e-03 0.0000000000000000e+00  -3.1066711582606807e-05 5.1240259037174858e-04 0.0000000000000000e+00  4.1993489768103848e-07 1.1694520443236514e-03 0.0000000000000000e+00  -2.5008274585645181e-05 2.8439484522152920e-04 0.0000000000000000e+00  -3.2839050121526391e-05 6.1079397175271908e-04 0.0000000000000000e+00  1.4289843339292377e-06 1.0682738513322061e-03 0.0000000000000000e+00  -1.5591781026777490e-06 1.3696064214895869e-03 0.0000000000000000e+00  -3.8645710887241373e-05 7.1068770763574546e-04 0.0000000000000000e+00  2.4394417214105682e-06 9.6651879347520306e-04 0.0000000000000000e+00  -1.7177648765542687e-06 1.4842494586382164e-06 0.0000000000000000e+00  4.3764791202637205e-07 1.3192576220491762e-06 0.0000000000000000e+00  -4.2791026154198704e-05 1.9945558761938023e-03 0.0000000000000000e+00  -8.6594440164855998e-06 1.7143204397096577e-05 0.0000000000000000e+00  7.9826968234375330e-06 8.7595197189355265e-04 0.00000000000