<?xml version="1.0"?>
<VTKFile type="UnstructuredGrid"  version="0.1"  >
<UnstructuredGrid>
<Piece  NumberOfPoints="1419" NumberOfCells="2698">
<Points>
<DataArray  type="Float64"  NumberOfComponents="3"  format="ascii">0 0 0  0 0.41 0  2.5 0 0  2.5 0.41 0  0.6 0.19 0  0.6 0.21 0  0.25 0.2 0  0.15 0.2 0  0.2489897948556636 0.21 0  0.2489897948556636 0.19 0  0.6 0.2 0  0 0.3807142857143437 0  0 0.3514285714286952 0  0 0.3221428571430699 0  0 0.29285714285744 0  0 0.2635714285718054 0  0 0.2342857142861561 0  0 0.2050000000005308 0  0 0.175714285714732 0  0 0.1464285714289574 0  0 0.1171428571431897 0  0 0.08785714285737878 0  0 0.05857142857161107 0  0 0.02928571428580012 0  0.03015443760436003 0 0  0.06140001986583606 0 0  0.09377624077125973 0 0  0.1273239957535082 0 0  0.1620856860351972 0 0  0.1981052433264291 0 0  0.235428184091502 0 0  0.2741016576309132 0 0  0.3141745521465447 0 0  0.3556974926295285 0 0  0.3987229542472677 0 0  0.4433053055141081 0 0  0.4895008759286886 0 0  0.5373680609405097 0 0  0.5869673343216626 0 0  0.6383613676634521 0 0  0.6916151138468254 0 0  0.7467958595648856 0 0  0.8039733463919316 0 0  0.8632198139502143 0 0  0.9246101326867038 0 0  0.9882218810934433 0 0  1.054135445558498 0 0  1.122434100542598 0 0  1.193204177141305 0 0  1.266535089879536 0 0  1.342519516046404 0 0  1.421253448503939 0 0  1.502836389106271 0 0  1.587371439758838 0 0  1.674965418777374 0 0  1.765729001825544 0 0  1.859776908880082 0 0  1.957227977487062 0 0  2.058205329869943 0 0  2.162836591189951 0 0  2.271253957290865 0 0  2.383594446803425 0 0  2.5 0.1024999999997612 0  2.5 0.2049999999994743 0  2.5 0.3074999999997183 0  2.383594446803656 0.41 0  2.271253957291315 0.41 0  2.162836591190598 0.41 0  2.058205329870775 0.41 0  1.957227977488067 0.41 0  1.859776908881246 0.41 0  1.765729001826854 0.41 0  1.674965418778818 0.41 0  1.58737143976041 0.41 0  1.502836389107956 0.41 0  1.421253448505726 0.41 0  1.342519516048286 0.41 0  1.266535089881505 0.41 0  1.193204177143353 0.41 0  1.122434100544716 0.41 0  1.05413544556068 0.41 0  0.9882218810956305 0.41 0  0.9246101326886647 0.41 0  0.8632198139519631 0.41 0  0.8039733463934788 0.41 0  0.7467958595662458 0.41 0  0.6916151138480078 0.41 0  0.6383613676644679 0.41 0  0.5869673343225223 0.41 0  0.5373680609412221 0.41 0  0.4895008759292634 0.41 0  0.4433053055145528 0.41 0  0.3987229542475914 0.41 0  0.3556974926297398 0.41 0  0.3141745521466497 0.41 0  0.2741016576310038 0.41 0  0.2354281840915826 0.41 0  0.1981052433265003 0.41 0  0.1620856860352591 0.41 0  0.1273239957535623 0.41 0  0.09377624077128965 0.41 0  0.06140001986584975 0.41 0  0.03015443760436654 0.41 0  0.2497468076502589 0.2050254481002335 0  0.2497468076502614 0.1949745518997913 0  0.2469965252529372 0.1829317073451959 0  0.2439893735792749 0.1762316384219906 0  0.2400332147834255 0.1700443375285386 0  0.2352133972704371 0.1645032867342007 0  0.2296339016332438 0.1597280261969788 0  0.2234150974217223 0.1558215752574715 0  0.2166911463437691 0.1528682099456123 0  0.2096071079204251 0.1509316448471593 0  0.2023158100364996 0.1500536585536553 0  0.194974551899914 0.1502531923497262 0  0.1877417105387872 0.1515259415822739 0  0.1807733240461124 0.153844448527136 0  0.1742197252835808 0.15715869474974 0  0.1682222986673531 0.1613971801805478 0  0.162910430003803 0.1664684656256651 0  0.1583987151779087 0.1722631454351573 0  0.1547844879126891 0.178656207771761 0  0.1521457199348551 0.1855097315605723 0  0.1505393388476355 0.1926758619366523 0  0.1505393388476328 0.2073241380633295 0  0.1521457199348437 0.2144902684393899 0  0.1547844879126531 0.221343792228163 0  0.1583987151778488 0.2277368545647528 0  0.1629104300036858 0.2335315343742052 0  0.1682222986671726 0.2386028198193036 0  0.1742197252833576 0.2428413052501257 0  0.1807733240458683 0.2461555514727623 0  0.1877417105384929 0.2484740584176516 0  0.1949745518995776 0.2497468076502398 0  0.202315810036185 0.2499463414463592 0  0.2096071079201568 0.2490683551528932 0  0.2166911463435495 0.2471317900544655 0  0.2234150974215506 0.2441784247426195 0  0.2296339016331197 0.2402719738031125 0  0.2352133972703547 0.2354967132658811 0  0.2400332147833751 0.2299556624715287 0  0.2439893735792577 0.2237683615780412 0  0.246996525252926 0.2170682926548348 0  0.25645809709277 0.21 0  0.2639263993298655 0.21 0  0.271394701566961 0.21 0  0.2788630038040554 0.21 0  0.2863313060411479 0.21 0  0.2937996082782405 0.21 0  0.301267910515333 0.21 0  0.3087362127524279 0.21 0  0.3162045149895234 0.21 0  0.3236728172265972 0.21 0  0.3311411194636928 0.21 0  0.3386094217007701 0.21 0  0.3460777239378666 0.21 0  0.3535460261749672 0.21 0  0.3610143284120516 0.21 0  0.3684826306491596 0.21 0  0.3759509328862226 0.21 0  0.383419235123329 0.21 0  0.3908875373604028 0.21 0  0.3983558395975142 0.21 0  0.4058241418345938 0.21 0  0.4132924440716992 0.21 0  0.4207607463087888 0.21 0  0.4282290485459029 0.21 0  0.4356973507830418 0.21 0  0.4431656530201649 0.21 0  0.4506339552573136 0.21 0  0.4581022574944306 0.21 0  0.4655705597315852 0.21 0  0.4730388619686996 0.21 0  0.480507164205851 0.21 0  0.4879754664429498 0.21 0  0.4954437686800938 0.21 0  0.502912070917267 0.21 0  0.5103803731544119 0.21 0  0.5178486753915261 0.21 0  0.5253169776286404 0.21 0  0.5327852798657868 0.21 0  0.5402535821029386 0.21 0  0.54772188434007 0.21 0  0.5551901865771842 0.21 0  0.5626584888143201 0.21 0  0.5701267910514778 0.21 0  0.5775950932886138 0.21 0  0.5850633955257281 0.21 0  0.5925316977628483 0.21 0  0.6 0.2050000000000054 0  0.6 0.1950000000000217 0  0.5925316977628897 0.19 0  0.5850633955257988 0.19 0  0.5775950932887378 0.19 0  0.5701267910515998 0.19 0  0.5626584888145268 0.19 0  0.5551901865773963 0.19 0  0.547721884340339 0.19 0  0.5402535821032429 0.19 0  0.5327852798661811 0.19 0  0.5253169776290537 0.19 0  0.5178486753919799 0.19 0  0.5103803731549078 0.19 0  0.502912070917822 0.19 0  0.4954437686807294 0.19 0  0.4879754664436223 0.19 0  0.4805071642065402 0.19 0  0.4730388619694271 0.19 0  0.4655705597323621 0.19 0  0.4581022574952563 0.19 0  0.4506339552581777 0.19 0  0.4431656530210671 0.19 0  0.4356973507839815 0.19 0  0.4282290485468779 0.19 0  0.4207607463097617 0.19 0  0.4132924440726327 0.19 0  0.4058241418354857 0.19 0  0.3983558395983636 0.19 0  0.3908875373612097 0.19 0  0.3834192351240934 0.19 0  0.3759509328869369 0.19 0  0.3684826306498175 0.19 0  0.361014328412667 0.19 0  0.3535460261755617 0.19 0  0.3460777239384295 0.19 0  0.3386094217012945 0.19 0  0.3311411194641595 0.19 0  0.3236728172270245 0.19 0  0.3162045149898895 0.19 0  0.3087362127527544 0.19 0  0.3012679105156187 0.19 0  0.2937996082784807 0.19 0  0.2863313060413428 0.19 0  0.2788630038042048 0.19 0  0.2713947015670686 0.19 0  0.2639263993299336 0.19 0  0.2564580970927985 0.19 0  0.2607803159922026 0.2000727136295815 0  0.5887803774232762 0.2001272386983733 0  0.5745072403740523 0.2002044435018727 0  0.5511891430099709 0.2001122610077113 0  0.2751288526855082 0.20000000000002 0  0.5365194309847112 0.1999999999999436 0  0.2894621222999649 0.1998691686390484 0  0.5215828265105155 0.1999999999999228 0  0.3127789816668748 0.1998657885438805 0  0.3274069683451451 0.2000000000000796 0  0.5066462220363641 0.199999999999908 0  0.3650630746574081 0.199866017807523 0  0.476773013087985 0.1999999999998713 0  0.3417402379596385 0.1998691686391011 0  0.3796850840047755 0.200000000000134 0  0.4618364086138087 0.1999999999998546 0  0.4917096175621762 0.1999999999998808 0  0.3946216884789568 0.2000000000001512 0  0.446899804139621 0.1999999999998389 0  0.4089549580935208 0.1998691686391595 0  0.4322718174608562 0.200127451265745 0  0.4201487168029707 0.1999966199048527 0  0.3528922713220932 0.2000185703532356 0  0.5633122436674589 0.1999814296467508 0  0.3006558810093873 0.1999966199048318 0  0.5815926498168407 0.1966545283159175 0  0.2677053789419034 0.1964246479135325 0  0.5290511287476175 0.1970915826863981 0  0.5439877332217911 0.197091582686394 0  0.2825131256993216 0.2035478995978015 0  0.3199386661080599 0.202908417313604 0  0.4842413153250809 0.1970915826863873 0  0.5141145242734466 0.1970915826863843 0  0.3722167817676917 0.2029084173136195 0  0.4693047108508938 0.1970915826863783 0  0.3348752705822316 0.202908417313609 0  0.3871533862418661 0.2029084173136212 0  0.4543681063767183 0.1970915826863795 0  0.4991779197992749 0.1970915826863902 0  0.4020059614928624 0.203547899597858 0  0.4394315019025246 0.1970915826863714 0  0.2550657455369551 0.2034088125358657 0  0.2548908499171161 0.1966940311614271 0  0.5946539510196798 0.2024302972968126 0  0.267698176732111 0.2039977513680092 0  0.4261685417851465 0.196409292431739 0  0.3590076176283495 0.196411355804271 0  0.5571672426447437 0.2036011176410121 0  0.3066757059912147 0.1964092924317024 0  0.594380730180568 0.1966558399668133 0  0.4842413153245942 0.2040749161535287 0  0.4693047108503577 0.2040749161535231 0  0.3871533862424271 0.1959250838464788 0  0.372246743208829 0.1959123236376545 0  0.5141145242731028 0.2040749161535395 0  0.4543681063761134 0.2040749161535186 0  0.4019979587101454 0.1959834479682427 0  0.4394608940728603 0.2040870543693135 0  0.5439623148931173 0.2040856076781014 0  0.5290511287473298 0.2040749161535501 0  0.4991779197988497 0.2040749161535382 0  0.3347912413592433 0.1959225448935183 0  0.3199680582793816 0.1959123018030061 0  0.2825051229162361 0.1959834479681729 0  0.3590471196690275 0.2036304442587945 0  0.5571594006495384 0.1963685282145804 0  0.3067669986803285 0.203627750582736 0  0.4262598344738712 0.2036568242185335 0  0.5814408164431408 0.2041285596160068 0  0.5688286748170428 0.1961819304477386 0  0.4145905603063645 0.2038180695522843 0  0.3473758401724931 0.2038180695522752 0  0.2950977245128307 0.2038180695522663 0  0.5688286748170693 0.203818069552238 0  0.2950977245127906 0.1961819304477774 0  0.3473758401723931 0.1961819304478349 0  0.4145905603061963 0.1961819304479011 0  0.2601812407614425 0.2056861609747042
[...]
<PointData  Vectors="f_40-1"> 
<DataArray  type="Float64"  Name="f_40-1"  NumberOfComponents="3" format="ascii">0.0000000000000000e+00 0.0000000000000000e+00 0.0000000000000000e+00  0.0000000000000000e+00 0.0000000000000000e+00 0.0000000000000000e+00  0.0000000000000000e+00 0.0000000000000000e+00 0.0000000000000000e+00  0.0000000000000000e+00 0.0000000000000000e+00 0.0000000000000000e+00  -3.4927469159361140e-05 -1.9925532101147027e-04 0.0000000000000000e+00  -1.8966156167720833e-06 -2.0327426422246179e-04 0.0000000000000000e+00  0.0000000000000000e+00 0.0000000000000000e+00 0.0000000000000000e+00  0.0000000000000000e+00 0.0000000000000000e+00 0.0000000000000000e+00  0.0000000000000000e+00 0.0000000000000000e+00 0.0000000000000000e+00  0.0000000000000000e+00 0.0000000000000000e+00 0.0000000000000000e+00  -1.8869411469735947e-05 -2.0125412565991709e-04 0.0000000000000000e+00  0.0000000000000000e+00 0.0000000000000000e+00 0.0000000000000000e+00  0.0000000000000000e+00 0.0000000000000000e+00 0.0000000000000000e+00  0.0000000000000000e+00 0.0000000000000000e+00 0.0000000000000000e+00  0.0000000000000000e+00 0.0000000000000000e+00 0.0000000000000000e+00  0.0000000000000000e+00 0.0000000000000000e+00 0.0000000000000000e+00  0.0000000000000000e+00 0.0000000000000000e+00 0.0000000000000000e+00  0.0000000000000000e+00 0.0000000000000000e+00 0.0000000000000000e+00  0.0000000000000000e+00 0.0000000000000000e+00 0.0000000000000000e+00  0.0000000000000000e+00 0.0000000000000000e+00 0.0000000000000000e+00  0.0000000000000000e+00 0.0000000000000000e+00 0.0000000000000000e+00  0.0000000000000000e+00 0.0000000000000000e+00 0.0000000000000000e+00  0.0000000000000000e+00 0.0000000000000000e+00 0.0000000000000000e+00  0.0000000000000000e+00 0.0000000000000000e+00 0.0000000000000000e+00  0.0000000000000000e+00 0.0000000000000000e+00 0.0000000000000000e+00  0.0000000000000000e+00 0.0000000000000000e+00 0.0000000000000000e+00  0.0000000000000000e+00 0.0000000000000000e+00 0.0000000000000000e+00  0.0000000000000000e+00 0.0000000000000000e+00 0.0000000000000000e+00  0.0000000000000000e+00 0.0000000000000000e+00 0.0000000000000000e+00  0.0000000000000000e+00 0.0000000000000000e+00 0.0000000000000000e+00  0.0000000000000000e+00 0.0000000000000000e+00 0.0000000000000000e+00  0.0000000000000000e+00 0.0000000000000000e+00 0.0000000000000000e+00  0.0000000000000000e+00 0.0000000000000000e+00 0.0000000000000000e+00  0.0000000000000000e+00 0.0000000000000000e+00 0.0000000000000000e+00  0.0000000000000000e+00 0.0000000000000000e+00 0.0000000000000000e+00  0.0000000000000000e+00 0.0000000000000000e+00 0.0000000000000000e+00  0.0000000000000000e+00 0.0000000000000000e+00 0.0000000000000000e+00  0.0000000000000000e+00 0.0000000000000000e+00 0.0000000000000000e+00  0.0000000000000000e+00 0.0000000000000000e+00 0.0000000000000000e+00  0.0000000000000000e+00 0.0000000000000000e+00 0.0000000000000000e+00  0.0000000000000000e+00 0.0000000000000000e+00 0.0000000000000000e+00  0.0000000000000000e+00 0.0000000000000000e+00 0.0000000000000000e+00  0.0000000000000000e+00 0.0000000000000000e+00 0.0000000000000000e+00  0.0000000000000000e+00 0.0000000000000000e+00 0.0000000000000000e+00  0.0000000000000000e+00 0.0000000000000000e+00 0.0000000000000000e+00  0.0000000000000000e+00 0.0000000000000000e+00 0.0000000000000000e+00  0.0000000000000000e+00 0.0000000000000000e+00 0.0000000000000000e+00  0.0000000000000000e+00 0.0000000000000000e+00 0.0000000000000000e+00  0.0000000000000000e+00 0.0000000000000000e+00 0.0000000000000000e+00  0.0000000000000000e+00 0.0000000000000000e+00 0.0000000000000000e+00  0.0000000000000000e+00 0.0000000000000000e+00 0.0000000000000000e+00  0.0000000000000000e+00 0.0000000000000000e+00 0.0000000000000000e+00  0.0000000000000000e+00 0.0000000000000000e+00 0.0000000000000000e+00  0.0000000000000000e+00 0.0000000000000000e+00 0.0000000000000000e+00  0.0000000000000000e+00 0.0000000000000000e+00 0.0000000000000000e+00  0.0000000000000000e+00 0.0000000000000000e+00 0.0000000000000000e+00  0.0000000000000000e+00 0.0000000000000000e+00 0.0000000000000000e+00  0.0000000000000000e+00 0.0000000000000000e+00 0.0000000000000000e+00  0.0000000000000000e+00 0.0000000000000000e+00 0.0000000000000000e+00  0.0000000000000000e+00 0.0000000000000000e+00 0.0000000000000000e+00  0.0000000000000000e+00 0.0000000000000000e+00 0.0000000000000000e+00  0.0000000000000000e+00 0.0000000000000000e+00 0.0000000000000000e+00  0.0000000000000000e+00 0.0000000000000000e+00 0.0000000000000000e+00  0.0000000000000000e+00 0.0000000000000000e+00 0.0000000000000000e+00  0.0000000000000000e+00 0.0000000000000000e+00 0.0000000000000000e+00  0.0000000000000000e+00 0.0000000000000000e+00 0.0000000000000000e+00  0.0000000000000000e+00 0.0000000000000000e+00 0.0000000000000000e+00  0.0000000000000000e+00 0.0000000000000000e+00 0.0000000000000000e+00  0.0000000000000000e+00 0.0000000000000000e+00 0.0000000000000000e+00  0.0000000000000000e+00 0.0000000000000000e+00 0.0000000000000000e+00  0.0000000000000000e+00 0.0000000000000000e+00 0.0000000000000000e+00  0.0000000000000000e+00 0.0000000000000000e+00 0.0000000000000000e+00  0.0000000000000000e+00 0.0000000000000000e+00 0.0000000000000000e+00  0.0000000000000000e+00 0.0000000000000000e+00 0.0000000000000000e+00  0.0000000000000000e+00 0.0000000000000000e+00 0.0000000000000000e+00  0.0000000000000000e+00 0.0000000000000000e+00 0.0000000000000000e+00  0.0000000000000000e+00 0.0000000000000000e+00 0.0000000000000000e+00  0.0000000000000000e+00 0.0000000000000000e+00 0.0000000000000000e+00  0.0000000000000000e+00 0.0000000000000000e+00 0.0000000000000000e+00  0.0000000000000000e+00 0.0000000000000000e+00 0.0000000000000000e+00  0.0000000000000000e+00 0.0000000000000000e+00 0.0000000000000000e+00  0.0000000000000000e+00 0.0000000000000000e+00 0.0000000000000000e+00  0.0000000000000000e+00 0.0000000000000000e+00 0.0000000000000000e+00  0.0000000000000000e+00 0.0000000000000000e+00 0.0000000000000000e+00  0.0000000000000000e+00 0.0000000000000000e+00 0.0000000000000000e+00  0.0000000000000000e+00 0.0000000000000000e+00 0.0000000000000000e+00  0.0000000000000000e+00 0.0000000000000000e+00 0.0000000000000000e+00  0.0000000000000000e+00 0.0000000000000000e+00 0.0000000000000000e+00  0.0000000000000000e+00 0.0000000000000000e+00 0.0000000000000000e+00  0.0000000000000000e+00 0.0000000000000000e+00 0.0000000000000000e+00  0.0000000000000000e+00 0.0000000000000000e+00 0.0000000000000000e+00  0.0000000000000000e+00 0.0000000000000000e+00 0.0000000000000000e+00  0.0000000000000000e+00 0.0000000000000000e+00 0.0000000000000000e+00  0.0000000000000000e+00 0.0000000000000000e+00 0.0000000000000000e+00  0.0000000000000000e+00 0.0000000000000000e+00 0.0000000000000000e+00  0.0000000000000000e+00 0.0000000000000000e+00 0.0000000000000000e+00  0.0000000000000000e+00 0.0000000000000000e+00 0.0000000000000000e+00  0.0000000000000000e+00 0.0000000000000000e+00 0.0000000000000000e+00  0.0000000000000000e+00 0.0000000000000000e+00 0.0000000000000000e+00  0.0000000000000000e+00 0.0000000000000000e+00 0.0000000000000000e+00  0.0000000000000000e+00 0.0000000000000000e+00 0.0000000000000000e+00  0.0000000000000000e+00 0.0000000000000000e+00 0.0000000000000000e+00  0.0000000000000000e+00 0.0000000000000000e+00 0.0000000000000000e+00  0.0000000000000000e+00 0.0000000000000000e+00 0.0000000000000000e+00  0.0000000000000000e+00 0.0000000000000000e+00 0.0000000000000000e+00  0.0000000000000000e+00 0.0000000000000000e+00 0.0000000000000000e+00  0.0000000000000000e+00 0.0000000000000000e+00 0.0000000000000000e+00  0.0000000000000000e+00 0.0000000000000000e+00 0.0000000000000000e+00  0.0000000000000000e+00 0.0000000000000000e+00 0.0000000000000000e+00  0.0000000000000000e+00 0.0000000000000000e+00 0.0000000000000000e+00  0.0000000000000000e+00 0.0000000000000000e+00 0.0000000000000000e+00  0.0000000000000000e+00 0.0000000000000000e+00 0.0000000000000000e+00  0.0000000000000000e+00 0.0000000000000000e+00 0.0000000000000000e+00  0.0000000000000000e+00 0.0000000000000000e+00 0.0000000000000000e+00  0.0000000000000000e+00 0.0000000000000000e+00 0.0000000000000000e+00  0.0000000000000000e+00 0.0000000000000000e+00 0.0000000000000000e+00  0.0000000000000000e+00 0.0000000000000000e+00 0.0000000000000000e+00  0.0000000000000000e+00 0.0000000000000000e+00 0.0000000000000000e+00  0.0000000000000000e+00 0.0000000000000000e+00 0.0000000000000000e+00  0.0000000000000000e+00 0.0000000000000000e+00 0.0000000000000000e+00  0.0000000000000000e+00 0.0000000000000000e+00 0.0000000000000000e+00  0.0000000000000000e+00 0.0000000000000000e+00 0.0000000000000000e+00  0.0000000000000000e+00 0.0000000000000000e+00 0.0000000000000000e+00  0.0000000000000000e+00 0.0000000000000000e+00 0.0000000000000000e+00  0.0000000000000000e+00 0.0000000000000000e+00 0.0000000000000000e+00  0.0000000000000000e+00 0.0000000000000000e+00 0.0000000000000000e+00  0.0000000000000000e+00 0.0000000000000000e+00 0.0000000000000000e+00  0.0000000000000000e+00 0.0000000000000000e+00 0.0000000000000000e+00  0.0000000000000000e+00 0.0000000000000000e+00 0.0000000000000000e+00  0.0000000000000000e+00 0.0000000000000000e+00 0.0000000000000000e+00  0.0000000000000000e+00 0.0000000000000000e+00 0.0000000000000000e+00  0.0000000000000000e+00 0.0000000000000000e+00 0.0000000000000000e+00  0.0000000000000000e+00 0.0000000000000000e+00 0.0000000000000000e+00  0.0000000000000000e+00 0.0000000000000000e+00 0.0000000000000000e+00  0.0000000000000000e+00 0.0000000000000000e+00 0.0000000000000000e+00  0.0000000000000000e+00 0.0000000000000000e+00 0.0000000000000000e+00  0.0000000000000000e+00 0.0000000000000000e+00 0.0000000000000000e+00  0.0000000000000000e+00 0.0000000000000000e+00 0.0000000000000000e+00  0.0000000000000000e+00 0.0000000000000000e+00 0.0000000000000000e+00  0.0000000000000000e+00 0.0000000000000000e+00 0.0000000000000000e+00  0.0000000000000000e+00 0.0000000000000000e+00 0.0000000000000000e+00  0.0000000000000000e+00 0.0000000000000000e+00 0.0000000000000000e+00  0.0000000000000000e+00 0.0000000000000000e+00 0.0000000000000000e+00  -2.1565207847320296e-06 -5.3377308860706838e-07 0.0000000000000000e+00  -4.2380397120542482e-06 1.3479467975023270e-06 0.0000000000000000e+00  -5.8104211746598863e-06 4.1586469089627052e-06 0.0000000000000000e+00  -7.1714703627329678e-06 7.8888142353426746e-06 0.0000000000000000e+00  -8.1521651378088628e-06 1.2025825145093357e-05 0.0000000000000000e+00  -8.9603740232304769e-06 1.6569426456721668e-05 0.0000000000000000e+00  -9.5202271640306912e-06 2.1258175881332948e-05 0.0000000000000000e+00  -9.8822920533102886e-06 2.6016805725439726e-05 0.0000000000000000e+00  -1.0050975145053827e-05 3.0711091384599254e-05 0.0000000000000000e+00  -1.0087475987419945e-05 3.5177158756128996e-05 0.0000000000000000e+00  -9.8599090115213810e-06 3.9364923902471338e-05 0.0000000000000000e+00  -9.6247722959417445e-06 4.3090262783348673e-05 0.0000000000000000e+00  -9.1014732103814359e-06 4.6321401427080263e-05 0.0000000000000000e+00  -8.6342969658566133e-06 4.9039001208216005e-05 0.0000000000000000e+00  -8.0601535918587180e-06 5.1023417372848592e-05 0.0000000000000000e+00  -7.2384418329882843e-06 5.2378700256478426e-05 0.0000000000000000e+00  -6.5797968794520415e-06 5.2975864508571447e-05 0.0000000000000000e+00  -5.6131214762053818e-06 5.2805961700153696e-05 0.0000000000000000e+00  -4.8897433240915778e-06 5.1818312442629980e-05 0.0000000000000000e+00  -3.8922608304920944e-06 5.0063716672628704e-05 0.0000000000000000e+00  -3.0994769250391140e-06 4.7456387446228760e-05 0.0000000000000000e+00  -2.1180330235341042e-06 4.4014849752971299e-05 0.0000000000000000e+00  -1.3640378733291583e-06 3.9907735410463079e-05 0.0000000000000000e+00  -6.1968356804442939e-07 3.4911159382331245e-05 0.0000000000000000e+00  2.5691781688352299e-07 2.9291599225800186e-05 0.0000000000000000e+00  9.4981643605074406e-07 2.2899674826115817e-05 0.0000000000000000e+00  1.6524388686335142e-06 1.5831317347018460e-05 0.0000000000000000e+00  2.2295837411105111e-06 8.1579213003613858e-06 0.0000000000000000e+00  2.7952105398061587e-06 -1.3966761563307765e-07 0.0000000000000000e+00  3.2321237522098415e-06 -8.9487680961858179e-06 0.0000000000000000e+00  3.6408431340113976e-06 -1.8301407122449522e-05 0.0000000000000000e+00  3.9212329890401256e-06 -2.8072861804840664e-05 0.0000000000000000e+00  4.1585890226149752e-06 -3.8302089635358360e-05 0.0000000000000000e+00  4.2729855683918126e-06 -4.8857629562388769e-05 0.0000000000000000e+00  4.3298682283575150e-06 -5.9787082076398163e-05 0.0000000000000000e+00  4.2676418493406801e-06 -7.0952906557064004e-05 0.0000000000000000e+00  4.1405301425230910e-06 -8.2409793178335691e-05 0.0000000000000000e+00  3.9011558943011155e-06 -9.4023082006040363e-05 0.0000000000000000e+00  3.5899923153051518e-06 -1.0585415254137816e-04 0.0000000000000000e+00  3.1702493467064181e-06 -1.1776987206338090e-04 0.0000000000000000e+00  2.6685695409099592e-06 -1.2983340101496612e-04 0.0000000000000000e+00  2.0742816476814649e-06 -1.4194068810311142e-04 0.0000000000000000e+00  1.3867901214862537e-06 -1.5411903076878751e-04 0.0000000000000000e+00  6.5255670822697792e-07 -1.6632182614659773e-04 0.0000000000000000e+00  -1.8904906963905047e-07 -1.7851750827252324e-04 0.0000000000000000e+00  -1.0706870240581350e-06 -1.9077630137935220e-04 0.0000000000000000e+00  -1.0544984498738635e-05 -2.0226192291717104e-04 0.0000000000000000e+00  -2.7040220085511029e-05 -2.0025615163185668e-04 0.0000000000000000e+00  -3.4066006618368941e-05 -1.8707676843903123e-04 0.0000000000000000e+00  -3.3126306140112312e-05 -1.7468550840556358e-04 0.0000000000000000e+00  -3.2215174668757779e-05 -1.6227529875180289e-04 0.0000000000000000e+00  -3.1353437255300614e-05 -1.4992563749083532e-04 0.0000000000000000e+00  -3.0524175824529674e-05 -1.3761271600294976e-04 0.0000000000000000e+00  -2.9737060871026247e-05 -1.2537421903597063e-04 0.0000000000000000e+00  -2.8941300770642363e-05 -1.1322136450449212e-04 0.0000000000000000e+00  -2.8201785705466719e-05 -1.0116692014225922e-04 0.0000000000000000e+00  -2.7421107356407341e-05 -8.9278843911288000e-05 0.0000000000000000e+00  -2.6701042083219028e-05 -7.7547311376675008e-05 0.0000000000000000e+00  -2.5901951395465652e-05 -6.6044937159451611e-05 0.0000000000000000e+00  -2.5174115703529928e-05 -5.4779510912214037e-05 0.0000000000000000e+00  -2.4327534800733286e-05 -4.3817227266183355e-05 0.0000000000000000e+00  -2.3569425761404012e-05 -3.3180718013746452e-05 0.0000000000000000e+00  -2.2654433294027929e-05 -2.2928955396374465e-05 0.0000000000000000e+00  -2.1850955708394482e-05 -1.3094670278554813e-05 0.0000000000000000e+00  -2.0854044997299487e-05 -3.7298945208967979e-06 0.0000000000000000e+00  -1.9992922732514503e-05 5.1243060130564572e-06 0.0000000000000000e+00  -1.8902774622347758e-05 1.3424533918048197e-05 0.0000000000000000e+00  -1.7975753004145748e-05 2.1126242610829942e-05 0.0000000000000000e+00  -1.6785438099384935e-05 2.8188024696272078e-05 0.0000000000000000e+00  -1.5784906808982657e-05 3.4563897272420481e-05 0.0000000000000000e+00  -1.4521915368617177e-05 4.0216613525940341e-05 0.0000000000000000e+00  -1.3417930130527792e-05 4.5188728978759093e-05 0.0000000000000000e+00  -1.2296101852705749e-05 4.9270998717286159e-05 0.0000000000000000e+00  -1.0971399069172155e-05 5.2712156787304676e-05 0.0000000000000000e+00  -9.7721286849664429e-06 5.5261788298588364e-05 0.0000000000000000e+00  -8.4717956223689933e-06 5.7026119624850179e-05 0.0000000000000000e+00  -7.2639727520157502e-06 5.7965072045209261e-05 0.0000000000000000e+00  -5.9970480461510882e-06 5.8103595142170371e-05 0.0000000000000000e+00  -4.8301347709832276e-06 5.7491683470653400e-05 0.0000000000000000e+00  -3.5811800993253475e-06 5.6053876609435038e-05 0.0000000000000000e+00  -2.5403662201894441e-06 5.4034390750254078e-05 0.0000000000000000e+00  -1.5650712542725949e-06 5.1268175321813543e-05 0.0000000000000000e+00  -5.2787125590752145e-07 4.8019054281046436e-05 0.0000000000000000e+00  3.2448471507180405e-07 4.4224958600850915e-05 0.0000000000000000e+00  1.1085989426166781e-06 3.9988665331245038e-05 0.0000000000000000e+00  1.7411538070765500e-06 3.5474550926834161e-05 0.0000000000000000e+00  2.2387674721146305e-06 3.0718970088915020e-05 0.0000000000000000e+00  2.5878371839260958e-06 2.5910720376742983e-05 0.0000000000000000e+00  2.7867706659313254e-06 2.1171317229147459e-05 0.0000000000000000e+00  2.7744852623254559e-06 1.6568709113042406e-05 0.0000000000000000e+00  2.5975231035292848e-06 1.2390774205021530e-05 0.0000000000000000e+00  2.1299654611333483e-06 8.6991285127379956e-06 0.0000000000000000e+00  1.6218885868135586e-06 5.7314764598883041e-06 0.0000000000000000e+00  8.1182572307552488e-07 3.4948515752035602e-06 0.0000000000000000e+00  -1.4256580522474885e-06 1.8223820257945068e-06 0.0000000000000000e+00  -1.7088625415008078e-05 -1.8274275774271111e-04 0.0000000000000000e+00  -1.5188013576574782e-05 -1.5922857321877090e-04 0.0000000000000000e+00  -1.3070629716168502e-05 -1.2105944558153264e-04 0.0000000000000000e+00  -2.0577298639244905e-06 7.7788933568950371e-06 0.0000000000000000e+00  -1.2103692294426242e-05 -9.7454138277395806e-05 0.0000000000000000e+00  -2.7817550887825245e-06 1.5993944491501557e-05 0.0000000000000000e+00  -1.1113638860635346e-05 -7.4057704234456624e-05 0.0000000000000000e+00  -3.9254476413769297e-06 3.1057314914711893e-05 0.0000000000000000e+00  -4.6313761514270950e-06 3.9952105294130660e-05 0.0000000000000000e+00  -1.0283878952697260e-05 -5.1567461725728916e-05 0.0000000000000000e+00  -5.9340109888608285e-06 5.4883993997419872e-05 0.0000000000000000e+00  -9.0051893921571655e-06 -1.0641741646474481e-05 0.0000000000000000e+00  -5.1273175578277046e-06 4.7359107396119801e-05 0.0000000000000000e+00  -6.3721098204201571e-06 5.6054205212814239e-05 0.0000000000000000e+00  -8.5088666459886619e-06 7.0854686243673242e-06 0.0000000000000000e+00  -9.5889166612383263e-06 -3.0311811121326242e-05 0.0000000000000000e+00  -6.7644927232111113e-06 5.4160983588874028e-05 0.0000000000000000e+00  -8.0802290370951188e-06 2.2514252726105297e-05 0.0000000000000000e+00  -7.1805660217850401e-06 4.9308908241982886e-05 0.0000000000000000e+00  -7.5994185222907183e-06 3.5045009792535964e-05 0.0000000000000000e+00  -7.3989848807404940e-06 4.3280156419763832e-05 0.0000000000000000e+00  -5.5744817536119177e-06 5.1607261759597209e-05 0.0000000000000000e+00  -1.4417684080182199e-05 -1.4080936609423740e-04 0.0000000000000000e+00  -3.4237368623378938e-06 2.3143157831840203e-05 0.0000000000000000e+00  -2.1862418880111507e-05 -1.7021889076353691e-04 0.0000000000000000e+00  -4.5737200778793345e-07 5.2775965501195558e-06 0.0000000000000000e+00  -1.6100537608153709e-05 -8.4981848438917787e-05 0.0000000000000000e+00  -1.7305410620204445e-05 -1.0874082030796037e-04 0.0000000000000000e+00  -4.2747166362766432e-06 1.1053352840821433e-05 0.0000000000000000e+00  -5.9728076273231130e-06 3.4807436386516326e-05 0.0000000000000000e+00  -1.3062996975307812e-05 -1.9544155532302713e-05 0.0000000000000000e+00  -1.5012103731666511e-05 -6.1984048600678340e-05 0.0000000000000000e+00  -6.3646224924102789e-06 5.4998665153633796e-05 0.0000000000000000e+00  -1.2148422446121647e-05 -7.9892819853599916e-07 0.0000000000000000e+00  -6.3267343321839217e-06 4.3261404300425730e-05 0.0000000000000000e+00  -6.1927791681935107e-06 5.4688888875648293e-05 0.0000000000000000e+00  -1.1243666083487981e-05 1.5822426864577677e-05 0.0000000000000000e+00  -1.4009279573585610e-05 -4.0057084300152518e-05 0.0000000000000000e+00  -5.7520615324494071e-06 5.1006621925255821e-05 0.0000000000000000e+00  -1.0341470503291328e-05 2.9971433651038291e-05 0.0000000000000000e+00  -1.1611253155535924e-06 6.3724433871799891e-08 0.0000000000000000e+00  -6.7763268517038688e-07 9.4244919475079805e-07 0.0000000000000000e+00  -1.4101594842618516e-05 -1.9287122879871931e-04 0.0000000000000000e+00  -3.0253210140672882e-06 3.5087068034778216e-06 0.0