<?xml version="1.0"?>
<VTKFile type="UnstructuredGrid"  version="0.1"  >
<UnstructuredGrid>
<Piece  NumberOfPoints="1419" NumberOfCells="2698">
<Points>
<DataArray  type="Float64"  NumberOfComponents="3"  format="ascii">0 0 0  0 0.41 0  2.5 0 0  2.5 0.41 0  0.6 0.19 0  0.6 0.21 0  0.25 0.2 0  0.15 0.2 0  0.2489897948556636 0.21 0  0.2489897948556636 0.19 0  0.6 0.2 0  0 0.3807142857143437 0  0 0.3514285714286952 0  0 0.3221428571430699 0  0 0.29285714285744 0  0 0.2635714285718054 0  0 0.2342857142861561 0  0 0.2050000000005308 0  0 0.175714285714732 0  0 0.1464285714289574 0  0 0.1171428571431897 0  0 0.08785714285737878 0  0 0.05857142857161107 0  0 0.02928571428580012 0  0.03015443760436003 0 0  0.06140001986583606 0 0  0.09377624077125973 0 0  0.1273239957535082 0 0  0.1620856860351972 0 0  0.1981052433264291 0 0  0.235428184091502 0 0  0.2741016576309132 0 0  0.3141745521465447 0 0  0.3556974926295285 0 0  0.3987229542472677 0 0  0.4433053055141081 0 0  0.4895008759286886 0 0  0.5373680609405097 0 0  0.5869673343216626 0 0  0.6383613676634521 0 0  0.6916151138468254 0 0  0.7467958595648856 0 0  0.8039733463919316 0 0  0.8632198139502143 0 0  0.9246101326867038 0 0  0.9882218810934433 0 0  1.054135445558498 0 0  1.122434100542598 0 0  1.193204177141305 0 0  1.266535089879536 0 0  1.342519516046404 0 0  1.421253448503939 0 0  1.502836389106271 0 0  1.587371439758838 0 0  1.674965418777374 0 0  1.765729001825544 0 0  1.859776908880082 0 0  1.957227977487062 0 0  2.058205329869943 0 0  2.162836591189951 0 0  2.271253957290865 0 0  2.383594446803425 0 0  2.5 0.1024999999997612 0  2.5 0.2049999999994743 0  2.5 0.3074999999997183 0  2.383594446803656 0.41 0  2.271253957291315 0.41 0  2.162836591190598 0.41 0  2.058205329870775 0.41 0  1.957227977488067 0.41 0  1.859776908881246 0.41 0  1.765729001826854 0.41 0  1.674965418778818 0.41 0  1.58737143976041 0.41 0  1.502836389107956 0.41 0  1.421253448505726 0.41 0  1.342519516048286 0.41 0  1.266535089881505 0.41 0  1.193204177143353 0.41 0  1.122434100544716 0.41 0  1.05413544556068 0.41 0  0.9882218810956305 0.41 0  0.9246101326886647 0.41 0  0.8632198139519631 0.41 0  0.8039733463934788 0.41 0  0.7467958595662458 0.41 0  0.6916151138480078 0.41 0  0.6383613676644679 0.41 0  0.5869673343225223 0.41 0  0.5373680609412221 0.41 0  0.4895008759292634 0.41 0  0.4433053055145528 0.41 0  0.3987229542475914 0.41 0  0.3556974926297398 0.41 0  0.3141745521466497 0.41 0  0.2741016576310038 0.41 0  0.2354281840915826 0.41 0  0.1981052433265003 0.41 0  0.1620856860352591 0.41 0  0.1273239957535623 0.41 0  0.09377624077128965 0.41 0  0.06140001986584975 0.41 0  0.03015443760436654 0.41 0  0.2497468076502589 0.2050254481002335 0  0.2497468076502614 0.1949745518997913 0  0.2469965252529372 0.1829317073451959 0  0.2439893735792749 0.1762316384219906 0  0.2400332147834255 0.1700443375285386 0  0.2352133972704371 0.1645032867342007 0  0.2296339016332438 0.1597280261969788 0  0.2234150974217223 0.1558215752574715 0  0.2166911463437691 0.1528682099456123 0  0.2096071079204251 0.1509316448471593 0  0.2023158100364996 0.1500536585536553 0  0.194974551899914 0.1502531923497262 0  0.1877417105387872 0.1515259415822739 0  0.1807733240461124 0.153844448527136 0  0.1742197252835808 0.15715869474974 0  0.1682222986673531 0.1613971801805478 0  0.162910430003803 0.1664684656256651 0  0.1583987151779087 0.1722631454351573 0  0.1547844879126891 0.178656207771761 0  0.1521457199348551 0.1855097315605723 0  0.1505393388476355 0.1926758619366523 0  0.1505393388476328 0.2073241380633295 0  0.1521457199348437 0.2144902684393899 0  0.1547844879126531 0.221343792228163 0  0.1583987151778488 0.2277368545647528 0  0.1629104300036858 0.2335315343742052 0  0.1682222986671726 0.2386028198193036 0  0.1742197252833576 0.2428413052501257 0  0.1807733240458683 0.2461555514727623 0  0.1877417105384929 0.2484740584176516 0  0.1949745518995776 0.2497468076502398 0  0.202315810036185 0.2499463414463592 0  0.2096071079201568 0.2490683551528932 0  0.2166911463435495 0.2471317900544655 0  0.2234150974215506 0.2441784247426195 0  0.2296339016331197 0.2402719738031125 0  0.2352133972703547 0.2354967132658811 0  0.2400332147833751 0.2299556624715287 0  0.2439893735792577 0.2237683615780412 0  0.246996525252926 0.2170682926548348 0  0.25645809709277 0.21 0  0.2639263993298655 0.21 0  0.271394701566961 0.21 0  0.2788630038040554 0.21 0  0.2863313060411479 0.21 0  0.2937996082782405 0.21 0  0.301267910515333 0.21 0  0.3087362127524279 0.21 0  0.3162045149895234 0.21 0  0.3236728172265972 0.21 0  0.3311411194636928 0.21 0  0.3386094217007701 0.21 0  0.3460777239378666 0.21 0  0.3535460261749672 0.21 0  0.3610143284120516 0.21 0  0.3684826306491596 0.21 0  0.3759509328862226 0.21 0  0.383419235123329 0.21 0  0.3908875373604028 0.21 0  0.3983558395975142 0.21 0  0.4058241418345938 0.21 0  0.4132924440716992 0.21 0  0.4207607463087888 0.21 0  0.4282290485459029 0.21 0  0.4356973507830418 0.21 0  0.4431656530201649 0.21 0  0.4506339552573136 0.21 0  0.4581022574944306 0.21 0  0.4655705597315852 0.21 0  0.4730388619686996 0.21 0  0.480507164205851 0.21 0  0.4879754664429498 0.21 0  0.4954437686800938 0.21 0  0.502912070917267 0.21 0  0.5103803731544119 0.21 0  0.5178486753915261 0.21 0  0.5253169776286404 0.21 0  0.5327852798657868 0.21 0  0.5402535821029386 0.21 0  0.54772188434007 0.21 0  0.5551901865771842 0.21 0  0.5626584888143201 0.21 0  0.5701267910514778 0.21 0  0.5775950932886138 0.21 0  0.5850633955257281 0.21 0  0.5925316977628483 0.21 0  0.6 0.2050000000000054 0  0.6 0.1950000000000217 0  0.5925316977628897 0.19 0  0.5850633955257988 0.19 0  0.5775950932887378 0.19 0  0.5701267910515998 0.19 0  0.5626584888145268 0.19 0  0.5551901865773963 0.19 0  0.547721884340339 0.19 0  0.5402535821032429 0.19 0  0.5327852798661811 0.19 0  0.5253169776290537 0.19 0  0.5178486753919799 0.19 0  0.5103803731549078 0.19 0  0.502912070917822 0.19 0  0.4954437686807294 0.19 0  0.4879754664436223 0.19 0  0.4805071642065402 0.19 0  0.4730388619694271 0.19 0  0.4655705597323621 0.19 0  0.4581022574952563 0.19 0  0.4506339552581777 0.19 0  0.4431656530210671 0.19 0  0.4356973507839815 0.19 0  0.4282290485468779 0.19 0  0.4207607463097617 0.19 0  0.4132924440726327 0.19 0  0.4058241418354857 0.19 0  0.3983558395983636 0.19 0  0.3908875373612097 0.19 0  0.3834192351240934 0.19 0  0.3759509328869369 0.19 0  0.3684826306498175 0.19 0  0.361014328412667 0.19 0  0.3535460261755617 0.19 0  0.3460777239384295 0.19 0  0.3386094217012945 0.19 0  0.3311411194641595 0.19 0  0.3236728172270245 0.19 0  0.3162045149898895 0.19 0  0.3087362127527544 0.19 0  0.3012679105156187 0.19 0  0.2937996082784807 0.19 0  0.2863313060413428 0.19 0  0.2788630038042048 0.19 0  0.2713947015670686 0.19 0  0.2639263993299336 0.19 0  0.2564580970927985 0.19 0  0.2607803159922026 0.2000727136295815 0  0.5887803774232762 0.2001272386983733 0  0.5745072403740523 0.2002044435018727 0  0.5511891430099709 0.2001122610077113 0  0.2751288526855082 0.20000000000002 0  0.5365194309847112 0.1999999999999436 0  0.2894621222999649 0.1998691686390484 0  0.5215828265105155 0.1999999999999228 0  0.3127789816668748 0.1998657885438805 0  0.3274069683451451 0.2000000000000796 0  0.5066462220363641 0.199999999999908 0  0.3650630746574081 0.199866017807523 0  0.476773013087985 0.1999999999998713 0  0.3417402379596385 0.1998691686391011 0  0.3796850840047755 0.200000000000134 0  0.4618364086138087 0.1999999999998546 0  0.4917096175621762 0.1999999999998808 0  0.3946216884789568 0.2000000000001512 0  0.446899804139621 0.1999999999998389 0  0.4089549580935208 0.1998691686391595 0  0.4322718174608562 0.200127451265745 0  0.4201487168029707 0.1999966199048527 0  0.3528922713220932 0.2000185703532356 0  0.5633122436674589 0.1999814296467508 0  0.3006558810093873 0.1999966199048318 0  0.5815926498168407 0.1966545283159175 0  0.2677053789419034 0.1964246479135325 0  0.5290511287476175 0.1970915826863981 0  0.5439877332217911 0.197091582686394 0  0.2825131256993216 0.2035478995978015 0  0.3199386661080599 0.202908417313604 0  0.4842413153250809 0.1970915826863873 0  0.5141145242734466 0.1970915826863843 0  0.3722167817676917 0.2029084173136195 0  0.4693047108508938 0.1970915826863783 0  0.3348752705822316 0.202908417313609 0  0.3871533862418661 0.2029084173136212 0  0.4543681063767183 0.1970915826863795 0  0.4991779197992749 0.1970915826863902 0  0.4020059614928624 0.203547899597858 0  0.4394315019025246 0.1970915826863714 0  0.2550657455369551 0.2034088125358657 0  0.2548908499171161 0.1966940311614271 0  0.5946539510196798 0.2024302972968126 0  0.267698176732111 0.2039977513680092 0  0.4261685417851465 0.196409292431739 0  0.3590076176283495 0.196411355804271 0  0.5571672426447437 0.2036011176410121 0  0.3066757059912147 0.1964092924317024 0  0.594380730180568 0.1966558399668133 0  0.4842413153245942 0.2040749161535287 0  0.4693047108503577 0.2040749161535231 0  0.3871533862424271 0.1959250838464788 0  0.372246743208829 0.1959123236376545 0  0.5141145242731028 0.2040749161535395 0  0.4543681063761134 0.2040749161535186 0  0.4019979587101454 0.1959834479682427 0  0.4394608940728603 0.2040870543693135 0  0.5439623148931173 0.2040856076781014 0  0.5290511287473298 0.2040749161535501 0  0.4991779197988497 0.2040749161535382 0  0.3347912413592433 0.1959225448935183 0  0.3199680582793816 0.1959123018030061 0  0.2825051229162361 0.1959834479681729 0  0.3590471196690275 0.2036304442587945 0  0.5571594006495384 0.1963685282145804 0  0.3067669986803285 0.203627750582736 0  0.4262598344738712 0.2036568242185335 0  0.5814408164431408 0.2041285596160068 0  0.5688286748170428 0.1961819304477386 0  0.4145905603063645 0.2038180695522843 0  0.3473758401724931 0.2038180695522752 0  0.2950977245128307 0.2038180695522663 0  0.5688286748170693 0.203818069552238 0  0.2950977245127906 0.1961819304477774 0  0.3473758401723931 0.1961819304478349 0  0.4145905603061963 0.1961819304479011 0  0.2601812407614425 0.2056861609747042
[...]
<PointData  Vectors="f_40-1"> 
<DataArray  type="Float64"  Name="f_40-1"  NumberOfComponents="3" format="ascii">0.0000000000000000e+00 0.0000000000000000e+00 0.0000000000000000e+00  0.0000000000000000e+00 0.0000000000000000e+00 0.0000000000000000e+00  0.0000000000000000e+00 0.0000000000000000e+00 0.0000000000000000e+00  0.0000000000000000e+00 0.0000000000000000e+00 0.0000000000000000e+00  -2.4245905261679003e-05 2.0182542949039294e-04 0.0000000000000000e+00  -2.0307310536083153e-05 1.9808677914963499e-04 0.0000000000000000e+00  0.0000000000000000e+00 0.0000000000000000e+00 0.0000000000000000e+00  0.0000000000000000e+00 0.0000000000000000e+00 0.0000000000000000e+00  0.0000000000000000e+00 0.0000000000000000e+00 0.0000000000000000e+00  0.0000000000000000e+00 0.0000000000000000e+00 0.0000000000000000e+00  -2.2701271244377801e-05 1.9996384326764264e-04 0.0000000000000000e+00  0.0000000000000000e+00 0.0000000000000000e+00 0.0000000000000000e+00  0.0000000000000000e+00 0.0000000000000000e+00 0.0000000000000000e+00  0.0000000000000000e+00 0.0000000000000000e+00 0.0000000000000000e+00  0.0000000000000000e+00 0.0000000000000000e+00 0.0000000000000000e+00  0.0000000000000000e+00 0.0000000000000000e+00 0.0000000000000000e+00  0.0000000000000000e+00 0.0000000000000000e+00 0.0000000000000000e+00  0.0000000000000000e+00 0.0000000000000000e+00 0.0000000000000000e+00  0.0000000000000000e+00 0.0000000000000000e+00 0.0000000000000000e+00  0.0000000000000000e+00 0.0000000000000000e+00 0.0000000000000000e+00  0.0000000000000000e+00 0.0000000000000000e+00 0.0000000000000000e+00  0.0000000000000000e+00 0.0000000000000000e+00 0.0000000000000000e+00  0.0000000000000000e+00 0.0000000000000000e+00 0.0000000000000000e+00  0.0000000000000000e+00 0.0000000000000000e+00 0.0000000000000000e+00  0.0000000000000000e+00 0.0000000000000000e+00 0.0000000000000000e+00  0.0000000000000000e+00 0.0000000000000000e+00 0.0000000000000000e+00  0.0000000000000000e+00 0.0000000000000000e+00 0.0000000000000000e+00  0.0000000000000000e+00 0.0000000000000000e+00 0.0000000000000000e+00  0.0000000000000000e+00 0.0000000000000000e+00 0.0000000000000000e+00  0.0000000000000000e+00 0.0000000000000000e+00 0.0000000000000000e+00  0.0000000000000000e+00 0.0000000000000000e+00 0.0000000000000000e+00  0.0000000000000000e+00 0.0000000000000000e+00 0.0000000000000000e+00  0.0000000000000000e+00 0.0000000000000000e+00 0.0000000000000000e+00  0.0000000000000000e+00 0.0000000000000000e+00 0.0000000000000000e+00  0.0000000000000000e+00 0.0000000000000000e+00 0.0000000000000000e+00  0.0000000000000000e+00 0.0000000000000000e+00 0.0000000000000000e+00  0.0000000000000000e+00 0.0000000000000000e+00 0.0000000000000000e+00  0.0000000000000000e+00 0.0000000000000000e+00 0.0000000000000000e+00  0.0000000000000000e+00 0.0000000000000000e+00 0.0000000000000000e+00  0.0000000000000000e+00 0.0000000000000000e+00 0.0000000000000000e+00  0.0000000000000000e+00 0.0000000000000000e+00 0.0000000000000000e+00  0.0000000000000000e+00 0.0000000000000000e+00 0.0000000000000000e+00  0.0000000000000000e+00 0.0000000000000000e+00 0.0000000000000000e+00  0.0000000000000000e+00 0.0000000000000000e+00 0.0000000000000000e+00  0.0000000000000000e+00 0.0000000000000000e+00 0.0000000000000000e+00  0.0000000000000000e+00 0.0000000000000000e+00 0.0000000000000000e+00  0.0000000000000000e+00 0.0000000000000000e+00 0.0000000000000000e+00  0.0000000000000000e+00 0.0000000000000000e+00 0.0000000000000000e+00  0.0000000000000000e+00 0.0000000000000000e+00 0.0000000000000000e+00  0.0000000000000000e+00 0.0000000000000000e+00 0.0000000000000000e+00  0.0000000000000000e+00 0.0000000000000000e+00 0.0000000000000000e+00  0.0000000000000000e+00 0.0000000000000000e+00 0.0000000000000000e+00  0.0000000000000000e+00 0.0000000000000000e+00 0.0000000000000000e+00  0.0000000000000000e+00 0.0000000000000000e+00 0.0000000000000000e+00  0.0000000000000000e+00 0.0000000000000000e+00 0.0000000000000000e+00  0.0000000000000000e+00 0.0000000000000000e+00 0.0000000000000000e+00  0.0000000000000000e+00 0.0000000000000000e+00 0.0000000000000000e+00  0.0000000000000000e+00 0.0000000000000000e+00 0.0000000000000000e+00  0.0000000000000000e+00 0.0000000000000000e+00 0.0000000000000000e+00  0.0000000000000000e+00 0.0000000000000000e+00 0.0000000000000000e+00  0.0000000000000000e+00 0.0000000000000000e+00 0.0000000000000000e+00  0.0000000000000000e+00 0.0000000000000000e+00 0.0000000000000000e+00  0.0000000000000000e+00 0.0000000000000000e+00 0.0000000000000000e+00  0.0000000000000000e+00 0.0000000000000000e+00 0.0000000000000000e+00  0.0000000000000000e+00 0.0000000000000000e+00 0.0000000000000000e+00  0.0000000000000000e+00 0.0000000000000000e+00 0.0000000000000000e+00  0.0000000000000000e+00 0.0000000000000000e+00 0.0000000000000000e+00  0.0000000000000000e+00 0.0000000000000000e+00 0.0000000000000000e+00  0.0000000000000000e+00 0.0000000000000000e+00 0.0000000000000000e+00  0.0000000000000000e+00 0.0000000000000000e+00 0.0000000000000000e+00  0.0000000000000000e+00 0.0000000000000000e+00 0.0000000000000000e+00  0.0000000000000000e+00 0.0000000000000000e+00 0.0000000000000000e+00  0.0000000000000000e+00 0.0000000000000000e+00 0.0000000000000000e+00  0.0000000000000000e+00 0.0000000000000000e+00 0.0000000000000000e+00  0.0000000000000000e+00 0.0000000000000000e+00 0.0000000000000000e+00  0.0000000000000000e+00 0.0000000000000000e+00 0.0000000000000000e+00  0.0000000000000000e+00 0.0000000000000000e+00 0.0000000000000000e+00  0.0000000000000000e+00 0.0000000000000000e+00 0.0000000000000000e+00  0.0000000000000000e+00 0.0000000000000000e+00 0.0000000000000000e+00  0.0000000000000000e+00 0.0000000000000000e+00 0.0000000000000000e+00  0.0000000000000000e+00 0.0000000000000000e+00 0.0000000000000000e+00  0.0000000000000000e+00 0.0000000000000000e+00 0.0000000000000000e+00  0.0000000000000000e+00 0.0000000000000000e+00 0.0000000000000000e+00  0.0000000000000000e+00 0.0000000000000000e+00 0.0000000000000000e+00  0.0000000000000000e+00 0.0000000000000000e+00 0.0000000000000000e+00  0.0000000000000000e+00 0.0000000000000000e+00 0.0000000000000000e+00  0.0000000000000000e+00 0.0000000000000000e+00 0.0000000000000000e+00  0.0000000000000000e+00 0.0000000000000000e+00 0.0000000000000000e+00  0.0000000000000000e+00 0.0000000000000000e+00 0.0000000000000000e+00  0.0000000000000000e+00 0.0000000000000000e+00 0.0000000000000000e+00  0.0000000000000000e+00 0.0000000000000000e+00 0.0000000000000000e+00  0.0000000000000000e+00 0.0000000000000000e+00 0.0000000000000000e+00  0.0000000000000000e+00 0.0000000000000000e+00 0.0000000000000000e+00  0.0000000000000000e+00 0.0000000000000000e+00 0.0000000000000000e+00  0.0000000000000000e+00 0.0000000000000000e+00 0.0000000000000000e+00  0.0000000000000000e+00 0.0000000000000000e+00 0.0000000000000000e+00  0.0000000000000000e+00 0.0000000000000000e+00 0.0000000000000000e+00  0.0000000000000000e+00 0.0000000000000000e+00 0.0000000000000000e+00  0.0000000000000000e+00 0.0000000000000000e+00 0.0000000000000000e+00  0.0000000000000000e+00 0.0000000000000000e+00 0.0000000000000000e+00  0.0000000000000000e+00 0.0000000000000000e+00 0.0000000000000000e+00  0.0000000000000000e+00 0.0000000000000000e+00 0.0000000000000000e+00  0.0000000000000000e+00 0.0000000000000000e+00 0.0000000000000000e+00  0.0000000000000000e+00 0.0000000000000000e+00 0.0000000000000000e+00  0.0000000000000000e+00 0.0000000000000000e+00 0.0000000000000000e+00  0.0000000000000000e+00 0.0000000000000000e+00 0.0000000000000000e+00  0.0000000000000000e+00 0.0000000000000000e+00 0.0000000000000000e+00  0.0000000000000000e+00 0.0000000000000000e+00 0.0000000000000000e+00  0.0000000000000000e+00 0.0000000000000000e+00 0.0000000000000000e+00  0.0000000000000000e+00 0.0000000000000000e+00 0.0000000000000000e+00  0.0000000000000000e+00 0.0000000000000000e+00 0.0000000000000000e+00  0.0000000000000000e+00 0.0000000000000000e+00 0.0000000000000000e+00  0.0000000000000000e+00 0.0000000000000000e+00 0.0000000000000000e+00  0.0000000000000000e+00 0.0000000000000000e+00 0.0000000000000000e+00  0.0000000000000000e+00 0.0000000000000000e+00 0.0000000000000000e+00  0.0000000000000000e+00 0.0000000000000000e+00 0.0000000000000000e+00  0.0000000000000000e+00 0.0000000000000000e+00 0.0000000000000000e+00  0.0000000000000000e+00 0.0000000000000000e+00 0.0000000000000000e+00  0.0000000000000000e+00 0.0000000000000000e+00 0.0000000000000000e+00  0.0000000000000000e+00 0.0000000000000000e+00 0.0000000000000000e+00  0.0000000000000000e+00 0.0000000000000000e+00 0.0000000000000000e+00  0.0000000000000000e+00 0.0000000000000000e+00 0.0000000000000000e+00  0.0000000000000000e+00 0.0000000000000000e+00 0.0000000000000000e+00  0.0000000000000000e+00 0.0000000000000000e+00 0.0000000000000000e+00  0.0000000000000000e+00 0.0000000000000000e+00 0.0000000000000000e+00  0.0000000000000000e+00 0.0000000000000000e+00 0.0000000000000000e+00  0.0000000000000000e+00 0.0000000000000000e+00 0.0000000000000000e+00  0.0000000000000000e+00 0.0000000000000000e+00 0.0000000000000000e+00  0.0000000000000000e+00 0.0000000000000000e+00 0.0000000000000000e+00  0.0000000000000000e+00 0.0000000000000000e+00 0.0000000000000000e+00  0.0000000000000000e+00 0.0000000000000000e+00 0.0000000000000000e+00  0.0000000000000000e+00 0.0000000000000000e+00 0.0000000000000000e+00  0.0000000000000000e+00 0.0000000000000000e+00 0.0000000000000000e+00  0.0000000000000000e+00 0.0000000000000000e+00 0.0000000000000000e+00  0.0000000000000000e+00 0.0000000000000000e+00 0.0000000000000000e+00  0.0000000000000000e+00 0.0000000000000000e+00 0.0000000000000000e+00  0.0000000000000000e+00 0.0000000000000000e+00 0.0000000000000000e+00  0.0000000000000000e+00 0.0000000000000000e+00 0.0000000000000000e+00  0.0000000000000000e+00 0.0000000000000000e+00 0.0000000000000000e+00  0.0000000000000000e+00 0.0000000000000000e+00 0.0000000000000000e+00  0.0000000000000000e+00 0.0000000000000000e+00 0.0000000000000000e+00  0.0000000000000000e+00 0.0000000000000000e+00 0.0000000000000000e+00  0.0000000000000000e+00 0.0000000000000000e+00 0.0000000000000000e+00  -3.2037299069581592e-06 5.6459348990909395e-07 0.0000000000000000e+00  -6.4645196673029447e-06 3.6278860682875032e-06 0.0000000000000000e+00  -9.0910302790797669e-06 8.3287229687474082e-06 0.0000000000000000e+00  -1.1580824831972774e-05 1.4702317109953467e-05 0.0000000000000000e+00  -1.3512130670001272e-05 2.2108510283822252e-05 0.0000000000000000e+00  -1.5372711889182478e-05 3.0603861086720358e-05 0.0000000000000000e+00  -1.6787625577382760e-05 3.9740661976631262e-05 0.0000000000000000e+00  -1.7970506583845330e-05 4.9593031847811488e-05 0.0000000000000000e+00  -1.9055590839755576e-05 5.9862891520073271e-05 0.0000000000000000e+00  -1.9800958464000238e-05 7.0397289948228252e-05 0.0000000000000000e+00  -2.0403494556247471e-05 8.1132626206757762e-05 0.0000000000000000e+00  -2.0802789479277222e-05 9.1833270969407570e-05 0.0000000000000000e+00  -2.0996521891283086e-05 1.0244844058932902e-04 0.0000000000000000e+00  -2.1105811861891684e-05 1.1287193003898258e-04 0.0000000000000000e+00  -2.1078343488589711e-05 1.2295200564117100e-04 0.0000000000000000e+00  -2.0849218751542403e-05 1.3268882314438889e-04 0.0000000000000000e+00  -2.0649387244337781e-05 1.4195153638920036e-04 0.0000000000000000e+00  -2.0197415372310315e-05 1.5072047802686865e-04 0.0000000000000000e+00  -1.9868098564598341e-05 1.5890074020812961e-04 0.0000000000000000e+00  -1.9303393188745344e-05 1.6652928058764129e-04 0.0000000000000000e+00  -1.8858895673959227e-05 1.7349766816507231e-04 0.0000000000000000e+00  -1.8236540544540639e-05 1.7981515912781658e-04 0.0000000000000000e+00  -1.7775784467211949e-05 1.8559369596975303e-04 0.0000000000000000e+00  -1.7301442923497500e-05 1.9064145638175161e-04 0.0000000000000000e+00  -1.6701536984789362e-05 1.9516981350931165e-04 0.0000000000000000e+00  -1.6237086938683629e-05 1.9903885412204212e-04 0.0000000000000000e+00  -1.5750206474762604e-05 2.0233046554179009e-04 0.0000000000000000e+00  -1.5359410373235000e-05 2.0508841930360564e-04 0.0000000000000000e+00  -1.4966948401831683e-05 2.0730144861670125e-04 0.0000000000000000e+00  -1.4678381301848917e-05 2.0905457455663989e-04 0.0000000000000000e+00  -1.4405219717422171e-05 2.1032390871573333e-04 0.0000000000000000e+00  -1.4239089778450338e-05 2.1120979034570098e-04 0.0000000000000000e+00  -1.4104084670584035e-05 2.1168199611206460e-04 0.0000000000000000e+00  -1.4073623230702733e-05 2.1185019889659670e-04 0.0000000000000000e+00  -1.4088669985385794e-05 2.1167720860987432e-04 0.0000000000000000e+00  -1.4207600086391170e-05 2.1128105268533121e-04 0.0000000000000000e+00  -1.4380600902333671e-05 2.1061679962537360e-04 0.0000000000000000e+00  -1.4652703351132720e-05 2.0980287023622895e-04 0.0000000000000000e+00  -1.4986133776932718e-05 2.0878770641919161e-04 0.0000000000000000e+00  -1.5416333780985737e-05 2.0769042836841947e-04 0.0000000000000000e+00  -1.5918017071484203e-05 2.0645619416623061e-04 0.0000000000000000e+00  -1.6503274679490725e-05 2.0518016717219770e-04 0.0000000000000000e+00  -1.7170588173868513e-05 2.0383924471362879e-04 0.0000000000000000e+00  -1.7879616646158814e-05 2.0247668427686850e-04 0.0000000000000000e+00  -1.8684655804831836e-05 2.0112186795754195e-04 0.0000000000000000e+00  -1.9523260090682260e-05 1.9971183300805653e-04 0.0000000000000000e+00  -2.1652705721804097e-05 1.9902730487787797e-04 0.0000000000000000e+00  -2.3606001808588941e-05 2.0089194148436004e-04 0.0000000000000000e+00  -2.3434286102271729e-05 2.0314877376908825e-04 0.0000000000000000e+00  -2.2547180621731594e-05 2.0467180981630529e-04 0.0000000000000000e+00  -2.1682515302203438e-05 2.0621326037953622e-04 0.0000000000000000e+00  -2.0859492977957611e-05 2.0770091377107148e-04 0.0000000000000000e+00  -2.0062919357572834e-05 2.0915522110191470e-04 0.0000000000000000e+00  -1.9299266179401226e-05 2.1054089466752718e-04 0.0000000000000000e+00  -1.8523879559236444e-05 2.1184706609734822e-04 0.0000000000000000e+00  -1.7794997588085800e-05 2.1305966916186045e-04 0.0000000000000000e+00  -1.7023136050729116e-05 2.1411837670741457e-04 0.0000000000000000e+00  -1.6303016663549311e-05 2.1502768647616867e-04 0.0000000000000000e+00  -1.5505372935337053e-05 2.1572498288774888e-04 0.0000000000000000e+00  -1.4769636968094054e-05 2.1619909233862143e-04 0.0000000000000000e+00  -1.3921090282591064e-05 2.1639424567810746e-04 0.0000000000000000e+00  -1.3151219501714559e-05 2.1628687275988327e-04 0.0000000000000000e+00  -1.2236447063376014e-05 2.1582789231872285e-04 0.0000000000000000e+00  -1.1421633051882099e-05 2.1498696240756861e-04 0.0000000000000000e+00  -1.0432549999901889e-05 2.1372192561810541e-04 0.0000000000000000e+00  -9.5652789614704658e-06 2.1199768772727062e-04 0.0000000000000000e+00  -8.4971247971046318e-06 2.0978100351984826e-04 0.0000000000000000e+00  -7.5747237363184126e-06 2.0703688338142594e-04 0.0000000000000000e+00  -6.4287668055377845e-06 2.0373438847051209e-04 0.0000000000000000e+00  -5.4507408700794326e-06 1.9984154576551525e-04 0.0000000000000000e+00  -4.2596983413476883e-06 1.9533390801895338e-04 0.0000000000000000e+00  -3.2104131389600219e-06 1.9025639308417949e-04 0.0000000000000000e+00  -2.1563071626387585e-06 1.8444868902524119e-04 0.0000000000000000e+00  -9.5350377607296786e-07 1.7812178936157775e-04 0.0000000000000000e+00  1.3061090188566486e-07 1.7109732834546333e-04 0.0000000000000000e+00  1.2688656453246419e-06 1.6346632335490153e-04 0.0000000000000000e+00  2.3123168385429242e-06 1.5523734404487320e-04 0.0000000000000000e+00  3.3634121147659558e-06 1.4643337800095580e-04 0.0000000000000000e+00  4.3110695075907103e-06 1.3714097845659873e-04 0.0000000000000000e+00  5.2487905247411381e-06 1.2733825815929701e-04 0.0000000000000000e+00  6.0233776479009039e-06 1.1721620910196901e-04 0.0000000000000000e+00  6.7045452876061753e-06 1.0674729594914583e-04 0.0000000000000000e+00  7.3298649727704285e-06 9.6086221228624749e-05 0.0000000000000000e+00  7.7888839042369542e-06 8.5329855591435261e-05 0.0000000000000000e+00  8.0964127532354143e-06 7.4539753225091293e-05 0.0000000000000000e+00  8.2598129637046745e-06 6.3934579869260100e-05 0.0000000000000000e+00  8.1458064779184002e-06 5.3630165749620870e-05 0.0000000000000000e+00  7.9688228022952174e-06 4.3716161743174816e-05 0.0000000000000000e+00  7.6097044351890919e-06 3.4526428336665447e-05 0.0000000000000000e+00  6.8567839344471848e-06 2.5949669973877292e-05 0.0000000000000000e+00  6.0011476327740052e-06 1.8484864488608765e-05 0.0000000000000000e+00  4.6887304951032049e-06 1.2177604791983813e-05 0.0000000000000000e+00  3.4189814705254045e-06 7.3193724572063966e-06 0.0000000000000000e+00  1.6628885968506541e-06 3.9387511421931763e-06 0.0000000000000000e+00  -1.5384165077392851e-06 2.6471197480207003e-06 0.0000000000000000e+00  -2.1194811631165231e-05 2.0215898703966674e-04 0.0000000000000000e+00  -1.9494112901583136e-05 2.0492783722513949e-04 0.0000000000000000e+00  -1.7308803053667050e-05 2.0923298603345766e-04 0.0000000000000000e+00  -2.4772546548720260e-06 1.2379056470008229e-05 0.0000000000000000e+00  -1.6178963012766149e-05 2.1156024367231438e-04 0.0000000000000000e+00  -3.4237721926197360e-06 2.6885713988501857e-05 0.0000000000000000e+00  -1.5158148607259737e-05 2.1333075696925363e-04 0.0000000000000000e+00  -4.9908212687844603e-06 5.6904491377235894e-05 0.0000000000000000e+00  -6.0825425719946108e-06 7.7768307417135793e-05 0.0000000000000000e+00  -1.4266552440359255e-05 2.1425406817288816e-04 0.0000000000000000e+00  -7.9493646272966887e-06 1.3078764167339085e-04 0.0000000000000000e+00  -1.2776286873209465e-05 2.1236001238500725e-04 0.0000000000000000e+00  -6.7283387932394876e-06 9.8549350165558883e-05 0.0000000000000000e+00  -8.8011708209894041e-06 1.4898290469573047e-04 0.0000000000000000e+00  -1.2133410925683355e-05 2.0893317611391326e-04 0.0000000000000000e+00  -1.3479969070416551e-05 2.1403320864906688e-04 0.0000000000000000e+00  -9.4508208455684010e-06 1.6545559122482404e-04 0.0000000000000000e+00  -1.1532792905883208e-05 2.0346865574388811e-04 0.0000000000000000e+00  -9.9299147629814930e-06 1.7898814135623066e-04 0.0000000000000000e+00  -1.1035315167406804e-05 1.9587791073017577e-04 0.0000000000000000e+00  -1.0483300394530613e-05 1.8777168848545706e-04 0.0000000000000000e+00  -7.5327009272171822e-06 1.1425949968723405e-04 0.0000000000000000e+00  -1.8438725908869217e-05 2.0708139755279298e-04 0.0000000000000000e+00  -4.3456748172890815e-06 4.0626098009583787e-05 0.0000000000000000e+00  -2.0969800809187353e-05 2.0418392585670308e-04 0.0000000000000000e+00  1.6582049487091385e-07 7.5461427125564011e-06 0.0000000000000000e+00  -1.5956822011509541e-05 2.1315111050036100e-04 0.0000000000000000e+00  -1.7168279659953312e-05 2.1104368480258471e-04 0.0000000000000000e+00  -6.3542838471023765e-06 1.8797686222280622e-05 0.0000000000000000e+00  -9.6260364802233499e-06 6.6426115909498854e-05 0.0000000000000000e+00  -1.2749944050199284e-05 2.1403572862687201e-04 0.0000000000000000e+00  -1.4834931916790334e-05 2.1454480156590572e-04 0.0000000000000000e+00  -1.2019606201729047e-05 1.3922207456893861e-04 0.0000000000000000e+00  -1.1740844431903814e-05 2.1152218010556350e-04 0.0000000000000000e+00  -1.0603583346397940e-05 8.7993001285453917e-05 0.0000000000000000e+00  -1.2301937096088232e-05 1.5680316090436284e-04 0.0000000000000000e+00  -1.0729567238320500e-05 2.0710852141478446e-04 0.0000000000000000e+00  -1.3774368183115751e-05 2.1494169162537469e-04 0.0000000000000000e+00  -1.3084016923490543e-05 1.7182427510138964e-04 0.0000000000000000e+00  -9.7124310398702950e-06 2.0052551772804393e-04 0.0000000000000000e+00  -1.3391316898559620e-06 3.2139305960190238e-07 0.0000000000000000e+00  -5.3995361926950493e-07 1.0325484121279855e-06 0.0000000000000000e+00  -2.1511089600320427e-05 2.0060278003715182e-04 0.0000000000000000e+00  -4.2818547177726147e-06 6.0573632194525497e-06 0.0000000000000000e+00  -8.3273131274931525e-06 1.9