<?xml version="1.0"?>
<VTKFile type="UnstructuredGrid"  version="0.1"  >
<UnstructuredGrid>
<Piece  NumberOfPoints="1419" NumberOfCells="2698">
<Points>
<DataArray  type="Float64"  NumberOfComponents="3"  format="ascii">0 0 0  0 0.41 0  2.5 0 0  2.5 0.41 0  0.6 0.19 0  0.6 0.21 0  0.25 0.2 0  0.15 0.2 0  0.2489897948556636 0.21 0  0.2489897948556636 0.19 0  0.6 0.2 0  0 0.3807142857143437 0  0 0.3514285714286952 0  0 0.3221428571430699 0  0 0.29285714285744 0  0 0.2635714285718054 0  0 0.2342857142861561 0  0 0.2050000000005308 0  0 0.175714285714732 0  0 0.1464285714289574 0  0 0.1171428571431897 0  0 0.08785714285737878 0  0 0.05857142857161107 0  0 0.02928571428580012 0  0.03015443760436003 0 0  0.06140001986583606 0 0  0.09377624077125973 0 0  0.1273239957535082 0 0  0.1620856860351972 0 0  0.1981052433264291 0 0  0.235428184091502 0 0  0.2741016576309132 0 0  0.3141745521465447 0 0  0.3556974926295285 0 0  0.3987229542472677 0 0  0.4433053055141081 0 0  0.4895008759286886 0 0  0.5373680609405097 0 0  0.5869673343216626 0 0  0.6383613676634521 0 0  0.6916151138468254 0 0  0.7467958595648856 0 0  0.8039733463919316 0 0  0.8632198139502143 0 0  0.9246101326867038 0 0  0.9882218810934433 0 0  1.054135445558498 0 0  1.122434100542598 0 0  1.193204177141305 0 0  1.266535089879536 0 0  1.342519516046404 0 0  1.421253448503939 0 0  1.502836389106271 0 0  1.587371439758838 0 0  1.674965418777374 0 0  1.765729001825544 0 0  1.859776908880082 0 0  1.957227977487062 0 0  2.058205329869943 0 0  2.162836591189951 0 0  2.271253957290865 0 0  2.383594446803425 0 0  2.5 0.1024999999997612 0  2.5 0.2049999999994743 0  2.5 0.3074999999997183 0  2.383594446803656 0.41 0  2.271253957291315 0.41 0  2.162836591190598 0.41 0  2.058205329870775 0.41 0  1.957227977488067 0.41 0  1.859776908881246 0.41 0  1.765729001826854 0.41 0  1.674965418778818 0.41 0  1.58737143976041 0.41 0  1.502836389107956 0.41 0  1.421253448505726 0.41 0  1.342519516048286 0.41 0  1.266535089881505 0.41 0  1.193204177143353 0.41 0  1.122434100544716 0.41 0  1.05413544556068 0.41 0  0.9882218810956305 0.41 0  0.9246101326886647 0.41 0  0.8632198139519631 0.41 0  0.8039733463934788 0.41 0  0.7467958595662458 0.41 0  0.6916151138480078 0.41 0  0.6383613676644679 0.41 0  0.5869673343225223 0.41 0  0.5373680609412221 0.41 0  0.4895008759292634 0.41 0  0.4433053055145528 0.41 0  0.3987229542475914 0.41 0  0.3556974926297398 0.41 0  0.3141745521466497 0.41 0  0.2741016576310038 0.41 0  0.2354281840915826 0.41 0  0.1981052433265003 0.41 0  0.1620856860352591 0.41 0  0.1273239957535623 0.41 0  0.09377624077128965 0.41 0  0.06140001986584975 0.41 0  0.03015443760436654 0.41 0  0.2497468076502589 0.2050254481002335 0  0.2497468076502614 0.1949745518997913 0  0.2469965252529372 0.1829317073451959 0  0.2439893735792749 0.1762316384219906 0  0.2400332147834255 0.1700443375285386 0  0.2352133972704371 0.1645032867342007 0  0.2296339016332438 0.1597280261969788 0  0.2234150974217223 0.1558215752574715 0  0.2166911463437691 0.1528682099456123 0  0.2096071079204251 0.1509316448471593 0  0.2023158100364996 0.1500536585536553 0  0.194974551899914 0.1502531923497262 0  0.1877417105387872 0.1515259415822739 0  0.1807733240461124 0.153844448527136 0  0.1742197252835808 0.15715869474974 0  0.1682222986673531 0.1613971801805478 0  0.162910430003803 0.1664684656256651 0  0.1583987151779087 0.1722631454351573 0  0.1547844879126891 0.178656207771761 0  0.1521457199348551 0.1855097315605723 0  0.1505393388476355 0.1926758619366523 0  0.1505393388476328 0.2073241380633295 0  0.1521457199348437 0.2144902684393899 0  0.1547844879126531 0.221343792228163 0  0.1583987151778488 0.2277368545647528 0  0.1629104300036858 0.2335315343742052 0  0.1682222986671726 0.2386028198193036 0  0.1742197252833576 0.2428413052501257 0  0.1807733240458683 0.2461555514727623 0  0.1877417105384929 0.2484740584176516 0  0.1949745518995776 0.2497468076502398 0  0.202315810036185 0.2499463414463592 0  0.2096071079201568 0.2490683551528932 0  0.2166911463435495 0.2471317900544655 0  0.2234150974215506 0.2441784247426195 0  0.2296339016331197 0.2402719738031125 0  0.2352133972703547 0.2354967132658811 0  0.2400332147833751 0.2299556624715287 0  0.2439893735792577 0.2237683615780412 0  0.246996525252926 0.2170682926548348 0  0.25645809709277 0.21 0  0.2639263993298655 0.21 0  0.271394701566961 0.21 0  0.2788630038040554 0.21 0  0.2863313060411479 0.21 0  0.2937996082782405 0.21 0  0.301267910515333 0.21 0  0.3087362127524279 0.21 0  0.3162045149895234 0.21 0  0.3236728172265972 0.21 0  0.3311411194636928 0.21 0  0.3386094217007701 0.21 0  0.3460777239378666 0.21 0  0.3535460261749672 0.21 0  0.3610143284120516 0.21 0  0.3684826306491596 0.21 0  0.3759509328862226 0.21 0  0.383419235123329 0.21 0  0.3908875373604028 0.21 0  0.3983558395975142 0.21 0  0.4058241418345938 0.21 0  0.4132924440716992 0.21 0  0.4207607463087888 0.21 0  0.4282290485459029 0.21 0  0.4356973507830418 0.21 0  0.4431656530201649 0.21 0  0.4506339552573136 0.21 0  0.4581022574944306 0.21 0  0.4655705597315852 0.21 0  0.4730388619686996 0.21 0  0.480507164205851 0.21 0  0.4879754664429498 0.21 0  0.4954437686800938 0.21 0  0.502912070917267 0.21 0  0.5103803731544119 0.21 0  0.5178486753915261 0.21 0  0.5253169776286404 0.21 0  0.5327852798657868 0.21 0  0.5402535821029386 0.21 0  0.54772188434007 0.21 0  0.5551901865771842 0.21 0  0.5626584888143201 0.21 0  0.5701267910514778 0.21 0  0.5775950932886138 0.21 0  0.5850633955257281 0.21 0  0.5925316977628483 0.21 0  0.6 0.2050000000000054 0  0.6 0.1950000000000217 0  0.5925316977628897 0.19 0  0.5850633955257988 0.19 0  0.5775950932887378 0.19 0  0.5701267910515998 0.19 0  0.5626584888145268 0.19 0  0.5551901865773963 0.19 0  0.547721884340339 0.19 0  0.5402535821032429 0.19 0  0.5327852798661811 0.19 0  0.5253169776290537 0.19 0  0.5178486753919799 0.19 0  0.5103803731549078 0.19 0  0.502912070917822 0.19 0  0.4954437686807294 0.19 0  0.4879754664436223 0.19 0  0.4805071642065402 0.19 0  0.4730388619694271 0.19 0  0.4655705597323621 0.19 0  0.4581022574952563 0.19 0  0.4506339552581777 0.19 0  0.4431656530210671 0.19 0  0.4356973507839815 0.19 0  0.4282290485468779 0.19 0  0.4207607463097617 0.19 0  0.4132924440726327 0.19 0  0.4058241418354857 0.19 0  0.3983558395983636 0.19 0  0.3908875373612097 0.19 0  0.3834192351240934 0.19 0  0.3759509328869369 0.19 0  0.3684826306498175 0.19 0  0.361014328412667 0.19 0  0.3535460261755617 0.19 0  0.3460777239384295 0.19 0  0.3386094217012945 0.19 0  0.3311411194641595 0.19 0  0.3236728172270245 0.19 0  0.3162045149898895 0.19 0  0.3087362127527544 0.19 0  0.3012679105156187 0.19 0  0.2937996082784807 0.19 0  0.2863313060413428 0.19 0  0.2788630038042048 0.19 0  0.2713947015670686 0.19 0  0.2639263993299336 0.19 0  0.2564580970927985 0.19 0  0.2607803159922026 0.2000727136295815 0  0.5887803774232762 0.2001272386983733 0  0.5745072403740523 0.2002044435018727 0  0.5511891430099709 0.2001122610077113 0  0.2751288526855082 0.20000000000002 0  0.5365194309847112 0.1999999999999436 0  0.2894621222999649 0.1998691686390484 0  0.5215828265105155 0.1999999999999228 0  0.3127789816668748 0.1998657885438805 0  0.3274069683451451 0.2000000000000796 0  0.5066462220363641 0.199999999999908 0  0.3650630746574081 0.199866017807523 0  0.476773013087985 0.1999999999998713 0  0.3417402379596385 0.1998691686391011 0  0.3796850840047755 0.200000000000134 0  0.4618364086138087 0.1999999999998546 0  0.4917096175621762 0.1999999999998808 0  0.3946216884789568 0.2000000000001512 0  0.446899804139621 0.1999999999998389 0  0.4089549580935208 0.1998691686391595 0  0.4322718174608562 0.200127451265745 0  0.4201487168029707 0.1999966199048527 0  0.3528922713220932 0.2000185703532356 0  0.5633122436674589 0.1999814296467508 0  0.3006558810093873 0.1999966199048318 0  0.5815926498168407 0.1966545283159175 0  0.2677053789419034 0.1964246479135325 0  0.5290511287476175 0.1970915826863981 0  0.5439877332217911 0.197091582686394 0  0.2825131256993216 0.2035478995978015 0  0.3199386661080599 0.202908417313604 0  0.4842413153250809 0.1970915826863873 0  0.5141145242734466 0.1970915826863843 0  0.3722167817676917 0.2029084173136195 0  0.4693047108508938 0.1970915826863783 0  0.3348752705822316 0.202908417313609 0  0.3871533862418661 0.2029084173136212 0  0.4543681063767183 0.1970915826863795 0  0.4991779197992749 0.1970915826863902 0  0.4020059614928624 0.203547899597858 0  0.4394315019025246 0.1970915826863714 0  0.2550657455369551 0.2034088125358657 0  0.2548908499171161 0.1966940311614271 0  0.5946539510196798 0.2024302972968126 0  0.267698176732111 0.2039977513680092 0  0.4261685417851465 0.196409292431739 0  0.3590076176283495 0.196411355804271 0  0.5571672426447437 0.2036011176410121 0  0.3066757059912147 0.1964092924317024 0  0.594380730180568 0.1966558399668133 0  0.4842413153245942 0.2040749161535287 0  0.4693047108503577 0.2040749161535231 0  0.3871533862424271 0.1959250838464788 0  0.372246743208829 0.1959123236376545 0  0.5141145242731028 0.2040749161535395 0  0.4543681063761134 0.2040749161535186 0  0.4019979587101454 0.1959834479682427 0  0.4394608940728603 0.2040870543693135 0  0.5439623148931173 0.2040856076781014 0  0.5290511287473298 0.2040749161535501 0  0.4991779197988497 0.2040749161535382 0  0.3347912413592433 0.1959225448935183 0  0.3199680582793816 0.1959123018030061 0  0.2825051229162361 0.1959834479681729 0  0.3590471196690275 0.2036304442587945 0  0.5571594006495384 0.1963685282145804 0  0.3067669986803285 0.203627750582736 0  0.4262598344738712 0.2036568242185335 0  0.5814408164431408 0.2041285596160068 0  0.5688286748170428 0.1961819304477386 0  0.4145905603063645 0.2038180695522843 0  0.3473758401724931 0.2038180695522752 0  0.2950977245128307 0.2038180695522663 0  0.5688286748170693 0.203818069552238 0  0.2950977245127906 0.1961819304477774 0  0.3473758401723931 0.1961819304478349 0  0.4145905603061963 0.1961819304479011 0  0.2601812407614425 0.2056861609747042
[...]
<PointData  Vectors="f_40-1"> 
<DataArray  type="Float64"  Name="f_40-1"  NumberOfComponents="3" format="ascii">0.0000000000000000e+00 0.0000000000000000e+00 0.0000000000000000e+00  0.0000000000000000e+00 0.0000000000000000e+00 0.0000000000000000e+00  0.0000000000000000e+00 0.0000000000000000e+00 0.0000000000000000e+00  0.0000000000000000e+00 0.0000000000000000e+00 0.0000000000000000e+00  -3.2642760729592035e-05 -1.0836612563466284e-04 0.0000000000000000e+00  -6.2001086606337863e-06 -1.1232114338632785e-04 0.0000000000000000e+00  0.0000000000000000e+00 0.0000000000000000e+00 0.0000000000000000e+00  0.0000000000000000e+00 0.0000000000000000e+00 0.0000000000000000e+00  0.0000000000000000e+00 0.0000000000000000e+00 0.0000000000000000e+00  0.0000000000000000e+00 0.0000000000000000e+00 0.0000000000000000e+00  -1.9871719489263991e-05 -1.1033365598969335e-04 0.0000000000000000e+00  0.0000000000000000e+00 0.0000000000000000e+00 0.0000000000000000e+00  0.0000000000000000e+00 0.0000000000000000e+00 0.0000000000000000e+00  0.0000000000000000e+00 0.0000000000000000e+00 0.0000000000000000e+00  0.0000000000000000e+00 0.0000000000000000e+00 0.0000000000000000e+00  0.0000000000000000e+00 0.0000000000000000e+00 0.0000000000000000e+00  0.0000000000000000e+00 0.0000000000000000e+00 0.0000000000000000e+00  0.0000000000000000e+00 0.0000000000000000e+00 0.0000000000000000e+00  0.0000000000000000e+00 0.0000000000000000e+00 0.0000000000000000e+00  0.0000000000000000e+00 0.0000000000000000e+00 0.0000000000000000e+00  0.0000000000000000e+00 0.0000000000000000e+00 0.0000000000000000e+00  0.0000000000000000e+00 0.0000000000000000e+00 0.0000000000000000e+00  0.0000000000000000e+00 0.0000000000000000e+00 0.0000000000000000e+00  0.0000000000000000e+00 0.0000000000000000e+00 0.0000000000000000e+00  0.0000000000000000e+00 0.0000000000000000e+00 0.0000000000000000e+00  0.0000000000000000e+00 0.0000000000000000e+00 0.0000000000000000e+00  0.0000000000000000e+00 0.0000000000000000e+00 0.0000000000000000e+00  0.0000000000000000e+00 0.0000000000000000e+00 0.0000000000000000e+00  0.0000000000000000e+00 0.0000000000000000e+00 0.0000000000000000e+00  0.0000000000000000e+00 0.0000000000000000e+00 0.0000000000000000e+00  0.0000000000000000e+00 0.0000000000000000e+00 0.0000000000000000e+00  0.0000000000000000e+00 0.0000000000000000e+00 0.0000000000000000e+00  0.0000000000000000e+00 0.0000000000000000e+00 0.0000000000000000e+00  0.0000000000000000e+00 0.0000000000000000e+00 0.0000000000000000e+00  0.0000000000000000e+00 0.0000000000000000e+00 0.0000000000000000e+00  0.0000000000000000e+00 0.0000000000000000e+00 0.0000000000000000e+00  0.0000000000000000e+00 0.0000000000000000e+00 0.0000000000000000e+00  0.0000000000000000e+00 0.0000000000000000e+00 0.0000000000000000e+00  0.0000000000000000e+00 0.0000000000000000e+00 0.0000000000000000e+00  0.0000000000000000e+00 0.0000000000000000e+00 0.0000000000000000e+00  0.0000000000000000e+00 0.0000000000000000e+00 0.0000000000000000e+00  0.0000000000000000e+00 0.0000000000000000e+00 0.0000000000000000e+00  0.0000000000000000e+00 0.0000000000000000e+00 0.0000000000000000e+00  0.0000000000000000e+00 0.0000000000000000e+00 0.0000000000000000e+00  0.0000000000000000e+00 0.0000000000000000e+00 0.0000000000000000e+00  0.0000000000000000e+00 0.0000000000000000e+00 0.0000000000000000e+00  0.0000000000000000e+00 0.0000000000000000e+00 0.0000000000000000e+00  0.0000000000000000e+00 0.0000000000000000e+00 0.0000000000000000e+00  0.0000000000000000e+00 0.0000000000000000e+00 0.0000000000000000e+00  0.0000000000000000e+00 0.0000000000000000e+00 0.0000000000000000e+00  0.0000000000000000e+00 0.0000000000000000e+00 0.0000000000000000e+00  0.0000000000000000e+00 0.0000000000000000e+00 0.0000000000000000e+00  0.0000000000000000e+00 0.0000000000000000e+00 0.0000000000000000e+00  0.0000000000000000e+00 0.0000000000000000e+00 0.0000000000000000e+00  0.0000000000000000e+00 0.0000000000000000e+00 0.0000000000000000e+00  0.0000000000000000e+00 0.0000000000000000e+00 0.0000000000000000e+00  0.0000000000000000e+00 0.0000000000000000e+00 0.0000000000000000e+00  0.0000000000000000e+00 0.0000000000000000e+00 0.0000000000000000e+00  0.0000000000000000e+00 0.0000000000000000e+00 0.0000000000000000e+00  0.0000000000000000e+00 0.0000000000000000e+00 0.0000000000000000e+00  0.0000000000000000e+00 0.0000000000000000e+00 0.0000000000000000e+00  0.0000000000000000e+00 0.0000000000000000e+00 0.0000000000000000e+00  0.0000000000000000e+00 0.0000000000000000e+00 0.0000000000000000e+00  0.0000000000000000e+00 0.0000000000000000e+00 0.0000000000000000e+00  0.0000000000000000e+00 0.0000000000000000e+00 0.0000000000000000e+00  0.0000000000000000e+00 0.0000000000000000e+00 0.0000000000000000e+00  0.0000000000000000e+00 0.0000000000000000e+00 0.0000000000000000e+00  0.0000000000000000e+00 0.0000000000000000e+00 0.0000000000000000e+00  0.0000000000000000e+00 0.0000000000000000e+00 0.0000000000000000e+00  0.0000000000000000e+00 0.0000000000000000e+00 0.0000000000000000e+00  0.0000000000000000e+00 0.0000000000000000e+00 0.0000000000000000e+00  0.0000000000000000e+00 0.0000000000000000e+00 0.0000000000000000e+00  0.0000000000000000e+00 0.0000000000000000e+00 0.0000000000000000e+00  0.0000000000000000e+00 0.0000000000000000e+00 0.0000000000000000e+00  0.0000000000000000e+00 0.0000000000000000e+00 0.0000000000000000e+00  0.0000000000000000e+00 0.0000000000000000e+00 0.0000000000000000e+00  0.0000000000000000e+00 0.0000000000000000e+00 0.0000000000000000e+00  0.0000000000000000e+00 0.0000000000000000e+00 0.0000000000000000e+00  0.0000000000000000e+00 0.0000000000000000e+00 0.0000000000000000e+00  0.0000000000000000e+00 0.0000000000000000e+00 0.0000000000000000e+00  0.0000000000000000e+00 0.0000000000000000e+00 0.0000000000000000e+00  0.0000000000000000e+00 0.0000000000000000e+00 0.0000000000000000e+00  0.0000000000000000e+00 0.0000000000000000e+00 0.0000000000000000e+00  0.0000000000000000e+00 0.0000000000000000e+00 0.0000000000000000e+00  0.0000000000000000e+00 0.0000000000000000e+00 0.0000000000000000e+00  0.0000000000000000e+00 0.0000000000000000e+00 0.0000000000000000e+00  0.0000000000000000e+00 0.0000000000000000e+00 0.0000000000000000e+00  0.0000000000000000e+00 0.0000000000000000e+00 0.0000000000000000e+00  0.0000000000000000e+00 0.0000000000000000e+00 0.0000000000000000e+00  0.0000000000000000e+00 0.0000000000000000e+00 0.0000000000000000e+00  0.0000000000000000e+00 0.0000000000000000e+00 0.0000000000000000e+00  0.0000000000000000e+00 0.0000000000000000e+00 0.0000000000000000e+00  0.0000000000000000e+00 0.0000000000000000e+00 0.0000000000000000e+00  0.0000000000000000e+00 0.0000000000000000e+00 0.0000000000000000e+00  0.0000000000000000e+00 0.0000000000000000e+00 0.0000000000000000e+00  0.0000000000000000e+00 0.0000000000000000e+00 0.0000000000000000e+00  0.0000000000000000e+00 0.0000000000000000e+00 0.0000000000000000e+00  0.0000000000000000e+00 0.0000000000000000e+00 0.0000000000000000e+00  0.0000000000000000e+00 0.0000000000000000e+00 0.0000000000000000e+00  0.0000000000000000e+00 0.0000000000000000e+00 0.0000000000000000e+00  0.0000000000000000e+00 0.0000000000000000e+00 0.0000000000000000e+00  0.0000000000000000e+00 0.0000000000000000e+00 0.0000000000000000e+00  0.0000000000000000e+00 0.0000000000000000e+00 0.0000000000000000e+00  0.0000000000000000e+00 0.0000000000000000e+00 0.0000000000000000e+00  0.0000000000000000e+00 0.0000000000000000e+00 0.0000000000000000e+00  0.0000000000000000e+00 0.0000000000000000e+00 0.0000000000000000e+00  0.0000000000000000e+00 0.0000000000000000e+00 0.0000000000000000e+00  0.0000000000000000e+00 0.0000000000000000e+00 0.0000000000000000e+00  0.0000000000000000e+00 0.0000000000000000e+00 0.0000000000000000e+00  0.0000000000000000e+00 0.0000000000000000e+00 0.0000000000000000e+00  0.0000000000000000e+00 0.0000000000000000e+00 0.0000000000000000e+00  0.0000000000000000e+00 0.0000000000000000e+00 0.0000000000000000e+00  0.0000000000000000e+00 0.0000000000000000e+00 0.0000000000000000e+00  0.0000000000000000e+00 0.0000000000000000e+00 0.0000000000000000e+00  0.0000000000000000e+00 0.0000000000000000e+00 0.0000000000000000e+00  0.0000000000000000e+00 0.0000000000000000e+00 0.0000000000000000e+00  0.0000000000000000e+00 0.0000000000000000e+00 0.0000000000000000e+00  0.0000000000000000e+00 0.0000000000000000e+00 0.0000000000000000e+00  0.0000000000000000e+00 0.0000000000000000e+00 0.0000000000000000e+00  0.0000000000000000e+00 0.0000000000000000e+00 0.0000000000000000e+00  0.0000000000000000e+00 0.0000000000000000e+00 0.0000000000000000e+00  0.0000000000000000e+00 0.0000000000000000e+00 0.0000000000000000e+00  0.0000000000000000e+00 0.0000000000000000e+00 0.0000000000000000e+00  0.0000000000000000e+00 0.0000000000000000e+00 0.0000000000000000e+00  0.0000000000000000e+00 0.0000000000000000e+00 0.0000000000000000e+00  0.0000000000000000e+00 0.0000000000000000e+00 0.0000000000000000e+00  0.0000000000000000e+00 0.0000000000000000e+00 0.0000000000000000e+00  0.0000000000000000e+00 0.0000000000000000e+00 0.0000000000000000e+00  0.0000000000000000e+00 0.0000000000000000e+00 0.0000000000000000e+00  0.0000000000000000e+00 0.0000000000000000e+00 0.0000000000000000e+00  0.0000000000000000e+00 0.0000000000000000e+00 0.0000000000000000e+00  0.0000000000000000e+00 0.0000000000000000e+00 0.0000000000000000e+00  0.0000000000000000e+00 0.0000000000000000e+00 0.0000000000000000e+00  0.0000000000000000e+00 0.0000000000000000e+00 0.0000000000000000e+00  0.0000000000000000e+00 0.0000000000000000e+00 0.0000000000000000e+00  0.0000000000000000e+00 0.0000000000000000e+00 0.0000000000000000e+00  0.0000000000000000e+00 0.0000000000000000e+00 0.0000000000000000e+00  0.0000000000000000e+00 0.0000000000000000e+00 0.0000000000000000e+00  0.0000000000000000e+00 0.0000000000000000e+00 0.0000000000000000e+00  0.0000000000000000e+00 0.0000000000000000e+00 0.0000000000000000e+00  0.0000000000000000e+00 0.0000000000000000e+00 0.0000000000000000e+00  0.0000000000000000e+00 0.0000000000000000e+00 0.0000000000000000e+00  0.0000000000000000e+00 0.0000000000000000e+00 0.0000000000000000e+00  -2.3992106240228557e-06 -2.8052726113626780e-07 0.0000000000000000e+00  -4.7536474286469623e-06 1.8703418495350743e-06 0.0000000000000000e+00  -6.5706418413457409e-06 5.1110138818006711e-06 0.0000000000000000e+00  -8.1931961847533616e-06 9.4422702953287408e-06 0.0000000000000000e+00  -9.3948491647937879e-06 1.4322442461137020e-05 0.0000000000000000e+00  -1.0446933033475208e-05 1.9764187874780050e-05 0.0000000000000000e+00  -1.1205766583181089e-05 2.5463644959562245e-05 0.0000000000000000e+00  -1.1758883902319406e-05 3.1379379733057131e-05 0.0000000000000000e+00  -1.2140125186890143e-05 3.7339965724150174e-05 0.0000000000000000e+00  -1.2342009401958683e-05 4.3183867672959811e-05 0.0000000000000000e+00  -1.2307098138437976e-05 4.8857965565817212e-05 0.0000000000000000e+00  -1.2220189219264640e-05 5.4166296982032854e-05 0.0000000000000000e+00  -1.1863621170373479e-05 5.9072825612383045e-05 0.0000000000000000e+00  -1.1531274319021036e-05 6.3538467798416188e-05 0.0000000000000000e+00  -1.1085068668991817e-05 6.7358892807995382e-05 0.0000000000000000e+00  -1.0401516458417637e-05 7.0614688920706396e-05 0.0000000000000000e+00  -9.8506903602131984e-06 7.3176333422630060e-05 0.0000000000000000e+00  -9.0042878765748719e-06 7.5032567332996861e-05 0.0000000000000000e+00  -8.3738388929834190e-06 7.6122564610419115e-05 0.0000000000000000e+00  -7.4778754768045428e-06 7.6494166428029225e-05 0.0000000000000000e+00  -6.7674226498537991e-06 7.6056317547106602e-05 0.0000000000000000e+00  -5.8705920435802440e-06 7.4825593273495085e-05 0.0000000000000000e+00  -5.1862575959608710e-06 7.2957802376517130e-05 0.0000000000000000e+00  -4.5061641449689495e-06 7.0236295693491620e-05 0.0000000000000000e+00  -3.6952240898098311e-06 6.6915206813146855e-05 0.0000000000000000e+00  -3.0569180754014237e-06 6.2847191238698112e-05 0.0000000000000000e+00  -2.4058606147895475e-06 5.8125218705488232e-05 0.0000000000000000e+00  -1.8734767263538647e-06 5.2814250364538271e-05 0.0000000000000000e+00  -1.3494558041144817e-06 4.6897146571096889e-05 0.0000000000000000e+00  -9.4835596803381190e-07 4.0480138718572333e-05 0.0000000000000000e+00  -5.7236034027259102e-07 3.3533255155508530e-05 0.0000000000000000e+00  -3.1967245816305948e-07 2.6175478822478059e-05 0.0000000000000000e+00  -1.0711991701482981e-07 1.8370054148997225e-05 0.0000000000000000e+00  -1.3132813023251141e-08 1.0243245251992688e-05 0.0000000000000000e+00  2.6282923866784217e-08 1.7500697609652709e-06 0.0000000000000000e+00  -4.9762335436496516e-08 -6.9766377685297793e-06 0.0000000000000000e+00  -1.8802762314964248e-07 -1.5989132565169717e-05 0.0000000000000000e+00  -4.3539541973535785e-07 -2.5156680272757380e-05 0.0000000000000000e+00  -7.5197605832736090e-07 -3.4538235575867326e-05 0.0000000000000000e+00  -1.1743199685057216e-06 -4.4004030935787502e-05 0.0000000000000000e+00  -1.6760512190229968e-06 -5.3615220877866135e-05 0.0000000000000000e+00  -2.2682829578789867e-06 -6.3269816075909547e-05 0.0000000000000000e+00  -2.9510753261913969e-06 -7.2994112792941206e-05 0.0000000000000000e+00  -3.6794130648912627e-06 -8.2742232703676913e-05 0.0000000000000000e+00  -4.5125058775671585e-06 -9.2483096282550375e-05 0.0000000000000000e+00  -5.3840784508427734e-06 -1.0228525354689323e-04 0.0000000000000000e+00  -1.3194894710232915e-05 -1.1132518631160876e-04 0.0000000000000000e+00  -2.6397005099421250e-05 -1.0935163654378741e-04 0.0000000000000000e+00  -3.1793066059209899e-05 -9.8646017408392087e-05 0.0000000000000000e+00  -3.0865627560390613e-05 -8.8715956601087900e-05 0.0000000000000000e+00  -2.9965255586914553e-05 -7.8767103329013097e-05 0.0000000000000000e+00  -2.9112410032576562e-05 -6.8877299062439131e-05 0.0000000000000000e+00  -2.8290581365536754e-05 -5.9023528672301317e-05 0.0000000000000000e+00  -2.7508635727873476e-05 -4.9242965376839991e-05 0.0000000000000000e+00  -2.6717228640084603e-05 -3.9546738143613328e-05 0.0000000000000000e+00  -2.5979699099214940e-05 -2.9947978759501222e-05 0.0000000000000000e+00  -2.5200437555555112e-05 -2.0512797243174489e-05 0.0000000000000000e+00  -2.4479635164821703e-05 -1.1232724190519412e-05 0.0000000000000000e+00  -2.3679985166620155e-05 -2.1779108491202039e-06 0.0000000000000000e+00  -2.2949304917839950e-05 6.6429227052455702e-06 0.0000000000000000e+00  -2.2101053738055927e-05 1.5166176948171193e-05 0.0000000000000000e+00  -2.1338882155609247e-05 2.3368814673109762e-05 0.0000000000000000e+00  -2.0422371069840137e-05 3.1194335343872970e-05 0.0000000000000000e+00  -1.9614562320996762e-05 3.8610347203549018e-05 0.0000000000000000e+00  -1.8617475994537715e-05 4.5567283413461847e-05 0.0000000000000000e+00  -1.7752803398394044e-05 5.2025206425945006e-05 0.0000000000000000e+00  -1.6665274387994907e-05 5.7943258553794034e-05 0.0000000000000000e+00  -1.5736732570419450e-05 6.3278805254269840e-05 0.0000000000000000e+00  -1.4553672467537012e-05 6.7993019808306021e-05 0.0000000000000000e+00  -1.3555252366968560e-05 7.2042838471469758e-05 0.0000000000000000e+00  -1.2305305094686436e-05 7.5394065408376757e-05 0.0000000000000000e+00  -1.1210312784793052e-05 7.8089663082526052e-05 0.0000000000000000e+00  -1.0100202884543953e-05 7.9931441200965103e-05 0.0000000000000000e+00  -8.7993039256354792e-06 8.1159624718345780e-05 0.0000000000000000e+00  -7.6221279730882049e-06 8.1539957258380181e-05 0.0000000000000000e+00  -6.3543187899529796e-06 8.1175343234040698e-05 0.0000000000000000e+00  -5.1794046458078633e-06 8.0036531377582836e-05 0.0000000000000000e+00  -3.9568748057173659e-06 7.8148153617006686e-05 0.0000000000000000e+00  -2.8350359561255933e-06 7.5568360085510121e-05 0.0000000000000000e+00  -1.6518174395767361e-06 7.2233883188923008e-05 0.0000000000000000e+00  -6.6653901299310860e-07 6.8376896832447970e-05 0.0000000000000000e+00  2.4698032219763694e-07 6.3863459007112790e-05 0.0000000000000000e+00  1.1958304474997029e-06 5.8932792792802168e-05 0.0000000000000000e+00  1.9640411490827533e-06 5.3558783042558255e-05 0.0000000000000000e+00  2.6451876336724260e-06 4.7834938876367049e-05 0.0000000000000000e+00  3.1764458150325664e-06 4.1937997147718388e-05 0.0000000000000000e+00  3.5404740845084140e-06 3.5922372539524104e-05 0.0000000000000000e+00  3.7753231278473690e-06 2.9954458662147330e-05 0.0000000000000000e+00  3.8527651710945489e-06 2.4203982466111035e-05 0.0000000000000000e+00  3.6775328948344279e-06 1.8698314610709700e-05 0.0000000000000000e+00  3.3516397739173498e-06 1.3773270562457064e-05 0.0000000000000000e+00  2.6973038573941015e-06 9.4869097690498648e-06 0.0000000000000000e+00  2.0212131621397726e-06 6.0893548430652015e-06 0.0000000000000000e+00  1.0008977345947506e-06 3.5926859611354970e-06 0.0000000000000000e+00  -1.4579195616322224e-06 2.0102594643145304e-06 0.0000000000000000e+00  -1.8153466560120101e-05 -9.5517171420256733e-05 0.0000000000000000e+00  -1.6298520193971332e-05 -7.6700771840736731e-05 0.0000000000000000e+00  -1.4165717498168403e-05 -4.6200436634247494e-05 0.0000000000000000e+00  -2.1700492652978442e-06 8.8255123433871771e-06 0.0000000000000000e+00  -1.3161197932583196e-05 -2.7414189767473778e-05 0.0000000000000000e+00  -2.9544447610446680e-06 1.8470773040220047e-05 0.0000000000000000e+00  -1.2162849507361448e-05 -8.9159579094359106e-06 0.0000000000000000e+00  -4.2098373974002357e-06 3.6931721679871735e-05 0.0000000000000000e+00  -5.0127706646088947e-06 4.8544064323167603e-05 0.0000000000000000e+00  -1.1317034603238367e-05 8.6892107695879749e-06 0.0000000000000000e+00  -6.4662501883307896e-06 7.2116305167097740e-05 0.0000000000000000e+00  -9.9840249374162741e-06 3.9915899102741823e-05 0.0000000000000000e+00  -5.5516820335011531e-06 5.8986113536656714e-05 0.0000000000000000e+00  -7.0063285312240093e-06 7.7146163605126581e-05 0.0000000000000000e+00  -9.4501448235286909e-06 5.2851729181297767e-05 0.0000000000000000e+00  -1.0598510516424623e-05 2.5080212670659993e-05 0.0000000000000000e+00  -7.4649284504194634e-06 7.9415151711859165e-05 0.0000000000000000e+00  -8.9774378224204697e-06 6.3548295677992448e-05 0.0000000000000000e+00  -7.9024016959030623e-06 7.8728413037995972e-05 0.0000000000000000e+00  -8.4871669055719509e-06 7.1521626591219688e-05 0.0000000000000000e+00  -8.2018262530625053e-06 7.6055187496665345e-05 0.0000000000000000e+00  -6.0866011817396218e-06 6.5834463046712159e-05 0.0000000000000000e+00  -1.5463727173572795e-05 -6.1965003804276413e-05 0.0000000000000000e+00  -3.6675341312862004e-06 2.7117702554261913e-05 0.0000000000000000e+00  -2.1795460105846246e-05 -8.5370986326528594e-05 0.0000000000000000e+00  -3.2740217240943113e-07 5.7925711801890818e-06 0.0000000000000000e+00  -1.6201906612702253e-05 -1.7406984158761683e-05 0.0000000000000000e+00  -1.7409317852747363e-05 -3.6262005755912341e-05 0.0000000000000000e+00  -4.7693757350790131e-06 1.2816120165589997e-05 0.0000000000000000e+00  -6.8493233482340684e-06 4.1993646484118533e-05 0.0000000000000000e+00  -1.3118669535790815e-05 3.3408576976367240e-05 0.0000000000000000e+00  -1.5104179789978429e-05 6.9728537357296598e-07 0.0000000000000000e+00  -7.7260061054980196e-06 7.4118653644744285e-05 0.0000000000000000e+00  -1.2178726086504521e-05 4.7338504922960762e-05 0.0000000000000000e+00  -7.3540309646283878e-06 5.3424170929061658e-05 0.0000000000000000e+00  -7.6650189449001906e-06 7.7864060979084126e-05 0.0000000000000000e+00  -1.1245102486661612e-05 5.9195396898514473e-05 0.0000000000000000e+00  -1.4085838886501566e-05 1.7747344383106079e-05 0.0000000000000000e+00  -7.5087893967622247e-06 7.8420186668685661e-05 0.0000000000000000e+00  -1.0311374382557430e-05 6.8648616024913247e-05 0.0000000000000000e+00  -1.2043857044315066e-06 1.2330380404124032e-07 0.0000000000000000e+00  -6.4900271792009437e-07 9.6229441102775498e-07 0.0000000000000000e+00  -1.5914282197902318e-05 -1.0370432686858818e-04 0.0000000000000000e+00  -3.3227198350025017e-06 4.0902484174794893e-06 0.0000