<?xml version="1.0"?>
<VTKFile type="UnstructuredGrid"  version="0.1"  >
<UnstructuredGrid>
<Piece  NumberOfPoints="1419" NumberOfCells="2698">
<Points>
<DataArray  type="Float64"  NumberOfComponents="3"  format="ascii">0 0 0  0 0.41 0  2.5 0 0  2.5 0.41 0  0.6 0.19 0  0.6 0.21 0  0.25 0.2 0  0.15 0.2 0  0.2489897948556636 0.21 0  0.2489897948556636 0.19 0  0.6 0.2 0  0 0.3807142857143437 0  0 0.3514285714286952 0  0 0.3221428571430699 0  0 0.29285714285744 0  0 0.2635714285718054 0  0 0.2342857142861561 0  0 0.2050000000005308 0  0 0.175714285714732 0  0 0.1464285714289574 0  0 0.1171428571431897 0  0 0.08785714285737878 0  0 0.05857142857161107 0  0 0.02928571428580012 0  0.03015443760436003 0 0  0.06140001986583606 0 0  0.09377624077125973 0 0  0.1273239957535082 0 0  0.1620856860351972 0 0  0.1981052433264291 0 0  0.235428184091502 0 0  0.2741016576309132 0 0  0.3141745521465447 0 0  0.3556974926295285 0 0  0.3987229542472677 0 0  0.4433053055141081 0 0  0.4895008759286886 0 0  0.5373680609405097 0 0  0.5869673343216626 0 0  0.6383613676634521 0 0  0.6916151138468254 0 0  0.7467958595648856 0 0  0.8039733463919316 0 0  0.8632198139502143 0 0  0.9246101326867038 0 0  0.9882218810934433 0 0  1.054135445558498 0 0  1.122434100542598 0 0  1.193204177141305 0 0  1.266535089879536 0 0  1.342519516046404 0 0  1.421253448503939 0 0  1.502836389106271 0 0  1.587371439758838 0 0  1.674965418777374 0 0  1.765729001825544 0 0  1.859776908880082 0 0  1.957227977487062 0 0  2.058205329869943 0 0  2.162836591189951 0 0  2.271253957290865 0 0  2.383594446803425 0 0  2.5 0.1024999999997612 0  2.5 0.2049999999994743 0  2.5 0.3074999999997183 0  2.383594446803656 0.41 0  2.271253957291315 0.41 0  2.162836591190598 0.41 0  2.058205329870775 0.41 0  1.957227977488067 0.41 0  1.859776908881246 0.41 0  1.765729001826854 0.41 0  1.674965418778818 0.41 0  1.58737143976041 0.41 0  1.502836389107956 0.41 0  1.421253448505726 0.41 0  1.342519516048286 0.41 0  1.266535089881505 0.41 0  1.193204177143353 0.41 0  1.122434100544716 0.41 0  1.05413544556068 0.41 0  0.9882218810956305 0.41 0  0.9246101326886647 0.41 0  0.8632198139519631 0.41 0  0.8039733463934788 0.41 0  0.7467958595662458 0.41 0  0.6916151138480078 0.41 0  0.6383613676644679 0.41 0  0.5869673343225223 0.41 0  0.5373680609412221 0.41 0  0.4895008759292634 0.41 0  0.4433053055145528 0.41 0  0.3987229542475914 0.41 0  0.3556974926297398 0.41 0  0.3141745521466497 0.41 0  0.2741016576310038 0.41 0  0.2354281840915826 0.41 0  0.1981052433265003 0.41 0  0.1620856860352591 0.41 0  0.1273239957535623 0.41 0  0.09377624077128965 0.41 0  0.06140001986584975 0.41 0  0.03015443760436654 0.41 0  0.2497468076502589 0.2050254481002335 0  0.2497468076502614 0.1949745518997913 0  0.2469965252529372 0.1829317073451959 0  0.2439893735792749 0.1762316384219906 0  0.2400332147834255 0.1700443375285386 0  0.2352133972704371 0.1645032867342007 0  0.2296339016332438 0.1597280261969788 0  0.2234150974217223 0.1558215752574715 0  0.2166911463437691 0.1528682099456123 0  0.2096071079204251 0.1509316448471593 0  0.2023158100364996 0.1500536585536553 0  0.194974551899914 0.1502531923497262 0  0.1877417105387872 0.1515259415822739 0  0.1807733240461124 0.153844448527136 0  0.1742197252835808 0.15715869474974 0  0.1682222986673531 0.1613971801805478 0  0.162910430003803 0.1664684656256651 0  0.1583987151779087 0.1722631454351573 0  0.1547844879126891 0.178656207771761 0  0.1521457199348551 0.1855097315605723 0  0.1505393388476355 0.1926758619366523 0  0.1505393388476328 0.2073241380633295 0  0.1521457199348437 0.2144902684393899 0  0.1547844879126531 0.221343792228163 0  0.1583987151778488 0.2277368545647528 0  0.1629104300036858 0.2335315343742052 0  0.1682222986671726 0.2386028198193036 0  0.1742197252833576 0.2428413052501257 0  0.1807733240458683 0.2461555514727623 0  0.1877417105384929 0.2484740584176516 0  0.1949745518995776 0.2497468076502398 0  0.202315810036185 0.2499463414463592 0  0.2096071079201568 0.2490683551528932 0  0.2166911463435495 0.2471317900544655 0  0.2234150974215506 0.2441784247426195 0  0.2296339016331197 0.2402719738031125 0  0.2352133972703547 0.2354967132658811 0  0.2400332147833751 0.2299556624715287 0  0.2439893735792577 0.2237683615780412 0  0.246996525252926 0.2170682926548348 0  0.25645809709277 0.21 0  0.2639263993298655 0.21 0  0.271394701566961 0.21 0  0.2788630038040554 0.21 0  0.2863313060411479 0.21 0  0.2937996082782405 0.21 0  0.301267910515333 0.21 0  0.3087362127524279 0.21 0  0.3162045149895234 0.21 0  0.3236728172265972 0.21 0  0.3311411194636928 0.21 0  0.3386094217007701 0.21 0  0.3460777239378666 0.21 0  0.3535460261749672 0.21 0  0.3610143284120516 0.21 0  0.3684826306491596 0.21 0  0.3759509328862226 0.21 0  0.383419235123329 0.21 0  0.3908875373604028 0.21 0  0.3983558395975142 0.21 0  0.4058241418345938 0.21 0  0.4132924440716992 0.21 0  0.4207607463087888 0.21 0  0.4282290485459029 0.21 0  0.4356973507830418 0.21 0  0.4431656530201649 0.21 0  0.4506339552573136 0.21 0  0.4581022574944306 0.21 0  0.4655705597315852 0.21 0  0.4730388619686996 0.21 0  0.480507164205851 0.21 0  0.4879754664429498 0.21 0  0.4954437686800938 0.21 0  0.502912070917267 0.21 0  0.5103803731544119 0.21 0  0.5178486753915261 0.21 0  0.5253169776286404 0.21 0  0.5327852798657868 0.21 0  0.5402535821029386 0.21 0  0.54772188434007 0.21 0  0.5551901865771842 0.21 0  0.5626584888143201 0.21 0  0.5701267910514778 0.21 0  0.5775950932886138 0.21 0  0.5850633955257281 0.21 0  0.5925316977628483 0.21 0  0.6 0.2050000000000054 0  0.6 0.1950000000000217 0  0.5925316977628897 0.19 0  0.5850633955257988 0.19 0  0.5775950932887378 0.19 0  0.5701267910515998 0.19 0  0.5626584888145268 0.19 0  0.5551901865773963 0.19 0  0.547721884340339 0.19 0  0.5402535821032429 0.19 0  0.5327852798661811 0.19 0  0.5253169776290537 0.19 0  0.5178486753919799 0.19 0  0.5103803731549078 0.19 0  0.502912070917822 0.19 0  0.4954437686807294 0.19 0  0.4879754664436223 0.19 0  0.4805071642065402 0.19 0  0.4730388619694271 0.19 0  0.4655705597323621 0.19 0  0.4581022574952563 0.19 0  0.4506339552581777 0.19 0  0.4431656530210671 0.19 0  0.4356973507839815 0.19 0  0.4282290485468779 0.19 0  0.4207607463097617 0.19 0  0.4132924440726327 0.19 0  0.4058241418354857 0.19 0  0.3983558395983636 0.19 0  0.3908875373612097 0.19 0  0.3834192351240934 0.19 0  0.3759509328869369 0.19 0  0.3684826306498175 0.19 0  0.361014328412667 0.19 0  0.3535460261755617 0.19 0  0.3460777239384295 0.19 0  0.3386094217012945 0.19 0  0.3311411194641595 0.19 0  0.3236728172270245 0.19 0  0.3162045149898895 0.19 0  0.3087362127527544 0.19 0  0.3012679105156187 0.19 0  0.2937996082784807 0.19 0  0.2863313060413428 0.19 0  0.2788630038042048 0.19 0  0.2713947015670686 0.19 0  0.2639263993299336 0.19 0  0.2564580970927985 0.19 0  0.2607803159922026 0.2000727136295815 0  0.5887803774232762 0.2001272386983733 0  0.5745072403740523 0.2002044435018727 0  0.5511891430099709 0.2001122610077113 0  0.2751288526855082 0.20000000000002 0  0.5365194309847112 0.1999999999999436 0  0.2894621222999649 0.1998691686390484 0  0.5215828265105155 0.1999999999999228 0  0.3127789816668748 0.1998657885438805 0  0.3274069683451451 0.2000000000000796 0  0.5066462220363641 0.199999999999908 0  0.3650630746574081 0.199866017807523 0  0.476773013087985 0.1999999999998713 0  0.3417402379596385 0.1998691686391011 0  0.3796850840047755 0.200000000000134 0  0.4618364086138087 0.1999999999998546 0  0.4917096175621762 0.1999999999998808 0  0.3946216884789568 0.2000000000001512 0  0.446899804139621 0.1999999999998389 0  0.4089549580935208 0.1998691686391595 0  0.4322718174608562 0.200127451265745 0  0.4201487168029707 0.1999966199048527 0  0.3528922713220932 0.2000185703532356 0  0.5633122436674589 0.1999814296467508 0  0.3006558810093873 0.1999966199048318 0  0.5815926498168407 0.1966545283159175 0  0.2677053789419034 0.1964246479135325 0  0.5290511287476175 0.1970915826863981 0  0.5439877332217911 0.197091582686394 0  0.2825131256993216 0.2035478995978015 0  0.3199386661080599 0.202908417313604 0  0.4842413153250809 0.1970915826863873 0  0.5141145242734466 0.1970915826863843 0  0.3722167817676917 0.2029084173136195 0  0.4693047108508938 0.1970915826863783 0  0.3348752705822316 0.202908417313609 0  0.3871533862418661 0.2029084173136212 0  0.4543681063767183 0.1970915826863795 0  0.4991779197992749 0.1970915826863902 0  0.4020059614928624 0.203547899597858 0  0.4394315019025246 0.1970915826863714 0  0.2550657455369551 0.2034088125358657 0  0.2548908499171161 0.1966940311614271 0  0.5946539510196798 0.2024302972968126 0  0.267698176732111 0.2039977513680092 0  0.4261685417851465 0.196409292431739 0  0.3590076176283495 0.196411355804271 0  0.5571672426447437 0.2036011176410121 0  0.3066757059912147 0.1964092924317024 0  0.594380730180568 0.1966558399668133 0  0.4842413153245942 0.2040749161535287 0  0.4693047108503577 0.2040749161535231 0  0.3871533862424271 0.1959250838464788 0  0.372246743208829 0.1959123236376545 0  0.5141145242731028 0.2040749161535395 0  0.4543681063761134 0.2040749161535186 0  0.4019979587101454 0.1959834479682427 0  0.4394608940728603 0.2040870543693135 0  0.5439623148931173 0.2040856076781014 0  0.5290511287473298 0.2040749161535501 0  0.4991779197988497 0.2040749161535382 0  0.3347912413592433 0.1959225448935183 0  0.3199680582793816 0.1959123018030061 0  0.2825051229162361 0.1959834479681729 0  0.3590471196690275 0.2036304442587945 0  0.5571594006495384 0.1963685282145804 0  0.3067669986803285 0.203627750582736 0  0.4262598344738712 0.2036568242185335 0  0.5814408164431408 0.2041285596160068 0  0.5688286748170428 0.1961819304477386 0  0.4145905603063645 0.2038180695522843 0  0.3473758401724931 0.2038180695522752 0  0.2950977245128307 0.2038180695522663 0  0.5688286748170693 0.203818069552238 0  0.2950977245127906 0.1961819304477774 0  0.3473758401723931 0.1961819304478349 0  0.4145905603061963 0.1961819304479011 0  0.2601812407614425 0.2056861609747042
[...]
<PointData  Vectors="f_40-1"> 
<DataArray  type="Float64"  Name="f_40-1"  NumberOfComponents="3" format="ascii">0.0000000000000000e+00 0.0000000000000000e+00 0.0000000000000000e+00  0.0000000000000000e+00 0.0000000000000000e+00 0.0000000000000000e+00  0.0000000000000000e+00 0.0000000000000000e+00 0.0000000000000000e+00  0.0000000000000000e+00 0.0000000000000000e+00 0.0000000000000000e+00  -3.2782621073336117e-05 -7.5552068182083100e-04 0.0000000000000000e+00  3.2477940136222873e-05 -7.5987988469456043e-04 0.0000000000000000e+00  0.0000000000000000e+00 0.0000000000000000e+00 0.0000000000000000e+00  0.0000000000000000e+00 0.0000000000000000e+00 0.0000000000000000e+00  0.0000000000000000e+00 0.0000000000000000e+00 0.0000000000000000e+00  0.0000000000000000e+00 0.0000000000000000e+00 0.0000000000000000e+00  -6.0186470724391022e-07 -7.5768963611607602e-04 0.0000000000000000e+00  0.0000000000000000e+00 0.0000000000000000e+00 0.0000000000000000e+00  0.0000000000000000e+00 0.0000000000000000e+00 0.0000000000000000e+00  0.0000000000000000e+00 0.0000000000000000e+00 0.0000000000000000e+00  0.0000000000000000e+00 0.0000000000000000e+00 0.0000000000000000e+00  0.0000000000000000e+00 0.0000000000000000e+00 0.0000000000000000e+00  0.0000000000000000e+00 0.0000000000000000e+00 0.0000000000000000e+00  0.0000000000000000e+00 0.0000000000000000e+00 0.0000000000000000e+00  0.0000000000000000e+00 0.0000000000000000e+00 0.0000000000000000e+00  0.0000000000000000e+00 0.0000000000000000e+00 0.0000000000000000e+00  0.0000000000000000e+00 0.0000000000000000e+00 0.0000000000000000e+00  0.0000000000000000e+00 0.0000000000000000e+00 0.0000000000000000e+00  0.0000000000000000e+00 0.0000000000000000e+00 0.0000000000000000e+00  0.0000000000000000e+00 0.0000000000000000e+00 0.0000000000000000e+00  0.0000000000000000e+00 0.0000000000000000e+00 0.0000000000000000e+00  0.0000000000000000e+00 0.0000000000000000e+00 0.0000000000000000e+00  0.0000000000000000e+00 0.0000000000000000e+00 0.0000000000000000e+00  0.0000000000000000e+00 0.0000000000000000e+00 0.0000000000000000e+00  0.0000000000000000e+00 0.0000000000000000e+00 0.0000000000000000e+00  0.0000000000000000e+00 0.0000000000000000e+00 0.0000000000000000e+00  0.0000000000000000e+00 0.0000000000000000e+00 0.0000000000000000e+00  0.0000000000000000e+00 0.0000000000000000e+00 0.0000000000000000e+00  0.0000000000000000e+00 0.0000000000000000e+00 0.0000000000000000e+00  0.0000000000000000e+00 0.0000000000000000e+00 0.0000000000000000e+00  0.0000000000000000e+00 0.0000000000000000e+00 0.0000000000000000e+00  0.0000000000000000e+00 0.0000000000000000e+00 0.0000000000000000e+00  0.0000000000000000e+00 0.0000000000000000e+00 0.0000000000000000e+00  0.0000000000000000e+00 0.0000000000000000e+00 0.0000000000000000e+00  0.0000000000000000e+00 0.0000000000000000e+00 0.0000000000000000e+00  0.0000000000000000e+00 0.0000000000000000e+00 0.0000000000000000e+00  0.0000000000000000e+00 0.0000000000000000e+00 0.0000000000000000e+00  0.0000000000000000e+00 0.0000000000000000e+00 0.0000000000000000e+00  0.0000000000000000e+00 0.0000000000000000e+00 0.0000000000000000e+00  0.0000000000000000e+00 0.0000000000000000e+00 0.0000000000000000e+00  0.0000000000000000e+00 0.0000000000000000e+00 0.0000000000000000e+00  0.0000000000000000e+00 0.0000000000000000e+00 0.0000000000000000e+00  0.0000000000000000e+00 0.0000000000000000e+00 0.0000000000000000e+00  0.0000000000000000e+00 0.0000000000000000e+00 0.0000000000000000e+00  0.0000000000000000e+00 0.0000000000000000e+00 0.0000000000000000e+00  0.0000000000000000e+00 0.0000000000000000e+00 0.0000000000000000e+00  0.0000000000000000e+00 0.0000000000000000e+00 0.0000000000000000e+00  0.0000000000000000e+00 0.0000000000000000e+00 0.0000000000000000e+00  0.0000000000000000e+00 0.0000000000000000e+00 0.0000000000000000e+00  0.0000000000000000e+00 0.0000000000000000e+00 0.0000000000000000e+00  0.0000000000000000e+00 0.0000000000000000e+00 0.0000000000000000e+00  0.0000000000000000e+00 0.0000000000000000e+00 0.0000000000000000e+00  0.0000000000000000e+00 0.0000000000000000e+00 0.0000000000000000e+00  0.0000000000000000e+00 0.0000000000000000e+00 0.0000000000000000e+00  0.0000000000000000e+00 0.0000000000000000e+00 0.0000000000000000e+00  0.0000000000000000e+00 0.0000000000000000e+00 0.0000000000000000e+00  0.0000000000000000e+00 0.0000000000000000e+00 0.0000000000000000e+00  0.0000000000000000e+00 0.0000000000000000e+00 0.0000000000000000e+00  0.0000000000000000e+00 0.0000000000000000e+00 0.0000000000000000e+00  0.0000000000000000e+00 0.0000000000000000e+00 0.0000000000000000e+00  0.0000000000000000e+00 0.0000000000000000e+00 0.0000000000000000e+00  0.0000000000000000e+00 0.0000000000000000e+00 0.0000000000000000e+00  0.0000000000000000e+00 0.0000000000000000e+00 0.0000000000000000e+00  0.0000000000000000e+00 0.0000000000000000e+00 0.0000000000000000e+00  0.0000000000000000e+00 0.0000000000000000e+00 0.0000000000000000e+00  0.0000000000000000e+00 0.0000000000000000e+00 0.0000000000000000e+00  0.0000000000000000e+00 0.0000000000000000e+00 0.0000000000000000e+00  0.0000000000000000e+00 0.0000000000000000e+00 0.0000000000000000e+00  0.0000000000000000e+00 0.0000000000000000e+00 0.0000000000000000e+00  0.0000000000000000e+00 0.0000000000000000e+00 0.0000000000000000e+00  0.0000000000000000e+00 0.0000000000000000e+00 0.0000000000000000e+00  0.0000000000000000e+00 0.0000000000000000e+00 0.0000000000000000e+00  0.0000000000000000e+00 0.0000000000000000e+00 0.0000000000000000e+00  0.0000000000000000e+00 0.0000000000000000e+00 0.0000000000000000e+00  0.0000000000000000e+00 0.0000000000000000e+00 0.0000000000000000e+00  0.0000000000000000e+00 0.0000000000000000e+00 0.0000000000000000e+00  0.0000000000000000e+00 0.0000000000000000e+00 0.0000000000000000e+00  0.0000000000000000e+00 0.0000000000000000e+00 0.0000000000000000e+00  0.0000000000000000e+00 0.0000000000000000e+00 0.0000000000000000e+00  0.0000000000000000e+00 0.0000000000000000e+00 0.0000000000000000e+00  0.0000000000000000e+00 0.0000000000000000e+00 0.0000000000000000e+00  0.0000000000000000e+00 0.0000000000000000e+00 0.0000000000000000e+00  0.0000000000000000e+00 0.0000000000000000e+00 0.0000000000000000e+00  0.0000000000000000e+00 0.0000000000000000e+00 0.0000000000000000e+00  0.0000000000000000e+00 0.0000000000000000e+00 0.0000000000000000e+00  0.0000000000000000e+00 0.0000000000000000e+00 0.0000000000000000e+00  0.0000000000000000e+00 0.0000000000000000e+00 0.0000000000000000e+00  0.0000000000000000e+00 0.0000000000000000e+00 0.0000000000000000e+00  0.0000000000000000e+00 0.0000000000000000e+00 0.0000000000000000e+00  0.0000000000000000e+00 0.0000000000000000e+00 0.0000000000000000e+00  0.0000000000000000e+00 0.0000000000000000e+00 0.0000000000000000e+00  0.0000000000000000e+00 0.0000000000000000e+00 0.0000000000000000e+00  0.0000000000000000e+00 0.0000000000000000e+00 0.0000000000000000e+00  0.0000000000000000e+00 0.0000000000000000e+00 0.0000000000000000e+00  0.0000000000000000e+00 0.0000000000000000e+00 0.0000000000000000e+00  0.0000000000000000e+00 0.0000000000000000e+00 0.0000000000000000e+00  0.0000000000000000e+00 0.0000000000000000e+00 0.0000000000000000e+00  0.0000000000000000e+00 0.0000000000000000e+00 0.0000000000000000e+00  0.0000000000000000e+00 0.0000000000000000e+00 0.0000000000000000e+00  0.0000000000000000e+00 0.0000000000000000e+00 0.0000000000000000e+00  0.0000000000000000e+00 0.0000000000000000e+00 0.0000000000000000e+00  0.0000000000000000e+00 0.0000000000000000e+00 0.0000000000000000e+00  0.0000000000000000e+00 0.0000000000000000e+00 0.0000000000000000e+00  0.0000000000000000e+00 0.0000000000000000e+00 0.0000000000000000e+00  0.0000000000000000e+00 0.0000000000000000e+00 0.0000000000000000e+00  0.0000000000000000e+00 0.0000000000000000e+00 0.0000000000000000e+00  0.0000000000000000e+00 0.0000000000000000e+00 0.0000000000000000e+00  0.0000000000000000e+00 0.0000000000000000e+00 0.0000000000000000e+00  0.0000000000000000e+00 0.0000000000000000e+00 0.0000000000000000e+00  0.0000000000000000e+00 0.0000000000000000e+00 0.0000000000000000e+00  0.0000000000000000e+00 0.0000000000000000e+00 0.0000000000000000e+00  0.0000000000000000e+00 0.0000000000000000e+00 0.0000000000000000e+00  0.0000000000000000e+00 0.0000000000000000e+00 0.0000000000000000e+00  0.0000000000000000e+00 0.0000000000000000e+00 0.0000000000000000e+00  0.0000000000000000e+00 0.0000000000000000e+00 0.0000000000000000e+00  0.0000000000000000e+00 0.0000000000000000e+00 0.0000000000000000e+00  0.0000000000000000e+00 0.0000000000000000e+00 0.0000000000000000e+00  0.0000000000000000e+00 0.0000000000000000e+00 0.0000000000000000e+00  0.0000000000000000e+00 0.0000000000000000e+00 0.0000000000000000e+00  0.0000000000000000e+00 0.0000000000000000e+00 0.0000000000000000e+00  0.0000000000000000e+00 0.0000000000000000e+00 0.0000000000000000e+00  0.0000000000000000e+00 0.0000000000000000e+00 0.0000000000000000e+00  0.0000000000000000e+00 0.0000000000000000e+00 0.0000000000000000e+00  0.0000000000000000e+00 0.0000000000000000e+00 0.0000000000000000e+00  0.0000000000000000e+00 0.0000000000000000e+00 0.0000000000000000e+00  0.0000000000000000e+00 0.0000000000000000e+00 0.0000000000000000e+00  0.0000000000000000e+00 0.0000000000000000e+00 0.0000000000000000e+00  0.0000000000000000e+00 0.0000000000000000e+00 0.0000000000000000e+00  0.0000000000000000e+00 0.0000000000000000e+00 0.0000000000000000e+00  0.0000000000000000e+00 0.0000000000000000e+00 0.0000000000000000e+00  0.0000000000000000e+00 0.0000000000000000e+00 0.0000000000000000e+00  0.0000000000000000e+00 0.0000000000000000e+00 0.0000000000000000e+00  0.0000000000000000e+00 0.0000000000000000e+00 0.0000000000000000e+00  0.0000000000000000e+00 0.0000000000000000e+00 0.0000000000000000e+00  0.0000000000000000e+00 0.0000000000000000e+00 0.0000000000000000e+00  0.0000000000000000e+00 0.0000000000000000e+00 0.0000000000000000e+00  0.0000000000000000e+00 0.0000000000000000e+00 0.0000000000000000e+00  0.0000000000000000e+00 0.0000000000000000e+00 0.0000000000000000e+00  0.0000000000000000e+00 0.0000000000000000e+00 0.0000000000000000e+00  4.8329782638263966e-07 -3.3971363417215938e-06 0.0000000000000000e+00  1.2799641067963504e-06 -4.2015565397107925e-06 0.0000000000000000e+00  2.2817931968982024e-06 -5.4956623940767314e-06 0.0000000000000000e+00  3.5809550894061423e-06 -7.3831538828905095e-06 0.0000000000000000e+00  4.8552489113203671e-06 -1.0038092191949349e-05 0.0000000000000000e+00  6.4093516345467256e-06 -1.3554507725689082e-05 0.0000000000000000e+00  7.8028898342307263e-06 -1.7788721852005714e-05 0.0000000000000000e+00  9.2708194089627109e-06 -2.3032537540110462e-05 0.0000000000000000e+00  1.1018686860352683e-05 -2.9103886748639082e-05 0.0000000000000000e+00  1.2511474521915108e-05 -3.6121803096526308e-05 0.0000000000000000e+00  1.4367325702014510e-05 -4.4097459659187694e-05 0.0000000000000000e+00  1.5904936212968419e-05 -5.3056783154739797e-05 0.0000000000000000e+00  1.7751802818827933e-05 -6.2989959261890166e-05 0.0000000000000000e+00  1.9327485498471280e-05 -7.3762700760387749e-05 0.0000000000000000e+00  2.0912454471474921e-05 -8.5618200809387042e-05 0.0000000000000000e+00  2.2713253808450223e-05 -9.8322759454464307e-05 0.0000000000000000e+00  2.4182640190227544e-05 -1.1193962085272665e-04 0.0000000000000000e+00  2.5913460172620594e-05 -1.2646844971999187e-04 0.0000000000000000e+00  2.7284525978504744e-05 -1.4184269175607092e-04 0.0000000000000000e+00  2.8862826284038792e-05 -1.5803012657906562e-04 0.0000000000000000e+00  3.0160960824435977e-05 -1.7501476209034984e-04 0.0000000000000000e+00  3.1560412687456314e-05 -1.9278661858586880e-04 0.0000000000000000e+00  3.2701229085136302e-05 -2.1114401388958327e-04 0.0000000000000000e+00  3.3770994606552246e-05 -2.3026159831458990e-04 0.0000000000000000e+00  3.4904501524325755e-05 -2.4990354159772543e-04 0.0000000000000000e+00  3.5820699385680384e-05 -2.7014571947489173e-04 0.0000000000000000e+00  3.6690120737193182e-05 -2.9094187156285592e-04 0.0000000000000000e+00  3.7410505768030182e-05 -3.1216279669480550e-04 0.0000000000000000e+00  3.8069877261574287e-05 -3.3387123500017298e-04 0.0000000000000000e+00  3.8585737886664968e-05 -3.5591631199670176e-04 0.0000000000000000e+00  3.9030784235642806e-05 -3.7836738429659704e-04 0.0000000000000000e+00  3.9338084911357976e-05 -4.0107320205323542e-04 0.0000000000000000e+00  3.9568977314756275e-05 -4.2410926016376758e-04 0.0000000000000000e+00  3.9669425205248665e-05 -4.4732410936687003e-04 0.0000000000000000e+00  3.9684526344135352e-05 -4.7080588995395230e-04 0.0000000000000000e+00  3.9580196489637011e-05 -4.9440386315932551e-04 0.0000000000000000e+00  3.9390650303918788e-05 -5.1820523639923102e-04 0.0000000000000000e+00  3.9089919277235691e-05 -5.4207127681799028e-04 0.0000000000000000e+00  3.8701076945225196e-05 -5.6609159212395958e-04 0.0000000000000000e+00  3.8205807944914731e-05 -5.9013520052450953e-04 0.0000000000000000e+00  3.7614151587211062e-05 -6.1428004864709073e-04 0.0000000000000000e+00  3.6938297043937513e-05 -6.3844104338173864e-04 0.0000000000000000e+00  3.6161293727321648e-05 -6.6264837523123850e-04 0.0000000000000000e+00  3.5332414381611462e-05 -6.8687178371291762e-04 0.0000000000000000e+00  3.4395369879713919e-05 -7.1108064414261718e-04 0.0000000000000000e+00  3.3410881033498890e-05 -7.3535540796389296e-04 0.0000000000000000e+00  1.5776113512654391e-05 -7.5878350601929934e-04 0.0000000000000000e+00  -1.6832500526383853e-05 -7.5660449817014546e-04 0.0000000000000000e+00  -3.1816528344730591e-05 -7.3129910904838819e-04 0.0000000000000000e+00  -3.0783125345410971e-05 -7.0686446677230687e-04 0.0000000000000000e+00  -2.9794119743646242e-05 -6.8240246011848750e-04 0.0000000000000000e+00  -2.8879953568591753e-05 -6.5799338439751572e-04 0.0000000000000000e+00  -2.8013860045766972e-05 -6.3360674867989227e-04 0.0000000000000000e+00  -2.7223645726745766e-05 -6.0926424484611180e-04 0.0000000000000000e+00  -2.6460252606556831e-05 -5.8497741360907546e-04 0.0000000000000000e+00  -2.5778342504218217e-05 -5.6073110463907645e-04 0.0000000000000000e+00  -2.5111775263380616e-05 -5.3660436052925889e-04 0.0000000000000000e+00  -2.4522174104560619e-05 -5.1254170874349481e-04 0.0000000000000000e+00  -2.3922613598154734e-05 -4.8863964395954153e-04 0.0000000000000000e+00  -2.3406499871913626e-05 -4.6485475827730011e-04 0.0000000000000000e+00  -2.2851907411255289e-05 -4.4128297404959601e-04 0.0000000000000000e+00  -2.2388626487381401e-05 -4.1789270579927455e-04 0.0000000000000000e+00  -2.1854264239423976e-05 -3.9477431193124345e-04 0.0000000000000000e+00  -2.1425855885180964e-05 -3.7191007408524514e-04 0.0000000000000000e+00  -2.0892385900495060e-05 -3.4938624402805973e-04 0.0000000000000000e+00  -2.0481033077275334e-05 -3.2719838874593167e-04 0.0000000000000000e+00  -1.9926866449252666e-05 -3.0542930729821380e-04 0.0000000000000000e+00  -1.9513384061899895e-05 -2.8408453530650717e-04 0.0000000000000000e+00  -1.8914478535098678e-05 -2.6324250427847148e-04 0.0000000000000000e+00  -1.8477293998077293e-05 -2.4292175082566168e-04 0.0000000000000000e+00  -1.7836879109732991e-05 -2.2319413887993909e-04 0.0000000000000000e+00  -1.7327329323781517e-05 -2.0402953736447716e-04 0.0000000000000000e+00  -1.6805978963443753e-05 -1.8563606421651769e-04 0.0000000000000000e+00  -1.6089325645643563e-05 -1.6781370626091387e-04 0.0000000000000000e+00  -1.5471934034664562e-05 -1.5082165869153769e-04 0.0000000000000000e+00  -1.4730706375010874e-05 -1.3459162710638319e-04 0.0000000000000000e+00  -1.4049467720005865e-05 -1.1921356368520084e-04 0.0000000000000000e+00  -1.3257333454785426e-05 -1.0468816899248332e-04 0.0000000000000000e+00  -1.2524769381596804e-05 -9.1036633899108145e-05 0.0000000000000000e+00  -1.1598223302768261e-05 -7.8404183572027727e-05 0.0000000000000000e+00  -1.0873328885405332e-05 -6.6555589542765736e-05 0.0000000000000000e+00  -1.0144135778051184e-05 -5.5819324732547447e-05 0.0000000000000000e+00  -9.1866715969806883e-06 -4.5858813626549557e-05 0.0000000000000000e+00  -8.3725200054559472e-06 -3.6972000715224623e-05 0.0000000000000000e+00  -7.4655844624831221e-06 -2.9030300043343474e-05 0.0000000000000000e+00  -6.6630956865187598e-06 -2.2020951480204720e-05 0.0000000000000000e+00  -5.7123886737350531e-06 -1.6050056102226574e-05 0.0000000000000000e+00  -4.9930413405691019e-06 -1.0837724862013984e-05 0.0000000000000000e+00  -4.3132546538014291e-06 -6.6515843501040675e-06 0.0000000000000000e+00  -3.4694272153546467e-06 -3.1565141100416214e-06 0.0000000000000000e+00  -2.8311471687827905e-06 -5.0124073924659537e-07 0.0000000000000000e+00  -2.0891635467312668e-06 1.3746085587414512e-06 0.0000000000000000e+00  -1.4771313837480953e-06 2.4943318126590028e-06 0.0000000000000000e+00  -6.8793687050013032e-07 2.8012384923122839e-06 0.0000000000000000e+00  -6.7754259038289382e-07 -1.6736838734182784e-07 0.0000000000000000e+00  1.5351310038712524e-06 -7.2110615399758867e-04 0.0000000000000000e+00  3.7267701546789240e-06 -6.7460465099711665e-04 0.0000000000000000e+00  5.8553878891687826e-06 -5.9877860572263959e-04 0.0000000000000000e+00  2.1349889827268156e-07 -2.4488962226671609e-06 0.0000000000000000e+00  6.6458798765552568e-06 -5.5129910710604744e-04 0.0000000000000000e+00  7.8844071563033189e-07 -7.3722744301877257e-06 0.0000000000000000e+00  7.5548563262671919e-06 -5.0333675146596504e-04 0.0000000000000000e+00  1.8649694090948374e-06 -2.2033495955919217e-05 0.0000000000000000e+00  2.7518145810930893e-06 -3.5828853657478226e-05 0.0000000000000000e+00  8.1993438260781523e-06 -4.5591325774889586e-04 0.0000000000000000e+00  4.6317089273380931e-06 -8.8107496088620800e-05 0.0000000000000000e+00  8.7565120936492699e-06 -3.6363185684288213e-04 0.0000000000000000e+00  3.3736548692264628e-06 -5.2816479222633578e-05 0.0000000000000000e+00  5.6725290603784555e-06 -1.1490782912377204e-04 0.0000000000000000e+00  8.7045052409263701e-06 -3.1933950494959968e-04 0.0000000000000000e+00  8.5945656727425335e-06 -4.0925640768250043e-04 0.0000000000000000e+00  6.4588222829375478e-06 -1.4569515373969992e-04 0.0000000000000000e+00  8.4573038952847968e-06 -2.7671294201720564e-04 0.0000000000000000e+00  6.8393743897259177e-06 -1.7824154662934757e-04 0.0000000000000000e+00  8.3954462437683896e-06 -2.3696108033566094e-04 0.0000000000000000e+00  7.6016615552586957e-06 -2.0573190611557302e-04 0.0000000000000000e+00  4.1975054409446563e-06 -6.8735902974759023e-05 0.0000000000000000e+00  4.2287838562732960e-06 -6.3812475172038831e-04 0.0000000000000000e+00  1.3672319960498028e-06 -1.3519674529825525e-05 0.0000000000000000e+00  -8.7511739601541326e-06 -6.9693600532020792e-04 0.0000000000000000e+00  -8.2919629693204662e-07 2.4988023357926281e-07 0.0000000000000000e+00  -2.1769003913183447e-06 -5.2646536934334285e-04 0.0000000000000000e+00  -3.2963774495980291e-06 -5.7466516979200156e-04 0.0000000000000000e+00  1.8354035666949194e-06 -5.9492570687244584e-06 0.0000000000000000e+00  5.1086864710622083e-06 -2.9463967592283578e-05 0.0000000000000000e+00  -1.3557581450151395e-07 -3.8539771296022894e-04 0.0000000000000000e+00  -1.2906117340827407e-06 -4.7870867352809267e-04 0.0000000000000000e+00  1.0558365300276049e-05 -1.0194341918903557e-04 0.0000000000000000e+00  1.8074451398551238e-07 -3.4037382131051411e-04 0.0000000000000000e+00  6.6198622990013854e-06 -4.5385042434594914e-05 0.0000000000000000e+00  1.2025583080551792e-05 -1.3100988253769483e-04 0.0000000000000000e+00  3.5552979281821164e-07 -2.9684968406746502e-04 0.0000000000000000e+00  -6.1824606390653710e-07 -4.3160319543750794e-04 0.0000000000000000e+00  1.4832932543276100e-05 -1.6349490588656043e-04 0.0000000000000000e+00  4.0858771429984564e-07 -2.5517022390713349e-04 0.0000000000000000e+00  -5.8225423284580286e-07 -6.8356496364956772e-07 0.0000000000000000e+00  -7.8370944458552928e-07 7.4290319707039931e-07 0.0000000000000000e+00  8.1551647162386098e-06 -7.4073669386389384e-04 0.0000000000000000e+00  5.7482867682175042e-07 