<?xml version="1.0"?>
<VTKFile type="UnstructuredGrid"  version="0.1"  >
<UnstructuredGrid>
<Piece  NumberOfPoints="1419" NumberOfCells="2698">
<Points>
<DataArray  type="Float64"  NumberOfComponents="3"  format="ascii">0 0 0  0 0.41 0  2.5 0 0  2.5 0.41 0  0.6 0.19 0  0.6 0.21 0  0.25 0.2 0  0.15 0.2 0  0.2489897948556636 0.21 0  0.2489897948556636 0.19 0  0.6 0.2 0  0 0.3807142857143437 0  0 0.3514285714286952 0  0 0.3221428571430699 0  0 0.29285714285744 0  0 0.2635714285718054 0  0 0.2342857142861561 0  0 0.2050000000005308 0  0 0.175714285714732 0  0 0.1464285714289574 0  0 0.1171428571431897 0  0 0.08785714285737878 0  0 0.05857142857161107 0  0 0.02928571428580012 0  0.03015443760436003 0 0  0.06140001986583606 0 0  0.09377624077125973 0 0  0.1273239957535082 0 0  0.1620856860351972 0 0  0.1981052433264291 0 0  0.235428184091502 0 0  0.2741016576309132 0 0  0.3141745521465447 0 0  0.3556974926295285 0 0  0.3987229542472677 0 0  0.4433053055141081 0 0  0.4895008759286886 0 0  0.5373680609405097 0 0  0.5869673343216626 0 0  0.6383613676634521 0 0  0.6916151138468254 0 0  0.7467958595648856 0 0  0.8039733463919316 0 0  0.8632198139502143 0 0  0.9246101326867038 0 0  0.9882218810934433 0 0  1.054135445558498 0 0  1.122434100542598 0 0  1.193204177141305 0 0  1.266535089879536 0 0  1.342519516046404 0 0  1.421253448503939 0 0  1.502836389106271 0 0  1.587371439758838 0 0  1.674965418777374 0 0  1.765729001825544 0 0  1.859776908880082 0 0  1.957227977487062 0 0  2.058205329869943 0 0  2.162836591189951 0 0  2.271253957290865 0 0  2.383594446803425 0 0  2.5 0.1024999999997612 0  2.5 0.2049999999994743 0  2.5 0.3074999999997183 0  2.383594446803656 0.41 0  2.271253957291315 0.41 0  2.162836591190598 0.41 0  2.058205329870775 0.41 0  1.957227977488067 0.41 0  1.859776908881246 0.41 0  1.765729001826854 0.41 0  1.674965418778818 0.41 0  1.58737143976041 0.41 0  1.502836389107956 0.41 0  1.421253448505726 0.41 0  1.342519516048286 0.41 0  1.266535089881505 0.41 0  1.193204177143353 0.41 0  1.122434100544716 0.41 0  1.05413544556068 0.41 0  0.9882218810956305 0.41 0  0.9246101326886647 0.41 0  0.8632198139519631 0.41 0  0.8039733463934788 0.41 0  0.7467958595662458 0.41 0  0.6916151138480078 0.41 0  0.6383613676644679 0.41 0  0.5869673343225223 0.41 0  0.5373680609412221 0.41 0  0.4895008759292634 0.41 0  0.4433053055145528 0.41 0  0.3987229542475914 0.41 0  0.3556974926297398 0.41 0  0.3141745521466497 0.41 0  0.2741016576310038 0.41 0  0.2354281840915826 0.41 0  0.1981052433265003 0.41 0  0.1620856860352591 0.41 0  0.1273239957535623 0.41 0  0.09377624077128965 0.41 0  0.06140001986584975 0.41 0  0.03015443760436654 0.41 0  0.2497468076502589 0.2050254481002335 0  0.2497468076502614 0.1949745518997913 0  0.2469965252529372 0.1829317073451959 0  0.2439893735792749 0.1762316384219906 0  0.2400332147834255 0.1700443375285386 0  0.2352133972704371 0.1645032867342007 0  0.2296339016332438 0.1597280261969788 0  0.2234150974217223 0.1558215752574715 0  0.2166911463437691 0.1528682099456123 0  0.2096071079204251 0.1509316448471593 0  0.2023158100364996 0.1500536585536553 0  0.194974551899914 0.1502531923497262 0  0.1877417105387872 0.1515259415822739 0  0.1807733240461124 0.153844448527136 0  0.1742197252835808 0.15715869474974 0  0.1682222986673531 0.1613971801805478 0  0.162910430003803 0.1664684656256651 0  0.1583987151779087 0.1722631454351573 0  0.1547844879126891 0.178656207771761 0  0.1521457199348551 0.1855097315605723 0  0.1505393388476355 0.1926758619366523 0  0.1505393388476328 0.2073241380633295 0  0.1521457199348437 0.2144902684393899 0  0.1547844879126531 0.221343792228163 0  0.1583987151778488 0.2277368545647528 0  0.1629104300036858 0.2335315343742052 0  0.1682222986671726 0.2386028198193036 0  0.1742197252833576 0.2428413052501257 0  0.1807733240458683 0.2461555514727623 0  0.1877417105384929 0.2484740584176516 0  0.1949745518995776 0.2497468076502398 0  0.202315810036185 0.2499463414463592 0  0.2096071079201568 0.2490683551528932 0  0.2166911463435495 0.2471317900544655 0  0.2234150974215506 0.2441784247426195 0  0.2296339016331197 0.2402719738031125 0  0.2352133972703547 0.2354967132658811 0  0.2400332147833751 0.2299556624715287 0  0.2439893735792577 0.2237683615780412 0  0.246996525252926 0.2170682926548348 0  0.25645809709277 0.21 0  0.2639263993298655 0.21 0  0.271394701566961 0.21 0  0.2788630038040554 0.21 0  0.2863313060411479 0.21 0  0.2937996082782405 0.21 0  0.301267910515333 0.21 0  0.3087362127524279 0.21 0  0.3162045149895234 0.21 0  0.3236728172265972 0.21 0  0.3311411194636928 0.21 0  0.3386094217007701 0.21 0  0.3460777239378666 0.21 0  0.3535460261749672 0.21 0  0.3610143284120516 0.21 0  0.3684826306491596 0.21 0  0.3759509328862226 0.21 0  0.383419235123329 0.21 0  0.3908875373604028 0.21 0  0.3983558395975142 0.21 0  0.4058241418345938 0.21 0  0.4132924440716992 0.21 0  0.4207607463087888 0.21 0  0.4282290485459029 0.21 0  0.4356973507830418 0.21 0  0.4431656530201649 0.21 0  0.4506339552573136 0.21 0  0.4581022574944306 0.21 0  0.4655705597315852 0.21 0  0.4730388619686996 0.21 0  0.480507164205851 0.21 0  0.4879754664429498 0.21 0  0.4954437686800938 0.21 0  0.502912070917267 0.21 0  0.5103803731544119 0.21 0  0.5178486753915261 0.21 0  0.5253169776286404 0.21 0  0.5327852798657868 0.21 0  0.5402535821029386 0.21 0  0.54772188434007 0.21 0  0.5551901865771842 0.21 0  0.5626584888143201 0.21 0  0.5701267910514778 0.21 0  0.5775950932886138 0.21 0  0.5850633955257281 0.21 0  0.5925316977628483 0.21 0  0.6 0.2050000000000054 0  0.6 0.1950000000000217 0  0.5925316977628897 0.19 0  0.5850633955257988 0.19 0  0.5775950932887378 0.19 0  0.5701267910515998 0.19 0  0.5626584888145268 0.19 0  0.5551901865773963 0.19 0  0.547721884340339 0.19 0  0.5402535821032429 0.19 0  0.5327852798661811 0.19 0  0.5253169776290537 0.19 0  0.5178486753919799 0.19 0  0.5103803731549078 0.19 0  0.502912070917822 0.19 0  0.4954437686807294 0.19 0  0.4879754664436223 0.19 0  0.4805071642065402 0.19 0  0.4730388619694271 0.19 0  0.4655705597323621 0.19 0  0.4581022574952563 0.19 0  0.4506339552581777 0.19 0  0.4431656530210671 0.19 0  0.4356973507839815 0.19 0  0.4282290485468779 0.19 0  0.4207607463097617 0.19 0  0.4132924440726327 0.19 0  0.4058241418354857 0.19 0  0.3983558395983636 0.19 0  0.3908875373612097 0.19 0  0.3834192351240934 0.19 0  0.3759509328869369 0.19 0  0.3684826306498175 0.19 0  0.361014328412667 0.19 0  0.3535460261755617 0.19 0  0.3460777239384295 0.19 0  0.3386094217012945 0.19 0  0.3311411194641595 0.19 0  0.3236728172270245 0.19 0  0.3162045149898895 0.19 0  0.3087362127527544 0.19 0  0.3012679105156187 0.19 0  0.2937996082784807 0.19 0  0.2863313060413428 0.19 0  0.2788630038042048 0.19 0  0.2713947015670686 0.19 0  0.2639263993299336 0.19 0  0.2564580970927985 0.19 0  0.2607803159922026 0.2000727136295815 0  0.5887803774232762 0.2001272386983733 0  0.5745072403740523 0.2002044435018727 0  0.5511891430099709 0.2001122610077113 0  0.2751288526855082 0.20000000000002 0  0.5365194309847112 0.1999999999999436 0  0.2894621222999649 0.1998691686390484 0  0.5215828265105155 0.1999999999999228 0  0.3127789816668748 0.1998657885438805 0  0.3274069683451451 0.2000000000000796 0  0.5066462220363641 0.199999999999908 0  0.3650630746574081 0.199866017807523 0  0.476773013087985 0.1999999999998713 0  0.3417402379596385 0.1998691686391011 0  0.3796850840047755 0.200000000000134 0  0.4618364086138087 0.1999999999998546 0  0.4917096175621762 0.1999999999998808 0  0.3946216884789568 0.2000000000001512 0  0.446899804139621 0.1999999999998389 0  0.4089549580935208 0.1998691686391595 0  0.4322718174608562 0.200127451265745 0  0.4201487168029707 0.1999966199048527 0  0.3528922713220932 0.2000185703532356 0  0.5633122436674589 0.1999814296467508 0  0.3006558810093873 0.1999966199048318 0  0.5815926498168407 0.1966545283159175 0  0.2677053789419034 0.1964246479135325 0  0.5290511287476175 0.1970915826863981 0  0.5439877332217911 0.197091582686394 0  0.2825131256993216 0.2035478995978015 0  0.3199386661080599 0.202908417313604 0  0.4842413153250809 0.1970915826863873 0  0.5141145242734466 0.1970915826863843 0  0.3722167817676917 0.2029084173136195 0  0.4693047108508938 0.1970915826863783 0  0.3348752705822316 0.202908417313609 0  0.3871533862418661 0.2029084173136212 0  0.4543681063767183 0.1970915826863795 0  0.4991779197992749 0.1970915826863902 0  0.4020059614928624 0.203547899597858 0  0.4394315019025246 0.1970915826863714 0  0.2550657455369551 0.2034088125358657 0  0.2548908499171161 0.1966940311614271 0  0.5946539510196798 0.2024302972968126 0  0.267698176732111 0.2039977513680092 0  0.4261685417851465 0.196409292431739 0  0.3590076176283495 0.196411355804271 0  0.5571672426447437 0.2036011176410121 0  0.3066757059912147 0.1964092924317024 0  0.594380730180568 0.1966558399668133 0  0.4842413153245942 0.2040749161535287 0  0.4693047108503577 0.2040749161535231 0  0.3871533862424271 0.1959250838464788 0  0.372246743208829 0.1959123236376545 0  0.5141145242731028 0.2040749161535395 0  0.4543681063761134 0.2040749161535186 0  0.4019979587101454 0.1959834479682427 0  0.4394608940728603 0.2040870543693135 0  0.5439623148931173 0.2040856076781014 0  0.5290511287473298 0.2040749161535501 0  0.4991779197988497 0.2040749161535382 0  0.3347912413592433 0.1959225448935183 0  0.3199680582793816 0.1959123018030061 0  0.2825051229162361 0.1959834479681729 0  0.3590471196690275 0.2036304442587945 0  0.5571594006495384 0.1963685282145804 0  0.3067669986803285 0.203627750582736 0  0.4262598344738712 0.2036568242185335 0  0.5814408164431408 0.2041285596160068 0  0.5688286748170428 0.1961819304477386 0  0.4145905603063645 0.2038180695522843 0  0.3473758401724931 0.2038180695522752 0  0.2950977245128307 0.2038180695522663 0  0.5688286748170693 0.203818069552238 0  0.2950977245127906 0.1961819304477774 0  0.3473758401723931 0.1961819304478349 0  0.4145905603061963 0.1961819304479011 0  0.2601812407614425 0.2056861609747042
[...]
<PointData  Vectors="f_40-1"> 
<DataArray  type="Float64"  Name="f_40-1"  NumberOfComponents="3" format="ascii">0.0000000000000000e+00 0.0000000000000000e+00 0.0000000000000000e+00  0.0000000000000000e+00 0.0000000000000000e+00 0.0000000000000000e+00  0.0000000000000000e+00 0.0000000000000000e+00 0.0000000000000000e+00  0.0000000000000000e+00 0.0000000000000000e+00 0.0000000000000000e+00  -4.0862840097400231e-05 -7.7734789516008425e-04 0.0000000000000000e+00  3.1400701806977750e-05 -7.8176660124292788e-04 0.0000000000000000e+00  0.0000000000000000e+00 0.0000000000000000e+00 0.0000000000000000e+00  0.0000000000000000e+00 0.0000000000000000e+00 0.0000000000000000e+00  0.0000000000000000e+00 0.0000000000000000e+00 0.0000000000000000e+00  0.0000000000000000e+00 0.0000000000000000e+00 0.0000000000000000e+00  -5.2072142790478308e-06 -7.7954395202580861e-04 0.0000000000000000e+00  0.0000000000000000e+00 0.0000000000000000e+00 0.0000000000000000e+00  0.0000000000000000e+00 0.0000000000000000e+00 0.0000000000000000e+00  0.0000000000000000e+00 0.0000000000000000e+00 0.0000000000000000e+00  0.0000000000000000e+00 0.0000000000000000e+00 0.0000000000000000e+00  0.0000000000000000e+00 0.0000000000000000e+00 0.0000000000000000e+00  0.0000000000000000e+00 0.0000000000000000e+00 0.0000000000000000e+00  0.0000000000000000e+00 0.0000000000000000e+00 0.0000000000000000e+00  0.0000000000000000e+00 0.0000000000000000e+00 0.0000000000000000e+00  0.0000000000000000e+00 0.0000000000000000e+00 0.0000000000000000e+00  0.0000000000000000e+00 0.0000000000000000e+00 0.0000000000000000e+00  0.0000000000000000e+00 0.0000000000000000e+00 0.0000000000000000e+00  0.0000000000000000e+00 0.0000000000000000e+00 0.0000000000000000e+00  0.0000000000000000e+00 0.0000000000000000e+00 0.0000000000000000e+00  0.0000000000000000e+00 0.0000000000000000e+00 0.0000000000000000e+00  0.0000000000000000e+00 0.0000000000000000e+00 0.0000000000000000e+00  0.0000000000000000e+00 0.0000000000000000e+00 0.0000000000000000e+00  0.0000000000000000e+00 0.0000000000000000e+00 0.0000000000000000e+00  0.0000000000000000e+00 0.0000000000000000e+00 0.0000000000000000e+00  0.0000000000000000e+00 0.0000000000000000e+00 0.0000000000000000e+00  0.0000000000000000e+00 0.0000000000000000e+00 0.0000000000000000e+00  0.0000000000000000e+00 0.0000000000000000e+00 0.0000000000000000e+00  0.0000000000000000e+00 0.0000000000000000e+00 0.0000000000000000e+00  0.0000000000000000e+00 0.0000000000000000e+00 0.0000000000000000e+00  0.0000000000000000e+00 0.0000000000000000e+00 0.0000000000000000e+00  0.0000000000000000e+00 0.0000000000000000e+00 0.0000000000000000e+00  0.0000000000000000e+00 0.0000000000000000e+00 0.0000000000000000e+00  0.0000000000000000e+00 0.0000000000000000e+00 0.0000000000000000e+00  0.0000000000000000e+00 0.0000000000000000e+00 0.0000000000000000e+00  0.0000000000000000e+00 0.0000000000000000e+00 0.0000000000000000e+00  0.0000000000000000e+00 0.0000000000000000e+00 0.0000000000000000e+00  0.0000000000000000e+00 0.0000000000000000e+00 0.0000000000000000e+00  0.0000000000000000e+00 0.0000000000000000e+00 0.0000000000000000e+00  0.0000000000000000e+00 0.0000000000000000e+00 0.0000000000000000e+00  0.0000000000000000e+00 0.0000000000000000e+00 0.0000000000000000e+00  0.0000000000000000e+00 0.0000000000000000e+00 0.0000000000000000e+00  0.0000000000000000e+00 0.0000000000000000e+00 0.0000000000000000e+00  0.0000000000000000e+00 0.0000000000000000e+00 0.0000000000000000e+00  0.0000000000000000e+00 0.0000000000000000e+00 0.0000000000000000e+00  0.0000000000000000e+00 0.0000000000000000e+00 0.0000000000000000e+00  0.0000000000000000e+00 0.0000000000000000e+00 0.0000000000000000e+00  0.0000000000000000e+00 0.0000000000000000e+00 0.0000000000000000e+00  0.0000000000000000e+00 0.0000000000000000e+00 0.0000000000000000e+00  0.0000000000000000e+00 0.0000000000000000e+00 0.0000000000000000e+00  0.0000000000000000e+00 0.0000000000000000e+00 0.0000000000000000e+00  0.0000000000000000e+00 0.0000000000000000e+00 0.0000000000000000e+00  0.0000000000000000e+00 0.0000000000000000e+00 0.0000000000000000e+00  0.0000000000000000e+00 0.0000000000000000e+00 0.0000000000000000e+00  0.0000000000000000e+00 0.0000000000000000e+00 0.0000000000000000e+00  0.0000000000000000e+00 0.0000000000000000e+00 0.0000000000000000e+00  0.0000000000000000e+00 0.0000000000000000e+00 0.0000000000000000e+00  0.0000000000000000e+00 0.0000000000000000e+00 0.0000000000000000e+00  0.0000000000000000e+00 0.0000000000000000e+00 0.0000000000000000e+00  0.0000000000000000e+00 0.0000000000000000e+00 0.0000000000000000e+00  0.0000000000000000e+00 0.0000000000000000e+00 0.0000000000000000e+00  0.0000000000000000e+00 0.0000000000000000e+00 0.0000000000000000e+00  0.0000000000000000e+00 0.0000000000000000e+00 0.0000000000000000e+00  0.0000000000000000e+00 0.0000000000000000e+00 0.0000000000000000e+00  0.0000000000000000e+00 0.0000000000000000e+00 0.0000000000000000e+00  0.0000000000000000e+00 0.0000000000000000e+00 0.0000000000000000e+00  0.0000000000000000e+00 0.0000000000000000e+00 0.0000000000000000e+00  0.0000000000000000e+00 0.0000000000000000e+00 0.0000000000000000e+00  0.0000000000000000e+00 0.0000000000000000e+00 0.0000000000000000e+00  0.0000000000000000e+00 0.0000000000000000e+00 0.0000000000000000e+00  0.0000000000000000e+00 0.0000000000000000e+00 0.0000000000000000e+00  0.0000000000000000e+00 0.0000000000000000e+00 0.0000000000000000e+00  0.0000000000000000e+00 0.0000000000000000e+00 0.0000000000000000e+00  0.0000000000000000e+00 0.0000000000000000e+00 0.0000000000000000e+00  0.0000000000000000e+00 0.0000000000000000e+00 0.0000000000000000e+00  0.0000000000000000e+00 0.0000000000000000e+00 0.0000000000000000e+00  0.0000000000000000e+00 0.0000000000000000e+00 0.0000000000000000e+00  0.0000000000000000e+00 0.0000000000000000e+00 0.0000000000000000e+00  0.0000000000000000e+00 0.0000000000000000e+00 0.0000000000000000e+00  0.0000000000000000e+00 0.0000000000000000e+00 0.0000000000000000e+00  0.0000000000000000e+00 0.0000000000000000e+00 0.0000000000000000e+00  0.0000000000000000e+00 0.0000000000000000e+00 0.0000000000000000e+00  0.0000000000000000e+00 0.0000000000000000e+00 0.0000000000000000e+00  0.0000000000000000e+00 0.0000000000000000e+00 0.0000000000000000e+00  0.0000000000000000e+00 0.0000000000000000e+00 0.0000000000000000e+00  0.0000000000000000e+00 0.0000000000000000e+00 0.0000000000000000e+00  0.0000000000000000e+00 0.0000000000000000e+00 0.0000000000000000e+00  0.0000000000000000e+00 0.0000000000000000e+00 0.0000000000000000e+00  0.0000000000000000e+00 0.0000000000000000e+00 0.0000000000000000e+00  0.0000000000000000e+00 0.0000000000000000e+00 0.0000000000000000e+00  0.0000000000000000e+00 0.0000000000000000e+00 0.0000000000000000e+00  0.0000000000000000e+00 0.0000000000000000e+00 0.0000000000000000e+00  0.0000000000000000e+00 0.0000000000000000e+00 0.0000000000000000e+00  0.0000000000000000e+00 0.0000000000000000e+00 0.0000000000000000e+00  0.0000000000000000e+00 0.0000000000000000e+00 0.0000000000000000e+00  0.0000000000000000e+00 0.0000000000000000e+00 0.0000000000000000e+00  0.0000000000000000e+00 0.0000000000000000e+00 0.0000000000000000e+00  0.0000000000000000e+00 0.0000000000000000e+00 0.0000000000000000e+00  0.0000000000000000e+00 0.0000000000000000e+00 0.0000000000000000e+00  0.0000000000000000e+00 0.0000000000000000e+00 0.0000000000000000e+00  0.0000000000000000e+00 0.0000000000000000e+00 0.0000000000000000e+00  0.0000000000000000e+00 0.0000000000000000e+00 0.0000000000000000e+00  0.0000000000000000e+00 0.0000000000000000e+00 0.0000000000000000e+00  0.0000000000000000e+00 0.0000000000000000e+00 0.0000000000000000e+00  0.0000000000000000e+00 0.0000000000000000e+00 0.0000000000000000e+00  0.0000000000000000e+00 0.0000000000000000e+00 0.0000000000000000e+00  0.0000000000000000e+00 0.0000000000000000e+00 0.0000000000000000e+00  0.0000000000000000e+00 0.0000000000000000e+00 0.0000000000000000e+00  0.0000000000000000e+00 0.0000000000000000e+00 0.0000000000000000e+00  0.0000000000000000e+00 0.0000000000000000e+00 0.0000000000000000e+00  0.0000000000000000e+00 0.0000000000000000e+00 0.0000000000000000e+00  0.0000000000000000e+00 0.0000000000000000e+00 0.0000000000000000e+00  0.0000000000000000e+00 0.0000000000000000e+00 0.0000000000000000e+00  0.0000000000000000e+00 0.0000000000000000e+00 0.0000000000000000e+00  0.0000000000000000e+00 0.0000000000000000e+00 0.0000000000000000e+00  0.0000000000000000e+00 0.0000000000000000e+00 0.0000000000000000e+00  0.0000000000000000e+00 0.0000000000000000e+00 0.0000000000000000e+00  0.0000000000000000e+00 0.0000000000000000e+00 0.0000000000000000e+00  0.0000000000000000e+00 0.0000000000000000e+00 0.0000000000000000e+00  0.0000000000000000e+00 0.0000000000000000e+00 0.0000000000000000e+00  0.0000000000000000e+00 0.0000000000000000e+00 0.0000000000000000e+00  0.0000000000000000e+00 0.0000000000000000e+00 0.0000000000000000e+00  0.0000000000000000e+00 0.0000000000000000e+00 0.0000000000000000e+00  0.0000000000000000e+00 0.0000000000000000e+00 0.0000000000000000e+00  0.0000000000000000e+00 0.0000000000000000e+00 0.0000000000000000e+00  0.0000000000000000e+00 0.0000000000000000e+00 0.0000000000000000e+00  0.0000000000000000e+00 0.0000000000000000e+00 0.0000000000000000e+00  0.0000000000000000e+00 0.0000000000000000e+00 0.0000000000000000e+00  0.0000000000000000e+00 0.0000000000000000e+00 0.0000000000000000e+00  0.0000000000000000e+00 0.0000000000000000e+00 0.0000000000000000e+00  0.0000000000000000e+00 0.0000000000000000e+00 0.0000000000000000e+00  0.0000000000000000e+00 0.0000000000000000e+00 0.0000000000000000e+00  0.0000000000000000e+00 0.0000000000000000e+00 0.0000000000000000e+00  0.0000000000000000e+00 0.0000000000000000e+00 0.0000000000000000e+00  0.0000000000000000e+00 0.0000000000000000e+00 0.0000000000000000e+00  0.0000000000000000e+00 0.0000000000000000e+00 0.0000000000000000e+00  0.0000000000000000e+00 0.0000000000000000e+00 0.0000000000000000e+00  0.0000000000000000e+00 0.0000000000000000e+00 0.0000000000000000e+00  0.0000000000000000e+00 0.0000000000000000e+00 0.0000000000000000e+00  -1.0570123719835746e-07 -2.7389470103324361e-06 0.0000000000000000e+00  7.9097275776547341e-08 -2.9594854982854386e-06 0.0000000000000000e+00  5.5061943801631001e-07 -3.4208417431035797e-06 0.0000000000000000e+00  1.3341328115122091e-06 -4.2124098317096470e-06 0.0000000000000000e+00  2.1836525757872328e-06 -5.6046453681177824e-06 0.0000000000000000e+00  3.3356502638565364e-06 -7.6853148254425474e-06 0.0000000000000000e+00  4.4026751778608212e-06 -1.0392685919884440e-05 0.0000000000000000e+00  5.5886900033233699e-06 -1.4018355908170657e-05 0.0000000000000000e+00  7.0858389184273399e-06 -1.8429651317039364e-05 0.0000000000000000e+00  8.3813728166150395e-06 -2.3782868147941082e-05 0.0000000000000000e+00  1.0087021352852736e-05 -3.0102311576720642e-05 0.0000000000000000e+00  1.1500390001507060e-05 -3.7465678060228809e-05 0.0000000000000000e+00  1.3284476045619577e-05 -4.5873464497088721e-05 0.0000000000000000e+00  1.4803906560235996e-05 -5.5208635689321410e-05 0.0000000000000000e+00  1.6366199882869918e-05 -6.5762802491982193e-05 0.0000000000000000e+00  1.8206442881056943e-05 -7.7290128685930632e-05 0.0000000000000000e+00  1.9697488191320609e-05 -8.9893625658723114e-05 0.0000000000000000e+00  2.1531253672279252e-05 -1.0357199345804937e-04 0.0000000000000000e+00  2.2965693172747284e-05 -1.1829128014193090e-04 0.0000000000000000e+00  2.4686281250762236e-05 -1.3399829640212610e-04 0.0000000000000000e+00  2.6093707607429081e-05 -1.5072000976868287e-04 0.0000000000000000e+00  2.7668205979740107e-05 -1.6843629587745518e-04 0.0000000000000000e+00  2.8939438810168617e-05 -1.8691295378587086e-04 0.0000000000000000e+00  3.0154630942008153e-05 -2.0638927271116460e-04 0.0000000000000000e+00  3.1483925767135752e-05 -2.2655848028126172e-04 0.0000000000000000e+00  3.2566785868438459e-05 -2.4755304569037262e-04 0.0000000000000000e+00  3.3624471850537804e-05 -2.6928632173769457e-04 0.0000000000000000e+00  3.4515425802546289e-05 -2.9163548653206843e-04 0.0000000000000000e+00  3.5360956618563091e-05 -3.1464923828470421e-04 0.0000000000000000e+00  3.6042828454313992e-05 -3.3816935050481742e-04 0.0000000000000000e+00  3.6664286237221757e-05 -3.6225507842885631e-04 0.0000000000000000e+00  3.7126642545504010e-05 -3.8674196611356557e-04 0.0000000000000000e+00  3.7517234155170188e-05 -4.1169685959771855e-04 0.0000000000000000e+00  3.7756555240746415e-05 -4.3695168878125381e-04 0.0000000000000000e+00  3.7910440325726471e-05 -4.6258626782184296e-04 0.0000000000000000e+00  3.7923182327773298e-05 -4.8843006925368936e-04 0.0000000000000000e+00  3.7846865247508532e-05 -5.1456536942348001e-04 0.0000000000000000e+00  3.7639229815094245e-05 -5.4083176509667587e-04 0.0000000000000000e+00  3.7337349582555176e-05 -5.6731615166242383e-04 0.0000000000000000e+00  3.6910754008158398e-05 -5.9386549114480642e-04 0.0000000000000000e+00  3.6381091588893766e-05 -6.2056001867648878e-04 0.0000000000000000e+00  3.5749740607155802e-05 -6.4729026810152678e-04 0.0000000000000000e+00  3.5007189075571232e-05 -6.7408979821261276e-04 0.0000000000000000e+00  3.4208887114863497e-05 -7.0091420012005016e-04 0.0000000000000000e+00  3.3289850477621731e-05 -7.2772964926089297e-04 0.0000000000000000e+00  3.2319035235885607e-05 -7.5461686801017746e-04 0.0000000000000000e+00  1.2924873692900393e-05 -7.8065338895259850e-04 0.0000000000000000e+00  -2.3182523673012512e-05 -7.7844489990693021e-04 0.0000000000000000e+00  -3.9903800455754116e-05 -7.5051826792354721e-04 0.0000000000000000e+00  -3.8870716928871770e-05 -7.2346656936151201e-04 0.0000000000000000e+00  -3.7879812707133546e-05 -6.9639079243353726e-04 0.0000000000000000e+00  -3.6956412430848638e-05 -6.6937811806910981e-04 0.0000000000000000e+00  -3.6078459096055425e-05 -6.4239928036787886e-04 0.0000000000000000e+00  -3.5267071657500266e-05 -6.1548903244739231e-04 0.0000000000000000e+00  -3.4463908874709507e-05 -5.8865987500809794e-04 0.0000000000000000e+00  -3.3739823400457636e-05 -5.6191291419721058e-04 0.0000000000000000e+00  -3.2998209909492008e-05 -5.3533120956679502e-04 0.0000000000000000e+00  -3.2336662611147906e-05 -5.0888056503403938e-04 0.0000000000000000e+00  -3.1620801648772631e-05 -4.8265763543711660e-04 0.0000000000000000e+00  -3.0996016435963145e-05 -4.5664513259020730e-04 0.0000000000000000e+00  -3.0276934694346965e-05 -4.3093688442778782e-04 0.0000000000000000e+00  -2.9663942556371085e-05 -4.0553059814923547e-04 0.0000000000000000e+00  -2.8914448406164702e-05 -3.8051281456810454e-04 0.0000000000000000e+00  -2.8293826450130023e-05 -3.5589545661986183e-04 0.0000000000000000e+00  -2.7494480223965751e-05 -3.3175894213229517e-04 0.0000000000000000e+00  -2.6848431174984346e-05 -3.0812790172228099e-04 0.0000000000000000e+00  -2.5979271457946335e-05 -2.8507640751653765e-04 0.0000000000000000e+00  -2.5290963575894426e-05 -2.6263721422144871e-04 0.0000000000000000e+00  -2.4331915131652950e-05 -2.4088083715677729e-04 0.0000000000000000e+00  -2.3582431829700632e-05 -2.1984956583599057e-04 0.0000000000000000e+00  -2.2549004442074567e-05 -1.9960914691234246e-04 0.0000000000000000e+00  -2.1687752263418540e-05 -1.8011882347464324e-04 0.0000000000000000e+00  -2.0805026562729099e-05 -1.6163480463960477e-04 0.0000000000000000e+00  -1.9674130810854456e-05 -1.4388721674122717e-04 0.0000000000000000e+00  -1.8672804648387210e-05 -1.2719526039156137e-04 0.0000000000000000e+00  -1.7522954060507676e-05 -1.1145362730212926e-04 0.0000000000000000e+00  -1.6456853654303654e-05 -9.6759730198706486e-05 0.0000000000000000e+00  -1.5269257216075979e-05 -8.3099078069956368e-05 0.0000000000000000e+00  -1.4167785271707713e-05 -7.0476162145596057e-05 0.0000000000000000e+00  -1.2862450448647474e-05 -5.9043346443760300e-05 0.0000000000000000e+00  -1.1806998377999844e-05 -4.8507480433143899e-05 0.0000000000000000e+00  -1.0768683133341201e-05 -3.9219990741699664e-05 0.0000000000000000e+00  -9.5014876165748740e-06 -3.0789608077225724e-05 0.0000000000000000e+00  -8.4230349447377981e-06 -2.3509477498594079e-05 0.0000000000000000e+00  -7.2791578819096470e-06 -1.7229966430197510e-05 0.0000000000000000e+00  -6.2773641175859414e-06 -1.1891105452259567e-05 0.0000000000000000e+00  -5.1769283698843772e-06 -7.5823971707325371e-06 0.0000000000000000e+00  -4.3339761843726059e-06 -3.9905661443178453e-06 0.0000000000000000e+00  -3.5712867492410610e-06 -1.3325173312080614e-06 0.0000000000000000e+00  -2.7138112779554789e-06 7.2161576735514294e-07 0.0000000000000000e+00  -2.0921855562672857e-06 2.1051387809268019e-06 0.0000000000000000e+00  -1.4595964474816332e-06 2.8921601720877899e-06 0.0000000000000000e+00  -9.7248611300404789e-07 3.1854456596791038e-06 0.0000000000000000e+00  -4.2922594629901877e-07 2.9440227325825651e-06 0.0000000000000000e+00  -9.0119443250181998e-07 3.1211547262825318e-07 0.0000000000000000e+00  -3.0249306068087139e-06 -7.3902944448066103e-04 0.0000000000000000e+00  -8.1614134467459139e-07 -6.8753391233004717e-04 0.0000000000000000e+00  1.2452315914608030e-06 -6.0363877902572965e-04 0.0000000000000000e+00  -4.3308317897868648e-07 -2.7789193092250996e-07 0.0000000000000000e+00  1.9781801370275559e-06 -5.5122904423469824e-04 0.0000000000000000e+00  -2.3347878434860520e-07 -2.7295402331680594e-06 0.0000000000000000e+00  2.8756198098527134e-06 -4.9846084485637610e-04 0.0000000000000000e+00  2.1456855478538022e-07 -1.2420480332634847e-05 0.0000000000000000e+00  6.8625880567197142e-07 -2.2907455004595053e-05 0.0000000000000000e+00  3.5247526722525217e-06 -4.4654494729045181e-04 0.0000000000000000e+00  1.6580540568246427e-06 -6.7745488361641067e-05 0.0000000000000000e+00  4.1658326788109512e-06 -3.4663815224709440e-04 0.0000000000000000e+00  9.6660126342294813e-07 -3.6785254959269213e-05 0.0000000000000000e+00  2.3588553513875378e-06 -9.2529442965548310e-05 0.0000000000000000e+00  4.2042034077661215e-06 -2.9941220729471198e-04 0.0000000000000000e+00  3.9474982059324859e-06 -3.9581414503725773e-04 0.0000000000000000e+00  2.8463711682783130e-06 -1.2196005305438386e-04 0.0000000000000000e+00  4.0841937762359259e-06 -2.5455299987515415e-04 0.0000000000000000e+00  2.9715589425595906e-06 -1.5394514060740205e-04 0.0000000000000000e+00  4.1947423446142278e-06 -2.1335588511667224e-04 0.0000000000000000e+00  3.5612945104122301e-06 -1.8154794482205493e-04 0.0000000000000000e+00  1.4880458413589174e-06 -5.0503737250985041e-05 0.0000000000000000e+00  -4.0803555276792553e-07 -6.4716068737371494e-04 0.0000000000000000e+00  1.7418089753140344e-08 -6.5697670792619948e-06 0.0000000000000000e+00  -1.4524324086174662e-05 -7.1233533375644688e-04 0.0000000000000000e+00  -9.0151422534905911e-07 1.3541286766995551e-06 0.0000000000000000e+00  -7.7740466434542497e-06 -5.2396180911465264e-04 0.0000000000000000e+00  -8.9200338830441358e-06 -5.7708229224689295e-04 0.0000000000000000e+00  4.2368893537697588e-07 -2.4621061132696942e-06 0.0000000000000000e+00  2.6149424631487849e-06 -1.8148608516495409e-05 0.0000000000000000e+00  -5.4365032614659853e-06 -3.7013311784462005e-04 0.0000000000000000e+00  -6.8301183685080247e-06 -4.7154950790781518e-04 0.0000000000000000e+00  7.0211458111270472e-06 -8.0460691242214752e-05 0.0000000000000000e+00  -4.9289378080930816e-06 -3.2186506152293042e-04 0.0000000000000000e+00  3.7579808031543110e-06 -3.0740948912055716e-05 0.0000000000000000e+00  8.3043250711565777e-06 -1.0781275722904544e-04 0.0000000000000000e+00  -4.5113167048260832e-06 -2.7575759151284262e-04 0.0000000000000000e+00  -6.0610248096615486e-06 -4.2015508904163162e-04 0.0000000000000000e+00  1.0950038818232661e-05 -1.3932794462089283e-04 0.0000000000000000e+00  -4.1677638866947244e-06 -2.3223134252876713e-04 0.0000000000000000e+00  -7.2815753708495549e-07 -4.8680737544732849e-07 0.0000000000000000e+00  -7.9247098644329504e-07 8.0887303272304289e-07 0.0000000000000000e+00  4.4008280024329846e-06 -7.6072326213762924e-04 0.0000000000000000e+00  -2.62194539912724