<?xml version="1.0"?>
<VTKFile type="UnstructuredGrid"  version="0.1"  >
<UnstructuredGrid>
<Piece  NumberOfPoints="1419" NumberOfCells="2698">
<Points>
<DataArray  type="Float64"  NumberOfComponents="3"  format="ascii">0 0 0  0 0.41 0  2.5 0 0  2.5 0.41 0  0.6 0.19 0  0.6 0.21 0  0.25 0.2 0  0.15 0.2 0  0.2489897948556636 0.21 0  0.2489897948556636 0.19 0  0.6 0.2 0  0 0.3807142857143437 0  0 0.3514285714286952 0  0 0.3221428571430699 0  0 0.29285714285744 0  0 0.2635714285718054 0  0 0.2342857142861561 0  0 0.2050000000005308 0  0 0.175714285714732 0  0 0.1464285714289574 0  0 0.1171428571431897 0  0 0.08785714285737878 0  0 0.05857142857161107 0  0 0.02928571428580012 0  0.03015443760436003 0 0  0.06140001986583606 0 0  0.09377624077125973 0 0  0.1273239957535082 0 0  0.1620856860351972 0 0  0.1981052433264291 0 0  0.235428184091502 0 0  0.2741016576309132 0 0  0.3141745521465447 0 0  0.3556974926295285 0 0  0.3987229542472677 0 0  0.4433053055141081 0 0  0.4895008759286886 0 0  0.5373680609405097 0 0  0.5869673343216626 0 0  0.6383613676634521 0 0  0.6916151138468254 0 0  0.7467958595648856 0 0  0.8039733463919316 0 0  0.8632198139502143 0 0  0.9246101326867038 0 0  0.9882218810934433 0 0  1.054135445558498 0 0  1.122434100542598 0 0  1.193204177141305 0 0  1.266535089879536 0 0  1.342519516046404 0 0  1.421253448503939 0 0  1.502836389106271 0 0  1.587371439758838 0 0  1.674965418777374 0 0  1.765729001825544 0 0  1.859776908880082 0 0  1.957227977487062 0 0  2.058205329869943 0 0  2.162836591189951 0 0  2.271253957290865 0 0  2.383594446803425 0 0  2.5 0.1024999999997612 0  2.5 0.2049999999994743 0  2.5 0.3074999999997183 0  2.383594446803656 0.41 0  2.271253957291315 0.41 0  2.162836591190598 0.41 0  2.058205329870775 0.41 0  1.957227977488067 0.41 0  1.859776908881246 0.41 0  1.765729001826854 0.41 0  1.674965418778818 0.41 0  1.58737143976041 0.41 0  1.502836389107956 0.41 0  1.421253448505726 0.41 0  1.342519516048286 0.41 0  1.266535089881505 0.41 0  1.193204177143353 0.41 0  1.122434100544716 0.41 0  1.05413544556068 0.41 0  0.9882218810956305 0.41 0  0.9246101326886647 0.41 0  0.8632198139519631 0.41 0  0.8039733463934788 0.41 0  0.7467958595662458 0.41 0  0.6916151138480078 0.41 0  0.6383613676644679 0.41 0  0.5869673343225223 0.41 0  0.5373680609412221 0.41 0  0.4895008759292634 0.41 0  0.4433053055145528 0.41 0  0.3987229542475914 0.41 0  0.3556974926297398 0.41 0  0.3141745521466497 0.41 0  0.2741016576310038 0.41 0  0.2354281840915826 0.41 0  0.1981052433265003 0.41 0  0.1620856860352591 0.41 0  0.1273239957535623 0.41 0  0.09377624077128965 0.41 0  0.06140001986584975 0.41 0  0.03015443760436654 0.41 0  0.2497468076502589 0.2050254481002335 0  0.2497468076502614 0.1949745518997913 0  0.2469965252529372 0.1829317073451959 0  0.2439893735792749 0.1762316384219906 0  0.2400332147834255 0.1700443375285386 0  0.2352133972704371 0.1645032867342007 0  0.2296339016332438 0.1597280261969788 0  0.2234150974217223 0.1558215752574715 0  0.2166911463437691 0.1528682099456123 0  0.2096071079204251 0.1509316448471593 0  0.2023158100364996 0.1500536585536553 0  0.194974551899914 0.1502531923497262 0  0.1877417105387872 0.1515259415822739 0  0.1807733240461124 0.153844448527136 0  0.1742197252835808 0.15715869474974 0  0.1682222986673531 0.1613971801805478 0  0.162910430003803 0.1664684656256651 0  0.1583987151779087 0.1722631454351573 0  0.1547844879126891 0.178656207771761 0  0.1521457199348551 0.1855097315605723 0  0.1505393388476355 0.1926758619366523 0  0.1505393388476328 0.2073241380633295 0  0.1521457199348437 0.2144902684393899 0  0.1547844879126531 0.221343792228163 0  0.1583987151778488 0.2277368545647528 0  0.1629104300036858 0.2335315343742052 0  0.1682222986671726 0.2386028198193036 0  0.1742197252833576 0.2428413052501257 0  0.1807733240458683 0.2461555514727623 0  0.1877417105384929 0.2484740584176516 0  0.1949745518995776 0.2497468076502398 0  0.202315810036185 0.2499463414463592 0  0.2096071079201568 0.2490683551528932 0  0.2166911463435495 0.2471317900544655 0  0.2234150974215506 0.2441784247426195 0  0.2296339016331197 0.2402719738031125 0  0.2352133972703547 0.2354967132658811 0  0.2400332147833751 0.2299556624715287 0  0.2439893735792577 0.2237683615780412 0  0.246996525252926 0.2170682926548348 0  0.25645809709277 0.21 0  0.2639263993298655 0.21 0  0.271394701566961 0.21 0  0.2788630038040554 0.21 0  0.2863313060411479 0.21 0  0.2937996082782405 0.21 0  0.301267910515333 0.21 0  0.3087362127524279 0.21 0  0.3162045149895234 0.21 0  0.3236728172265972 0.21 0  0.3311411194636928 0.21 0  0.3386094217007701 0.21 0  0.3460777239378666 0.21 0  0.3535460261749672 0.21 0  0.3610143284120516 0.21 0  0.3684826306491596 0.21 0  0.3759509328862226 0.21 0  0.383419235123329 0.21 0  0.3908875373604028 0.21 0  0.3983558395975142 0.21 0  0.4058241418345938 0.21 0  0.4132924440716992 0.21 0  0.4207607463087888 0.21 0  0.4282290485459029 0.21 0  0.4356973507830418 0.21 0  0.4431656530201649 0.21 0  0.4506339552573136 0.21 0  0.4581022574944306 0.21 0  0.4655705597315852 0.21 0  0.4730388619686996 0.21 0  0.480507164205851 0.21 0  0.4879754664429498 0.21 0  0.4954437686800938 0.21 0  0.502912070917267 0.21 0  0.5103803731544119 0.21 0  0.5178486753915261 0.21 0  0.5253169776286404 0.21 0  0.5327852798657868 0.21 0  0.5402535821029386 0.21 0  0.54772188434007 0.21 0  0.5551901865771842 0.21 0  0.5626584888143201 0.21 0  0.5701267910514778 0.21 0  0.5775950932886138 0.21 0  0.5850633955257281 0.21 0  0.5925316977628483 0.21 0  0.6 0.2050000000000054 0  0.6 0.1950000000000217 0  0.5925316977628897 0.19 0  0.5850633955257988 0.19 0  0.5775950932887378 0.19 0  0.5701267910515998 0.19 0  0.5626584888145268 0.19 0  0.5551901865773963 0.19 0  0.547721884340339 0.19 0  0.5402535821032429 0.19 0  0.5327852798661811 0.19 0  0.5253169776290537 0.19 0  0.5178486753919799 0.19 0  0.5103803731549078 0.19 0  0.502912070917822 0.19 0  0.4954437686807294 0.19 0  0.4879754664436223 0.19 0  0.4805071642065402 0.19 0  0.4730388619694271 0.19 0  0.4655705597323621 0.19 0  0.4581022574952563 0.19 0  0.4506339552581777 0.19 0  0.4431656530210671 0.19 0  0.4356973507839815 0.19 0  0.4282290485468779 0.19 0  0.4207607463097617 0.19 0  0.4132924440726327 0.19 0  0.4058241418354857 0.19 0  0.3983558395983636 0.19 0  0.3908875373612097 0.19 0  0.3834192351240934 0.19 0  0.3759509328869369 0.19 0  0.3684826306498175 0.19 0  0.361014328412667 0.19 0  0.3535460261755617 0.19 0  0.3460777239384295 0.19 0  0.3386094217012945 0.19 0  0.3311411194641595 0.19 0  0.3236728172270245 0.19 0  0.3162045149898895 0.19 0  0.3087362127527544 0.19 0  0.3012679105156187 0.19 0  0.2937996082784807 0.19 0  0.2863313060413428 0.19 0  0.2788630038042048 0.19 0  0.2713947015670686 0.19 0  0.2639263993299336 0.19 0  0.2564580970927985 0.19 0  0.2607803159922026 0.2000727136295815 0  0.5887803774232762 0.2001272386983733 0  0.5745072403740523 0.2002044435018727 0  0.5511891430099709 0.2001122610077113 0  0.2751288526855082 0.20000000000002 0  0.5365194309847112 0.1999999999999436 0  0.2894621222999649 0.1998691686390484 0  0.5215828265105155 0.1999999999999228 0  0.3127789816668748 0.1998657885438805 0  0.3274069683451451 0.2000000000000796 0  0.5066462220363641 0.199999999999908 0  0.3650630746574081 0.199866017807523 0  0.476773013087985 0.1999999999998713 0  0.3417402379596385 0.1998691686391011 0  0.3796850840047755 0.200000000000134 0  0.4618364086138087 0.1999999999998546 0  0.4917096175621762 0.1999999999998808 0  0.3946216884789568 0.2000000000001512 0  0.446899804139621 0.1999999999998389 0  0.4089549580935208 0.1998691686391595 0  0.4322718174608562 0.200127451265745 0  0.4201487168029707 0.1999966199048527 0  0.3528922713220932 0.2000185703532356 0  0.5633122436674589 0.1999814296467508 0  0.3006558810093873 0.1999966199048318 0  0.5815926498168407 0.1966545283159175 0  0.2677053789419034 0.1964246479135325 0  0.5290511287476175 0.1970915826863981 0  0.5439877332217911 0.197091582686394 0  0.2825131256993216 0.2035478995978015 0  0.3199386661080599 0.202908417313604 0  0.4842413153250809 0.1970915826863873 0  0.5141145242734466 0.1970915826863843 0  0.3722167817676917 0.2029084173136195 0  0.4693047108508938 0.1970915826863783 0  0.3348752705822316 0.202908417313609 0  0.3871533862418661 0.2029084173136212 0  0.4543681063767183 0.1970915826863795 0  0.4991779197992749 0.1970915826863902 0  0.4020059614928624 0.203547899597858 0  0.4394315019025246 0.1970915826863714 0  0.2550657455369551 0.2034088125358657 0  0.2548908499171161 0.1966940311614271 0  0.5946539510196798 0.2024302972968126 0  0.267698176732111 0.2039977513680092 0  0.4261685417851465 0.196409292431739 0  0.3590076176283495 0.196411355804271 0  0.5571672426447437 0.2036011176410121 0  0.3066757059912147 0.1964092924317024 0  0.594380730180568 0.1966558399668133 0  0.4842413153245942 0.2040749161535287 0  0.4693047108503577 0.2040749161535231 0  0.3871533862424271 0.1959250838464788 0  0.372246743208829 0.1959123236376545 0  0.5141145242731028 0.2040749161535395 0  0.4543681063761134 0.2040749161535186 0  0.4019979587101454 0.1959834479682427 0  0.4394608940728603 0.2040870543693135 0  0.5439623148931173 0.2040856076781014 0  0.5290511287473298 0.2040749161535501 0  0.4991779197988497 0.2040749161535382 0  0.3347912413592433 0.1959225448935183 0  0.3199680582793816 0.1959123018030061 0  0.2825051229162361 0.1959834479681729 0  0.3590471196690275 0.2036304442587945 0  0.5571594006495384 0.1963685282145804 0  0.3067669986803285 0.203627750582736 0  0.4262598344738712 0.2036568242185335 0  0.5814408164431408 0.2041285596160068 0  0.5688286748170428 0.1961819304477386 0  0.4145905603063645 0.2038180695522843 0  0.3473758401724931 0.2038180695522752 0  0.2950977245128307 0.2038180695522663 0  0.5688286748170693 0.203818069552238 0  0.2950977245127906 0.1961819304477774 0  0.3473758401723931 0.1961819304478349 0  0.4145905603061963 0.1961819304479011 0  0.2601812407614425 0.2056861609747042
[...]
<PointData  Vectors="f_40-1"> 
<DataArray  type="Float64"  Name="f_40-1"  NumberOfComponents="3" format="ascii">0.0000000000000000e+00 0.0000000000000000e+00 0.0000000000000000e+00  0.0000000000000000e+00 0.0000000000000000e+00 0.0000000000000000e+00  0.0000000000000000e+00 0.0000000000000000e+00 0.0000000000000000e+00  0.0000000000000000e+00 0.0000000000000000e+00 0.0000000000000000e+00  -3.6004266605141341e-05 -2.4342427758823113e-04 0.0000000000000000e+00  2.3549863257532264e-07 -2.4747444982809846e-04 0.0000000000000000e+00  0.0000000000000000e+00 0.0000000000000000e+00 0.0000000000000000e+00  0.0000000000000000e+00 0.0000000000000000e+00 0.0000000000000000e+00  0.0000000000000000e+00 0.0000000000000000e+00 0.0000000000000000e+00  0.0000000000000000e+00 0.0000000000000000e+00 0.0000000000000000e+00  -1.8345100666571885e-05 -2.4543835610513166e-04 0.0000000000000000e+00  0.0000000000000000e+00 0.0000000000000000e+00 0.0000000000000000e+00  0.0000000000000000e+00 0.0000000000000000e+00 0.0000000000000000e+00  0.0000000000000000e+00 0.0000000000000000e+00 0.0000000000000000e+00  0.0000000000000000e+00 0.0000000000000000e+00 0.0000000000000000e+00  0.0000000000000000e+00 0.0000000000000000e+00 0.0000000000000000e+00  0.0000000000000000e+00 0.0000000000000000e+00 0.0000000000000000e+00  0.0000000000000000e+00 0.0000000000000000e+00 0.0000000000000000e+00  0.0000000000000000e+00 0.0000000000000000e+00 0.0000000000000000e+00  0.0000000000000000e+00 0.0000000000000000e+00 0.0000000000000000e+00  0.0000000000000000e+00 0.0000000000000000e+00 0.0000000000000000e+00  0.0000000000000000e+00 0.0000000000000000e+00 0.0000000000000000e+00  0.0000000000000000e+00 0.0000000000000000e+00 0.0000000000000000e+00  0.0000000000000000e+00 0.0000000000000000e+00 0.0000000000000000e+00  0.0000000000000000e+00 0.0000000000000000e+00 0.0000000000000000e+00  0.0000000000000000e+00 0.0000000000000000e+00 0.0000000000000000e+00  0.0000000000000000e+00 0.0000000000000000e+00 0.0000000000000000e+00  0.0000000000000000e+00 0.0000000000000000e+00 0.0000000000000000e+00  0.0000000000000000e+00 0.0000000000000000e+00 0.0000000000000000e+00  0.0000000000000000e+00 0.0000000000000000e+00 0.0000000000000000e+00  0.0000000000000000e+00 0.0000000000000000e+00 0.0000000000000000e+00  0.0000000000000000e+00 0.0000000000000000e+00 0.0000000000000000e+00  0.0000000000000000e+00 0.0000000000000000e+00 0.0000000000000000e+00  0.0000000000000000e+00 0.0000000000000000e+00 0.0000000000000000e+00  0.0000000000000000e+00 0.0000000000000000e+00 0.0000000000000000e+00  0.0000000000000000e+00 0.0000000000000000e+00 0.0000000000000000e+00  0.0000000000000000e+00 0.0000000000000000e+00 0.0000000000000000e+00  0.0000000000000000e+00 0.0000000000000000e+00 0.0000000000000000e+00  0.0000000000000000e+00 0.0000000000000000e+00 0.0000000000000000e+00  0.0000000000000000e+00 0.0000000000000000e+00 0.0000000000000000e+00  0.0000000000000000e+00 0.0000000000000000e+00 0.0000000000000000e+00  0.0000000000000000e+00 0.0000000000000000e+00 0.0000000000000000e+00  0.0000000000000000e+00 0.0000000000000000e+00 0.0000000000000000e+00  0.0000000000000000e+00 0.0000000000000000e+00 0.0000000000000000e+00  0.0000000000000000e+00 0.0000000000000000e+00 0.0000000000000000e+00  0.0000000000000000e+00 0.0000000000000000e+00 0.0000000000000000e+00  0.0000000000000000e+00 0.0000000000000000e+00 0.0000000000000000e+00  0.0000000000000000e+00 0.0000000000000000e+00 0.0000000000000000e+00  0.0000000000000000e+00 0.0000000000000000e+00 0.0000000000000000e+00  0.0000000000000000e+00 0.0000000000000000e+00 0.0000000000000000e+00  0.0000000000000000e+00 0.0000000000000000e+00 0.0000000000000000e+00  0.0000000000000000e+00 0.0000000000000000e+00 0.0000000000000000e+00  0.0000000000000000e+00 0.0000000000000000e+00 0.0000000000000000e+00  0.0000000000000000e+00 0.0000000000000000e+00 0.0000000000000000e+00  0.0000000000000000e+00 0.0000000000000000e+00 0.0000000000000000e+00  0.0000000000000000e+00 0.0000000000000000e+00 0.0000000000000000e+00  0.0000000000000000e+00 0.0000000000000000e+00 0.0000000000000000e+00  0.0000000000000000e+00 0.0000000000000000e+00 0.0000000000000000e+00  0.0000000000000000e+00 0.0000000000000000e+00 0.0000000000000000e+00  0.0000000000000000e+00 0.0000000000000000e+00 0.0000000000000000e+00  0.0000000000000000e+00 0.0000000000000000e+00 0.0000000000000000e+00  0.0000000000000000e+00 0.0000000000000000e+00 0.0000000000000000e+00  0.0000000000000000e+00 0.0000000000000000e+00 0.0000000000000000e+00  0.0000000000000000e+00 0.0000000000000000e+00 0.0000000000000000e+00  0.0000000000000000e+00 0.0000000000000000e+00 0.0000000000000000e+00  0.0000000000000000e+00 0.0000000000000000e+00 0.0000000000000000e+00  0.0000000000000000e+00 0.0000000000000000e+00 0.0000000000000000e+00  0.0000000000000000e+00 0.0000000000000000e+00 0.0000000000000000e+00  0.0000000000000000e+00 0.0000000000000000e+00 0.0000000000000000e+00  0.0000000000000000e+00 0.0000000000000000e+00 0.0000000000000000e+00  0.0000000000000000e+00 0.0000000000000000e+00 0.0000000000000000e+00  0.0000000000000000e+00 0.0000000000000000e+00 0.0000000000000000e+00  0.0000000000000000e+00 0.0000000000000000e+00 0.0000000000000000e+00  0.0000000000000000e+00 0.0000000000000000e+00 0.0000000000000000e+00  0.0000000000000000e+00 0.0000000000000000e+00 0.0000000000000000e+00  0.0000000000000000e+00 0.0000000000000000e+00 0.0000000000000000e+00  0.0000000000000000e+00 0.0000000000000000e+00 0.0000000000000000e+00  0.0000000000000000e+00 0.0000000000000000e+00 0.0000000000000000e+00  0.0000000000000000e+00 0.0000000000000000e+00 0.0000000000000000e+00  0.0000000000000000e+00 0.0000000000000000e+00 0.0000000000000000e+00  0.0000000000000000e+00 0.0000000000000000e+00 0.0000000000000000e+00  0.0000000000000000e+00 0.0000000000000000e+00 0.0000000000000000e+00  0.0000000000000000e+00 0.0000000000000000e+00 0.0000000000000000e+00  0.0000000000000000e+00 0.0000000000000000e+00 0.0000000000000000e+00  0.0000000000000000e+00 0.0000000000000000e+00 0.0000000000000000e+00  0.0000000000000000e+00 0.0000000000000000e+00 0.0000000000000000e+00  0.0000000000000000e+00 0.0000000000000000e+00 0.0000000000000000e+00  0.0000000000000000e+00 0.0000000000000000e+00 0.0000000000000000e+00  0.0000000000000000e+00 0.0000000000000000e+00 0.0000000000000000e+00  0.0000000000000000e+00 0.0000000000000000e+00 0.0000000000000000e+00  0.0000000000000000e+00 0.0000000000000000e+00 0.0000000000000000e+00  0.0000000000000000e+00 0.0000000000000000e+00 0.0000000000000000e+00  0.0000000000000000e+00 0.0000000000000000e+00 0.0000000000000000e+00  0.0000000000000000e+00 0.0000000000000000e+00 0.0000000000000000e+00  0.0000000000000000e+00 0.0000000000000000e+00 0.0000000000000000e+00  0.0000000000000000e+00 0.0000000000000000e+00 0.0000000000000000e+00  0.0000000000000000e+00 0.0000000000000000e+00 0.0000000000000000e+00  0.0000000000000000e+00 0.0000000000000000e+00 0.0000000000000000e+00  0.0000000000000000e+00 0.0000000000000000e+00 0.0000000000000000e+00  0.0000000000000000e+00 0.0000000000000000e+00 0.0000000000000000e+00  0.0000000000000000e+00 0.0000000000000000e+00 0.0000000000000000e+00  0.0000000000000000e+00 0.0000000000000000e+00 0.0000000000000000e+00  0.0000000000000000e+00 0.0000000000000000e+00 0.0000000000000000e+00  0.0000000000000000e+00 0.0000000000000000e+00 0.0000000000000000e+00  0.0000000000000000e+00 0.0000000000000000e+00 0.0000000000000000e+00  0.0000000000000000e+00 0.0000000000000000e+00 0.0000000000000000e+00  0.0000000000000000e+00 0.0000000000000000e+00 0.0000000000000000e+00  0.0000000000000000e+00 0.0000000000000000e+00 0.0000000000000000e+00  0.0000000000000000e+00 0.0000000000000000e+00 0.0000000000000000e+00  0.0000000000000000e+00 0.0000000000000000e+00 0.0000000000000000e+00  0.0000000000000000e+00 0.0000000000000000e+00 0.0000000000000000e+00  0.0000000000000000e+00 0.0000000000000000e+00 0.0000000000000000e+00  0.0000000000000000e+00 0.0000000000000000e+00 0.0000000000000000e+00  0.0000000000000000e+00 0.0000000000000000e+00 0.0000000000000000e+00  0.0000000000000000e+00 0.0000000000000000e+00 0.0000000000000000e+00  0.0000000000000000e+00 0.0000000000000000e+00 0.0000000000000000e+00  0.0000000000000000e+00 0.0000000000000000e+00 0.0000000000000000e+00  0.0000000000000000e+00 0.0000000000000000e+00 0.0000000000000000e+00  0.0000000000000000e+00 0.0000000000000000e+00 0.0000000000000000e+00  0.0000000000000000e+00 0.0000000000000000e+00 0.0000000000000000e+00  0.0000000000000000e+00 0.0000000000000000e+00 0.0000000000000000e+00  0.0000000000000000e+00 0.0000000000000000e+00 0.0000000000000000e+00  0.0000000000000000e+00 0.0000000000000000e+00 0.0000000000000000e+00  0.0000000000000000e+00 0.0000000000000000e+00 0.0000000000000000e+00  0.0000000000000000e+00 0.0000000000000000e+00 0.0000000000000000e+00  0.0000000000000000e+00 0.0000000000000000e+00 0.0000000000000000e+00  0.0000000000000000e+00 0.0000000000000000e+00 0.0000000000000000e+00  0.0000000000000000e+00 0.0000000000000000e+00 0.0000000000000000e+00  0.0000000000000000e+00 0.0000000000000000e+00 0.0000000000000000e+00  0.0000000000000000e+00 0.0000000000000000e+00 0.0000000000000000e+00  0.0000000000000000e+00 0.0000000000000000e+00 0.0000000000000000e+00  0.0000000000000000e+00 0.0000000000000000e+00 0.0000000000000000e+00  0.0000000000000000e+00 0.0000000000000000e+00 0.0000000000000000e+00  0.0000000000000000e+00 0.0000000000000000e+00 0.0000000000000000e+00  0.0000000000000000e+00 0.0000000000000000e+00 0.0000000000000000e+00  0.0000000000000000e+00 0.0000000000000000e+00 0.0000000000000000e+00  0.0000000000000000e+00 0.0000000000000000e+00 0.0000000000000000e+00  0.0000000000000000e+00 0.0000000000000000e+00 0.0000000000000000e+00  0.0000000000000000e+00 0.0000000000000000e+00 0.0000000000000000e+00  0.0000000000000000e+00 0.0000000000000000e+00 0.0000000000000000e+00  0.0000000000000000e+00 0.0000000000000000e+00 0.0000000000000000e+00  0.0000000000000000e+00 0.0000000000000000e+00 0.0000000000000000e+00  0.0000000000000000e+00 0.0000000000000000e+00 0.0000000000000000e+00  -2.0377754033381288e-06 -6.5772553470378607e-07 0.0000000000000000e+00  -3.9858095757477638e-06 1.0936436570833365e-06 0.0000000000000000e+00  -5.4382974120277526e-06 3.6962347399512466e-06 0.0000000000000000e+00  -6.6712316443515295e-06 7.1354984543068218e-06 0.0000000000000000e+00  -7.5434175032536687e-06 1.0912811350486618e-05 0.0000000000000000e+00  -8.2320103322517254e-06 1.5021648415160533e-05 0.0000000000000000e+00  -8.6939837933002809e-06 1.9221109912008122e-05 0.0000000000000000e+00  -8.9620022617677417e-06 2.3419513546772419e-05 0.0000000000000000e+00  -9.0261995949802815e-06 2.7500640424990912e-05 0.0000000000000000e+00  -8.9810753717356024e-06 3.1299464646375689e-05 0.0000000000000000e+00  -8.6586328738352208e-06 3.4767345433940472e-05 0.0000000000000000e+00  -8.3501712169913512e-06 3.7725876983436279e-05 0.0000000000000000e+00  -7.7445355163855717e-06 4.0145320538181842e-05 0.0000000000000000e+00  -7.2105123631275690e-06 4.2015909710225075e-05 0.0000000000000000e+00  -6.5728601305821177e-06 4.3110514904837428e-05 0.0000000000000000e+00  -5.6826359937757696e-06 4.3544564395231080e-05 0.0000000000000000e+00  -4.9702491890367967e-06 4.3189309671405858e-05 0.0000000000000000e+00  -3.9437259831938172e-06 4.2036876609137352e-05 0.0000000000000000e+00  -3.1738463013137903e-06 4.0041509500427029e-05 0.0000000000000000e+00  -2.1256284196829088e-06 3.7255405722771902e-05 0.0000000000000000e+00  -1.2915002957769403e-06 3.3595323182469494e-05 0.0000000000000000e+00  -2.6756021144687671e-07 2.9080687323658254e-05 0.0000000000000000e+00  5.2158191091754615e-07 2.3886401992891243e-05 0.0000000000000000e+00  1.2984287098605592e-06 1.7784974257786673e-05 0.0000000000000000e+00  2.2082416652014572e-06 1.1048938248746068e-05 0.0000000000000000e+00  2.9288704649923533e-06 3.5278761957381472e-06 0.0000000000000000e+00  3.6577286503946721e-06 -4.6808658985870211e-06 0.0000000000000000e+00  4.2577171180465906e-06 -1.3502704092051185e-05 0.0000000000000000e+00  4.8446139226664638e-06 -2.2957840091094567e-05 0.0000000000000000e+00  5.2998852673875513e-06 -3.2930372854365050e-05 0.0000000000000000e+00  5.7254044261436983e-06 -4.3453392980036220e-05 0.0000000000000000e+00  6.0200471324075790e-06 -5.4399283650686759e-05 0.0000000000000000e+00  6.2701810519638300e-06 -6.5808139979319129e-05 0.0000000000000000e+00  6.3951072046579916e-06 -7.7545853001523328e-05 0.0000000000000000e+00  6.4610116616262626e-06 -8.9661374276565314e-05 0.0000000000000000e+00  6.4059333080515259e-06 -1.0201474667937053e-04 0.0000000000000000e+00  6.2845964171123445e-06 -1.1466191007602808e-04 0.0000000000000000e+00  6.0493724251026065e-06 -1.2746618156624987e-04 0.0000000000000000e+00  5.7410312073918078e-06 -1.4049017865430099e-04 0.0000000000000000e+00  5.3226729341964551e-06 -1.5359904140317730e-04 0.0000000000000000e+00  4.8210750787846463e-06 -1.6685694395919646e-04 0.0000000000000000e+00  4.2258014147312957e-06 -1.8015878145130162e-04 0.0000000000000000e+00  3.5359929328331148e-06 -1.9353235852382302e-04 0.0000000000000000e+00  2.7988394785008400e-06 -2.0693070548760947e-04 0.0000000000000000e+00  1.9530159658956886e-06 -2.2032201824096395e-04 0.0000000000000000e+00  1.0663770391907403e-06 -2.3377733635619741e-04 0.0000000000000000e+00  -9.2181995779028784e-06 -2.4645410372856719e-04 0.0000000000000000e+00  -2.7317412146762675e-05 -2.4443258325766791e-04 0.0000000000000000e+00  -3.5136930762374147e-05 -2.3004823381894622e-04 0.0000000000000000e+00  -3.4191147710738862e-05 -2.1645819458477878e-04 0.0000000000000000e+00  -3.3274687191451435e-05 -2.0284912219022301e-04 0.0000000000000000e+00  -3.2408541241494906e-05 -1.8930132427440671e-04 0.0000000000000000e+00  -3.1575598579198477e-05 -1.7579060525054776e-04 0.0000000000000000e+00  -3.0785934555650936e-05 -1.6235490980557419e-04 0.0000000000000000e+00  -2.9988024790338478e-05 -1.4900550431407264e-04 0.0000000000000000e+00  -2.9247552907170040e-05 -1.3575498419845982e-04 0.0000000000000000e+00  -2.8466188699972160e-05 -1.2267224496648901e-04 0.0000000000000000e+00  -2.7746534731820074e-05 -1.0974679266324430e-04 0.0000000000000000e+00  -2.6947748997593847e-05 -9.7052500371890411e-05 0.0000000000000000e+00  -2.6221397250533672e-05 -8.4596695166910840e-05 0.0000000000000000e+00  -2.5375696459972345e-05 -7.2446906271122780e-05 0.0000000000000000e+00  -2.4619714571966407e-05 -6.0625550706614327e-05 0.0000000000000000e+00  -2.3705565932050477e-05 -4.9192875589960961e-05 0.0000000000000000e+00  -2.2904405895096579e-05 -3.8181754549004644e-05 0.0000000000000000e+00  -2.1907739741262995e-05 -2.7645490449577662e-05 0.0000000000000000e+00  -2.1048630522547946e-05 -1.7625664008973289e-05 0.0000000000000000e+00  -1.9957443194635131e-05 -8.1669831526032041e-06 0.0000000000000000e+00  -1.9031537574983126e-05 6.8512714227016646e-07 0.0000000000000000e+00  -1.7838021848207245e-05 8.8879372193799236e-06 0.0000000000000000e+00  -1.6836943381845420e-05 1.6394105286951178e-05 0.0000000000000000e+00  -1.5568065530207350e-05 2.3164853594015665e-05 0.0000000000000000e+00  -1.4460287306603456e-05 2.9242605591703526e-05 0.0000000000000000e+00  -1.3333416845390160e-05 3.4412679443707699e-05 0.0000000000000000e+00  -1.1997788070872108e-05 3.8928043401158722e-05 0.0000000000000000e+00  -1.0788545945095136e-05 4.2530400771279296e-05 0.0000000000000000e+00  -9.4732155575215739e-06 4.5327598430911997e-05 0.0000000000000000e+00  -8.2503018256232737e-06 4.7274373921177856e-05 0.0000000000000000e+00  -6.9627597462149634e-06 4.8395796347023277e-05 0.0000000000000000e+00  -5.7749815898618482e-06 4.8737989429994036e-05 0.0000000000000000e+00  -4.4951832227087346e-06 4.8219533495000056e-05 0.0000000000000000e+00  -3.4285590493031540e-06 4.7090585153883604e-05 0.0000000000000000e+00  -2.4244903893369671e-06 4.5170972489780988e-05 0.0000000000000000e+00  -1.3456546565132676e-06 4.2736511692929611e-05 0.0000000000000000e+00  -4.5377969148217390e-07 3.9707711044081698e-05 0.0000000000000000e+00  3.7893048979441144e-07 3.6191853037348027e-05 0.0000000000000000e+00  1.0592159479086094e-06 3.2347378741674369e-05 0.0000000000000000e+00  1.6201576930129127e-06 2.8201883538113271e-05 0.0000000000000000e+00  2.0231283405430621e-06 2.3955071327541343e-05 0.0000000000000000e+00  2.2794416689603275e-06 1.9705105272466365e-05 0.0000000000000000e+00  2.3445847056338079e-06 1.5539609199245897e-05 0.0000000000000000e+00  2.2382198928933269e-06 1.1723282002915544e-05 0.0000000000000000e+00  1.8595731880237924e-06 8.3194571379424389e-06 0.0000000000000000e+00  1.4313300679365106e-06 5.5598212345778461e-06 0.0000000000000000e+00  7.2162279098559693e-07 3.4489144752754278e-06 0.0000000000000000e+00  -1.4082189274676878e-06 1.7314762626143409e-06 0.0000000000000000e+00  -1.6533734399952038e-05 -2.2512732858472485e-04 0.0000000000000000e+00  -1.4610746210359108e-05 -1.9932501825884613e-04 0.0000000000000000e+00  -1.2500808691397483e-05 -1.5742072127977304e-04 0.0000000000000000e+00  -1.9984238208154566e-06 7.2724314073372946e-06 0.0000000000000000e+00  -1.1552305525653143e-05 -1.3146832201013851e-04 0.0000000000000000e+00  -2.6903045642588422e-06 1.4795287839475763e-05 0.0000000000000000e+00  -1.0566595695794153e-05 -1.0568646391127425e-04 0.0000000000000000e+00  -3.7752965447513829e-06 2.8213845345307557e-05 0.0000000000000000e+00  -4.4314445246397858e-06 3.5792629424131073e-05 0.0000000000000000e+00  -9.7451593745091690e-06 -8.0817595319825197e-05 0.0000000000000000e+00  -5.6542187423474034e-06 4.6538138794913422e-05 0.0000000000000000e+00  -8.4945881602827813e-06 -3.5171335429755666e-05 0.0000000000000000e+00  -4.9039087242137509e-06 4.1729522190101591e-05 0.0000000000000000e+00  -6.0404602978942960e-06 4.5837081704612404e-05 0.0000000000000000e+00  -8.0177235090964651e-06 -1.5113586112891537e-05 0.0000000000000000e+00  -9.0623922021211885e-06 -5.7193889069181299e-05 0.0000000000000000e+00  -6.3984036665935549e-06 4.1925055284465166e-05 0.0000000000000000e+00  -7.6119348337432447e-06 2.6158126393567951e-06 0.0000000000000000e+00  -6.8020267846454679e-06 3.5051731208305981e-05 0.0000000000000000e+00  -7.1373309330561580e-06 1.7361029931841716e-05 0.0000000000000000e+00  -6.9796448934032480e-06 2.7393904268106971e-05 0.0000000000000000e+00  -5.3065587287166444e-06 4.4717788799930246e-05 0.0000000000000000e+00  -1.3871756005287150e-05 -1.7911174161093152e-04 0.0000000000000000e+00  -3.2956263541897086e-06 2.1219473582100898e-05 0.0000000000000000e+00  -2.1858718866792438e-05 -2.1144533017506840e-04 0.0000000000000000e+00  -5.1690036541393095e-07 5.0289907719699926e-06 0.0000000000000000e+00  -1.6014890899202354e-05 -1.1779537586216732e-04 0.0000000000000000e+00  -1.7218364661083478e-05 -1.4394272768423710e-04 0.0000000000000000e+00  -4.0288305590153735e-06 1.0199743739348147e-05 0.0000000000000000e+00  -5.5345179618274575e-06 3.1328271355176998e-05 0.0000000000000000e+00  -1.3001086619637803e-05 -4.5238887884505830e-05 0.0000000000000000e+00  -1.4931300727139569e-05 -9.2414569281090380e-05 0.0000000000000000e+00  -5.6816277713188215e-06 4.5737213301719677e-05 0.0000000000000000e+00  -1.2099734702340196e-05 -2.4150918994059776e-05 0.0000000000000000e+00  -5.8125212338965387e-06 3.8340628324530930e-05 0.0000000000000000e+00  -5.4534683265943792e-06 4.3460982377244135e-05 0.0000000000000000e+00  -1.1210109506009303e-05 -5.2126489050188199e-06 0.0000000000000000e+00  -1.3936523811531254e-05 -6.8113207037765760e-05 0.0000000000000000e+00  -4.8722966738334864e-06 3.7722387051913099e-05 0.0000000000000000e+00  -1.0324553744701026e-05 1.1218690772036089e-05 0.0000000000000000e+00  -1.1394807683744866e-06 3.4547800373766267e-08 0.0000000000000000e+00  -6.9080831658021938e-07 9.3317777770167710e-07 0.0000000000000000e+00  -1.3182515685966506e-05 -2.3620137500826160e-04 0.0000000000000000e+00  -2.8780059160334926e-06 3.2266698608904191e-06 0