<?xml version="1.0"?>
<VTKFile type="UnstructuredGrid"  version="0.1"  >
<UnstructuredGrid>
<Piece  NumberOfPoints="1419" NumberOfCells="2698">
<Points>
<DataArray  type="Float64"  NumberOfComponents="3"  format="ascii">0 0 0  0 0.41 0  2.5 0 0  2.5 0.41 0  0.6 0.19 0  0.6 0.21 0  0.25 0.2 0  0.15 0.2 0  0.2489897948556636 0.21 0  0.2489897948556636 0.19 0  0.6 0.2 0  0 0.3807142857143437 0  0 0.3514285714286952 0  0 0.3221428571430699 0  0 0.29285714285744 0  0 0.2635714285718054 0  0 0.2342857142861561 0  0 0.2050000000005308 0  0 0.175714285714732 0  0 0.1464285714289574 0  0 0.1171428571431897 0  0 0.08785714285737878 0  0 0.05857142857161107 0  0 0.02928571428580012 0  0.03015443760436003 0 0  0.06140001986583606 0 0  0.09377624077125973 0 0  0.1273239957535082 0 0  0.1620856860351972 0 0  0.1981052433264291 0 0  0.235428184091502 0 0  0.2741016576309132 0 0  0.3141745521465447 0 0  0.3556974926295285 0 0  0.3987229542472677 0 0  0.4433053055141081 0 0  0.4895008759286886 0 0  0.5373680609405097 0 0  0.5869673343216626 0 0  0.6383613676634521 0 0  0.6916151138468254 0 0  0.7467958595648856 0 0  0.8039733463919316 0 0  0.8632198139502143 0 0  0.9246101326867038 0 0  0.9882218810934433 0 0  1.054135445558498 0 0  1.122434100542598 0 0  1.193204177141305 0 0  1.266535089879536 0 0  1.342519516046404 0 0  1.421253448503939 0 0  1.502836389106271 0 0  1.587371439758838 0 0  1.674965418777374 0 0  1.765729001825544 0 0  1.859776908880082 0 0  1.957227977487062 0 0  2.058205329869943 0 0  2.162836591189951 0 0  2.271253957290865 0 0  2.383594446803425 0 0  2.5 0.1024999999997612 0  2.5 0.2049999999994743 0  2.5 0.3074999999997183 0  2.383594446803656 0.41 0  2.271253957291315 0.41 0  2.162836591190598 0.41 0  2.058205329870775 0.41 0  1.957227977488067 0.41 0  1.859776908881246 0.41 0  1.765729001826854 0.41 0  1.674965418778818 0.41 0  1.58737143976041 0.41 0  1.502836389107956 0.41 0  1.421253448505726 0.41 0  1.342519516048286 0.41 0  1.266535089881505 0.41 0  1.193204177143353 0.41 0  1.122434100544716 0.41 0  1.05413544556068 0.41 0  0.9882218810956305 0.41 0  0.9246101326886647 0.41 0  0.8632198139519631 0.41 0  0.8039733463934788 0.41 0  0.7467958595662458 0.41 0  0.6916151138480078 0.41 0  0.6383613676644679 0.41 0  0.5869673343225223 0.41 0  0.5373680609412221 0.41 0  0.4895008759292634 0.41 0  0.4433053055145528 0.41 0  0.3987229542475914 0.41 0  0.3556974926297398 0.41 0  0.3141745521466497 0.41 0  0.2741016576310038 0.41 0  0.2354281840915826 0.41 0  0.1981052433265003 0.41 0  0.1620856860352591 0.41 0  0.1273239957535623 0.41 0  0.09377624077128965 0.41 0  0.06140001986584975 0.41 0  0.03015443760436654 0.41 0  0.2497468076502589 0.2050254481002335 0  0.2497468076502614 0.1949745518997913 0  0.2469965252529372 0.1829317073451959 0  0.2439893735792749 0.1762316384219906 0  0.2400332147834255 0.1700443375285386 0  0.2352133972704371 0.1645032867342007 0  0.2296339016332438 0.1597280261969788 0  0.2234150974217223 0.1558215752574715 0  0.2166911463437691 0.1528682099456123 0  0.2096071079204251 0.1509316448471593 0  0.2023158100364996 0.1500536585536553 0  0.194974551899914 0.1502531923497262 0  0.1877417105387872 0.1515259415822739 0  0.1807733240461124 0.153844448527136 0  0.1742197252835808 0.15715869474974 0  0.1682222986673531 0.1613971801805478 0  0.162910430003803 0.1664684656256651 0  0.1583987151779087 0.1722631454351573 0  0.1547844879126891 0.178656207771761 0  0.1521457199348551 0.1855097315605723 0  0.1505393388476355 0.1926758619366523 0  0.1505393388476328 0.2073241380633295 0  0.1521457199348437 0.2144902684393899 0  0.1547844879126531 0.221343792228163 0  0.1583987151778488 0.2277368545647528 0  0.1629104300036858 0.2335315343742052 0  0.1682222986671726 0.2386028198193036 0  0.1742197252833576 0.2428413052501257 0  0.1807733240458683 0.2461555514727623 0  0.1877417105384929 0.2484740584176516 0  0.1949745518995776 0.2497468076502398 0  0.202315810036185 0.2499463414463592 0  0.2096071079201568 0.2490683551528932 0  0.2166911463435495 0.2471317900544655 0  0.2234150974215506 0.2441784247426195 0  0.2296339016331197 0.2402719738031125 0  0.2352133972703547 0.2354967132658811 0  0.2400332147833751 0.2299556624715287 0  0.2439893735792577 0.2237683615780412 0  0.246996525252926 0.2170682926548348 0  0.25645809709277 0.21 0  0.2639263993298655 0.21 0  0.271394701566961 0.21 0  0.2788630038040554 0.21 0  0.2863313060411479 0.21 0  0.2937996082782405 0.21 0  0.301267910515333 0.21 0  0.3087362127524279 0.21 0  0.3162045149895234 0.21 0  0.3236728172265972 0.21 0  0.3311411194636928 0.21 0  0.3386094217007701 0.21 0  0.3460777239378666 0.21 0  0.3535460261749672 0.21 0  0.3610143284120516 0.21 0  0.3684826306491596 0.21 0  0.3759509328862226 0.21 0  0.383419235123329 0.21 0  0.3908875373604028 0.21 0  0.3983558395975142 0.21 0  0.4058241418345938 0.21 0  0.4132924440716992 0.21 0  0.4207607463087888 0.21 0  0.4282290485459029 0.21 0  0.4356973507830418 0.21 0  0.4431656530201649 0.21 0  0.4506339552573136 0.21 0  0.4581022574944306 0.21 0  0.4655705597315852 0.21 0  0.4730388619686996 0.21 0  0.480507164205851 0.21 0  0.4879754664429498 0.21 0  0.4954437686800938 0.21 0  0.502912070917267 0.21 0  0.5103803731544119 0.21 0  0.5178486753915261 0.21 0  0.5253169776286404 0.21 0  0.5327852798657868 0.21 0  0.5402535821029386 0.21 0  0.54772188434007 0.21 0  0.5551901865771842 0.21 0  0.5626584888143201 0.21 0  0.5701267910514778 0.21 0  0.5775950932886138 0.21 0  0.5850633955257281 0.21 0  0.5925316977628483 0.21 0  0.6 0.2050000000000054 0  0.6 0.1950000000000217 0  0.5925316977628897 0.19 0  0.5850633955257988 0.19 0  0.5775950932887378 0.19 0  0.5701267910515998 0.19 0  0.5626584888145268 0.19 0  0.5551901865773963 0.19 0  0.547721884340339 0.19 0  0.5402535821032429 0.19 0  0.5327852798661811 0.19 0  0.5253169776290537 0.19 0  0.5178486753919799 0.19 0  0.5103803731549078 0.19 0  0.502912070917822 0.19 0  0.4954437686807294 0.19 0  0.4879754664436223 0.19 0  0.4805071642065402 0.19 0  0.4730388619694271 0.19 0  0.4655705597323621 0.19 0  0.4581022574952563 0.19 0  0.4506339552581777 0.19 0  0.4431656530210671 0.19 0  0.4356973507839815 0.19 0  0.4282290485468779 0.19 0  0.4207607463097617 0.19 0  0.4132924440726327 0.19 0  0.4058241418354857 0.19 0  0.3983558395983636 0.19 0  0.3908875373612097 0.19 0  0.3834192351240934 0.19 0  0.3759509328869369 0.19 0  0.3684826306498175 0.19 0  0.361014328412667 0.19 0  0.3535460261755617 0.19 0  0.3460777239384295 0.19 0  0.3386094217012945 0.19 0  0.3311411194641595 0.19 0  0.3236728172270245 0.19 0  0.3162045149898895 0.19 0  0.3087362127527544 0.19 0  0.3012679105156187 0.19 0  0.2937996082784807 0.19 0  0.2863313060413428 0.19 0  0.2788630038042048 0.19 0  0.2713947015670686 0.19 0  0.2639263993299336 0.19 0  0.2564580970927985 0.19 0  0.2607803159922026 0.2000727136295815 0  0.5887803774232762 0.2001272386983733 0  0.5745072403740523 0.2002044435018727 0  0.5511891430099709 0.2001122610077113 0  0.2751288526855082 0.20000000000002 0  0.5365194309847112 0.1999999999999436 0  0.2894621222999649 0.1998691686390484 0  0.5215828265105155 0.1999999999999228 0  0.3127789816668748 0.1998657885438805 0  0.3274069683451451 0.2000000000000796 0  0.5066462220363641 0.199999999999908 0  0.3650630746574081 0.199866017807523 0  0.476773013087985 0.1999999999998713 0  0.3417402379596385 0.1998691686391011 0  0.3796850840047755 0.200000000000134 0  0.4618364086138087 0.1999999999998546 0  0.4917096175621762 0.1999999999998808 0  0.3946216884789568 0.2000000000001512 0  0.446899804139621 0.1999999999998389 0  0.4089549580935208 0.1998691686391595 0  0.4322718174608562 0.200127451265745 0  0.4201487168029707 0.1999966199048527 0  0.3528922713220932 0.2000185703532356 0  0.5633122436674589 0.1999814296467508 0  0.3006558810093873 0.1999966199048318 0  0.5815926498168407 0.1966545283159175 0  0.2677053789419034 0.1964246479135325 0  0.5290511287476175 0.1970915826863981 0  0.5439877332217911 0.197091582686394 0  0.2825131256993216 0.2035478995978015 0  0.3199386661080599 0.202908417313604 0  0.4842413153250809 0.1970915826863873 0  0.5141145242734466 0.1970915826863843 0  0.3722167817676917 0.2029084173136195 0  0.4693047108508938 0.1970915826863783 0  0.3348752705822316 0.202908417313609 0  0.3871533862418661 0.2029084173136212 0  0.4543681063767183 0.1970915826863795 0  0.4991779197992749 0.1970915826863902 0  0.4020059614928624 0.203547899597858 0  0.4394315019025246 0.1970915826863714 0  0.2550657455369551 0.2034088125358657 0  0.2548908499171161 0.1966940311614271 0  0.5946539510196798 0.2024302972968126 0  0.267698176732111 0.2039977513680092 0  0.4261685417851465 0.196409292431739 0  0.3590076176283495 0.196411355804271 0  0.5571672426447437 0.2036011176410121 0  0.3066757059912147 0.1964092924317024 0  0.594380730180568 0.1966558399668133 0  0.4842413153245942 0.2040749161535287 0  0.4693047108503577 0.2040749161535231 0  0.3871533862424271 0.1959250838464788 0  0.372246743208829 0.1959123236376545 0  0.5141145242731028 0.2040749161535395 0  0.4543681063761134 0.2040749161535186 0  0.4019979587101454 0.1959834479682427 0  0.4394608940728603 0.2040870543693135 0  0.5439623148931173 0.2040856076781014 0  0.5290511287473298 0.2040749161535501 0  0.4991779197988497 0.2040749161535382 0  0.3347912413592433 0.1959225448935183 0  0.3199680582793816 0.1959123018030061 0  0.2825051229162361 0.1959834479681729 0  0.3590471196690275 0.2036304442587945 0  0.5571594006495384 0.1963685282145804 0  0.3067669986803285 0.203627750582736 0  0.4262598344738712 0.2036568242185335 0  0.5814408164431408 0.2041285596160068 0  0.5688286748170428 0.1961819304477386 0  0.4145905603063645 0.2038180695522843 0  0.3473758401724931 0.2038180695522752 0  0.2950977245128307 0.2038180695522663 0  0.5688286748170693 0.203818069552238 0  0.2950977245127906 0.1961819304477774 0  0.3473758401723931 0.1961819304478349 0  0.4145905603061963 0.1961819304479011 0  0.2601812407614425 0.2056861609747042
[...]
<PointData  Vectors="f_40-1"> 
<DataArray  type="Float64"  Name="f_40-1"  NumberOfComponents="3" format="ascii">0.0000000000000000e+00 0.0000000000000000e+00 0.0000000000000000e+00  0.0000000000000000e+00 0.0000000000000000e+00 0.0000000000000000e+00  0.0000000000000000e+00 0.0000000000000000e+00 0.0000000000000000e+00  0.0000000000000000e+00 0.0000000000000000e+00 0.0000000000000000e+00  4.5797575268779941e-05 2.2098654592089288e-03 0.0000000000000000e+00  -9.8341795685464903e-05 2.2080435172504324e-03 0.0000000000000000e+00  0.0000000000000000e+00 0.0000000000000000e+00 0.0000000000000000e+00  0.0000000000000000e+00 0.0000000000000000e+00 0.0000000000000000e+00  0.0000000000000000e+00 0.0000000000000000e+00 0.0000000000000000e+00  0.0000000000000000e+00 0.0000000000000000e+00 0.0000000000000000e+00  -2.6484930905175738e-05 2.2089536974530298e-03 0.0000000000000000e+00  0.0000000000000000e+00 0.0000000000000000e+00 0.0000000000000000e+00  0.0000000000000000e+00 0.0000000000000000e+00 0.0000000000000000e+00  0.0000000000000000e+00 0.0000000000000000e+00 0.0000000000000000e+00  0.0000000000000000e+00 0.0000000000000000e+00 0.0000000000000000e+00  0.0000000000000000e+00 0.0000000000000000e+00 0.0000000000000000e+00  0.0000000000000000e+00 0.0000000000000000e+00 0.0000000000000000e+00  0.0000000000000000e+00 0.0000000000000000e+00 0.0000000000000000e+00  0.0000000000000000e+00 0.0000000000000000e+00 0.0000000000000000e+00  0.0000000000000000e+00 0.0000000000000000e+00 0.0000000000000000e+00  0.0000000000000000e+00 0.0000000000000000e+00 0.0000000000000000e+00  0.0000000000000000e+00 0.0000000000000000e+00 0.0000000000000000e+00  0.0000000000000000e+00 0.0000000000000000e+00 0.0000000000000000e+00  0.0000000000000000e+00 0.0000000000000000e+00 0.0000000000000000e+00  0.0000000000000000e+00 0.0000000000000000e+00 0.0000000000000000e+00  0.0000000000000000e+00 0.0000000000000000e+00 0.0000000000000000e+00  0.0000000000000000e+00 0.0000000000000000e+00 0.0000000000000000e+00  0.0000000000000000e+00 0.0000000000000000e+00 0.0000000000000000e+00  0.0000000000000000e+00 0.0000000000000000e+00 0.0000000000000000e+00  0.0000000000000000e+00 0.0000000000000000e+00 0.0000000000000000e+00  0.0000000000000000e+00 0.0000000000000000e+00 0.0000000000000000e+00  0.0000000000000000e+00 0.0000000000000000e+00 0.0000000000000000e+00  0.0000000000000000e+00 0.0000000000000000e+00 0.0000000000000000e+00  0.0000000000000000e+00 0.0000000000000000e+00 0.0000000000000000e+00  0.0000000000000000e+00 0.0000000000000000e+00 0.0000000000000000e+00  0.0000000000000000e+00 0.0000000000000000e+00 0.0000000000000000e+00  0.0000000000000000e+00 0.0000000000000000e+00 0.0000000000000000e+00  0.0000000000000000e+00 0.0000000000000000e+00 0.0000000000000000e+00  0.0000000000000000e+00 0.0000000000000000e+00 0.0000000000000000e+00  0.0000000000000000e+00 0.0000000000000000e+00 0.0000000000000000e+00  0.0000000000000000e+00 0.0000000000000000e+00 0.0000000000000000e+00  0.0000000000000000e+00 0.0000000000000000e+00 0.0000000000000000e+00  0.0000000000000000e+00 0.0000000000000000e+00 0.0000000000000000e+00  0.0000000000000000e+00 0.0000000000000000e+00 0.0000000000000000e+00  0.0000000000000000e+00 0.0000000000000000e+00 0.0000000000000000e+00  0.0000000000000000e+00 0.0000000000000000e+00 0.0000000000000000e+00  0.0000000000000000e+00 0.0000000000000000e+00 0.0000000000000000e+00  0.0000000000000000e+00 0.0000000000000000e+00 0.0000000000000000e+00  0.0000000000000000e+00 0.0000000000000000e+00 0.0000000000000000e+00  0.0000000000000000e+00 0.0000000000000000e+00 0.0000000000000000e+00  0.0000000000000000e+00 0.0000000000000000e+00 0.0000000000000000e+00  0.0000000000000000e+00 0.0000000000000000e+00 0.0000000000000000e+00  0.0000000000000000e+00 0.0000000000000000e+00 0.0000000000000000e+00  0.0000000000000000e+00 0.0000000000000000e+00 0.0000000000000000e+00  0.0000000000000000e+00 0.0000000000000000e+00 0.0000000000000000e+00  0.0000000000000000e+00 0.0000000000000000e+00 0.0000000000000000e+00  0.0000000000000000e+00 0.0000000000000000e+00 0.0000000000000000e+00  0.0000000000000000e+00 0.0000000000000000e+00 0.0000000000000000e+00  0.0000000000000000e+00 0.0000000000000000e+00 0.0000000000000000e+00  0.0000000000000000e+00 0.0000000000000000e+00 0.0000000000000000e+00  0.0000000000000000e+00 0.0000000000000000e+00 0.0000000000000000e+00  0.0000000000000000e+00 0.0000000000000000e+00 0.0000000000000000e+00  0.0000000000000000e+00 0.0000000000000000e+00 0.0000000000000000e+00  0.0000000000000000e+00 0.0000000000000000e+00 0.0000000000000000e+00  0.0000000000000000e+00 0.0000000000000000e+00 0.0000000000000000e+00  0.0000000000000000e+00 0.0000000000000000e+00 0.0000000000000000e+00  0.0000000000000000e+00 0.0000000000000000e+00 0.0000000000000000e+00  0.0000000000000000e+00 0.0000000000000000e+00 0.0000000000000000e+00  0.0000000000000000e+00 0.0000000000000000e+00 0.0000000000000000e+00  0.0000000000000000e+00 0.0000000000000000e+00 0.0000000000000000e+00  0.0000000000000000e+00 0.0000000000000000e+00 0.0000000000000000e+00  0.0000000000000000e+00 0.0000000000000000e+00 0.0000000000000000e+00  0.0000000000000000e+00 0.0000000000000000e+00 0.0000000000000000e+00  0.0000000000000000e+00 0.0000000000000000e+00 0.0000000000000000e+00  0.0000000000000000e+00 0.0000000000000000e+00 0.0000000000000000e+00  0.0000000000000000e+00 0.0000000000000000e+00 0.0000000000000000e+00  0.0000000000000000e+00 0.0000000000000000e+00 0.0000000000000000e+00  0.0000000000000000e+00 0.0000000000000000e+00 0.0000000000000000e+00  0.0000000000000000e+00 0.0000000000000000e+00 0.0000000000000000e+00  0.0000000000000000e+00 0.0000000000000000e+00 0.0000000000000000e+00  0.0000000000000000e+00 0.0000000000000000e+00 0.0000000000000000e+00  0.0000000000000000e+00 0.0000000000000000e+00 0.0000000000000000e+00  0.0000000000000000e+00 0.0000000000000000e+00 0.0000000000000000e+00  0.0000000000000000e+00 0.0000000000000000e+00 0.0000000000000000e+00  0.0000000000000000e+00 0.0000000000000000e+00 0.0000000000000000e+00  0.0000000000000000e+00 0.0000000000000000e+00 0.0000000000000000e+00  0.0000000000000000e+00 0.0000000000000000e+00 0.0000000000000000e+00  0.0000000000000000e+00 0.0000000000000000e+00 0.0000000000000000e+00  0.0000000000000000e+00 0.0000000000000000e+00 0.0000000000000000e+00  0.0000000000000000e+00 0.0000000000000000e+00 0.0000000000000000e+00  0.0000000000000000e+00 0.0000000000000000e+00 0.0000000000000000e+00  0.0000000000000000e+00 0.0000000000000000e+00 0.0000000000000000e+00  0.0000000000000000e+00 0.0000000000000000e+00 0.0000000000000000e+00  0.0000000000000000e+00 0.0000000000000000e+00 0.0000000000000000e+00  0.0000000000000000e+00 0.0000000000000000e+00 0.0000000000000000e+00  0.0000000000000000e+00 0.0000000000000000e+00 0.0000000000000000e+00  0.0000000000000000e+00 0.0000000000000000e+00 0.0000000000000000e+00  0.0000000000000000e+00 0.0000000000000000e+00 0.0000000000000000e+00  0.0000000000000000e+00 0.0000000000000000e+00 0.0000000000000000e+00  0.0000000000000000e+00 0.0000000000000000e+00 0.0000000000000000e+00  0.0000000000000000e+00 0.0000000000000000e+00 0.0000000000000000e+00  0.0000000000000000e+00 0.0000000000000000e+00 0.0000000000000000e+00  0.0000000000000000e+00 0.0000000000000000e+00 0.0000000000000000e+00  0.0000000000000000e+00 0.0000000000000000e+00 0.0000000000000000e+00  0.0000000000000000e+00 0.0000000000000000e+00 0.0000000000000000e+00  0.0000000000000000e+00 0.0000000000000000e+00 0.0000000000000000e+00  0.0000000000000000e+00 0.0000000000000000e+00 0.0000000000000000e+00  0.0000000000000000e+00 0.0000000000000000e+00 0.0000000000000000e+00  0.0000000000000000e+00 0.0000000000000000e+00 0.0000000000000000e+00  0.0000000000000000e+00 0.0000000000000000e+00 0.0000000000000000e+00  0.0000000000000000e+00 0.0000000000000000e+00 0.0000000000000000e+00  0.0000000000000000e+00 0.0000000000000000e+00 0.0000000000000000e+00  0.0000000000000000e+00 0.0000000000000000e+00 0.0000000000000000e+00  0.0000000000000000e+00 0.0000000000000000e+00 0.0000000000000000e+00  0.0000000000000000e+00 0.0000000000000000e+00 0.0000000000000000e+00  0.0000000000000000e+00 0.0000000000000000e+00 0.0000000000000000e+00  0.0000000000000000e+00 0.0000000000000000e+00 0.0000000000000000e+00  0.0000000000000000e+00 0.0000000000000000e+00 0.0000000000000000e+00  0.0000000000000000e+00 0.0000000000000000e+00 0.0000000000000000e+00  0.0000000000000000e+00 0.0000000000000000e+00 0.0000000000000000e+00  0.0000000000000000e+00 0.0000000000000000e+00 0.0000000000000000e+00  0.0000000000000000e+00 0.0000000000000000e+00 0.0000000000000000e+00  0.0000000000000000e+00 0.0000000000000000e+00 0.0000000000000000e+00  0.0000000000000000e+00 0.0000000000000000e+00 0.0000000000000000e+00  0.0000000000000000e+00 0.0000000000000000e+00 0.0000000000000000e+00  0.0000000000000000e+00 0.0000000000000000e+00 0.0000000000000000e+00  0.0000000000000000e+00 0.0000000000000000e+00 0.0000000000000000e+00  0.0000000000000000e+00 0.0000000000000000e+00 0.0000000000000000e+00  0.0000000000000000e+00 0.0000000000000000e+00 0.0000000000000000e+00  0.0000000000000000e+00 0.0000000000000000e+00 0.0000000000000000e+00  0.0000000000000000e+00 0.0000000000000000e+00 0.0000000000000000e+00  0.0000000000000000e+00 0.0000000000000000e+00 0.0000000000000000e+00  0.0000000000000000e+00 0.0000000000000000e+00 0.0000000000000000e+00  0.0000000000000000e+00 0.0000000000000000e+00 0.0000000000000000e+00  0.0000000000000000e+00 0.0000000000000000e+00 0.0000000000000000e+00  0.0000000000000000e+00 0.0000000000000000e+00 0.0000000000000000e+00  0.0000000000000000e+00 0.0000000000000000e+00 0.0000000000000000e+00  0.0000000000000000e+00 0.0000000000000000e+00 0.0000000000000000e+00  0.0000000000000000e+00 0.0000000000000000e+00 0.0000000000000000e+00  0.0000000000000000e+00 0.0000000000000000e+00 0.0000000000000000e+00  0.0000000000000000e+00 0.0000000000000000e+00 0.0000000000000000e+00  0.0000000000000000e+00 0.0000000000000000e+00 0.0000000000000000e+00  0.0000000000000000e+00 0.0000000000000000e+00 0.0000000000000000e+00  -7.5913926770020806e-06 6.1267314455174217e-06 0.0000000000000000e+00  -1.5885963129786104e-05 1.4687258256888358e-05 0.0000000000000000e+00  -2.3013107831272423e-05 2.8213959559577560e-05 0.0000000000000000e+00  -3.0412655667077729e-05 4.6960830975273710e-05 0.0000000000000000e+00  -3.6443728810736387e-05 6.9751628159628009e-05 0.0000000000000000e+00  -4.2940065929601255e-05 9.6923840372821794e-05 0.0000000000000000e+00  -4.8065095072862351e-05 1.2715973824311218e-04 0.0000000000000000e+00  -5.2829247376814012e-05 1.6128193297202173e-04 0.0000000000000000e+00  -5.8008208831338728e-05 1.9820726272380264e-04 0.0000000000000000e+00  -6.1852385715362309e-05 2.3787236272502366e-04 0.0000000000000000e+00  -6.6207208171884053e-05 2.8015269105639444e-04 0.0000000000000000e+00  -6.9400922545438554e-05 3.2459755944718940e-04 0.0000000000000000e+00  -7.2855605632894563e-05 3.7106410682233532e-04 0.0000000000000000e+00  -7.5528096687427039e-05 4.1902770909589868e-04 0.0000000000000000e+00  -7.7942459028299346e-05 4.6870681144413009e-04 0.0000000000000000e+00  -8.0432674798120314e-05 5.1956845961039638e-04 0.0000000000000000e+00  -8.2268487689575836e-05 5.7149885845951857e-04 0.0000000000000000e+00  -8.4188190932857010e-05 6.2441969113797582e-04 0.0000000000000000e+00  -8.5598981492974679e-05 6.7802960841610517e-04 0.0000000000000000e+00  -8.7017685901793652e-05 7.3227967926750234e-04 0.0000000000000000e+00  -8.8111439537775124e-05 7.8696705647923813e-04 0.0000000000000000e+00  -8.9117501824254684e-05 8.4204439168231551e-04 0.0000000000000000e+00  -8.9929015748363997e-05 8.9731861753505860e-04 0.0000000000000000e+00  -9.0617661877528374e-05 9.5278792916781590e-04 0.0000000000000000e+00  -9.1239545934539449e-05 1.0083456994120076e-03 0.0000000000000000e+00  -9.1738805352650028e-05 1.0639246881667737e-03 0.0000000000000000e+00  -9.2161810657230363e-05 1.1195131652230767e-03 0.0000000000000000e+00  -9.2524775529885845e-05 1.1750132734961341e-03 0.0000000000000000e+00  -9.2826835140270099e-05 1.2304442765016413e-03 0.0000000000000000e+00  -9.3100466750485971e-05 1.2857444144783923e-03 0.0000000000000000e+00  -9.3330484375705252e-05 1.3409219244166287e-03 0.0000000000000000e+00  -9.3554513406894613e-05 1.3959459970994046e-03 0.0000000000000000e+00  -9.3753305107775913e-05 1.4508205042176078e-03 0.0000000000000000e+00  -9.3960759320998319e-05 1.5055396088138428e-03 0.0000000000000000e+00  -9.4156909329207986e-05 1.5601072519153725e-03 0.0000000000000000e+00  -9.4378585228443312e-05 1.6145407532394717e-03 0.0000000000000000e+00  -9.4603694253300480e-05 1.6688348898137330e-03 0.0000000000000000e+00  -9.4862050173367347e-05 1.7230257135407148e-03 0.0000000000000000e+00  -9.5133781328221142e-05 1.7771027759867293e-03 0.0000000000000000e+00  -9.5444457161311753e-05 1.8311148874654048e-03 0.0000000000000000e+00  -9.5778196611661037e-05 1.8850433315620934e-03 0.0000000000000000e+00  -9.6151641580878642e-05 1.9389381071950242e-03 0.0000000000000000e+00  -9.6554876628059284e-05 1.9927931892660742e-03 0.0000000000000000e+00  -9.6975386851729889e-05 2.0466344198174970e-03 0.0000000000000000e+00  -9.7436975177956608e-05 2.1004786067962047e-03 0.0000000000000000e+00  -9.7906984446629461e-05 2.1543025365810412e-03 0.0000000000000000e+00  -6.2482022368568101e-05 2.2084998232509440e-03 0.0000000000000000e+00  9.5888744470366993e-06 2.2094045918101802e-03 0.0000000000000000e+00  4.6235353858244031e-05 2.1559625207395786e-03 0.0000000000000000e+00  4.6721924320066459e-05 2.1021594950520516e-03 0.0000000000000000e+00  4.7210167411549789e-05 2.0483677501179146e-03 0.0000000000000000e+00  4.7693980817430413e-05 1.9945515947878962e-03 0.0000000000000000e+00  4.8175394873686299e-05 1.9407155737508209e-03 0.0000000000000000e+00  4.8661947361400448e-05 1.8868366564782904e-03 0.0000000000000000e+00  4.9170167588045151e-05 1.8329074434749353e-03 0.0000000000000000e+00  4.9669012061025459e-05 1.7789123983489314e-03 0.0000000000000000e+00  5.0208220816650261e-05 1.7248252366342247e-03 0.0000000000000000e+00  5.0729227171800104e-05 1.6706369198296719e-03 0.0000000000000000e+00  5.1302548353453971e-05 1.6163272525519968e-03 0.0000000000000000e+00  5.1849784726905212e-05 1.5618852647134153e-03 0.0000000000000000e+00  5.2455179788867596e-05 1.5072979307494906e-03 0.0000000000000000e+00  5.3022522011614004e-05 1.4525594649162311e-03 0.0000000000000000e+00  5.3642783980441755e-05 1.3976615462614086e-03 0.0000000000000000e+00  5.4215522613550189e-05 1.3426104402199015e-03 0.0000000000000000e+00  5.4827287107354630e-05 1.2874048085450771e-03 0.0000000000000000e+00  5.5386867240262955e-05 1.2320656178036729e-03 0.0000000000000000e+00  5.5961179625400459e-05 1.1766009267374850e-03 0.0000000000000000e+00  5.6483073706289493e-05 1.1210492965763054e-03 0.0000000000000000e+00  5.6978790516582670e-05 1.0654241814268127e-03 0.0000000000000000e+00  5.7428648339412979e-05 1.0097873267564943e-03 0.0000000000000000e+00  5.7792034422751730e-05 9.5417307023676649e-04 0.0000000000000000e+00  5.8112093752946916e-05 8.9864205987822646e-04 0.0000000000000000e+00  5.8356436186759883e-05 8.4330762212800380e-04 0.0000000000000000e+00  5.8438972036476733e-05 7.8815531263455064e-04 0.0000000000000000e+00  5.8442153621374133e-05 7.3340974594789771e-04 0.0000000000000000e+00  5.8238719766272517e-05 6.7906673505565098e-04 0.0000000000000000e+00  5.7932197833933528e-05 6.2539007154509458e-04 0.0000000000000000e+00  5.7357365254762315e-05 5.7238718597845794e-04 0.0000000000000000e+00  5.6668770050557587e-05 5.2032213966321462e-04 0.0000000000000000e+00  5.5489933591745297e-05 4.6944984370280042e-04 0.0000000000000000e+00  5.4399079058149450e-05 4.1966076064551254e-04 0.0000000000000000e+00  5.3080421842320745e-05 3.7163550435825616e-04 0.0000000000000000e+00  5.1106385631337337e-05 3.2493985636012295e-04 0.0000000000000000e+00  4.9084550424911487e-05 2.8046995686905208e-04 0.0000000000000000e+00  4.6507255011585789e-05 2.3806588545807557e-04 0.0000000000000000e+00  4.3845155634100000e-05 1.9818057469547359e-04 0.0000000000000000e+00  4.0222022416265318e-05 1.6131598346606128e-04 0.0000000000000000e+00  3.6980203084286145e-05 1.2704011748525186e-04 0.0000000000000000e+00  3.3420832064426096e-05 9.6710496816081046e-05 0.0000000000000000e+00  2.8601049174053270e-05 6.9317839919428795e-05 0.0000000000000000e+00  2.4009758038612610e-05 4.6353774681465666e-05 0.0000000000000000e+00  1.8190754624166540e-05 2.7775849451281207e-05 0.0000000000000000e+00  1.2827212643600363e-05 1.4103246823760138e-05 0.0000000000000000e+00  6.1258434027388723e-06 5.4685178698822752e-06 0.0000000000000000e+00  -1.1901015976846972e-06 6.4000099213247012e-06 0.0000000000000000e+00  -2.6603004396073389e-05 2.1280965954951917e-03 0.0000000000000000e+00  -2.6212977354492208e-05 2.0252444405526966e-03 0.0000000000000000e+00  -2.4181108255369104e-05 1.8570866671322446e-03 0.0000000000000000e+00  -2.7215123494053344e-06 3.3713739025888378e-05 0.0000000000000000e+00  -2.2566306104590460e-05 1.7510375873556511e-03 0.0000000000000000e+00  -3.8355863736263713e-06 7.7816358650226381e-05 0.0000000000000000e+00  -2.1770586994867816e-05 1.6426775541349208e-03 0.0000000000000000e+00  -6.0140784068345743e-06 1.7896228700340106e-04 0.0000000000000000e+00  -8.1105756221023434e-06 2.5730928724785929e-04 0.0000000000000000e+00  -2.0981769427209027e-05 1.5338160159325878e-03 0.0000000000000000e+00  -1.0655242558355556e-05 4.9570331014323153e-04 0.0000000000000000e+00  -1.9367336626807693e-05 1.3142708513539045e-03 0.0000000000000000e+00  -8.6731001463543828e-06 3.4278609348714146e-04 0.0000000000000000e+00  -1.2796029467426347e-05 5.9775857749790127e-04 0.0000000000000000e+00  -1.8517061648709791e-05 1.2036019096903444e-03 0.0000000000000000e+00  -2.0184843263501993e-05 1.4243583885720612e-03 0.0000000000000000e+00  -1.3990100666255398e-05 7.0525276835098837e-04 0.0000000000000000e+00  -1.7620732861845320e-05 1.0924954724270382e-03 0.0000000000000000e+00  -1.4110649031446665e-05 8.1040182162028936e-04 0.0000000000000000e+00  -1.7635292721408117e-05 9.8349799351420998e-04 0.0000000000000000e+00  -1.5840715654184230e-05 8.9333665493908441e-04 0.0000000000000000e+00  -1.0608185958348537e-05 4.1432415456114864e-04 0.0000000000000000e+00  -2.3940711952688076e-05 1.9445616226181890e-03 0.0000000000000000e+00  -5.4074605527352605e-06 1.2281453108949905e-04 0.0000000000000000e+00  -1.0758010687279668e-06 2.0765962373756799e-03 0.0000000000000000e+00  4.3668892434469612e-06 1.7799338333453759e-05 0.0000000000000000e+00  -1.0471720678745712e-06 1.6971652295759163e-03 0.0000000000000000e+00  -1.9232208907457585e-06 1.8053237968985759e-03 0.0000000000000000e+00  -1.3986434151824600e-05 5.5075202497717952e-05 0.0000000000000000e+00  -2.2679958123964971e-05 2.1627005554236781e-04 0.0000000000000000e+00  1.6526411075645464e-06 1.3696283784819293e-03 0.0000000000000000e+00  -1.6399661079618090e-07 1.5885642140603346e-03 0.0000000000000000e+00  -3.2289631554332460e-05 5.4512611021127202e-04 0.0000000000000000e+00  2.5849014940438828e-06 1.2592316753157749e-03 0.0000000000000000e+00  -2.5896657303859990e-05 3.0103629222323494e-04 0.0000000000000000e+00  -3.4169470464928528e-05 6.5109816733626108e-04 0.0000000000000000e+00  3.5268537436236404e-06 1.1483136492130919e-03 0.0000000000000000e+00  7.3543153793512928e-07 1.4794077371461222e-03 0.0000000000000000e+00  -4.0426814922397076e-05 7.5908598594197254e-04 0.0000000000000000e+00  4.4672201105459243e-06 1.0370696374263227e-03 0.0000000000000000e+00  -1.6947466027201115e-06 1.5899541873689228e-06 0.0000000000000000e+00  5.6784277621251786e-07 1.3079684040994321e-06 0.0000000000000000e+00  -4.3615366167986030e-05 2.1702279755470679e-03 0.0000000000000000e+00  -8.9074585754265650e-06 1.8037427125138223e-05 0.0000000000000000e+00  1.0354377532004517e-05 9.3832312846732458e-04 0.0000000000000