<?xml version="1.0"?>
<VTKFile type="UnstructuredGrid"  version="0.1"  >
<UnstructuredGrid>
<Piece  NumberOfPoints="1419" NumberOfCells="2698">
<Points>
<DataArray  type="Float64"  NumberOfComponents="3"  format="ascii">0 0 0  0 0.41 0  2.5 0 0  2.5 0.41 0  0.6 0.19 0  0.6 0.21 0  0.25 0.2 0  0.15 0.2 0  0.2489897948556636 0.21 0  0.2489897948556636 0.19 0  0.6 0.2 0  0 0.3807142857143437 0  0 0.3514285714286952 0  0 0.3221428571430699 0  0 0.29285714285744 0  0 0.2635714285718054 0  0 0.2342857142861561 0  0 0.2050000000005308 0  0 0.175714285714732 0  0 0.1464285714289574 0  0 0.1171428571431897 0  0 0.08785714285737878 0  0 0.05857142857161107 0  0 0.02928571428580012 0  0.03015443760436003 0 0  0.06140001986583606 0 0  0.09377624077125973 0 0  0.1273239957535082 0 0  0.1620856860351972 0 0  0.1981052433264291 0 0  0.235428184091502 0 0  0.2741016576309132 0 0  0.3141745521465447 0 0  0.3556974926295285 0 0  0.3987229542472677 0 0  0.4433053055141081 0 0  0.4895008759286886 0 0  0.5373680609405097 0 0  0.5869673343216626 0 0  0.6383613676634521 0 0  0.6916151138468254 0 0  0.7467958595648856 0 0  0.8039733463919316 0 0  0.8632198139502143 0 0  0.9246101326867038 0 0  0.9882218810934433 0 0  1.054135445558498 0 0  1.122434100542598 0 0  1.193204177141305 0 0  1.266535089879536 0 0  1.342519516046404 0 0  1.421253448503939 0 0  1.502836389106271 0 0  1.587371439758838 0 0  1.674965418777374 0 0  1.765729001825544 0 0  1.859776908880082 0 0  1.957227977487062 0 0  2.058205329869943 0 0  2.162836591189951 0 0  2.271253957290865 0 0  2.383594446803425 0 0  2.5 0.1024999999997612 0  2.5 0.2049999999994743 0  2.5 0.3074999999997183 0  2.383594446803656 0.41 0  2.271253957291315 0.41 0  2.162836591190598 0.41 0  2.058205329870775 0.41 0  1.957227977488067 0.41 0  1.859776908881246 0.41 0  1.765729001826854 0.41 0  1.674965418778818 0.41 0  1.58737143976041 0.41 0  1.502836389107956 0.41 0  1.421253448505726 0.41 0  1.342519516048286 0.41 0  1.266535089881505 0.41 0  1.193204177143353 0.41 0  1.122434100544716 0.41 0  1.05413544556068 0.41 0  0.9882218810956305 0.41 0  0.9246101326886647 0.41 0  0.8632198139519631 0.41 0  0.8039733463934788 0.41 0  0.7467958595662458 0.41 0  0.6916151138480078 0.41 0  0.6383613676644679 0.41 0  0.5869673343225223 0.41 0  0.5373680609412221 0.41 0  0.4895008759292634 0.41 0  0.4433053055145528 0.41 0  0.3987229542475914 0.41 0  0.3556974926297398 0.41 0  0.3141745521466497 0.41 0  0.2741016576310038 0.41 0  0.2354281840915826 0.41 0  0.1981052433265003 0.41 0  0.1620856860352591 0.41 0  0.1273239957535623 0.41 0  0.09377624077128965 0.41 0  0.06140001986584975 0.41 0  0.03015443760436654 0.41 0  0.2497468076502589 0.2050254481002335 0  0.2497468076502614 0.1949745518997913 0  0.2469965252529372 0.1829317073451959 0  0.2439893735792749 0.1762316384219906 0  0.2400332147834255 0.1700443375285386 0  0.2352133972704371 0.1645032867342007 0  0.2296339016332438 0.1597280261969788 0  0.2234150974217223 0.1558215752574715 0  0.2166911463437691 0.1528682099456123 0  0.2096071079204251 0.1509316448471593 0  0.2023158100364996 0.1500536585536553 0  0.194974551899914 0.1502531923497262 0  0.1877417105387872 0.1515259415822739 0  0.1807733240461124 0.153844448527136 0  0.1742197252835808 0.15715869474974 0  0.1682222986673531 0.1613971801805478 0  0.162910430003803 0.1664684656256651 0  0.1583987151779087 0.1722631454351573 0  0.1547844879126891 0.178656207771761 0  0.1521457199348551 0.1855097315605723 0  0.1505393388476355 0.1926758619366523 0  0.1505393388476328 0.2073241380633295 0  0.1521457199348437 0.2144902684393899 0  0.1547844879126531 0.221343792228163 0  0.1583987151778488 0.2277368545647528 0  0.1629104300036858 0.2335315343742052 0  0.1682222986671726 0.2386028198193036 0  0.1742197252833576 0.2428413052501257 0  0.1807733240458683 0.2461555514727623 0  0.1877417105384929 0.2484740584176516 0  0.1949745518995776 0.2497468076502398 0  0.202315810036185 0.2499463414463592 0  0.2096071079201568 0.2490683551528932 0  0.2166911463435495 0.2471317900544655 0  0.2234150974215506 0.2441784247426195 0  0.2296339016331197 0.2402719738031125 0  0.2352133972703547 0.2354967132658811 0  0.2400332147833751 0.2299556624715287 0  0.2439893735792577 0.2237683615780412 0  0.246996525252926 0.2170682926548348 0  0.25645809709277 0.21 0  0.2639263993298655 0.21 0  0.271394701566961 0.21 0  0.2788630038040554 0.21 0  0.2863313060411479 0.21 0  0.2937996082782405 0.21 0  0.301267910515333 0.21 0  0.3087362127524279 0.21 0  0.3162045149895234 0.21 0  0.3236728172265972 0.21 0  0.3311411194636928 0.21 0  0.3386094217007701 0.21 0  0.3460777239378666 0.21 0  0.3535460261749672 0.21 0  0.3610143284120516 0.21 0  0.3684826306491596 0.21 0  0.3759509328862226 0.21 0  0.383419235123329 0.21 0  0.3908875373604028 0.21 0  0.3983558395975142 0.21 0  0.4058241418345938 0.21 0  0.4132924440716992 0.21 0  0.4207607463087888 0.21 0  0.4282290485459029 0.21 0  0.4356973507830418 0.21 0  0.4431656530201649 0.21 0  0.4506339552573136 0.21 0  0.4581022574944306 0.21 0  0.4655705597315852 0.21 0  0.4730388619686996 0.21 0  0.480507164205851 0.21 0  0.4879754664429498 0.21 0  0.4954437686800938 0.21 0  0.502912070917267 0.21 0  0.5103803731544119 0.21 0  0.5178486753915261 0.21 0  0.5253169776286404 0.21 0  0.5327852798657868 0.21 0  0.5402535821029386 0.21 0  0.54772188434007 0.21 0  0.5551901865771842 0.21 0  0.5626584888143201 0.21 0  0.5701267910514778 0.21 0  0.5775950932886138 0.21 0  0.5850633955257281 0.21 0  0.5925316977628483 0.21 0  0.6 0.2050000000000054 0  0.6 0.1950000000000217 0  0.5925316977628897 0.19 0  0.5850633955257988 0.19 0  0.5775950932887378 0.19 0  0.5701267910515998 0.19 0  0.5626584888145268 0.19 0  0.5551901865773963 0.19 0  0.547721884340339 0.19 0  0.5402535821032429 0.19 0  0.5327852798661811 0.19 0  0.5253169776290537 0.19 0  0.5178486753919799 0.19 0  0.5103803731549078 0.19 0  0.502912070917822 0.19 0  0.4954437686807294 0.19 0  0.4879754664436223 0.19 0  0.4805071642065402 0.19 0  0.4730388619694271 0.19 0  0.4655705597323621 0.19 0  0.4581022574952563 0.19 0  0.4506339552581777 0.19 0  0.4431656530210671 0.19 0  0.4356973507839815 0.19 0  0.4282290485468779 0.19 0  0.4207607463097617 0.19 0  0.4132924440726327 0.19 0  0.4058241418354857 0.19 0  0.3983558395983636 0.19 0  0.3908875373612097 0.19 0  0.3834192351240934 0.19 0  0.3759509328869369 0.19 0  0.3684826306498175 0.19 0  0.361014328412667 0.19 0  0.3535460261755617 0.19 0  0.3460777239384295 0.19 0  0.3386094217012945 0.19 0  0.3311411194641595 0.19 0  0.3236728172270245 0.19 0  0.3162045149898895 0.19 0  0.3087362127527544 0.19 0  0.3012679105156187 0.19 0  0.2937996082784807 0.19 0  0.2863313060413428 0.19 0  0.2788630038042048 0.19 0  0.2713947015670686 0.19 0  0.2639263993299336 0.19 0  0.2564580970927985 0.19 0  0.2607803159922026 0.2000727136295815 0  0.5887803774232762 0.2001272386983733 0  0.5745072403740523 0.2002044435018727 0  0.5511891430099709 0.2001122610077113 0  0.2751288526855082 0.20000000000002 0  0.5365194309847112 0.1999999999999436 0  0.2894621222999649 0.1998691686390484 0  0.5215828265105155 0.1999999999999228 0  0.3127789816668748 0.1998657885438805 0  0.3274069683451451 0.2000000000000796 0  0.5066462220363641 0.199999999999908 0  0.3650630746574081 0.199866017807523 0  0.476773013087985 0.1999999999998713 0  0.3417402379596385 0.1998691686391011 0  0.3796850840047755 0.200000000000134 0  0.4618364086138087 0.1999999999998546 0  0.4917096175621762 0.1999999999998808 0  0.3946216884789568 0.2000000000001512 0  0.446899804139621 0.1999999999998389 0  0.4089549580935208 0.1998691686391595 0  0.4322718174608562 0.200127451265745 0  0.4201487168029707 0.1999966199048527 0  0.3528922713220932 0.2000185703532356 0  0.5633122436674589 0.1999814296467508 0  0.3006558810093873 0.1999966199048318 0  0.5815926498168407 0.1966545283159175 0  0.2677053789419034 0.1964246479135325 0  0.5290511287476175 0.1970915826863981 0  0.5439877332217911 0.197091582686394 0  0.2825131256993216 0.2035478995978015 0  0.3199386661080599 0.202908417313604 0  0.4842413153250809 0.1970915826863873 0  0.5141145242734466 0.1970915826863843 0  0.3722167817676917 0.2029084173136195 0  0.4693047108508938 0.1970915826863783 0  0.3348752705822316 0.202908417313609 0  0.3871533862418661 0.2029084173136212 0  0.4543681063767183 0.1970915826863795 0  0.4991779197992749 0.1970915826863902 0  0.4020059614928624 0.203547899597858 0  0.4394315019025246 0.1970915826863714 0  0.2550657455369551 0.2034088125358657 0  0.2548908499171161 0.1966940311614271 0  0.5946539510196798 0.2024302972968126 0  0.267698176732111 0.2039977513680092 0  0.4261685417851465 0.196409292431739 0  0.3590076176283495 0.196411355804271 0  0.5571672426447437 0.2036011176410121 0  0.3066757059912147 0.1964092924317024 0  0.594380730180568 0.1966558399668133 0  0.4842413153245942 0.2040749161535287 0  0.4693047108503577 0.2040749161535231 0  0.3871533862424271 0.1959250838464788 0  0.372246743208829 0.1959123236376545 0  0.5141145242731028 0.2040749161535395 0  0.4543681063761134 0.2040749161535186 0  0.4019979587101454 0.1959834479682427 0  0.4394608940728603 0.2040870543693135 0  0.5439623148931173 0.2040856076781014 0  0.5290511287473298 0.2040749161535501 0  0.4991779197988497 0.2040749161535382 0  0.3347912413592433 0.1959225448935183 0  0.3199680582793816 0.1959123018030061 0  0.2825051229162361 0.1959834479681729 0  0.3590471196690275 0.2036304442587945 0  0.5571594006495384 0.1963685282145804 0  0.3067669986803285 0.203627750582736 0  0.4262598344738712 0.2036568242185335 0  0.5814408164431408 0.2041285596160068 0  0.5688286748170428 0.1961819304477386 0  0.4145905603063645 0.2038180695522843 0  0.3473758401724931 0.2038180695522752 0  0.2950977245128307 0.2038180695522663 0  0.5688286748170693 0.203818069552238 0  0.2950977245127906 0.1961819304477774 0  0.3473758401723931 0.1961819304478349 0  0.4145905603061963 0.1961819304479011 0  0.2601812407614425 0.2056861609747042
[...]
<PointData  Vectors="f_40-1"> 
<DataArray  type="Float64"  Name="f_40-1"  NumberOfComponents="3" format="ascii">0.0000000000000000e+00 0.0000000000000000e+00 0.0000000000000000e+00  0.0000000000000000e+00 0.0000000000000000e+00 0.0000000000000000e+00  0.0000000000000000e+00 0.0000000000000000e+00 0.0000000000000000e+00  0.0000000000000000e+00 0.0000000000000000e+00 0.0000000000000000e+00  -2.9566136856063033e-05 9.0191417926100371e-06 0.0000000000000000e+00  -1.1626266362632583e-05 5.1461855225678532e-06 0.0000000000000000e+00  0.0000000000000000e+00 0.0000000000000000e+00 0.0000000000000000e+00  0.0000000000000000e+00 0.0000000000000000e+00 0.0000000000000000e+00  0.0000000000000000e+00 0.0000000000000000e+00 0.0000000000000000e+00  0.0000000000000000e+00 0.0000000000000000e+00 0.0000000000000000e+00  -2.1037020047420252e-05 7.0917746153417375e-06 0.0000000000000000e+00  0.0000000000000000e+00 0.0000000000000000e+00 0.0000000000000000e+00  0.0000000000000000e+00 0.0000000000000000e+00 0.0000000000000000e+00  0.0000000000000000e+00 0.0000000000000000e+00 0.0000000000000000e+00  0.0000000000000000e+00 0.0000000000000000e+00 0.0000000000000000e+00  0.0000000000000000e+00 0.0000000000000000e+00 0.0000000000000000e+00  0.0000000000000000e+00 0.0000000000000000e+00 0.0000000000000000e+00  0.0000000000000000e+00 0.0000000000000000e+00 0.0000000000000000e+00  0.0000000000000000e+00 0.0000000000000000e+00 0.0000000000000000e+00  0.0000000000000000e+00 0.0000000000000000e+00 0.0000000000000000e+00  0.0000000000000000e+00 0.0000000000000000e+00 0.0000000000000000e+00  0.0000000000000000e+00 0.0000000000000000e+00 0.0000000000000000e+00  0.0000000000000000e+00 0.0000000000000000e+00 0.0000000000000000e+00  0.0000000000000000e+00 0.0000000000000000e+00 0.0000000000000000e+00  0.0000000000000000e+00 0.0000000000000000e+00 0.0000000000000000e+00  0.0000000000000000e+00 0.0000000000000000e+00 0.0000000000000000e+00  0.0000000000000000e+00 0.0000000000000000e+00 0.0000000000000000e+00  0.0000000000000000e+00 0.0000000000000000e+00 0.0000000000000000e+00  0.0000000000000000e+00 0.0000000000000000e+00 0.0000000000000000e+00  0.0000000000000000e+00 0.0000000000000000e+00 0.0000000000000000e+00  0.0000000000000000e+00 0.0000000000000000e+00 0.0000000000000000e+00  0.0000000000000000e+00 0.0000000000000000e+00 0.0000000000000000e+00  0.0000000000000000e+00 0.0000000000000000e+00 0.0000000000000000e+00  0.0000000000000000e+00 0.0000000000000000e+00 0.0000000000000000e+00  0.0000000000000000e+00 0.0000000000000000e+00 0.0000000000000000e+00  0.0000000000000000e+00 0.0000000000000000e+00 0.0000000000000000e+00  0.0000000000000000e+00 0.0000000000000000e+00 0.0000000000000000e+00  0.0000000000000000e+00 0.0000000000000000e+00 0.0000000000000000e+00  0.0000000000000000e+00 0.0000000000000000e+00 0.0000000000000000e+00  0.0000000000000000e+00 0.0000000000000000e+00 0.0000000000000000e+00  0.0000000000000000e+00 0.0000000000000000e+00 0.0000000000000000e+00  0.0000000000000000e+00 0.0000000000000000e+00 0.0000000000000000e+00  0.0000000000000000e+00 0.0000000000000000e+00 0.0000000000000000e+00  0.0000000000000000e+00 0.0000000000000000e+00 0.0000000000000000e+00  0.0000000000000000e+00 0.0000000000000000e+00 0.0000000000000000e+00  0.0000000000000000e+00 0.0000000000000000e+00 0.0000000000000000e+00  0.0000000000000000e+00 0.0000000000000000e+00 0.0000000000000000e+00  0.0000000000000000e+00 0.0000000000000000e+00 0.0000000000000000e+00  0.0000000000000000e+00 0.0000000000000000e+00 0.0000000000000000e+00  0.0000000000000000e+00 0.0000000000000000e+00 0.0000000000000000e+00  0.0000000000000000e+00 0.0000000000000000e+00 0.0000000000000000e+00  0.0000000000000000e+00 0.0000000000000000e+00 0.0000000000000000e+00  0.0000000000000000e+00 0.0000000000000000e+00 0.0000000000000000e+00  0.0000000000000000e+00 0.0000000000000000e+00 0.0000000000000000e+00  0.0000000000000000e+00 0.0000000000000000e+00 0.0000000000000000e+00  0.0000000000000000e+00 0.0000000000000000e+00 0.0000000000000000e+00  0.0000000000000000e+00 0.0000000000000000e+00 0.0000000000000000e+00  0.0000000000000000e+00 0.0000000000000000e+00 0.0000000000000000e+00  0.0000000000000000e+00 0.0000000000000000e+00 0.0000000000000000e+00  0.0000000000000000e+00 0.0000000000000000e+00 0.0000000000000000e+00  0.0000000000000000e+00 0.0000000000000000e+00 0.0000000000000000e+00  0.0000000000000000e+00 0.0000000000000000e+00 0.0000000000000000e+00  0.0000000000000000e+00 0.0000000000000000e+00 0.0000000000000000e+00  0.0000000000000000e+00 0.0000000000000000e+00 0.0000000000000000e+00  0.0000000000000000e+00 0.0000000000000000e+00 0.0000000000000000e+00  0.0000000000000000e+00 0.0000000000000000e+00 0.0000000000000000e+00  0.0000000000000000e+00 0.0000000000000000e+00 0.0000000000000000e+00  0.0000000000000000e+00 0.0000000000000000e+00 0.0000000000000000e+00  0.0000000000000000e+00 0.0000000000000000e+00 0.0000000000000000e+00  0.0000000000000000e+00 0.0000000000000000e+00 0.0000000000000000e+00  0.0000000000000000e+00 0.0000000000000000e+00 0.0000000000000000e+00  0.0000000000000000e+00 0.0000000000000000e+00 0.0000000000000000e+00  0.0000000000000000e+00 0.0000000000000000e+00 0.0000000000000000e+00  0.0000000000000000e+00 0.0000000000000000e+00 0.0000000000000000e+00  0.0000000000000000e+00 0.0000000000000000e+00 0.0000000000000000e+00  0.0000000000000000e+00 0.0000000000000000e+00 0.0000000000000000e+00  0.0000000000000000e+00 0.0000000000000000e+00 0.0000000000000000e+00  0.0000000000000000e+00 0.0000000000000000e+00 0.0000000000000000e+00  0.0000000000000000e+00 0.0000000000000000e+00 0.0000000000000000e+00  0.0000000000000000e+00 0.0000000000000000e+00 0.0000000000000000e+00  0.0000000000000000e+00 0.0000000000000000e+00 0.0000000000000000e+00  0.0000000000000000e+00 0.0000000000000000e+00 0.0000000000000000e+00  0.0000000000000000e+00 0.0000000000000000e+00 0.0000000000000000e+00  0.0000000000000000e+00 0.0000000000000000e+00 0.0000000000000000e+00  0.0000000000000000e+00 0.0000000000000000e+00 0.0000000000000000e+00  0.0000000000000000e+00 0.0000000000000000e+00 0.0000000000000000e+00  0.0000000000000000e+00 0.0000000000000000e+00 0.0000000000000000e+00  0.0000000000000000e+00 0.0000000000000000e+00 0.0000000000000000e+00  0.0000000000000000e+00 0.0000000000000000e+00 0.0000000000000000e+00  0.0000000000000000e+00 0.0000000000000000e+00 0.0000000000000000e+00  0.0000000000000000e+00 0.0000000000000000e+00 0.0000000000000000e+00  0.0000000000000000e+00 0.0000000000000000e+00 0.0000000000000000e+00  0.0000000000000000e+00 0.0000000000000000e+00 0.0000000000000000e+00  0.0000000000000000e+00 0.0000000000000000e+00 0.0000000000000000e+00  0.0000000000000000e+00 0.0000000000000000e+00 0.0000000000000000e+00  0.0000000000000000e+00 0.0000000000000000e+00 0.0000000000000000e+00  0.0000000000000000e+00 0.0000000000000000e+00 0.0000000000000000e+00  0.0000000000000000e+00 0.0000000000000000e+00 0.0000000000000000e+00  0.0000000000000000e+00 0.0000000000000000e+00 0.0000000000000000e+00  0.0000000000000000e+00 0.0000000000000000e+00 0.0000000000000000e+00  0.0000000000000000e+00 0.0000000000000000e+00 0.0000000000000000e+00  0.0000000000000000e+00 0.0000000000000000e+00 0.0000000000000000e+00  0.0000000000000000e+00 0.0000000000000000e+00 0.0000000000000000e+00  0.0000000000000000e+00 0.0000000000000000e+00 0.0000000000000000e+00  0.0000000000000000e+00 0.0000000000000000e+00 0.0000000000000000e+00  0.0000000000000000e+00 0.0000000000000000e+00 0.0000000000000000e+00  0.0000000000000000e+00 0.0000000000000000e+00 0.0000000000000000e+00  0.0000000000000000e+00 0.0000000000000000e+00 0.0000000000000000e+00  0.0000000000000000e+00 0.0000000000000000e+00 0.0000000000000000e+00  0.0000000000000000e+00 0.0000000000000000e+00 0.0000000000000000e+00  0.0000000000000000e+00 0.0000000000000000e+00 0.0000000000000000e+00  0.0000000000000000e+00 0.0000000000000000e+00 0.0000000000000000e+00  0.0000000000000000e+00 0.0000000000000000e+00 0.0000000000000000e+00  0.0000000000000000e+00 0.0000000000000000e+00 0.0000000000000000e+00  0.0000000000000000e+00 0.0000000000000000e+00 0.0000000000000000e+00  0.0000000000000000e+00 0.0000000000000000e+00 0.0000000000000000e+00  0.0000000000000000e+00 0.0000000000000000e+00 0.0000000000000000e+00  0.0000000000000000e+00 0.0000000000000000e+00 0.0000000000000000e+00  0.0000000000000000e+00 0.0000000000000000e+00 0.0000000000000000e+00  0.0000000000000000e+00 0.0000000000000000e+00 0.0000000000000000e+00  0.0000000000000000e+00 0.0000000000000000e+00 0.0000000000000000e+00  0.0000000000000000e+00 0.0000000000000000e+00 0.0000000000000000e+00  0.0000000000000000e+00 0.0000000000000000e+00 0.0000000000000000e+00  0.0000000000000000e+00 0.0000000000000000e+00 0.0000000000000000e+00  0.0000000000000000e+00 0.0000000000000000e+00 0.0000000000000000e+00  0.0000000000000000e+00 0.0000000000000000e+00 0.0000000000000000e+00  0.0000000000000000e+00 0.0000000000000000e+00 0.0000000000000000e+00  0.0000000000000000e+00 0.0000000000000000e+00 0.0000000000000000e+00  0.0000000000000000e+00 0.0000000000000000e+00 0.0000000000000000e+00  0.0000000000000000e+00 0.0000000000000000e+00 0.0000000000000000e+00  0.0000000000000000e+00 0.0000000000000000e+00 0.0000000000000000e+00  0.0000000000000000e+00 0.0000000000000000e+00 0.0000000000000000e+00  0.0000000000000000e+00 0.0000000000000000e+00 0.0000000000000000e+00  0.0000000000000000e+00 0.0000000000000000e+00 0.0000000000000000e+00  0.0000000000000000e+00 0.0000000000000000e+00 0.0000000000000000e+00  0.0000000000000000e+00 0.0000000000000000e+00 0.0000000000000000e+00  0.0000000000000000e+00 0.0000000000000000e+00 0.0000000000000000e+00  0.0000000000000000e+00 0.0000000000000000e+00 0.0000000000000000e+00  0.0000000000000000e+00 0.0000000000000000e+00 0.0000000000000000e+00  0.0000000000000000e+00 0.0000000000000000e+00 0.0000000000000000e+00  0.0000000000000000e+00 0.0000000000000000e+00 0.0000000000000000e+00  0.0000000000000000e+00 0.0000000000000000e+00 0.0000000000000000e+00  0.0000000000000000e+00 0.0000000000000000e+00 0.0000000000000000e+00  -2.7083672423559717e-06 4.2703935247269927e-08 0.0000000000000000e+00  -5.4107508374142366e-06 2.5409241226174986e-06 0.0000000000000000e+00  -7.5388842147981249e-06 6.3370167321599594e-06 0.0000000000000000e+00  -9.4943837426577192e-06 1.1444917413314371e-05 0.0000000000000000e+00  -1.0976593398843241e-05 1.7285378232888987e-05 0.0000000000000000e+00  -1.2338953205666559e-05 2.3887710768248758e-05 0.0000000000000000e+00  -1.3350084964862121e-05 3.0893301386407832e-05 0.0000000000000000e+00  -1.4145335458819103e-05 3.8304456764090443e-05 0.0000000000000000e+00  -1.4796589551111162e-05 4.5901651812542058e-05 0.0000000000000000e+00  -1.5207564403794014e-05 5.3526431769616895e-05 0.0000000000000000e+00  -1.5417086103136341e-05 6.1121696651040105e-05 0.0000000000000000e+00  -1.5517233907648127e-05 6.8476247973400467e-05 0.0000000000000000e+00  -1.5371718695336106e-05 7.5548470089642101e-05 0.0000000000000000e+00  -1.5209237633635659e-05 8.2273785160923477e-05 0.0000000000000000e+00  -1.4924066938107128e-05 8.8467627488624258e-05 0.0000000000000000e+00  -1.4414811352941058e-05 9.4180206674067328e-05 0.0000000000000000e+00  -1.3999150505944705e-05 9.9281343736862027e-05 0.0000000000000000e+00  -1.3304053057525114e-05 1.0375666166248300e-04 0.0000000000000000e+00  -1.2789677807254047e-05 1.0753229777436544e-04 0.0000000000000000e+00  -1.2020915377706028e-05 1.1065211304265260e-04 0.0000000000000000e+00  -1.1412997543303593e-05 1.1301831419444456e-04 0.0000000000000000e+00  -1.0621696749143507e-05 1.1464480824202799e-04 0.0000000000000000e+00  -1.0023709526863790e-05 1.1567088435980598e-04 0.0000000000000000e+00  -9.4231145904883071e-06 1.1588914142240856e-04 0.0000000000000000e+00  -8.6935052041955482e-06 1.1553776021057815e-04 0.0000000000000000e+00  -8.1224522673279952e-06 1.1447203510639370e-04 0.0000000000000000e+00  -7.5348620868151510e-06 1.1278094555524237e-04 0.0000000000000000e+00  -7.0573580730718092e-06 1.1052133746431292e-04 0.0000000000000000e+00  -6.5843008992185046e-06 1.0767844642286976e-04 0.0000000000000000e+00  -6.2269127781290684e-06 1.0435040045160460e-04 0.0000000000000000e+00  -5.8908334449118515e-06 1.0050967014222566e-04 0.0000000000000000e+00  -5.6718331444089894e-06 9.6268095985565478e-05 0.0000000000000000e+00  -5.4894367344712256e-06 9.1591543412367118e-05 0.0000000000000000e+00  -5.4202103555293632e-06 8.6599884613336510e-05 0.0000000000000000e+00  -5.4019946605613446e-06 8.1251258591692329e-05 0.0000000000000000e+00  -5.4947777980686813e-06 7.5672764928850570e-05 0.0000000000000000e+00  -5.6465729720343151e-06 6.9815070376749616e-05 0.0000000000000000e+00  -5.9036091704090201e-06 6.3804139046986518e-05 0.0000000000000000e+00  -6.2267553266111277e-06 5.7583949629369729e-05 0.0000000000000000e+00  -6.6521975166970813e-06 5.1280154556912662e-05 0.0000000000000000e+00  -7.1539268414138633e-06 4.4834068322148216e-05 0.0000000000000000e+00  -7.7435191410288037e-06 3.8345101110237404e-05 0.0000000000000000e+00  -8.4203843986951449e-06 3.1788189389556034e-05 0.0000000000000000e+00  -9.1413106489900703e-06 2.5208267665504093e-05 0.0000000000000000e+00  -9.9636652917696366e-06 1.8635782584958615e-05 0.0000000000000000e+00  -1.0822583019468245e-05 1.2004320707330559e-05 0.0000000000000000e+00  -1.6486680632599456e-05 6.1211132035171469e-06 0.0000000000000000e+00  -2.5438638820764099e-05 8.0533302841300617e-06 0.0000000000000000e+00  -2.8731145483300455e-05 1.5566545154548121e-05 0.0000000000000000e+00  -2.7819167707600891e-05 2.2320161322176951e-05 0.0000000000000000e+00  -2.6932420119978302e-05 2.9092402055559122e-05 0.0000000000000000e+00  -2.6090881785598355e-05 3.5807556202269468e-05 0.0000000000000000e+00  -2.5278559808231808e-05 4.2487639826734795e-05 0.0000000000000000e+00  -2.4503351417488661e-05 4.9096154756506545e-05 0.0000000000000000e+00  -2.3717712696960957e-05 5.5622077132848757e-05 0.0000000000000000e+00  -2.2983044536716444e-05 6.2051849342725077e-05 0.0000000000000000e+00  -2.2206011647862661e-05 6.8321624641610028e-05 0.0000000000000000e+00  -2.1484801011644488e-05 7.4438229895433725e-05 0.0000000000000000e+00  -2.0685057110430049e-05 8.0334494571335580e-05 0.0000000000000000e+00  -1.9951511051896354e-05 8.6000610732796194e-05 0.0000000000000000e+00  -1.9101981120867074e-05 9.1376093637601281e-05 0.0000000000000000e+00  -1.8335643530686123e-05 9.6437521052651274e-05 0.0000000000000000e+00  -1.7418302756840348e-05 1.0113134887860956e-04 0.0000000000000000e+00  -1.6606275915820665e-05 1.0542577165483641e-04 0.0000000000000000e+00  -1.5610387991638144e-05 1.0927417306951816e-04 0.0000000000000000e+00  -1.4742836158544883e-05 1.1263824819232456e-04 0.0000000000000000e+00  -1.3660454698484204e-05 1.1548017504617547e-04 0.0000000000000000e+00  -1.2732013033707349e-05 1.1776000294288552e-04 0.0000000000000000e+00  -1.1560457969069275e-05 1.1944202313975075e-04 0.0000000000000000e+00  -1.0567207157695175e-05 1.2048716882229883e-04 0.0000000000000000e+00  -9.3366774899737659e-06 1.2086502956829856e-04 0.0000000000000000e+00  -8.2561127384548752e-06 1.2061925120345319e-04 0.0000000000000000e+00  -7.1641802942127245e-06 1.1956585526664507e-04 0.0000000000000000e+00  -5.8971655586391701e-06 1.1793417657558231e-04 0.0000000000000000e+00  -4.7519318862076595e-06 1.1551088747995252e-04 0.0000000000000000e+00  -3.5297091598760999e-06 1.1239453392949013e-04 0.0000000000000000e+00  -2.4010788151725445e-06 1.0857006420262869e-04 0.0000000000000000e+00  -1.2398409820038584e-06 1.0406157804631472e-04 0.0000000000000000e+00  -1.8033658584759634e-07 9.8937954058808902e-05 0.0000000000000000e+00  9.1367646882575073e-07 9.3151594222164275e-05 0.0000000000000000e+00  1.8228217987775648e-06 8.6919224984072197e-05 0.0000000000000000e+00  2.6520096889736667e-06 8.0147105130456210e-05 0.0000000000000000e+00  3.4820763914730489e-06 7.3042661526620886e-05 0.0000000000000000e+00  4.1368346283464820e-06 6.5626313629750288e-05 0.0000000000000000e+00  4.6801027486751934e-06 5.7979560248082269e-05 0.0000000000000000e+00  5.0755770498652774e-06 5.0295161731923107e-05 0.0000000000000000e+00  5.2620011074231189e-06 4.2650848918701028e-05 0.0000000000000000e+00  5.3442465097466422e-06 3.5184070537254762e-05 0.0000000000000000e+00  5.2596340410440056e-06 2.8126862571208878e-05 0.0000000000000000e+00  4.8687287170662299e-06 2.1454110501169807e-05 0.0000000000000000e+00  4.3452506500874918e-06 1.5563633580047364e-05 0.0000000000000000e+00  3.4444598043367076e-06 1.0508839142204211e-05 0.0000000000000000e+00  2.5462548748085112e-06 6.5557706618768131e-06 0.0000000000000000e+00  1.2495470092487452e-06 3.7228729572420202e-06 0.0000000000000000e+00  -1.4932795554283137e-06 2.2528350183372420e-06 0.0000000000000000e+00  -1.9399046610652531e-05 1.7139557463880829e-05 0.0000000000000000e+00  -1.7602605396335170e-05 2.9892810954719465e-05 0.0000000000000000e+00  -1.5449825626838548e-05 5.0495713023903738e-05 0.0000000000000000e+00  -2.2985931434237487e-06 1.0177544690823987e-05 0.0000000000000000e+00  -1.4397387163131568e-05 6.3062710452992579e-05 0.0000000000000000e+00  -3.1513108301179971e-06 2.1670942411875701e-05 0.0000000000000000e+00  -1.3389533801446997e-05 7.5239618727845531e-05 0.0000000000000000e+00  -4.5357206309763098e-06 4.4522914683386668e-05 0.0000000000000000e+00  -5.4547292748085723e-06 5.9647804694163652e-05 0.0000000000000000e+00  -1.2524899920867056e-05 8.6540152081571682e-05 0.0000000000000000e+00  -7.0806381982397005e-06 9.4389463240233669e-05 0.0000000000000000e+00  -1.1127836111380900e-05 1.0524702679579180e-04 0.0000000000000000e+00  -6.0403303679124901e-06 7.4013196602570430e-05 0.0000000000000000e+00  -7.7444676925677969e-06 1.0440861452276985e-04 0.0000000000000000e+00  -1.0549650856034388e-05 1.1199617335170973e-04 0.0000000000000000e+00  -1.1778611343019341e-05 9.6652227005648852e-05 0.0000000000000000e+00  -8.2808685955062202e-06 1.1205773844332526e-04 0.0000000000000000e+00  -1.0024974450463484e-05 1.1658097405124079e-04 0.0000000000000000e+00  -8.7390165279480832e-06 1.1675463110102025e-04 0.0000000000000000e+00  -9.5280122513308661e-06 1.1866682322189986e-04 0.0000000000000000e+00  -9.1381118538535817e-06 1.1841760935071123e-04 0.0000000000000000e+00  -6.6820485090213472e-06 8.4222767983322872e-05 0.0000000000000000e+00  -1.6684475534939573e-05 3.9874651284173054e-05 0.0000000000000000e+00  -3.9488752468348397e-06 3.2253371566557488e-05 0.0000000000000000e+00  -2.1580090865827402e-05 2.4217201045175518e-05 0.0000000000000000e+00  -1.4806022983702668e-07 6.4593214645759605e-06 0.0000000000000000e+00  -1.6204629679459900e-05 6.9889121850979090e-05 0.0000000000000000e+00  -1.7414449722342296e-05 5.7362735329646122e-05 0.0000000000000000e+00  -5.3869953347836000e-06 1.5091983095443951e-05 0.0000000000000000e+00  -7.9359982023827623e-06 5.1278971634104303e-05 0.0000000000000000e+00  -1.3068873032475783e-05 1.0183263045018241e-04 0.0000000000000000e+00  -1.5096388461126253e-05 8.1678141185033824e-05 0.0000000000000000e+00  -9.4082158209000464e-06 9.8830509456490707e-05 0.0000000000000000e+00  -1.2099738704550949e-05 1.0954580004458015e-04 0.0000000000000000e+00  -8.6262844261839687e-06 6.6556999894526488e-05 0.0000000000000000e+00  -9.4824261197397253e-06 1.0781791212020035e-04 0.0000000000000000e+00  -1.1133143678269225e-05 1.1525014320578247e-04 0.0000000000000000e+00  -1.4060164979383232e-05 9.2433954804164105e-05 0.0000000000000000e+00  -9.6862729392078171e-06 1.1385207221608957e-04 0.0000000000000000e+00  -1.0163731092938588e-05 1.1863799922811038e-04 0.0000000000000000e+00  -1.2577102007566795e-06 1.9922922132148193e-07 0.0000000000000000e+00  -6.0954054979851942e-07 9.8877349117236701e-07 0.0000000000000000e+00  -1.8125263761194113e-05 1.1457822616051239e-05 0.0000000000000000e+00  -3.6955821923373923e-06 4.8396352635326955e-06 0.0000000000000000e+00  -9.2617387614776682e-