<?xml version="1.0"?>
<VTKFile type="UnstructuredGrid"  version="0.1"  >
<UnstructuredGrid>
<Piece  NumberOfPoints="1419" NumberOfCells="2698">
<Points>
<DataArray  type="Float64"  NumberOfComponents="3"  format="ascii">0 0 0  0 0.41 0  2.5 0 0  2.5 0.41 0  0.6 0.19 0  0.6 0.21 0  0.25 0.2 0  0.15 0.2 0  0.2489897948556636 0.21 0  0.2489897948556636 0.19 0  0.6 0.2 0  0 0.3807142857143437 0  0 0.3514285714286952 0  0 0.3221428571430699 0  0 0.29285714285744 0  0 0.2635714285718054 0  0 0.2342857142861561 0  0 0.2050000000005308 0  0 0.175714285714732 0  0 0.1464285714289574 0  0 0.1171428571431897 0  0 0.08785714285737878 0  0 0.05857142857161107 0  0 0.02928571428580012 0  0.03015443760436003 0 0  0.06140001986583606 0 0  0.09377624077125973 0 0  0.1273239957535082 0 0  0.1620856860351972 0 0  0.1981052433264291 0 0  0.235428184091502 0 0  0.2741016576309132 0 0  0.3141745521465447 0 0  0.3556974926295285 0 0  0.3987229542472677 0 0  0.4433053055141081 0 0  0.4895008759286886 0 0  0.5373680609405097 0 0  0.5869673343216626 0 0  0.6383613676634521 0 0  0.6916151138468254 0 0  0.7467958595648856 0 0  0.8039733463919316 0 0  0.8632198139502143 0 0  0.9246101326867038 0 0  0.9882218810934433 0 0  1.054135445558498 0 0  1.122434100542598 0 0  1.193204177141305 0 0  1.266535089879536 0 0  1.342519516046404 0 0  1.421253448503939 0 0  1.502836389106271 0 0  1.587371439758838 0 0  1.674965418777374 0 0  1.765729001825544 0 0  1.859776908880082 0 0  1.957227977487062 0 0  2.058205329869943 0 0  2.162836591189951 0 0  2.271253957290865 0 0  2.383594446803425 0 0  2.5 0.1024999999997612 0  2.5 0.2049999999994743 0  2.5 0.3074999999997183 0  2.383594446803656 0.41 0  2.271253957291315 0.41 0  2.162836591190598 0.41 0  2.058205329870775 0.41 0  1.957227977488067 0.41 0  1.859776908881246 0.41 0  1.765729001826854 0.41 0  1.674965418778818 0.41 0  1.58737143976041 0.41 0  1.502836389107956 0.41 0  1.421253448505726 0.41 0  1.342519516048286 0.41 0  1.266535089881505 0.41 0  1.193204177143353 0.41 0  1.122434100544716 0.41 0  1.05413544556068 0.41 0  0.9882218810956305 0.41 0  0.9246101326886647 0.41 0  0.8632198139519631 0.41 0  0.8039733463934788 0.41 0  0.7467958595662458 0.41 0  0.6916151138480078 0.41 0  0.6383613676644679 0.41 0  0.5869673343225223 0.41 0  0.5373680609412221 0.41 0  0.4895008759292634 0.41 0  0.4433053055145528 0.41 0  0.3987229542475914 0.41 0  0.3556974926297398 0.41 0  0.3141745521466497 0.41 0  0.2741016576310038 0.41 0  0.2354281840915826 0.41 0  0.1981052433265003 0.41 0  0.1620856860352591 0.41 0  0.1273239957535623 0.41 0  0.09377624077128965 0.41 0  0.06140001986584975 0.41 0  0.03015443760436654 0.41 0  0.2497468076502589 0.2050254481002335 0  0.2497468076502614 0.1949745518997913 0  0.2469965252529372 0.1829317073451959 0  0.2439893735792749 0.1762316384219906 0  0.2400332147834255 0.1700443375285386 0  0.2352133972704371 0.1645032867342007 0  0.2296339016332438 0.1597280261969788 0  0.2234150974217223 0.1558215752574715 0  0.2166911463437691 0.1528682099456123 0  0.2096071079204251 0.1509316448471593 0  0.2023158100364996 0.1500536585536553 0  0.194974551899914 0.1502531923497262 0  0.1877417105387872 0.1515259415822739 0  0.1807733240461124 0.153844448527136 0  0.1742197252835808 0.15715869474974 0  0.1682222986673531 0.1613971801805478 0  0.162910430003803 0.1664684656256651 0  0.1583987151779087 0.1722631454351573 0  0.1547844879126891 0.178656207771761 0  0.1521457199348551 0.1855097315605723 0  0.1505393388476355 0.1926758619366523 0  0.1505393388476328 0.2073241380633295 0  0.1521457199348437 0.2144902684393899 0  0.1547844879126531 0.221343792228163 0  0.1583987151778488 0.2277368545647528 0  0.1629104300036858 0.2335315343742052 0  0.1682222986671726 0.2386028198193036 0  0.1742197252833576 0.2428413052501257 0  0.1807733240458683 0.2461555514727623 0  0.1877417105384929 0.2484740584176516 0  0.1949745518995776 0.2497468076502398 0  0.202315810036185 0.2499463414463592 0  0.2096071079201568 0.2490683551528932 0  0.2166911463435495 0.2471317900544655 0  0.2234150974215506 0.2441784247426195 0  0.2296339016331197 0.2402719738031125 0  0.2352133972703547 0.2354967132658811 0  0.2400332147833751 0.2299556624715287 0  0.2439893735792577 0.2237683615780412 0  0.246996525252926 0.2170682926548348 0  0.25645809709277 0.21 0  0.2639263993298655 0.21 0  0.271394701566961 0.21 0  0.2788630038040554 0.21 0  0.2863313060411479 0.21 0  0.2937996082782405 0.21 0  0.301267910515333 0.21 0  0.3087362127524279 0.21 0  0.3162045149895234 0.21 0  0.3236728172265972 0.21 0  0.3311411194636928 0.21 0  0.3386094217007701 0.21 0  0.3460777239378666 0.21 0  0.3535460261749672 0.21 0  0.3610143284120516 0.21 0  0.3684826306491596 0.21 0  0.3759509328862226 0.21 0  0.383419235123329 0.21 0  0.3908875373604028 0.21 0  0.3983558395975142 0.21 0  0.4058241418345938 0.21 0  0.4132924440716992 0.21 0  0.4207607463087888 0.21 0  0.4282290485459029 0.21 0  0.4356973507830418 0.21 0  0.4431656530201649 0.21 0  0.4506339552573136 0.21 0  0.4581022574944306 0.21 0  0.4655705597315852 0.21 0  0.4730388619686996 0.21 0  0.480507164205851 0.21 0  0.4879754664429498 0.21 0  0.4954437686800938 0.21 0  0.502912070917267 0.21 0  0.5103803731544119 0.21 0  0.5178486753915261 0.21 0  0.5253169776286404 0.21 0  0.5327852798657868 0.21 0  0.5402535821029386 0.21 0  0.54772188434007 0.21 0  0.5551901865771842 0.21 0  0.5626584888143201 0.21 0  0.5701267910514778 0.21 0  0.5775950932886138 0.21 0  0.5850633955257281 0.21 0  0.5925316977628483 0.21 0  0.6 0.2050000000000054 0  0.6 0.1950000000000217 0  0.5925316977628897 0.19 0  0.5850633955257988 0.19 0  0.5775950932887378 0.19 0  0.5701267910515998 0.19 0  0.5626584888145268 0.19 0  0.5551901865773963 0.19 0  0.547721884340339 0.19 0  0.5402535821032429 0.19 0  0.5327852798661811 0.19 0  0.5253169776290537 0.19 0  0.5178486753919799 0.19 0  0.5103803731549078 0.19 0  0.502912070917822 0.19 0  0.4954437686807294 0.19 0  0.4879754664436223 0.19 0  0.4805071642065402 0.19 0  0.4730388619694271 0.19 0  0.4655705597323621 0.19 0  0.4581022574952563 0.19 0  0.4506339552581777 0.19 0  0.4431656530210671 0.19 0  0.4356973507839815 0.19 0  0.4282290485468779 0.19 0  0.4207607463097617 0.19 0  0.4132924440726327 0.19 0  0.4058241418354857 0.19 0  0.3983558395983636 0.19 0  0.3908875373612097 0.19 0  0.3834192351240934 0.19 0  0.3759509328869369 0.19 0  0.3684826306498175 0.19 0  0.361014328412667 0.19 0  0.3535460261755617 0.19 0  0.3460777239384295 0.19 0  0.3386094217012945 0.19 0  0.3311411194641595 0.19 0  0.3236728172270245 0.19 0  0.3162045149898895 0.19 0  0.3087362127527544 0.19 0  0.3012679105156187 0.19 0  0.2937996082784807 0.19 0  0.2863313060413428 0.19 0  0.2788630038042048 0.19 0  0.2713947015670686 0.19 0  0.2639263993299336 0.19 0  0.2564580970927985 0.19 0  0.2607803159922026 0.2000727136295815 0  0.5887803774232762 0.2001272386983733 0  0.5745072403740523 0.2002044435018727 0  0.5511891430099709 0.2001122610077113 0  0.2751288526855082 0.20000000000002 0  0.5365194309847112 0.1999999999999436 0  0.2894621222999649 0.1998691686390484 0  0.5215828265105155 0.1999999999999228 0  0.3127789816668748 0.1998657885438805 0  0.3274069683451451 0.2000000000000796 0  0.5066462220363641 0.199999999999908 0  0.3650630746574081 0.199866017807523 0  0.476773013087985 0.1999999999998713 0  0.3417402379596385 0.1998691686391011 0  0.3796850840047755 0.200000000000134 0  0.4618364086138087 0.1999999999998546 0  0.4917096175621762 0.1999999999998808 0  0.3946216884789568 0.2000000000001512 0  0.446899804139621 0.1999999999998389 0  0.4089549580935208 0.1998691686391595 0  0.4322718174608562 0.200127451265745 0  0.4201487168029707 0.1999966199048527 0  0.3528922713220932 0.2000185703532356 0  0.5633122436674589 0.1999814296467508 0  0.3006558810093873 0.1999966199048318 0  0.5815926498168407 0.1966545283159175 0  0.2677053789419034 0.1964246479135325 0  0.5290511287476175 0.1970915826863981 0  0.5439877332217911 0.197091582686394 0  0.2825131256993216 0.2035478995978015 0  0.3199386661080599 0.202908417313604 0  0.4842413153250809 0.1970915826863873 0  0.5141145242734466 0.1970915826863843 0  0.3722167817676917 0.2029084173136195 0  0.4693047108508938 0.1970915826863783 0  0.3348752705822316 0.202908417313609 0  0.3871533862418661 0.2029084173136212 0  0.4543681063767183 0.1970915826863795 0  0.4991779197992749 0.1970915826863902 0  0.4020059614928624 0.203547899597858 0  0.4394315019025246 0.1970915826863714 0  0.2550657455369551 0.2034088125358657 0  0.2548908499171161 0.1966940311614271 0  0.5946539510196798 0.2024302972968126 0  0.267698176732111 0.2039977513680092 0  0.4261685417851465 0.196409292431739 0  0.3590076176283495 0.196411355804271 0  0.5571672426447437 0.2036011176410121 0  0.3066757059912147 0.1964092924317024 0  0.594380730180568 0.1966558399668133 0  0.4842413153245942 0.2040749161535287 0  0.4693047108503577 0.2040749161535231 0  0.3871533862424271 0.1959250838464788 0  0.372246743208829 0.1959123236376545 0  0.5141145242731028 0.2040749161535395 0  0.4543681063761134 0.2040749161535186 0  0.4019979587101454 0.1959834479682427 0  0.4394608940728603 0.2040870543693135 0  0.5439623148931173 0.2040856076781014 0  0.5290511287473298 0.2040749161535501 0  0.4991779197988497 0.2040749161535382 0  0.3347912413592433 0.1959225448935183 0  0.3199680582793816 0.1959123018030061 0  0.2825051229162361 0.1959834479681729 0  0.3590471196690275 0.2036304442587945 0  0.5571594006495384 0.1963685282145804 0  0.3067669986803285 0.203627750582736 0  0.4262598344738712 0.2036568242185335 0  0.5814408164431408 0.2041285596160068 0  0.5688286748170428 0.1961819304477386 0  0.4145905603063645 0.2038180695522843 0  0.3473758401724931 0.2038180695522752 0  0.2950977245128307 0.2038180695522663 0  0.5688286748170693 0.203818069552238 0  0.2950977245127906 0.1961819304477774 0  0.3473758401723931 0.1961819304478349 0  0.4145905603061963 0.1961819304479011 0  0.2601812407614425 0.2056861609747042
[...]
<PointData  Vectors="f_40-1"> 
<DataArray  type="Float64"  Name="f_40-1"  NumberOfComponents="3" format="ascii">0.0000000000000000e+00 0.0000000000000000e+00 0.0000000000000000e+00  0.0000000000000000e+00 0.0000000000000000e+00 0.0000000000000000e+00  0.0000000000000000e+00 0.0000000000000000e+00 0.0000000000000000e+00  0.0000000000000000e+00 0.0000000000000000e+00 0.0000000000000000e+00  -2.1117196327205728e-05 3.1085753521586972e-04 0.0000000000000000e+00  -2.5116344816531825e-05 3.0719524298153752e-04 0.0000000000000000e+00  0.0000000000000000e+00 0.0000000000000000e+00 0.0000000000000000e+00  0.0000000000000000e+00 0.0000000000000000e+00 0.0000000000000000e+00  0.0000000000000000e+00 0.0000000000000000e+00 0.0000000000000000e+00  0.0000000000000000e+00 0.0000000000000000e+00 0.0000000000000000e+00  -2.3531976304188737e-05 3.0903338852356500e-04 0.0000000000000000e+00  0.0000000000000000e+00 0.0000000000000000e+00 0.0000000000000000e+00  0.0000000000000000e+00 0.0000000000000000e+00 0.0000000000000000e+00  0.0000000000000000e+00 0.0000000000000000e+00 0.0000000000000000e+00  0.0000000000000000e+00 0.0000000000000000e+00 0.0000000000000000e+00  0.0000000000000000e+00 0.0000000000000000e+00 0.0000000000000000e+00  0.0000000000000000e+00 0.0000000000000000e+00 0.0000000000000000e+00  0.0000000000000000e+00 0.0000000000000000e+00 0.0000000000000000e+00  0.0000000000000000e+00 0.0000000000000000e+00 0.0000000000000000e+00  0.0000000000000000e+00 0.0000000000000000e+00 0.0000000000000000e+00  0.0000000000000000e+00 0.0000000000000000e+00 0.0000000000000000e+00  0.0000000000000000e+00 0.0000000000000000e+00 0.0000000000000000e+00  0.0000000000000000e+00 0.0000000000000000e+00 0.0000000000000000e+00  0.0000000000000000e+00 0.0000000000000000e+00 0.0000000000000000e+00  0.0000000000000000e+00 0.0000000000000000e+00 0.0000000000000000e+00  0.0000000000000000e+00 0.0000000000000000e+00 0.0000000000000000e+00  0.0000000000000000e+00 0.0000000000000000e+00 0.0000000000000000e+00  0.0000000000000000e+00 0.0000000000000000e+00 0.0000000000000000e+00  0.0000000000000000e+00 0.0000000000000000e+00 0.0000000000000000e+00  0.0000000000000000e+00 0.0000000000000000e+00 0.0000000000000000e+00  0.0000000000000000e+00 0.0000000000000000e+00 0.0000000000000000e+00  0.0000000000000000e+00 0.0000000000000000e+00 0.0000000000000000e+00  0.0000000000000000e+00 0.0000000000000000e+00 0.0000000000000000e+00  0.0000000000000000e+00 0.0000000000000000e+00 0.0000000000000000e+00  0.0000000000000000e+00 0.0000000000000000e+00 0.0000000000000000e+00  0.0000000000000000e+00 0.0000000000000000e+00 0.0000000000000000e+00  0.0000000000000000e+00 0.0000000000000000e+00 0.0000000000000000e+00  0.0000000000000000e+00 0.0000000000000000e+00 0.0000000000000000e+00  0.0000000000000000e+00 0.0000000000000000e+00 0.0000000000000000e+00  0.0000000000000000e+00 0.0000000000000000e+00 0.0000000000000000e+00  0.0000000000000000e+00 0.0000000000000000e+00 0.0000000000000000e+00  0.0000000000000000e+00 0.0000000000000000e+00 0.0000000000000000e+00  0.0000000000000000e+00 0.0000000000000000e+00 0.0000000000000000e+00  0.0000000000000000e+00 0.0000000000000000e+00 0.0000000000000000e+00  0.0000000000000000e+00 0.0000000000000000e+00 0.0000000000000000e+00  0.0000000000000000e+00 0.0000000000000000e+00 0.0000000000000000e+00  0.0000000000000000e+00 0.0000000000000000e+00 0.0000000000000000e+00  0.0000000000000000e+00 0.0000000000000000e+00 0.0000000000000000e+00  0.0000000000000000e+00 0.0000000000000000e+00 0.0000000000000000e+00  0.0000000000000000e+00 0.0000000000000000e+00 0.0000000000000000e+00  0.0000000000000000e+00 0.0000000000000000e+00 0.0000000000000000e+00  0.0000000000000000e+00 0.0000000000000000e+00 0.0000000000000000e+00  0.0000000000000000e+00 0.0000000000000000e+00 0.0000000000000000e+00  0.0000000000000000e+00 0.0000000000000000e+00 0.0000000000000000e+00  0.0000000000000000e+00 0.0000000000000000e+00 0.0000000000000000e+00  0.0000000000000000e+00 0.0000000000000000e+00 0.0000000000000000e+00  0.0000000000000000e+00 0.0000000000000000e+00 0.0000000000000000e+00  0.0000000000000000e+00 0.0000000000000000e+00 0.0000000000000000e+00  0.0000000000000000e+00 0.0000000000000000e+00 0.0000000000000000e+00  0.0000000000000000e+00 0.0000000000000000e+00 0.0000000000000000e+00  0.0000000000000000e+00 0.0000000000000000e+00 0.0000000000000000e+00  0.0000000000000000e+00 0.0000000000000000e+00 0.0000000000000000e+00  0.0000000000000000e+00 0.0000000000000000e+00 0.0000000000000000e+00  0.0000000000000000e+00 0.0000000000000000e+00 0.0000000000000000e+00  0.0000000000000000e+00 0.0000000000000000e+00 0.0000000000000000e+00  0.0000000000000000e+00 0.0000000000000000e+00 0.0000000000000000e+00  0.0000000000000000e+00 0.0000000000000000e+00 0.0000000000000000e+00  0.0000000000000000e+00 0.0000000000000000e+00 0.0000000000000000e+00  0.0000000000000000e+00 0.0000000000000000e+00 0.0000000000000000e+00  0.0000000000000000e+00 0.0000000000000000e+00 0.0000000000000000e+00  0.0000000000000000e+00 0.0000000000000000e+00 0.0000000000000000e+00  0.0000000000000000e+00 0.0000000000000000e+00 0.0000000000000000e+00  0.0000000000000000e+00 0.0000000000000000e+00 0.0000000000000000e+00  0.0000000000000000e+00 0.0000000000000000e+00 0.0000000000000000e+00  0.0000000000000000e+00 0.0000000000000000e+00 0.0000000000000000e+00  0.0000000000000000e+00 0.0000000000000000e+00 0.0000000000000000e+00  0.0000000000000000e+00 0.0000000000000000e+00 0.0000000000000000e+00  0.0000000000000000e+00 0.0000000000000000e+00 0.0000000000000000e+00  0.0000000000000000e+00 0.0000000000000000e+00 0.0000000000000000e+00  0.0000000000000000e+00 0.0000000000000000e+00 0.0000000000000000e+00  0.0000000000000000e+00 0.0000000000000000e+00 0.0000000000000000e+00  0.0000000000000000e+00 0.0000000000000000e+00 0.0000000000000000e+00  0.0000000000000000e+00 0.0000000000000000e+00 0.0000000000000000e+00  0.0000000000000000e+00 0.0000000000000000e+00 0.0000000000000000e+00  0.0000000000000000e+00 0.0000000000000000e+00 0.0000000000000000e+00  0.0000000000000000e+00 0.0000000000000000e+00 0.0000000000000000e+00  0.0000000000000000e+00 0.0000000000000000e+00 0.0000000000000000e+00  0.0000000000000000e+00 0.0000000000000000e+00 0.0000000000000000e+00  0.0000000000000000e+00 0.0000000000000000e+00 0.0000000000000000e+00  0.0000000000000000e+00 0.0000000000000000e+00 0.0000000000000000e+00  0.0000000000000000e+00 0.0000000000000000e+00 0.0000000000000000e+00  0.0000000000000000e+00 0.0000000000000000e+00 0.0000000000000000e+00  0.0000000000000000e+00 0.0000000000000000e+00 0.0000000000000000e+00  0.0000000000000000e+00 0.0000000000000000e+00 0.0000000000000000e+00  0.0000000000000000e+00 0.0000000000000000e+00 0.0000000000000000e+00  0.0000000000000000e+00 0.0000000000000000e+00 0.0000000000000000e+00  0.0000000000000000e+00 0.0000000000000000e+00 0.0000000000000000e+00  0.0000000000000000e+00 0.0000000000000000e+00 0.0000000000000000e+00  0.0000000000000000e+00 0.0000000000000000e+00 0.0000000000000000e+00  0.0000000000000000e+00 0.0000000000000000e+00 0.0000000000000000e+00  0.0000000000000000e+00 0.0000000000000000e+00 0.0000000000000000e+00  0.0000000000000000e+00 0.0000000000000000e+00 0.0000000000000000e+00  0.0000000000000000e+00 0.0000000000000000e+00 0.0000000000000000e+00  0.0000000000000000e+00 0.0000000000000000e+00 0.0000000000000000e+00  0.0000000000000000e+00 0.0000000000000000e+00 0.0000000000000000e+00  0.0000000000000000e+00 0.0000000000000000e+00 0.0000000000000000e+00  0.0000000000000000e+00 0.0000000000000000e+00 0.0000000000000000e+00  0.0000000000000000e+00 0.0000000000000000e+00 0.0000000000000000e+00  0.0000000000000000e+00 0.0000000000000000e+00 0.0000000000000000e+00  0.0000000000000000e+00 0.0000000000000000e+00 0.0000000000000000e+00  0.0000000000000000e+00 0.0000000000000000e+00 0.0000000000000000e+00  0.0000000000000000e+00 0.0000000000000000e+00 0.0000000000000000e+00  0.0000000000000000e+00 0.0000000000000000e+00 0.0000000000000000e+00  0.0000000000000000e+00 0.0000000000000000e+00 0.0000000000000000e+00  0.0000000000000000e+00 0.0000000000000000e+00 0.0000000000000000e+00  0.0000000000000000e+00 0.0000000000000000e+00 0.0000000000000000e+00  0.0000000000000000e+00 0.0000000000000000e+00 0.0000000000000000e+00  0.0000000000000000e+00 0.0000000000000000e+00 0.0000000000000000e+00  0.0000000000000000e+00 0.0000000000000000e+00 0.0000000000000000e+00  0.0000000000000000e+00 0.0000000000000000e+00 0.0000000000000000e+00  0.0000000000000000e+00 0.0000000000000000e+00 0.0000000000000000e+00  0.0000000000000000e+00 0.0000000000000000e+00 0.0000000000000000e+00  0.0000000000000000e+00 0.0000000000000000e+00 0.0000000000000000e+00  0.0000000000000000e+00 0.0000000000000000e+00 0.0000000000000000e+00  0.0000000000000000e+00 0.0000000000000000e+00 0.0000000000000000e+00  0.0000000000000000e+00 0.0000000000000000e+00 0.0000000000000000e+00  0.0000000000000000e+00 0.0000000000000000e+00 0.0000000000000000e+00  0.0000000000000000e+00 0.0000000000000000e+00 0.0000000000000000e+00  0.0000000000000000e+00 0.0000000000000000e+00 0.0000000000000000e+00  0.0000000000000000e+00 0.0000000000000000e+00 0.0000000000000000e+00  0.0000000000000000e+00 0.0000000000000000e+00 0.0000000000000000e+00  0.0000000000000000e+00 0.0000000000000000e+00 0.0000000000000000e+00  0.0000000000000000e+00 0.0000000000000000e+00 0.0000000000000000e+00  0.0000000000000000e+00 0.0000000000000000e+00 0.0000000000000000e+00  0.0000000000000000e+00 0.0000000000000000e+00 0.0000000000000000e+00  0.0000000000000000e+00 0.0000000000000000e+00 0.0000000000000000e+00  0.0000000000000000e+00 0.0000000000000000e+00 0.0000000000000000e+00  0.0000000000000000e+00 0.0000000000000000e+00 0.0000000000000000e+00  0.0000000000000000e+00 0.0000000000000000e+00 0.0000000000000000e+00  0.0000000000000000e+00 0.0000000000000000e+00 0.0000000000000000e+00  0.0000000000000000e+00 0.0000000000000000e+00 0.0000000000000000e+00  0.0000000000000000e+00 0.0000000000000000e+00 0.0000000000000000e+00  0.0000000000000000e+00 0.0000000000000000e+00 0.0000000000000000e+00  -3.4778183619079871e-06 8.5665300285536041e-07 0.0000000000000000e+00  -7.0480366791641218e-06 4.2366603704551062e-06 0.0000000000000000e+00  -9.9503587733437208e-06 9.4449942610699544e-06 0.0000000000000000e+00  -1.2736349781754289e-05 1.6528763966151149e-05 0.0000000000000000e+00  -1.4916157752842447e-05 2.4813854001052710e-05 0.0000000000000000e+00  -1.7053158163801176e-05 3.4372176988700655e-05 0.0000000000000000e+00  -1.8691533258339143e-05 4.4706096103786559e-05 0.0000000000000000e+00  -2.0089035179267804e-05 5.5930303654124992e-05 0.0000000000000000e+00  -2.1415073534847605e-05 6.7702565715777537e-05 0.0000000000000000e+00  -2.2345530277212393e-05 7.9873287101245812e-05 0.0000000000000000e+00  -2.3166607930469371e-05 9.2375224167762040e-05 0.0000000000000000e+00  -2.3731587907939386e-05 1.0495926647326836e-04 0.0000000000000000e+00  -2.4114058334795158e-05 1.1756946270286838e-04 0.0000000000000000e+00  -2.4374033666980039e-05 1.3007621797105808e-04 0.0000000000000000e+00  -2.4489535294575086e-05 1.4234657791302333e-04 0.0000000000000000e+00  -2.4416427473287977e-05 1.5435232650504277e-04 0.0000000000000000e+00  -2.4336223911118818e-05 1.6596246975544135e-04 0.0000000000000000e+00  -2.4019759684172433e-05 1.7715428909477511e-04 0.0000000000000000e+00  -2.3792976945008908e-05 1.8782116601495134e-04 0.0000000000000000e+00  -2.3341958096315428e-05 1.9799599049234712e-04 0.0000000000000000e+00  -2.2988062746497232e-05 2.0756453825774578e-04 0.0000000000000000e+00  -2.2459766358507110e-05 2.1653332547558784e-04 0.0000000000000000e+00  -2.2074976959167671e-05 2.2499869594137358e-04 0.0000000000000000e+00  -2.1670508940667893e-05 2.3277788078274840e-04 0.0000000000000000e+00  -2.1142667261545515e-05 2.4006675112545070e-04 0.0000000000000000e+00  -2.0737160698189112e-05 2.4672835137846461e-04 0.0000000000000000e+00  -2.0306031320556786e-05 2.5284030513684851e-04 0.0000000000000000e+00  -1.9963062201708226e-05 2.5843906046690623e-04 0.0000000000000000e+00  -1.9615095254976701e-05 2.6351517060752065e-04 0.0000000000000000e+00  -1.9364369839994621e-05 2.6814627551438304e-04 0.0000000000000000e+00  -1.9125830650555755e-05 2.7231040203461095e-04 0.0000000000000000e+00  -1.8988665611964798e-05 2.7610141981983884e-04 0.0000000000000000e+00  -1.8879635510753671e-05 2.7949116243710753e-04 0.0000000000000000e+00  -1.8870321336574507e-05 2.8258359705036118e-04 0.0000000000000000e+00  -1.8903518470394542e-05 2.8534399413475967e-04 0.0000000000000000e+00  -1.9036621440755245e-05 2.8788533666528651e-04 0.0000000000000000e+00  -1.9221107652158470e-05 2.9016503098983987e-04 0.0000000000000000e+00  -1.9501277980310359e-05 2.9229730319879567e-04 0.0000000000000000e+00  -1.9840178814776452e-05 2.9423297469703317e-04 0.0000000000000000e+00  -2.0272772973319028e-05 2.9608752448557693e-04 0.0000000000000000e+00  -2.0774231206477149e-05 2.9780819504774780e-04 0.0000000000000000e+00  -2.1356859343219451e-05 2.9948773855488313e-04 0.0000000000000000e+00  -2.2018664677765388e-05 3.0110412741897718e-04 0.0000000000000000e+00  -2.2720894040581306e-05 3.0269964109489513e-04 0.0000000000000000e+00  -2.3516104139371663e-05 3.0430305102411345e-04 0.0000000000000000e+00  -2.4343260116571200e-05 3.0585333394617619e-04 0.0000000000000000e+00  -2.4468753055641543e-05 3.0811622928195197e-04 0.0000000000000000e+00  -2.2454257292845882e-05 3.0994247913183090e-04 0.0000000000000000e+00  -2.0318576131777571e-05 3.0921939896627366e-04 0.0000000000000000e+00  -1.9445442097223370e-05 3.0777705307858928e-04 0.0000000000000000e+00  -1.8593258861430382e-05 3.0635301251474622e-04 0.0000000000000000e+00  -1.7780781252644337e-05 3.0487703552651934e-04 0.0000000000000000e+00  -1.6993263895830181e-05 3.0336871527199722e-04 0.0000000000000000e+00  -1.6236436027354547e-05 3.0179347364372972e-04 0.0000000000000000e+00  -1.5467250435213216e-05 3.0014052560945593e-04 0.0000000000000000e+00  -1.4742187655127882e-05 2.9839560290401352e-04 0.0000000000000000e+00  -1.3973982597858498e-05 2.9650029659377872e-04 0.0000000000000000e+00  -1.3255336810105948e-05 2.9445796539278939e-04 0.0000000000000000e+00  -1.2459970855061087e-05 2.9220843728264420e-04 0.0000000000000000e+00  -1.1724207019905467e-05 2.8973997300307862e-04 0.0000000000000000e+00  -1.0877709017285778e-05 2.8699931457068566e-04 0.0000000000000000e+00  -1.0107425973393049e-05 2.8396304701886821e-04 0.0000000000000000e+00  -9.1960168991412844e-06 2.8058446090269135e-04 0.0000000000000000e+00  -8.3816088473564899e-06 2.7683429016754234e-04 0.0000000000000000e+00  -7.3987291549531963e-06 2.7267275028390088e-04 0.0000000000000000e+00  -6.5340091473320131e-06 2.6806682175539964e-04 0.0000000000000000e+00  -5.4767063045381501e-06 2.6298568971909177e-04 0.0000000000000000e+00  -4.5605156858532043e-06 2.5739743139064378e-04 0.0000000000000000e+00  -3.4322787497026397e-06 2.5127367124621632e-04 0.0000000000000000e+00  -2.4660484147504914e-06 2.4458669132018575e-04 0.0000000000000000e+00  -1.3009778394728099e-06 2.3731531960876360e-04 0.0000000000000000e+00  -2.7295438651367741e-07 2.2950524142290249e-04 0.0000000000000000e+00  7.5602798157782005e-07 2.2100973378794356e-04 0.0000000000000000e+00  1.9184746223974342e-06 2.1202913163800884e-04 0.0000000000000000e+00  2.9639969273448270e-06 2.0240516165370665e-04 0.0000000000000000e+00  4.0505321715803043e-06 1.9222439623019222e-04 0.0000000000000000e+00  5.0415933246751006e-06 1.8150886883104466e-04 0.0000000000000000e+00  6.0260470626237655e-06 1.7028084322962412e-04 0.0000000000000000e+00  6.9061457676117021e-06 1.5863683675346998e-04 0.0000000000000000e+00  7.7510446111266189e-06 1.4656951168072951e-04 0.0000000000000000e+00  8.4452758639267841e-06 1.3425506865619616e-04 0.0000000000000000e+00  9.0385113455787648e-06 1.2170350340207428e-04 0.0000000000000000e+00  9.5437743750950751e-06 1.0903941803039258e-04 0.0000000000000000e+00  9.8879981111473046e-06 9.6402896765644899e-05 0.0000000000000000e+00  1.0058210219378723e-05 8.3844101637140279e-05 0.0000000000000000e+00  1.0086506365989247e-05 7.1596086610878568e-05 0.0000000000000000e+00  9.7989582617577351e-06 5.9796115773545903e-05 0.0000000000000000e+00  9.4718021081206659e-06 4.8506671154348575e-05 0.0000000000000000e+00  8.9540161363705340e-06 3.8118884281521017e-05 0.0000000000000000e+00  7.9932701873615346e-06 2.8472763049173754e-05 0.0000000000000000e+00  6.9467617483171519e-06 2.0124082942399387e-05 0.0000000000000000e+00  5.3989502909306505e-06 1.3113945389495241e-05 0.0000000000000000e+00  3.9164610740998878e-06 7.7479030437364216e-06 0.0000000000000000e+00  1.8985490202494707e-06 4.0601570431015675e-06 0.0000000000000000e+00  -1.5577743449199191e-06 2.8678998919396850e-06 0.0000000000000000e+00  -2.2100015507486580e-05 3.0677658498708967e-04 0.0000000000000000e+00  -2.0453625384153547e-05 3.0388479759338585e-04 0.0000000000000000e+00  -1.8250439881000951e-05 2.9894997663341733e-04 0.0000000000000000e+00  -2.5636396647149676e-06 1.3613495911685106e-05 0.0000000000000000e+00  -1.7077586156197730e-05 2.9547213486291177e-04 0.0000000000000000e+00  -3.5551217863304865e-06 2.9811567551273454e-05 0.0000000000000000e+00  -1.6050783126746262e-05 2.9134356859880737e-04 0.0000000000000000e+00  -5.2126357729034602e-06 6.3857048664205161e-05 0.0000000000000000e+00  -6.3941686202263668e-06 8.7948429576425002e-05 0.0000000000000000e+00  -1.5145803612622112e-05 2.8638511196184307e-04 0.0000000000000000e+00  -8.3789749654343088e-06 1.5126283866856620e-04 0.0000000000000000e+00  -1.3608215614578405e-05 2.7281806188652420e-04 0.0000000000000000e+00  -7.0668904131350390e-06 1.1234059287438726e-04 0.0000000000000000e+00  -9.3304904461991715e-06 1.7407006459943812e-04 0.0000000000000000e+00  -1.2932288519117003e-05 2.6362779077238025e-04 0.0000000000000000e+00  -1.4338844281739422e-05 2.8030864907175473e-04 0.0000000000000000e+00  -1.0037965626367014e-05 1.9552400258517511e-04 0.0000000000000000e+00  -1.2292798449758362e-05 2.5247383959058084e-04 0.0000000000000000e+00  -1.0523358695856358e-05 2.1404843603306642e-04 0.0000000000000000e+00  -1.1799535923613813e-05 2.3940729189942506e-04 0.0000000000000000e+00  -1.1159959418578525e-05 2.2685738744701014e-04 0.0000000000000000e+00  -7.9576626641954132e-06 1.3114916827514119e-04 0.0000000000000000e+00  -1.9320610926090710e-05 3.0160011746144022e-04 0.0000000000000000e+00  -4.5409856359818034e-06 4.5325743177042730e-05 0.0000000000000000e+00  -2.0510918077435891e-05 3.0593698104141280e-04 0.0000000000000000e+00  3.5181597489387974e-07 8.1554960590794291e-06 0.0000000000000000e+00  -1.5705681093335586e-05 2.9409537726483029e-04 0.0000000000000000e+00  -1.6916863500554712e-05 2.9789434895440719e-04 0.0000000000000000e+00  -6.8795399481330304e-06 2.0876071284674959e-05 0.0000000000000000e+00  -1.0538921484137098e-05 7.4933319541654702e-05 0.0000000000000000e+00  -1.2465683993732676e-05 2.7737802930767629e-04 0.0000000000000000e+00  -1.4577828413823009e-05 2.8959671830306805e-04 0.0000000000000000e+00  -1.3429158147916381e-05 1.6194874547248968e-04 0.0000000000000000e+00  -1.1437611716508503e-05 2.6907142675686022e-04 0.0000000000000000e+00  -1.1671268379972025e-05 1.0003845789624778e-04 0.0000000000000000e+00  -1.3823374185945969e-05 1.8437932507757394e-04 0.0000000000000000e+00  -1.0405335069606868e-05 2.5892832554682426e-04 0.0000000000000000e+00  -1.3505859176724156e-05 2.8412280521998226e-04 0.0000000000000000e+00  -1.4926925373316076e-05 2.0447574911622746e-04 0.0000000000000000e+00  -9.3660804771412387e-06 2.4670168291939507e-04 0.0000000000000000e+00  -1.3820183834353723e-06 3.8957477782044911e-07 0.0000000000000000e+00  -4.9820341450706224e-07 1.0570870704379585e-06 0.0000000000000000e+00  -2.3317785501806480e-05 3.0755928049978957e-04 0.0000000000000000e+00  -4.6010770006301056e-06 6.7396851466893664e-06 0.0000000000000000e+00  -7.7125274839456252e-06 2.340