<?xml version="1.0"?>
<VTKFile type="UnstructuredGrid"  version="0.1"  >
<UnstructuredGrid>
<Piece  NumberOfPoints="1419" NumberOfCells="2698">
<Points>
<DataArray  type="Float64"  NumberOfComponents="3"  format="ascii">0 0 0  0 0.41 0  2.5 0 0  2.5 0.41 0  0.6 0.19 0  0.6 0.21 0  0.25 0.2 0  0.15 0.2 0  0.2489897948556636 0.21 0  0.2489897948556636 0.19 0  0.6 0.2 0  0 0.3807142857143437 0  0 0.3514285714286952 0  0 0.3221428571430699 0  0 0.29285714285744 0  0 0.2635714285718054 0  0 0.2342857142861561 0  0 0.2050000000005308 0  0 0.175714285714732 0  0 0.1464285714289574 0  0 0.1171428571431897 0  0 0.08785714285737878 0  0 0.05857142857161107 0  0 0.02928571428580012 0  0.03015443760436003 0 0  0.06140001986583606 0 0  0.09377624077125973 0 0  0.1273239957535082 0 0  0.1620856860351972 0 0  0.1981052433264291 0 0  0.235428184091502 0 0  0.2741016576309132 0 0  0.3141745521465447 0 0  0.3556974926295285 0 0  0.3987229542472677 0 0  0.4433053055141081 0 0  0.4895008759286886 0 0  0.5373680609405097 0 0  0.5869673343216626 0 0  0.6383613676634521 0 0  0.6916151138468254 0 0  0.7467958595648856 0 0  0.8039733463919316 0 0  0.8632198139502143 0 0  0.9246101326867038 0 0  0.9882218810934433 0 0  1.054135445558498 0 0  1.122434100542598 0 0  1.193204177141305 0 0  1.266535089879536 0 0  1.342519516046404 0 0  1.421253448503939 0 0  1.502836389106271 0 0  1.587371439758838 0 0  1.674965418777374 0 0  1.765729001825544 0 0  1.859776908880082 0 0  1.957227977487062 0 0  2.058205329869943 0 0  2.162836591189951 0 0  2.271253957290865 0 0  2.383594446803425 0 0  2.5 0.1024999999997612 0  2.5 0.2049999999994743 0  2.5 0.3074999999997183 0  2.383594446803656 0.41 0  2.271253957291315 0.41 0  2.162836591190598 0.41 0  2.058205329870775 0.41 0  1.957227977488067 0.41 0  1.859776908881246 0.41 0  1.765729001826854 0.41 0  1.674965418778818 0.41 0  1.58737143976041 0.41 0  1.502836389107956 0.41 0  1.421253448505726 0.41 0  1.342519516048286 0.41 0  1.266535089881505 0.41 0  1.193204177143353 0.41 0  1.122434100544716 0.41 0  1.05413544556068 0.41 0  0.9882218810956305 0.41 0  0.9246101326886647 0.41 0  0.8632198139519631 0.41 0  0.8039733463934788 0.41 0  0.7467958595662458 0.41 0  0.6916151138480078 0.41 0  0.6383613676644679 0.41 0  0.5869673343225223 0.41 0  0.5373680609412221 0.41 0  0.4895008759292634 0.41 0  0.4433053055145528 0.41 0  0.3987229542475914 0.41 0  0.3556974926297398 0.41 0  0.3141745521466497 0.41 0  0.2741016576310038 0.41 0  0.2354281840915826 0.41 0  0.1981052433265003 0.41 0  0.1620856860352591 0.41 0  0.1273239957535623 0.41 0  0.09377624077128965 0.41 0  0.06140001986584975 0.41 0  0.03015443760436654 0.41 0  0.2497468076502589 0.2050254481002335 0  0.2497468076502614 0.1949745518997913 0  0.2469965252529372 0.1829317073451959 0  0.2439893735792749 0.1762316384219906 0  0.2400332147834255 0.1700443375285386 0  0.2352133972704371 0.1645032867342007 0  0.2296339016332438 0.1597280261969788 0  0.2234150974217223 0.1558215752574715 0  0.2166911463437691 0.1528682099456123 0  0.2096071079204251 0.1509316448471593 0  0.2023158100364996 0.1500536585536553 0  0.194974551899914 0.1502531923497262 0  0.1877417105387872 0.1515259415822739 0  0.1807733240461124 0.153844448527136 0  0.1742197252835808 0.15715869474974 0  0.1682222986673531 0.1613971801805478 0  0.162910430003803 0.1664684656256651 0  0.1583987151779087 0.1722631454351573 0  0.1547844879126891 0.178656207771761 0  0.1521457199348551 0.1855097315605723 0  0.1505393388476355 0.1926758619366523 0  0.1505393388476328 0.2073241380633295 0  0.1521457199348437 0.2144902684393899 0  0.1547844879126531 0.221343792228163 0  0.1583987151778488 0.2277368545647528 0  0.1629104300036858 0.2335315343742052 0  0.1682222986671726 0.2386028198193036 0  0.1742197252833576 0.2428413052501257 0  0.1807733240458683 0.2461555514727623 0  0.1877417105384929 0.2484740584176516 0  0.1949745518995776 0.2497468076502398 0  0.202315810036185 0.2499463414463592 0  0.2096071079201568 0.2490683551528932 0  0.2166911463435495 0.2471317900544655 0  0.2234150974215506 0.2441784247426195 0  0.2296339016331197 0.2402719738031125 0  0.2352133972703547 0.2354967132658811 0  0.2400332147833751 0.2299556624715287 0  0.2439893735792577 0.2237683615780412 0  0.246996525252926 0.2170682926548348 0  0.25645809709277 0.21 0  0.2639263993298655 0.21 0  0.271394701566961 0.21 0  0.2788630038040554 0.21 0  0.2863313060411479 0.21 0  0.2937996082782405 0.21 0  0.301267910515333 0.21 0  0.3087362127524279 0.21 0  0.3162045149895234 0.21 0  0.3236728172265972 0.21 0  0.3311411194636928 0.21 0  0.3386094217007701 0.21 0  0.3460777239378666 0.21 0  0.3535460261749672 0.21 0  0.3610143284120516 0.21 0  0.3684826306491596 0.21 0  0.3759509328862226 0.21 0  0.383419235123329 0.21 0  0.3908875373604028 0.21 0  0.3983558395975142 0.21 0  0.4058241418345938 0.21 0  0.4132924440716992 0.21 0  0.4207607463087888 0.21 0  0.4282290485459029 0.21 0  0.4356973507830418 0.21 0  0.4431656530201649 0.21 0  0.4506339552573136 0.21 0  0.4581022574944306 0.21 0  0.4655705597315852 0.21 0  0.4730388619686996 0.21 0  0.480507164205851 0.21 0  0.4879754664429498 0.21 0  0.4954437686800938 0.21 0  0.502912070917267 0.21 0  0.5103803731544119 0.21 0  0.5178486753915261 0.21 0  0.5253169776286404 0.21 0  0.5327852798657868 0.21 0  0.5402535821029386 0.21 0  0.54772188434007 0.21 0  0.5551901865771842 0.21 0  0.5626584888143201 0.21 0  0.5701267910514778 0.21 0  0.5775950932886138 0.21 0  0.5850633955257281 0.21 0  0.5925316977628483 0.21 0  0.6 0.2050000000000054 0  0.6 0.1950000000000217 0  0.5925316977628897 0.19 0  0.5850633955257988 0.19 0  0.5775950932887378 0.19 0  0.5701267910515998 0.19 0  0.5626584888145268 0.19 0  0.5551901865773963 0.19 0  0.547721884340339 0.19 0  0.5402535821032429 0.19 0  0.5327852798661811 0.19 0  0.5253169776290537 0.19 0  0.5178486753919799 0.19 0  0.5103803731549078 0.19 0  0.502912070917822 0.19 0  0.4954437686807294 0.19 0  0.4879754664436223 0.19 0  0.4805071642065402 0.19 0  0.4730388619694271 0.19 0  0.4655705597323621 0.19 0  0.4581022574952563 0.19 0  0.4506339552581777 0.19 0  0.4431656530210671 0.19 0  0.4356973507839815 0.19 0  0.4282290485468779 0.19 0  0.4207607463097617 0.19 0  0.4132924440726327 0.19 0  0.4058241418354857 0.19 0  0.3983558395983636 0.19 0  0.3908875373612097 0.19 0  0.3834192351240934 0.19 0  0.3759509328869369 0.19 0  0.3684826306498175 0.19 0  0.361014328412667 0.19 0  0.3535460261755617 0.19 0  0.3460777239384295 0.19 0  0.3386094217012945 0.19 0  0.3311411194641595 0.19 0  0.3236728172270245 0.19 0  0.3162045149898895 0.19 0  0.3087362127527544 0.19 0  0.3012679105156187 0.19 0  0.2937996082784807 0.19 0  0.2863313060413428 0.19 0  0.2788630038042048 0.19 0  0.2713947015670686 0.19 0  0.2639263993299336 0.19 0  0.2564580970927985 0.19 0  0.2607803159922026 0.2000727136295815 0  0.5887803774232762 0.2001272386983733 0  0.5745072403740523 0.2002044435018727 0  0.5511891430099709 0.2001122610077113 0  0.2751288526855082 0.20000000000002 0  0.5365194309847112 0.1999999999999436 0  0.2894621222999649 0.1998691686390484 0  0.5215828265105155 0.1999999999999228 0  0.3127789816668748 0.1998657885438805 0  0.3274069683451451 0.2000000000000796 0  0.5066462220363641 0.199999999999908 0  0.3650630746574081 0.199866017807523 0  0.476773013087985 0.1999999999998713 0  0.3417402379596385 0.1998691686391011 0  0.3796850840047755 0.200000000000134 0  0.4618364086138087 0.1999999999998546 0  0.4917096175621762 0.1999999999998808 0  0.3946216884789568 0.2000000000001512 0  0.446899804139621 0.1999999999998389 0  0.4089549580935208 0.1998691686391595 0  0.4322718174608562 0.200127451265745 0  0.4201487168029707 0.1999966199048527 0  0.3528922713220932 0.2000185703532356 0  0.5633122436674589 0.1999814296467508 0  0.3006558810093873 0.1999966199048318 0  0.5815926498168407 0.1966545283159175 0  0.2677053789419034 0.1964246479135325 0  0.5290511287476175 0.1970915826863981 0  0.5439877332217911 0.197091582686394 0  0.2825131256993216 0.2035478995978015 0  0.3199386661080599 0.202908417313604 0  0.4842413153250809 0.1970915826863873 0  0.5141145242734466 0.1970915826863843 0  0.3722167817676917 0.2029084173136195 0  0.4693047108508938 0.1970915826863783 0  0.3348752705822316 0.202908417313609 0  0.3871533862418661 0.2029084173136212 0  0.4543681063767183 0.1970915826863795 0  0.4991779197992749 0.1970915826863902 0  0.4020059614928624 0.203547899597858 0  0.4394315019025246 0.1970915826863714 0  0.2550657455369551 0.2034088125358657 0  0.2548908499171161 0.1966940311614271 0  0.5946539510196798 0.2024302972968126 0  0.267698176732111 0.2039977513680092 0  0.4261685417851465 0.196409292431739 0  0.3590076176283495 0.196411355804271 0  0.5571672426447437 0.2036011176410121 0  0.3066757059912147 0.1964092924317024 0  0.594380730180568 0.1966558399668133 0  0.4842413153245942 0.2040749161535287 0  0.4693047108503577 0.2040749161535231 0  0.3871533862424271 0.1959250838464788 0  0.372246743208829 0.1959123236376545 0  0.5141145242731028 0.2040749161535395 0  0.4543681063761134 0.2040749161535186 0  0.4019979587101454 0.1959834479682427 0  0.4394608940728603 0.2040870543693135 0  0.5439623148931173 0.2040856076781014 0  0.5290511287473298 0.2040749161535501 0  0.4991779197988497 0.2040749161535382 0  0.3347912413592433 0.1959225448935183 0  0.3199680582793816 0.1959123018030061 0  0.2825051229162361 0.1959834479681729 0  0.3590471196690275 0.2036304442587945 0  0.5571594006495384 0.1963685282145804 0  0.3067669986803285 0.203627750582736 0  0.4262598344738712 0.2036568242185335 0  0.5814408164431408 0.2041285596160068 0  0.5688286748170428 0.1961819304477386 0  0.4145905603063645 0.2038180695522843 0  0.3473758401724931 0.2038180695522752 0  0.2950977245128307 0.2038180695522663 0  0.5688286748170693 0.203818069552238 0  0.2950977245127906 0.1961819304477774 0  0.3473758401723931 0.1961819304478349 0  0.4145905603061963 0.1961819304479011 0  0.2601812407614425 0.2056861609747042
[...]
<PointData  Vectors="f_40-0"> 
<DataArray  type="Float64"  Name="f_40-0"  NumberOfComponents="3" format="ascii">0.0000000000000000e+00 0.0000000000000000e+00 0.0000000000000000e+00  0.0000000000000000e+00 0.0000000000000000e+00 0.0000000000000000e+00  0.0000000000000000e+00 0.0000000000000000e+00 0.0000000000000000e+00  0.0000000000000000e+00 0.0000000000000000e+00 0.0000000000000000e+00  1.2764591968399233e-05 2.8719346866390820e-03 0.0000000000000000e+00  -1.8329012451959485e-04 2.8739690011623719e-03 0.0000000000000000e+00  0.0000000000000000e+00 0.0000000000000000e+00 0.0000000000000000e+00  0.0000000000000000e+00 0.0000000000000000e+00 0.0000000000000000e+00  0.0000000000000000e+00 0.0000000000000000e+00 0.0000000000000000e+00  0.0000000000000000e+00 0.0000000000000000e+00 0.0000000000000000e+00  -8.5228087025062996e-05 2.8729442448650940e-03 0.0000000000000000e+00  4.8361179467444931e-01 0.0000000000000000e+00 0.0000000000000000e+00  8.9282177478365798e-01 0.0000000000000000e+00 0.0000000000000000e+00  1.2276299403275301e+00 0.0000000000000000e+00 0.0000000000000000e+00  1.4880362913064527e+00 0.0000000000000000e+00 0.0000000000000000e+00  1.6740408277203929e+00 0.0000000000000000e+00 0.0000000000000000e+00  1.7856435495693390e+00 0.0000000000000000e+00 0.0000000000000000e+00  1.8228444568531792e+00 0.0000000000000000e+00 0.0000000000000000e+00  1.7856435495715950e+00 0.0000000000000000e+00 0.0000000000000000e+00  1.6740408277242687e+00 0.0000000000000000e+00 0.0000000000000000e+00  1.4880362913112526e+00 0.0000000000000000e+00 0.0000000000000000e+00  1.2276299403320898e+00 0.0000000000000000e+00 0.0000000000000000e+00  8.9282177478754887e-01 0.0000000000000000e+00 0.0000000000000000e+00  4.8361179467664173e-01 0.0000000000000000e+00 0.0000000000000000e+00  0.0000000000000000e+00 0.0000000000000000e+00 0.0000000000000000e+00  0.0000000000000000e+00 0.0000000000000000e+00 0.0000000000000000e+00  0.0000000000000000e+00 0.0000000000000000e+00 0.0000000000000000e+00  0.0000000000000000e+00 0.0000000000000000e+00 0.0000000000000000e+00  0.0000000000000000e+00 0.0000000000000000e+00 0.0000000000000000e+00  0.0000000000000000e+00 0.0000000000000000e+00 0.0000000000000000e+00  0.0000000000000000e+00 0.0000000000000000e+00 0.0000000000000000e+00  0.0000000000000000e+00 0.0000000000000000e+00 0.0000000000000000e+00  0.0000000000000000e+00 0.0000000000000000e+00 0.0000000000000000e+00  0.0000000000000000e+00 0.0000000000000000e+00 0.0000000000000000e+00  0.0000000000000000e+00 0.0000000000000000e+00 0.0000000000000000e+00  0.0000000000000000e+00 0.0000000000000000e+00 0.0000000000000000e+00  0.0000000000000000e+00 0.0000000000000000e+00 0.0000000000000000e+00  0.0000000000000000e+00 0.0000000000000000e+00 0.0000000000000000e+00  0.0000000000000000e+00 0.0000000000000000e+00 0.0000000000000000e+00  0.0000000000000000e+00 0.0000000000000000e+00 0.0000000000000000e+00  0.0000000000000000e+00 0.0000000000000000e+00 0.0000000000000000e+00  0.0000000000000000e+00 0.0000000000000000e+00 0.0000000000000000e+00  0.0000000000000000e+00 0.0000000000000000e+00 0.0000000000000000e+00  0.0000000000000000e+00 0.0000000000000000e+00 0.0000000000000000e+00  0.0000000000000000e+00 0.0000000000000000e+00 0.0000000000000000e+00  0.0000000000000000e+00 0.0000000000000000e+00 0.0000000000000000e+00  0.0000000000000000e+00 0.0000000000000000e+00 0.0000000000000000e+00  0.0000000000000000e+00 0.0000000000000000e+00 0.0000000000000000e+00  0.0000000000000000e+00 0.0000000000000000e+00 0.0000000000000000e+00  0.0000000000000000e+00 0.0000000000000000e+00 0.0000000000000000e+00  0.0000000000000000e+00 0.0000000000000000e+00 0.0000000000000000e+00  0.0000000000000000e+00 0.0000000000000000e+00 0.0000000000000000e+00  0.0000000000000000e+00 0.0000000000000000e+00 0.0000000000000000e+00  0.0000000000000000e+00 0.0000000000000000e+00 0.0000000000000000e+00  0.0000000000000000e+00 0.0000000000000000e+00 0.0000000000000000e+00  0.0000000000000000e+00 0.0000000000000000e+00 0.0000000000000000e+00  0.0000000000000000e+00 0.0000000000000000e+00 0.0000000000000000e+00  0.0000000000000000e+00 0.0000000000000000e+00 0.0000000000000000e+00  0.0000000000000000e+00 0.0000000000000000e+00 0.0000000000000000e+00  0.0000000000000000e+00 0.0000000000000000e+00 0.0000000000000000e+00  0.0000000000000000e+00 0.0000000000000000e+00 0.0000000000000000e+00  0.0000000000000000e+00 0.0000000000000000e+00 0.0000000000000000e+00  1.6590663824548044e+00 -3.2438662079195615e-02 0.0000000000000000e+00  1.3308947679062901e+00 1.5056567660515385e-02 0.0000000000000000e+00  1.6384037912212555e+00 5.9317013566901423e-02 0.0000000000000000e+00  0.0000000000000000e+00 0.0000000000000000e+00 0.0000000000000000e+00  0.0000000000000000e+00 0.0000000000000000e+00 0.0000000000000000e+00  0.0000000000000000e+00 0.0000000000000000e+00 0.0000000000000000e+00  0.0000000000000000e+00 0.0000000000000000e+00 0.0000000000000000e+00  0.0000000000000000e+00 0.0000000000000000e+00 0.0000000000000000e+00  0.0000000000000000e+00 0.0000000000000000e+00 0.0000000000000000e+00  0.0000000000000000e+00 0.0000000000000000e+00 0.0000000000000000e+00  0.0000000000000000e+00 0.0000000000000000e+00 0.0000000000000000e+00  0.0000000000000000e+00 0.0000000000000000e+00 0.0000000000000000e+00  0.0000000000000000e+00 0.0000000000000000e+00 0.0000000000000000e+00  0.0000000000000000e+00 0.0000000000000000e+00 0.0000000000000000e+00  0.0000000000000000e+00 0.0000000000000000e+00 0.0000000000000000e+00  0.0000000000000000e+00 0.0000000000000000e+00 0.0000000000000000e+00  0.0000000000000000e+00 0.0000000000000000e+00 0.0000000000000000e+00  0.0000000000000000e+00 0.0000000000000000e+00 0.0000000000000000e+00  0.0000000000000000e+00 0.0000000000000000e+00 0.0000000000000000e+00  0.0000000000000000e+00 0.0000000000000000e+00 0.0000000000000000e+00  0.0000000000000000e+00 0.0000000000000000e+00 0.0000000000000000e+00  0.0000000000000000e+00 0.0000000000000000e+00 0.0000000000000000e+00  0.0000000000000000e+00 0.0000000000000000e+00 0.0000000000000000e+00  0.0000000000000000e+00 0.0000000000000000e+00 0.0000000000000000e+00  0.0000000000000000e+00 0.0000000000000000e+00 0.0000000000000000e+00  0.0000000000000000e+00 0.0000000000000000e+00 0.0000000000000000e+00  0.0000000000000000e+00 0.0000000000000000e+00 0.0000000000000000e+00  0.0000000000000000e+00 0.0000000000000000e+00 0.0000000000000000e+00  0.0000000000000000e+00 0.0000000000000000e+00 0.0000000000000000e+00  0.0000000000000000e+00 0.0000000000000000e+00 0.0000000000000000e+00  0.0000000000000000e+00 0.0000000000000000e+00 0.0000000000000000e+00  0.0000000000000000e+00 0.0000000000000000e+00 0.0000000000000000e+00  0.0000000000000000e+00 0.0000000000000000e+00 0.0000000000000000e+00  0.0000000000000000e+00 0.0000000000000000e+00 0.0000000000000000e+00  0.0000000000000000e+00 0.0000000000000000e+00 0.0000000000000000e+00  0.0000000000000000e+00 0.0000000000000000e+00 0.0000000000000000e+00  0.0000000000000000e+00 0.0000000000000000e+00 0.0000000000000000e+00  0.0000000000000000e+00 0.0000000000000000e+00 0.0000000000000000e+00  0.0000000000000000e+00 0.0000000000000000e+00 0.0000000000000000e+00  0.0000000000000000e+00 0.0000000000000000e+00 0.0000000000000000e+00  0.0000000000000000e+00 0.0000000000000000e+00 0.0000000000000000e+00  0.0000000000000000e+00 0.0000000000000000e+00 0.0000000000000000e+00  0.0000000000000000e+00 0.0000000000000000e+00 0.0000000000000000e+00  0.0000000000000000e+00 0.0000000000000000e+00 0.0000000000000000e+00  0.0000000000000000e+00 0.0000000000000000e+00 0.0000000000000000e+00  0.0000000000000000e+00 0.0000000000000000e+00 0.0000000000000000e+00  0.0000000000000000e+00 0.0000000000000000e+00 0.0000000000000000e+00  0.0000000000000000e+00 0.0000000000000000e+00 0.0000000000000000e+00  0.0000000000000000e+00 0.0000000000000000e+00 0.0000000000000000e+00  0.0000000000000000e+00 0.0000000000000000e+00 0.0000000000000000e+00  0.0000000000000000e+00 0.0000000000000000e+00 0.0000000000000000e+00  0.0000000000000000e+00 0.0000000000000000e+00 0.0000000000000000e+00  0.0000000000000000e+00 0.0000000000000000e+00 0.0000000000000000e+00  0.0000000000000000e+00 0.0000000000000000e+00 0.0000000000000000e+00  0.0000000000000000e+00 0.0000000000000000e+00 0.0000000000000000e+00  0.0000000000000000e+00 0.0000000000000000e+00 0.0000000000000000e+00  0.0000000000000000e+00 0.0000000000000000e+00 0.0000000000000000e+00  0.0000000000000000e+00 0.0000000000000000e+00 0.0000000000000000e+00  0.0000000000000000e+00 0.0000000000000000e+00 0.0000000000000000e+00  0.0000000000000000e+00 0.0000000000000000e+00 0.0000000000000000e+00  0.0000000000000000e+00 0.0000000000000000e+00 0.0000000000000000e+00  0.0000000000000000e+00 0.0000000000000000e+00 0.0000000000000000e+00  0.0000000000000000e+00 0.0000000000000000e+00 0.0000000000000000e+00  0.0000000000000000e+00 0.0000000000000000e+00 0.0000000000000000e+00  0.0000000000000000e+00 0.0000000000000000e+00 0.0000000000000000e+00  0.0000000000000000e+00 0.0000000000000000e+00 0.0000000000000000e+00  0.0000000000000000e+00 0.0000000000000000e+00 0.0000000000000000e+00  0.0000000000000000e+00 0.0000000000000000e+00 0.0000000000000000e+00  0.0000000000000000e+00 0.0000000000000000e+00 0.0000000000000000e+00  0.0000000000000000e+00 0.0000000000000000e+00 0.0000000000000000e+00  0.0000000000000000e+00 0.0000000000000000e+00 0.0000000000000000e+00  0.0000000000000000e+00 0.0000000000000000e+00 0.0000000000000000e+00  0.0000000000000000e+00 0.0000000000000000e+00 0.0000000000000000e+00  0.0000000000000000e+00 0.0000000000000000e+00 0.0000000000000000e+00  0.0000000000000000e+00 0.0000000000000000e+00 0.0000000000000000e+00  0.0000000000000000e+00 0.0000000000000000e+00 0.0000000000000000e+00  0.0000000000000000e+00 0.0000000000000000e+00 0.0000000000000000e+00  0.0000000000000000e+00 0.0000000000000000e+00 0.0000000000000000e+00  0.0000000000000000e+00 0.0000000000000000e+00 0.0000000000000000e+00  0.0000000000000000e+00 0.0000000000000000e+00 0.0000000000000000e+00  0.0000000000000000e+00 0.0000000000000000e+00 0.0000000000000000e+00  -1.0882542578581333e-05 1.1887861915752422e-05 0.0000000000000000e+00  -2.2860601946495559e-05 2.2619926542223487e-05 0.0000000000000000e+00  -3.3731619617570108e-05 3.9181426972012620e-05 0.0000000000000000e+00  -4.5091522450378125e-05 6.1990935804793053e-05 0.0000000000000000e+00  -5.4861162024673431e-05 8.9814407841534149e-05 0.0000000000000000e+00  -6.5242793039865178e-05 1.2308778201951183e-04 0.0000000000000000e+00  -7.3949780039877017e-05 1.6017464692359636e-04 0.0000000000000000e+00  -8.2242622287466039e-05 2.0213233318715169e-04 0.0000000000000000e+00  -9.1091350460534290e-05 2.4763085918365184e-04 0.0000000000000000e+00  -9.8279182927112963e-05 2.9661330568420510e-04 0.0000000000000000e+00  -1.0615731934300918e-04 3.4895246677732093e-04 0.0000000000000000e+00  -1.1255510239284935e-04 4.0410257003133674e-04 0.0000000000000000e+00  -1.1933056764517090e-04 4.6191428766973223e-04 0.0000000000000000e+00  -1.2508100409418141e-04 5.2171363757888458e-04 0.0000000000000000e+00  -1.3050217024073303e-04 5.8384101393590645e-04 0.0000000000000000e+00  -1.3605174389955669e-04 6.4761364954131636e-04 0.0000000000000000e+00  -1.4068911259928116e-04 7.1289165224758494e-04 0.0000000000000000e+00  -1.4547393346323297e-04 7.7964250086135888e-04 0.0000000000000000e+00  -1.4949572125677068e-04 8.4743753252268885e-04 0.0000000000000000e+00  -1.5355952001239705e-04 9.1629211346450654e-04 0.0000000000000000e+00  -1.5708723933073604e-04 9.8590366579771080e-04 0.0000000000000000e+00  -1.6049579204805618e-04 1.0562904644668483e-03 0.0000000000000000e+00  -1.6352713221507708e-04 1.1271358299122947e-03 0.0000000000000000e+00  -1.6631571490255211e-04 1.1985219241764605e-03 0.0000000000000000e+00  -1.6901064022369837e-04 1.2702673968982535e-03 0.0000000000000000e+00  -1.7137621393359834e-04 1.3422876486877990e-03 0.0000000000000000e+00  -1.7355682890392798e-04 1.4146611738147957e-03 0.0000000000000000e+00  -1.7551304861017125e-04 1.4871151411910365e-03 0.0000000000000000e+00  -1.7728612614760432e-04 1.5598319952718992e-03 0.0000000000000000e+00  -1.7886105364098035e-04 1.6325664122630351e-03 0.0000000000000000e+00  -1.8025760799637012e-04 1.7054858131409245e-03 0.0000000000000000e+00  -1.8147142252566601e-04 1.7783681136672098e-03 0.0000000000000000e+00  -1.8252314412456745e-04 1.8513845876105121e-03 0.0000000000000000e+00  -1.8339873931441406e-04 1.9243212204488286e-03 0.0000000000000000e+00  -1.8411215560030437e-04 1.9973762029212730e-03 0.0000000000000000e+00  -1.8468296413925975e-04 2.0703486012385382e-03 0.0000000000000000e+00  -1.8510901797462822e-04 2.1434064404626109e-03 0.0000000000000000e+00  -1.8540645636245094e-04 2.2163848486844813e-03 0.0000000000000000e+00  -1.8556453659317201e-04 2.2894382953577747e-03 0.0000000000000000e+00  -1.8561090723843654e-04 2.3624312995234762e-03 0.0000000000000000e+00  -1.8552483687242426e-04 2.4354677431015432e-03 0.0000000000000000e+00  -1.8536585505648682e-04 2.5084898290871822e-03 0.0000000000000000e+00  -1.8508920448242686e-04 2.5815344128431676e-03 0.0000000000000000e+00  -1.8475353140595525e-04 2.6545982576880165e-03 0.0000000000000000e+00  -1.8433052373190771e-04 2.7276630979070162e-03 0.0000000000000000e+00  -1.8382891233768809e-04 2.8007730784221740e-03 0.0000000000000000e+00  -1.3422897425009698e-04 2.8734624838664970e-03 0.0000000000000000e+00  -3.6219521426576362e-05 2.8724274484593867e-03 0.0000000000000000e+00  1.2212325678255165e-05 2.7986854185775172e-03 0.0000000000000000e+00  1.1692376869297880e-05 2.7253984410039161e-03 0.0000000000000000e+00  1.1245159815809417e-05 2.6520822833836304e-03 0.0000000000000000e+00  1.0882971032590129e-05 2.5787814584699378e-03 0.0000000000000000e+00  1.0589050549807383e-05 2.5054763244570497e-03 0.0000000000000000e+00  1.0424315779553131e-05 2.4321665128116741e-03 0.0000000000000000e+00  1.0334685468498961e-05 2.3588635430435360e-03 0.0000000000000000e+00  1.0383067327086660e-05 2.2855165825747554e-03 0.0000000000000000e+00  1.0540981360445383e-05 2.2122195193130189e-03 0.0000000000000000e+00  1.0830714533179936e-05 2.1388403587605724e-03 0.0000000000000000e+00  1.1237938897198774e-05 2.0655246928855181e-03 0.0000000000000000e+00  1.1789389120941212e-05 1.9921284467314805e-03 0.0000000000000000e+00  1.2462499484190379e-05 1.9188206831595989e-03 0.0000000000000000e+00  1.3273826507746725e-05 1.8454477382725517e-03 0.0000000000000000e+00  1.4190732687354281e-05 1.7721784736269743e-03 0.0000000000000000e+00  1.5248849230704576e-05 1.6988750792820745e-03 0.0000000000000000e+00  1.6390788777889220e-05 1.6257111696148443e-03 0.0000000000000000e+00  1.7676304371101390e-05 1.5525651151684810e-03 0.0000000000000000e+00  1.9009527966383974e-05 1.4796244424919109e-03 0.0000000000000000e+00  2.0484864121120981e-05 1.4067841996521376e-03 0.0000000000000000e+00  2.1948796483025581e-05 1.3342199790941803e-03 0.0000000000000000e+00  2.3560433552824252e-05 1.2618659650950701e-03 0.0000000000000000e+00  2.5103265696665495e-05 1.1898838167775897e-03 0.0000000000000000e+00  2.6746979256739809e-05 1.1182536852568032e-03 0.0000000000000000e+00  2.8413505026154756e-05 1.0472038129788412e-03 0.0000000000000000e+00  2.9885422531310632e-05 9.7662308868079798e-04 0.0000000000000000e+00  3.1414382866747137e-05 9.0682477254743843e-04 0.0000000000000000e+00  3.2743261609494648e-05 8.3782955100039787e-04 0.0000000000000000e+00  3.4053342975397534e-05 7.6987962104177530e-04 0.0000000000000000e+00  3.5084779946200023e-05 7.0304853649661358e-04 0.0000000000000000e+00  3.6063559909693808e-05 6.3757545218388824e-04 0.0000000000000000e+00  3.6470967997782775e-05 5.7384712395618337e-04 0.0000000000000000e+00  3.7081816912553810e-05 5.1162341680634075e-04 0.0000000000000000e+00  3.7464055921158721e-05 4.5180955546215865e-04 0.0000000000000000e+00  3.7040720211528854e-05 3.9379632335362970e-04 0.0000000000000000e+00  3.6630936283987630e-05 3.3870964111479989e-04 0.0000000000000000e+00  3.5565727710293171e-05 2.8633033664317683e-04 0.0000000000000000e+00  3.4443843139425650e-05 2.3718073303640540e-04 0.0000000000000000e+00  3.2163079496770837e-05 1.9188739243196996e-04 0.0000000000000000e+00  3.0403452263782611e-05 1.4985431197323164e-04 0.0000000000000000e+00  2.8283033542390111e-05 1.1276293215811376e-04 0.0000000000000000e+00  2.4629765408776589e-05 7.9331928186001031e-05 0.0000000000000000e+00  2.1305132555047773e-05 5.1336820130027500e-05 0.0000000000000000e+00  1.6437754162998831e-05 2.8731844496937881e-05 0.0000000000000000e+00  1.2051031885453847e-05 1.2253328302103828e-05 0.0000000000000000e+00  5.7845532826707216e-06 2.1685645698004872e-06 0.0000000000000000e+00  -3.3340621483122713e-06 7.7449900439659792e-06 0.0000000000000000e+00  -8.7296281845408109e-05 2.7629705453606976e-03 0.0000000000000000e+00  -8.8906233289249428e-05 2.6231017117850112e-03 0.0000000000000000e+00  -8.8670091635002500e-05 2.3946356132292590e-03 0.0000000000000000e+00  -1.0154277491615387e-05 4.0875665766076550e-05 0.0000000000000000e+00  -8.7451289018841425e-05 2.2508886658750647e-03 0.0000000000000000e+00  -1.6002890593338744e-05 9.4577304879108937e-05 0.0000000000000000e+00  -8.6856738356002908e-05 2.1045243803074955e-03 0.0000000000000000e+00  -2.5939649643356671e-05 2.1858826618884666e-04 0.0000000000000000e+00  -3.3041897500517113e-05 3.1528771343171239e-04 0.0000000000000000e+00  -8.5727338278142031e-05 1.9581496476195098e-03 0.0000000000000000e+00  -4.7426796255436121e-05 6.1198990692636079e-04 0.0000000000000000e+00  -8.1767663949958603e-05 1.6655888059202680e-03 0.0000000000000000e+00  -3.8098530002068282e-05 4.2115746744058051e-04 0.0000000000000000e+00  -5.4200773832605087e-05 7.4036359898502181e-04 0.0000000000000000e+00  -7.8924733404258255e-05 1.5196636316714132e-03 0.0000000000000000e+00  -8.4035582606498788e-05 1.8118071608042097e-03 0.0000000000000000e+00  -5.9659786378611594e-05 8.7634974839430411e-04 0.0000000000000000e+00  -7.5517555832706280e-05 1.3742950916960748e-03 0.0000000000000000e+00  -6.3337042556977223e-05 1.0101963196902271e-03 0.0000000000000000e+00  -7.2900979909322803e-05 1.2328584759373068e-03 0.0000000000000000e+00  -6.8045985365069910e-05 1.1165979062930699e-03 0.0000000000000000e+00  -4.3818363158956038e-05 5.1033436603210457e-04 0.0000000000000000e+00  -8.7130618128170909e-05 2.5133838515098901e-03 0.0000000000000000e+00  -2.1421241574006486e-05 1.4971763232417615e-04 0.0000000000000000e+00  -5.3721717651884346e-05 2.6921169655176563e-03 0.0000000000000000e+00  9.1636355726771902e-07 1.9700836498855194e-05 0.0000000000000000e+00  -5.8721426331340296e-05 2.1770750392959121e-03 0.0000000000000000e+00  -5.9065657661303879e-05 2.3235164299048221e-03 0.0000000000000000e+00  -2.6227526889513520e-05 6.8653235716284228e-05 0.0000000000000000e+00  -4.8723175712975190e-05 2.6614557775202550e-04 0.0000000000000000e+00  -5.4532427465180744e-05 1.7377506732823994e-03 0.0000000000000000e+00  -5.7869409608962618e-05 2.0306053849432956e-03 0.0000000000000000e+00  -7.6649101811926461e-05 6.7571201782248673e-04 0.0000000000000000e+00  -5.2048062068746925e-05 1.5915596424773870e-03 0.0000000000000000e+00  -5.7375972573180728e-05 3.7098172877192599e-04 0.0000000000000000e+00  -8.3246738913772517e-05 8.0934231664467999e-04 0.0000000000000000e+00  -4.9041858578070626e-05 1.4457923964552501e-03 0.0000000000000000e+00  -5.6474677190943209e-05 1.8841419583400954e-03 0.0000000000000000e+00  -9.5181466737235499e-05 9.4675033148564937e-04 0.0000000000000000e+00  -4.5557863036043107e-05 1.3007541317425061e-03 0.0000000000000000e+00  -2.4342764888852172e-06 3.0026114216064973e-06 0.0000000000000000e+00  3.4377271769838679e-07 5.6900528511730388e-07 0.0000000000000000e+00  -1.0944628403911842e-04 2.8207894776106700e-03 0.0000000000000000e+00  -1.5260878922024635e-05 2.3879828238897970e-05 0.0000000000000000e+00  -3.5593584013780027e-05 1.1726128516313630e-03 0.00000