<?xml version="1.0"?>
<VTKFile type="UnstructuredGrid"  version="0.1"  >
<UnstructuredGrid>
<Piece  NumberOfPoints="1419" NumberOfCells="2698">
<Points>
<DataArray  type="Float64"  NumberOfComponents="3"  format="ascii">0 0 0  0 0.41 0  2.5 0 0  2.5 0.41 0  0.6 0.19 0  0.6 0.21 0  0.25 0.2 0  0.15 0.2 0  0.2489897948556636 0.21 0  0.2489897948556636 0.19 0  0.6 0.2 0  0 0.3807142857143437 0  0 0.3514285714286952 0  0 0.3221428571430699 0  0 0.29285714285744 0  0 0.2635714285718054 0  0 0.2342857142861561 0  0 0.2050000000005308 0  0 0.175714285714732 0  0 0.1464285714289574 0  0 0.1171428571431897 0  0 0.08785714285737878 0  0 0.05857142857161107 0  0 0.02928571428580012 0  0.03015443760436003 0 0  0.06140001986583606 0 0  0.09377624077125973 0 0  0.1273239957535082 0 0  0.1620856860351972 0 0  0.1981052433264291 0 0  0.235428184091502 0 0  0.2741016576309132 0 0  0.3141745521465447 0 0  0.3556974926295285 0 0  0.3987229542472677 0 0  0.4433053055141081 0 0  0.4895008759286886 0 0  0.5373680609405097 0 0  0.5869673343216626 0 0  0.6383613676634521 0 0  0.6916151138468254 0 0  0.7467958595648856 0 0  0.8039733463919316 0 0  0.8632198139502143 0 0  0.9246101326867038 0 0  0.9882218810934433 0 0  1.054135445558498 0 0  1.122434100542598 0 0  1.193204177141305 0 0  1.266535089879536 0 0  1.342519516046404 0 0  1.421253448503939 0 0  1.502836389106271 0 0  1.587371439758838 0 0  1.674965418777374 0 0  1.765729001825544 0 0  1.859776908880082 0 0  1.957227977487062 0 0  2.058205329869943 0 0  2.162836591189951 0 0  2.271253957290865 0 0  2.383594446803425 0 0  2.5 0.1024999999997612 0  2.5 0.2049999999994743 0  2.5 0.3074999999997183 0  2.383594446803656 0.41 0  2.271253957291315 0.41 0  2.162836591190598 0.41 0  2.058205329870775 0.41 0  1.957227977488067 0.41 0  1.859776908881246 0.41 0  1.765729001826854 0.41 0  1.674965418778818 0.41 0  1.58737143976041 0.41 0  1.502836389107956 0.41 0  1.421253448505726 0.41 0  1.342519516048286 0.41 0  1.266535089881505 0.41 0  1.193204177143353 0.41 0  1.122434100544716 0.41 0  1.05413544556068 0.41 0  0.9882218810956305 0.41 0  0.9246101326886647 0.41 0  0.8632198139519631 0.41 0  0.8039733463934788 0.41 0  0.7467958595662458 0.41 0  0.6916151138480078 0.41 0  0.6383613676644679 0.41 0  0.5869673343225223 0.41 0  0.5373680609412221 0.41 0  0.4895008759292634 0.41 0  0.4433053055145528 0.41 0  0.3987229542475914 0.41 0  0.3556974926297398 0.41 0  0.3141745521466497 0.41 0  0.2741016576310038 0.41 0  0.2354281840915826 0.41 0  0.1981052433265003 0.41 0  0.1620856860352591 0.41 0  0.1273239957535623 0.41 0  0.09377624077128965 0.41 0  0.06140001986584975 0.41 0  0.03015443760436654 0.41 0  0.2497468076502589 0.2050254481002335 0  0.2497468076502614 0.1949745518997913 0  0.2469965252529372 0.1829317073451959 0  0.2439893735792749 0.1762316384219906 0  0.2400332147834255 0.1700443375285386 0  0.2352133972704371 0.1645032867342007 0  0.2296339016332438 0.1597280261969788 0  0.2234150974217223 0.1558215752574715 0  0.2166911463437691 0.1528682099456123 0  0.2096071079204251 0.1509316448471593 0  0.2023158100364996 0.1500536585536553 0  0.194974551899914 0.1502531923497262 0  0.1877417105387872 0.1515259415822739 0  0.1807733240461124 0.153844448527136 0  0.1742197252835808 0.15715869474974 0  0.1682222986673531 0.1613971801805478 0  0.162910430003803 0.1664684656256651 0  0.1583987151779087 0.1722631454351573 0  0.1547844879126891 0.178656207771761 0  0.1521457199348551 0.1855097315605723 0  0.1505393388476355 0.1926758619366523 0  0.1505393388476328 0.2073241380633295 0  0.1521457199348437 0.2144902684393899 0  0.1547844879126531 0.221343792228163 0  0.1583987151778488 0.2277368545647528 0  0.1629104300036858 0.2335315343742052 0  0.1682222986671726 0.2386028198193036 0  0.1742197252833576 0.2428413052501257 0  0.1807733240458683 0.2461555514727623 0  0.1877417105384929 0.2484740584176516 0  0.1949745518995776 0.2497468076502398 0  0.202315810036185 0.2499463414463592 0  0.2096071079201568 0.2490683551528932 0  0.2166911463435495 0.2471317900544655 0  0.2234150974215506 0.2441784247426195 0  0.2296339016331197 0.2402719738031125 0  0.2352133972703547 0.2354967132658811 0  0.2400332147833751 0.2299556624715287 0  0.2439893735792577 0.2237683615780412 0  0.246996525252926 0.2170682926548348 0  0.25645809709277 0.21 0  0.2639263993298655 0.21 0  0.271394701566961 0.21 0  0.2788630038040554 0.21 0  0.2863313060411479 0.21 0  0.2937996082782405 0.21 0  0.301267910515333 0.21 0  0.3087362127524279 0.21 0  0.3162045149895234 0.21 0  0.3236728172265972 0.21 0  0.3311411194636928 0.21 0  0.3386094217007701 0.21 0  0.3460777239378666 0.21 0  0.3535460261749672 0.21 0  0.3610143284120516 0.21 0  0.3684826306491596 0.21 0  0.3759509328862226 0.21 0  0.383419235123329 0.21 0  0.3908875373604028 0.21 0  0.3983558395975142 0.21 0  0.4058241418345938 0.21 0  0.4132924440716992 0.21 0  0.4207607463087888 0.21 0  0.4282290485459029 0.21 0  0.4356973507830418 0.21 0  0.4431656530201649 0.21 0  0.4506339552573136 0.21 0  0.4581022574944306 0.21 0  0.4655705597315852 0.21 0  0.4730388619686996 0.21 0  0.480507164205851 0.21 0  0.4879754664429498 0.21 0  0.4954437686800938 0.21 0  0.502912070917267 0.21 0  0.5103803731544119 0.21 0  0.5178486753915261 0.21 0  0.5253169776286404 0.21 0  0.5327852798657868 0.21 0  0.5402535821029386 0.21 0  0.54772188434007 0.21 0  0.5551901865771842 0.21 0  0.5626584888143201 0.21 0  0.5701267910514778 0.21 0  0.5775950932886138 0.21 0  0.5850633955257281 0.21 0  0.5925316977628483 0.21 0  0.6 0.2050000000000054 0  0.6 0.1950000000000217 0  0.5925316977628897 0.19 0  0.5850633955257988 0.19 0  0.5775950932887378 0.19 0  0.5701267910515998 0.19 0  0.5626584888145268 0.19 0  0.5551901865773963 0.19 0  0.547721884340339 0.19 0  0.5402535821032429 0.19 0  0.5327852798661811 0.19 0  0.5253169776290537 0.19 0  0.5178486753919799 0.19 0  0.5103803731549078 0.19 0  0.502912070917822 0.19 0  0.4954437686807294 0.19 0  0.4879754664436223 0.19 0  0.4805071642065402 0.19 0  0.4730388619694271 0.19 0  0.4655705597323621 0.19 0  0.4581022574952563 0.19 0  0.4506339552581777 0.19 0  0.4431656530210671 0.19 0  0.4356973507839815 0.19 0  0.4282290485468779 0.19 0  0.4207607463097617 0.19 0  0.4132924440726327 0.19 0  0.4058241418354857 0.19 0  0.3983558395983636 0.19 0  0.3908875373612097 0.19 0  0.3834192351240934 0.19 0  0.3759509328869369 0.19 0  0.3684826306498175 0.19 0  0.361014328412667 0.19 0  0.3535460261755617 0.19 0  0.3460777239384295 0.19 0  0.3386094217012945 0.19 0  0.3311411194641595 0.19 0  0.3236728172270245 0.19 0  0.3162045149898895 0.19 0  0.3087362127527544 0.19 0  0.3012679105156187 0.19 0  0.2937996082784807 0.19 0  0.2863313060413428 0.19 0  0.2788630038042048 0.19 0  0.2713947015670686 0.19 0  0.2639263993299336 0.19 0  0.2564580970927985 0.19 0  0.2607803159922026 0.2000727136295815 0  0.5887803774232762 0.2001272386983733 0  0.5745072403740523 0.2002044435018727 0  0.5511891430099709 0.2001122610077113 0  0.2751288526855082 0.20000000000002 0  0.5365194309847112 0.1999999999999436 0  0.2894621222999649 0.1998691686390484 0  0.5215828265105155 0.1999999999999228 0  0.3127789816668748 0.1998657885438805 0  0.3274069683451451 0.2000000000000796 0  0.5066462220363641 0.199999999999908 0  0.3650630746574081 0.199866017807523 0  0.476773013087985 0.1999999999998713 0  0.3417402379596385 0.1998691686391011 0  0.3796850840047755 0.200000000000134 0  0.4618364086138087 0.1999999999998546 0  0.4917096175621762 0.1999999999998808 0  0.3946216884789568 0.2000000000001512 0  0.446899804139621 0.1999999999998389 0  0.4089549580935208 0.1998691686391595 0  0.4322718174608562 0.200127451265745 0  0.4201487168029707 0.1999966199048527 0  0.3528922713220932 0.2000185703532356 0  0.5633122436674589 0.1999814296467508 0  0.3006558810093873 0.1999966199048318 0  0.5815926498168407 0.1966545283159175 0  0.2677053789419034 0.1964246479135325 0  0.5290511287476175 0.1970915826863981 0  0.5439877332217911 0.197091582686394 0  0.2825131256993216 0.2035478995978015 0  0.3199386661080599 0.202908417313604 0  0.4842413153250809 0.1970915826863873 0  0.5141145242734466 0.1970915826863843 0  0.3722167817676917 0.2029084173136195 0  0.4693047108508938 0.1970915826863783 0  0.3348752705822316 0.202908417313609 0  0.3871533862418661 0.2029084173136212 0  0.4543681063767183 0.1970915826863795 0  0.4991779197992749 0.1970915826863902 0  0.4020059614928624 0.203547899597858 0  0.4394315019025246 0.1970915826863714 0  0.2550657455369551 0.2034088125358657 0  0.2548908499171161 0.1966940311614271 0  0.5946539510196798 0.2024302972968126 0  0.267698176732111 0.2039977513680092 0  0.4261685417851465 0.196409292431739 0  0.3590076176283495 0.196411355804271 0  0.5571672426447437 0.2036011176410121 0  0.3066757059912147 0.1964092924317024 0  0.594380730180568 0.1966558399668133 0  0.4842413153245942 0.2040749161535287 0  0.4693047108503577 0.2040749161535231 0  0.3871533862424271 0.1959250838464788 0  0.372246743208829 0.1959123236376545 0  0.5141145242731028 0.2040749161535395 0  0.4543681063761134 0.2040749161535186 0  0.4019979587101454 0.1959834479682427 0  0.4394608940728603 0.2040870543693135 0  0.5439623148931173 0.2040856076781014 0  0.5290511287473298 0.2040749161535501 0  0.4991779197988497 0.2040749161535382 0  0.3347912413592433 0.1959225448935183 0  0.3199680582793816 0.1959123018030061 0  0.2825051229162361 0.1959834479681729 0  0.3590471196690275 0.2036304442587945 0  0.5571594006495384 0.1963685282145804 0  0.3067669986803285 0.203627750582736 0  0.4262598344738712 0.2036568242185335 0  0.5814408164431408 0.2041285596160068 0  0.5688286748170428 0.1961819304477386 0  0.4145905603063645 0.2038180695522843 0  0.3473758401724931 0.2038180695522752 0  0.2950977245128307 0.2038180695522663 0  0.5688286748170693 0.203818069552238 0  0.2950977245127906 0.1961819304477774 0  0.3473758401723931 0.1961819304478349 0  0.4145905603061963 0.1961819304479011 0  0.2601812407614425 0.2056861609747042
[...]
<PointData  Vectors="f_40-0"> 
<DataArray  type="Float64"  Name="f_40-0"  NumberOfComponents="3" format="ascii">0.0000000000000000e+00 0.0000000000000000e+00 0.0000000000000000e+00  0.0000000000000000e+00 0.0000000000000000e+00 0.0000000000000000e+00  0.0000000000000000e+00 0.0000000000000000e+00 0.0000000000000000e+00  0.0000000000000000e+00 0.0000000000000000e+00 0.0000000000000000e+00  -7.8210577435112768e-06 -6.2117983813839834e-04 0.0000000000000000e+00  3.9948734709318440e-05 -6.2628387997520885e-04 0.0000000000000000e+00  0.0000000000000000e+00 0.0000000000000000e+00 0.0000000000000000e+00  0.0000000000000000e+00 0.0000000000000000e+00 0.0000000000000000e+00  0.0000000000000000e+00 0.0000000000000000e+00 0.0000000000000000e+00  0.0000000000000000e+00 0.0000000000000000e+00 0.0000000000000000e+00  1.5550580645125173e-05 -6.2372533643737058e-04 0.0000000000000000e+00  9.6610761811573145e-02 0.0000000000000000e+00 0.0000000000000000e+00  1.7835832949830069e-01 0.0000000000000000e+00 0.0000000000000000e+00  2.4524270306016352e-01 0.0000000000000000e+00 0.0000000000000000e+00  2.9726388249723901e-01 0.0000000000000000e+00 0.0000000000000000e+00  3.3442186780952043e-01 0.0000000000000000e+00 0.0000000000000000e+00  3.5671665899700555e-01 0.0000000000000000e+00 0.0000000000000000e+00  3.6414825605967210e-01 0.0000000000000000e+00 0.0000000000000000e+00  3.5671665899745630e-01 0.0000000000000000e+00 0.0000000000000000e+00  3.3442186781029465e-01 0.0000000000000000e+00 0.0000000000000000e+00  2.9726388249819785e-01 0.0000000000000000e+00 0.0000000000000000e+00  2.4524270306107440e-01 0.0000000000000000e+00 0.0000000000000000e+00  1.7835832949907804e-01 0.0000000000000000e+00 0.0000000000000000e+00  9.6610761812011114e-02 0.0000000000000000e+00 0.0000000000000000e+00  0.0000000000000000e+00 0.0000000000000000e+00 0.0000000000000000e+00  0.0000000000000000e+00 0.0000000000000000e+00 0.0000000000000000e+00  0.0000000000000000e+00 0.0000000000000000e+00 0.0000000000000000e+00  0.0000000000000000e+00 0.0000000000000000e+00 0.0000000000000000e+00  0.0000000000000000e+00 0.0000000000000000e+00 0.0000000000000000e+00  0.0000000000000000e+00 0.0000000000000000e+00 0.0000000000000000e+00  0.0000000000000000e+00 0.0000000000000000e+00 0.0000000000000000e+00  0.0000000000000000e+00 0.0000000000000000e+00 0.0000000000000000e+00  0.0000000000000000e+00 0.0000000000000000e+00 0.0000000000000000e+00  0.0000000000000000e+00 0.0000000000000000e+00 0.0000000000000000e+00  0.0000000000000000e+00 0.0000000000000000e+00 0.0000000000000000e+00  0.0000000000000000e+00 0.0000000000000000e+00 0.0000000000000000e+00  0.0000000000000000e+00 0.0000000000000000e+00 0.0000000000000000e+00  0.0000000000000000e+00 0.0000000000000000e+00 0.0000000000000000e+00  0.0000000000000000e+00 0.0000000000000000e+00 0.0000000000000000e+00  0.0000000000000000e+00 0.0000000000000000e+00 0.0000000000000000e+00  0.0000000000000000e+00 0.0000000000000000e+00 0.0000000000000000e+00  0.0000000000000000e+00 0.0000000000000000e+00 0.0000000000000000e+00  0.0000000000000000e+00 0.0000000000000000e+00 0.0000000000000000e+00  0.0000000000000000e+00 0.0000000000000000e+00 0.0000000000000000e+00  0.0000000000000000e+00 0.0000000000000000e+00 0.0000000000000000e+00  0.0000000000000000e+00 0.0000000000000000e+00 0.0000000000000000e+00  0.0000000000000000e+00 0.0000000000000000e+00 0.0000000000000000e+00  0.0000000000000000e+00 0.0000000000000000e+00 0.0000000000000000e+00  0.0000000000000000e+00 0.0000000000000000e+00 0.0000000000000000e+00  0.0000000000000000e+00 0.0000000000000000e+00 0.0000000000000000e+00  0.0000000000000000e+00 0.0000000000000000e+00 0.0000000000000000e+00  0.0000000000000000e+00 0.0000000000000000e+00 0.0000000000000000e+00  0.0000000000000000e+00 0.0000000000000000e+00 0.0000000000000000e+00  0.0000000000000000e+00 0.0000000000000000e+00 0.0000000000000000e+00  0.0000000000000000e+00 0.0000000000000000e+00 0.0000000000000000e+00  0.0000000000000000e+00 0.0000000000000000e+00 0.0000000000000000e+00  0.0000000000000000e+00 0.0000000000000000e+00 0.0000000000000000e+00  0.0000000000000000e+00 0.0000000000000000e+00 0.0000000000000000e+00  0.0000000000000000e+00 0.0000000000000000e+00 0.0000000000000000e+00  0.0000000000000000e+00 0.0000000000000000e+00 0.0000000000000000e+00  0.0000000000000000e+00 0.0000000000000000e+00 0.0000000000000000e+00  0.0000000000000000e+00 0.0000000000000000e+00 0.0000000000000000e+00  3.1249173478010411e-01 1.0074837350963863e-03 0.0000000000000000e+00  2.3646905000952451e-01 -1.8353715040465214e-04 0.0000000000000000e+00  3.1143391715927787e-01 -1.7470407037952810e-03 0.0000000000000000e+00  0.0000000000000000e+00 0.0000000000000000e+00 0.0000000000000000e+00  0.0000000000000000e+00 0.0000000000000000e+00 0.0000000000000000e+00  0.0000000000000000e+00 0.0000000000000000e+00 0.0000000000000000e+00  0.0000000000000000e+00 0.0000000000000000e+00 0.0000000000000000e+00  0.0000000000000000e+00 0.0000000000000000e+00 0.0000000000000000e+00  0.0000000000000000e+00 0.0000000000000000e+00 0.0000000000000000e+00  0.0000000000000000e+00 0.0000000000000000e+00 0.0000000000000000e+00  0.0000000000000000e+00 0.0000000000000000e+00 0.0000000000000000e+00  0.0000000000000000e+00 0.0000000000000000e+00 0.0000000000000000e+00  0.0000000000000000e+00 0.0000000000000000e+00 0.0000000000000000e+00  0.0000000000000000e+00 0.0000000000000000e+00 0.0000000000000000e+00  0.0000000000000000e+00 0.0000000000000000e+00 0.0000000000000000e+00  0.0000000000000000e+00 0.0000000000000000e+00 0.0000000000000000e+00  0.0000000000000000e+00 0.0000000000000000e+00 0.0000000000000000e+00  0.0000000000000000e+00 0.0000000000000000e+00 0.0000000000000000e+00  0.0000000000000000e+00 0.0000000000000000e+00 0.0000000000000000e+00  0.0000000000000000e+00 0.0000000000000000e+00 0.0000000000000000e+00  0.0000000000000000e+00 0.0000000000000000e+00 0.0000000000000000e+00  0.0000000000000000e+00 0.0000000000000000e+00 0.0000000000000000e+00  0.0000000000000000e+00 0.0000000000000000e+00 0.0000000000000000e+00  0.0000000000000000e+00 0.0000000000000000e+00 0.0000000000000000e+00  0.0000000000000000e+00 0.0000000000000000e+00 0.0000000000000000e+00  0.0000000000000000e+00 0.0000000000000000e+00 0.0000000000000000e+00  0.0000000000000000e+00 0.0000000000000000e+00 0.0000000000000000e+00  0.0000000000000000e+00 0.0000000000000000e+00 0.0000000000000000e+00  0.0000000000000000e+00 0.0000000000000000e+00 0.0000000000000000e+00  0.0000000000000000e+00 0.0000000000000000e+00 0.0000000000000000e+00  0.0000000000000000e+00 0.0000000000000000e+00 0.0000000000000000e+00  0.0000000000000000e+00 0.0000000000000000e+00 0.0000000000000000e+00  0.0000000000000000e+00 0.0000000000000000e+00 0.0000000000000000e+00  0.0000000000000000e+00 0.0000000000000000e+00 0.0000000000000000e+00  0.0000000000000000e+00 0.0000000000000000e+00 0.0000000000000000e+00  0.0000000000000000e+00 0.0000000000000000e+00 0.0000000000000000e+00  0.0000000000000000e+00 0.0000000000000000e+00 0.0000000000000000e+00  0.0000000000000000e+00 0.0000000000000000e+00 0.0000000000000000e+00  0.0000000000000000e+00 0.0000000000000000e+00 0.0000000000000000e+00  0.0000000000000000e+00 0.0000000000000000e+00 0.0000000000000000e+00  0.0000000000000000e+00 0.0000000000000000e+00 0.0000000000000000e+00  0.0000000000000000e+00 0.0000000000000000e+00 0.0000000000000000e+00  0.0000000000000000e+00 0.0000000000000000e+00 0.0000000000000000e+00  0.0000000000000000e+00 0.0000000000000000e+00 0.0000000000000000e+00  0.0000000000000000e+00 0.0000000000000000e+00 0.0000000000000000e+00  0.0000000000000000e+00 0.0000000000000000e+00 0.0000000000000000e+00  0.0000000000000000e+00 0.0000000000000000e+00 0.0000000000000000e+00  0.0000000000000000e+00 0.0000000000000000e+00 0.0000000000000000e+00  0.0000000000000000e+00 0.0000000000000000e+00 0.0000000000000000e+00  0.0000000000000000e+00 0.0000000000000000e+00 0.0000000000000000e+00  0.0000000000000000e+00 0.0000000000000000e+00 0.0000000000000000e+00  0.0000000000000000e+00 0.0000000000000000e+00 0.0000000000000000e+00  0.0000000000000000e+00 0.0000000000000000e+00 0.0000000000000000e+00  0.0000000000000000e+00 0.0000000000000000e+00 0.0000000000000000e+00  0.0000000000000000e+00 0.0000000000000000e+00 0.0000000000000000e+00  0.0000000000000000e+00 0.0000000000000000e+00 0.0000000000000000e+00  0.0000000000000000e+00 0.0000000000000000e+00 0.0000000000000000e+00  0.0000000000000000e+00 0.0000000000000000e+00 0.0000000000000000e+00  0.0000000000000000e+00 0.0000000000000000e+00 0.0000000000000000e+00  0.0000000000000000e+00 0.0000000000000000e+00 0.0000000000000000e+00  0.0000000000000000e+00 0.0000000000000000e+00 0.0000000000000000e+00  0.0000000000000000e+00 0.0000000000000000e+00 0.0000000000000000e+00  0.0000000000000000e+00 0.0000000000000000e+00 0.0000000000000000e+00  0.0000000000000000e+00 0.0000000000000000e+00 0.0000000000000000e+00  0.0000000000000000e+00 0.0000000000000000e+00 0.0000000000000000e+00  0.0000000000000000e+00 0.0000000000000000e+00 0.0000000000000000e+00  0.0000000000000000e+00 0.0000000000000000e+00 0.0000000000000000e+00  0.0000000000000000e+00 0.0000000000000000e+00 0.0000000000000000e+00  0.0000000000000000e+00 0.0000000000000000e+00 0.0000000000000000e+00  0.0000000000000000e+00 0.0000000000000000e+00 0.0000000000000000e+00  0.0000000000000000e+00 0.0000000000000000e+00 0.0000000000000000e+00  0.0000000000000000e+00 0.0000000000000000e+00 0.0000000000000000e+00  0.0000000000000000e+00 0.0000000000000000e+00 0.0000000000000000e+00  0.0000000000000000e+00 0.0000000000000000e+00 0.0000000000000000e+00  0.0000000000000000e+00 0.0000000000000000e+00 0.0000000000000000e+00  0.0000000000000000e+00 0.0000000000000000e+00 0.0000000000000000e+00  0.0000000000000000e+00 0.0000000000000000e+00 0.0000000000000000e+00  0.0000000000000000e+00 0.0000000000000000e+00 0.0000000000000000e+00  0.0000000000000000e+00 0.0000000000000000e+00 0.0000000000000000e+00  0.0000000000000000e+00 0.0000000000000000e+00 0.0000000000000000e+00  0.0000000000000000e+00 0.0000000000000000e+00 0.0000000000000000e+00  2.1697267648305932e-06 -6.2539162324657156e-06 0.0000000000000000e+00  4.7287897682548219e-06 -8.1909088788726040e-06 0.0000000000000000e+00  7.4354626375518294e-06 -1.0833609745682735e-05 0.0000000000000000e+00  1.0403859123996472e-05 -1.4342095267167711e-05 0.0000000000000000e+00  1.3182839244816125e-05 -1.8727775169428537e-05 0.0000000000000000e+00  1.6097817290665695e-05 -2.4109352442680955e-05 0.0000000000000000e+00  1.8713954595923401e-05 -3.0193419951591351e-05 0.0000000000000000e+00  2.1242411948298557e-05 -3.7214699063790836e-05 0.0000000000000000e+00  2.3890046908402923e-05 -4.4957005075396643e-05 0.0000000000000000e+00  2.6169853643798636e-05 -5.3420279916710938e-05 0.0000000000000000e+00  2.8593257160308011e-05 -6.2657110121010028e-05 0.0000000000000000e+00  3.0657293609455089e-05 -7.2529211858834901e-05 0.0000000000000000e+00  3.2795027011508109e-05 -8.3080588349796709e-05 0.0000000000000000e+00  3.4663851713857106e-05 -9.4160749513071812e-05 0.0000000000000000e+00  3.6419146095856365e-05 -1.0588576730855507e-04 0.0000000000000000e+00  3.8216155518629118e-05 -1.1811738952437205e-04 0.0000000000000000e+00  3.9718296494930097e-05 -1.3081652510389615e-04 0.0000000000000000e+00  4.1268972611218091e-05 -1.4405164313787146e-04 0.0000000000000000e+00  4.2547072214360439e-05 -1.5766678641290497e-04 0.0000000000000000e+00  4.3849170345838163e-05 -1.7173697328371325e-04 0.0000000000000000e+00  4.4936085605749511e-05 -1.8614598289945722e-04 0.0000000000000000e+00  4.5986504958763920e-05 -2.0095349990188944e-04 0.0000000000000000e+00  4.6866407298485129e-05 -2.1602966149991663e-04 0.0000000000000000e+00  4.7639099066263875e-05 -2.3144590414307613e-04 0.0000000000000000e+00  4.8393177901961983e-05 -2.4711292912211677e-04 0.0000000000000000e+00  4.8977859787741670e-05 -2.6301995344280043e-04 0.0000000000000000e+00  4.9483588382707960e-05 -2.7921138418726714e-04 0.0000000000000000e+00  4.9868637387074040e-05 -2.9555157979184715e-04 0.0000000000000000e+00  5.0172543924665521e-05 -3.1214065613970168e-04 0.0000000000000000e+00  5.0363927620581136e-05 -3.2884459801286932e-04 0.0000000000000000e+00  5.0472523668074385e-05 -3.4575808833113298e-04 0.0000000000000000e+00  5.0472706390488713e-05 -3.6275112071793253e-04 0.0000000000000000e+00  5.0392113814638406e-05 -3.7992010653495453e-04 0.0000000000000000e+00  5.0205504953628652e-05 -3.9713521720653115e-04 0.0000000000000000e+00  4.9933807854619278e-05 -4.1450246948922400e-04 0.0000000000000000e+00  4.9564543793201124e-05 -4.3189192144033669e-04 0.0000000000000000e+00  4.9112414085660089e-05 -4.4940328982973857e-04 0.0000000000000000e+00  4.8565826152873583e-05 -4.6691622949877751e-04 0.0000000000000000e+00  4.7933611877788078e-05 -4.8452981086227385e-04 0.0000000000000000e+00  4.7206359634712847e-05 -5.0212714230080742e-04 0.0000000000000000e+00  4.6382390182431284e-05 -5.1979046123777877e-04 0.0000000000000000e+00  4.5484666757621547e-05 -5.3745295598460268e-04 0.0000000000000000e+00  4.4486707922484082e-05 -5.5514254322649060e-04 0.0000000000000000e+00  4.3435836860851213e-05 -5.7283965577233184e-04 0.0000000000000000e+00  4.2277986337746005e-05 -5.9051324319714859e-04 0.0000000000000000e+00  4.1077668273671677e-05 -6.0825680561801159e-04 0.0000000000000000e+00  2.7568375642263115e-05 -6.2500243767918753e-04 0.0000000000000000e+00  3.7030968899302160e-06 -6.2245600163892583e-04 0.0000000000000000e+00  -6.6674629471645900e-06 -6.0352919541515346e-04 0.0000000000000000e+00  -5.4295417758582238e-06 -5.8561940782894467e-04 0.0000000000000000e+00  -4.2380802387931005e-06 -5.6767287323244411e-04 0.0000000000000000e+00  -3.1366577715799501e-06 -5.4977488240359805e-04 0.0000000000000000e+00  -2.0893708114172094e-06 -5.3189045386654312e-04 0.0000000000000000e+00  -1.1338769294166594e-06 -5.1403015814169045e-04 0.0000000000000000e+00  -2.2712803653422825e-07 -4.9620661136411549e-04 0.0000000000000000e+00  5.8828545568384507e-07 -4.7838567427844401e-04 0.0000000000000000e+00  1.3509738657585828e-06 -4.6064970498179900e-04 0.0000000000000000e+00  2.0317333915960982e-06 -4.4291288780281261e-04 0.0000000000000000e+00  2.6710475295413793e-06 -4.2528004989007942e-04 0.0000000000000000e+00  3.2244620943324191e-06 -4.0766798133055562e-04 0.0000000000000000e+00  3.7472920490995966e-06 -3.9018330135007781e-04 0.0000000000000000e+00  4.1811295001679856e-06 -3.7274659594406365e-04 0.0000000000000000e+00  4.5981537910905199e-06 -3.5546090698832336e-04 0.0000000000000000e+00  4.9188075424632947e-06 -3.3825167124126811e-04 0.0000000000000000e+00  5.2364186757393128e-06 -3.2122175859821794e-04 0.0000000000000000e+00  5.4489723813440956e-06 -3.0430129397055811e-04 0.0000000000000000e+00  5.6733560875699831e-06 -2.8759707795004904e-04 0.0000000000000000e+00  5.7836296287075422e-06 -2.7104177177668577e-04 0.0000000000000000e+00  5.9243180081842096e-06 -2.5474012499806571e-04 0.0000000000000000e+00  5.9395061630759425e-06 -2.3863125953400301e-04 0.0000000000000000e+00  5.9866277164566318e-06 -2.2280549087205819e-04 0.0000000000000000e+00  5.9321368375622741e-06 -2.0721950994650134e-04 0.0000000000000000e+00  5.8204801529932762e-06 -1.9198620707880818e-04 0.0000000000000000e+00  5.7651044608781052e-06 -1.7701800509057391e-04 0.0000000000000000e+00  5.6005225482792143e-06 -1.6241846223389277e-04 0.0000000000000000e+00  5.4472742130044468e-06 -1.4821883771659434e-04 0.0000000000000000e+00  5.2147852846465614e-06 -1.3439949090724961e-04 0.0000000000000000e+00  4.9920176400180429e-06 -1.2105089291825965e-04 0.0000000000000000e+00  4.6908478127470401e-06 -1.0812371203864489e-04 0.0000000000000000e+00  4.4512292871050184e-06 -9.5785456746483874e-05 0.0000000000000000e+00  4.0706655370308096e-06 -8.3880777543214401e-05 0.0000000000000000e+00  3.6440873107662064e-06 -7.2654732808394016e-05 0.0000000000000000e+00  3.3469188378915824e-06 -6.1911702852909172e-05 0.0000000000000000e+00  2.9191392821678245e-06 -5.1873948054722133e-05 0.0000000000000000e+00  2.5359214195411258e-06 -4.2529479054744101e-05 0.0000000000000000e+00  2.0609078572683536e-06 -3.3863539583758877e-05 0.0000000000000000e+00  1.7087672542454476e-06 -2.6054623595484185e-05 0.0000000000000000e+00  1.1754809669082451e-06 -1.8907877780186502e-05 0.0000000000000000e+00  6.1906043381862417e-07 -1.2739037704037495e-05 0.0000000000000000e+00  2.8292057837219467e-07 -7.2816527690211684e-06 0.0000000000000000e+00  -1.9597713280983829e-07 -2.7770699284621406e-06 0.0000000000000000e+00  -4.1461638736003370e-07 7.6116175843195228e-07 0.0000000000000000e+00  -6.4393258780607216e-07 3.1397936712550848e-06 0.0000000000000000e+00  -3.6250588957421549e-07 4.2269028281393774e-06 0.0000000000000000e+00  5.5593294797563576e-07 -1.0810876380468642e-06 0.0000000000000000e+00  1.7915616928018081e-05 -5.9695829513257276e-04 0.0000000000000000e+00  2.0457061742330105e-05 -5.6293534379292715e-04 0.0000000000000000e+00  2.3283450441388074e-05 -5.0741357401382656e-04 0.0000000000000000e+00  4.2362649104057410e-06 -6.0511002556666430e-06 0.0000000000000000e+00  2.4522957506944619e-05 -4.7258467466844325e-04 0.0000000000000000e+00  7.2977084043099633e-06 -1.4489280703485514e-05 0.0000000000000000e+00  2.5760231824639798e-05 -4.3732148161453250e-04 0.0000000000000000e+00  1.2081788593451045e-05 -3.5162057849643322e-05 0.0000000000000000e+00  1.4982495596329093e-05 -5.2082302121801745e-05 0.0000000000000000e+00  2.6693545299177937e-05 -4.0230456191178747e-04 0.0000000000000000e+00  2.0696973923447992e-05 -1.0701707012136437e-04 0.0000000000000000e+00  2.7664610677248188e-05 -3.3340427297448067e-04 0.0000000000000000e+00  1.7277055334782713e-05 -7.1108403077554567e-05 0.0000000000000000e+00  2.2720821294047002e-05 -1.3222627245653015e-04 0.0000000000000000e+00  2.7708119659580292e-05 -2.9975575505356689e-04 0.0000000000000000e+00  2.7327262936708025e-05 -3.6762919578866269e-04 0.0000000000000000e+00  2.4286346376561074e-05 -1.5969906802009294e-04 0.0000000000000000e+00  2.7457305385397046e-05 -2.6683156054250741e-04 0.0000000000000000e+00  2.5262384098024369e-05 -1.8748609492781152e-04 0.0000000000000000e+00  2.7207650026858534e-05 -2.3549389696701203e-04 0.0000000000000000e+00  2.6254255282536121e-05 -2.1022135307075210e-04 0.0000000000000000e+00  1.9198844855173568e-05 -8.7752160571244041e-05 0.0000000000000000e+00  2.1454822166809112e-05 -5.3621233291945144e-04 0.0000000000000000e+00  9.7343426795976246e-06 -2.3613000207091870e-05 0.0000000000000000e+00  1.0875850191979244e-05 -5.7895385234082498e-04 0.0000000000000000e+00  1.2755641972803526e-06 -9.6628574012237308e-07 0.0000000000000000e+00  1.8326065133204542e-05 -4.5400550212555224e-04 0.0000000000000000e+00  1.6901740321017116e-05 -4.8940882613907706e-04 0.0000000000000000e+00  7.9309449136617338e-06 -1.2153469651553642e-05 0.0000000000000000e+00  1.6916090594752310e-05 -4.4789982484252355e-05 0.0000000000000000e+00  2.0888113346360459e-05 -3.4938957390758869e-04 0.0000000000000000e+00  1.9461379177647816e-05 -4.1880621073128488e-04 0.0000000000000000e+00  2.6799243603254470e-05 -1.2062975854580192e-04 0.0000000000000000e+00  2.1193598890197879e-05 -3.1538984985282278e-04 0.0000000000000000e+00  2.0136988678399524e-05 -6.3344939777940128e-05 0.0000000000000000e+00  2.8852675784269572e-05 -1.4718081128834001e-04 0.0000000000000000e+00  2.1232293634359801e-05 -2.8203939651614873e-04 0.0000000000000000e+00  2.0312559091052126e-05 -3.8389990766695141e-04 0.0000000000000000e+00  3.1809704390072766e-05 -1.7555802655774106e-04 0.0000000000000000e+00  2.1007616289583982e-05 -2.4949236378455226e-04 0.0000000000000000e+00  -1.3930784969473002e-07 -1.4913784898505276e-06 0.0000000000000000e+00  -5.6538122653177173e-07 9.5845265402935795e-07 0.0000000000000000e+00  2.2344779953281100e-05 -6.1152963026139492e-04 0.0000000000000000e+00  3.8202095161615017e-06 -5.5270968963236875e-06 0.0000000000000000