<?xml version="1.0"?>
<VTKFile type="UnstructuredGrid"  version="0.1"  >
<UnstructuredGrid>
<Piece  NumberOfPoints="1419" NumberOfCells="2698">
<Points>
<DataArray  type="Float64"  NumberOfComponents="3"  format="ascii">0 0 0  0 0.41 0  2.5 0 0  2.5 0.41 0  0.6 0.19 0  0.6 0.21 0  0.25 0.2 0  0.15 0.2 0  0.2489897948556636 0.21 0  0.2489897948556636 0.19 0  0.6 0.2 0  0 0.3807142857143437 0  0 0.3514285714286952 0  0 0.3221428571430699 0  0 0.29285714285744 0  0 0.2635714285718054 0  0 0.2342857142861561 0  0 0.2050000000005308 0  0 0.175714285714732 0  0 0.1464285714289574 0  0 0.1171428571431897 0  0 0.08785714285737878 0  0 0.05857142857161107 0  0 0.02928571428580012 0  0.03015443760436003 0 0  0.06140001986583606 0 0  0.09377624077125973 0 0  0.1273239957535082 0 0  0.1620856860351972 0 0  0.1981052433264291 0 0  0.235428184091502 0 0  0.2741016576309132 0 0  0.3141745521465447 0 0  0.3556974926295285 0 0  0.3987229542472677 0 0  0.4433053055141081 0 0  0.4895008759286886 0 0  0.5373680609405097 0 0  0.5869673343216626 0 0  0.6383613676634521 0 0  0.6916151138468254 0 0  0.7467958595648856 0 0  0.8039733463919316 0 0  0.8632198139502143 0 0  0.9246101326867038 0 0  0.9882218810934433 0 0  1.054135445558498 0 0  1.122434100542598 0 0  1.193204177141305 0 0  1.266535089879536 0 0  1.342519516046404 0 0  1.421253448503939 0 0  1.502836389106271 0 0  1.587371439758838 0 0  1.674965418777374 0 0  1.765729001825544 0 0  1.859776908880082 0 0  1.957227977487062 0 0  2.058205329869943 0 0  2.162836591189951 0 0  2.271253957290865 0 0  2.383594446803425 0 0  2.5 0.1024999999997612 0  2.5 0.2049999999994743 0  2.5 0.3074999999997183 0  2.383594446803656 0.41 0  2.271253957291315 0.41 0  2.162836591190598 0.41 0  2.058205329870775 0.41 0  1.957227977488067 0.41 0  1.859776908881246 0.41 0  1.765729001826854 0.41 0  1.674965418778818 0.41 0  1.58737143976041 0.41 0  1.502836389107956 0.41 0  1.421253448505726 0.41 0  1.342519516048286 0.41 0  1.266535089881505 0.41 0  1.193204177143353 0.41 0  1.122434100544716 0.41 0  1.05413544556068 0.41 0  0.9882218810956305 0.41 0  0.9246101326886647 0.41 0  0.8632198139519631 0.41 0  0.8039733463934788 0.41 0  0.7467958595662458 0.41 0  0.6916151138480078 0.41 0  0.6383613676644679 0.41 0  0.5869673343225223 0.41 0  0.5373680609412221 0.41 0  0.4895008759292634 0.41 0  0.4433053055145528 0.41 0  0.3987229542475914 0.41 0  0.3556974926297398 0.41 0  0.3141745521466497 0.41 0  0.2741016576310038 0.41 0  0.2354281840915826 0.41 0  0.1981052433265003 0.41 0  0.1620856860352591 0.41 0  0.1273239957535623 0.41 0  0.09377624077128965 0.41 0  0.06140001986584975 0.41 0  0.03015443760436654 0.41 0  0.2497468076502589 0.2050254481002335 0  0.2497468076502614 0.1949745518997913 0  0.2469965252529372 0.1829317073451959 0  0.2439893735792749 0.1762316384219906 0  0.2400332147834255 0.1700443375285386 0  0.2352133972704371 0.1645032867342007 0  0.2296339016332438 0.1597280261969788 0  0.2234150974217223 0.1558215752574715 0  0.2166911463437691 0.1528682099456123 0  0.2096071079204251 0.1509316448471593 0  0.2023158100364996 0.1500536585536553 0  0.194974551899914 0.1502531923497262 0  0.1877417105387872 0.1515259415822739 0  0.1807733240461124 0.153844448527136 0  0.1742197252835808 0.15715869474974 0  0.1682222986673531 0.1613971801805478 0  0.162910430003803 0.1664684656256651 0  0.1583987151779087 0.1722631454351573 0  0.1547844879126891 0.178656207771761 0  0.1521457199348551 0.1855097315605723 0  0.1505393388476355 0.1926758619366523 0  0.1505393388476328 0.2073241380633295 0  0.1521457199348437 0.2144902684393899 0  0.1547844879126531 0.221343792228163 0  0.1583987151778488 0.2277368545647528 0  0.1629104300036858 0.2335315343742052 0  0.1682222986671726 0.2386028198193036 0  0.1742197252833576 0.2428413052501257 0  0.1807733240458683 0.2461555514727623 0  0.1877417105384929 0.2484740584176516 0  0.1949745518995776 0.2497468076502398 0  0.202315810036185 0.2499463414463592 0  0.2096071079201568 0.2490683551528932 0  0.2166911463435495 0.2471317900544655 0  0.2234150974215506 0.2441784247426195 0  0.2296339016331197 0.2402719738031125 0  0.2352133972703547 0.2354967132658811 0  0.2400332147833751 0.2299556624715287 0  0.2439893735792577 0.2237683615780412 0  0.246996525252926 0.2170682926548348 0  0.25645809709277 0.21 0  0.2639263993298655 0.21 0  0.271394701566961 0.21 0  0.2788630038040554 0.21 0  0.2863313060411479 0.21 0  0.2937996082782405 0.21 0  0.301267910515333 0.21 0  0.3087362127524279 0.21 0  0.3162045149895234 0.21 0  0.3236728172265972 0.21 0  0.3311411194636928 0.21 0  0.3386094217007701 0.21 0  0.3460777239378666 0.21 0  0.3535460261749672 0.21 0  0.3610143284120516 0.21 0  0.3684826306491596 0.21 0  0.3759509328862226 0.21 0  0.383419235123329 0.21 0  0.3908875373604028 0.21 0  0.3983558395975142 0.21 0  0.4058241418345938 0.21 0  0.4132924440716992 0.21 0  0.4207607463087888 0.21 0  0.4282290485459029 0.21 0  0.4356973507830418 0.21 0  0.4431656530201649 0.21 0  0.4506339552573136 0.21 0  0.4581022574944306 0.21 0  0.4655705597315852 0.21 0  0.4730388619686996 0.21 0  0.480507164205851 0.21 0  0.4879754664429498 0.21 0  0.4954437686800938 0.21 0  0.502912070917267 0.21 0  0.5103803731544119 0.21 0  0.5178486753915261 0.21 0  0.5253169776286404 0.21 0  0.5327852798657868 0.21 0  0.5402535821029386 0.21 0  0.54772188434007 0.21 0  0.5551901865771842 0.21 0  0.5626584888143201 0.21 0  0.5701267910514778 0.21 0  0.5775950932886138 0.21 0  0.5850633955257281 0.21 0  0.5925316977628483 0.21 0  0.6 0.2050000000000054 0  0.6 0.1950000000000217 0  0.5925316977628897 0.19 0  0.5850633955257988 0.19 0  0.5775950932887378 0.19 0  0.5701267910515998 0.19 0  0.5626584888145268 0.19 0  0.5551901865773963 0.19 0  0.547721884340339 0.19 0  0.5402535821032429 0.19 0  0.5327852798661811 0.19 0  0.5253169776290537 0.19 0  0.5178486753919799 0.19 0  0.5103803731549078 0.19 0  0.502912070917822 0.19 0  0.4954437686807294 0.19 0  0.4879754664436223 0.19 0  0.4805071642065402 0.19 0  0.4730388619694271 0.19 0  0.4655705597323621 0.19 0  0.4581022574952563 0.19 0  0.4506339552581777 0.19 0  0.4431656530210671 0.19 0  0.4356973507839815 0.19 0  0.4282290485468779 0.19 0  0.4207607463097617 0.19 0  0.4132924440726327 0.19 0  0.4058241418354857 0.19 0  0.3983558395983636 0.19 0  0.3908875373612097 0.19 0  0.3834192351240934 0.19 0  0.3759509328869369 0.19 0  0.3684826306498175 0.19 0  0.361014328412667 0.19 0  0.3535460261755617 0.19 0  0.3460777239384295 0.19 0  0.3386094217012945 0.19 0  0.3311411194641595 0.19 0  0.3236728172270245 0.19 0  0.3162045149898895 0.19 0  0.3087362127527544 0.19 0  0.3012679105156187 0.19 0  0.2937996082784807 0.19 0  0.2863313060413428 0.19 0  0.2788630038042048 0.19 0  0.2713947015670686 0.19 0  0.2639263993299336 0.19 0  0.2564580970927985 0.19 0  0.2607803159922026 0.2000727136295815 0  0.5887803774232762 0.2001272386983733 0  0.5745072403740523 0.2002044435018727 0  0.5511891430099709 0.2001122610077113 0  0.2751288526855082 0.20000000000002 0  0.5365194309847112 0.1999999999999436 0  0.2894621222999649 0.1998691686390484 0  0.5215828265105155 0.1999999999999228 0  0.3127789816668748 0.1998657885438805 0  0.3274069683451451 0.2000000000000796 0  0.5066462220363641 0.199999999999908 0  0.3650630746574081 0.199866017807523 0  0.476773013087985 0.1999999999998713 0  0.3417402379596385 0.1998691686391011 0  0.3796850840047755 0.200000000000134 0  0.4618364086138087 0.1999999999998546 0  0.4917096175621762 0.1999999999998808 0  0.3946216884789568 0.2000000000001512 0  0.446899804139621 0.1999999999998389 0  0.4089549580935208 0.1998691686391595 0  0.4322718174608562 0.200127451265745 0  0.4201487168029707 0.1999966199048527 0  0.3528922713220932 0.2000185703532356 0  0.5633122436674589 0.1999814296467508 0  0.3006558810093873 0.1999966199048318 0  0.5815926498168407 0.1966545283159175 0  0.2677053789419034 0.1964246479135325 0  0.5290511287476175 0.1970915826863981 0  0.5439877332217911 0.197091582686394 0  0.2825131256993216 0.2035478995978015 0  0.3199386661080599 0.202908417313604 0  0.4842413153250809 0.1970915826863873 0  0.5141145242734466 0.1970915826863843 0  0.3722167817676917 0.2029084173136195 0  0.4693047108508938 0.1970915826863783 0  0.3348752705822316 0.202908417313609 0  0.3871533862418661 0.2029084173136212 0  0.4543681063767183 0.1970915826863795 0  0.4991779197992749 0.1970915826863902 0  0.4020059614928624 0.203547899597858 0  0.4394315019025246 0.1970915826863714 0  0.2550657455369551 0.2034088125358657 0  0.2548908499171161 0.1966940311614271 0  0.5946539510196798 0.2024302972968126 0  0.267698176732111 0.2039977513680092 0  0.4261685417851465 0.196409292431739 0  0.3590076176283495 0.196411355804271 0  0.5571672426447437 0.2036011176410121 0  0.3066757059912147 0.1964092924317024 0  0.594380730180568 0.1966558399668133 0  0.4842413153245942 0.2040749161535287 0  0.4693047108503577 0.2040749161535231 0  0.3871533862424271 0.1959250838464788 0  0.372246743208829 0.1959123236376545 0  0.5141145242731028 0.2040749161535395 0  0.4543681063761134 0.2040749161535186 0  0.4019979587101454 0.1959834479682427 0  0.4394608940728603 0.2040870543693135 0  0.5439623148931173 0.2040856076781014 0  0.5290511287473298 0.2040749161535501 0  0.4991779197988497 0.2040749161535382 0  0.3347912413592433 0.1959225448935183 0  0.3199680582793816 0.1959123018030061 0  0.2825051229162361 0.1959834479681729 0  0.3590471196690275 0.2036304442587945 0  0.5571594006495384 0.1963685282145804 0  0.3067669986803285 0.203627750582736 0  0.4262598344738712 0.2036568242185335 0  0.5814408164431408 0.2041285596160068 0  0.5688286748170428 0.1961819304477386 0  0.4145905603063645 0.2038180695522843 0  0.3473758401724931 0.2038180695522752 0  0.2950977245128307 0.2038180695522663 0  0.5688286748170693 0.203818069552238 0  0.2950977245127906 0.1961819304477774 0  0.3473758401723931 0.1961819304478349 0  0.4145905603061963 0.1961819304479011 0  0.2601812407614425 0.2056861609747042
[...]
<PointData  Vectors="f_40-0"> 
<DataArray  type="Float64"  Name="f_40-0"  NumberOfComponents="3" format="ascii">0.0000000000000000e+00 0.0000000000000000e+00 0.0000000000000000e+00  0.0000000000000000e+00 0.0000000000000000e+00 0.0000000000000000e+00  0.0000000000000000e+00 0.0000000000000000e+00 0.0000000000000000e+00  0.0000000000000000e+00 0.0000000000000000e+00 0.0000000000000000e+00  1.6271573949319228e-04 5.0356050877230878e-03 0.0000000000000000e+00  -1.9940665807672618e-04 5.0399300978940468e-03 0.0000000000000000e+00  0.0000000000000000e+00 0.0000000000000000e+00 0.0000000000000000e+00  0.0000000000000000e+00 0.0000000000000000e+00 0.0000000000000000e+00  0.0000000000000000e+00 0.0000000000000000e+00 0.0000000000000000e+00  0.0000000000000000e+00 0.0000000000000000e+00 0.0000000000000000e+00  -1.7821942481224501e-05 5.0377383229579051e-03 0.0000000000000000e+00  6.5882891108439812e-01 0.0000000000000000e+00 0.0000000000000000e+00  1.2162995281558926e+00 0.0000000000000000e+00 0.0000000000000000e+00  1.6724118512143524e+00 0.0000000000000000e+00 0.0000000000000000e+00  2.0271658802603056e+00 0.0000000000000000e+00 0.0000000000000000e+00  2.2805616152937072e+00 0.0000000000000000e+00 0.0000000000000000e+00  2.4325990563145408e+00 0.0000000000000000e+00 0.0000000000000000e+00  2.4832782033226550e+00 0.0000000000000000e+00 0.0000000000000000e+00  2.4325990563176143e+00 0.0000000000000000e+00 0.0000000000000000e+00  2.2805616152989869e+00 0.0000000000000000e+00 0.0000000000000000e+00  2.0271658802668449e+00 0.0000000000000000e+00 0.0000000000000000e+00  1.6724118512205643e+00 0.0000000000000000e+00 0.0000000000000000e+00  1.2162995281611932e+00 0.0000000000000000e+00 0.0000000000000000e+00  6.5882891108738473e-01 0.0000000000000000e+00 0.0000000000000000e+00  0.0000000000000000e+00 0.0000000000000000e+00 0.0000000000000000e+00  0.0000000000000000e+00 0.0000000000000000e+00 0.0000000000000000e+00  0.0000000000000000e+00 0.0000000000000000e+00 0.0000000000000000e+00  0.0000000000000000e+00 0.0000000000000000e+00 0.0000000000000000e+00  0.0000000000000000e+00 0.0000000000000000e+00 0.0000000000000000e+00  0.0000000000000000e+00 0.0000000000000000e+00 0.0000000000000000e+00  0.0000000000000000e+00 0.0000000000000000e+00 0.0000000000000000e+00  0.0000000000000000e+00 0.0000000000000000e+00 0.0000000000000000e+00  0.0000000000000000e+00 0.0000000000000000e+00 0.0000000000000000e+00  0.0000000000000000e+00 0.0000000000000000e+00 0.0000000000000000e+00  0.0000000000000000e+00 0.0000000000000000e+00 0.0000000000000000e+00  0.0000000000000000e+00 0.0000000000000000e+00 0.0000000000000000e+00  0.0000000000000000e+00 0.0000000000000000e+00 0.0000000000000000e+00  0.0000000000000000e+00 0.0000000000000000e+00 0.0000000000000000e+00  0.0000000000000000e+00 0.0000000000000000e+00 0.0000000000000000e+00  0.0000000000000000e+00 0.0000000000000000e+00 0.0000000000000000e+00  0.0000000000000000e+00 0.0000000000000000e+00 0.0000000000000000e+00  0.0000000000000000e+00 0.0000000000000000e+00 0.0000000000000000e+00  0.0000000000000000e+00 0.0000000000000000e+00 0.0000000000000000e+00  0.0000000000000000e+00 0.0000000000000000e+00 0.0000000000000000e+00  0.0000000000000000e+00 0.0000000000000000e+00 0.0000000000000000e+00  0.0000000000000000e+00 0.0000000000000000e+00 0.0000000000000000e+00  0.0000000000000000e+00 0.0000000000000000e+00 0.0000000000000000e+00  0.0000000000000000e+00 0.0000000000000000e+00 0.0000000000000000e+00  0.0000000000000000e+00 0.0000000000000000e+00 0.0000000000000000e+00  0.0000000000000000e+00 0.0000000000000000e+00 0.0000000000000000e+00  0.0000000000000000e+00 0.0000000000000000e+00 0.0000000000000000e+00  0.0000000000000000e+00 0.0000000000000000e+00 0.0000000000000000e+00  0.0000000000000000e+00 0.0000000000000000e+00 0.0000000000000000e+00  0.0000000000000000e+00 0.0000000000000000e+00 0.0000000000000000e+00  0.0000000000000000e+00 0.0000000000000000e+00 0.0000000000000000e+00  0.0000000000000000e+00 0.0000000000000000e+00 0.0000000000000000e+00  0.0000000000000000e+00 0.0000000000000000e+00 0.0000000000000000e+00  0.0000000000000000e+00 0.0000000000000000e+00 0.0000000000000000e+00  0.0000000000000000e+00 0.0000000000000000e+00 0.0000000000000000e+00  0.0000000000000000e+00 0.0000000000000000e+00 0.0000000000000000e+00  0.0000000000000000e+00 0.0000000000000000e+00 0.0000000000000000e+00  0.0000000000000000e+00 0.0000000000000000e+00 0.0000000000000000e+00  2.2391856766125868e+00 -2.3368970456719644e-02 0.0000000000000000e+00  1.9459540811822746e+00 1.4897381641794431e-02 0.0000000000000000e+00  2.2106600112370280e+00 7.5253988725760335e-02 0.0000000000000000e+00  0.0000000000000000e+00 0.0000000000000000e+00 0.0000000000000000e+00  0.0000000000000000e+00 0.0000000000000000e+00 0.0000000000000000e+00  0.0000000000000000e+00 0.0000000000000000e+00 0.0000000000000000e+00  0.0000000000000000e+00 0.0000000000000000e+00 0.0000000000000000e+00  0.0000000000000000e+00 0.0000000000000000e+00 0.0000000000000000e+00  0.0000000000000000e+00 0.0000000000000000e+00 0.0000000000000000e+00  0.0000000000000000e+00 0.0000000000000000e+00 0.0000000000000000e+00  0.0000000000000000e+00 0.0000000000000000e+00 0.0000000000000000e+00  0.0000000000000000e+00 0.0000000000000000e+00 0.0000000000000000e+00  0.0000000000000000e+00 0.0000000000000000e+00 0.0000000000000000e+00  0.0000000000000000e+00 0.0000000000000000e+00 0.0000000000000000e+00  0.0000000000000000e+00 0.0000000000000000e+00 0.0000000000000000e+00  0.0000000000000000e+00 0.0000000000000000e+00 0.0000000000000000e+00  0.0000000000000000e+00 0.0000000000000000e+00 0.0000000000000000e+00  0.0000000000000000e+00 0.0000000000000000e+00 0.0000000000000000e+00  0.0000000000000000e+00 0.0000000000000000e+00 0.0000000000000000e+00  0.0000000000000000e+00 0.0000000000000000e+00 0.0000000000000000e+00  0.0000000000000000e+00 0.0000000000000000e+00 0.0000000000000000e+00  0.0000000000000000e+00 0.0000000000000000e+00 0.0000000000000000e+00  0.0000000000000000e+00 0.0000000000000000e+00 0.0000000000000000e+00  0.0000000000000000e+00 0.0000000000000000e+00 0.0000000000000000e+00  0.0000000000000000e+00 0.0000000000000000e+00 0.0000000000000000e+00  0.0000000000000000e+00 0.0000000000000000e+00 0.0000000000000000e+00  0.0000000000000000e+00 0.0000000000000000e+00 0.0000000000000000e+00  0.0000000000000000e+00 0.0000000000000000e+00 0.0000000000000000e+00  0.0000000000000000e+00 0.0000000000000000e+00 0.0000000000000000e+00  0.0000000000000000e+00 0.0000000000000000e+00 0.0000000000000000e+00  0.0000000000000000e+00 0.0000000000000000e+00 0.0000000000000000e+00  0.0000000000000000e+00 0.0000000000000000e+00 0.0000000000000000e+00  0.0000000000000000e+00 0.0000000000000000e+00 0.0000000000000000e+00  0.0000000000000000e+00 0.0000000000000000e+00 0.0000000000000000e+00  0.0000000000000000e+00 0.0000000000000000e+00 0.0000000000000000e+00  0.0000000000000000e+00 0.0000000000000000e+00 0.0000000000000000e+00  0.0000000000000000e+00 0.0000000000000000e+00 0.0000000000000000e+00  0.0000000000000000e+00 0.0000000000000000e+00 0.0000000000000000e+00  0.0000000000000000e+00 0.0000000000000000e+00 0.0000000000000000e+00  0.0000000000000000e+00 0.0000000000000000e+00 0.0000000000000000e+00  0.0000000000000000e+00 0.0000000000000000e+00 0.0000000000000000e+00  0.0000000000000000e+00 0.0000000000000000e+00 0.0000000000000000e+00  0.0000000000000000e+00 0.0000000000000000e+00 0.0000000000000000e+00  0.0000000000000000e+00 0.0000000000000000e+00 0.0000000000000000e+00  0.0000000000000000e+00 0.0000000000000000e+00 0.0000000000000000e+00  0.0000000000000000e+00 0.0000000000000000e+00 0.0000000000000000e+00  0.0000000000000000e+00 0.0000000000000000e+00 0.0000000000000000e+00  0.0000000000000000e+00 0.0000000000000000e+00 0.0000000000000000e+00  0.0000000000000000e+00 0.0000000000000000e+00 0.0000000000000000e+00  0.0000000000000000e+00 0.0000000000000000e+00 0.0000000000000000e+00  0.0000000000000000e+00 0.0000000000000000e+00 0.0000000000000000e+00  0.0000000000000000e+00 0.0000000000000000e+00 0.0000000000000000e+00  0.0000000000000000e+00 0.0000000000000000e+00 0.0000000000000000e+00  0.0000000000000000e+00 0.0000000000000000e+00 0.0000000000000000e+00  0.0000000000000000e+00 0.0000000000000000e+00 0.0000000000000000e+00  0.0000000000000000e+00 0.0000000000000000e+00 0.0000000000000000e+00  0.0000000000000000e+00 0.0000000000000000e+00 0.0000000000000000e+00  0.0000000000000000e+00 0.0000000000000000e+00 0.0000000000000000e+00  0.0000000000000000e+00 0.0000000000000000e+00 0.0000000000000000e+00  0.0000000000000000e+00 0.0000000000000000e+00 0.0000000000000000e+00  0.0000000000000000e+00 0.0000000000000000e+00 0.0000000000000000e+00  0.0000000000000000e+00 0.0000000000000000e+00 0.0000000000000000e+00  0.0000000000000000e+00 0.0000000000000000e+00 0.0000000000000000e+00  0.0000000000000000e+00 0.0000000000000000e+00 0.0000000000000000e+00  0.0000000000000000e+00 0.0000000000000000e+00 0.0000000000000000e+00  0.0000000000000000e+00 0.0000000000000000e+00 0.0000000000000000e+00  0.0000000000000000e+00 0.0000000000000000e+00 0.0000000000000000e+00  0.0000000000000000e+00 0.0000000000000000e+00 0.0000000000000000e+00  0.0000000000000000e+00 0.0000000000000000e+00 0.0000000000000000e+00  0.0000000000000000e+00 0.0000000000000000e+00 0.0000000000000000e+00  0.0000000000000000e+00 0.0000000000000000e+00 0.0000000000000000e+00  0.0000000000000000e+00 0.0000000000000000e+00 0.0000000000000000e+00  0.0000000000000000e+00 0.0000000000000000e+00 0.0000000000000000e+00  0.0000000000000000e+00 0.0000000000000000e+00 0.0000000000000000e+00  0.0000000000000000e+00 0.0000000000000000e+00 0.0000000000000000e+00  0.0000000000000000e+00 0.0000000000000000e+00 0.0000000000000000e+00  0.0000000000000000e+00 0.0000000000000000e+00 0.0000000000000000e+00  0.0000000000000000e+00 0.0000000000000000e+00 0.0000000000000000e+00  0.0000000000000000e+00 0.0000000000000000e+00 0.0000000000000000e+00  0.0000000000000000e+00 0.0000000000000000e+00 0.0000000000000000e+00  0.0000000000000000e+00 0.0000000000000000e+00 0.0000000000000000e+00  -1.2203287934786691e-05 1.4400964161580416e-05 0.0000000000000000e+00  -2.6037377550947383e-05 2.9430957637944794e-05 0.0000000000000000e+00  -3.8287629510157456e-05 5.3420574164934734e-05 0.0000000000000000e+00  -5.1501408535050529e-05 8.6925697637139937e-05 0.0000000000000000e+00  -6.2469504478522705e-05 1.2834877668868637e-04 0.0000000000000000e+00  -7.4736060616283434e-05 1.7840361172385651e-04 0.0000000000000000e+00  -8.4516705783323185e-05 2.3473480814855416e-04 0.0000000000000000e+00  -9.3881595172078469e-05 2.9922410955900023e-04 0.0000000000000000e+00  -1.0447100302931722e-04 3.6979458095115540e-04 0.0000000000000000e+00  -1.1245474232066505e-04 4.4659789962563936e-04 0.0000000000000000e+00  -1.2198951631692383e-04 5.2944878400072129e-04 0.0000000000000000e+00  -1.2907139979743881e-04 6.1771162271241208e-04 0.0000000000000000e+00  -1.3721251540753908e-04 7.1113039429153912e-04 0.0000000000000000e+00  -1.4359497116946780e-04 8.0862099593072571e-04 0.0000000000000000e+00  -1.4961874202199966e-04 9.1102611364526681e-04 0.0000000000000000e+00  -1.5623027178421787e-04 1.0170269377875307e-03 0.0000000000000000e+00  -1.6117267053708496e-04 1.1266033653125071e-03 0.0000000000000000e+00  -1.6682141277724215e-04 1.2395964639226043e-03 0.0000000000000000e+00  -1.7097194996318140e-04 1.3554518630248364e-03 0.0000000000000000e+00  -1.7560454281548453e-04 1.4739723230692188e-03 0.0000000000000000e+00  -1.7919631998662567e-04 1.5948693592593296e-03 0.0000000000000000e+00  -1.8291720591361436e-04 1.7180039062133577e-03 0.0000000000000000e+00  -1.8583638792711335e-04 1.8426741262761617e-03 0.0000000000000000e+00  -1.8847629096924802e-04 1.9692502452809289e-03 0.0000000000000000e+00  -1.9118987091776889e-04 2.0970515214878927e-03 0.0000000000000000e+00  -1.9333081547240230e-04 2.2261794873803479e-03 0.0000000000000000e+00  -1.9531992096320943e-04 2.3564452781966198e-03 0.0000000000000000e+00  -1.9696799549535961e-04 2.4875156017180058e-03 0.0000000000000000e+00  -1.9846244267659528e-04 2.6194640734904253e-03 0.0000000000000000e+00  -1.9967785469299243e-04 2.7519645335616965e-03 0.0000000000000000e+00  -2.0074980810827440e-04 2.8850935306398945e-03 0.0000000000000000e+00  -2.0159193988304839e-04 3.0185731566195859e-03 0.0000000000000000e+00  -2.0230504823536767e-04 3.1524846752657488e-03 0.0000000000000000e+00  -2.0282919961522487e-04 3.2865930991387042e-03 0.0000000000000000e+00  -2.0322846680843174e-04 3.4209969111435091e-03 0.0000000000000000e+00  -2.0347726898380894e-04 3.5554976394430778e-03 0.0000000000000000e+00  -2.0361880177925332e-04 3.6901904697626995e-03 0.0000000000000000e+00  -2.0363371222011453e-04 3.8249172542706993e-03 0.0000000000000000e+00  -2.0354757862628867e-04 3.9597769220741236e-03 0.0000000000000000e+00  -2.0334592185438502e-04 4.0946334983637551e-03 0.0000000000000000e+00  -2.0303838326153493e-04 4.2295725548076556e-03 0.0000000000000000e+00  -2.0264326743053257e-04 4.3645129475848761e-03 0.0000000000000000e+00  -2.0213062880440358e-04 4.4994943458146362e-03 0.0000000000000000e+00  -2.0156245743251810e-04 4.6344885445552359e-03 0.0000000000000000e+00  -2.0086738371051207e-04 4.7694666783233766e-03 0.0000000000000000e+00  -2.0011257685620645e-04 4.9045306650091726e-03 0.0000000000000000e+00  -1.0841537132375558e-04 5.0388288429256975e-03 0.0000000000000000e+00  7.2606306463177076e-05 5.0366614280949176e-03 0.0000000000000000e+00  1.6194536143215220e-04 4.9005435251577821e-03 0.0000000000000000e+00  1.6111273741786113e-04 4.7652479196734461e-03 0.0000000000000000e+00  1.6034427708238431e-04 4.6299342501028703e-03 0.0000000000000000e+00  1.5967875219978131e-04 4.4946916367448429e-03 0.0000000000000000e+00  1.5907858174506125e-04 4.3594766280497070e-03 0.0000000000000000e+00  1.5858454831476737e-04 4.2243070711899984e-03 0.0000000000000000e+00  1.5813785577272911e-04 4.0891871850276332e-03 0.0000000000000000e+00  1.5778795448989440e-04 3.9540930052753259e-03 0.0000000000000000e+00  1.5747382264151674e-04 3.8191026930068173e-03 0.0000000000000000e+00  1.5723918071344921e-04 3.6841530203896061e-03 0.0000000000000000e+00  1.5700198861874192e-04 3.5493433056294453e-03 0.0000000000000000e+00  1.5684095094112489e-04 3.4146375386824683e-03 0.0000000000000000e+00  1.5662280234639444e-04 3.2801352503668410e-03 0.0000000000000000e+00  1.5647938628884713e-04 3.1458397111224015e-03 0.0000000000000000e+00  1.5620295375597248e-04 3.0118445166057248e-03 0.0000000000000000e+00  1.5601465874335389e-04 2.8781995957706755e-03 0.0000000000000000e+00  1.5560003439378577e-04 2.7449994217101782e-03 0.0000000000000000e+00  1.5529838191464965e-04 2.6123457188435258e-03 0.0000000000000000e+00  1.5465391200355022e-04 2.4803350511961525e-03 0.0000000000000000e+00  1.5416339110860364e-04 2.3491201457545015e-03 0.0000000000000000e+00  1.5318024160226648e-04 2.2188045157136814e-03 0.0000000000000000e+00  1.5240736249529660e-04 2.0895984409897775e-03 0.0000000000000000e+00  1.5100765438816043e-04 1.9616427474996793e-03 0.0000000000000000e+00  1.4977329580073681e-04 1.8349991538575796e-03 0.0000000000000000e+00  1.4833754463598097e-04 1.7102652279301443e-03 0.0000000000000000e+00  1.4620961030584884e-04 1.5869962132629449e-03 0.0000000000000000e+00  1.4411289016999420e-04 1.4661008202895792e-03 0.0000000000000000e+00  1.4139602558713269e-04 1.3473881088206831e-03 0.0000000000000000e+00  1.3860666745637787e-04 1.2315031533062853e-03 0.0000000000000000e+00  1.3513578268765174e-04 1.1184108228758163e-03 0.0000000000000000e+00  1.3158348740943430e-04 1.0086033271983765e-03 0.0000000000000000e+00  1.2683610108317413e-04 9.0274509593368389e-04 0.0000000000000000e+00  1.2262583225257408e-04 8.0019360997141077e-04 0.0000000000000000e+00  1.1803134810554791e-04 7.0267957726034488e-04 0.0000000000000000e+00  1.1192815332347711e-04 6.0882793784398893e-04 0.0000000000000000e+00  1.0602982285884974e-04 5.2065656415799786e-04 0.0000000000000000e+00  9.9056858761082653e-05 4.3764291791164564e-04 0.0000000000000000e+00  9.2155019192680568e-05 3.6047781366201450e-04 0.0000000000000000e+00  8.3428613104881468e-05 2.9016062067725279e-04 0.0000000000000000e+00  7.5763576709409299e-05 2.2544967617365517e-04 0.0000000000000000e+00  6.7669238168421514e-05 1.6902474258327058e-04 0.0000000000000000e+00  5.7247665294483488e-05 1.1861761794131019e-04 0.0000000000000000e+00  4.7586536021216970e-05 7.6909061455310735e-05 0.0000000000000000e+00  3.5795998800082387e-05 4.3699040877710081e-05 0.0000000000000000e+00  2.5027315168213816e-05 1.9707414700740026e-05 0.0000000000000000e+00  1.1903050478574736e-05 5.2042459992199039e-06 0.0000000000000000e+00  3.9324431045221428e-07 1.0499068169415631e-05 0.0000000000000000e+00  -2.1578715705724624e-05 4.8346397045034972e-03 0.0000000000000000e+00  -2.4501690175503342e-05 4.5763622758045186e-03 0.0000000000000000e+00  -2.4401970220442804e-05 4.1545885447761190e-03 0.0000000000000000e+00  -1.4304506247482477e-06 5.8415132689608557e-05 0.0000000000000000e+00  -2.2910936600730010e-05 3.8894083290328470e-03 0.0000000000000000e+00  -2.1946590197002794e-06 1.3819277006397516e-04 0.0000000000000000e+00  -2.3150546946657917e-05 3.6196910466663830e-03 0.0000000000000000e+00  -4.3501070215341415e-06 3.2767315531071069e-04 0.0000000000000000e+00  -7.3234634372297751e-06 4.7923310754122725e-04 0.0000000000000000e+00  -2.3089056834558187e-05 3.3504208798380815e-03 0.0000000000000000e+00  -9.9281519779579323e-06 9.6127117203453493e-04 0.0000000000000000e+00  -2.2152774614568134e-05 2.8146608249523621e-03 0.0000000000000000e+00  -7.4266146170697720e-06 6.4853205888461079e-04 0.0000000000000000e+00  -1.3557666930972932e-05 1.1766029665462095e-03 0.0000000000000000e+00  -2.1323304077489549e-05 2.5493367859662848e-03 0.0000000000000000e+00  -2.2748928740914134e-05 3.0819157080979797e-03 0.0000000000000000e+00  -1.5265240052267876e-05 1.4087348659454198e-03 0.0000000000000000e+00  -2.0273580355072560e-05 2.2868433970536887e-03 0.0000000000000000e+00  -1.4669328933391221e-05 1.6408834493469118e-03 0.0000000000000000e+00  -2.1247085668676043e-05 2.0336407039786074e-03 0.0000000000000000e+00  -1.7876285811915265e-05 1.8277151578259257e-03 0.0000000000000000e+00  -1.0613232981834290e-05 7.9359645040237711e-04 0.0000000000000000e+00  -2.1298117767298878e-05 4.3737950422602671e-03 0.0000000000000000e+00  -4.1808923393527303e-06 2.2172448058091810e-04 0.0000000000000000e+00  4.0438791691317058e-05 4.7038130937824335e-03 0.0000000000000000e+00  1.0721412773440558e-05 2.8647918464356577e-05 0.0000000000000000e+00  2.9422026415632194e-05 3.7536574053680582e-03 0.0000000000000000e+00  2.9880820796301971e-05 4.0235687228053710e-03 0.0000000000000000e+00  -2.1415480239471465e-05 9.8446005236563000e-05 0.0000000000000000e+00  -3.6181664968938093e-05 4.0083840082227575e-04 0.0000000000000000e+00  2.9463956912300913e-05 2.9471456932057870e-03 0.0000000000000000e+00  2.9230552419909966e-05 3.4840916513129523e-03 0.0000000000000000e+00  -5.5167498488245110e-05 1.0665171407771284e-03 0.0000000000000000e+00  2.9774323593059588e-05 2.6807420372765437e-03 0.0000000000000000e+00  -4.2157227581563698e-05 5.6683189466623038e-04 0.0000000000000000e+00  -5.9287293775419949e-05 1.2927160614223583e-03 0.0000000000000000e+00  3.0134512005541314e-05 2.4166982530337143e-03 0.0000000000000000e+00  2.9263333821700328e-05 3.2151210494371701e-03 0.0000000000000000e+00  -7.3198531554742997e-05 1.5289926466292021e-03 0.0000000000000000e+00  3.0497755649487332e-05 2.1560230068226873e-03 0.0000000000000000e+00  -1.3320292601021297e-06 3.3790634247189220e-06 0.0000000000000000e+00  2.6461309095182865e-06 1.0738992421166519e-06 0.0000000000000000e+00  -6.2521604143475921e-05 4.9414303915905093e-03 0.0000000000000000e+00  -1.3130391112960428e-05 3.2578929090474706e-05 0.0000000000000000e+00  4.2310045602360836e-05 1.9281554880058963e-03 0.0000000000000000e