<?xml version="1.0"?>
<VTKFile type="UnstructuredGrid"  version="0.1"  >
<UnstructuredGrid>
<Piece  NumberOfPoints="1419" NumberOfCells="2698">
<Points>
<DataArray  type="Float64"  NumberOfComponents="3"  format="ascii">0 0 0  0 0.41 0  2.5 0 0  2.5 0.41 0  0.6 0.19 0  0.6 0.21 0  0.25 0.2 0  0.15 0.2 0  0.2489897948556636 0.21 0  0.2489897948556636 0.19 0  0.6 0.2 0  0 0.3807142857143437 0  0 0.3514285714286952 0  0 0.3221428571430699 0  0 0.29285714285744 0  0 0.2635714285718054 0  0 0.2342857142861561 0  0 0.2050000000005308 0  0 0.175714285714732 0  0 0.1464285714289574 0  0 0.1171428571431897 0  0 0.08785714285737878 0  0 0.05857142857161107 0  0 0.02928571428580012 0  0.03015443760436003 0 0  0.06140001986583606 0 0  0.09377624077125973 0 0  0.1273239957535082 0 0  0.1620856860351972 0 0  0.1981052433264291 0 0  0.235428184091502 0 0  0.2741016576309132 0 0  0.3141745521465447 0 0  0.3556974926295285 0 0  0.3987229542472677 0 0  0.4433053055141081 0 0  0.4895008759286886 0 0  0.5373680609405097 0 0  0.5869673343216626 0 0  0.6383613676634521 0 0  0.6916151138468254 0 0  0.7467958595648856 0 0  0.8039733463919316 0 0  0.8632198139502143 0 0  0.9246101326867038 0 0  0.9882218810934433 0 0  1.054135445558498 0 0  1.122434100542598 0 0  1.193204177141305 0 0  1.266535089879536 0 0  1.342519516046404 0 0  1.421253448503939 0 0  1.502836389106271 0 0  1.587371439758838 0 0  1.674965418777374 0 0  1.765729001825544 0 0  1.859776908880082 0 0  1.957227977487062 0 0  2.058205329869943 0 0  2.162836591189951 0 0  2.271253957290865 0 0  2.383594446803425 0 0  2.5 0.1024999999997612 0  2.5 0.2049999999994743 0  2.5 0.3074999999997183 0  2.383594446803656 0.41 0  2.271253957291315 0.41 0  2.162836591190598 0.41 0  2.058205329870775 0.41 0  1.957227977488067 0.41 0  1.859776908881246 0.41 0  1.765729001826854 0.41 0  1.674965418778818 0.41 0  1.58737143976041 0.41 0  1.502836389107956 0.41 0  1.421253448505726 0.41 0  1.342519516048286 0.41 0  1.266535089881505 0.41 0  1.193204177143353 0.41 0  1.122434100544716 0.41 0  1.05413544556068 0.41 0  0.9882218810956305 0.41 0  0.9246101326886647 0.41 0  0.8632198139519631 0.41 0  0.8039733463934788 0.41 0  0.7467958595662458 0.41 0  0.6916151138480078 0.41 0  0.6383613676644679 0.41 0  0.5869673343225223 0.41 0  0.5373680609412221 0.41 0  0.4895008759292634 0.41 0  0.4433053055145528 0.41 0  0.3987229542475914 0.41 0  0.3556974926297398 0.41 0  0.3141745521466497 0.41 0  0.2741016576310038 0.41 0  0.2354281840915826 0.41 0  0.1981052433265003 0.41 0  0.1620856860352591 0.41 0  0.1273239957535623 0.41 0  0.09377624077128965 0.41 0  0.06140001986584975 0.41 0  0.03015443760436654 0.41 0  0.2497468076502589 0.2050254481002335 0  0.2497468076502614 0.1949745518997913 0  0.2469965252529372 0.1829317073451959 0  0.2439893735792749 0.1762316384219906 0  0.2400332147834255 0.1700443375285386 0  0.2352133972704371 0.1645032867342007 0  0.2296339016332438 0.1597280261969788 0  0.2234150974217223 0.1558215752574715 0  0.2166911463437691 0.1528682099456123 0  0.2096071079204251 0.1509316448471593 0  0.2023158100364996 0.1500536585536553 0  0.194974551899914 0.1502531923497262 0  0.1877417105387872 0.1515259415822739 0  0.1807733240461124 0.153844448527136 0  0.1742197252835808 0.15715869474974 0  0.1682222986673531 0.1613971801805478 0  0.162910430003803 0.1664684656256651 0  0.1583987151779087 0.1722631454351573 0  0.1547844879126891 0.178656207771761 0  0.1521457199348551 0.1855097315605723 0  0.1505393388476355 0.1926758619366523 0  0.1505393388476328 0.2073241380633295 0  0.1521457199348437 0.2144902684393899 0  0.1547844879126531 0.221343792228163 0  0.1583987151778488 0.2277368545647528 0  0.1629104300036858 0.2335315343742052 0  0.1682222986671726 0.2386028198193036 0  0.1742197252833576 0.2428413052501257 0  0.1807733240458683 0.2461555514727623 0  0.1877417105384929 0.2484740584176516 0  0.1949745518995776 0.2497468076502398 0  0.202315810036185 0.2499463414463592 0  0.2096071079201568 0.2490683551528932 0  0.2166911463435495 0.2471317900544655 0  0.2234150974215506 0.2441784247426195 0  0.2296339016331197 0.2402719738031125 0  0.2352133972703547 0.2354967132658811 0  0.2400332147833751 0.2299556624715287 0  0.2439893735792577 0.2237683615780412 0  0.246996525252926 0.2170682926548348 0  0.25645809709277 0.21 0  0.2639263993298655 0.21 0  0.271394701566961 0.21 0  0.2788630038040554 0.21 0  0.2863313060411479 0.21 0  0.2937996082782405 0.21 0  0.301267910515333 0.21 0  0.3087362127524279 0.21 0  0.3162045149895234 0.21 0  0.3236728172265972 0.21 0  0.3311411194636928 0.21 0  0.3386094217007701 0.21 0  0.3460777239378666 0.21 0  0.3535460261749672 0.21 0  0.3610143284120516 0.21 0  0.3684826306491596 0.21 0  0.3759509328862226 0.21 0  0.383419235123329 0.21 0  0.3908875373604028 0.21 0  0.3983558395975142 0.21 0  0.4058241418345938 0.21 0  0.4132924440716992 0.21 0  0.4207607463087888 0.21 0  0.4282290485459029 0.21 0  0.4356973507830418 0.21 0  0.4431656530201649 0.21 0  0.4506339552573136 0.21 0  0.4581022574944306 0.21 0  0.4655705597315852 0.21 0  0.4730388619686996 0.21 0  0.480507164205851 0.21 0  0.4879754664429498 0.21 0  0.4954437686800938 0.21 0  0.502912070917267 0.21 0  0.5103803731544119 0.21 0  0.5178486753915261 0.21 0  0.5253169776286404 0.21 0  0.5327852798657868 0.21 0  0.5402535821029386 0.21 0  0.54772188434007 0.21 0  0.5551901865771842 0.21 0  0.5626584888143201 0.21 0  0.5701267910514778 0.21 0  0.5775950932886138 0.21 0  0.5850633955257281 0.21 0  0.5925316977628483 0.21 0  0.6 0.2050000000000054 0  0.6 0.1950000000000217 0  0.5925316977628897 0.19 0  0.5850633955257988 0.19 0  0.5775950932887378 0.19 0  0.5701267910515998 0.19 0  0.5626584888145268 0.19 0  0.5551901865773963 0.19 0  0.547721884340339 0.19 0  0.5402535821032429 0.19 0  0.5327852798661811 0.19 0  0.5253169776290537 0.19 0  0.5178486753919799 0.19 0  0.5103803731549078 0.19 0  0.502912070917822 0.19 0  0.4954437686807294 0.19 0  0.4879754664436223 0.19 0  0.4805071642065402 0.19 0  0.4730388619694271 0.19 0  0.4655705597323621 0.19 0  0.4581022574952563 0.19 0  0.4506339552581777 0.19 0  0.4431656530210671 0.19 0  0.4356973507839815 0.19 0  0.4282290485468779 0.19 0  0.4207607463097617 0.19 0  0.4132924440726327 0.19 0  0.4058241418354857 0.19 0  0.3983558395983636 0.19 0  0.3908875373612097 0.19 0  0.3834192351240934 0.19 0  0.3759509328869369 0.19 0  0.3684826306498175 0.19 0  0.361014328412667 0.19 0  0.3535460261755617 0.19 0  0.3460777239384295 0.19 0  0.3386094217012945 0.19 0  0.3311411194641595 0.19 0  0.3236728172270245 0.19 0  0.3162045149898895 0.19 0  0.3087362127527544 0.19 0  0.3012679105156187 0.19 0  0.2937996082784807 0.19 0  0.2863313060413428 0.19 0  0.2788630038042048 0.19 0  0.2713947015670686 0.19 0  0.2639263993299336 0.19 0  0.2564580970927985 0.19 0  0.2607803159922026 0.2000727136295815 0  0.5887803774232762 0.2001272386983733 0  0.5745072403740523 0.2002044435018727 0  0.5511891430099709 0.2001122610077113 0  0.2751288526855082 0.20000000000002 0  0.5365194309847112 0.1999999999999436 0  0.2894621222999649 0.1998691686390484 0  0.5215828265105155 0.1999999999999228 0  0.3127789816668748 0.1998657885438805 0  0.3274069683451451 0.2000000000000796 0  0.5066462220363641 0.199999999999908 0  0.3650630746574081 0.199866017807523 0  0.476773013087985 0.1999999999998713 0  0.3417402379596385 0.1998691686391011 0  0.3796850840047755 0.200000000000134 0  0.4618364086138087 0.1999999999998546 0  0.4917096175621762 0.1999999999998808 0  0.3946216884789568 0.2000000000001512 0  0.446899804139621 0.1999999999998389 0  0.4089549580935208 0.1998691686391595 0  0.4322718174608562 0.200127451265745 0  0.4201487168029707 0.1999966199048527 0  0.3528922713220932 0.2000185703532356 0  0.5633122436674589 0.1999814296467508 0  0.3006558810093873 0.1999966199048318 0  0.5815926498168407 0.1966545283159175 0  0.2677053789419034 0.1964246479135325 0  0.5290511287476175 0.1970915826863981 0  0.5439877332217911 0.197091582686394 0  0.2825131256993216 0.2035478995978015 0  0.3199386661080599 0.202908417313604 0  0.4842413153250809 0.1970915826863873 0  0.5141145242734466 0.1970915826863843 0  0.3722167817676917 0.2029084173136195 0  0.4693047108508938 0.1970915826863783 0  0.3348752705822316 0.202908417313609 0  0.3871533862418661 0.2029084173136212 0  0.4543681063767183 0.1970915826863795 0  0.4991779197992749 0.1970915826863902 0  0.4020059614928624 0.203547899597858 0  0.4394315019025246 0.1970915826863714 0  0.2550657455369551 0.2034088125358657 0  0.2548908499171161 0.1966940311614271 0  0.5946539510196798 0.2024302972968126 0  0.267698176732111 0.2039977513680092 0  0.4261685417851465 0.196409292431739 0  0.3590076176283495 0.196411355804271 0  0.5571672426447437 0.2036011176410121 0  0.3066757059912147 0.1964092924317024 0  0.594380730180568 0.1966558399668133 0  0.4842413153245942 0.2040749161535287 0  0.4693047108503577 0.2040749161535231 0  0.3871533862424271 0.1959250838464788 0  0.372246743208829 0.1959123236376545 0  0.5141145242731028 0.2040749161535395 0  0.4543681063761134 0.2040749161535186 0  0.4019979587101454 0.1959834479682427 0  0.4394608940728603 0.2040870543693135 0  0.5439623148931173 0.2040856076781014 0  0.5290511287473298 0.2040749161535501 0  0.4991779197988497 0.2040749161535382 0  0.3347912413592433 0.1959225448935183 0  0.3199680582793816 0.1959123018030061 0  0.2825051229162361 0.1959834479681729 0  0.3590471196690275 0.2036304442587945 0  0.5571594006495384 0.1963685282145804 0  0.3067669986803285 0.203627750582736 0  0.4262598344738712 0.2036568242185335 0  0.5814408164431408 0.2041285596160068 0  0.5688286748170428 0.1961819304477386 0  0.4145905603063645 0.2038180695522843 0  0.3473758401724931 0.2038180695522752 0  0.2950977245128307 0.2038180695522663 0  0.5688286748170693 0.203818069552238 0  0.2950977245127906 0.1961819304477774 0  0.3473758401723931 0.1961819304478349 0  0.4145905603061963 0.1961819304479011 0  0.2601812407614425 0.2056861609747042
[...]
<PointData  Vectors="f_40-0"> 
<DataArray  type="Float64"  Name="f_40-0"  NumberOfComponents="3" format="ascii">0.0000000000000000e+00 0.0000000000000000e+00 0.0000000000000000e+00  0.0000000000000000e+00 0.0000000000000000e+00 0.0000000000000000e+00  0.0000000000000000e+00 0.0000000000000000e+00 0.0000000000000000e+00  0.0000000000000000e+00 0.0000000000000000e+00 0.0000000000000000e+00  -6.0237481243383068e-05 -1.5855179047531169e-03 0.0000000000000000e+00  7.8850444628322840e-05 -1.5881264496641230e-03 0.0000000000000000e+00  0.0000000000000000e+00 0.0000000000000000e+00 0.0000000000000000e+00  0.0000000000000000e+00 0.0000000000000000e+00 0.0000000000000000e+00  0.0000000000000000e+00 0.0000000000000000e+00 0.0000000000000000e+00  0.0000000000000000e+00 0.0000000000000000e+00 0.0000000000000000e+00  8.7775990160663255e-06 -1.5867939379717150e-03 0.0000000000000000e+00  3.0876949474899290e-01 0.0000000000000000e+00 0.0000000000000000e+00  5.7003599030587093e-01 0.0000000000000000e+00 0.0000000000000000e+00  7.8379948667057253e-01 0.0000000000000000e+00 0.0000000000000000e+00  9.5005998384334545e-01 0.0000000000000000e+00 0.0000000000000000e+00  1.0688174818241682e+00 0.0000000000000000e+00 0.0000000000000000e+00  1.1400719806130333e+00 0.0000000000000000e+00 0.0000000000000000e+00  1.1638234802098699e+00 0.0000000000000000e+00 0.0000000000000000e+00  1.1400719806144737e+00 0.0000000000000000e+00 0.0000000000000000e+00  1.0688174818266425e+00 0.0000000000000000e+00 0.0000000000000000e+00  9.5005998384641022e-01 0.0000000000000000e+00 0.0000000000000000e+00  7.8379948667348376e-01 0.0000000000000000e+00 0.0000000000000000e+00  5.7003599030835506e-01 0.0000000000000000e+00 0.0000000000000000e+00  3.0876949475039267e-01 0.0000000000000000e+00 0.0000000000000000e+00  0.0000000000000000e+00 0.0000000000000000e+00 0.0000000000000000e+00  0.0000000000000000e+00 0.0000000000000000e+00 0.0000000000000000e+00  0.0000000000000000e+00 0.0000000000000000e+00 0.0000000000000000e+00  0.0000000000000000e+00 0.0000000000000000e+00 0.0000000000000000e+00  0.0000000000000000e+00 0.0000000000000000e+00 0.0000000000000000e+00  0.0000000000000000e+00 0.0000000000000000e+00 0.0000000000000000e+00  0.0000000000000000e+00 0.0000000000000000e+00 0.0000000000000000e+00  0.0000000000000000e+00 0.0000000000000000e+00 0.0000000000000000e+00  0.0000000000000000e+00 0.0000000000000000e+00 0.0000000000000000e+00  0.0000000000000000e+00 0.0000000000000000e+00 0.0000000000000000e+00  0.0000000000000000e+00 0.0000000000000000e+00 0.0000000000000000e+00  0.0000000000000000e+00 0.0000000000000000e+00 0.0000000000000000e+00  0.0000000000000000e+00 0.0000000000000000e+00 0.0000000000000000e+00  0.0000000000000000e+00 0.0000000000000000e+00 0.0000000000000000e+00  0.0000000000000000e+00 0.0000000000000000e+00 0.0000000000000000e+00  0.0000000000000000e+00 0.0000000000000000e+00 0.0000000000000000e+00  0.0000000000000000e+00 0.0000000000000000e+00 0.0000000000000000e+00  0.0000000000000000e+00 0.0000000000000000e+00 0.0000000000000000e+00  0.0000000000000000e+00 0.0000000000000000e+00 0.0000000000000000e+00  0.0000000000000000e+00 0.0000000000000000e+00 0.0000000000000000e+00  0.0000000000000000e+00 0.0000000000000000e+00 0.0000000000000000e+00  0.0000000000000000e+00 0.0000000000000000e+00 0.0000000000000000e+00  0.0000000000000000e+00 0.0000000000000000e+00 0.0000000000000000e+00  0.0000000000000000e+00 0.0000000000000000e+00 0.0000000000000000e+00  0.0000000000000000e+00 0.0000000000000000e+00 0.0000000000000000e+00  0.0000000000000000e+00 0.0000000000000000e+00 0.0000000000000000e+00  0.0000000000000000e+00 0.0000000000000000e+00 0.0000000000000000e+00  0.0000000000000000e+00 0.0000000000000000e+00 0.0000000000000000e+00  0.0000000000000000e+00 0.0000000000000000e+00 0.0000000000000000e+00  0.0000000000000000e+00 0.0000000000000000e+00 0.0000000000000000e+00  0.0000000000000000e+00 0.0000000000000000e+00 0.0000000000000000e+00  0.0000000000000000e+00 0.0000000000000000e+00 0.0000000000000000e+00  0.0000000000000000e+00 0.0000000000000000e+00 0.0000000000000000e+00  0.0000000000000000e+00 0.0000000000000000e+00 0.0000000000000000e+00  0.0000000000000000e+00 0.0000000000000000e+00 0.0000000000000000e+00  0.0000000000000000e+00 0.0000000000000000e+00 0.0000000000000000e+00  0.0000000000000000e+00 0.0000000000000000e+00 0.0000000000000000e+00  0.0000000000000000e+00 0.0000000000000000e+00 0.0000000000000000e+00  1.0533812438916137e+00 -3.2253592279185013e-02 0.0000000000000000e+00  7.9051814668013165e-01 1.3237645939705259e-02 0.0000000000000000e+00  1.0539827445036589e+00 4.1043318294272310e-02 0.0000000000000000e+00  0.0000000000000000e+00 0.0000000000000000e+00 0.0000000000000000e+00  0.0000000000000000e+00 0.0000000000000000e+00 0.0000000000000000e+00  0.0000000000000000e+00 0.0000000000000000e+00 0.0000000000000000e+00  0.0000000000000000e+00 0.0000000000000000e+00 0.0000000000000000e+00  0.0000000000000000e+00 0.0000000000000000e+00 0.0000000000000000e+00  0.0000000000000000e+00 0.0000000000000000e+00 0.0000000000000000e+00  0.0000000000000000e+00 0.0000000000000000e+00 0.0000000000000000e+00  0.0000000000000000e+00 0.0000000000000000e+00 0.0000000000000000e+00  0.0000000000000000e+00 0.0000000000000000e+00 0.0000000000000000e+00  0.0000000000000000e+00 0.0000000000000000e+00 0.0000000000000000e+00  0.0000000000000000e+00 0.0000000000000000e+00 0.0000000000000000e+00  0.0000000000000000e+00 0.0000000000000000e+00 0.0000000000000000e+00  0.0000000000000000e+00 0.0000000000000000e+00 0.0000000000000000e+00  0.0000000000000000e+00 0.0000000000000000e+00 0.0000000000000000e+00  0.0000000000000000e+00 0.0000000000000000e+00 0.0000000000000000e+00  0.0000000000000000e+00 0.0000000000000000e+00 0.0000000000000000e+00  0.0000000000000000e+00 0.0000000000000000e+00 0.0000000000000000e+00  0.0000000000000000e+00 0.0000000000000000e+00 0.0000000000000000e+00  0.0000000000000000e+00 0.0000000000000000e+00 0.0000000000000000e+00  0.0000000000000000e+00 0.0000000000000000e+00 0.0000000000000000e+00  0.0000000000000000e+00 0.0000000000000000e+00 0.0000000000000000e+00  0.0000000000000000e+00 0.0000000000000000e+00 0.0000000000000000e+00  0.0000000000000000e+00 0.0000000000000000e+00 0.0000000000000000e+00  0.0000000000000000e+00 0.0000000000000000e+00 0.0000000000000000e+00  0.0000000000000000e+00 0.0000000000000000e+00 0.0000000000000000e+00  0.0000000000000000e+00 0.0000000000000000e+00 0.0000000000000000e+00  0.0000000000000000e+00 0.0000000000000000e+00 0.0000000000000000e+00  0.0000000000000000e+00 0.0000000000000000e+00 0.0000000000000000e+00  0.0000000000000000e+00 0.0000000000000000e+00 0.0000000000000000e+00  0.0000000000000000e+00 0.0000000000000000e+00 0.0000000000000000e+00  0.0000000000000000e+00 0.0000000000000000e+00 0.0000000000000000e+00  0.0000000000000000e+00 0.0000000000000000e+00 0.0000000000000000e+00  0.0000000000000000e+00 0.0000000000000000e+00 0.0000000000000000e+00  0.0000000000000000e+00 0.0000000000000000e+00 0.0000000000000000e+00  0.0000000000000000e+00 0.0000000000000000e+00 0.0000000000000000e+00  0.0000000000000000e+00 0.0000000000000000e+00 0.0000000000000000e+00  0.0000000000000000e+00 0.0000000000000000e+00 0.0000000000000000e+00  0.0000000000000000e+00 0.0000000000000000e+00 0.0000000000000000e+00  0.0000000000000000e+00 0.0000000000000000e+00 0.0000000000000000e+00  0.0000000000000000e+00 0.0000000000000000e+00 0.0000000000000000e+00  0.0000000000000000e+00 0.0000000000000000e+00 0.0000000000000000e+00  0.0000000000000000e+00 0.0000000000000000e+00 0.0000000000000000e+00  0.0000000000000000e+00 0.0000000000000000e+00 0.0000000000000000e+00  0.0000000000000000e+00 0.0000000000000000e+00 0.0000000000000000e+00  0.0000000000000000e+00 0.0000000000000000e+00 0.0000000000000000e+00  0.0000000000000000e+00 0.0000000000000000e+00 0.0000000000000000e+00  0.0000000000000000e+00 0.0000000000000000e+00 0.0000000000000000e+00  0.0000000000000000e+00 0.0000000000000000e+00 0.0000000000000000e+00  0.0000000000000000e+00 0.0000000000000000e+00 0.0000000000000000e+00  0.0000000000000000e+00 0.0000000000000000e+00 0.0000000000000000e+00  0.0000000000000000e+00 0.0000000000000000e+00 0.0000000000000000e+00  0.0000000000000000e+00 0.0000000000000000e+00 0.0000000000000000e+00  0.0000000000000000e+00 0.0000000000000000e+00 0.0000000000000000e+00  0.0000000000000000e+00 0.0000000000000000e+00 0.0000000000000000e+00  0.0000000000000000e+00 0.0000000000000000e+00 0.0000000000000000e+00  0.0000000000000000e+00 0.0000000000000000e+00 0.0000000000000000e+00  0.0000000000000000e+00 0.0000000000000000e+00 0.0000000000000000e+00  0.0000000000000000e+00 0.0000000000000000e+00 0.0000000000000000e+00  0.0000000000000000e+00 0.0000000000000000e+00 0.0000000000000000e+00  0.0000000000000000e+00 0.0000000000000000e+00 0.0000000000000000e+00  0.0000000000000000e+00 0.0000000000000000e+00 0.0000000000000000e+00  0.0000000000000000e+00 0.0000000000000000e+00 0.0000000000000000e+00  0.0000000000000000e+00 0.0000000000000000e+00 0.0000000000000000e+00  0.0000000000000000e+00 0.0000000000000000e+00 0.0000000000000000e+00  0.0000000000000000e+00 0.0000000000000000e+00 0.0000000000000000e+00  0.0000000000000000e+00 0.0000000000000000e+00 0.0000000000000000e+00  0.0000000000000000e+00 0.0000000000000000e+00 0.0000000000000000e+00  0.0000000000000000e+00 0.0000000000000000e+00 0.0000000000000000e+00  0.0000000000000000e+00 0.0000000000000000e+00 0.0000000000000000e+00  0.0000000000000000e+00 0.0000000000000000e+00 0.0000000000000000e+00  0.0000000000000000e+00 0.0000000000000000e+00 0.0000000000000000e+00  0.0000000000000000e+00 0.0000000000000000e+00 0.0000000000000000e+00  0.0000000000000000e+00 0.0000000000000000e+00 0.0000000000000000e+00  0.0000000000000000e+00 0.0000000000000000e+00 0.0000000000000000e+00  0.0000000000000000e+00 0.0000000000000000e+00 0.0000000000000000e+00  0.0000000000000000e+00 0.0000000000000000e+00 0.0000000000000000e+00  0.0000000000000000e+00 0.0000000000000000e+00 0.0000000000000000e+00  0.0000000000000000e+00 0.0000000000000000e+00 0.0000000000000000e+00  -7.2875261568285008e-07 8.7594581355434623e-07 0.0000000000000000e+00  -1.0222501034787209e-06 9.7635509560925908e-07 0.0000000000000000e+00  -1.0630241058818345e-06 1.3019173064275817e-07 0.0000000000000000e+00  -5.7963792002311610e-07 -1.7303487951582237e-06 0.0000000000000000e+00  -1.1962819021578397e-08 -4.9950444223622972e-06 0.0000000000000000e+00  1.2886489909821100e-06 -9.8239609700270830e-06 0.0000000000000000e+00  2.4202836573448435e-06 -1.6145510471808601e-05 0.0000000000000000e+00  3.8882311886702618e-06 -2.4627308898936195e-05 0.0000000000000000e+00  6.1132166536202953e-06 -3.4943281187231655e-05 0.0000000000000000e+00  7.9768401158616717e-06 -4.7487778371001111e-05 0.0000000000000000e+00  1.0847269735803192e-05 -6.2198853669584610e-05 0.0000000000000000e+00  1.3165037960947618e-05 -7.9352057030093818e-05 0.0000000000000000e+00  1.6419257509797407e-05 -9.8810259816437852e-05 0.0000000000000000e+00  1.9168634799684010e-05 -1.2031366928086365e-04 0.0000000000000000e+00  2.2147768818940592e-05 -1.4447813413342385e-04 0.0000000000000000e+00  2.5778432402455268e-05 -1.7067714706209681e-04 0.0000000000000000e+00  2.8792366711800122e-05 -1.9917007025703728e-04 0.0000000000000000e+00  3.2591544889549348e-05 -2.2976641695470870e-04 0.0000000000000000e+00  3.5663957126659972e-05 -2.6249348472270315e-04 0.0000000000000000e+00  3.9360192118764070e-05 -2.9705619325579138e-04 0.0000000000000000e+00  4.2510745456910960e-05 -3.3357499515151697e-04 0.0000000000000000e+00  4.6024506281842830e-05 -3.7186526651788874e-04 0.0000000000000000e+00  4.8998858381818249e-05 -4.1148529819406282e-04 0.0000000000000000e+00  5.1922793993130333e-05 -4.5282305113663593e-04 0.0000000000000000e+00  5.5038177828976713e-05 -4.9528785169297175e-04 0.0000000000000000e+00  5.7754129324977942e-05 -5.3908830072790640e-04 0.0000000000000000e+00  6.0428167598290814e-05 -5.8401344830118402e-04 0.0000000000000000e+00  6.2836677193022611e-05 -6.2986141641283879e-04 0.0000000000000000e+00  6.5166432835169771e-05 -6.7667406951079224e-04 0.0000000000000000e+00  6.7239107139637776e-05 -7.2418937514690787e-04 0.0000000000000000e+00  6.9210443823963783e-05 -7.7248401049511122e-04 0.0000000000000000e+00  7.0941106332246702e-05 -8.2129961858434678e-04 0.0000000000000000e+00  7.2555451734764029e-05 -8.7073175160140407e-04 0.0000000000000000e+00  7.3949499164926047e-05 -9.2052992426212268e-04 0.0000000000000000e+00  7.5212123921658184e-05 -9.7081516955632274e-04 0.0000000000000000e+00  7.6276728748012171e-05 -1.0213414959703777e-03 0.0000000000000000e+00  7.7209291364102128e-05 -1.0722338837324580e-03 0.0000000000000000e+00  7.7962912075842705e-05 -1.1232687064799216e-03 0.0000000000000000e+00  7.8581831385841178e-05 -1.1745766213239275e-03 0.0000000000000000e+00  7.9036959532722558e-05 -1.2259524877324894e-03 0.0000000000000000e+00  7.9350862229909044e-05 -1.2775101430811831e-03 0.0000000000000000e+00  7.9533826285791049e-05 -1.3291084530792059e-03 0.0000000000000000e+00  7.9572893735939656e-05 -1.3807964231967302e-03 0.0000000000000000e+00  7.9537815434237177e-05 -1.4325204929026712e-03 0.0000000000000000e+00  7.9348403069164905e-05 -1.4842370572199762e-03 0.0000000000000000e+00  7.9078945752099347e-05 -1.5360406947036119e-03 0.0000000000000000e+00  4.3619971871625600e-05 -1.5874569166832858e-03 0.0000000000000000e+00  -2.5891670288530101e-05 -1.5861449949395544e-03 0.0000000000000000e+00  -5.9948202103523210e-05 -1.5336949112145113e-03 0.0000000000000000e+00  -5.9595289695001306e-05 -1.4816793978673995e-03 0.0000000000000000e+00  -5.9308855656377575e-05 -1.4296354708926286e-03 0.0000000000000000e+00  -5.9112197410054177e-05 -1.3776712834637922e-03 0.0000000000000000e+00  -5.8981050444423910e-05 -1.3257471692860077e-03 0.0000000000000000e+00  -5.8943769157326238e-05 -1.2739054568329734e-03 0.0000000000000000e+00  -5.8925924078352123e-05 -1.2221615080708296e-03 0.0000000000000000e+00  -5.9022988651420718e-05 -1.1705066799875131e-03 0.0000000000000000e+00  -5.9112624393329459e-05 -1.1190584253701937e-03 0.0000000000000000e+00  -5.9316150261171553e-05 -1.0677527360303635e-03 0.0000000000000000e+00  -5.9465291756041927e-05 -1.0167307383782955e-03 0.0000000000000000e+00  -5.9739958789805327e-05 -9.6595409088009836e-04 0.0000000000000000e+00  -5.9903451356833486e-05 -9.1556423081741662e-04 0.0000000000000000e+00  -6.0203417940707195e-05 -8.6554736828345900e-04 0.0000000000000000e+00  -6.0321446223031379e-05 -8.1603329858880263e-04 0.0000000000000000e+00  -6.0597221395973301e-05 -7.6704719168168558e-04 0.0000000000000000e+00  -6.0609074697601703e-05 -7.1870584075219902e-04 0.0000000000000000e+00  -6.0798697513948093e-05 -6.7107849680618341e-04 0.0000000000000000e+00  -6.0623534661016888e-05 -6.2426540900194910e-04 0.0000000000000000e+00  -6.0650971302041602e-05 -5.7838095466055414e-04 0.0000000000000000e+00  -6.0193513168636536e-05 -5.3350808112309547e-04 0.0000000000000000e+00  -5.9969976472205687e-05 -4.8981423252523429e-04 0.0000000000000000e+00  -5.9172111753115187e-05 -4.4738681622913406e-04 0.0000000000000000e+00  -5.8550458367269684e-05 -4.0623660760776790e-04 0.0000000000000000e+00  -5.7737181686468665e-05 -3.6683233861630274e-04 0.0000000000000000e+00  -5.6365479306566354e-05 -3.2873368842129723e-04 0.0000000000000000e+00  -5.5029976389485801e-05 -2.9263128597264087e-04 0.0000000000000000e+00  -5.3236744901148803e-05 -2.5823974032842005e-04 0.0000000000000000e+00  -5.1405995855805696e-05 -2.2600371303875248e-04 0.0000000000000000e+00  -4.9126683793448205e-05 -1.9571262548966623e-04 0.0000000000000000e+00  -4.6809640771769200e-05 -1.6765629433062139e-04 0.0000000000000000e+00  -4.3823892882897058e-05 -1.4199959295416355e-04 0.0000000000000000e+00  -4.1208232543334533e-05 -1.1829408595720694e-04 0.0000000000000000e+00  -3.8401970899060557e-05 -9.7264777000484240e-05 0.0000000000000000e+00  -3.4948793863915744e-05 -7.8111255997396036e-05 0.0000000000000000e+00  -3.1700878055878323e-05 -6.1544352757879770e-05 0.0000000000000000e+00  -2.8135633790995676e-05 -4.7138980328028575e-05 0.0000000000000000e+00  -2.4757498976265576e-05 -3.4937873047577714e-05 0.0000000000000000e+00  -2.1009748846292564e-05 -2.5040650240976393e-05 0.0000000000000000e+00  -1.7791758285792406e-05 -1.6795841341512908e-05 0.0000000000000000e+00  -1.4682121692625736e-05 -1.0693268184676749e-05 0.0000000000000000e+00  -1.1316876206373090e-05 -5.9708926668331977e-06 0.0000000000000000e+00  -8.4629250589253513e-06 -2.8542712165321634e-06 0.0000000000000000e+00  -5.6677391341118446e-06 -1.1125466990990942e-06 0.0000000000000000e+00  -3.3997907815359173e-06 -2.7411045680234335e-07 0.0000000000000000e+00  -1.4112886050813308e-06 -2.7550512432163329e-07 0.0000000000000000e+00  -1.5697106284749453e-06 8.3474247432213060e-07 0.0000000000000000e+00  1.0379170253088486e-05 -1.5087855542111194e-03 0.0000000000000000e+00  1.1483569060350662e-05 -1.4096265119748128e-03 0.0000000000000000e+00  1.0798799708377770e-05 -1.2479633852493352e-03 0.0000000000000000e+00  -3.9023363304173630e-06 -5.0431525279662966e-07 0.0000000000000000e+00  9.4814875480544065e-06 -1.1467087853536540e-03 0.0000000000000000e+00  -6.1196446970868417e-06 -6.2444464429876883e-06 0.0000000000000000e+00  8.5560546462541109e-06 -1.0443025889642203e-03 0.0000000000000000e+00  -9.1160663195351251e-06 -2.8707851986555882e-05 0.0000000000000000e+00  -1.0150306127184972e-05 -5.2902395565634775e-05 0.0000000000000000e+00  7.2610009088603677e-06 -9.4291887042457362e-04 0.0000000000000000e+00  -1.1116635377147243e-05 -1.5552450831736586e-04 0.0000000000000000e+00  3.7059681775810801e-06 -7.4507861145338904e-04 0.0000000000000000e+00  -1.1168097778773256e-05 -8.4993114002839860e-05 0.0000000000000000e+00  -9.7241797046291228e-06 -2.1105170317254368e-04 0.0000000000000000e+00  1.5541492099700238e-06 -6.4979567985771526e-04 0.0000000000000000e+00  5.6295968454749879e-06 -8.4299942404719946e-04 0.0000000000000000e+00  -8.2707118062544420e-06 -2.7612349746640593e-04 0.0000000000000000e+00  -7.4829305516029622e-07 -5.5791253609354145e-04 0.0000000000000000e+00  -7.1449673700199106e-06 -3.4577751113098370e-04 0.0000000000000000e+00  -2.3160528579219959e-06 -4.7208591905014536e-04 0.0000000000000000e+00  -4.8901032001001817e-06 -4.0483100941855104e-04 0.0000000000000000e+00  -1.0838461106159156e-05 -1.1626725076324383e-04 0.0000000000000000e+00  9.9980085535367138e-06 -1.3319180696223923e-03 0.0000000000000000e+00  -7.5166495315350558e-06 -1.5034997489717216e-05 0.0000000000000000e+00  -1.3388910928252769e-05 -1.4583816178303805e-03 0.0000000000000000e+00  -3.4069065519351626e-06 2.9060579138715812e-07 0.0000000000000000e+00  -1.0819374039611007e-05 -1.0947916037473827e-03 0.0000000000000000e+00  -1.0227639385298127e-05 -1.1976247255980261e-03 0.0000000000000000e+00  -3.3194122803101572e-06 -2.7594372803110906e-06 0.0000000000000000e+00  -4.6656778738236520e-06 -3.9703581479673117e-05 0.0000000000000000e+00  -1.4268427201690045e-05 -7.9302976407480950e-04 0.0000000000000000e+00  -1.1719701659613504e-05 -9.9279951620053581e-04 0.0000000000000000e+00  7.1314920107930702e-07 -1.8230023555769841e-04 0.0000000000000000e+00  -1.5785322597994730e-05 -6.9632915351443725e-04 0.0000000000000000e+00  -4.0260896344122295e-06 -6.8894174872946400e-05 0.0000000000000000e+00  3.4953762902311767e-06 -2.4333576441592836e-04 0.0000000000000000e+00  -1.7346320647709952e-05 -6.0264861194420712e-04 0.0000000000000000e+00  -1.2889069431886023e-05 -8.9204844259480184e-04 0.0000000000000000e+00  9.6907068469558452e-06 -3.1220721465708020e-04 0.0000000000000000e+00  -1.8857794936815456e-05 -5.1280895963847070e-04 0.0000000000000000e+00  -5.9062020859623744e-07 6.3466414829235004e-07 0.0000000000000000e+00  -7.4611929959010198e-07 3.3458828060999039e-07 0.0000000000000000e+00  2.6031261362601997e-05 -1.5498955253822348e-03 0.0000000000000000e+00  