<?xml version="1.0"?>
<VTKFile type="UnstructuredGrid"  version="0.1"  >
<UnstructuredGrid>
<Piece  NumberOfPoints="1419" NumberOfCells="2698">
<Points>
<DataArray  type="Float64"  NumberOfComponents="3"  format="ascii">0 0 0  0 0.41 0  2.5 0 0  2.5 0.41 0  0.6 0.19 0  0.6 0.21 0  0.25 0.2 0  0.15 0.2 0  0.2489897948556636 0.21 0  0.2489897948556636 0.19 0  0.6 0.2 0  0 0.3807142857143437 0  0 0.3514285714286952 0  0 0.3221428571430699 0  0 0.29285714285744 0  0 0.2635714285718054 0  0 0.2342857142861561 0  0 0.2050000000005308 0  0 0.175714285714732 0  0 0.1464285714289574 0  0 0.1171428571431897 0  0 0.08785714285737878 0  0 0.05857142857161107 0  0 0.02928571428580012 0  0.03015443760436003 0 0  0.06140001986583606 0 0  0.09377624077125973 0 0  0.1273239957535082 0 0  0.1620856860351972 0 0  0.1981052433264291 0 0  0.235428184091502 0 0  0.2741016576309132 0 0  0.3141745521465447 0 0  0.3556974926295285 0 0  0.3987229542472677 0 0  0.4433053055141081 0 0  0.4895008759286886 0 0  0.5373680609405097 0 0  0.5869673343216626 0 0  0.6383613676634521 0 0  0.6916151138468254 0 0  0.7467958595648856 0 0  0.8039733463919316 0 0  0.8632198139502143 0 0  0.9246101326867038 0 0  0.9882218810934433 0 0  1.054135445558498 0 0  1.122434100542598 0 0  1.193204177141305 0 0  1.266535089879536 0 0  1.342519516046404 0 0  1.421253448503939 0 0  1.502836389106271 0 0  1.587371439758838 0 0  1.674965418777374 0 0  1.765729001825544 0 0  1.859776908880082 0 0  1.957227977487062 0 0  2.058205329869943 0 0  2.162836591189951 0 0  2.271253957290865 0 0  2.383594446803425 0 0  2.5 0.1024999999997612 0  2.5 0.2049999999994743 0  2.5 0.3074999999997183 0  2.383594446803656 0.41 0  2.271253957291315 0.41 0  2.162836591190598 0.41 0  2.058205329870775 0.41 0  1.957227977488067 0.41 0  1.859776908881246 0.41 0  1.765729001826854 0.41 0  1.674965418778818 0.41 0  1.58737143976041 0.41 0  1.502836389107956 0.41 0  1.421253448505726 0.41 0  1.342519516048286 0.41 0  1.266535089881505 0.41 0  1.193204177143353 0.41 0  1.122434100544716 0.41 0  1.05413544556068 0.41 0  0.9882218810956305 0.41 0  0.9246101326886647 0.41 0  0.8632198139519631 0.41 0  0.8039733463934788 0.41 0  0.7467958595662458 0.41 0  0.6916151138480078 0.41 0  0.6383613676644679 0.41 0  0.5869673343225223 0.41 0  0.5373680609412221 0.41 0  0.4895008759292634 0.41 0  0.4433053055145528 0.41 0  0.3987229542475914 0.41 0  0.3556974926297398 0.41 0  0.3141745521466497 0.41 0  0.2741016576310038 0.41 0  0.2354281840915826 0.41 0  0.1981052433265003 0.41 0  0.1620856860352591 0.41 0  0.1273239957535623 0.41 0  0.09377624077128965 0.41 0  0.06140001986584975 0.41 0  0.03015443760436654 0.41 0  0.2497468076502589 0.2050254481002335 0  0.2497468076502614 0.1949745518997913 0  0.2469965252529372 0.1829317073451959 0  0.2439893735792749 0.1762316384219906 0  0.2400332147834255 0.1700443375285386 0  0.2352133972704371 0.1645032867342007 0  0.2296339016332438 0.1597280261969788 0  0.2234150974217223 0.1558215752574715 0  0.2166911463437691 0.1528682099456123 0  0.2096071079204251 0.1509316448471593 0  0.2023158100364996 0.1500536585536553 0  0.194974551899914 0.1502531923497262 0  0.1877417105387872 0.1515259415822739 0  0.1807733240461124 0.153844448527136 0  0.1742197252835808 0.15715869474974 0  0.1682222986673531 0.1613971801805478 0  0.162910430003803 0.1664684656256651 0  0.1583987151779087 0.1722631454351573 0  0.1547844879126891 0.178656207771761 0  0.1521457199348551 0.1855097315605723 0  0.1505393388476355 0.1926758619366523 0  0.1505393388476328 0.2073241380633295 0  0.1521457199348437 0.2144902684393899 0  0.1547844879126531 0.221343792228163 0  0.1583987151778488 0.2277368545647528 0  0.1629104300036858 0.2335315343742052 0  0.1682222986671726 0.2386028198193036 0  0.1742197252833576 0.2428413052501257 0  0.1807733240458683 0.2461555514727623 0  0.1877417105384929 0.2484740584176516 0  0.1949745518995776 0.2497468076502398 0  0.202315810036185 0.2499463414463592 0  0.2096071079201568 0.2490683551528932 0  0.2166911463435495 0.2471317900544655 0  0.2234150974215506 0.2441784247426195 0  0.2296339016331197 0.2402719738031125 0  0.2352133972703547 0.2354967132658811 0  0.2400332147833751 0.2299556624715287 0  0.2439893735792577 0.2237683615780412 0  0.246996525252926 0.2170682926548348 0  0.25645809709277 0.21 0  0.2639263993298655 0.21 0  0.271394701566961 0.21 0  0.2788630038040554 0.21 0  0.2863313060411479 0.21 0  0.2937996082782405 0.21 0  0.301267910515333 0.21 0  0.3087362127524279 0.21 0  0.3162045149895234 0.21 0  0.3236728172265972 0.21 0  0.3311411194636928 0.21 0  0.3386094217007701 0.21 0  0.3460777239378666 0.21 0  0.3535460261749672 0.21 0  0.3610143284120516 0.21 0  0.3684826306491596 0.21 0  0.3759509328862226 0.21 0  0.383419235123329 0.21 0  0.3908875373604028 0.21 0  0.3983558395975142 0.21 0  0.4058241418345938 0.21 0  0.4132924440716992 0.21 0  0.4207607463087888 0.21 0  0.4282290485459029 0.21 0  0.4356973507830418 0.21 0  0.4431656530201649 0.21 0  0.4506339552573136 0.21 0  0.4581022574944306 0.21 0  0.4655705597315852 0.21 0  0.4730388619686996 0.21 0  0.480507164205851 0.21 0  0.4879754664429498 0.21 0  0.4954437686800938 0.21 0  0.502912070917267 0.21 0  0.5103803731544119 0.21 0  0.5178486753915261 0.21 0  0.5253169776286404 0.21 0  0.5327852798657868 0.21 0  0.5402535821029386 0.21 0  0.54772188434007 0.21 0  0.5551901865771842 0.21 0  0.5626584888143201 0.21 0  0.5701267910514778 0.21 0  0.5775950932886138 0.21 0  0.5850633955257281 0.21 0  0.5925316977628483 0.21 0  0.6 0.2050000000000054 0  0.6 0.1950000000000217 0  0.5925316977628897 0.19 0  0.5850633955257988 0.19 0  0.5775950932887378 0.19 0  0.5701267910515998 0.19 0  0.5626584888145268 0.19 0  0.5551901865773963 0.19 0  0.547721884340339 0.19 0  0.5402535821032429 0.19 0  0.5327852798661811 0.19 0  0.5253169776290537 0.19 0  0.5178486753919799 0.19 0  0.5103803731549078 0.19 0  0.502912070917822 0.19 0  0.4954437686807294 0.19 0  0.4879754664436223 0.19 0  0.4805071642065402 0.19 0  0.4730388619694271 0.19 0  0.4655705597323621 0.19 0  0.4581022574952563 0.19 0  0.4506339552581777 0.19 0  0.4431656530210671 0.19 0  0.4356973507839815 0.19 0  0.4282290485468779 0.19 0  0.4207607463097617 0.19 0  0.4132924440726327 0.19 0  0.4058241418354857 0.19 0  0.3983558395983636 0.19 0  0.3908875373612097 0.19 0  0.3834192351240934 0.19 0  0.3759509328869369 0.19 0  0.3684826306498175 0.19 0  0.361014328412667 0.19 0  0.3535460261755617 0.19 0  0.3460777239384295 0.19 0  0.3386094217012945 0.19 0  0.3311411194641595 0.19 0  0.3236728172270245 0.19 0  0.3162045149898895 0.19 0  0.3087362127527544 0.19 0  0.3012679105156187 0.19 0  0.2937996082784807 0.19 0  0.2863313060413428 0.19 0  0.2788630038042048 0.19 0  0.2713947015670686 0.19 0  0.2639263993299336 0.19 0  0.2564580970927985 0.19 0  0.2607803159922026 0.2000727136295815 0  0.5887803774232762 0.2001272386983733 0  0.5745072403740523 0.2002044435018727 0  0.5511891430099709 0.2001122610077113 0  0.2751288526855082 0.20000000000002 0  0.5365194309847112 0.1999999999999436 0  0.2894621222999649 0.1998691686390484 0  0.5215828265105155 0.1999999999999228 0  0.3127789816668748 0.1998657885438805 0  0.3274069683451451 0.2000000000000796 0  0.5066462220363641 0.199999999999908 0  0.3650630746574081 0.199866017807523 0  0.476773013087985 0.1999999999998713 0  0.3417402379596385 0.1998691686391011 0  0.3796850840047755 0.200000000000134 0  0.4618364086138087 0.1999999999998546 0  0.4917096175621762 0.1999999999998808 0  0.3946216884789568 0.2000000000001512 0  0.446899804139621 0.1999999999998389 0  0.4089549580935208 0.1998691686391595 0  0.4322718174608562 0.200127451265745 0  0.4201487168029707 0.1999966199048527 0  0.3528922713220932 0.2000185703532356 0  0.5633122436674589 0.1999814296467508 0  0.3006558810093873 0.1999966199048318 0  0.5815926498168407 0.1966545283159175 0  0.2677053789419034 0.1964246479135325 0  0.5290511287476175 0.1970915826863981 0  0.5439877332217911 0.197091582686394 0  0.2825131256993216 0.2035478995978015 0  0.3199386661080599 0.202908417313604 0  0.4842413153250809 0.1970915826863873 0  0.5141145242734466 0.1970915826863843 0  0.3722167817676917 0.2029084173136195 0  0.4693047108508938 0.1970915826863783 0  0.3348752705822316 0.202908417313609 0  0.3871533862418661 0.2029084173136212 0  0.4543681063767183 0.1970915826863795 0  0.4991779197992749 0.1970915826863902 0  0.4020059614928624 0.203547899597858 0  0.4394315019025246 0.1970915826863714 0  0.2550657455369551 0.2034088125358657 0  0.2548908499171161 0.1966940311614271 0  0.5946539510196798 0.2024302972968126 0  0.267698176732111 0.2039977513680092 0  0.4261685417851465 0.196409292431739 0  0.3590076176283495 0.196411355804271 0  0.5571672426447437 0.2036011176410121 0  0.3066757059912147 0.1964092924317024 0  0.594380730180568 0.1966558399668133 0  0.4842413153245942 0.2040749161535287 0  0.4693047108503577 0.2040749161535231 0  0.3871533862424271 0.1959250838464788 0  0.372246743208829 0.1959123236376545 0  0.5141145242731028 0.2040749161535395 0  0.4543681063761134 0.2040749161535186 0  0.4019979587101454 0.1959834479682427 0  0.4394608940728603 0.2040870543693135 0  0.5439623148931173 0.2040856076781014 0  0.5290511287473298 0.2040749161535501 0  0.4991779197988497 0.2040749161535382 0  0.3347912413592433 0.1959225448935183 0  0.3199680582793816 0.1959123018030061 0  0.2825051229162361 0.1959834479681729 0  0.3590471196690275 0.2036304442587945 0  0.5571594006495384 0.1963685282145804 0  0.3067669986803285 0.203627750582736 0  0.4262598344738712 0.2036568242185335 0  0.5814408164431408 0.2041285596160068 0  0.5688286748170428 0.1961819304477386 0  0.4145905603063645 0.2038180695522843 0  0.3473758401724931 0.2038180695522752 0  0.2950977245128307 0.2038180695522663 0  0.5688286748170693 0.203818069552238 0  0.2950977245127906 0.1961819304477774 0  0.3473758401723931 0.1961819304478349 0  0.4145905603061963 0.1961819304479011 0  0.2601812407614425 0.2056861609747042
[...]
<PointData  Vectors="f_40-0"> 
<DataArray  type="Float64"  Name="f_40-0"  NumberOfComponents="3" format="ascii">0.0000000000000000e+00 0.0000000000000000e+00 0.0000000000000000e+00  0.0000000000000000e+00 0.0000000000000000e+00 0.0000000000000000e+00  0.0000000000000000e+00 0.0000000000000000e+00 0.0000000000000000e+00  0.0000000000000000e+00 0.0000000000000000e+00 0.0000000000000000e+00  1.4604536334145886e-04 5.7410079157250403e-03 0.0000000000000000e+00  -2.6983654706420294e-04 5.7450379806542719e-03 0.0000000000000000e+00  0.0000000000000000e+00 0.0000000000000000e+00 0.0000000000000000e+00  0.0000000000000000e+00 0.0000000000000000e+00 0.0000000000000000e+00  0.0000000000000000e+00 0.0000000000000000e+00 0.0000000000000000e+00  0.0000000000000000e+00 0.0000000000000000e+00 0.0000000000000000e+00  -6.1443232618644346e-05 5.7429809046661917e-03 0.0000000000000000e+00  5.5434246942382581e-01 0.0000000000000000e+00 0.0000000000000000e+00  1.0234014820132848e+00 0.0000000000000000e+00 0.0000000000000000e+00  1.4071770377682669e+00 0.0000000000000000e+00 0.0000000000000000e+00  1.7056691366892163e+00 0.0000000000000000e+00 0.0000000000000000e+00  1.9188777787760944e+00 0.0000000000000000e+00 0.0000000000000000e+00  2.0468029640288887e+00 0.0000000000000000e+00 0.0000000000000000e+00  2.0894446924474703e+00 0.0000000000000000e+00 0.0000000000000000e+00  2.0468029640314751e+00 0.0000000000000000e+00 0.0000000000000000e+00  1.9188777787805371e+00 0.0000000000000000e+00 0.0000000000000000e+00  1.7056691366947181e+00 0.0000000000000000e+00 0.0000000000000000e+00  1.4071770377734936e+00 0.0000000000000000e+00 0.0000000000000000e+00  1.0234014820177448e+00 0.0000000000000000e+00 0.0000000000000000e+00  5.5434246942633891e-01 0.0000000000000000e+00 0.0000000000000000e+00  0.0000000000000000e+00 0.0000000000000000e+00 0.0000000000000000e+00  0.0000000000000000e+00 0.0000000000000000e+00 0.0000000000000000e+00  0.0000000000000000e+00 0.0000000000000000e+00 0.0000000000000000e+00  0.0000000000000000e+00 0.0000000000000000e+00 0.0000000000000000e+00  0.0000000000000000e+00 0.0000000000000000e+00 0.0000000000000000e+00  0.0000000000000000e+00 0.0000000000000000e+00 0.0000000000000000e+00  0.0000000000000000e+00 0.0000000000000000e+00 0.0000000000000000e+00  0.0000000000000000e+00 0.0000000000000000e+00 0.0000000000000000e+00  0.0000000000000000e+00 0.0000000000000000e+00 0.0000000000000000e+00  0.0000000000000000e+00 0.0000000000000000e+00 0.0000000000000000e+00  0.0000000000000000e+00 0.0000000000000000e+00 0.0000000000000000e+00  0.0000000000000000e+00 0.0000000000000000e+00 0.0000000000000000e+00  0.0000000000000000e+00 0.0000000000000000e+00 0.0000000000000000e+00  0.0000000000000000e+00 0.0000000000000000e+00 0.0000000000000000e+00  0.0000000000000000e+00 0.0000000000000000e+00 0.0000000000000000e+00  0.0000000000000000e+00 0.0000000000000000e+00 0.0000000000000000e+00  0.0000000000000000e+00 0.0000000000000000e+00 0.0000000000000000e+00  0.0000000000000000e+00 0.0000000000000000e+00 0.0000000000000000e+00  0.0000000000000000e+00 0.0000000000000000e+00 0.0000000000000000e+00  0.0000000000000000e+00 0.0000000000000000e+00 0.0000000000000000e+00  0.0000000000000000e+00 0.0000000000000000e+00 0.0000000000000000e+00  0.0000000000000000e+00 0.0000000000000000e+00 0.0000000000000000e+00  0.0000000000000000e+00 0.0000000000000000e+00 0.0000000000000000e+00  0.0000000000000000e+00 0.0000000000000000e+00 0.0000000000000000e+00  0.0000000000000000e+00 0.0000000000000000e+00 0.0000000000000000e+00  0.0000000000000000e+00 0.0000000000000000e+00 0.0000000000000000e+00  0.0000000000000000e+00 0.0000000000000000e+00 0.0000000000000000e+00  0.0000000000000000e+00 0.0000000000000000e+00 0.0000000000000000e+00  0.0000000000000000e+00 0.0000000000000000e+00 0.0000000000000000e+00  0.0000000000000000e+00 0.0000000000000000e+00 0.0000000000000000e+00  0.0000000000000000e+00 0.0000000000000000e+00 0.0000000000000000e+00  0.0000000000000000e+00 0.0000000000000000e+00 0.0000000000000000e+00  0.0000000000000000e+00 0.0000000000000000e+00 0.0000000000000000e+00  0.0000000000000000e+00 0.0000000000000000e+00 0.0000000000000000e+00  0.0000000000000000e+00 0.0000000000000000e+00 0.0000000000000000e+00  0.0000000000000000e+00 0.0000000000000000e+00 0.0000000000000000e+00  0.0000000000000000e+00 0.0000000000000000e+00 0.0000000000000000e+00  0.0000000000000000e+00 0.0000000000000000e+00 0.0000000000000000e+00  1.9018614333589647e+00 -2.8470322849718930e-02 0.0000000000000000e+00  1.5639942459938483e+00 1.5216839821984586e-02 0.0000000000000000e+00  1.8706773958494496e+00 6.6798195182247305e-02 0.0000000000000000e+00  0.0000000000000000e+00 0.0000000000000000e+00 0.0000000000000000e+00  0.0000000000000000e+00 0.0000000000000000e+00 0.0000000000000000e+00  0.0000000000000000e+00 0.0000000000000000e+00 0.0000000000000000e+00  0.0000000000000000e+00 0.0000000000000000e+00 0.0000000000000000e+00  0.0000000000000000e+00 0.0000000000000000e+00 0.0000000000000000e+00  0.0000000000000000e+00 0.0000000000000000e+00 0.0000000000000000e+00  0.0000000000000000e+00 0.0000000000000000e+00 0.0000000000000000e+00  0.0000000000000000e+00 0.0000000000000000e+00 0.0000000000000000e+00  0.0000000000000000e+00 0.0000000000000000e+00 0.0000000000000000e+00  0.0000000000000000e+00 0.0000000000000000e+00 0.0000000000000000e+00  0.0000000000000000e+00 0.0000000000000000e+00 0.0000000000000000e+00  0.0000000000000000e+00 0.0000000000000000e+00 0.0000000000000000e+00  0.0000000000000000e+00 0.0000000000000000e+00 0.0000000000000000e+00  0.0000000000000000e+00 0.0000000000000000e+00 0.0000000000000000e+00  0.0000000000000000e+00 0.0000000000000000e+00 0.0000000000000000e+00  0.0000000000000000e+00 0.0000000000000000e+00 0.0000000000000000e+00  0.0000000000000000e+00 0.0000000000000000e+00 0.0000000000000000e+00  0.0000000000000000e+00 0.0000000000000000e+00 0.0000000000000000e+00  0.0000000000000000e+00 0.0000000000000000e+00 0.0000000000000000e+00  0.0000000000000000e+00 0.0000000000000000e+00 0.0000000000000000e+00  0.0000000000000000e+00 0.0000000000000000e+00 0.0000000000000000e+00  0.0000000000000000e+00 0.0000000000000000e+00 0.0000000000000000e+00  0.0000000000000000e+00 0.0000000000000000e+00 0.0000000000000000e+00  0.0000000000000000e+00 0.0000000000000000e+00 0.0000000000000000e+00  0.0000000000000000e+00 0.0000000000000000e+00 0.0000000000000000e+00  0.0000000000000000e+00 0.0000000000000000e+00 0.0000000000000000e+00  0.0000000000000000e+00 0.0000000000000000e+00 0.0000000000000000e+00  0.0000000000000000e+00 0.0000000000000000e+00 0.0000000000000000e+00  0.0000000000000000e+00 0.0000000000000000e+00 0.0000000000000000e+00  0.0000000000000000e+00 0.0000000000000000e+00 0.0000000000000000e+00  0.0000000000000000e+00 0.0000000000000000e+00 0.0000000000000000e+00  0.0000000000000000e+00 0.0000000000000000e+00 0.0000000000000000e+00  0.0000000000000000e+00 0.0000000000000000e+00 0.0000000000000000e+00  0.0000000000000000e+00 0.0000000000000000e+00 0.0000000000000000e+00  0.0000000000000000e+00 0.0000000000000000e+00 0.0000000000000000e+00  0.0000000000000000e+00 0.0000000000000000e+00 0.0000000000000000e+00  0.0000000000000000e+00 0.0000000000000000e+00 0.0000000000000000e+00  0.0000000000000000e+00 0.0000000000000000e+00 0.0000000000000000e+00  0.0000000000000000e+00 0.0000000000000000e+00 0.0000000000000000e+00  0.0000000000000000e+00 0.0000000000000000e+00 0.0000000000000000e+00  0.0000000000000000e+00 0.0000000000000000e+00 0.0000000000000000e+00  0.0000000000000000e+00 0.0000000000000000e+00 0.0000000000000000e+00  0.0000000000000000e+00 0.0000000000000000e+00 0.0000000000000000e+00  0.0000000000000000e+00 0.0000000000000000e+00 0.0000000000000000e+00  0.0000000000000000e+00 0.0000000000000000e+00 0.0000000000000000e+00  0.0000000000000000e+00 0.0000000000000000e+00 0.0000000000000000e+00  0.0000000000000000e+00 0.0000000000000000e+00 0.0000000000000000e+00  0.0000000000000000e+00 0.0000000000000000e+00 0.0000000000000000e+00  0.0000000000000000e+00 0.0000000000000000e+00 0.0000000000000000e+00  0.0000000000000000e+00 0.0000000000000000e+00 0.0000000000000000e+00  0.0000000000000000e+00 0.0000000000000000e+00 0.0000000000000000e+00  0.0000000000000000e+00 0.0000000000000000e+00 0.0000000000000000e+00  0.0000000000000000e+00 0.0000000000000000e+00 0.0000000000000000e+00  0.0000000000000000e+00 0.0000000000000000e+00 0.0000000000000000e+00  0.0000000000000000e+00 0.0000000000000000e+00 0.0000000000000000e+00  0.0000000000000000e+00 0.0000000000000000e+00 0.0000000000000000e+00  0.0000000000000000e+00 0.0000000000000000e+00 0.0000000000000000e+00  0.0000000000000000e+00 0.0000000000000000e+00 0.0000000000000000e+00  0.0000000000000000e+00 0.0000000000000000e+00 0.0000000000000000e+00  0.0000000000000000e+00 0.0000000000000000e+00 0.0000000000000000e+00  0.0000000000000000e+00 0.0000000000000000e+00 0.0000000000000000e+00  0.0000000000000000e+00 0.0000000000000000e+00 0.0000000000000000e+00  0.0000000000000000e+00 0.0000000000000000e+00 0.0000000000000000e+00  0.0000000000000000e+00 0.0000000000000000e+00 0.0000000000000000e+00  0.0000000000000000e+00 0.0000000000000000e+00 0.0000000000000000e+00  0.0000000000000000e+00 0.0000000000000000e+00 0.0000000000000000e+00  0.0000000000000000e+00 0.0000000000000000e+00 0.0000000000000000e+00  0.0000000000000000e+00 0.0000000000000000e+00 0.0000000000000000e+00  0.0000000000000000e+00 0.0000000000000000e+00 0.0000000000000000e+00  0.0000000000000000e+00 0.0000000000000000e+00 0.0000000000000000e+00  0.0000000000000000e+00 0.0000000000000000e+00 0.0000000000000000e+00  0.0000000000000000e+00 0.0000000000000000e+00 0.0000000000000000e+00  0.0000000000000000e+00 0.0000000000000000e+00 0.0000000000000000e+00  0.0000000000000000e+00 0.0000000000000000e+00 0.0000000000000000e+00  0.0000000000000000e+00 0.0000000000000000e+00 0.0000000000000000e+00  0.0000000000000000e+00 0.0000000000000000e+00 0.0000000000000000e+00  0.0000000000000000e+00 0.0000000000000000e+00 0.0000000000000000e+00  0.0000000000000000e+00 0.0000000000000000e+00 0.0000000000000000e+00  -1.5281409509224323e-05 1.5948081529515991e-05 0.0000000000000000e+00  -3.2469256889677333e-05 3.2962036939643809e-05 0.0000000000000000e+00  -4.7862601938139886e-05 6.0148951928547728e-05 0.0000000000000000e+00  -6.4322464793456651e-05 9.8157275531198106e-05 0.0000000000000000e+00  -7.8217887367062520e-05 1.4514830264598290e-04 0.0000000000000000e+00  -9.3562401677857110e-05 2.0193749550493506e-04 0.0000000000000000e+00  -1.0606856829604049e-04 2.6584329937995625e-04 0.0000000000000000e+00  -1.1807372693505225e-04 3.3900390173024694e-04 0.0000000000000000e+00  -1.3143817298908768e-04 4.1906682584331800e-04 0.0000000000000000e+00  -1.4182080047664083e-04 5.0617961818183671e-04 0.0000000000000000e+00  -1.5392675699233991e-04 6.0014915598474163e-04 0.0000000000000000e+00  -1.6322520306130092e-04 7.0022681880152374e-04 0.0000000000000000e+00  -1.7369224988544193e-04 8.0614184535132347e-04 0.0000000000000000e+00  -1.8214390607263267e-04 9.1664628806093645e-04 0.0000000000000000e+00  -1.9016027386504019e-04 1.0327061030826852e-03 0.0000000000000000e+00  -1.9882142870237036e-04 1.1528380608661901e-03 0.0000000000000000e+00  -2.0556728166728081e-04 1.2770076998354677e-03 0.0000000000000000e+00  -2.1309833758645328e-04 1.4050668062480043e-03 0.0000000000000000e+00  -2.1890457723726695e-04 1.5363746141676181e-03 0.0000000000000000e+00  -2.2525165798257924e-04 1.6707421253955520e-03 0.0000000000000000e+00  -2.3038950163005670e-04 1.8078364310603770e-03 0.0000000000000000e+00  -2.3567038682393947e-04 1.9475321287563629e-03 0.0000000000000000e+00  -2.4001014319293730e-04 2.0890207134198115e-03 0.0000000000000000e+00  -2.4401046596962350e-04 2.2327559715412488e-03 0.0000000000000000e+00  -2.4809816245674915e-04 2.3779598660891321e-03 0.0000000000000000e+00  -2.5149113943690306e-04 2.5247595699109554e-03 0.0000000000000000e+00  -2.5469429068359522e-04 2.6729663859515708e-03 0.0000000000000000e+00  -2.5747146800220969e-04 2.8221770097927043e-03 0.0000000000000000e+00  -2.6005149833323147e-04 2.9725153298685724e-03 0.0000000000000000e+00  -2.6226995149156341e-04 3.1235778874883105e-03 0.0000000000000000e+00  -2.6429611240602770e-04 3.2754913219177851e-03 0.0000000000000000e+00  -2.6600982521715914e-04 3.4278978601513552e-03 0.0000000000000000e+00  -2.6754371146857418e-04 3.5809332596814670e-03 0.0000000000000000e+00  -2.6880511646576845e-04 3.7342748583011343e-03 0.0000000000000000e+00  -2.6988442038791856e-04 3.8880841529514718e-03 0.0000000000000000e+00  -2.7073781628907486e-04 4.0420698304966494e-03 0.0000000000000000e+00  -2.7142659034518779e-04 4.1963824047571621e-03 0.0000000000000000e+00  -2.7191973408893696e-04 4.3507791719136152e-03 0.0000000000000000e+00  -2.7225374074938330e-04 4.5054103379173257e-03 0.0000000000000000e+00  -2.7241293458880888e-04 4.6600674627543873e-03 0.0000000000000000e+00  -2.7241412926317206e-04 4.8148753745072392e-03 0.0000000000000000e+00  -2.7228399342386266e-04 4.9697058844517068e-03 0.0000000000000000e+00  -2.7198902983709280e-04 5.1246211430365490e-03 0.0000000000000000e+00  -2.7161949034976081e-04 5.2795758843044100e-03 0.0000000000000000e+00  -2.7108571654246329e-04 5.4345393910937966e-03 0.0000000000000000e+00  -2.7045529049364104e-04 5.5896171207219193e-03 0.0000000000000000e+00  -1.6544990024513128e-04 5.7440062610025861e-03 0.0000000000000000e+00  4.2430141154716725e-05 5.7419753530959508e-03 0.0000000000000000e+00  1.4531023721260980e-04 5.5858216211040999e-03 0.0000000000000000e+00  1.4454162391436983e-04 5.4304575762383744e-03 0.0000000000000000e+00  1.4386661245931591e-04 5.2750840303343611e-03 0.0000000000000000e+00  1.4330859339490220e-04 5.1198054027164807e-03 0.0000000000000000e+00  1.4284171304501008e-04 4.9645718372890706e-03 0.0000000000000000e+00  1.4251590401452308e-04 4.8094153047256892e-03 0.0000000000000000e+00  1.4224107668938624e-04 4.6543413011819502e-03 0.0000000000000000e+00  1.4211364574285808e-04 4.4993269313102361e-03 0.0000000000000000e+00  1.4202170384199772e-04 4.3444870253517209e-03 0.0000000000000000e+00  1.4206347249553242e-04 4.1897369357315663e-03 0.0000000000000000e+00  1.4209413209356837e-04 4.0352292381823952e-03 0.0000000000000000e+00  1.4226606325075031e-04 3.8809061041890063e-03 0.0000000000000000e+00  1.4236445688681131e-04 3.7269278635770203e-03 0.0000000000000000e+00  1.4261025973728411e-04 3.5732701962744285e-03 0.0000000000000000e+00  1.4269657126148624e-04 3.4200856327879278e-03 0.0000000000000000e+00  1.4295590740115246e-04 3.2673970583123558e-03 0.0000000000000000e+00  1.4295418507584971e-04 3.1153566182721823e-03 0.0000000000000000e+00  1.4316011275194876e-04 2.9640375432723534e-03 0.0000000000000000e+00  1.4297776283456450e-04 2.8135965364409037e-03 0.0000000000000000e+00  1.4305077365397610e-04 2.6641570828431927e-03 0.0000000000000000e+00  1.4257082231364219e-04 2.5158788879259078e-03 0.0000000000000000e+00  1.4240928038331577e-04 2.3689493956294862e-03 0.0000000000000000e+00  1.4155735119472036e-04 2.2235589794887150e-03 0.0000000000000000e+00  1.4095609928867813e-04 2.0797361632761847e-03 0.0000000000000000e+00  1.4017911027937991e-04 1.9381769283750756e-03 0.0000000000000000e+00  1.3863860986629615e-04 1.7983473281471785e-03 0.0000000000000000e+00  1.3720076510813513e-04 1.6612674155846985e-03 0.0000000000000000e+00  1.3510190094085362e-04 1.5267271958487759e-03 0.0000000000000000e+00  1.3297470431245726e-04 1.3954141616223550e-03 0.0000000000000000e+00  1.3011933841612267e-04 1.2673065079626309e-03 0.0000000000000000e+00  1.2721754377219399e-04 1.1429233311405981e-03 0.0000000000000000e+00  1.2300772996912549e-04 1.0230332948687616e-03 0.0000000000000000e+00  1.1943924419865347e-04 9.0687909191492660e-04 0.0000000000000000e+00  1.1547366469419637e-04 7.9642577503932831e-04 0.0000000000000000e+00  1.0982719854869764e-04 6.9012041615408245e-04 0.0000000000000000e+00  1.0444341816568164e-04 5.9023616992480280e-04 0.0000000000000000e+00  9.7867868123691467e-05 4.9618747300738493e-04 0.0000000000000000e+00  9.1395805947763268e-05 4.0875768118399093e-04 0.0000000000000000e+00  8.2880604411017200e-05 3.2908804829928694e-04 0.0000000000000000e+00  7.5587951822432957e-05 2.5576401642790809e-04 0.0000000000000000e+00  6.7833966935320806e-05 1.9183355334877533e-04 0.0000000000000000e+00  5.7457906531650083e-05 1.3473176176098699e-04 0.0000000000000000e+00  4.7966413327548756e-05 8.7490834080533201e-05 0.0000000000000000e+00  3.6081782312905031e-05 4.9885477457214486e-05 0.0000000000000000e+00  2.5384262007320797e-05 2.2700071343137808e-05 0.0000000000000000e+00  1.2019951361989740e-05 6.2512928015386505e-06 0.0000000000000000e+00  -1.9484182098750593e-06 1.1879804420232031e-05 0.0000000000000000e+00  -6.5384473564419107e-05 5.5097395228879244e-03 0.0000000000000000e+00  -6.8260577121130521e-05 5.2131884290252074e-03 0.0000000000000000e+00  -6.7284886320457052e-05 4.7290908421829146e-03 0.0000000000000000e+00  -6.8570725271146238e-06 6.6181086470517414e-05 0.0000000000000000e+00  -6.4919779245160036e-05 4.4248838217729762e-03 0.0000000000000000e+00  -1.0530077918552718e-05 1.5661677981498111e-04 0.0000000000000000e+00  -6.4412253351663710e-05 4.1156750721315057e-03 0.0000000000000000e+00  -1.7364509265192047e-05 3.7144217848580772e-04 0.0000000000000000e+00  -2.3359211768082844e-05 5.4325883675130889e-04 0.0000000000000000e+00  -6.3424967040913433e-05 3.8072815415402940e-03 0.0000000000000000e+00  -3.2560557605881553e-05 1.0894785926518922e-03 0.0000000000000000e+00  -6.0081032402368430e-05 3.1949072959439251e-03 0.0000000000000000e+00  -2.5944340914894450e-05 7.3513955522543930e-04 0.0000000000000000e+00  -3.8886935338661341e-05 1.3334351626559608e-03 0.0000000000000000e+00  -5.7769387524803800e-05 2.8923362018595704e-03 0.0000000000000000e+00  -6.1974583706332956e-05 3.5001547659993157e-03 0.0000000000000000e+00  -4.2956854229524315e-05 1.5964870228931394e-03 0.0000000000000000e+00  -5.5057527643319490e-05 2.5934572344171679e-03 0.0000000000000000e+00  -4.4206577218598822e-05 1.8597038201111115e-03 0.0000000000000000e+00  -5.4540379588422844e-05 2.3055728111575908e-03 0.0000000000000000e+00  -4.9251475625634269e-05 2.0717175943103629e-03 0.0000000000000000e+00  -3.1393419208794003e-05 8.9951476642919075e-04 0.0000000000000000e+00  -6.4188704489323597e-05 4.9806689734704654e-03 0.0000000000000000e+00  -1.4915757098082808e-05 2.5131635061286976e-04 0.0000000000000000e+00  6.0644802896702530e-06 5.3596491396835817e-03 0.0000000000000000e+00  8.3859781158191928e-06 3.2590387409391674e-05 0.0000000000000000e+00  -4.5674974996259652e-06 4.2692781624934463e-03 0.0000000000000000e+00  -4.7177616282139166e-06 4.5788445508969829e-03 0.0000000000000000e+00  -3.0958100536829008e-05 1.1143922840410357e-04 0.0000000000000000e+00  -5.4733090158762603e-05 4.5435916576809277e-04 0.0000000000000000e+00  -1.7647588077430660e-06 3.3461520510846554e-03 0.0000000000000000e+00  -3.9990240564044051e-06 3.9603603817157610e-03 0.0000000000000000e+00  -8.4908690863350178e-05 1.2087725836854217e-03 0.0000000000000000e+00  -2.0984495068790845e-07 3.0420925956435008e-03 0.0000000000000000e+00  -6.4124446495668385e-05 6.4254632989154596e-04 0.0000000000000000e+00  -9.1790968610662909e-05 1.4650756188844415e-03 0.0000000000000000e+00  1.5555560920474507e-06 2.7412012903209929e-03 0.0000000000000000e+00  -3.0466617926482012e-06 3.6524740751537089e-03 0.0000000000000000e+00  -1.0965162438782433e-04 1.7329208063484023e-03 0.0000000000000000e+00  3.4787198908868496e-06 2.4446017098785884e-03 0.0000000000000000e+00  -2.6993263351153799e-06 3.7509392524155464e-06 0.0000000000000000e+00  1.8450572652328000e-06 1.2699544729720132e-06 0.0000000000000000e+00  -1.1259581216943785e-04 5.6322849403352363e-03 0.0000000000000000e+00  -1.8637218731893991e-05 3.6743061218975754e-05 0.0000000000000000e+00  1.8358268668101902e-05 2.1856534085979984e-03 0.0000000000