<?xml version="1.0"?>
<VTKFile type="UnstructuredGrid"  version="0.1"  >
<UnstructuredGrid>
<Piece  NumberOfPoints="1419" NumberOfCells="2698">
<Points>
<DataArray  type="Float64"  NumberOfComponents="3"  format="ascii">0 0 0  0 0.41 0  2.5 0 0  2.5 0.41 0  0.6 0.19 0  0.6 0.21 0  0.25 0.2 0  0.15 0.2 0  0.2489897948556636 0.21 0  0.2489897948556636 0.19 0  0.6 0.2 0  0 0.3807142857143437 0  0 0.3514285714286952 0  0 0.3221428571430699 0  0 0.29285714285744 0  0 0.2635714285718054 0  0 0.2342857142861561 0  0 0.2050000000005308 0  0 0.175714285714732 0  0 0.1464285714289574 0  0 0.1171428571431897 0  0 0.08785714285737878 0  0 0.05857142857161107 0  0 0.02928571428580012 0  0.03015443760436003 0 0  0.06140001986583606 0 0  0.09377624077125973 0 0  0.1273239957535082 0 0  0.1620856860351972 0 0  0.1981052433264291 0 0  0.235428184091502 0 0  0.2741016576309132 0 0  0.3141745521465447 0 0  0.3556974926295285 0 0  0.3987229542472677 0 0  0.4433053055141081 0 0  0.4895008759286886 0 0  0.5373680609405097 0 0  0.5869673343216626 0 0  0.6383613676634521 0 0  0.6916151138468254 0 0  0.7467958595648856 0 0  0.8039733463919316 0 0  0.8632198139502143 0 0  0.9246101326867038 0 0  0.9882218810934433 0 0  1.054135445558498 0 0  1.122434100542598 0 0  1.193204177141305 0 0  1.266535089879536 0 0  1.342519516046404 0 0  1.421253448503939 0 0  1.502836389106271 0 0  1.587371439758838 0 0  1.674965418777374 0 0  1.765729001825544 0 0  1.859776908880082 0 0  1.957227977487062 0 0  2.058205329869943 0 0  2.162836591189951 0 0  2.271253957290865 0 0  2.383594446803425 0 0  2.5 0.1024999999997612 0  2.5 0.2049999999994743 0  2.5 0.3074999999997183 0  2.383594446803656 0.41 0  2.271253957291315 0.41 0  2.162836591190598 0.41 0  2.058205329870775 0.41 0  1.957227977488067 0.41 0  1.859776908881246 0.41 0  1.765729001826854 0.41 0  1.674965418778818 0.41 0  1.58737143976041 0.41 0  1.502836389107956 0.41 0  1.421253448505726 0.41 0  1.342519516048286 0.41 0  1.266535089881505 0.41 0  1.193204177143353 0.41 0  1.122434100544716 0.41 0  1.05413544556068 0.41 0  0.9882218810956305 0.41 0  0.9246101326886647 0.41 0  0.8632198139519631 0.41 0  0.8039733463934788 0.41 0  0.7467958595662458 0.41 0  0.6916151138480078 0.41 0  0.6383613676644679 0.41 0  0.5869673343225223 0.41 0  0.5373680609412221 0.41 0  0.4895008759292634 0.41 0  0.4433053055145528 0.41 0  0.3987229542475914 0.41 0  0.3556974926297398 0.41 0  0.3141745521466497 0.41 0  0.2741016576310038 0.41 0  0.2354281840915826 0.41 0  0.1981052433265003 0.41 0  0.1620856860352591 0.41 0  0.1273239957535623 0.41 0  0.09377624077128965 0.41 0  0.06140001986584975 0.41 0  0.03015443760436654 0.41 0  0.2497468076502589 0.2050254481002335 0  0.2497468076502614 0.1949745518997913 0  0.2469965252529372 0.1829317073451959 0  0.2439893735792749 0.1762316384219906 0  0.2400332147834255 0.1700443375285386 0  0.2352133972704371 0.1645032867342007 0  0.2296339016332438 0.1597280261969788 0  0.2234150974217223 0.1558215752574715 0  0.2166911463437691 0.1528682099456123 0  0.2096071079204251 0.1509316448471593 0  0.2023158100364996 0.1500536585536553 0  0.194974551899914 0.1502531923497262 0  0.1877417105387872 0.1515259415822739 0  0.1807733240461124 0.153844448527136 0  0.1742197252835808 0.15715869474974 0  0.1682222986673531 0.1613971801805478 0  0.162910430003803 0.1664684656256651 0  0.1583987151779087 0.1722631454351573 0  0.1547844879126891 0.178656207771761 0  0.1521457199348551 0.1855097315605723 0  0.1505393388476355 0.1926758619366523 0  0.1505393388476328 0.2073241380633295 0  0.1521457199348437 0.2144902684393899 0  0.1547844879126531 0.221343792228163 0  0.1583987151778488 0.2277368545647528 0  0.1629104300036858 0.2335315343742052 0  0.1682222986671726 0.2386028198193036 0  0.1742197252833576 0.2428413052501257 0  0.1807733240458683 0.2461555514727623 0  0.1877417105384929 0.2484740584176516 0  0.1949745518995776 0.2497468076502398 0  0.202315810036185 0.2499463414463592 0  0.2096071079201568 0.2490683551528932 0  0.2166911463435495 0.2471317900544655 0  0.2234150974215506 0.2441784247426195 0  0.2296339016331197 0.2402719738031125 0  0.2352133972703547 0.2354967132658811 0  0.2400332147833751 0.2299556624715287 0  0.2439893735792577 0.2237683615780412 0  0.246996525252926 0.2170682926548348 0  0.25645809709277 0.21 0  0.2639263993298655 0.21 0  0.271394701566961 0.21 0  0.2788630038040554 0.21 0  0.2863313060411479 0.21 0  0.2937996082782405 0.21 0  0.301267910515333 0.21 0  0.3087362127524279 0.21 0  0.3162045149895234 0.21 0  0.3236728172265972 0.21 0  0.3311411194636928 0.21 0  0.3386094217007701 0.21 0  0.3460777239378666 0.21 0  0.3535460261749672 0.21 0  0.3610143284120516 0.21 0  0.3684826306491596 0.21 0  0.3759509328862226 0.21 0  0.383419235123329 0.21 0  0.3908875373604028 0.21 0  0.3983558395975142 0.21 0  0.4058241418345938 0.21 0  0.4132924440716992 0.21 0  0.4207607463087888 0.21 0  0.4282290485459029 0.21 0  0.4356973507830418 0.21 0  0.4431656530201649 0.21 0  0.4506339552573136 0.21 0  0.4581022574944306 0.21 0  0.4655705597315852 0.21 0  0.4730388619686996 0.21 0  0.480507164205851 0.21 0  0.4879754664429498 0.21 0  0.4954437686800938 0.21 0  0.502912070917267 0.21 0  0.5103803731544119 0.21 0  0.5178486753915261 0.21 0  0.5253169776286404 0.21 0  0.5327852798657868 0.21 0  0.5402535821029386 0.21 0  0.54772188434007 0.21 0  0.5551901865771842 0.21 0  0.5626584888143201 0.21 0  0.5701267910514778 0.21 0  0.5775950932886138 0.21 0  0.5850633955257281 0.21 0  0.5925316977628483 0.21 0  0.6 0.2050000000000054 0  0.6 0.1950000000000217 0  0.5925316977628897 0.19 0  0.5850633955257988 0.19 0  0.5775950932887378 0.19 0  0.5701267910515998 0.19 0  0.5626584888145268 0.19 0  0.5551901865773963 0.19 0  0.547721884340339 0.19 0  0.5402535821032429 0.19 0  0.5327852798661811 0.19 0  0.5253169776290537 0.19 0  0.5178486753919799 0.19 0  0.5103803731549078 0.19 0  0.502912070917822 0.19 0  0.4954437686807294 0.19 0  0.4879754664436223 0.19 0  0.4805071642065402 0.19 0  0.4730388619694271 0.19 0  0.4655705597323621 0.19 0  0.4581022574952563 0.19 0  0.4506339552581777 0.19 0  0.4431656530210671 0.19 0  0.4356973507839815 0.19 0  0.4282290485468779 0.19 0  0.4207607463097617 0.19 0  0.4132924440726327 0.19 0  0.4058241418354857 0.19 0  0.3983558395983636 0.19 0  0.3908875373612097 0.19 0  0.3834192351240934 0.19 0  0.3759509328869369 0.19 0  0.3684826306498175 0.19 0  0.361014328412667 0.19 0  0.3535460261755617 0.19 0  0.3460777239384295 0.19 0  0.3386094217012945 0.19 0  0.3311411194641595 0.19 0  0.3236728172270245 0.19 0  0.3162045149898895 0.19 0  0.3087362127527544 0.19 0  0.3012679105156187 0.19 0  0.2937996082784807 0.19 0  0.2863313060413428 0.19 0  0.2788630038042048 0.19 0  0.2713947015670686 0.19 0  0.2639263993299336 0.19 0  0.2564580970927985 0.19 0  0.2607803159922026 0.2000727136295815 0  0.5887803774232762 0.2001272386983733 0  0.5745072403740523 0.2002044435018727 0  0.5511891430099709 0.2001122610077113 0  0.2751288526855082 0.20000000000002 0  0.5365194309847112 0.1999999999999436 0  0.2894621222999649 0.1998691686390484 0  0.5215828265105155 0.1999999999999228 0  0.3127789816668748 0.1998657885438805 0  0.3274069683451451 0.2000000000000796 0  0.5066462220363641 0.199999999999908 0  0.3650630746574081 0.199866017807523 0  0.476773013087985 0.1999999999998713 0  0.3417402379596385 0.1998691686391011 0  0.3796850840047755 0.200000000000134 0  0.4618364086138087 0.1999999999998546 0  0.4917096175621762 0.1999999999998808 0  0.3946216884789568 0.2000000000001512 0  0.446899804139621 0.1999999999998389 0  0.4089549580935208 0.1998691686391595 0  0.4322718174608562 0.200127451265745 0  0.4201487168029707 0.1999966199048527 0  0.3528922713220932 0.2000185703532356 0  0.5633122436674589 0.1999814296467508 0  0.3006558810093873 0.1999966199048318 0  0.5815926498168407 0.1966545283159175 0  0.2677053789419034 0.1964246479135325 0  0.5290511287476175 0.1970915826863981 0  0.5439877332217911 0.197091582686394 0  0.2825131256993216 0.2035478995978015 0  0.3199386661080599 0.202908417313604 0  0.4842413153250809 0.1970915826863873 0  0.5141145242734466 0.1970915826863843 0  0.3722167817676917 0.2029084173136195 0  0.4693047108508938 0.1970915826863783 0  0.3348752705822316 0.202908417313609 0  0.3871533862418661 0.2029084173136212 0  0.4543681063767183 0.1970915826863795 0  0.4991779197992749 0.1970915826863902 0  0.4020059614928624 0.203547899597858 0  0.4394315019025246 0.1970915826863714 0  0.2550657455369551 0.2034088125358657 0  0.2548908499171161 0.1966940311614271 0  0.5946539510196798 0.2024302972968126 0  0.267698176732111 0.2039977513680092 0  0.4261685417851465 0.196409292431739 0  0.3590076176283495 0.196411355804271 0  0.5571672426447437 0.2036011176410121 0  0.3066757059912147 0.1964092924317024 0  0.594380730180568 0.1966558399668133 0  0.4842413153245942 0.2040749161535287 0  0.4693047108503577 0.2040749161535231 0  0.3871533862424271 0.1959250838464788 0  0.372246743208829 0.1959123236376545 0  0.5141145242731028 0.2040749161535395 0  0.4543681063761134 0.2040749161535186 0  0.4019979587101454 0.1959834479682427 0  0.4394608940728603 0.2040870543693135 0  0.5439623148931173 0.2040856076781014 0  0.5290511287473298 0.2040749161535501 0  0.4991779197988497 0.2040749161535382 0  0.3347912413592433 0.1959225448935183 0  0.3199680582793816 0.1959123018030061 0  0.2825051229162361 0.1959834479681729 0  0.3590471196690275 0.2036304442587945 0  0.5571594006495384 0.1963685282145804 0  0.3067669986803285 0.203627750582736 0  0.4262598344738712 0.2036568242185335 0  0.5814408164431408 0.2041285596160068 0  0.5688286748170428 0.1961819304477386 0  0.4145905603063645 0.2038180695522843 0  0.3473758401724931 0.2038180695522752 0  0.2950977245128307 0.2038180695522663 0  0.5688286748170693 0.203818069552238 0  0.2950977245127906 0.1961819304477774 0  0.3473758401723931 0.1961819304478349 0  0.4145905603061963 0.1961819304479011 0  0.2601812407614425 0.2056861609747042
[...]
<PointData  Vectors="f_40-0"> 
<DataArray  type="Float64"  Name="f_40-0"  NumberOfComponents="3" format="ascii">0.0000000000000000e+00 0.0000000000000000e+00 0.0000000000000000e+00  0.0000000000000000e+00 0.0000000000000000e+00 0.0000000000000000e+00  0.0000000000000000e+00 0.0000000000000000e+00 0.0000000000000000e+00  0.0000000000000000e+00 0.0000000000000000e+00 0.0000000000000000e+00  -3.3928029783475116e-05 -7.1484880834933389e-05 0.0000000000000000e+00  -2.7628252767009181e-05 -7.7308383089838483e-05 0.0000000000000000e+00  0.0000000000000000e+00 0.0000000000000000e+00 0.0000000000000000e+00  0.0000000000000000e+00 0.0000000000000000e+00 0.0000000000000000e+00  0.0000000000000000e+00 0.0000000000000000e+00 0.0000000000000000e+00  0.0000000000000000e+00 0.0000000000000000e+00 0.0000000000000000e+00  -3.1068236586633457e-05 -7.4395713389349000e-05 0.0000000000000000e+00  1.0720101325134632e-02 0.0000000000000000e+00 0.0000000000000000e+00  1.9790956292557556e-02 0.0000000000000000e+00 0.0000000000000000e+00  2.7212564902266645e-02 0.0000000000000000e+00 0.0000000000000000e+00  3.2984927154270489e-02 0.0000000000000000e+00 0.0000000000000000e+00  3.7108043048568337e-02 0.0000000000000000e+00 0.0000000000000000e+00  3.9581912585159952e-02 0.0000000000000000e+00 0.0000000000000000e+00  4.0406535764042850e-02 0.0000000000000000e+00 0.0000000000000000e+00  3.9581912585209968e-02 0.0000000000000000e+00 0.0000000000000000e+00  3.7108043048654255e-02 0.0000000000000000e+00 0.0000000000000000e+00  3.2984927154376883e-02 0.0000000000000000e+00 0.0000000000000000e+00  2.7212564902367720e-02 0.0000000000000000e+00 0.0000000000000000e+00  1.9790956292643807e-02 0.0000000000000000e+00 0.0000000000000000e+00  1.0720101325183229e-02 0.0000000000000000e+00 0.0000000000000000e+00  0.0000000000000000e+00 0.0000000000000000e+00 0.0000000000000000e+00  0.0000000000000000e+00 0.0000000000000000e+00 0.0000000000000000e+00  0.0000000000000000e+00 0.0000000000000000e+00 0.0000000000000000e+00  0.0000000000000000e+00 0.0000000000000000e+00 0.0000000000000000e+00  0.0000000000000000e+00 0.0000000000000000e+00 0.0000000000000000e+00  0.0000000000000000e+00 0.0000000000000000e+00 0.0000000000000000e+00  0.0000000000000000e+00 0.0000000000000000e+00 0.0000000000000000e+00  0.0000000000000000e+00 0.0000000000000000e+00 0.0000000000000000e+00  0.0000000000000000e+00 0.0000000000000000e+00 0.0000000000000000e+00  0.0000000000000000e+00 0.0000000000000000e+00 0.0000000000000000e+00  0.0000000000000000e+00 0.0000000000000000e+00 0.0000000000000000e+00  0.0000000000000000e+00 0.0000000000000000e+00 0.0000000000000000e+00  0.0000000000000000e+00 0.0000000000000000e+00 0.0000000000000000e+00  0.0000000000000000e+00 0.0000000000000000e+00 0.0000000000000000e+00  0.0000000000000000e+00 0.0000000000000000e+00 0.0000000000000000e+00  0.0000000000000000e+00 0.0000000000000000e+00 0.0000000000000000e+00  0.0000000000000000e+00 0.0000000000000000e+00 0.0000000000000000e+00  0.0000000000000000e+00 0.0000000000000000e+00 0.0000000000000000e+00  0.0000000000000000e+00 0.0000000000000000e+00 0.0000000000000000e+00  0.0000000000000000e+00 0.0000000000000000e+00 0.0000000000000000e+00  0.0000000000000000e+00 0.0000000000000000e+00 0.0000000000000000e+00  0.0000000000000000e+00 0.0000000000000000e+00 0.0000000000000000e+00  0.0000000000000000e+00 0.0000000000000000e+00 0.0000000000000000e+00  0.0000000000000000e+00 0.0000000000000000e+00 0.0000000000000000e+00  0.0000000000000000e+00 0.0000000000000000e+00 0.0000000000000000e+00  0.0000000000000000e+00 0.0000000000000000e+00 0.0000000000000000e+00  0.0000000000000000e+00 0.0000000000000000e+00 0.0000000000000000e+00  0.0000000000000000e+00 0.0000000000000000e+00 0.0000000000000000e+00  0.0000000000000000e+00 0.0000000000000000e+00 0.0000000000000000e+00  0.0000000000000000e+00 0.0000000000000000e+00 0.0000000000000000e+00  0.0000000000000000e+00 0.0000000000000000e+00 0.0000000000000000e+00  0.0000000000000000e+00 0.0000000000000000e+00 0.0000000000000000e+00  0.0000000000000000e+00 0.0000000000000000e+00 0.0000000000000000e+00  0.0000000000000000e+00 0.0000000000000000e+00 0.0000000000000000e+00  0.0000000000000000e+00 0.0000000000000000e+00 0.0000000000000000e+00  0.0000000000000000e+00 0.0000000000000000e+00 0.0000000000000000e+00  0.0000000000000000e+00 0.0000000000000000e+00 0.0000000000000000e+00  0.0000000000000000e+00 0.0000000000000000e+00 0.0000000000000000e+00  2.8609490294426755e-02 4.1714182010345671e-04 0.0000000000000000e+00  2.4182108999405108e-02 -1.0683143057930106e-04 0.0000000000000000e+00  2.8259703800362475e-02 -4.3364094904218170e-04 0.0000000000000000e+00  0.0000000000000000e+00 0.0000000000000000e+00 0.0000000000000000e+00  0.0000000000000000e+00 0.0000000000000000e+00 0.0000000000000000e+00  0.0000000000000000e+00 0.0000000000000000e+00 0.0000000000000000e+00  0.0000000000000000e+00 0.0000000000000000e+00 0.0000000000000000e+00  0.0000000000000000e+00 0.0000000000000000e+00 0.0000000000000000e+00  0.0000000000000000e+00 0.0000000000000000e+00 0.0000000000000000e+00  0.0000000000000000e+00 0.0000000000000000e+00 0.0000000000000000e+00  0.0000000000000000e+00 0.0000000000000000e+00 0.0000000000000000e+00  0.0000000000000000e+00 0.0000000000000000e+00 0.0000000000000000e+00  0.0000000000000000e+00 0.0000000000000000e+00 0.0000000000000000e+00  0.0000000000000000e+00 0.0000000000000000e+00 0.0000000000000000e+00  0.0000000000000000e+00 0.0000000000000000e+00 0.0000000000000000e+00  0.0000000000000000e+00 0.0000000000000000e+00 0.0000000000000000e+00  0.0000000000000000e+00 0.0000000000000000e+00 0.0000000000000000e+00  0.0000000000000000e+00 0.0000000000000000e+00 0.0000000000000000e+00  0.0000000000000000e+00 0.0000000000000000e+00 0.0000000000000000e+00  0.0000000000000000e+00 0.0000000000000000e+00 0.0000000000000000e+00  0.0000000000000000e+00 0.0000000000000000e+00 0.0000000000000000e+00  0.0000000000000000e+00 0.0000000000000000e+00 0.0000000000000000e+00  0.0000000000000000e+00 0.0000000000000000e+00 0.0000000000000000e+00  0.0000000000000000e+00 0.0000000000000000e+00 0.0000000000000000e+00  0.0000000000000000e+00 0.0000000000000000e+00 0.0000000000000000e+00  0.0000000000000000e+00 0.0000000000000000e+00 0.0000000000000000e+00  0.0000000000000000e+00 0.0000000000000000e+00 0.0000000000000000e+00  0.0000000000000000e+00 0.0000000000000000e+00 0.0000000000000000e+00  0.0000000000000000e+00 0.0000000000000000e+00 0.0000000000000000e+00  0.0000000000000000e+00 0.0000000000000000e+00 0.0000000000000000e+00  0.0000000000000000e+00 0.0000000000000000e+00 0.0000000000000000e+00  0.0000000000000000e+00 0.0000000000000000e+00 0.0000000000000000e+00  0.0000000000000000e+00 0.0000000000000000e+00 0.0000000000000000e+00  0.0000000000000000e+00 0.0000000000000000e+00 0.0000000000000000e+00  0.0000000000000000e+00 0.0000000000000000e+00 0.0000000000000000e+00  0.0000000000000000e+00 0.0000000000000000e+00 0.0000000000000000e+00  0.0000000000000000e+00 0.0000000000000000e+00 0.0000000000000000e+00  0.0000000000000000e+00 0.0000000000000000e+00 0.0000000000000000e+00  0.0000000000000000e+00 0.0000000000000000e+00 0.0000000000000000e+00  0.0000000000000000e+00 0.0000000000000000e+00 0.0000000000000000e+00  0.0000000000000000e+00 0.0000000000000000e+00 0.0000000000000000e+00  0.0000000000000000e+00 0.0000000000000000e+00 0.0000000000000000e+00  0.0000000000000000e+00 0.0000000000000000e+00 0.0000000000000000e+00  0.0000000000000000e+00 0.0000000000000000e+00 0.0000000000000000e+00  0.0000000000000000e+00 0.0000000000000000e+00 0.0000000000000000e+00  0.0000000000000000e+00 0.0000000000000000e+00 0.0000000000000000e+00  0.0000000000000000e+00 0.0000000000000000e+00 0.0000000000000000e+00  0.0000000000000000e+00 0.0000000000000000e+00 0.0000000000000000e+00  0.0000000000000000e+00 0.0000000000000000e+00 0.0000000000000000e+00  0.0000000000000000e+00 0.0000000000000000e+00 0.0000000000000000e+00  0.0000000000000000e+00 0.0000000000000000e+00 0.0000000000000000e+00  0.0000000000000000e+00 0.0000000000000000e+00 0.0000000000000000e+00  0.0000000000000000e+00 0.0000000000000000e+00 0.0000000000000000e+00  0.0000000000000000e+00 0.0000000000000000e+00 0.0000000000000000e+00  0.0000000000000000e+00 0.0000000000000000e+00 0.0000000000000000e+00  0.0000000000000000e+00 0.0000000000000000e+00 0.0000000000000000e+00  0.0000000000000000e+00 0.0000000000000000e+00 0.0000000000000000e+00  0.0000000000000000e+00 0.0000000000000000e+00 0.0000000000000000e+00  0.0000000000000000e+00 0.0000000000000000e+00 0.0000000000000000e+00  0.0000000000000000e+00 0.0000000000000000e+00 0.0000000000000000e+00  0.0000000000000000e+00 0.0000000000000000e+00 0.0000000000000000e+00  0.0000000000000000e+00 0.0000000000000000e+00 0.0000000000000000e+00  0.0000000000000000e+00 0.0000000000000000e+00 0.0000000000000000e+00  0.0000000000000000e+00 0.0000000000000000e+00 0.0000000000000000e+00  0.0000000000000000e+00 0.0000000000000000e+00 0.0000000000000000e+00  0.0000000000000000e+00 0.0000000000000000e+00 0.0000000000000000e+00  0.0000000000000000e+00 0.0000000000000000e+00 0.0000000000000000e+00  0.0000000000000000e+00 0.0000000000000000e+00 0.0000000000000000e+00  0.0000000000000000e+00 0.0000000000000000e+00 0.0000000000000000e+00  0.0000000000000000e+00 0.0000000000000000e+00 0.0000000000000000e+00  0.0000000000000000e+00 0.0000000000000000e+00 0.0000000000000000e+00  0.0000000000000000e+00 0.0000000000000000e+00 0.0000000000000000e+00  0.0000000000000000e+00 0.0000000000000000e+00 0.0000000000000000e+00  0.0000000000000000e+00 0.0000000000000000e+00 0.0000000000000000e+00  0.0000000000000000e+00 0.0000000000000000e+00 0.0000000000000000e+00  0.0000000000000000e+00 0.0000000000000000e+00 0.0000000000000000e+00  0.0000000000000000e+00 0.0000000000000000e+00 0.0000000000000000e+00  0.0000000000000000e+00 0.0000000000000000e+00 0.0000000000000000e+00  0.0000000000000000e+00 0.0000000000000000e+00 0.0000000000000000e+00  0.0000000000000000e+00 0.0000000000000000e+00 0.0000000000000000e+00  0.0000000000000000e+00 0.0000000000000000e+00 0.0000000000000000e+00  -1.5639777827975278e-07 -5.0537958916138145e-06 0.0000000000000000e+00  -1.6106579824223141e-07 -5.5506823675120384e-06 0.0000000000000000e+00  6.7650795155501696e-08 -5.8538311634080321e-06 0.0000000000000000e+00  4.2064241431053595e-07 -6.0942871241521870e-06 0.0000000000000000e+00  7.7974641318587994e-07 -6.4163512034364619e-06 0.0000000000000000e+00  1.1103401715833994e-06 -6.8796187166252737e-06 0.0000000000000000e+00  1.3866982365143241e-06 -7.4131176379380946e-06 0.0000000000000000e+00  1.6115408595861326e-06 -8.0461569558827701e-06 0.0000000000000000e+00  1.8250373364248950e-06 -8.7634024328738383e-06 0.0000000000000000e+00  1.9592324449499777e-06 -9.5502992152113543e-06 0.0000000000000000e+00  2.0773714811795761e-06 -1.0445869244819992e-05 0.0000000000000000e+00  2.1189171464648317e-06 -1.1398205866114996e-05 0.0000000000000000e+00  2.1314621634661531e-06 -1.2444345124816729e-05 0.0000000000000000e+00  2.0845944306276906e-06 -1.3558056447308075e-05 0.0000000000000000e+00  1.9805151144810045e-06 -1.4751065243178657e-05 0.0000000000000000e+00  1.8573857596041809e-06 -1.6020519302891381e-05 0.0000000000000000e+00  1.6552197423445413e-06 -1.7337914734634725e-05 0.0000000000000000e+00  1.4261281849746323e-06 -1.8753525546939675e-05 0.0000000000000000e+00  1.1239205829613204e-06 -2.0201624051898236e-05 0.0000000000000000e+00  7.9254265537051389e-07 -2.1741630772232715e-05 0.0000000000000000e+00  3.9385439742607860e-07 -2.3313123727292773e-05 0.0000000000000000e+00  -4.9231817190007944e-08 -2.4960647220917351e-05 0.0000000000000000e+00  -5.4358508698745426e-07 -2.6653055536751620e-05 0.0000000000000000e+00  -1.0967931819249150e-06 -2.8398679910457940e-05 0.0000000000000000e+00  -1.6767934590763510e-06 -3.0198301749318777e-05 0.0000000000000000e+00  -2.3256914733363021e-06 -3.2024958236340018e-05 0.0000000000000000e+00  -3.0225026725581204e-06 -3.3927986751428460e-05 0.0000000000000000e+00  -3.7739074051181294e-06 -3.5837774087880746e-05 0.0000000000000000e+00  -4.5735524492304450e-06 -3.7817628305067039e-05 0.0000000000000000e+00  -5.4266273298659576e-06 -3.9803515359821114e-05 0.0000000000000000e+00  -6.3281069159136642e-06 -4.1852677401709967e-05 0.0000000000000000e+00  -7.2840548516073041e-06 -4.3902679418008284e-05 0.0000000000000000e+00  -8.2867573222882495e-06 -4.6012651459677794e-05 0.0000000000000000e+00  -9.3451119016348897e-06 -4.8114679236166756e-05 0.0000000000000000e+00  -1.0454476205770934e-05 -5.0275281738020862e-05 0.0000000000000000e+00  -1.1615999954357693e-05 -5.2425430034224099e-05 0.0000000000000000e+00  -1.2826244254866808e-05 -5.4626465758038089e-05 0.0000000000000000e+00  -1.4089247799327925e-05 -5.6814229020879947e-05 0.0000000000000000e+00  -1.5403685073560328e-05 -5.9048152014860973e-05 0.0000000000000000e+00  -1.6773067616683103e-05 -6.1265058703395949e-05 0.0000000000000000e+00  -1.8200423896023279e-05 -6.3513143934788553e-05 0.0000000000000000e+00  -1.9669107785577011e-05 -6.5758437296186353e-05 0.0000000000000000e+00  -2.1200716600795647e-05 -6.8016556833545155e-05 0.0000000000000000e+00  -2.2762402267864300e-05 -7.0278427105921872e-05 0.0000000000000000e+00  -2.4384894146350659e-05 -7.2528288014167631e-05 0.0000000000000000e+00  -2.6027851701345501e-05 -7.4821968837776438e-05 0.0000000000000000e+00  -2.9454712460174769e-05 -7.5851633020107824e-05 0.0000000000000000e+00  -3.2590122344653165e-05 -7.2943274133993455e-05 0.0000000000000000e+00  -3.2313499891005286e-05 -6.9272809541797960e-05 0.0000000000000000e+00  -3.0648866878525135e-05 -6.6872763306908924e-05 0.0000000000000000e+00  -2.9009004828608846e-05 -6.4451446806727518e-05 0.0000000000000000e+00  -2.7423671726527258e-05 -6.2054485246108769e-05 0.0000000000000000e+00  -2.5870796212473186e-05 -5.9663943716669990e-05 0.0000000000000000e+00  -2.4379578071515042e-05 -5.7283365895273309e-05 0.0000000000000000e+00  -2.2922239179419531e-05 -5.4919376523024179e-05 0.0000000000000000e+00  -2.1522870617010771e-05 -5.2550706949784679e-05 0.0000000000000000e+00  -2.0165342275771881e-05 -5.0221931776995194e-05 0.0000000000000000e+00  -1.8859772068335408e-05 -4.7879562947998635e-05 0.0000000000000000e+00  -1.7594313989376059e-05 -4.5583938388892030e-05 0.0000000000000000e+00  -1.6382210136515769e-05 -4.3279644159322728e-05 0.0000000000000000e+00  -1.5208204219154231e-05 -4.1026285894515096e-05 0.0000000000000000e+00  -1.4087521362034480e-05 -3.8768983833453330e-05 0.0000000000000000e+00  -1.3002454878843189e-05 -3.6566522857867403e-05 0.0000000000000000e+00  -1.1972487273302223e-05 -3.4364438134901289e-05 0.0000000000000000e+00  -1.0977047985145749e-05 -3.2221687954660221e-05 0.0000000000000000e+00  -1.0038231156496647e-05 -3.0084318135684458e-05 0.0000000000000000e+00  -9.1314287300350225e-06 -2.8012119367749245e-05 0.0000000000000000e+00  -8.2821896263495971e-06 -2.5950848540923555e-05 0.0000000000000000e+00  -7.4626593761096634e-06 -2.3958834374753212e-05 0.0000000000000000e+00  -6.7023744395841085e-06 -2.1984326382909020e-05 0.0000000000000000e+00  -5.9774834799683567e-06 -2.0074061179788138e-05 0.0000000000000000e+00  -5.2991436587661824e-06 -1.8202048051569156e-05 0.0000000000000000e+00  -4.6760808444432731e-06 -1.6391592572364220e-05 0.0000000000000000e+00  -4.0690016081718649e-06 -1.4629798309265061e-05 0.0000000000000000e+00  -3.5244709923129322e-06 -1.2915180879998533e-05 0.0000000000000000e+00  -3.0155667739620783e-06 -1.1285735175648362e-05 0.0000000000000000e+00  -2.5582268486312779e-06 -9.6888796206550596e-06 0.0000000000000000e+00  -2.1390230916441959e-06 -8.1871769338526668e-06 0.0000000000000000e+00  -1.7700672292551579e-06 -6.7210366346476187e-06 0.0000000000000000e+00  -1.4377516780239116e-06 -5.3533770004649151e-06 0.0000000000000000e+00  -1.1526095285405017e-06 -4.0352330789687048e-06 0.0000000000000000e+00  -9.2027532893136511e-07 -2.8098111457720229e-06 0.0000000000000000e+00  -6.9959668834118571e-07 -1.6470595700242446e-06 0.0000000000000000e+00  -5.4167882235348546e-07 -5.6299315029310218e-07 0.0000000000000000e+00  -4.1853955439138598e-07 4.1642009942981285e-07 0.0000000000000000e+00  -3.4585610640963404e-07 1.3376952918350884e-06 0.0000000000000000e+00  -3.0435264645900743e-07 2.1482475586110927e-06 0.0000000000000000e+00  -3.1181095409634677e-07 2.8905874160958485e-06 0.0000000000000000e+00  -3.6907529482919173e-07 3.5261982391852350e-06 0.0000000000000000e+00  -4.3027989155241211e-07 4.0828033827878015e-06 0.0000000000000000e+00  -5.5778106128902595e-07 4.5832695208307456e-06 0.0000000000000000e+00  -6.3722460347917311e-07 4.9704504216477148e-06 0.0000000000000000e+00  -6.3889993760411324e-07 5.1062177242728613e-06 0.0000000000000000e+00  -3.9430887953613501e-07 4.8507226105277715e-06 0.0000000000000000e+00  -1.3026968995505451e-06 -1.2309473528315072e-07 0.0000000000000000e+00  -2.8411307402628031e-05 -7.0897419628466871e-05 0.0000000000000000e+00  -2.5198253212473001e-05 -6.6454250460667367e-05 0.0000000000000000e+00  -2.0507814924240849e-05 -5.9189528509904879e-05 0.0000000000000000e+00  -2.2344726725533789e-07 -5.2802868289118182e-07 0.0000000000000000e+00  -1.7829535950389054e-05 -5.4646919043336068e-05 0.0000000000000000e+00  2.3591320290986598e-07 -1.2376473776401916e-06 0.0000000000000000e+00  -1.5257213800083081e-05 -5.0114056815247597e-05 0.0000000000000000e+00  6.6358123160361302e-07 -3.2265949399820823e-06 0.0000000000000000e+00  7.3846530193325076e-07 -4.9721837296812857e-06 0.0000000000000000e+00  -1.2880585544654447e-05 -4.5656535871118920e-05 0.0000000000000000e+00  1.0041523577121527e-07 -1.0648845512530865e-05 0.0000000000000000e+00  -8.7089543232011487e-06 -3.7035314174748961e-05 0.0000000000000000e+00  6.2574261566277956e-07 -6.8583467011797513e-06 0.0000000000000000e+00  -4.3587224905974902e-07 -1.3441215626719927e-05 0.0000000000000000e+00  -6.9118448320828496e-06 -3.2909229041371921e-05 0.0000000000000000e+00  -1.0698116765623978e-05 -4.1290671561622263e-05 0.0000000000000000e+00  -1.1862628940248795e-06 -1.6488009692301895e-05 0.0000000000000000e+00  -5.3066019709347901e-06 -2.8933175529840977e-05 0.0000000000000000e+00  -2.1089976897101876e-06 -1.9583883073586063e-05 0.0000000000000000e+00  -3.8826281422339510e-06 -2.5255399820418799e-05 0.0000000000000000e+00  -2.9203535137981632e-06 -2.2255734682805857e-05 0.0000000000000000e+00  4.3819237659150854e-07 -8.6641681206023128e-06 0.0000000000000000e+00  -2.2958390209858768e-05 -6.2904488553191195e-05 0.0000000000000000e+00  4.8499404912498641e-07 -2.1654602398392544e-06 0.0000000000000000e+00  -2.7859646565933093e-05 -6.7659659102596730e-05 0.0000000000000000e+00  -7.4315875694942719e-07 1.7534825984452007e-06 0.0000000000000000e+00  -1.7399558442856909e-05 -5.1403932752554105e-05 0.0000000000000000e+00  -2.0080859768312555e-05 -5.6002824405725960e-05 0.0000000000000000e+00  2.2708085235347515e-07 -2.7711742774431668e-06 0.0000000000000000e+00  1.0581120888909943e-06 -5.5410078989988319e-06 0.0000000000000000e+00  -1.0505998617775940e-05 -3.8072909263058656e-05 0.0000000000000000e+00  -1.4910671926253083e-05 -4.6870793674662853e-05 0.0000000000000000e+00  4.1071099593370857e-07 -1.3361216598049083e-05 0.0000000000000000e+00  -8.5875738020817745e-06 -3.3844343402259824e-05 0.0000000000000000e+00  1.1015139294802420e-06 -7.3866073402180370e-06 0.0000000000000000e+00  -1.9887621698349824e-07 -1.6246736618549703e-05 0.0000000000000000e+00  -6.8575804724623374e-06 -2.9755793889589165e-05 0.0000000000000000e+00  -1.2613508586290404e-05 -4.2421145748172726e-05 0.0000000000000000e+00  -8.4917115669919672e-07 -1.9646979101345164e-05 0.0000000000000000e+00  -5.3142958758875614e-06 -2.5827692563701163e-05 0.0000000000000000e+00  -1.1919096071247173e-06 -1.2104771561737100e-06 0.0000000000000000e+00  -1.2064323611826590e-06 1.0584876122308841e-06 0.0000000000000000e+00  -2.9056132449174384e-05 -7.3388735423210986e-05 