<?xml version="1.0"?>
<VTKFile type="UnstructuredGrid"  version="0.1"  >
<UnstructuredGrid>
<Piece  NumberOfPoints="1419" NumberOfCells="2698">
<Points>
<DataArray  type="Float64"  NumberOfComponents="3"  format="ascii">0 0 0  0 0.41 0  2.5 0 0  2.5 0.41 0  0.6 0.19 0  0.6 0.21 0  0.25 0.2 0  0.15 0.2 0  0.2489897948556636 0.21 0  0.2489897948556636 0.19 0  0.6 0.2 0  0 0.3807142857143437 0  0 0.3514285714286952 0  0 0.3221428571430699 0  0 0.29285714285744 0  0 0.2635714285718054 0  0 0.2342857142861561 0  0 0.2050000000005308 0  0 0.175714285714732 0  0 0.1464285714289574 0  0 0.1171428571431897 0  0 0.08785714285737878 0  0 0.05857142857161107 0  0 0.02928571428580012 0  0.03015443760436003 0 0  0.06140001986583606 0 0  0.09377624077125973 0 0  0.1273239957535082 0 0  0.1620856860351972 0 0  0.1981052433264291 0 0  0.235428184091502 0 0  0.2741016576309132 0 0  0.3141745521465447 0 0  0.3556974926295285 0 0  0.3987229542472677 0 0  0.4433053055141081 0 0  0.4895008759286886 0 0  0.5373680609405097 0 0  0.5869673343216626 0 0  0.6383613676634521 0 0  0.6916151138468254 0 0  0.7467958595648856 0 0  0.8039733463919316 0 0  0.8632198139502143 0 0  0.9246101326867038 0 0  0.9882218810934433 0 0  1.054135445558498 0 0  1.122434100542598 0 0  1.193204177141305 0 0  1.266535089879536 0 0  1.342519516046404 0 0  1.421253448503939 0 0  1.502836389106271 0 0  1.587371439758838 0 0  1.674965418777374 0 0  1.765729001825544 0 0  1.859776908880082 0 0  1.957227977487062 0 0  2.058205329869943 0 0  2.162836591189951 0 0  2.271253957290865 0 0  2.383594446803425 0 0  2.5 0.1024999999997612 0  2.5 0.2049999999994743 0  2.5 0.3074999999997183 0  2.383594446803656 0.41 0  2.271253957291315 0.41 0  2.162836591190598 0.41 0  2.058205329870775 0.41 0  1.957227977488067 0.41 0  1.859776908881246 0.41 0  1.765729001826854 0.41 0  1.674965418778818 0.41 0  1.58737143976041 0.41 0  1.502836389107956 0.41 0  1.421253448505726 0.41 0  1.342519516048286 0.41 0  1.266535089881505 0.41 0  1.193204177143353 0.41 0  1.122434100544716 0.41 0  1.05413544556068 0.41 0  0.9882218810956305 0.41 0  0.9246101326886647 0.41 0  0.8632198139519631 0.41 0  0.8039733463934788 0.41 0  0.7467958595662458 0.41 0  0.6916151138480078 0.41 0  0.6383613676644679 0.41 0  0.5869673343225223 0.41 0  0.5373680609412221 0.41 0  0.4895008759292634 0.41 0  0.4433053055145528 0.41 0  0.3987229542475914 0.41 0  0.3556974926297398 0.41 0  0.3141745521466497 0.41 0  0.2741016576310038 0.41 0  0.2354281840915826 0.41 0  0.1981052433265003 0.41 0  0.1620856860352591 0.41 0  0.1273239957535623 0.41 0  0.09377624077128965 0.41 0  0.06140001986584975 0.41 0  0.03015443760436654 0.41 0  0.2497468076502589 0.2050254481002335 0  0.2497468076502614 0.1949745518997913 0  0.2469965252529372 0.1829317073451959 0  0.2439893735792749 0.1762316384219906 0  0.2400332147834255 0.1700443375285386 0  0.2352133972704371 0.1645032867342007 0  0.2296339016332438 0.1597280261969788 0  0.2234150974217223 0.1558215752574715 0  0.2166911463437691 0.1528682099456123 0  0.2096071079204251 0.1509316448471593 0  0.2023158100364996 0.1500536585536553 0  0.194974551899914 0.1502531923497262 0  0.1877417105387872 0.1515259415822739 0  0.1807733240461124 0.153844448527136 0  0.1742197252835808 0.15715869474974 0  0.1682222986673531 0.1613971801805478 0  0.162910430003803 0.1664684656256651 0  0.1583987151779087 0.1722631454351573 0  0.1547844879126891 0.178656207771761 0  0.1521457199348551 0.1855097315605723 0  0.1505393388476355 0.1926758619366523 0  0.1505393388476328 0.2073241380633295 0  0.1521457199348437 0.2144902684393899 0  0.1547844879126531 0.221343792228163 0  0.1583987151778488 0.2277368545647528 0  0.1629104300036858 0.2335315343742052 0  0.1682222986671726 0.2386028198193036 0  0.1742197252833576 0.2428413052501257 0  0.1807733240458683 0.2461555514727623 0  0.1877417105384929 0.2484740584176516 0  0.1949745518995776 0.2497468076502398 0  0.202315810036185 0.2499463414463592 0  0.2096071079201568 0.2490683551528932 0  0.2166911463435495 0.2471317900544655 0  0.2234150974215506 0.2441784247426195 0  0.2296339016331197 0.2402719738031125 0  0.2352133972703547 0.2354967132658811 0  0.2400332147833751 0.2299556624715287 0  0.2439893735792577 0.2237683615780412 0  0.246996525252926 0.2170682926548348 0  0.25645809709277 0.21 0  0.2639263993298655 0.21 0  0.271394701566961 0.21 0  0.2788630038040554 0.21 0  0.2863313060411479 0.21 0  0.2937996082782405 0.21 0  0.301267910515333 0.21 0  0.3087362127524279 0.21 0  0.3162045149895234 0.21 0  0.3236728172265972 0.21 0  0.3311411194636928 0.21 0  0.3386094217007701 0.21 0  0.3460777239378666 0.21 0  0.3535460261749672 0.21 0  0.3610143284120516 0.21 0  0.3684826306491596 0.21 0  0.3759509328862226 0.21 0  0.383419235123329 0.21 0  0.3908875373604028 0.21 0  0.3983558395975142 0.21 0  0.4058241418345938 0.21 0  0.4132924440716992 0.21 0  0.4207607463087888 0.21 0  0.4282290485459029 0.21 0  0.4356973507830418 0.21 0  0.4431656530201649 0.21 0  0.4506339552573136 0.21 0  0.4581022574944306 0.21 0  0.4655705597315852 0.21 0  0.4730388619686996 0.21 0  0.480507164205851 0.21 0  0.4879754664429498 0.21 0  0.4954437686800938 0.21 0  0.502912070917267 0.21 0  0.5103803731544119 0.21 0  0.5178486753915261 0.21 0  0.5253169776286404 0.21 0  0.5327852798657868 0.21 0  0.5402535821029386 0.21 0  0.54772188434007 0.21 0  0.5551901865771842 0.21 0  0.5626584888143201 0.21 0  0.5701267910514778 0.21 0  0.5775950932886138 0.21 0  0.5850633955257281 0.21 0  0.5925316977628483 0.21 0  0.6 0.2050000000000054 0  0.6 0.1950000000000217 0  0.5925316977628897 0.19 0  0.5850633955257988 0.19 0  0.5775950932887378 0.19 0  0.5701267910515998 0.19 0  0.5626584888145268 0.19 0  0.5551901865773963 0.19 0  0.547721884340339 0.19 0  0.5402535821032429 0.19 0  0.5327852798661811 0.19 0  0.5253169776290537 0.19 0  0.5178486753919799 0.19 0  0.5103803731549078 0.19 0  0.502912070917822 0.19 0  0.4954437686807294 0.19 0  0.4879754664436223 0.19 0  0.4805071642065402 0.19 0  0.4730388619694271 0.19 0  0.4655705597323621 0.19 0  0.4581022574952563 0.19 0  0.4506339552581777 0.19 0  0.4431656530210671 0.19 0  0.4356973507839815 0.19 0  0.4282290485468779 0.19 0  0.4207607463097617 0.19 0  0.4132924440726327 0.19 0  0.4058241418354857 0.19 0  0.3983558395983636 0.19 0  0.3908875373612097 0.19 0  0.3834192351240934 0.19 0  0.3759509328869369 0.19 0  0.3684826306498175 0.19 0  0.361014328412667 0.19 0  0.3535460261755617 0.19 0  0.3460777239384295 0.19 0  0.3386094217012945 0.19 0  0.3311411194641595 0.19 0  0.3236728172270245 0.19 0  0.3162045149898895 0.19 0  0.3087362127527544 0.19 0  0.3012679105156187 0.19 0  0.2937996082784807 0.19 0  0.2863313060413428 0.19 0  0.2788630038042048 0.19 0  0.2713947015670686 0.19 0  0.2639263993299336 0.19 0  0.2564580970927985 0.19 0  0.2607803159922026 0.2000727136295815 0  0.5887803774232762 0.2001272386983733 0  0.5745072403740523 0.2002044435018727 0  0.5511891430099709 0.2001122610077113 0  0.2751288526855082 0.20000000000002 0  0.5365194309847112 0.1999999999999436 0  0.2894621222999649 0.1998691686390484 0  0.5215828265105155 0.1999999999999228 0  0.3127789816668748 0.1998657885438805 0  0.3274069683451451 0.2000000000000796 0  0.5066462220363641 0.199999999999908 0  0.3650630746574081 0.199866017807523 0  0.476773013087985 0.1999999999998713 0  0.3417402379596385 0.1998691686391011 0  0.3796850840047755 0.200000000000134 0  0.4618364086138087 0.1999999999998546 0  0.4917096175621762 0.1999999999998808 0  0.3946216884789568 0.2000000000001512 0  0.446899804139621 0.1999999999998389 0  0.4089549580935208 0.1998691686391595 0  0.4322718174608562 0.200127451265745 0  0.4201487168029707 0.1999966199048527 0  0.3528922713220932 0.2000185703532356 0  0.5633122436674589 0.1999814296467508 0  0.3006558810093873 0.1999966199048318 0  0.5815926498168407 0.1966545283159175 0  0.2677053789419034 0.1964246479135325 0  0.5290511287476175 0.1970915826863981 0  0.5439877332217911 0.197091582686394 0  0.2825131256993216 0.2035478995978015 0  0.3199386661080599 0.202908417313604 0  0.4842413153250809 0.1970915826863873 0  0.5141145242734466 0.1970915826863843 0  0.3722167817676917 0.2029084173136195 0  0.4693047108508938 0.1970915826863783 0  0.3348752705822316 0.202908417313609 0  0.3871533862418661 0.2029084173136212 0  0.4543681063767183 0.1970915826863795 0  0.4991779197992749 0.1970915826863902 0  0.4020059614928624 0.203547899597858 0  0.4394315019025246 0.1970915826863714 0  0.2550657455369551 0.2034088125358657 0  0.2548908499171161 0.1966940311614271 0  0.5946539510196798 0.2024302972968126 0  0.267698176732111 0.2039977513680092 0  0.4261685417851465 0.196409292431739 0  0.3590076176283495 0.196411355804271 0  0.5571672426447437 0.2036011176410121 0  0.3066757059912147 0.1964092924317024 0  0.594380730180568 0.1966558399668133 0  0.4842413153245942 0.2040749161535287 0  0.4693047108503577 0.2040749161535231 0  0.3871533862424271 0.1959250838464788 0  0.372246743208829 0.1959123236376545 0  0.5141145242731028 0.2040749161535395 0  0.4543681063761134 0.2040749161535186 0  0.4019979587101454 0.1959834479682427 0  0.4394608940728603 0.2040870543693135 0  0.5439623148931173 0.2040856076781014 0  0.5290511287473298 0.2040749161535501 0  0.4991779197988497 0.2040749161535382 0  0.3347912413592433 0.1959225448935183 0  0.3199680582793816 0.1959123018030061 0  0.2825051229162361 0.1959834479681729 0  0.3590471196690275 0.2036304442587945 0  0.5571594006495384 0.1963685282145804 0  0.3067669986803285 0.203627750582736 0  0.4262598344738712 0.2036568242185335 0  0.5814408164431408 0.2041285596160068 0  0.5688286748170428 0.1961819304477386 0  0.4145905603063645 0.2038180695522843 0  0.3473758401724931 0.2038180695522752 0  0.2950977245128307 0.2038180695522663 0  0.5688286748170693 0.203818069552238 0  0.2950977245127906 0.1961819304477774 0  0.3473758401723931 0.1961819304478349 0  0.4145905603061963 0.1961819304479011 0  0.2601812407614425 0.2056861609747042
[...]
<PointData  Vectors="f_40-0"> 
<DataArray  type="Float64"  Name="f_40-0"  NumberOfComponents="3" format="ascii">0.0000000000000000e+00 0.0000000000000000e+00 0.0000000000000000e+00  0.0000000000000000e+00 0.0000000000000000e+00 0.0000000000000000e+00  0.0000000000000000e+00 0.0000000000000000e+00 0.0000000000000000e+00  0.0000000000000000e+00 0.0000000000000000e+00 0.0000000000000000e+00  9.2566756506718171e-05 4.5799368620810183e-03 0.0000000000000000e+00  -2.4576853442299473e-04 4.5832630030190882e-03 0.0000000000000000e+00  0.0000000000000000e+00 0.0000000000000000e+00 0.0000000000000000e+00  0.0000000000000000e+00 0.0000000000000000e+00 0.0000000000000000e+00  0.0000000000000000e+00 0.0000000000000000e+00 0.0000000000000000e+00  0.0000000000000000e+00 0.0000000000000000e+00 0.0000000000000000e+00  -7.6318173245865757e-05 4.5815655795563414e-03 0.0000000000000000e+00  5.1622929734252587e-01 0.0000000000000000e+00 0.0000000000000000e+00  9.5303870278626479e-01 0.0000000000000000e+00 0.0000000000000000e+00  1.3104282163311143e+00 0.0000000000000000e+00 0.0000000000000000e+00  1.5883978379774881e+00 0.0000000000000000e+00 0.0000000000000000e+00  1.7869475677253503e+00 0.0000000000000000e+00 0.0000000000000000e+00  1.9060774055746890e+00 0.0000000000000000e+00 0.0000000000000000e+00  1.9457873515253847e+00 0.0000000000000000e+00 0.0000000000000000e+00  1.9060774055770973e+00 0.0000000000000000e+00 0.0000000000000000e+00  1.7869475677294875e+00 0.0000000000000000e+00 0.0000000000000000e+00  1.5883978379826116e+00 0.0000000000000000e+00 0.0000000000000000e+00  1.3104282163359817e+00 0.0000000000000000e+00 0.0000000000000000e+00  9.5303870279041825e-01 0.0000000000000000e+00 0.0000000000000000e+00  5.1622929734486611e-01 0.0000000000000000e+00 0.0000000000000000e+00  0.0000000000000000e+00 0.0000000000000000e+00 0.0000000000000000e+00  0.0000000000000000e+00 0.0000000000000000e+00 0.0000000000000000e+00  0.0000000000000000e+00 0.0000000000000000e+00 0.0000000000000000e+00  0.0000000000000000e+00 0.0000000000000000e+00 0.0000000000000000e+00  0.0000000000000000e+00 0.0000000000000000e+00 0.0000000000000000e+00  0.0000000000000000e+00 0.0000000000000000e+00 0.0000000000000000e+00  0.0000000000000000e+00 0.0000000000000000e+00 0.0000000000000000e+00  0.0000000000000000e+00 0.0000000000000000e+00 0.0000000000000000e+00  0.0000000000000000e+00 0.0000000000000000e+00 0.0000000000000000e+00  0.0000000000000000e+00 0.0000000000000000e+00 0.0000000000000000e+00  0.0000000000000000e+00 0.0000000000000000e+00 0.0000000000000000e+00  0.0000000000000000e+00 0.0000000000000000e+00 0.0000000000000000e+00  0.0000000000000000e+00 0.0000000000000000e+00 0.0000000000000000e+00  0.0000000000000000e+00 0.0000000000000000e+00 0.0000000000000000e+00  0.0000000000000000e+00 0.0000000000000000e+00 0.0000000000000000e+00  0.0000000000000000e+00 0.0000000000000000e+00 0.0000000000000000e+00  0.0000000000000000e+00 0.0000000000000000e+00 0.0000000000000000e+00  0.0000000000000000e+00 0.0000000000000000e+00 0.0000000000000000e+00  0.0000000000000000e+00 0.0000000000000000e+00 0.0000000000000000e+00  0.0000000000000000e+00 0.0000000000000000e+00 0.0000000000000000e+00  0.0000000000000000e+00 0.0000000000000000e+00 0.0000000000000000e+00  0.0000000000000000e+00 0.0000000000000000e+00 0.0000000000000000e+00  0.0000000000000000e+00 0.0000000000000000e+00 0.0000000000000000e+00  0.0000000000000000e+00 0.0000000000000000e+00 0.0000000000000000e+00  0.0000000000000000e+00 0.0000000000000000e+00 0.0000000000000000e+00  0.0000000000000000e+00 0.0000000000000000e+00 0.0000000000000000e+00  0.0000000000000000e+00 0.0000000000000000e+00 0.0000000000000000e+00  0.0000000000000000e+00 0.0000000000000000e+00 0.0000000000000000e+00  0.0000000000000000e+00 0.0000000000000000e+00 0.0000000000000000e+00  0.0000000000000000e+00 0.0000000000000000e+00 0.0000000000000000e+00  0.0000000000000000e+00 0.0000000000000000e+00 0.0000000000000000e+00  0.0000000000000000e+00 0.0000000000000000e+00 0.0000000000000000e+00  0.0000000000000000e+00 0.0000000000000000e+00 0.0000000000000000e+00  0.0000000000000000e+00 0.0000000000000000e+00 0.0000000000000000e+00  0.0000000000000000e+00 0.0000000000000000e+00 0.0000000000000000e+00  0.0000000000000000e+00 0.0000000000000000e+00 0.0000000000000000e+00  0.0000000000000000e+00 0.0000000000000000e+00 0.0000000000000000e+00  0.0000000000000000e+00 0.0000000000000000e+00 0.0000000000000000e+00  1.7714235769081905e+00 -2.9786264629211492e-02 0.0000000000000000e+00  1.4368288156526716e+00 1.6827141339460658e-02 0.0000000000000000e+00  1.7459072739115731e+00 6.3356293352148041e-02 0.0000000000000000e+00  0.0000000000000000e+00 0.0000000000000000e+00 0.0000000000000000e+00  0.0000000000000000e+00 0.0000000000000000e+00 0.0000000000000000e+00  0.0000000000000000e+00 0.0000000000000000e+00 0.0000000000000000e+00  0.0000000000000000e+00 0.0000000000000000e+00 0.0000000000000000e+00  0.0000000000000000e+00 0.0000000000000000e+00 0.0000000000000000e+00  0.0000000000000000e+00 0.0000000000000000e+00 0.0000000000000000e+00  0.0000000000000000e+00 0.0000000000000000e+00 0.0000000000000000e+00  0.0000000000000000e+00 0.0000000000000000e+00 0.0000000000000000e+00  0.0000000000000000e+00 0.0000000000000000e+00 0.0000000000000000e+00  0.0000000000000000e+00 0.0000000000000000e+00 0.0000000000000000e+00  0.0000000000000000e+00 0.0000000000000000e+00 0.0000000000000000e+00  0.0000000000000000e+00 0.0000000000000000e+00 0.0000000000000000e+00  0.0000000000000000e+00 0.0000000000000000e+00 0.0000000000000000e+00  0.0000000000000000e+00 0.0000000000000000e+00 0.0000000000000000e+00  0.0000000000000000e+00 0.0000000000000000e+00 0.0000000000000000e+00  0.0000000000000000e+00 0.0000000000000000e+00 0.0000000000000000e+00  0.0000000000000000e+00 0.0000000000000000e+00 0.0000000000000000e+00  0.0000000000000000e+00 0.0000000000000000e+00 0.0000000000000000e+00  0.0000000000000000e+00 0.0000000000000000e+00 0.0000000000000000e+00  0.0000000000000000e+00 0.0000000000000000e+00 0.0000000000000000e+00  0.0000000000000000e+00 0.0000000000000000e+00 0.0000000000000000e+00  0.0000000000000000e+00 0.0000000000000000e+00 0.0000000000000000e+00  0.0000000000000000e+00 0.0000000000000000e+00 0.0000000000000000e+00  0.0000000000000000e+00 0.0000000000000000e+00 0.0000000000000000e+00  0.0000000000000000e+00 0.0000000000000000e+00 0.0000000000000000e+00  0.0000000000000000e+00 0.0000000000000000e+00 0.0000000000000000e+00  0.0000000000000000e+00 0.0000000000000000e+00 0.0000000000000000e+00  0.0000000000000000e+00 0.0000000000000000e+00 0.0000000000000000e+00  0.0000000000000000e+00 0.0000000000000000e+00 0.0000000000000000e+00  0.0000000000000000e+00 0.0000000000000000e+00 0.0000000000000000e+00  0.0000000000000000e+00 0.0000000000000000e+00 0.0000000000000000e+00  0.0000000000000000e+00 0.0000000000000000e+00 0.0000000000000000e+00  0.0000000000000000e+00 0.0000000000000000e+00 0.0000000000000000e+00  0.0000000000000000e+00 0.0000000000000000e+00 0.0000000000000000e+00  0.0000000000000000e+00 0.0000000000000000e+00 0.0000000000000000e+00  0.0000000000000000e+00 0.0000000000000000e+00 0.0000000000000000e+00  0.0000000000000000e+00 0.0000000000000000e+00 0.0000000000000000e+00  0.0000000000000000e+00 0.0000000000000000e+00 0.0000000000000000e+00  0.0000000000000000e+00 0.0000000000000000e+00 0.0000000000000000e+00  0.0000000000000000e+00 0.0000000000000000e+00 0.0000000000000000e+00  0.0000000000000000e+00 0.0000000000000000e+00 0.0000000000000000e+00  0.0000000000000000e+00 0.0000000000000000e+00 0.0000000000000000e+00  0.0000000000000000e+00 0.0000000000000000e+00 0.0000000000000000e+00  0.0000000000000000e+00 0.0000000000000000e+00 0.0000000000000000e+00  0.0000000000000000e+00 0.0000000000000000e+00 0.0000000000000000e+00  0.0000000000000000e+00 0.0000000000000000e+00 0.0000000000000000e+00  0.0000000000000000e+00 0.0000000000000000e+00 0.0000000000000000e+00  0.0000000000000000e+00 0.0000000000000000e+00 0.0000000000000000e+00  0.0000000000000000e+00 0.0000000000000000e+00 0.0000000000000000e+00  0.0000000000000000e+00 0.0000000000000000e+00 0.0000000000000000e+00  0.0000000000000000e+00 0.0000000000000000e+00 0.0000000000000000e+00  0.0000000000000000e+00 0.0000000000000000e+00 0.0000000000000000e+00  0.0000000000000000e+00 0.0000000000000000e+00 0.0000000000000000e+00  0.0000000000000000e+00 0.0000000000000000e+00 0.0000000000000000e+00  0.0000000000000000e+00 0.0000000000000000e+00 0.0000000000000000e+00  0.0000000000000000e+00 0.0000000000000000e+00 0.0000000000000000e+00  0.0000000000000000e+00 0.0000000000000000e+00 0.0000000000000000e+00  0.0000000000000000e+00 0.0000000000000000e+00 0.0000000000000000e+00  0.0000000000000000e+00 0.0000000000000000e+00 0.0000000000000000e+00  0.0000000000000000e+00 0.0000000000000000e+00 0.0000000000000000e+00  0.0000000000000000e+00 0.0000000000000000e+00 0.0000000000000000e+00  0.0000000000000000e+00 0.0000000000000000e+00 0.0000000000000000e+00  0.0000000000000000e+00 0.0000000000000000e+00 0.0000000000000000e+00  0.0000000000000000e+00 0.0000000000000000e+00 0.0000000000000000e+00  0.0000000000000000e+00 0.0000000000000000e+00 0.0000000000000000e+00  0.0000000000000000e+00 0.0000000000000000e+00 0.0000000000000000e+00  0.0000000000000000e+00 0.0000000000000000e+00 0.0000000000000000e+00  0.0000000000000000e+00 0.0000000000000000e+00 0.0000000000000000e+00  0.0000000000000000e+00 0.0000000000000000e+00 0.0000000000000000e+00  0.0000000000000000e+00 0.0000000000000000e+00 0.0000000000000000e+00  0.0000000000000000e+00 0.0000000000000000e+00 0.0000000000000000e+00  0.0000000000000000e+00 0.0000000000000000e+00 0.0000000000000000e+00  0.0000000000000000e+00 0.0000000000000000e+00 0.0000000000000000e+00  0.0000000000000000e+00 0.0000000000000000e+00 0.0000000000000000e+00  0.0000000000000000e+00 0.0000000000000000e+00 0.0000000000000000e+00  0.0000000000000000e+00 0.0000000000000000e+00 0.0000000000000000e+00  0.0000000000000000e+00 0.0000000000000000e+00 0.0000000000000000e+00  0.0000000000000000e+00 0.0000000000000000e+00 0.0000000000000000e+00  -1.2749868495602337e-05 1.3518911447908035e-05 0.0000000000000000e+00  -2.7048857537861483e-05 2.6763708791661761e-05 0.0000000000000000e+00  -4.0041544502652349e-05 4.7798807529715174e-05 0.0000000000000000e+00  -5.3891121874527427e-05 7.7166100490559016e-05 0.0000000000000000e+00  -6.5773616667523315e-05 1.1348661971600242e-04 0.0000000000000000e+00  -7.8784447575876233e-05 1.5740707124445975e-04 0.0000000000000000e+00  -8.9600325016823929e-05 2.0684703573778626e-04 0.0000000000000000e+00  -1.0003441628673255e-04 2.6348442241107381e-04 0.0000000000000000e+00  -1.1154233434599403e-04 3.2550401718956006e-04 0.0000000000000000e+00  -1.2073207461103699e-04 3.9303715524897128e-04 0.0000000000000000e+00  -1.3129359455083016e-04 4.6595405902517193e-04 0.0000000000000000e+00  -1.3965700097630065e-04 5.4368952719011847e-04 0.0000000000000000e+00  -1.4896961655412543e-04 6.2605588182611206e-04 0.0000000000000000e+00  -1.5669287015829562e-04 7.1208175004711322e-04 0.0000000000000000e+00  -1.6408259347913559e-04 8.0256968279382738e-04 0.0000000000000000e+00  -1.7201848880972554e-04 8.9635904783082036e-04 0.0000000000000000e+00  -1.7841215949045838e-04 9.9344490778345736e-04 0.0000000000000000e+00  -1.8547887255481081e-04 1.0937480002858066e-03 0.0000000000000000e+00  -1.9112794331165335e-04 1.1967673465013732e-03 0.0000000000000000e+00  -1.9726065528678235e-04 1.3023845078350177e-03 0.0000000000000000e+00  -2.0237890040953444e-04 1.4103505152107602e-03 0.0000000000000000e+00  -2.0765119970537043e-04 1.5206041693881004e-03 0.0000000000000000e+00  -2.1210788700943366e-04 1.6324701031241787e-03 0.0000000000000000e+00  -2.1627285269169543e-04 1.7463876474351780e-03 0.0000000000000000e+00  -2.2054398702136199e-04 1.8616881867709349e-03 0.0000000000000000e+00  -2.2417994906187241e-04 1.9785184089648245e-03 0.0000000000000000e+00  -2.2765036977511299e-04 2.0967461621532847e-03 0.0000000000000000e+00  -2.3071333504012383e-04 2.2160027248911141e-03 0.0000000000000000e+00  -2.3359106089741844e-04 2.3364412910969832e-03 0.0000000000000000e+00  -2.3610356650186030e-04 2.4576752318835960e-03 0.0000000000000000e+00  -2.3842167459999254e-04 2.5798564632602684e-03 0.0000000000000000e+00  -2.4040616170596627e-04 2.7026196671001198e-03 0.0000000000000000e+00  -2.4219911862819572e-04 2.8261252905760819e-03 0.0000000000000000e+00  -2.4368513544547322e-04 2.9500223696954987e-03 0.0000000000000000e+00  -2.4496918944157808e-04 3.0745001084765528e-03 0.0000000000000000e+00  -2.4599320330749368e-04 3.1992277954794586e-03 0.0000000000000000e+00  -2.4682887349707186e-04 3.3243753003957747e-03 0.0000000000000000e+00  -2.4743732727972013e-04 3.4496604817317467e-03 0.0000000000000000e+00  -2.4786264025076859e-04 3.5752472079610691e-03 0.0000000000000000e+00  -2.4809173848931731e-04 3.7008959545648209e-03 0.0000000000000000e+00  -2.4814714079950996e-04 3.8267366416271957e-03 0.0000000000000000e+00  -2.4805784243089982e-04 3.9526182814590962e-03 0.0000000000000000e+00  -2.4779791494367021e-04 4.0786039156936894e-03 0.0000000000000000e+00  -2.4746097071058458e-04 4.2046399486314013e-03 0.0000000000000000e+00  -2.4696907918061865e-04 4.3306977299005798e-03 0.0000000000000000e+00  -2.4637658395383540e-04 4.4568551573104702e-03 0.0000000000000000e+00  -1.6091451426288885e-04 4.5824138699858356e-03 0.0000000000000000e+00  8.2030226568257607e-06 4.5807328467464556e-03 0.0000000000000000e+00  9.1861950108351823e-05 4.4536415001865262e-03 0.0000000000000000e+00  9.1148409494649590e-05 4.3272338266309059e-03 0.0000000000000000e+00  9.0520546519166356e-05 4.2008164251710299e-03 0.0000000000000000e+00  8.9984362353916360e-05 4.0744772088030382e-03 0.0000000000000000e+00  8.9529963945303952e-05 3.9481810583211459e-03 0.0000000000000000e+00  8.9203324207080392e-05 3.8219692453445179e-03 0.0000000000000000e+00  8.8907207759242286e-05 3.6958513543902225e-03 0.0000000000000000e+00  8.8760882391313484e-05 3.5698206760800210e-03 0.0000000000000000e+00  8.8624369897639764e-05 3.4439988572394454e-03 0.0000000000000000e+00  8.8638551811501157e-05 3.3183152688894255e-03 0.0000000000000000e+00  8.8614672221375680e-05 3.1929362516090634e-03 0.0000000000000000e+00  8.8764761087528442e-05 3.0678108057349265e-03 0.0000000000000000e+00  8.8818505960506269e-05 2.9431218380429813e-03 0.0000000000000000e+00  8.9065570211858649e-05 2.8188371728087506e-03 0.0000000000000000e+00  8.9138177327144206e-05 2.6951344168046755e-03 0.0000000000000000e+00  8.9442836323662181e-05 2.5720145998131367e-03 0.0000000000000000e+00  8.9488302824890646e-05 2.4496554549764534e-03 0.0000000000000000e+00  8.9810738088755095e-05 2.3280881059672292e-03 0.0000000000000000e+00  8.9773740094182346e-05 2.2074970901000885e-03 0.0000000000000000e+00  9.0063650893782199e-05 2.0879388398143063e-03 0.0000000000000000e+00  8.9865621656514793e-05 1.9695944090240619e-03 0.0000000000000000e+00  9.0052334193520985e-05 1.8525634587624115e-03 0.0000000000000000e+00  8.9664927580403452e-05 1.7370349538429633e-03 0.0000000000000000e+00  8.9582528247610121e-05 1.6229760313231324e-03 0.0000000000000000e+00  8.9422339401582711e-05 1.5109940377155092e-03 0.0000000000000000e+00  8.8644362722571719e-05 1.4005783830666600e-03 0.0000000000000000e+00  8.8050580974836543e-05 1.2925656502216479e-03 0.0000000000000000e+00  8.6965194512393908e-05 1.1867822353559031e-03 0.0000000000000000e+00  8.5933662743980117e-05 1.0837089808924609e-03 0.0000000000000000e+00  8.4367198304904860e-05 9.8335761309515171e-04 0.0000000000000000e+00  8.2830509998018404e-05 8.8606304971869658e-04 0.0000000000000000e+00  8.0302099845831708e-05 7.9246468549684114e-04 0.0000000000000000e+00  7.8344666678876405e-05 7.0188738076132156e-04 0.0000000000000000e+00  7.6125158052824010e-05 6.1589693943593909e-04 0.0000000000000000e+00  7.2608859027376095e-05 5.3322599544237937e-04 0.0000000000000000e+00  6.9358236684409236e-05 4.5564357236430752e-04 0.0000000000000000e+00  6.5213558246979514e-05 3.8268213992630938e-04 0.0000000000000000e+00  6.1190720695465927e-05 3.1490690509047240e-04 0.0000000000000000e+00  5.5613604983310381e-05 2.5321184405440312e-04 0.0000000000000000e+00  5.1018150017140995e-05 1.9645848715898749e-04 0.0000000000000000e+00  4.6093397750632649e-05 1.4701069639583999e-04 0.0000000000000000e+00  3.9154473638747761e-05 1.0286280952624742e-04 0.0000000000000000e+00  3.2927844537149969e-05 6.6339968131689999e-05 0.0000000000000000e+00  2.4848735164800950e-05 3.7272751196970355e-05 0.0000000000000000e+00  1.7671709178931099e-05 1.6285487409456916e-05 0.0000000000000000e+00  8.3599600630715828e-06 3.6640419521604116e-06 0.0000000000000000e+00  -2.7917576756707256e-06 9.1992410818857841e-06 0.0000000000000000e+00  -7.9619509450786567e-05 4.3918049778737100e-03 0.0000000000000000e+00  -8.2073781830904472e-05 4.1505393632728692e-03 0.0000000000000000e+00  -8.1374832742944978e-05 3.7567893770105772e-03 0.0000000000000000e+00  -8.8964078553315078e-06 5.1156114582900842e-05 0.0000000000000000e+00  -7.9396185628171481e-05 3.5095285689036308e-03 0.0000000000000000e+00  -1.3894157234531520e-05 1.2103685416718389e-04 0.0000000000000000e+00  -7.8803386688491663e-05 3.2584806887497285e-03 0.0000000000000000e+00  -2.2615123117068098e-05 2.8725431295162688e-04 0.0000000000000000e+00  -2.9356212582980416e-05 4.2044822353464172e-04 0.0000000000000000e+00  -7.7672989826792400e-05 3.0085311520092650e-03 0.0000000000000000e+00  -4.1604744015729739e-05 8.4548480138240257e-04 0.0000000000000000e+00  -7.3802455633475986e-05 2.5141878381435981e-03 0.0000000000000000e+00  -3.3359845547809711e-05 5.6944133974596049e-04 0.0000000000000000e+00  -4.8372449742214970e-05 1.0362671857758108e-03 0.0000000000000000e+00  -7.1087743628438739e-05 2.2712227779408006e-03 0.0000000000000000e+00  -7.6003484479945037e-05 2.7602153154065068e-03 0.0000000000000000e+00  -5.3316459040400624e-05 1.2426677368375845e-03 0.0000000000000000e+00  -6.7875450737268822e-05 2.0322213464824897e-03 0.0000000000000000e+00  -5.5854651006328934e-05 1.4499610338447088e-03 0.0000000000000000e+00  -6.6270833186625502e-05 1.8030217505148550e-03 0.0000000000000000e+00  -6.0947287936083896e-05 1.6175863327685780e-03 0.0000000000000000e+00  -3.9099665366430429e-05 6.9738886324803258e-04 0.0000000000000000e+00  -7.8826188198861694e-05 3.9613914818317792e-03 0.0000000000000000e+00  -1.8944525004830097e-05 1.9429527583733231e-04 0.0000000000000000e+00  -2.1554323526187920e-05 4.2696665545194443e-03 0.0000000000000000e+00  4.0465563685370566e-06 2.4715700665016837e-05 0.0000000000000000e+00  -3.0343558907398851e-05 3.3830676770521310e-03 0.0000000000000000e+00  -3.0521965456396593e-05 3.6345843176022082e-03 0.0000000000000000e+00  -2.8649542207149624e-05 8.6590014892333090e-05 0.0000000000000000e+00  -5.2626112602145097e-05 3.5189780644302493e-04 0.0000000000000000e+00  -2.7178776139494223e-05 2.6358202353174904e-03 0.0000000000000000e+00  -2.9717048365791183e-05 3.1324286606764710e-03 0.0000000000000000e+00  -8.3458038201150833e-05 9.3908980484305000e-04 0.0000000000000000e+00  -2.5332911342717858e-05 2.3911610045693091e-03 0.0000000000000000e+00  -6.2077592494142245e-05 4.9790114683061605e-04 0.0000000000000000e+00  -9.0787566116247545e-05 1.1398349360323176e-03 0.0000000000000000e+00  -2.3153837946153654e-05 2.1500106590462468e-03 0.0000000000000000e+00  -2.8651466367710316e-05 2.8831467369668322e-03 0.0000000000000000e+00  -1.0667845830541093e-04 1.3504589661511538e-03 0.0000000000000000e+00  -2.0677819521331261e-05 1.9133239203614108e-03 0.0000000000000000e+00  -2.5622549558795186e-06 3.2012883379363683e-06 0.0000000000000000e+00  9.7037142764958053e-07 7.1811096997030423e-07 0.0000000000000000e+00  -1.1797719692355159e-04 4.4915218730097470e-03 0.0000000000000000e+00  -1.6847878446357478e-05 2.8946897050257281e-05 0.0000000000000000e+00  -7.8967747112425943e-06 1.7074811113469794e-03 0.000000