<?xml version="1.0"?>
<VTKFile type="UnstructuredGrid"  version="0.1"  >
<UnstructuredGrid>
<Piece  NumberOfPoints="1419" NumberOfCells="2698">
<Points>
<DataArray  type="Float64"  NumberOfComponents="3"  format="ascii">0 0 0  0 0.41 0  2.5 0 0  2.5 0.41 0  0.6 0.19 0  0.6 0.21 0  0.25 0.2 0  0.15 0.2 0  0.2489897948556636 0.21 0  0.2489897948556636 0.19 0  0.6 0.2 0  0 0.3807142857143437 0  0 0.3514285714286952 0  0 0.3221428571430699 0  0 0.29285714285744 0  0 0.2635714285718054 0  0 0.2342857142861561 0  0 0.2050000000005308 0  0 0.175714285714732 0  0 0.1464285714289574 0  0 0.1171428571431897 0  0 0.08785714285737878 0  0 0.05857142857161107 0  0 0.02928571428580012 0  0.03015443760436003 0 0  0.06140001986583606 0 0  0.09377624077125973 0 0  0.1273239957535082 0 0  0.1620856860351972 0 0  0.1981052433264291 0 0  0.235428184091502 0 0  0.2741016576309132 0 0  0.3141745521465447 0 0  0.3556974926295285 0 0  0.3987229542472677 0 0  0.4433053055141081 0 0  0.4895008759286886 0 0  0.5373680609405097 0 0  0.5869673343216626 0 0  0.6383613676634521 0 0  0.6916151138468254 0 0  0.7467958595648856 0 0  0.8039733463919316 0 0  0.8632198139502143 0 0  0.9246101326867038 0 0  0.9882218810934433 0 0  1.054135445558498 0 0  1.122434100542598 0 0  1.193204177141305 0 0  1.266535089879536 0 0  1.342519516046404 0 0  1.421253448503939 0 0  1.502836389106271 0 0  1.587371439758838 0 0  1.674965418777374 0 0  1.765729001825544 0 0  1.859776908880082 0 0  1.957227977487062 0 0  2.058205329869943 0 0  2.162836591189951 0 0  2.271253957290865 0 0  2.383594446803425 0 0  2.5 0.1024999999997612 0  2.5 0.2049999999994743 0  2.5 0.3074999999997183 0  2.383594446803656 0.41 0  2.271253957291315 0.41 0  2.162836591190598 0.41 0  2.058205329870775 0.41 0  1.957227977488067 0.41 0  1.859776908881246 0.41 0  1.765729001826854 0.41 0  1.674965418778818 0.41 0  1.58737143976041 0.41 0  1.502836389107956 0.41 0  1.421253448505726 0.41 0  1.342519516048286 0.41 0  1.266535089881505 0.41 0  1.193204177143353 0.41 0  1.122434100544716 0.41 0  1.05413544556068 0.41 0  0.9882218810956305 0.41 0  0.9246101326886647 0.41 0  0.8632198139519631 0.41 0  0.8039733463934788 0.41 0  0.7467958595662458 0.41 0  0.6916151138480078 0.41 0  0.6383613676644679 0.41 0  0.5869673343225223 0.41 0  0.5373680609412221 0.41 0  0.4895008759292634 0.41 0  0.4433053055145528 0.41 0  0.3987229542475914 0.41 0  0.3556974926297398 0.41 0  0.3141745521466497 0.41 0  0.2741016576310038 0.41 0  0.2354281840915826 0.41 0  0.1981052433265003 0.41 0  0.1620856860352591 0.41 0  0.1273239957535623 0.41 0  0.09377624077128965 0.41 0  0.06140001986584975 0.41 0  0.03015443760436654 0.41 0  0.2497468076502589 0.2050254481002335 0  0.2497468076502614 0.1949745518997913 0  0.2469965252529372 0.1829317073451959 0  0.2439893735792749 0.1762316384219906 0  0.2400332147834255 0.1700443375285386 0  0.2352133972704371 0.1645032867342007 0  0.2296339016332438 0.1597280261969788 0  0.2234150974217223 0.1558215752574715 0  0.2166911463437691 0.1528682099456123 0  0.2096071079204251 0.1509316448471593 0  0.2023158100364996 0.1500536585536553 0  0.194974551899914 0.1502531923497262 0  0.1877417105387872 0.1515259415822739 0  0.1807733240461124 0.153844448527136 0  0.1742197252835808 0.15715869474974 0  0.1682222986673531 0.1613971801805478 0  0.162910430003803 0.1664684656256651 0  0.1583987151779087 0.1722631454351573 0  0.1547844879126891 0.178656207771761 0  0.1521457199348551 0.1855097315605723 0  0.1505393388476355 0.1926758619366523 0  0.1505393388476328 0.2073241380633295 0  0.1521457199348437 0.2144902684393899 0  0.1547844879126531 0.221343792228163 0  0.1583987151778488 0.2277368545647528 0  0.1629104300036858 0.2335315343742052 0  0.1682222986671726 0.2386028198193036 0  0.1742197252833576 0.2428413052501257 0  0.1807733240458683 0.2461555514727623 0  0.1877417105384929 0.2484740584176516 0  0.1949745518995776 0.2497468076502398 0  0.202315810036185 0.2499463414463592 0  0.2096071079201568 0.2490683551528932 0  0.2166911463435495 0.2471317900544655 0  0.2234150974215506 0.2441784247426195 0  0.2296339016331197 0.2402719738031125 0  0.2352133972703547 0.2354967132658811 0  0.2400332147833751 0.2299556624715287 0  0.2439893735792577 0.2237683615780412 0  0.246996525252926 0.2170682926548348 0  0.25645809709277 0.21 0  0.2639263993298655 0.21 0  0.271394701566961 0.21 0  0.2788630038040554 0.21 0  0.2863313060411479 0.21 0  0.2937996082782405 0.21 0  0.301267910515333 0.21 0  0.3087362127524279 0.21 0  0.3162045149895234 0.21 0  0.3236728172265972 0.21 0  0.3311411194636928 0.21 0  0.3386094217007701 0.21 0  0.3460777239378666 0.21 0  0.3535460261749672 0.21 0  0.3610143284120516 0.21 0  0.3684826306491596 0.21 0  0.3759509328862226 0.21 0  0.383419235123329 0.21 0  0.3908875373604028 0.21 0  0.3983558395975142 0.21 0  0.4058241418345938 0.21 0  0.4132924440716992 0.21 0  0.4207607463087888 0.21 0  0.4282290485459029 0.21 0  0.4356973507830418 0.21 0  0.4431656530201649 0.21 0  0.4506339552573136 0.21 0  0.4581022574944306 0.21 0  0.4655705597315852 0.21 0  0.4730388619686996 0.21 0  0.480507164205851 0.21 0  0.4879754664429498 0.21 0  0.4954437686800938 0.21 0  0.502912070917267 0.21 0  0.5103803731544119 0.21 0  0.5178486753915261 0.21 0  0.5253169776286404 0.21 0  0.5327852798657868 0.21 0  0.5402535821029386 0.21 0  0.54772188434007 0.21 0  0.5551901865771842 0.21 0  0.5626584888143201 0.21 0  0.5701267910514778 0.21 0  0.5775950932886138 0.21 0  0.5850633955257281 0.21 0  0.5925316977628483 0.21 0  0.6 0.2050000000000054 0  0.6 0.1950000000000217 0  0.5925316977628897 0.19 0  0.5850633955257988 0.19 0  0.5775950932887378 0.19 0  0.5701267910515998 0.19 0  0.5626584888145268 0.19 0  0.5551901865773963 0.19 0  0.547721884340339 0.19 0  0.5402535821032429 0.19 0  0.5327852798661811 0.19 0  0.5253169776290537 0.19 0  0.5178486753919799 0.19 0  0.5103803731549078 0.19 0  0.502912070917822 0.19 0  0.4954437686807294 0.19 0  0.4879754664436223 0.19 0  0.4805071642065402 0.19 0  0.4730388619694271 0.19 0  0.4655705597323621 0.19 0  0.4581022574952563 0.19 0  0.4506339552581777 0.19 0  0.4431656530210671 0.19 0  0.4356973507839815 0.19 0  0.4282290485468779 0.19 0  0.4207607463097617 0.19 0  0.4132924440726327 0.19 0  0.4058241418354857 0.19 0  0.3983558395983636 0.19 0  0.3908875373612097 0.19 0  0.3834192351240934 0.19 0  0.3759509328869369 0.19 0  0.3684826306498175 0.19 0  0.361014328412667 0.19 0  0.3535460261755617 0.19 0  0.3460777239384295 0.19 0  0.3386094217012945 0.19 0  0.3311411194641595 0.19 0  0.3236728172270245 0.19 0  0.3162045149898895 0.19 0  0.3087362127527544 0.19 0  0.3012679105156187 0.19 0  0.2937996082784807 0.19 0  0.2863313060413428 0.19 0  0.2788630038042048 0.19 0  0.2713947015670686 0.19 0  0.2639263993299336 0.19 0  0.2564580970927985 0.19 0  0.2607803159922026 0.2000727136295815 0  0.5887803774232762 0.2001272386983733 0  0.5745072403740523 0.2002044435018727 0  0.5511891430099709 0.2001122610077113 0  0.2751288526855082 0.20000000000002 0  0.5365194309847112 0.1999999999999436 0  0.2894621222999649 0.1998691686390484 0  0.5215828265105155 0.1999999999999228 0  0.3127789816668748 0.1998657885438805 0  0.3274069683451451 0.2000000000000796 0  0.5066462220363641 0.199999999999908 0  0.3650630746574081 0.199866017807523 0  0.476773013087985 0.1999999999998713 0  0.3417402379596385 0.1998691686391011 0  0.3796850840047755 0.200000000000134 0  0.4618364086138087 0.1999999999998546 0  0.4917096175621762 0.1999999999998808 0  0.3946216884789568 0.2000000000001512 0  0.446899804139621 0.1999999999998389 0  0.4089549580935208 0.1998691686391595 0  0.4322718174608562 0.200127451265745 0  0.4201487168029707 0.1999966199048527 0  0.3528922713220932 0.2000185703532356 0  0.5633122436674589 0.1999814296467508 0  0.3006558810093873 0.1999966199048318 0  0.5815926498168407 0.1966545283159175 0  0.2677053789419034 0.1964246479135325 0  0.5290511287476175 0.1970915826863981 0  0.5439877332217911 0.197091582686394 0  0.2825131256993216 0.2035478995978015 0  0.3199386661080599 0.202908417313604 0  0.4842413153250809 0.1970915826863873 0  0.5141145242734466 0.1970915826863843 0  0.3722167817676917 0.2029084173136195 0  0.4693047108508938 0.1970915826863783 0  0.3348752705822316 0.202908417313609 0  0.3871533862418661 0.2029084173136212 0  0.4543681063767183 0.1970915826863795 0  0.4991779197992749 0.1970915826863902 0  0.4020059614928624 0.203547899597858 0  0.4394315019025246 0.1970915826863714 0  0.2550657455369551 0.2034088125358657 0  0.2548908499171161 0.1966940311614271 0  0.5946539510196798 0.2024302972968126 0  0.267698176732111 0.2039977513680092 0  0.4261685417851465 0.196409292431739 0  0.3590076176283495 0.196411355804271 0  0.5571672426447437 0.2036011176410121 0  0.3066757059912147 0.1964092924317024 0  0.594380730180568 0.1966558399668133 0  0.4842413153245942 0.2040749161535287 0  0.4693047108503577 0.2040749161535231 0  0.3871533862424271 0.1959250838464788 0  0.372246743208829 0.1959123236376545 0  0.5141145242731028 0.2040749161535395 0  0.4543681063761134 0.2040749161535186 0  0.4019979587101454 0.1959834479682427 0  0.4394608940728603 0.2040870543693135 0  0.5439623148931173 0.2040856076781014 0  0.5290511287473298 0.2040749161535501 0  0.4991779197988497 0.2040749161535382 0  0.3347912413592433 0.1959225448935183 0  0.3199680582793816 0.1959123018030061 0  0.2825051229162361 0.1959834479681729 0  0.3590471196690275 0.2036304442587945 0  0.5571594006495384 0.1963685282145804 0  0.3067669986803285 0.203627750582736 0  0.4262598344738712 0.2036568242185335 0  0.5814408164431408 0.2041285596160068 0  0.5688286748170428 0.1961819304477386 0  0.4145905603063645 0.2038180695522843 0  0.3473758401724931 0.2038180695522752 0  0.2950977245128307 0.2038180695522663 0  0.5688286748170693 0.203818069552238 0  0.2950977245127906 0.1961819304477774 0  0.3473758401723931 0.1961819304478349 0  0.4145905603061963 0.1961819304479011 0  0.2601812407614425 0.2056861609747042
[...]
<PointData  Vectors="f_40-0"> 
<DataArray  type="Float64"  Name="f_40-0"  NumberOfComponents="3" format="ascii">0.0000000000000000e+00 0.0000000000000000e+00 0.0000000000000000e+00  0.0000000000000000e+00 0.0000000000000000e+00 0.0000000000000000e+00  0.0000000000000000e+00 0.0000000000000000e+00 0.0000000000000000e+00  0.0000000000000000e+00 0.0000000000000000e+00 0.0000000000000000e+00  -1.2835243268707894e-04 -5.1744643982764877e-04 0.0000000000000000e+00  -6.1366775239322020e-06 -5.1852091935090960e-04 0.0000000000000000e+00  0.0000000000000000e+00 0.0000000000000000e+00 0.0000000000000000e+00  0.0000000000000000e+00 0.0000000000000000e+00 0.0000000000000000e+00  0.0000000000000000e+00 0.0000000000000000e+00 0.0000000000000000e+00  0.0000000000000000e+00 0.0000000000000000e+00 0.0000000000000000e+00  -6.7674262175515621e-05 -5.1793724261674993e-04 0.0000000000000000e+00  4.1801680360068894e-01 0.0000000000000000e+00 0.0000000000000000e+00  7.7172332972439983e-01 0.0000000000000000e+00 0.0000000000000000e+00  1.0611195783710501e+00 0.0000000000000000e+00 0.0000000000000000e+00  1.2862055495409743e+00 0.0000000000000000e+00 0.0000000000000000e+00  1.4469812432341436e+00 0.0000000000000000e+00 0.0000000000000000e+00  1.5434466594505485e+00 0.0000000000000000e+00 0.0000000000000000e+00  1.5756017981900921e+00 0.0000000000000000e+00 0.0000000000000000e+00  1.5434466594524989e+00 0.0000000000000000e+00 0.0000000000000000e+00  1.4469812432374936e+00 0.0000000000000000e+00 0.0000000000000000e+00  1.2862055495451230e+00 0.0000000000000000e+00 0.0000000000000000e+00  1.0611195783749914e+00 0.0000000000000000e+00 0.0000000000000000e+00  7.7172332972776314e-01 0.0000000000000000e+00 0.0000000000000000e+00  4.1801680360258392e-01 0.0000000000000000e+00 0.0000000000000000e+00  0.0000000000000000e+00 0.0000000000000000e+00 0.0000000000000000e+00  0.0000000000000000e+00 0.0000000000000000e+00 0.0000000000000000e+00  0.0000000000000000e+00 0.0000000000000000e+00 0.0000000000000000e+00  0.0000000000000000e+00 0.0000000000000000e+00 0.0000000000000000e+00  0.0000000000000000e+00 0.0000000000000000e+00 0.0000000000000000e+00  0.0000000000000000e+00 0.0000000000000000e+00 0.0000000000000000e+00  0.0000000000000000e+00 0.0000000000000000e+00 0.0000000000000000e+00  0.0000000000000000e+00 0.0000000000000000e+00 0.0000000000000000e+00  0.0000000000000000e+00 0.0000000000000000e+00 0.0000000000000000e+00  0.0000000000000000e+00 0.0000000000000000e+00 0.0000000000000000e+00  0.0000000000000000e+00 0.0000000000000000e+00 0.0000000000000000e+00  0.0000000000000000e+00 0.0000000000000000e+00 0.0000000000000000e+00  0.0000000000000000e+00 0.0000000000000000e+00 0.0000000000000000e+00  0.0000000000000000e+00 0.0000000000000000e+00 0.0000000000000000e+00  0.0000000000000000e+00 0.0000000000000000e+00 0.0000000000000000e+00  0.0000000000000000e+00 0.0000000000000000e+00 0.0000000000000000e+00  0.0000000000000000e+00 0.0000000000000000e+00 0.0000000000000000e+00  0.0000000000000000e+00 0.0000000000000000e+00 0.0000000000000000e+00  0.0000000000000000e+00 0.0000000000000000e+00 0.0000000000000000e+00  0.0000000000000000e+00 0.0000000000000000e+00 0.0000000000000000e+00  0.0000000000000000e+00 0.0000000000000000e+00 0.0000000000000000e+00  0.0000000000000000e+00 0.0000000000000000e+00 0.0000000000000000e+00  0.0000000000000000e+00 0.0000000000000000e+00 0.0000000000000000e+00  0.0000000000000000e+00 0.0000000000000000e+00 0.0000000000000000e+00  0.0000000000000000e+00 0.0000000000000000e+00 0.0000000000000000e+00  0.0000000000000000e+00 0.0000000000000000e+00 0.0000000000000000e+00  0.0000000000000000e+00 0.0000000000000000e+00 0.0000000000000000e+00  0.0000000000000000e+00 0.0000000000000000e+00 0.0000000000000000e+00  0.0000000000000000e+00 0.0000000000000000e+00 0.0000000000000000e+00  0.0000000000000000e+00 0.0000000000000000e+00 0.0000000000000000e+00  0.0000000000000000e+00 0.0000000000000000e+00 0.0000000000000000e+00  0.0000000000000000e+00 0.0000000000000000e+00 0.0000000000000000e+00  0.0000000000000000e+00 0.0000000000000000e+00 0.0000000000000000e+00  0.0000000000000000e+00 0.0000000000000000e+00 0.0000000000000000e+00  0.0000000000000000e+00 0.0000000000000000e+00 0.0000000000000000e+00  0.0000000000000000e+00 0.0000000000000000e+00 0.0000000000000000e+00  0.0000000000000000e+00 0.0000000000000000e+00 0.0000000000000000e+00  0.0000000000000000e+00 0.0000000000000000e+00 0.0000000000000000e+00  1.4344185059786334e+00 -3.6135736590783479e-02 0.0000000000000000e+00  1.1230324222773080e+00 1.3125373891379421e-02 0.0000000000000000e+00  1.4189415862185080e+00 5.2332171336498923e-02 0.0000000000000000e+00  0.0000000000000000e+00 0.0000000000000000e+00 0.0000000000000000e+00  0.0000000000000000e+00 0.0000000000000000e+00 0.0000000000000000e+00  0.0000000000000000e+00 0.0000000000000000e+00 0.0000000000000000e+00  0.0000000000000000e+00 0.0000000000000000e+00 0.0000000000000000e+00  0.0000000000000000e+00 0.0000000000000000e+00 0.0000000000000000e+00  0.0000000000000000e+00 0.0000000000000000e+00 0.0000000000000000e+00  0.0000000000000000e+00 0.0000000000000000e+00 0.0000000000000000e+00  0.0000000000000000e+00 0.0000000000000000e+00 0.0000000000000000e+00  0.0000000000000000e+00 0.0000000000000000e+00 0.0000000000000000e+00  0.0000000000000000e+00 0.0000000000000000e+00 0.0000000000000000e+00  0.0000000000000000e+00 0.0000000000000000e+00 0.0000000000000000e+00  0.0000000000000000e+00 0.0000000000000000e+00 0.0000000000000000e+00  0.0000000000000000e+00 0.0000000000000000e+00 0.0000000000000000e+00  0.0000000000000000e+00 0.0000000000000000e+00 0.0000000000000000e+00  0.0000000000000000e+00 0.0000000000000000e+00 0.0000000000000000e+00  0.0000000000000000e+00 0.0000000000000000e+00 0.0000000000000000e+00  0.0000000000000000e+00 0.0000000000000000e+00 0.0000000000000000e+00  0.0000000000000000e+00 0.0000000000000000e+00 0.0000000000000000e+00  0.0000000000000000e+00 0.0000000000000000e+00 0.0000000000000000e+00  0.0000000000000000e+00 0.0000000000000000e+00 0.0000000000000000e+00  0.0000000000000000e+00 0.0000000000000000e+00 0.0000000000000000e+00  0.0000000000000000e+00 0.0000000000000000e+00 0.0000000000000000e+00  0.0000000000000000e+00 0.0000000000000000e+00 0.0000000000000000e+00  0.0000000000000000e+00 0.0000000000000000e+00 0.0000000000000000e+00  0.0000000000000000e+00 0.0000000000000000e+00 0.0000000000000000e+00  0.0000000000000000e+00 0.0000000000000000e+00 0.0000000000000000e+00  0.0000000000000000e+00 0.0000000000000000e+00 0.0000000000000000e+00  0.0000000000000000e+00 0.0000000000000000e+00 0.0000000000000000e+00  0.0000000000000000e+00 0.0000000000000000e+00 0.0000000000000000e+00  0.0000000000000000e+00 0.0000000000000000e+00 0.0000000000000000e+00  0.0000000000000000e+00 0.0000000000000000e+00 0.0000000000000000e+00  0.0000000000000000e+00 0.0000000000000000e+00 0.0000000000000000e+00  0.0000000000000000e+00 0.0000000000000000e+00 0.0000000000000000e+00  0.0000000000000000e+00 0.0000000000000000e+00 0.0000000000000000e+00  0.0000000000000000e+00 0.0000000000000000e+00 0.0000000000000000e+00  0.0000000000000000e+00 0.0000000000000000e+00 0.0000000000000000e+00  0.0000000000000000e+00 0.0000000000000000e+00 0.0000000000000000e+00  0.0000000000000000e+00 0.0000000000000000e+00 0.0000000000000000e+00  0.0000000000000000e+00 0.0000000000000000e+00 0.0000000000000000e+00  0.0000000000000000e+00 0.0000000000000000e+00 0.0000000000000000e+00  0.0000000000000000e+00 0.0000000000000000e+00 0.0000000000000000e+00  0.0000000000000000e+00 0.0000000000000000e+00 0.0000000000000000e+00  0.0000000000000000e+00 0.0000000000000000e+00 0.0000000000000000e+00  0.0000000000000000e+00 0.0000000000000000e+00 0.0000000000000000e+00  0.0000000000000000e+00 0.0000000000000000e+00 0.0000000000000000e+00  0.0000000000000000e+00 0.0000000000000000e+00 0.0000000000000000e+00  0.0000000000000000e+00 0.0000000000000000e+00 0.0000000000000000e+00  0.0000000000000000e+00 0.0000000000000000e+00 0.0000000000000000e+00  0.0000000000000000e+00 0.0000000000000000e+00 0.0000000000000000e+00  0.0000000000000000e+00 0.0000000000000000e+00 0.0000000000000000e+00  0.0000000000000000e+00 0.0000000000000000e+00 0.0000000000000000e+00  0.0000000000000000e+00 0.0000000000000000e+00 0.0000000000000000e+00  0.0000000000000000e+00 0.0000000000000000e+00 0.0000000000000000e+00  0.0000000000000000e+00 0.0000000000000000e+00 0.0000000000000000e+00  0.0000000000000000e+00 0.0000000000000000e+00 0.0000000000000000e+00  0.0000000000000000e+00 0.0000000000000000e+00 0.0000000000000000e+00  0.0000000000000000e+00 0.0000000000000000e+00 0.0000000000000000e+00  0.0000000000000000e+00 0.0000000000000000e+00 0.0000000000000000e+00  0.0000000000000000e+00 0.0000000000000000e+00 0.0000000000000000e+00  0.0000000000000000e+00 0.0000000000000000e+00 0.0000000000000000e+00  0.0000000000000000e+00 0.0000000000000000e+00 0.0000000000000000e+00  0.0000000000000000e+00 0.0000000000000000e+00 0.0000000000000000e+00  0.0000000000000000e+00 0.0000000000000000e+00 0.0000000000000000e+00  0.0000000000000000e+00 0.0000000000000000e+00 0.0000000000000000e+00  0.0000000000000000e+00 0.0000000000000000e+00 0.0000000000000000e+00  0.0000000000000000e+00 0.0000000000000000e+00 0.0000000000000000e+00  0.0000000000000000e+00 0.0000000000000000e+00 0.0000000000000000e+00  0.0000000000000000e+00 0.0000000000000000e+00 0.0000000000000000e+00  0.0000000000000000e+00 0.0000000000000000e+00 0.0000000000000000e+00  0.0000000000000000e+00 0.0000000000000000e+00 0.0000000000000000e+00  0.0000000000000000e+00 0.0000000000000000e+00 0.0000000000000000e+00  0.0000000000000000e+00 0.0000000000000000e+00 0.0000000000000000e+00  0.0000000000000000e+00 0.0000000000000000e+00 0.0000000000000000e+00  0.0000000000000000e+00 0.0000000000000000e+00 0.0000000000000000e+00  0.0000000000000000e+00 0.0000000000000000e+00 0.0000000000000000e+00  0.0000000000000000e+00 0.0000000000000000e+00 0.0000000000000000e+00  0.0000000000000000e+00 0.0000000000000000e+00 0.0000000000000000e+00  0.0000000000000000e+00 0.0000000000000000e+00 0.0000000000000000e+00  -8.6990752839979341e-06 9.7422372264513760e-06 0.0000000000000000e+00  -1.7695475584223816e-05 1.8355300741157149e-05 0.0000000000000000e+00  -2.5466472206111581e-05 3.0560514527856253e-05 0.0000000000000000e+00  -3.2975537033505605e-05 4.6560142715153532e-05 0.0000000000000000e+00  -3.9139582591045019e-05 6.4900234025161370e-05 0.0000000000000000e+00  -4.4906341636210830e-05 8.5654036949634274e-05 0.0000000000000000e+00  -4.9575454735954497e-05 1.0762062171062790e-04 0.0000000000000000e+00  -5.3561615217450115e-05 1.3073894297817854e-04 0.0000000000000000e+00  -5.7018521369758390e-05 1.5430629619323243e-04 0.0000000000000000e+00  -5.9727246090785803e-05 1.7773439724821412e-04 0.0000000000000000e+00  -6.1646592626148972e-05 2.0082362028580274e-04 0.0000000000000000e+00  -6.3242902516451766e-05 2.2278437508234871e-04 0.0000000000000000e+00  -6.3839718397468287e-05 2.4346338948789804e-04 0.0000000000000000e+00  -6.4394109773539658e-05 2.6262771969925926e-04 0.0000000000000000e+00  -6.4433842347313806e-05 2.7948841759810745e-04 0.0000000000000000e+00  -6.3479084522088364e-05 2.9428061438746414e-04 0.0000000000000000e+00  -6.2859466895077399e-05 3.0638069740186394e-04 0.0000000000000000e+00  -6.0939584012034805e-05 3.1580907393730442e-04 0.0000000000000000e+00  -5.9691279974197934e-05 3.2207179938635713e-04 0.0000000000000000e+00  -5.7186934545389667e-05 3.2550440869018310e-04 0.0000000000000000e+00  -5.5235833146828907e-05 3.2544113001362561e-04 0.0000000000000000e+00  -5.2246875146953807e-05 3.2204498044649407e-04 0.0000000000000000e+00  -4.9986645454732087e-05 3.1585021180398435e-04 0.0000000000000000e+00  -4.7500091190434960e-05 3.0582736789339175e-04 0.0000000000000000e+00  -4.4219668801417518e-05 2.9311330692751385e-04 0.0000000000000000e+00  -4.1417804082561317e-05 2.7681521645861403e-04 0.0000000000000000e+00  -3.8283007436852992e-05 2.5757160905984298e-04 0.0000000000000000e+00  -3.5440454579428569e-05 2.3529604451924494e-04 0.0000000000000000e+00  -3.2361076832378259e-05 2.1020284673136351e-04 0.0000000000000000e+00  -2.9612924772258527e-05 1.8242404711390857e-04 0.0000000000000000e+00  -2.6711689050091872e-05 1.5211100816018945e-04 0.0000000000000000e+00  -2.4161672586347658e-05 1.1948976891294217e-04 0.0000000000000000e+00  -2.1551480682594210e-05 8.4687071371586983e-05 0.0000000000000000e+00  -1.9285009476110434e-05 4.7985297136693426e-05 0.0000000000000000e+00  -1.7036003811681291e-05 9.5025344584300813e-06 0.0000000000000000e+00  -1.5143434896189279e-05 -3.0427334381145696e-05 0.0000000000000000e+00  -1.3327206605252422e-05 -7.1739740316796648e-05 0.0000000000000000e+00  -1.1840296144540477e-05 -1.1407484007659023e-04 0.0000000000000000e+00  -1.0464667943105773e-05 -1.5740321181825369e-04 0.0000000000000000e+00  -9.3857673473636484e-06 -2.0136479341156493e-04 0.0000000000000000e+00  -8.4249682888300042e-06 -2.4600399822797018e-04 0.0000000000000000e+00  -7.7409561525162618e-06 -2.9093706977912102e-04 0.0000000000000000e+00  -7.2223404129118538e-06 -3.3621960427682336e-04 0.0000000000000000e+00  -6.7691891243422829e-06 -3.8163397252161758e-04 0.0000000000000000e+00  -6.5160741641126741e-06 -4.2712976592814659e-04 0.0000000000000000e+00  -6.3346571086252606e-06 -4.7271843320093986e-04 0.0000000000000000e+00  -3.7066402318819956e-05 -5.1821695344521248e-04 0.0000000000000000e+00  -9.8131179686217429e-05 -5.1768253164999150e-04 0.0000000000000000e+00  -1.2843438773694753e-04 -4.7191414428025071e-04 0.0000000000000000e+00  -1.2841425279394526e-04 -4.2623978651059837e-04 0.0000000000000000e+00  -1.2836650509634494e-04 -3.8061037129720753e-04 0.0000000000000000e+00  -1.2821622556740390e-04 -3.3513610094635765e-04 0.0000000000000000e+00  -1.2803071118352045e-04 -2.8983157303513860e-04 0.0000000000000000e+00  -1.2771235496366698e-04 -2.4489725571680201e-04 0.0000000000000000e+00  -1.2711330662239294e-04 -2.0034919682133151e-04 0.0000000000000000e+00  -1.2648489104072965e-04 -1.5643625553304292e-04 0.0000000000000000e+00  -1.2535329575591006e-04 -1.1322973756761406e-04 0.0000000000000000e+00  -1.2427519805868439e-04 -7.1054635125789080e-05 0.0000000000000000e+00  -1.2251038001804092e-04 -2.9926957605891418e-05 0.0000000000000000e+00  -1.2086961127594144e-04 9.7489139764199706e-06 0.0000000000000000e+00  -1.1835750301207564e-04 4.7991450674597178e-05 0.0000000000000000e+00  -1.1608093542073133e-04 8.4343908428818553e-05 0.0000000000000000e+00  -1.1277682375365201e-04 1.1885363018721895e-04 0.0000000000000000e+00  -1.0983751586659309e-04 1.5105602311691542e-04 0.0000000000000000e+00  -1.0573641953475362e-04 1.8103218687765297e-04 0.0000000000000000e+00  -1.0213144042461923e-04 2.0832525774896262e-04 0.0000000000000000e+00  -9.7255387091712474e-05 2.3306351277969681e-04 0.0000000000000000e+00  -9.3018590538195773e-05 2.5481795317175849e-04 0.0000000000000000e+00  -8.7426628082573363e-05 2.7370594784955021e-04 0.0000000000000000e+00  -8.2596703610837921e-05 2.8935118409438056e-04 0.0000000000000000e+00  -7.6479893814508177e-05 3.0184296257914619e-04 0.0000000000000000e+00  -7.1020199545710760e-05 3.1134886715603478e-04 0.0000000000000000e+00  -6.5404140714143502e-05 3.1709312988410082e-04 0.0000000000000000e+00  -5.8935782655430879e-05 3.2018924974333638e-04 0.0000000000000000e+00  -5.2946974625156064e-05 3.1966513505826867e-04 0.0000000000000000e+00  -4.6551154121779218e-05 3.1610890307841679e-04 0.0000000000000000e+00  -4.0527461699094328e-05 3.0938290800848679e-04 0.0000000000000000e+00  -3.4315383365862675e-05 2.9972757369166005e-04 0.0000000000000000e+00  -2.8518212464613933e-05 2.8738891812737287e-04 0.0000000000000000e+00  -2.2526341556176243e-05 2.7223315191867174e-04 0.0000000000000000e+00  -1.7310057130618096e-05 2.5519146162250215e-04 0.0000000000000000e+00  -1.2417425219531356e-05 2.3584541675606191e-04 0.0000000000000000e+00  -7.4645861671746836e-06 2.1509919541104163e-04 0.0000000000000000e+00  -3.2315206380188236e-06 1.9295999157569127e-04 0.0000000000000000e+00  6.0886853150044315e-07 1.6977609357129972e-04 0.0000000000000000e+00  3.8564801587214684e-06 1.4626324478572472e-04 0.0000000000000000e+00  6.3891994136073235e-06 1.2264767148465047e-04 0.0000000000000000e+00  8.4760333308534274e-06 9.9495002050882422e-05 0.0000000000000000e+00  9.9395960597813132e-06 7.7507740531524490e-05 0.0000000000000000e+00  1.0397990314651193e-05 5.6680512381376937e-05 0.0000000000000000e+00  1.0355841411480009e-05 3.8206343654710598e-05 0.0000000000000000e+00  8.9360916524351840e-06 2.2306295549847121e-05 0.0000000000000000e+00  7.2401112816702081e-06 1.0196892518849929e-05 0.0000000000000000e+00  3.7370028839427582e-06 2.1120658333871505e-06 0.0000000000000000e+00  -3.3670359378903167e-06 7.1372893273000066e-06 0.0000000000000000e+00  -6.6833596770458464e-05 -4.4934118313025393e-04 0.0000000000000000e+00  -6.6468274698882132e-05 -3.6218011260725748e-04 0.0000000000000000e+00  -6.7564692509467230e-05 -2.2112818206707232e-04 0.0000000000000000e+00  -9.7022164154290764e-06 3.1959383467306591e-05 0.0000000000000000e+00  -6.8575224997078504e-05 -1.3461224967512090e-04 0.0000000000000000e+00  -1.5338553900921028e-05 6.7907089039142567e-05 0.0000000000000000e+00  -6.8834987340610608e-05 -4.9823995515333987e-05 0.0000000000000000e+00  -2.4762806672079728e-05 1.3921600493305714e-04 0.0000000000000000e+00  -3.0949975087063100e-05 1.8581913146030485e-04 0.0000000000000000e+00  -6.8883034410607960e-05 3.0084835626804218e-05 0.0000000000000000e+00  -4.4543165258460410e-05 2.8580303516372903e-04 0.0000000000000000e+00  -6.7916611274678368e-05 1.6853063764111627e-04 0.0000000000000000e+00  -3.6088625561371012e-05 2.2871211874997112e-04 0.0000000000000000e+00  -4.9534965940148652e-05 3.0997986237598366e-04 0.0000000000000000e+00  -6.6714867450430197e-05 2.2385122687687569e-04 0.0000000000000000e+00  -6.8610226129302493e-05 1.0342876828752271e-04 0.0000000000000000e+00  -5.3942701979744196e-05 3.2323225266354060e-04 0.0000000000000000e+00  -6.4955122757845614e-05 2.6804545731310260e-04 0.0000000000000000e+00  -5.7759634336388640e-05 3.2400343207515930e-04 0.0000000000000000e+00  -6.2419310338876952e-05 2.9953115734064335e-04 0.0000000000000000e+00  -6.0194054953910671e-05 3.1576150734557843e-04 0.0000000000000000e+00  -4.0555586904747350e-05 2.5820160487570633e-04 0.0000000000000000e+00  -6.8064724096604661e-05 -2.9416768775137285e-04 0.0000000000000000e+00  -2.0239090865050720e-05 1.0115630128025842e-04 0.0000000000000000e+00  -8.7985199149065042e-05 -4.0527887568937644e-04 0.0000000000000000e+00  -1.2445959994733329e-06 1.6313501678933209e-05 0.0000000000000000e+00  -8.5016850360876103e-05 -9.1695635612251575e-05 0.0000000000000000e+00  -8.5366490662091315e-05 -1.7826474119347023e-04 0.0000000000000000e+00  -2.0882790029062736e-05 5.1159245220540477e-05 0.0000000000000000e+00  -3.6772483016364616e-05 1.6333589015439618e-04 0.0000000000000000e+00  -8.0780860895217062e-05 1.3678585721493163e-04 0.0000000000000000e+00  -8.4217588624113126e-05 -9.2343159027300104e-06 0.0000000000000000e+00  -5.1711945323827193e-05 2.9970587545963566e-04 0.0000000000000000e+00  -7.7967829458104625e-05 1.9703088091866920e-04 0.0000000000000000e+00  -4.2118056768988767e-05 2.0976487716030875e-04 0.0000000000000000e+00  -5.4236265888699737e-05 3.1877170227979457e-04 0.0000000000000000e+00  -7.4359633581242305e-05 2.4679806102208425e-04 0.0000000000000000e+00  -8.2839489936017873e-05 6.7493788120646936e-05 0.0000000000000000e+00  -5.6071156780500839e-05 3.2580068377922780e-04 0.0000000000000000e+00  -7.0013324503508193e-05 2.8485998332882629e-04 0.0000000000000000e+00  -2.1744412829477929e-06 2.9450113267050973e-06 0.0000000000000000e+00  -1.6723461922636754e-07 1.0074626412644397e-06 0.0000000000000000e+00  -5.2796781622560906e-05 -4.8535141496359189e-04 0.0000000000000000e+00  -1.2393107364994443e-05 1.9597200322766444e-05 0