<?xml version="1.0"?>
<VTKFile type="UnstructuredGrid"  version="0.1"  >
<UnstructuredGrid>
<Piece  NumberOfPoints="1419" NumberOfCells="2698">
<Points>
<DataArray  type="Float64"  NumberOfComponents="3"  format="ascii">0 0 0  0 0.41 0  2.5 0 0  2.5 0.41 0  0.6 0.19 0  0.6 0.21 0  0.25 0.2 0  0.15 0.2 0  0.2489897948556636 0.21 0  0.2489897948556636 0.19 0  0.6 0.2 0  0 0.3807142857143437 0  0 0.3514285714286952 0  0 0.3221428571430699 0  0 0.29285714285744 0  0 0.2635714285718054 0  0 0.2342857142861561 0  0 0.2050000000005308 0  0 0.175714285714732 0  0 0.1464285714289574 0  0 0.1171428571431897 0  0 0.08785714285737878 0  0 0.05857142857161107 0  0 0.02928571428580012 0  0.03015443760436003 0 0  0.06140001986583606 0 0  0.09377624077125973 0 0  0.1273239957535082 0 0  0.1620856860351972 0 0  0.1981052433264291 0 0  0.235428184091502 0 0  0.2741016576309132 0 0  0.3141745521465447 0 0  0.3556974926295285 0 0  0.3987229542472677 0 0  0.4433053055141081 0 0  0.4895008759286886 0 0  0.5373680609405097 0 0  0.5869673343216626 0 0  0.6383613676634521 0 0  0.6916151138468254 0 0  0.7467958595648856 0 0  0.8039733463919316 0 0  0.8632198139502143 0 0  0.9246101326867038 0 0  0.9882218810934433 0 0  1.054135445558498 0 0  1.122434100542598 0 0  1.193204177141305 0 0  1.266535089879536 0 0  1.342519516046404 0 0  1.421253448503939 0 0  1.502836389106271 0 0  1.587371439758838 0 0  1.674965418777374 0 0  1.765729001825544 0 0  1.859776908880082 0 0  1.957227977487062 0 0  2.058205329869943 0 0  2.162836591189951 0 0  2.271253957290865 0 0  2.383594446803425 0 0  2.5 0.1024999999997612 0  2.5 0.2049999999994743 0  2.5 0.3074999999997183 0  2.383594446803656 0.41 0  2.271253957291315 0.41 0  2.162836591190598 0.41 0  2.058205329870775 0.41 0  1.957227977488067 0.41 0  1.859776908881246 0.41 0  1.765729001826854 0.41 0  1.674965418778818 0.41 0  1.58737143976041 0.41 0  1.502836389107956 0.41 0  1.421253448505726 0.41 0  1.342519516048286 0.41 0  1.266535089881505 0.41 0  1.193204177143353 0.41 0  1.122434100544716 0.41 0  1.05413544556068 0.41 0  0.9882218810956305 0.41 0  0.9246101326886647 0.41 0  0.8632198139519631 0.41 0  0.8039733463934788 0.41 0  0.7467958595662458 0.41 0  0.6916151138480078 0.41 0  0.6383613676644679 0.41 0  0.5869673343225223 0.41 0  0.5373680609412221 0.41 0  0.4895008759292634 0.41 0  0.4433053055145528 0.41 0  0.3987229542475914 0.41 0  0.3556974926297398 0.41 0  0.3141745521466497 0.41 0  0.2741016576310038 0.41 0  0.2354281840915826 0.41 0  0.1981052433265003 0.41 0  0.1620856860352591 0.41 0  0.1273239957535623 0.41 0  0.09377624077128965 0.41 0  0.06140001986584975 0.41 0  0.03015443760436654 0.41 0  0.2497468076502589 0.2050254481002335 0  0.2497468076502614 0.1949745518997913 0  0.2469965252529372 0.1829317073451959 0  0.2439893735792749 0.1762316384219906 0  0.2400332147834255 0.1700443375285386 0  0.2352133972704371 0.1645032867342007 0  0.2296339016332438 0.1597280261969788 0  0.2234150974217223 0.1558215752574715 0  0.2166911463437691 0.1528682099456123 0  0.2096071079204251 0.1509316448471593 0  0.2023158100364996 0.1500536585536553 0  0.194974551899914 0.1502531923497262 0  0.1877417105387872 0.1515259415822739 0  0.1807733240461124 0.153844448527136 0  0.1742197252835808 0.15715869474974 0  0.1682222986673531 0.1613971801805478 0  0.162910430003803 0.1664684656256651 0  0.1583987151779087 0.1722631454351573 0  0.1547844879126891 0.178656207771761 0  0.1521457199348551 0.1855097315605723 0  0.1505393388476355 0.1926758619366523 0  0.1505393388476328 0.2073241380633295 0  0.1521457199348437 0.2144902684393899 0  0.1547844879126531 0.221343792228163 0  0.1583987151778488 0.2277368545647528 0  0.1629104300036858 0.2335315343742052 0  0.1682222986671726 0.2386028198193036 0  0.1742197252833576 0.2428413052501257 0  0.1807733240458683 0.2461555514727623 0  0.1877417105384929 0.2484740584176516 0  0.1949745518995776 0.2497468076502398 0  0.202315810036185 0.2499463414463592 0  0.2096071079201568 0.2490683551528932 0  0.2166911463435495 0.2471317900544655 0  0.2234150974215506 0.2441784247426195 0  0.2296339016331197 0.2402719738031125 0  0.2352133972703547 0.2354967132658811 0  0.2400332147833751 0.2299556624715287 0  0.2439893735792577 0.2237683615780412 0  0.246996525252926 0.2170682926548348 0  0.25645809709277 0.21 0  0.2639263993298655 0.21 0  0.271394701566961 0.21 0  0.2788630038040554 0.21 0  0.2863313060411479 0.21 0  0.2937996082782405 0.21 0  0.301267910515333 0.21 0  0.3087362127524279 0.21 0  0.3162045149895234 0.21 0  0.3236728172265972 0.21 0  0.3311411194636928 0.21 0  0.3386094217007701 0.21 0  0.3460777239378666 0.21 0  0.3535460261749672 0.21 0  0.3610143284120516 0.21 0  0.3684826306491596 0.21 0  0.3759509328862226 0.21 0  0.383419235123329 0.21 0  0.3908875373604028 0.21 0  0.3983558395975142 0.21 0  0.4058241418345938 0.21 0  0.4132924440716992 0.21 0  0.4207607463087888 0.21 0  0.4282290485459029 0.21 0  0.4356973507830418 0.21 0  0.4431656530201649 0.21 0  0.4506339552573136 0.21 0  0.4581022574944306 0.21 0  0.4655705597315852 0.21 0  0.4730388619686996 0.21 0  0.480507164205851 0.21 0  0.4879754664429498 0.21 0  0.4954437686800938 0.21 0  0.502912070917267 0.21 0  0.5103803731544119 0.21 0  0.5178486753915261 0.21 0  0.5253169776286404 0.21 0  0.5327852798657868 0.21 0  0.5402535821029386 0.21 0  0.54772188434007 0.21 0  0.5551901865771842 0.21 0  0.5626584888143201 0.21 0  0.5701267910514778 0.21 0  0.5775950932886138 0.21 0  0.5850633955257281 0.21 0  0.5925316977628483 0.21 0  0.6 0.2050000000000054 0  0.6 0.1950000000000217 0  0.5925316977628897 0.19 0  0.5850633955257988 0.19 0  0.5775950932887378 0.19 0  0.5701267910515998 0.19 0  0.5626584888145268 0.19 0  0.5551901865773963 0.19 0  0.547721884340339 0.19 0  0.5402535821032429 0.19 0  0.5327852798661811 0.19 0  0.5253169776290537 0.19 0  0.5178486753919799 0.19 0  0.5103803731549078 0.19 0  0.502912070917822 0.19 0  0.4954437686807294 0.19 0  0.4879754664436223 0.19 0  0.4805071642065402 0.19 0  0.4730388619694271 0.19 0  0.4655705597323621 0.19 0  0.4581022574952563 0.19 0  0.4506339552581777 0.19 0  0.4431656530210671 0.19 0  0.4356973507839815 0.19 0  0.4282290485468779 0.19 0  0.4207607463097617 0.19 0  0.4132924440726327 0.19 0  0.4058241418354857 0.19 0  0.3983558395983636 0.19 0  0.3908875373612097 0.19 0  0.3834192351240934 0.19 0  0.3759509328869369 0.19 0  0.3684826306498175 0.19 0  0.361014328412667 0.19 0  0.3535460261755617 0.19 0  0.3460777239384295 0.19 0  0.3386094217012945 0.19 0  0.3311411194641595 0.19 0  0.3236728172270245 0.19 0  0.3162045149898895 0.19 0  0.3087362127527544 0.19 0  0.3012679105156187 0.19 0  0.2937996082784807 0.19 0  0.2863313060413428 0.19 0  0.2788630038042048 0.19 0  0.2713947015670686 0.19 0  0.2639263993299336 0.19 0  0.2564580970927985 0.19 0  0.2607803159922026 0.2000727136295815 0  0.5887803774232762 0.2001272386983733 0  0.5745072403740523 0.2002044435018727 0  0.5511891430099709 0.2001122610077113 0  0.2751288526855082 0.20000000000002 0  0.5365194309847112 0.1999999999999436 0  0.2894621222999649 0.1998691686390484 0  0.5215828265105155 0.1999999999999228 0  0.3127789816668748 0.1998657885438805 0  0.3274069683451451 0.2000000000000796 0  0.5066462220363641 0.199999999999908 0  0.3650630746574081 0.199866017807523 0  0.476773013087985 0.1999999999998713 0  0.3417402379596385 0.1998691686391011 0  0.3796850840047755 0.200000000000134 0  0.4618364086138087 0.1999999999998546 0  0.4917096175621762 0.1999999999998808 0  0.3946216884789568 0.2000000000001512 0  0.446899804139621 0.1999999999998389 0  0.4089549580935208 0.1998691686391595 0  0.4322718174608562 0.200127451265745 0  0.4201487168029707 0.1999966199048527 0  0.3528922713220932 0.2000185703532356 0  0.5633122436674589 0.1999814296467508 0  0.3006558810093873 0.1999966199048318 0  0.5815926498168407 0.1966545283159175 0  0.2677053789419034 0.1964246479135325 0  0.5290511287476175 0.1970915826863981 0  0.5439877332217911 0.197091582686394 0  0.2825131256993216 0.2035478995978015 0  0.3199386661080599 0.202908417313604 0  0.4842413153250809 0.1970915826863873 0  0.5141145242734466 0.1970915826863843 0  0.3722167817676917 0.2029084173136195 0  0.4693047108508938 0.1970915826863783 0  0.3348752705822316 0.202908417313609 0  0.3871533862418661 0.2029084173136212 0  0.4543681063767183 0.1970915826863795 0  0.4991779197992749 0.1970915826863902 0  0.4020059614928624 0.203547899597858 0  0.4394315019025246 0.1970915826863714 0  0.2550657455369551 0.2034088125358657 0  0.2548908499171161 0.1966940311614271 0  0.5946539510196798 0.2024302972968126 0  0.267698176732111 0.2039977513680092 0  0.4261685417851465 0.196409292431739 0  0.3590076176283495 0.196411355804271 0  0.5571672426447437 0.2036011176410121 0  0.3066757059912147 0.1964092924317024 0  0.594380730180568 0.1966558399668133 0  0.4842413153245942 0.2040749161535287 0  0.4693047108503577 0.2040749161535231 0  0.3871533862424271 0.1959250838464788 0  0.372246743208829 0.1959123236376545 0  0.5141145242731028 0.2040749161535395 0  0.4543681063761134 0.2040749161535186 0  0.4019979587101454 0.1959834479682427 0  0.4394608940728603 0.2040870543693135 0  0.5439623148931173 0.2040856076781014 0  0.5290511287473298 0.2040749161535501 0  0.4991779197988497 0.2040749161535382 0  0.3347912413592433 0.1959225448935183 0  0.3199680582793816 0.1959123018030061 0  0.2825051229162361 0.1959834479681729 0  0.3590471196690275 0.2036304442587945 0  0.5571594006495384 0.1963685282145804 0  0.3067669986803285 0.203627750582736 0  0.4262598344738712 0.2036568242185335 0  0.5814408164431408 0.2041285596160068 0  0.5688286748170428 0.1961819304477386 0  0.4145905603063645 0.2038180695522843 0  0.3473758401724931 0.2038180695522752 0  0.2950977245128307 0.2038180695522663 0  0.5688286748170693 0.203818069552238 0  0.2950977245127906 0.1961819304477774 0  0.3473758401723931 0.1961819304478349 0  0.4145905603061963 0.1961819304479011 0  0.2601812407614425 0.2056861609747042
[...]
<PointData  Vectors="f_40-0"> 
<DataArray  type="Float64"  Name="f_40-0"  NumberOfComponents="3" format="ascii">0.0000000000000000e+00 0.0000000000000000e+00 0.0000000000000000e+00  0.0000000000000000e+00 0.0000000000000000e+00 0.0000000000000000e+00  0.0000000000000000e+00 0.0000000000000000e+00 0.0000000000000000e+00  0.0000000000000000e+00 0.0000000000000000e+00 0.0000000000000000e+00  -1.0325512793824751e-05 -4.9894940299793444e-04 0.0000000000000000e+00  2.8149057234608953e-05 -5.0433884164952461e-04 0.0000000000000000e+00  0.0000000000000000e+00 0.0000000000000000e+00 0.0000000000000000e+00  0.0000000000000000e+00 0.0000000000000000e+00 0.0000000000000000e+00  0.0000000000000000e+00 0.0000000000000000e+00 0.0000000000000000e+00  0.0000000000000000e+00 0.0000000000000000e+00 0.0000000000000000e+00  8.4067305266007195e-06 -5.0164018944307877e-04 0.0000000000000000e+00  7.5673073964521206e-02 0.0000000000000000e+00 0.0000000000000000e+00  1.3970413654989455e-01 0.0000000000000000e+00 0.0000000000000000e+00  1.9209318775610507e-01 0.0000000000000000e+00 0.0000000000000000e+00  2.3284022758321335e-01 0.0000000000000000e+00 0.0000000000000000e+00  2.6194525603121410e-01 0.0000000000000000e+00 0.0000000000000000e+00  2.7940827310010563e-01 0.0000000000000000e+00 0.0000000000000000e+00  2.8522927878987048e-01 0.0000000000000000e+00 0.0000000000000000e+00  2.7940827310045868e-01 0.0000000000000000e+00 0.0000000000000000e+00  2.6194525603182056e-01 0.0000000000000000e+00 0.0000000000000000e+00  2.3284022758396436e-01 0.0000000000000000e+00 0.0000000000000000e+00  1.9209318775681852e-01 0.0000000000000000e+00 0.0000000000000000e+00  1.3970413655050340e-01 0.0000000000000000e+00 0.0000000000000000e+00  7.5673073964864251e-02 0.0000000000000000e+00 0.0000000000000000e+00  0.0000000000000000e+00 0.0000000000000000e+00 0.0000000000000000e+00  0.0000000000000000e+00 0.0000000000000000e+00 0.0000000000000000e+00  0.0000000000000000e+00 0.0000000000000000e+00 0.0000000000000000e+00  0.0000000000000000e+00 0.0000000000000000e+00 0.0000000000000000e+00  0.0000000000000000e+00 0.0000000000000000e+00 0.0000000000000000e+00  0.0000000000000000e+00 0.0000000000000000e+00 0.0000000000000000e+00  0.0000000000000000e+00 0.0000000000000000e+00 0.0000000000000000e+00  0.0000000000000000e+00 0.0000000000000000e+00 0.0000000000000000e+00  0.0000000000000000e+00 0.0000000000000000e+00 0.0000000000000000e+00  0.0000000000000000e+00 0.0000000000000000e+00 0.0000000000000000e+00  0.0000000000000000e+00 0.0000000000000000e+00 0.0000000000000000e+00  0.0000000000000000e+00 0.0000000000000000e+00 0.0000000000000000e+00  0.0000000000000000e+00 0.0000000000000000e+00 0.0000000000000000e+00  0.0000000000000000e+00 0.0000000000000000e+00 0.0000000000000000e+00  0.0000000000000000e+00 0.0000000000000000e+00 0.0000000000000000e+00  0.0000000000000000e+00 0.0000000000000000e+00 0.0000000000000000e+00  0.0000000000000000e+00 0.0000000000000000e+00 0.0000000000000000e+00  0.0000000000000000e+00 0.0000000000000000e+00 0.0000000000000000e+00  0.0000000000000000e+00 0.0000000000000000e+00 0.0000000000000000e+00  0.0000000000000000e+00 0.0000000000000000e+00 0.0000000000000000e+00  0.0000000000000000e+00 0.0000000000000000e+00 0.0000000000000000e+00  0.0000000000000000e+00 0.0000000000000000e+00 0.0000000000000000e+00  0.0000000000000000e+00 0.0000000000000000e+00 0.0000000000000000e+00  0.0000000000000000e+00 0.0000000000000000e+00 0.0000000000000000e+00  0.0000000000000000e+00 0.0000000000000000e+00 0.0000000000000000e+00  0.0000000000000000e+00 0.0000000000000000e+00 0.0000000000000000e+00  0.0000000000000000e+00 0.0000000000000000e+00 0.0000000000000000e+00  0.0000000000000000e+00 0.0000000000000000e+00 0.0000000000000000e+00  0.0000000000000000e+00 0.0000000000000000e+00 0.0000000000000000e+00  0.0000000000000000e+00 0.0000000000000000e+00 0.0000000000000000e+00  0.0000000000000000e+00 0.0000000000000000e+00 0.0000000000000000e+00  0.0000000000000000e+00 0.0000000000000000e+00 0.0000000000000000e+00  0.0000000000000000e+00 0.0000000000000000e+00 0.0000000000000000e+00  0.0000000000000000e+00 0.0000000000000000e+00 0.0000000000000000e+00  0.0000000000000000e+00 0.0000000000000000e+00 0.0000000000000000e+00  0.0000000000000000e+00 0.0000000000000000e+00 0.0000000000000000e+00  0.0000000000000000e+00 0.0000000000000000e+00 0.0000000000000000e+00  0.0000000000000000e+00 0.0000000000000000e+00 0.0000000000000000e+00  2.4084929668666544e-01 1.7367259883442569e-03 0.0000000000000000e+00  1.8497430167139478e-01 -3.2409360138786704e-04 0.0000000000000000e+00  2.3966191189598987e-01 -2.5050986676759023e-03 0.0000000000000000e+00  0.0000000000000000e+00 0.0000000000000000e+00 0.0000000000000000e+00  0.0000000000000000e+00 0.0000000000000000e+00 0.0000000000000000e+00  0.0000000000000000e+00 0.0000000000000000e+00 0.0000000000000000e+00  0.0000000000000000e+00 0.0000000000000000e+00 0.0000000000000000e+00  0.0000000000000000e+00 0.0000000000000000e+00 0.0000000000000000e+00  0.0000000000000000e+00 0.0000000000000000e+00 0.0000000000000000e+00  0.0000000000000000e+00 0.0000000000000000e+00 0.0000000000000000e+00  0.0000000000000000e+00 0.0000000000000000e+00 0.0000000000000000e+00  0.0000000000000000e+00 0.0000000000000000e+00 0.0000000000000000e+00  0.0000000000000000e+00 0.0000000000000000e+00 0.0000000000000000e+00  0.0000000000000000e+00 0.0000000000000000e+00 0.0000000000000000e+00  0.0000000000000000e+00 0.0000000000000000e+00 0.0000000000000000e+00  0.0000000000000000e+00 0.0000000000000000e+00 0.0000000000000000e+00  0.0000000000000000e+00 0.0000000000000000e+00 0.0000000000000000e+00  0.0000000000000000e+00 0.0000000000000000e+00 0.0000000000000000e+00  0.0000000000000000e+00 0.0000000000000000e+00 0.0000000000000000e+00  0.0000000000000000e+00 0.0000000000000000e+00 0.0000000000000000e+00  0.0000000000000000e+00 0.0000000000000000e+00 0.0000000000000000e+00  0.0000000000000000e+00 0.0000000000000000e+00 0.0000000000000000e+00  0.0000000000000000e+00 0.0000000000000000e+00 0.0000000000000000e+00  0.0000000000000000e+00 0.0000000000000000e+00 0.0000000000000000e+00  0.0000000000000000e+00 0.0000000000000000e+00 0.0000000000000000e+00  0.0000000000000000e+00 0.0000000000000000e+00 0.0000000000000000e+00  0.0000000000000000e+00 0.0000000000000000e+00 0.0000000000000000e+00  0.0000000000000000e+00 0.0000000000000000e+00 0.0000000000000000e+00  0.0000000000000000e+00 0.0000000000000000e+00 0.0000000000000000e+00  0.0000000000000000e+00 0.0000000000000000e+00 0.0000000000000000e+00  0.0000000000000000e+00 0.0000000000000000e+00 0.0000000000000000e+00  0.0000000000000000e+00 0.0000000000000000e+00 0.0000000000000000e+00  0.0000000000000000e+00 0.0000000000000000e+00 0.0000000000000000e+00  0.0000000000000000e+00 0.0000000000000000e+00 0.0000000000000000e+00  0.0000000000000000e+00 0.0000000000000000e+00 0.0000000000000000e+00  0.0000000000000000e+00 0.0000000000000000e+00 0.0000000000000000e+00  0.0000000000000000e+00 0.0000000000000000e+00 0.0000000000000000e+00  0.0000000000000000e+00 0.0000000000000000e+00 0.0000000000000000e+00  0.0000000000000000e+00 0.0000000000000000e+00 0.0000000000000000e+00  0.0000000000000000e+00 0.0000000000000000e+00 0.0000000000000000e+00  0.0000000000000000e+00 0.0000000000000000e+00 0.0000000000000000e+00  0.0000000000000000e+00 0.0000000000000000e+00 0.0000000000000000e+00  0.0000000000000000e+00 0.0000000000000000e+00 0.0000000000000000e+00  0.0000000000000000e+00 0.0000000000000000e+00 0.0000000000000000e+00  0.0000000000000000e+00 0.0000000000000000e+00 0.0000000000000000e+00  0.0000000000000000e+00 0.0000000000000000e+00 0.0000000000000000e+00  0.0000000000000000e+00 0.0000000000000000e+00 0.0000000000000000e+00  0.0000000000000000e+00 0.0000000000000000e+00 0.0000000000000000e+00  0.0000000000000000e+00 0.0000000000000000e+00 0.0000000000000000e+00  0.0000000000000000e+00 0.0000000000000000e+00 0.0000000000000000e+00  0.0000000000000000e+00 0.0000000000000000e+00 0.0000000000000000e+00  0.0000000000000000e+00 0.0000000000000000e+00 0.0000000000000000e+00  0.0000000000000000e+00 0.0000000000000000e+00 0.0000000000000000e+00  0.0000000000000000e+00 0.0000000000000000e+00 0.0000000000000000e+00  0.0000000000000000e+00 0.0000000000000000e+00 0.0000000000000000e+00  0.0000000000000000e+00 0.0000000000000000e+00 0.0000000000000000e+00  0.0000000000000000e+00 0.0000000000000000e+00 0.0000000000000000e+00  0.0000000000000000e+00 0.0000000000000000e+00 0.0000000000000000e+00  0.0000000000000000e+00 0.0000000000000000e+00 0.0000000000000000e+00  0.0000000000000000e+00 0.0000000000000000e+00 0.0000000000000000e+00  0.0000000000000000e+00 0.0000000000000000e+00 0.0000000000000000e+00  0.0000000000000000e+00 0.0000000000000000e+00 0.0000000000000000e+00  0.0000000000000000e+00 0.0000000000000000e+00 0.0000000000000000e+00  0.0000000000000000e+00 0.0000000000000000e+00 0.0000000000000000e+00  0.0000000000000000e+00 0.0000000000000000e+00 0.0000000000000000e+00  0.0000000000000000e+00 0.0000000000000000e+00 0.0000000000000000e+00  0.0000000000000000e+00 0.0000000000000000e+00 0.0000000000000000e+00  0.0000000000000000e+00 0.0000000000000000e+00 0.0000000000000000e+00  0.0000000000000000e+00 0.0000000000000000e+00 0.0000000000000000e+00  0.0000000000000000e+00 0.0000000000000000e+00 0.0000000000000000e+00  0.0000000000000000e+00 0.0000000000000000e+00 0.0000000000000000e+00  0.0000000000000000e+00 0.0000000000000000e+00 0.0000000000000000e+00  0.0000000000000000e+00 0.0000000000000000e+00 0.0000000000000000e+00  0.0000000000000000e+00 0.0000000000000000e+00 0.0000000000000000e+00  0.0000000000000000e+00 0.0000000000000000e+00 0.0000000000000000e+00  0.0000000000000000e+00 0.0000000000000000e+00 0.0000000000000000e+00  0.0000000000000000e+00 0.0000000000000000e+00 0.0000000000000000e+00  0.0000000000000000e+00 0.0000000000000000e+00 0.0000000000000000e+00  0.0000000000000000e+00 0.0000000000000000e+00 0.0000000000000000e+00  0.0000000000000000e+00 0.0000000000000000e+00 0.0000000000000000e+00  0.0000000000000000e+00 0.0000000000000000e+00 0.0000000000000000e+00  1.8082525874853316e-06 -6.2134460149108848e-06 0.0000000000000000e+00  3.9650664375732038e-06 -7.8564741787806376e-06 0.0000000000000000e+00  6.2917591240664438e-06 -9.9903932080290278e-06 0.0000000000000000e+00  8.8450059162330025e-06 -1.2785419512566011e-05 0.0000000000000000e+00  1.1240352418333791e-05 -1.6277420078558544e-05 0.0000000000000000e+00  1.3720045531864639e-05 -2.0584786646827889e-05 0.0000000000000000e+00  1.5945527202156294e-05 -2.5456761567605899e-05 0.0000000000000000e+00  1.8079331198928337e-05 -3.1082627175815918e-05 0.0000000000000000e+00  2.0296009631066069e-05 -3.7291120086896955e-05 0.0000000000000000e+00  2.2202164768522948e-05 -4.4074531420376181e-05 0.0000000000000000e+00  2.4209913930027521e-05 -5.1486705314689562e-05 0.0000000000000000e+00  2.5917729737889622e-05 -5.9401634465546483e-05 0.0000000000000000e+00  2.7671351066160219e-05 -6.7865720035470553e-05 0.0000000000000000e+00  2.9200975763606398e-05 -7.6753941037405676e-05 0.0000000000000000e+00  3.0626505142455996e-05 -8.6158069352351916e-05 0.0000000000000000e+00  3.2077437647577369e-05 -9.5971271314613401e-05 0.0000000000000000e+00  3.3279480120799662e-05 -1.0615437204202968e-04 0.0000000000000000e+00  3.4509904873859725e-05 -1.1677504043987379e-04 0.0000000000000000e+00  3.5510716296582355e-05 -1.2769362857485182e-04 0.0000000000000000e+00  3.6520623340262920e-05 -1.3898590737419488e-04 0.0000000000000000e+00  3.7346470503905813e-05 -1.5054417109425995e-04 0.0000000000000000e+00  3.8130661488334644e-05 -1.6242791907026782e-04 0.0000000000000000e+00  3.8769584277483425e-05 -1.7452860000132086e-04 0.0000000000000000e+00  3.9309447236670366e-05 -1.8690278786440316e-04 0.0000000000000000e+00  3.9826440577509887e-05 -1.9948301874747991e-04 0.0000000000000000e+00  4.0193667571984128e-05 -2.1225230748905398e-04 0.0000000000000000e+00  4.0485894299266988e-05 -2.2525967081853788e-04 0.0000000000000000e+00  4.0669624747320513e-05 -2.3838019545636057e-04 0.0000000000000000e+00  4.0776608334020409e-05 -2.5170951589156116e-04 0.0000000000000000e+00  4.0781716821493732e-05 -2.6512550765108838e-04 0.0000000000000000e+00  4.0708866477956622e-05 -2.7871815822256364e-04 0.0000000000000000e+00  4.0537131009123195e-05 -2.9236894824505685e-04 0.0000000000000000e+00  4.0289436465276058e-05 -3.0616990087060605e-04 0.0000000000000000e+00  3.9944398054342515e-05 -3.2000139462288319e-04 0.0000000000000000e+00  3.9519027576852205e-05 -3.3396456313092608e-04 0.0000000000000000e+00  3.9003764148728796e-05 -3.4793927615152744e-04 0.0000000000000000e+00  3.8410592782041911e-05 -3.6202052916712668e-04 0.0000000000000000e+00  3.7729771030957441e-05 -3.7609704697531349e-04 0.0000000000000000e+00  3.6968175896235168e-05 -3.9026291213185935e-04 0.0000000000000000e+00  3.6117736379037140e-05 -4.0440966190119553e-04 0.0000000000000000e+00  3.5175887474279627e-05 -4.1861509031714407e-04 0.0000000000000000e+00  3.4165530773547647e-05 -4.3281826211245524e-04 0.0000000000000000e+00  3.3060227621350606e-05 -4.4704502958355514e-04 0.0000000000000000e+00  3.1905625231999915e-05 -4.6127810326874444e-04 0.0000000000000000e+00  3.0651375974054673e-05 -4.7548898133530868e-04 0.0000000000000000e+00  2.9362169448153369e-05 -4.8976949264469254e-04 0.0000000000000000e+00  1.8099353127324776e-05 -5.0298709451802740e-04 0.0000000000000000e+00  -1.1183543335645551e-06 -5.0030034434254348e-04 0.0000000000000000e+00  -9.0902182479040557e-06 -4.8478831254341128e-04 0.0000000000000000e+00  -7.7654664744259159e-06 -4.7035412448801427e-04 0.0000000000000000e+00  -6.4809609246142103e-06 -4.5588371876281237e-04 0.0000000000000000e+00  -5.2820406169333223e-06 -4.4145787253672345e-04 0.0000000000000000e+00  -4.1341783529079359e-06 -4.2704392707074634e-04 0.0000000000000000e+00  -3.0749913920284140e-06 -4.1265059876101589e-04 0.0000000000000000e+00  -2.0639908167307321e-06 -3.9828975427952721e-04 0.0000000000000000e+00  -1.1403130539045644e-06 -3.8392788199658655e-04 0.0000000000000000e+00  -2.7039356559176002e-07 -3.6964228502753944e-04 0.0000000000000000e+00  5.2156071241985423e-07 -3.5534987043076596e-04 0.0000000000000000e+00  1.2689453326332210e-06 -3.4114976362101506e-04 0.0000000000000000e+00  1.9351470010520303e-06 -3.2696023334563085e-04 0.0000000000000000e+00  2.5655921481346850e-06 -3.1288165498585856e-04 0.0000000000000000e+00  3.1125750644850490e-06 -2.9883578807193080e-04 0.0000000000000000e+00  3.6349931958733201e-06 -2.8492003383418706e-04 0.0000000000000000e+00  4.0679428287399913e-06 -2.7105988077478750e-04 0.0000000000000000e+00  4.4872925094421233e-06 -2.5735253787405028e-04 0.0000000000000000e+00  4.8102731770840214e-06 -2.4372718985866498e-04 0.0000000000000000e+00  5.1318590982268274e-06 -2.3028436121384253e-04 0.0000000000000000e+00  5.3499305787573965e-06 -2.1695564466971411e-04 0.0000000000000000e+00  5.5815846099118712e-06 -2.0383958556012267e-04 0.0000000000000000e+00  5.7005574210355531e-06 -1.9087342486342543e-04 0.0000000000000000e+00  5.8327406553689276e-06 -1.7814106723159547e-04 0.0000000000000000e+00  5.8739825318096028e-06 -1.6560127563530817e-04 0.0000000000000000e+00  5.8556623149675242e-06 -1.5334717855175673e-04 0.0000000000000000e+00  5.8750474192288359e-06 -1.4130857852691855e-04 0.0000000000000000e+00  5.7927607075519526e-06 -1.2956364022107607e-04 0.0000000000000000e+00  5.7083747409690011e-06 -1.1814804339369296e-04 0.0000000000000000e+00  5.5485377925502226e-06 -1.0703094223816192e-04 0.0000000000000000e+00  5.3849268222377596e-06 -9.6300053795242657e-05 0.0000000000000000e+00  5.1468753224867939e-06 -8.5900057093926891e-05 0.0000000000000000e+00  4.9451744308562710e-06 -7.5977853903114214e-05 0.0000000000000000e+00  4.6222797125835810e-06 -6.6400715499543878e-05 0.0000000000000000e+00  4.2494001458540306e-06 -5.7368822785296997e-05 0.0000000000000000e+00  3.9724615507843501e-06 -4.8724152259260867e-05 0.0000000000000000e+00  3.5767845815161951e-06 -4.0641071781014962e-05 0.0000000000000000e+00  3.2049679911192320e-06 -3.3119883035050699e-05 0.0000000000000000e+00  2.7459633222138875e-06 -2.6133610400360179e-05 0.0000000000000000e+00  2.3705211484261275e-06 -1.9837775846845953e-05 0.0000000000000000e+00  1.8381081550303476e-06 -1.4068587253809937e-05 0.0000000000000000e+00  1.2670258314460957e-06 -9.0826455068918069e-06 0.0000000000000000e+00  8.6038248532285671e-07 -4.6673509164414691e-06 0.0000000000000000e+00  3.1457563482077195e-07 -1.0033807634211931e-06 0.0000000000000000e+00  -2.5576949969165753e-08 1.8732611519537870e-06 0.0000000000000000e+00  -3.6013446030751406e-07 3.7816507996010830e-06 0.0000000000000000e+00  -2.3509028180543210e-07 4.5709727268626839e-06 0.0000000000000000e+00  3.3166337469416997e-07 -8.8173240865806159e-07 0.0000000000000000e+00  1.0836934364092119e-05 -4.8008882731472496e-04 0.0000000000000000e+00  1.3523196241119005e-05 -4.5269799187891988e-04 0.0000000000000000e+00  1.6723393115820752e-05 -4.0799492639059332e-04 0.0000000000000000e+00  3.7831822087450170e-06 -4.8764892573771348e-06 0.0000000000000000e+00  1.8242068509664781e-05 -3.7995287648505220e-04 0.0000000000000000e+00  6.5546044312409364e-06 -1.1651862401637491e-05 0.0000000000000000e+00  1.9723391086746288e-05 -3.5157323444650983e-04 0.0000000000000000e+00  1.0753450031913943e-05 -2.8282568495360529e-05 0.0000000000000000e+00  1.3230460994040179e-05 -4.1899241103717293e-05 0.0000000000000000e+00  2.0913622203729401e-05 -3.2339668848079792e-04 0.0000000000000000e+00  1.7993415425004149e-05 -8.6019764743011136e-05 0.0000000000000000e+00  2.2434808976006012e-05 -2.6797072334259760e-04 0.0000000000000000e+00  1.5174210152018775e-05 -5.7173273331957684e-05 0.0000000000000000e+00  1.9608718185396400e-05 -1.0628119616012026e-04 0.0000000000000000e+00  2.2770954740022654e-05 -2.4091021578328189e-04 0.0000000000000000e+00  2.1816514003442513e-05 -2.9549982214597230e-04 0.0000000000000000e+00  2.0813904862962552e-05 -1.2834713361627897e-04 0.0000000000000000e+00  2.2824695729574639e-05 -2.1443767393021629e-04 0.0000000000000000e+00  2.1507032839682592e-05 -1.5065632465994716e-04 0.0000000000000000e+00  2.2831289332548235e-05 -1.8925818968806873e-04 0.0000000000000000e+00  2.2198698146029255e-05 -1.6893644897388000e-04 0.0000000000000000e+00  1.6761635474132914e-05 -7.0560568877743498e-05 0.0000000000000000e+00  1.4780522375559828e-05 -4.3116972835746149e-04 0.0000000000000000e+00  8.6972034358568833e-06 -1.9008702162593719e-05 0.0000000000000000e+00  5.4989224654259750e-06 -4.6538303025248269e-04 0.0000000000000000e+00  1.1854929919866579e-06 -3.0691061225489110e-07 0.0000000000000000e+00  1.3503407854650261e-05 -3.6479210833654548e-04 0.0000000000000000e+00  1.1847517222468129e-05 -3.9329499355465579e-04 0.0000000000000000e+00  6.9234096992279554e-06 -1.0219550391183865e-05 0.0000000000000000e+00  1.4716456579591413e-05 -3.6360581559768506e-05 0.0000000000000000e+00  1.6816163070094696e-05 -2.8059502511673066e-04 0.0000000000000000e+00  1.4880299423079450e-05 -3.3645812595777289e-04 0.0000000000000000e+00  2.2895006285475880e-05 -9.7261885709975322e-05 0.0000000000000000e+00  1.7386923611755686e-05 -2.5324138316071802e-04 0.0000000000000000e+00  1.7429628236079805e-05 -5.1264496333036176e-05 0.0000000000000000e+00  2.4513547468351273e-05 -1.1857959410876145e-04 0.0000000000000000e+00  1.7697343263214975e-05 -2.2641505653690959e-04 0.0000000000000000e+00  1.5982184795288115e-05 -3.0836462988674535e-04 0.0000000000000000e+00  2.6816302428368619e-05 -1.4142743454105666e-04 0.0000000000000000e+00  1.7750734566536058e-05 -2.0024087327538863e-04 0.0000000000000000e+00  -3.0659307631716903e-07 -1.4859906838526170e-06 0.0000000000000000e+00  -6.4746794318643398e-07 1.0259376616545385e-06 0.0000000000000000e+00  1.4128274778792087e-05 -4.9196130253819574e-04 0.0000000000000000e+00  3.2388235086432698e-06 -4.9821292926189872e-06 0.00000000000000