<?xml version="1.0"?>
<VTKFile type="UnstructuredGrid"  version="0.1"  >
<UnstructuredGrid>
<Piece  NumberOfPoints="1419" NumberOfCells="2698">
<Points>
<DataArray  type="Float64"  NumberOfComponents="3"  format="ascii">0 0 0  0 0.41 0  2.5 0 0  2.5 0.41 0  0.6 0.19 0  0.6 0.21 0  0.25 0.2 0  0.15 0.2 0  0.2489897948556636 0.21 0  0.2489897948556636 0.19 0  0.6 0.2 0  0 0.3807142857143437 0  0 0.3514285714286952 0  0 0.3221428571430699 0  0 0.29285714285744 0  0 0.2635714285718054 0  0 0.2342857142861561 0  0 0.2050000000005308 0  0 0.175714285714732 0  0 0.1464285714289574 0  0 0.1171428571431897 0  0 0.08785714285737878 0  0 0.05857142857161107 0  0 0.02928571428580012 0  0.03015443760436003 0 0  0.06140001986583606 0 0  0.09377624077125973 0 0  0.1273239957535082 0 0  0.1620856860351972 0 0  0.1981052433264291 0 0  0.235428184091502 0 0  0.2741016576309132 0 0  0.3141745521465447 0 0  0.3556974926295285 0 0  0.3987229542472677 0 0  0.4433053055141081 0 0  0.4895008759286886 0 0  0.5373680609405097 0 0  0.5869673343216626 0 0  0.6383613676634521 0 0  0.6916151138468254 0 0  0.7467958595648856 0 0  0.8039733463919316 0 0  0.8632198139502143 0 0  0.9246101326867038 0 0  0.9882218810934433 0 0  1.054135445558498 0 0  1.122434100542598 0 0  1.193204177141305 0 0  1.266535089879536 0 0  1.342519516046404 0 0  1.421253448503939 0 0  1.502836389106271 0 0  1.587371439758838 0 0  1.674965418777374 0 0  1.765729001825544 0 0  1.859776908880082 0 0  1.957227977487062 0 0  2.058205329869943 0 0  2.162836591189951 0 0  2.271253957290865 0 0  2.383594446803425 0 0  2.5 0.1024999999997612 0  2.5 0.2049999999994743 0  2.5 0.3074999999997183 0  2.383594446803656 0.41 0  2.271253957291315 0.41 0  2.162836591190598 0.41 0  2.058205329870775 0.41 0  1.957227977488067 0.41 0  1.859776908881246 0.41 0  1.765729001826854 0.41 0  1.674965418778818 0.41 0  1.58737143976041 0.41 0  1.502836389107956 0.41 0  1.421253448505726 0.41 0  1.342519516048286 0.41 0  1.266535089881505 0.41 0  1.193204177143353 0.41 0  1.122434100544716 0.41 0  1.05413544556068 0.41 0  0.9882218810956305 0.41 0  0.9246101326886647 0.41 0  0.8632198139519631 0.41 0  0.8039733463934788 0.41 0  0.7467958595662458 0.41 0  0.6916151138480078 0.41 0  0.6383613676644679 0.41 0  0.5869673343225223 0.41 0  0.5373680609412221 0.41 0  0.4895008759292634 0.41 0  0.4433053055145528 0.41 0  0.3987229542475914 0.41 0  0.3556974926297398 0.41 0  0.3141745521466497 0.41 0  0.2741016576310038 0.41 0  0.2354281840915826 0.41 0  0.1981052433265003 0.41 0  0.1620856860352591 0.41 0  0.1273239957535623 0.41 0  0.09377624077128965 0.41 0  0.06140001986584975 0.41 0  0.03015443760436654 0.41 0  0.2497468076502589 0.2050254481002335 0  0.2497468076502614 0.1949745518997913 0  0.2469965252529372 0.1829317073451959 0  0.2439893735792749 0.1762316384219906 0  0.2400332147834255 0.1700443375285386 0  0.2352133972704371 0.1645032867342007 0  0.2296339016332438 0.1597280261969788 0  0.2234150974217223 0.1558215752574715 0  0.2166911463437691 0.1528682099456123 0  0.2096071079204251 0.1509316448471593 0  0.2023158100364996 0.1500536585536553 0  0.194974551899914 0.1502531923497262 0  0.1877417105387872 0.1515259415822739 0  0.1807733240461124 0.153844448527136 0  0.1742197252835808 0.15715869474974 0  0.1682222986673531 0.1613971801805478 0  0.162910430003803 0.1664684656256651 0  0.1583987151779087 0.1722631454351573 0  0.1547844879126891 0.178656207771761 0  0.1521457199348551 0.1855097315605723 0  0.1505393388476355 0.1926758619366523 0  0.1505393388476328 0.2073241380633295 0  0.1521457199348437 0.2144902684393899 0  0.1547844879126531 0.221343792228163 0  0.1583987151778488 0.2277368545647528 0  0.1629104300036858 0.2335315343742052 0  0.1682222986671726 0.2386028198193036 0  0.1742197252833576 0.2428413052501257 0  0.1807733240458683 0.2461555514727623 0  0.1877417105384929 0.2484740584176516 0  0.1949745518995776 0.2497468076502398 0  0.202315810036185 0.2499463414463592 0  0.2096071079201568 0.2490683551528932 0  0.2166911463435495 0.2471317900544655 0  0.2234150974215506 0.2441784247426195 0  0.2296339016331197 0.2402719738031125 0  0.2352133972703547 0.2354967132658811 0  0.2400332147833751 0.2299556624715287 0  0.2439893735792577 0.2237683615780412 0  0.246996525252926 0.2170682926548348 0  0.25645809709277 0.21 0  0.2639263993298655 0.21 0  0.271394701566961 0.21 0  0.2788630038040554 0.21 0  0.2863313060411479 0.21 0  0.2937996082782405 0.21 0  0.301267910515333 0.21 0  0.3087362127524279 0.21 0  0.3162045149895234 0.21 0  0.3236728172265972 0.21 0  0.3311411194636928 0.21 0  0.3386094217007701 0.21 0  0.3460777239378666 0.21 0  0.3535460261749672 0.21 0  0.3610143284120516 0.21 0  0.3684826306491596 0.21 0  0.3759509328862226 0.21 0  0.383419235123329 0.21 0  0.3908875373604028 0.21 0  0.3983558395975142 0.21 0  0.4058241418345938 0.21 0  0.4132924440716992 0.21 0  0.4207607463087888 0.21 0  0.4282290485459029 0.21 0  0.4356973507830418 0.21 0  0.4431656530201649 0.21 0  0.4506339552573136 0.21 0  0.4581022574944306 0.21 0  0.4655705597315852 0.21 0  0.4730388619686996 0.21 0  0.480507164205851 0.21 0  0.4879754664429498 0.21 0  0.4954437686800938 0.21 0  0.502912070917267 0.21 0  0.5103803731544119 0.21 0  0.5178486753915261 0.21 0  0.5253169776286404 0.21 0  0.5327852798657868 0.21 0  0.5402535821029386 0.21 0  0.54772188434007 0.21 0  0.5551901865771842 0.21 0  0.5626584888143201 0.21 0  0.5701267910514778 0.21 0  0.5775950932886138 0.21 0  0.5850633955257281 0.21 0  0.5925316977628483 0.21 0  0.6 0.2050000000000054 0  0.6 0.1950000000000217 0  0.5925316977628897 0.19 0  0.5850633955257988 0.19 0  0.5775950932887378 0.19 0  0.5701267910515998 0.19 0  0.5626584888145268 0.19 0  0.5551901865773963 0.19 0  0.547721884340339 0.19 0  0.5402535821032429 0.19 0  0.5327852798661811 0.19 0  0.5253169776290537 0.19 0  0.5178486753919799 0.19 0  0.5103803731549078 0.19 0  0.502912070917822 0.19 0  0.4954437686807294 0.19 0  0.4879754664436223 0.19 0  0.4805071642065402 0.19 0  0.4730388619694271 0.19 0  0.4655705597323621 0.19 0  0.4581022574952563 0.19 0  0.4506339552581777 0.19 0  0.4431656530210671 0.19 0  0.4356973507839815 0.19 0  0.4282290485468779 0.19 0  0.4207607463097617 0.19 0  0.4132924440726327 0.19 0  0.4058241418354857 0.19 0  0.3983558395983636 0.19 0  0.3908875373612097 0.19 0  0.3834192351240934 0.19 0  0.3759509328869369 0.19 0  0.3684826306498175 0.19 0  0.361014328412667 0.19 0  0.3535460261755617 0.19 0  0.3460777239384295 0.19 0  0.3386094217012945 0.19 0  0.3311411194641595 0.19 0  0.3236728172270245 0.19 0  0.3162045149898895 0.19 0  0.3087362127527544 0.19 0  0.3012679105156187 0.19 0  0.2937996082784807 0.19 0  0.2863313060413428 0.19 0  0.2788630038042048 0.19 0  0.2713947015670686 0.19 0  0.2639263993299336 0.19 0  0.2564580970927985 0.19 0  0.2607803159922026 0.2000727136295815 0  0.5887803774232762 0.2001272386983733 0  0.5745072403740523 0.2002044435018727 0  0.5511891430099709 0.2001122610077113 0  0.2751288526855082 0.20000000000002 0  0.5365194309847112 0.1999999999999436 0  0.2894621222999649 0.1998691686390484 0  0.5215828265105155 0.1999999999999228 0  0.3127789816668748 0.1998657885438805 0  0.3274069683451451 0.2000000000000796 0  0.5066462220363641 0.199999999999908 0  0.3650630746574081 0.199866017807523 0  0.476773013087985 0.1999999999998713 0  0.3417402379596385 0.1998691686391011 0  0.3796850840047755 0.200000000000134 0  0.4618364086138087 0.1999999999998546 0  0.4917096175621762 0.1999999999998808 0  0.3946216884789568 0.2000000000001512 0  0.446899804139621 0.1999999999998389 0  0.4089549580935208 0.1998691686391595 0  0.4322718174608562 0.200127451265745 0  0.4201487168029707 0.1999966199048527 0  0.3528922713220932 0.2000185703532356 0  0.5633122436674589 0.1999814296467508 0  0.3006558810093873 0.1999966199048318 0  0.5815926498168407 0.1966545283159175 0  0.2677053789419034 0.1964246479135325 0  0.5290511287476175 0.1970915826863981 0  0.5439877332217911 0.197091582686394 0  0.2825131256993216 0.2035478995978015 0  0.3199386661080599 0.202908417313604 0  0.4842413153250809 0.1970915826863873 0  0.5141145242734466 0.1970915826863843 0  0.3722167817676917 0.2029084173136195 0  0.4693047108508938 0.1970915826863783 0  0.3348752705822316 0.202908417313609 0  0.3871533862418661 0.2029084173136212 0  0.4543681063767183 0.1970915826863795 0  0.4991779197992749 0.1970915826863902 0  0.4020059614928624 0.203547899597858 0  0.4394315019025246 0.1970915826863714 0  0.2550657455369551 0.2034088125358657 0  0.2548908499171161 0.1966940311614271 0  0.5946539510196798 0.2024302972968126 0  0.267698176732111 0.2039977513680092 0  0.4261685417851465 0.196409292431739 0  0.3590076176283495 0.196411355804271 0  0.5571672426447437 0.2036011176410121 0  0.3066757059912147 0.1964092924317024 0  0.594380730180568 0.1966558399668133 0  0.4842413153245942 0.2040749161535287 0  0.4693047108503577 0.2040749161535231 0  0.3871533862424271 0.1959250838464788 0  0.372246743208829 0.1959123236376545 0  0.5141145242731028 0.2040749161535395 0  0.4543681063761134 0.2040749161535186 0  0.4019979587101454 0.1959834479682427 0  0.4394608940728603 0.2040870543693135 0  0.5439623148931173 0.2040856076781014 0  0.5290511287473298 0.2040749161535501 0  0.4991779197988497 0.2040749161535382 0  0.3347912413592433 0.1959225448935183 0  0.3199680582793816 0.1959123018030061 0  0.2825051229162361 0.1959834479681729 0  0.3590471196690275 0.2036304442587945 0  0.5571594006495384 0.1963685282145804 0  0.3067669986803285 0.203627750582736 0  0.4262598344738712 0.2036568242185335 0  0.5814408164431408 0.2041285596160068 0  0.5688286748170428 0.1961819304477386 0  0.4145905603063645 0.2038180695522843 0  0.3473758401724931 0.2038180695522752 0  0.2950977245128307 0.2038180695522663 0  0.5688286748170693 0.203818069552238 0  0.2950977245127906 0.1961819304477774 0  0.3473758401723931 0.1961819304478349 0  0.4145905603061963 0.1961819304479011 0  0.2601812407614425 0.2056861609747042
[...]
<PointData  Vectors="f_40-0"> 
<DataArray  type="Float64"  Name="f_40-0"  NumberOfComponents="3" format="ascii">0.0000000000000000e+00 0.0000000000000000e+00 0.0000000000000000e+00  0.0000000000000000e+00 0.0000000000000000e+00 0.0000000000000000e+00  0.0000000000000000e+00 0.0000000000000000e+00 0.0000000000000000e+00  0.0000000000000000e+00 0.0000000000000000e+00 0.0000000000000000e+00  -5.4679504697626911e-06 -8.9914131128567215e-04 0.0000000000000000e+00  6.3645680948676940e-05 -9.0355831994345026e-04 0.0000000000000000e+00  0.0000000000000000e+00 0.0000000000000000e+00 0.0000000000000000e+00  0.0000000000000000e+00 0.0000000000000000e+00 0.0000000000000000e+00  0.0000000000000000e+00 0.0000000000000000e+00 0.0000000000000000e+00  0.0000000000000000e+00 0.0000000000000000e+00 0.0000000000000000e+00  2.8566570143731262e-05 -9.0133762303380932e-04 0.0000000000000000e+00  1.4967514048877134e-01 0.0000000000000000e+00 0.0000000000000000e+00  2.7632333628698080e-01 0.0000000000000000e+00 0.0000000000000000e+00  3.7994458739459869e-01 0.0000000000000000e+00 0.0000000000000000e+00  4.6053889381174490e-01 0.0000000000000000e+00 0.0000000000000000e+00  5.1810625553840917e-01 0.0000000000000000e+00 0.0000000000000000e+00  5.5264667257458766e-01 0.0000000000000000e+00 0.0000000000000000e+00  5.6416014492024624e-01 0.0000000000000000e+00 0.0000000000000000e+00  5.5264667257528599e-01 0.0000000000000000e+00 0.0000000000000000e+00  5.1810625553960854e-01 0.0000000000000000e+00 0.0000000000000000e+00  4.6053889381323043e-01 0.0000000000000000e+00 0.0000000000000000e+00  3.7994458739600989e-01 0.0000000000000000e+00 0.0000000000000000e+00  2.7632333628818506e-01 0.0000000000000000e+00 0.0000000000000000e+00  1.4967514048944988e-01 0.0000000000000000e+00 0.0000000000000000e+00  0.0000000000000000e+00 0.0000000000000000e+00 0.0000000000000000e+00  0.0000000000000000e+00 0.0000000000000000e+00 0.0000000000000000e+00  0.0000000000000000e+00 0.0000000000000000e+00 0.0000000000000000e+00  0.0000000000000000e+00 0.0000000000000000e+00 0.0000000000000000e+00  0.0000000000000000e+00 0.0000000000000000e+00 0.0000000000000000e+00  0.0000000000000000e+00 0.0000000000000000e+00 0.0000000000000000e+00  0.0000000000000000e+00 0.0000000000000000e+00 0.0000000000000000e+00  0.0000000000000000e+00 0.0000000000000000e+00 0.0000000000000000e+00  0.0000000000000000e+00 0.0000000000000000e+00 0.0000000000000000e+00  0.0000000000000000e+00 0.0000000000000000e+00 0.0000000000000000e+00  0.0000000000000000e+00 0.0000000000000000e+00 0.0000000000000000e+00  0.0000000000000000e+00 0.0000000000000000e+00 0.0000000000000000e+00  0.0000000000000000e+00 0.0000000000000000e+00 0.0000000000000000e+00  0.0000000000000000e+00 0.0000000000000000e+00 0.0000000000000000e+00  0.0000000000000000e+00 0.0000000000000000e+00 0.0000000000000000e+00  0.0000000000000000e+00 0.0000000000000000e+00 0.0000000000000000e+00  0.0000000000000000e+00 0.0000000000000000e+00 0.0000000000000000e+00  0.0000000000000000e+00 0.0000000000000000e+00 0.0000000000000000e+00  0.0000000000000000e+00 0.0000000000000000e+00 0.0000000000000000e+00  0.0000000000000000e+00 0.0000000000000000e+00 0.0000000000000000e+00  0.0000000000000000e+00 0.0000000000000000e+00 0.0000000000000000e+00  0.0000000000000000e+00 0.0000000000000000e+00 0.0000000000000000e+00  0.0000000000000000e+00 0.0000000000000000e+00 0.0000000000000000e+00  0.0000000000000000e+00 0.0000000000000000e+00 0.0000000000000000e+00  0.0000000000000000e+00 0.0000000000000000e+00 0.0000000000000000e+00  0.0000000000000000e+00 0.0000000000000000e+00 0.0000000000000000e+00  0.0000000000000000e+00 0.0000000000000000e+00 0.0000000000000000e+00  0.0000000000000000e+00 0.0000000000000000e+00 0.0000000000000000e+00  0.0000000000000000e+00 0.0000000000000000e+00 0.0000000000000000e+00  0.0000000000000000e+00 0.0000000000000000e+00 0.0000000000000000e+00  0.0000000000000000e+00 0.0000000000000000e+00 0.0000000000000000e+00  0.0000000000000000e+00 0.0000000000000000e+00 0.0000000000000000e+00  0.0000000000000000e+00 0.0000000000000000e+00 0.0000000000000000e+00  0.0000000000000000e+00 0.0000000000000000e+00 0.0000000000000000e+00  0.0000000000000000e+00 0.0000000000000000e+00 0.0000000000000000e+00  0.0000000000000000e+00 0.0000000000000000e+00 0.0000000000000000e+00  0.0000000000000000e+00 0.0000000000000000e+00 0.0000000000000000e+00  0.0000000000000000e+00 0.0000000000000000e+00 0.0000000000000000e+00  4.9665237600149820e-01 -4.1806141162125787e-03 0.0000000000000000e+00  3.6690510984121755e-01 9.9960795375191773e-04 0.0000000000000000e+00  4.9698741087801901e-01 4.1800601684426637e-03 0.0000000000000000e+00  0.0000000000000000e+00 0.0000000000000000e+00 0.0000000000000000e+00  0.0000000000000000e+00 0.0000000000000000e+00 0.0000000000000000e+00  0.0000000000000000e+00 0.0000000000000000e+00 0.0000000000000000e+00  0.0000000000000000e+00 0.0000000000000000e+00 0.0000000000000000e+00  0.0000000000000000e+00 0.0000000000000000e+00 0.0000000000000000e+00  0.0000000000000000e+00 0.0000000000000000e+00 0.0000000000000000e+00  0.0000000000000000e+00 0.0000000000000000e+00 0.0000000000000000e+00  0.0000000000000000e+00 0.0000000000000000e+00 0.0000000000000000e+00  0.0000000000000000e+00 0.0000000000000000e+00 0.0000000000000000e+00  0.0000000000000000e+00 0.0000000000000000e+00 0.0000000000000000e+00  0.0000000000000000e+00 0.0000000000000000e+00 0.0000000000000000e+00  0.0000000000000000e+00 0.0000000000000000e+00 0.0000000000000000e+00  0.0000000000000000e+00 0.0000000000000000e+00 0.0000000000000000e+00  0.0000000000000000e+00 0.0000000000000000e+00 0.0000000000000000e+00  0.0000000000000000e+00 0.0000000000000000e+00 0.0000000000000000e+00  0.0000000000000000e+00 0.0000000000000000e+00 0.0000000000000000e+00  0.0000000000000000e+00 0.0000000000000000e+00 0.0000000000000000e+00  0.0000000000000000e+00 0.0000000000000000e+00 0.0000000000000000e+00  0.0000000000000000e+00 0.0000000000000000e+00 0.0000000000000000e+00  0.0000000000000000e+00 0.0000000000000000e+00 0.0000000000000000e+00  0.0000000000000000e+00 0.0000000000000000e+00 0.0000000000000000e+00  0.0000000000000000e+00 0.0000000000000000e+00 0.0000000000000000e+00  0.0000000000000000e+00 0.0000000000000000e+00 0.0000000000000000e+00  0.0000000000000000e+00 0.0000000000000000e+00 0.0000000000000000e+00  0.0000000000000000e+00 0.0000000000000000e+00 0.0000000000000000e+00  0.0000000000000000e+00 0.0000000000000000e+00 0.0000000000000000e+00  0.0000000000000000e+00 0.0000000000000000e+00 0.0000000000000000e+00  0.0000000000000000e+00 0.0000000000000000e+00 0.0000000000000000e+00  0.0000000000000000e+00 0.0000000000000000e+00 0.0000000000000000e+00  0.0000000000000000e+00 0.0000000000000000e+00 0.0000000000000000e+00  0.0000000000000000e+00 0.0000000000000000e+00 0.0000000000000000e+00  0.0000000000000000e+00 0.0000000000000000e+00 0.0000000000000000e+00  0.0000000000000000e+00 0.0000000000000000e+00 0.0000000000000000e+00  0.0000000000000000e+00 0.0000000000000000e+00 0.0000000000000000e+00  0.0000000000000000e+00 0.0000000000000000e+00 0.0000000000000000e+00  0.0000000000000000e+00 0.0000000000000000e+00 0.0000000000000000e+00  0.0000000000000000e+00 0.0000000000000000e+00 0.0000000000000000e+00  0.0000000000000000e+00 0.0000000000000000e+00 0.0000000000000000e+00  0.0000000000000000e+00 0.0000000000000000e+00 0.0000000000000000e+00  0.0000000000000000e+00 0.0000000000000000e+00 0.0000000000000000e+00  0.0000000000000000e+00 0.0000000000000000e+00 0.0000000000000000e+00  0.0000000000000000e+00 0.0000000000000000e+00 0.0000000000000000e+00  0.0000000000000000e+00 0.0000000000000000e+00 0.0000000000000000e+00  0.0000000000000000e+00 0.0000000000000000e+00 0.0000000000000000e+00  0.0000000000000000e+00 0.0000000000000000e+00 0.0000000000000000e+00  0.0000000000000000e+00 0.0000000000000000e+00 0.0000000000000000e+00  0.0000000000000000e+00 0.0000000000000000e+00 0.0000000000000000e+00  0.0000000000000000e+00 0.0000000000000000e+00 0.0000000000000000e+00  0.0000000000000000e+00 0.0000000000000000e+00 0.0000000000000000e+00  0.0000000000000000e+00 0.0000000000000000e+00 0.0000000000000000e+00  0.0000000000000000e+00 0.0000000000000000e+00 0.0000000000000000e+00  0.0000000000000000e+00 0.0000000000000000e+00 0.0000000000000000e+00  0.0000000000000000e+00 0.0000000000000000e+00 0.0000000000000000e+00  0.0000000000000000e+00 0.0000000000000000e+00 0.0000000000000000e+00  0.0000000000000000e+00 0.0000000000000000e+00 0.0000000000000000e+00  0.0000000000000000e+00 0.0000000000000000e+00 0.0000000000000000e+00  0.0000000000000000e+00 0.0000000000000000e+00 0.0000000000000000e+00  0.0000000000000000e+00 0.0000000000000000e+00 0.0000000000000000e+00  0.0000000000000000e+00 0.0000000000000000e+00 0.0000000000000000e+00  0.0000000000000000e+00 0.0000000000000000e+00 0.0000000000000000e+00  0.0000000000000000e+00 0.0000000000000000e+00 0.0000000000000000e+00  0.0000000000000000e+00 0.0000000000000000e+00 0.0000000000000000e+00  0.0000000000000000e+00 0.0000000000000000e+00 0.0000000000000000e+00  0.0000000000000000e+00 0.0000000000000000e+00 0.0000000000000000e+00  0.0000000000000000e+00 0.0000000000000000e+00 0.0000000000000000e+00  0.0000000000000000e+00 0.0000000000000000e+00 0.0000000000000000e+00  0.0000000000000000e+00 0.0000000000000000e+00 0.0000000000000000e+00  0.0000000000000000e+00 0.0000000000000000e+00 0.0000000000000000e+00  0.0000000000000000e+00 0.0000000000000000e+00 0.0000000000000000e+00  0.0000000000000000e+00 0.0000000000000000e+00 0.0000000000000000e+00  0.0000000000000000e+00 0.0000000000000000e+00 0.0000000000000000e+00  0.0000000000000000e+00 0.0000000000000000e+00 0.0000000000000000e+00  0.0000000000000000e+00 0.0000000000000000e+00 0.0000000000000000e+00  0.0000000000000000e+00 0.0000000000000000e+00 0.0000000000000000e+00  0.0000000000000000e+00 0.0000000000000000e+00 0.0000000000000000e+00  0.0000000000000000e+00 0.0000000000000000e+00 0.0000000000000000e+00  0.0000000000000000e+00 0.0000000000000000e+00 0.0000000000000000e+00  0.0000000000000000e+00 0.0000000000000000e+00 0.0000000000000000e+00  2.6584353721658417e-06 -5.7993623452269083e-06 0.0000000000000000e+00  5.7681024808554791e-06 -8.3149513708096995e-06 0.0000000000000000e+00  8.9547176263733300e-06 -1.2049904484487624e-05 0.0000000000000000e+00  1.2482065326531948e-05 -1.7122484981313484e-05 0.0000000000000000e+00  1.5779632210537853e-05 -2.3501759068040392e-05 0.0000000000000000e+00  1.9373075071604199e-05 -3.1278545844060748e-05 0.0000000000000000e+00  2.2602598813139250e-05 -4.0077134064774997e-05 0.0000000000000000e+00  2.5811362753893592e-05 -5.0230202465836568e-05 0.0000000000000000e+00  2.9259552630569811e-05 -6.1410181402332618e-05 0.0000000000000000e+00  3.2251403716118112e-05 -7.3651245239964326e-05 0.0000000000000000e+00  3.5522197541584527e-05 -8.6975279799590791e-05 0.0000000000000000e+00  3.8320448552670680e-05 -1.0125036773445067e-04 0.0000000000000000e+00  4.1285209591835934e-05 -1.1649224940297661e-04 0.0000000000000000e+00  4.3885755093150838e-05 -1.3250291394605054e-04 0.0000000000000000e+00  4.6365559849999301e-05 -1.4945838194944347e-04 0.0000000000000000e+00  4.8932174516847335e-05 -1.6714574022148591e-04 0.0000000000000000e+00  5.1101749713741660e-05 -1.8553207682721291e-04 0.0000000000000000e+00  5.3372285804592507e-05 -2.0468397686867175e-04 0.0000000000000000e+00  5.5270513514052154e-05 -2.2441301557247633e-04 0.0000000000000000e+00  5.7230353209165128e-05 -2.4478885547200651e-04 0.0000000000000000e+00  5.8902115101760953e-05 -2.6567824596950560e-04 0.0000000000000000e+00  6.0550974849450636e-05 -2.8713921700318073e-04 0.0000000000000000e+00  6.1969931577000493e-05 -3.0899194446315070e-04 0.0000000000000000e+00  6.3263121323272223e-05 -3.3134304452384718e-04 0.0000000000000000e+00  6.4548601484215495e-05 -3.5405059550807630e-04 0.0000000000000000e+00  6.5619513967547826e-05 -3.7711948599007016e-04 0.0000000000000000e+00  6.6603580464287855e-05 -4.0058142924416946e-04 0.0000000000000000e+00  6.7439823348894464e-05 -4.2427787468628535e-04 0.0000000000000000e+00  6.8186439990114696e-05 -4.4831736924247654e-04 0.0000000000000000e+00  6.8797430430630332e-05 -4.7254092426825207e-04 0.0000000000000000e+00  6.9316338732473167e-05 -4.9705183378894835e-04 0.0000000000000000e+00  6.9706421520307848e-05 -5.2169623661760787e-04 0.0000000000000000e+00  7.0006563767172438e-05 -5.4657785721500744e-04 0.0000000000000000e+00  7.0182368975220711e-05 -5.7154567785087874e-04 0.0000000000000000e+00  7.0264322442828965e-05 -5.9671389807101503e-04 0.0000000000000000e+00  7.0232796556090484e-05 -6.2193285271535054e-04 0.0000000000000000e+00  7.0109103469813910e-05 -6.4731015435392396e-04 0.0000000000000000e+00  6.9877057912294801e-05 -6.7270734267049347e-04 0.0000000000000000e+00  6.9550325779159369e-05 -6.9823196041018628e-04 0.0000000000000000e+00  6.9116538749911281e-05 -7.2375049900272629e-04 0.0000000000000000e+00  6.8576791046820267e-05 -7.4935269183921429e-04 0.0000000000000000e+00  6.7952861097962279e-05 -7.7495897419243523e-04 0.0000000000000000e+00  6.7219783152092081e-05 -8.0060154871192579e-04 0.0000000000000000e+00  6.6427987478646385e-05 -8.2625536196902249e-04 0.0000000000000000e+00  6.5516924268270386e-05 -8.5188487494725876e-04 0.0000000000000000e+00  6.4550756807942890e-05 -8.7758484023196218e-04 0.0000000000000000e+00  4.5920911157132031e-05 -9.0244623381063600e-04 0.0000000000000000e+00  1.1385019827732279e-05 -9.0023822627235039e-04 0.0000000000000000e+00  -4.5317083997843862e-06 -8.7348582774108522e-04 0.0000000000000000e+00  -3.5218982232307200e-06 -8.4760003974456832e-04 0.0000000000000000e+00  -2.5680197316556034e-06 -8.2167865900904498e-04 0.0000000000000000e+00  -1.7092540727914910e-06 -7.9581338052063175e-04 0.0000000000000000e+00  -9.0911647475494993e-07 -7.6996569445566187e-04 0.0000000000000000e+00  -2.0399227653866291e-07 -7.4415099180342710e-04 0.0000000000000000e+00  4.5418124217392611e-07 -7.1838288068935450e-04 0.0000000000000000e+00  1.0146635936620288e-06 -6.9262813771326748e-04 0.0000000000000000e+00  1.5283319141080907e-06 -6.6697813904155467e-04 0.0000000000000000e+00  1.9527861871180609e-06 -6.4134487759181483e-04 0.0000000000000000e+00  2.3462475491180786e-06 -6.1584300774449876e-04 0.0000000000000000e+00  2.6445244946306236e-06 -5.9038968928322325e-04 0.0000000000000000e+00  2.9274355935960736e-06 -5.6510233196119947e-04 0.0000000000000000e+00  3.1099001797966408e-06 -5.3990204241442395e-04 0.0000000000000000e+00  3.2965905068131800e-06 -5.1490182088383227e-04 0.0000000000000000e+00  3.3719239942284806e-06 -4.9003047359901712e-04 0.0000000000000000e+00  3.4713683999532722e-06 -4.6540114153179556e-04 0.0000000000000000e+00  3.4463081471100964e-06 -4.4094902736731273e-04 0.0000000000000000e+00  3.4661339700567918e-06 -4.1679240227804494e-04 0.0000000000000000e+00  3.3477537359899172e-06 -3.9286850502855055e-04 0.0000000000000000e+00  3.3011267386394813e-06 -3.6929394757642930e-04 0.0000000000000000e+00  3.0997075669669075e-06 -3.4601470681854039e-04 0.0000000000000000e+00  2.9762759462204098e-06 -3.2313431467294036e-04 0.0000000000000000e+00  2.7270087629679966e-06 -3.0060600395992221e-04 0.0000000000000000e+00  2.4275233065468721e-06 -2.7858922677047950e-04 0.0000000000000000e+00  2.2295983319395740e-06 -2.5695546580672827e-04 0.0000000000000000e+00  1.9062467400186123e-06 -2.3586987420859558e-04 0.0000000000000000e+00  1.6275483253786226e-06 -2.1535182165504719e-04 0.0000000000000000e+00  1.2621075732206364e-06 -1.9541143686392184e-04 0.0000000000000000e+00  9.4029726643214621e-07 -1.7614299497983483e-04 0.0000000000000000e+00  5.3400874759311921e-07 -1.5751600635174540e-04 0.0000000000000000e+00  2.5361915788357250e-07 -1.3974179742727864e-04 0.0000000000000000e+00  -2.1024272731089579e-07 -1.2261611696043435e-04 0.0000000000000000e+00  -6.9908133810099456e-07 -1.0648686396503288e-04 0.0000000000000000e+00  -9.7449261467111674e-07 -9.1071397457946095e-05 0.0000000000000000e+00  -1.3839774820152276e-06 -7.6710347413450129e-05 0.0000000000000000e+00  -1.6806230995948895e-06 -6.3340880651039980e-05 0.0000000000000000e+00  -2.0455224828180286e-06 -5.1006707001883130e-05 0.0000000000000000e+00  -2.1603006897014828e-06 -3.9906326106499593e-05 0.0000000000000000e+00  -2.4800583397587831e-06 -2.9787210021395946e-05 0.0000000000000000e+00  -2.7365628569336303e-06 -2.1084566364252640e-05 0.0000000000000000e+00  -2.6193864602412764e-06 -1.3402276119472730e-05 0.0000000000000000e+00  -2.6154654859880760e-06 -7.1213517059557112e-06 0.0000000000000000e+00  -2.2096831429763298e-06 -2.1781959085134724e-06 0.0000000000000000e+00  -1.8583148063172860e-06 1.2096454926658777e-06 0.0000000000000000e+00  -9.1695763430766684e-07 2.9727669938022086e-06 0.0000000000000000e+00  6.8223446172340624e-07 -1.4859609180732348e-06 0.0000000000000000e+00  3.0731160704310144e-05 -8.6259384467765826e-04 0.0000000000000000e+00  3.2891928083874421e-05 -8.1334348383415894e-04 0.0000000000000000e+00  3.4811047846249033e-05 -7.3298720396325616e-04 0.0000000000000000e+00  4.1079075691582435e-06 -8.5471232201930158e-06 0.0000000000000000e+00  3.5393651896565637e-05 -6.8258538040246136e-04 0.0000000000000000e+00  7.1717573161356738e-06 -2.0602131380345490e-05 0.0000000000000000e+00  3.6063325088259477e-05 -6.3153480572155740e-04 0.0000000000000000e+00  1.2524975385506947e-05 -5.0147403911558591e-05 0.0000000000000000e+00  1.6111867354587318e-05 -7.4385388685072409e-05 0.0000000000000000e+00  3.6408352647303307e-05 -5.8083954739597662e-04 0.0000000000000000e+00  2.3681921437977960e-05 -1.5354397230502999e-04 0.0000000000000000e+00  3.6144098649968218e-05 -4.8108961950347763e-04 0.0000000000000000e+00  1.9037342712671797e-05 -1.0178062078956922e-04 0.0000000000000000e+00  2.6582421407856714e-05 -1.8992415987280700e-04 0.0000000000000000e+00  3.5540101493383225e-05 -4.3237823122827841e-04 0.0000000000000000e+00  3.6434117571210258e-05 -5.3063842539637464e-04 0.0000000000000000e+00  2.8924971998314006e-05 -2.2965044906203541e-04 0.0000000000000000e+00  3.4620248266622278e-05 -3.8471653925227717e-04 0.0000000000000000e+00  3.0508488654669026e-05 -2.6988801951588704e-04 0.0000000000000000e+00  3.3815371278621231e-05 -3.3932406556257718e-04 0.0000000000000000e+00  3.2158205516912651e-05 -3.0276692514141887e-04 0.0000000000000000e+00  2.1641314693587742e-05 -1.2571965434840548e-04 0.0000000000000000e+00  3.3267767146154081e-05 -7.7469571381671878e-04 0.0000000000000000e+00  9.8720002044365531e-06 -3.3586111474891682e-05 0.0000000000000000e+00  1.9758296083907334e-05 -8.3702604540418642e-04 0.0000000000000000e+00  7.3160779908680524e-07 -2.5712821972663567e-06 0.0000000000000000e+00  2.5847562919315743e-05 -6.5618091832815703e-04 0.0000000000000000e+00  2.4965253877781027e-05 -7.0741333725171717e-04 0.0000000000000000e+00  8.6732972222482560e-06 -1.6108800432939448e-05 0.0000000000000000e+00  1.9153376594169275e-05 -6.3129742408930025e-05 0.0000000000000000e+00  2.6709418447209867e-05 -5.0478498098519540e-04 0.0000000000000000e+00  2.6427232638948232e-05 -6.0524231733866964e-04 0.0000000000000000e+00  3.2470654243438599e-05 -1.7247706096439015e-04 0.0000000000000000e+00  2.6429353183213175e-05 -4.5558330241257102e-04 0.0000000000000000e+00  2.3308889436655076e-05 -8.9824034935990393e-05 0.0000000000000000e+00  3.5473184455100029e-05 -2.1086954705479697e-04 0.0000000000000000e+00  2.5874092401785689e-05 -4.0732391909502672e-04 0.0000000000000000e+00  2.6710866672362884e-05 -5.5472751860650949e-04 0.0000000000000000e+00  3.9884545312995991e-05 -2.5179282633929439e-04 0.0000000000000000e+00  2.5046231252776897e-05 -3.6022670078720914e-04 0.0000000000000000e+00  1.1270187248576639e-07 -1.3627185874988383e-06 0.0000000000000000e+00  -4.9099254231303435e-07 7.0436949157749103e-07 0.0000000000000000e+00  3.7797679705222510e-05 -8.8335802830101886e-04 0.0000000000000000e+00  4.3350993622666979e-06 -6.4319666169688537e-06 0.00000000