<?xml version="1.0"?>
<VTKFile type="UnstructuredGrid"  version="0.1"  >
<UnstructuredGrid>
<Piece  NumberOfPoints="1419" NumberOfCells="2698">
<Points>
<DataArray  type="Float64"  NumberOfComponents="3"  format="ascii">0 0 0  0 0.41 0  2.5 0 0  2.5 0.41 0  0.6 0.19 0  0.6 0.21 0  0.25 0.2 0  0.15 0.2 0  0.2489897948556636 0.21 0  0.2489897948556636 0.19 0  0.6 0.2 0  0 0.3807142857143437 0  0 0.3514285714286952 0  0 0.3221428571430699 0  0 0.29285714285744 0  0 0.2635714285718054 0  0 0.2342857142861561 0  0 0.2050000000005308 0  0 0.175714285714732 0  0 0.1464285714289574 0  0 0.1171428571431897 0  0 0.08785714285737878 0  0 0.05857142857161107 0  0 0.02928571428580012 0  0.03015443760436003 0 0  0.06140001986583606 0 0  0.09377624077125973 0 0  0.1273239957535082 0 0  0.1620856860351972 0 0  0.1981052433264291 0 0  0.235428184091502 0 0  0.2741016576309132 0 0  0.3141745521465447 0 0  0.3556974926295285 0 0  0.3987229542472677 0 0  0.4433053055141081 0 0  0.4895008759286886 0 0  0.5373680609405097 0 0  0.5869673343216626 0 0  0.6383613676634521 0 0  0.6916151138468254 0 0  0.7467958595648856 0 0  0.8039733463919316 0 0  0.8632198139502143 0 0  0.9246101326867038 0 0  0.9882218810934433 0 0  1.054135445558498 0 0  1.122434100542598 0 0  1.193204177141305 0 0  1.266535089879536 0 0  1.342519516046404 0 0  1.421253448503939 0 0  1.502836389106271 0 0  1.587371439758838 0 0  1.674965418777374 0 0  1.765729001825544 0 0  1.859776908880082 0 0  1.957227977487062 0 0  2.058205329869943 0 0  2.162836591189951 0 0  2.271253957290865 0 0  2.383594446803425 0 0  2.5 0.1024999999997612 0  2.5 0.2049999999994743 0  2.5 0.3074999999997183 0  2.383594446803656 0.41 0  2.271253957291315 0.41 0  2.162836591190598 0.41 0  2.058205329870775 0.41 0  1.957227977488067 0.41 0  1.859776908881246 0.41 0  1.765729001826854 0.41 0  1.674965418778818 0.41 0  1.58737143976041 0.41 0  1.502836389107956 0.41 0  1.421253448505726 0.41 0  1.342519516048286 0.41 0  1.266535089881505 0.41 0  1.193204177143353 0.41 0  1.122434100544716 0.41 0  1.05413544556068 0.41 0  0.9882218810956305 0.41 0  0.9246101326886647 0.41 0  0.8632198139519631 0.41 0  0.8039733463934788 0.41 0  0.7467958595662458 0.41 0  0.6916151138480078 0.41 0  0.6383613676644679 0.41 0  0.5869673343225223 0.41 0  0.5373680609412221 0.41 0  0.4895008759292634 0.41 0  0.4433053055145528 0.41 0  0.3987229542475914 0.41 0  0.3556974926297398 0.41 0  0.3141745521466497 0.41 0  0.2741016576310038 0.41 0  0.2354281840915826 0.41 0  0.1981052433265003 0.41 0  0.1620856860352591 0.41 0  0.1273239957535623 0.41 0  0.09377624077128965 0.41 0  0.06140001986584975 0.41 0  0.03015443760436654 0.41 0  0.2497468076502589 0.2050254481002335 0  0.2497468076502614 0.1949745518997913 0  0.2469965252529372 0.1829317073451959 0  0.2439893735792749 0.1762316384219906 0  0.2400332147834255 0.1700443375285386 0  0.2352133972704371 0.1645032867342007 0  0.2296339016332438 0.1597280261969788 0  0.2234150974217223 0.1558215752574715 0  0.2166911463437691 0.1528682099456123 0  0.2096071079204251 0.1509316448471593 0  0.2023158100364996 0.1500536585536553 0  0.194974551899914 0.1502531923497262 0  0.1877417105387872 0.1515259415822739 0  0.1807733240461124 0.153844448527136 0  0.1742197252835808 0.15715869474974 0  0.1682222986673531 0.1613971801805478 0  0.162910430003803 0.1664684656256651 0  0.1583987151779087 0.1722631454351573 0  0.1547844879126891 0.178656207771761 0  0.1521457199348551 0.1855097315605723 0  0.1505393388476355 0.1926758619366523 0  0.1505393388476328 0.2073241380633295 0  0.1521457199348437 0.2144902684393899 0  0.1547844879126531 0.221343792228163 0  0.1583987151778488 0.2277368545647528 0  0.1629104300036858 0.2335315343742052 0  0.1682222986671726 0.2386028198193036 0  0.1742197252833576 0.2428413052501257 0  0.1807733240458683 0.2461555514727623 0  0.1877417105384929 0.2484740584176516 0  0.1949745518995776 0.2497468076502398 0  0.202315810036185 0.2499463414463592 0  0.2096071079201568 0.2490683551528932 0  0.2166911463435495 0.2471317900544655 0  0.2234150974215506 0.2441784247426195 0  0.2296339016331197 0.2402719738031125 0  0.2352133972703547 0.2354967132658811 0  0.2400332147833751 0.2299556624715287 0  0.2439893735792577 0.2237683615780412 0  0.246996525252926 0.2170682926548348 0  0.25645809709277 0.21 0  0.2639263993298655 0.21 0  0.271394701566961 0.21 0  0.2788630038040554 0.21 0  0.2863313060411479 0.21 0  0.2937996082782405 0.21 0  0.301267910515333 0.21 0  0.3087362127524279 0.21 0  0.3162045149895234 0.21 0  0.3236728172265972 0.21 0  0.3311411194636928 0.21 0  0.3386094217007701 0.21 0  0.3460777239378666 0.21 0  0.3535460261749672 0.21 0  0.3610143284120516 0.21 0  0.3684826306491596 0.21 0  0.3759509328862226 0.21 0  0.383419235123329 0.21 0  0.3908875373604028 0.21 0  0.3983558395975142 0.21 0  0.4058241418345938 0.21 0  0.4132924440716992 0.21 0  0.4207607463087888 0.21 0  0.4282290485459029 0.21 0  0.4356973507830418 0.21 0  0.4431656530201649 0.21 0  0.4506339552573136 0.21 0  0.4581022574944306 0.21 0  0.4655705597315852 0.21 0  0.4730388619686996 0.21 0  0.480507164205851 0.21 0  0.4879754664429498 0.21 0  0.4954437686800938 0.21 0  0.502912070917267 0.21 0  0.5103803731544119 0.21 0  0.5178486753915261 0.21 0  0.5253169776286404 0.21 0  0.5327852798657868 0.21 0  0.5402535821029386 0.21 0  0.54772188434007 0.21 0  0.5551901865771842 0.21 0  0.5626584888143201 0.21 0  0.5701267910514778 0.21 0  0.5775950932886138 0.21 0  0.5850633955257281 0.21 0  0.5925316977628483 0.21 0  0.6 0.2050000000000054 0  0.6 0.1950000000000217 0  0.5925316977628897 0.19 0  0.5850633955257988 0.19 0  0.5775950932887378 0.19 0  0.5701267910515998 0.19 0  0.5626584888145268 0.19 0  0.5551901865773963 0.19 0  0.547721884340339 0.19 0  0.5402535821032429 0.19 0  0.5327852798661811 0.19 0  0.5253169776290537 0.19 0  0.5178486753919799 0.19 0  0.5103803731549078 0.19 0  0.502912070917822 0.19 0  0.4954437686807294 0.19 0  0.4879754664436223 0.19 0  0.4805071642065402 0.19 0  0.4730388619694271 0.19 0  0.4655705597323621 0.19 0  0.4581022574952563 0.19 0  0.4506339552581777 0.19 0  0.4431656530210671 0.19 0  0.4356973507839815 0.19 0  0.4282290485468779 0.19 0  0.4207607463097617 0.19 0  0.4132924440726327 0.19 0  0.4058241418354857 0.19 0  0.3983558395983636 0.19 0  0.3908875373612097 0.19 0  0.3834192351240934 0.19 0  0.3759509328869369 0.19 0  0.3684826306498175 0.19 0  0.361014328412667 0.19 0  0.3535460261755617 0.19 0  0.3460777239384295 0.19 0  0.3386094217012945 0.19 0  0.3311411194641595 0.19 0  0.3236728172270245 0.19 0  0.3162045149898895 0.19 0  0.3087362127527544 0.19 0  0.3012679105156187 0.19 0  0.2937996082784807 0.19 0  0.2863313060413428 0.19 0  0.2788630038042048 0.19 0  0.2713947015670686 0.19 0  0.2639263993299336 0.19 0  0.2564580970927985 0.19 0  0.2607803159922026 0.2000727136295815 0  0.5887803774232762 0.2001272386983733 0  0.5745072403740523 0.2002044435018727 0  0.5511891430099709 0.2001122610077113 0  0.2751288526855082 0.20000000000002 0  0.5365194309847112 0.1999999999999436 0  0.2894621222999649 0.1998691686390484 0  0.5215828265105155 0.1999999999999228 0  0.3127789816668748 0.1998657885438805 0  0.3274069683451451 0.2000000000000796 0  0.5066462220363641 0.199999999999908 0  0.3650630746574081 0.199866017807523 0  0.476773013087985 0.1999999999998713 0  0.3417402379596385 0.1998691686391011 0  0.3796850840047755 0.200000000000134 0  0.4618364086138087 0.1999999999998546 0  0.4917096175621762 0.1999999999998808 0  0.3946216884789568 0.2000000000001512 0  0.446899804139621 0.1999999999998389 0  0.4089549580935208 0.1998691686391595 0  0.4322718174608562 0.200127451265745 0  0.4201487168029707 0.1999966199048527 0  0.3528922713220932 0.2000185703532356 0  0.5633122436674589 0.1999814296467508 0  0.3006558810093873 0.1999966199048318 0  0.5815926498168407 0.1966545283159175 0  0.2677053789419034 0.1964246479135325 0  0.5290511287476175 0.1970915826863981 0  0.5439877332217911 0.197091582686394 0  0.2825131256993216 0.2035478995978015 0  0.3199386661080599 0.202908417313604 0  0.4842413153250809 0.1970915826863873 0  0.5141145242734466 0.1970915826863843 0  0.3722167817676917 0.2029084173136195 0  0.4693047108508938 0.1970915826863783 0  0.3348752705822316 0.202908417313609 0  0.3871533862418661 0.2029084173136212 0  0.4543681063767183 0.1970915826863795 0  0.4991779197992749 0.1970915826863902 0  0.4020059614928624 0.203547899597858 0  0.4394315019025246 0.1970915826863714 0  0.2550657455369551 0.2034088125358657 0  0.2548908499171161 0.1966940311614271 0  0.5946539510196798 0.2024302972968126 0  0.267698176732111 0.2039977513680092 0  0.4261685417851465 0.196409292431739 0  0.3590076176283495 0.196411355804271 0  0.5571672426447437 0.2036011176410121 0  0.3066757059912147 0.1964092924317024 0  0.594380730180568 0.1966558399668133 0  0.4842413153245942 0.2040749161535287 0  0.4693047108503577 0.2040749161535231 0  0.3871533862424271 0.1959250838464788 0  0.372246743208829 0.1959123236376545 0  0.5141145242731028 0.2040749161535395 0  0.4543681063761134 0.2040749161535186 0  0.4019979587101454 0.1959834479682427 0  0.4394608940728603 0.2040870543693135 0  0.5439623148931173 0.2040856076781014 0  0.5290511287473298 0.2040749161535501 0  0.4991779197988497 0.2040749161535382 0  0.3347912413592433 0.1959225448935183 0  0.3199680582793816 0.1959123018030061 0  0.2825051229162361 0.1959834479681729 0  0.3590471196690275 0.2036304442587945 0  0.5571594006495384 0.1963685282145804 0  0.3067669986803285 0.203627750582736 0  0.4262598344738712 0.2036568242185335 0  0.5814408164431408 0.2041285596160068 0  0.5688286748170428 0.1961819304477386 0  0.4145905603063645 0.2038180695522843 0  0.3473758401724931 0.2038180695522752 0  0.2950977245128307 0.2038180695522663 0  0.5688286748170693 0.203818069552238 0  0.2950977245127906 0.1961819304477774 0  0.3473758401723931 0.1961819304478349 0  0.4145905603061963 0.1961819304479011 0  0.2601812407614425 0.2056861609747042
[...]
<PointData  Vectors="f_40-0"> 
<DataArray  type="Float64"  Name="f_40-0"  NumberOfComponents="3" format="ascii">0.0000000000000000e+00 0.0000000000000000e+00 0.0000000000000000e+00  0.0000000000000000e+00 0.0000000000000000e+00 0.0000000000000000e+00  0.0000000000000000e+00 0.0000000000000000e+00 0.0000000000000000e+00  0.0000000000000000e+00 0.0000000000000000e+00 0.0000000000000000e+00  -6.3589787364793829e-06 -9.9626148208839288e-04 0.0000000000000000e+00  7.0231396316836403e-05 -1.0004341498613496e-03 0.0000000000000000e+00  0.0000000000000000e+00 0.0000000000000000e+00 0.0000000000000000e+00  0.0000000000000000e+00 0.0000000000000000e+00 0.0000000000000000e+00  0.0000000000000000e+00 0.0000000000000000e+00 0.0000000000000000e+00  0.0000000000000000e+00 0.0000000000000000e+00 0.0000000000000000e+00  3.1411678195236902e-05 -9.9833392403683436e-04 0.0000000000000000e+00  1.6969348374054793e-01 0.0000000000000000e+00 0.0000000000000000e+00  3.1328027767487848e-01 0.0000000000000000e+00 0.0000000000000000e+00  4.3076038180295806e-01 0.0000000000000000e+00 0.0000000000000000e+00  5.2213379612492250e-01 0.0000000000000000e+00 0.0000000000000000e+00  5.8740052064075998e-01 0.0000000000000000e+00 0.0000000000000000e+00  6.2656055535046684e-01 0.0000000000000000e+00 0.0000000000000000e+00  6.3961390025400355e-01 0.0000000000000000e+00 0.0000000000000000e+00  6.2656055535125854e-01 0.0000000000000000e+00 0.0000000000000000e+00  5.8740052064212001e-01 0.0000000000000000e+00 0.0000000000000000e+00  5.2213379612660671e-01 0.0000000000000000e+00 0.0000000000000000e+00  4.3076038180455795e-01 0.0000000000000000e+00 0.0000000000000000e+00  3.1328027767624383e-01 0.0000000000000000e+00 0.0000000000000000e+00  1.6969348374131721e-01 0.0000000000000000e+00 0.0000000000000000e+00  0.0000000000000000e+00 0.0000000000000000e+00 0.0000000000000000e+00  0.0000000000000000e+00 0.0000000000000000e+00 0.0000000000000000e+00  0.0000000000000000e+00 0.0000000000000000e+00 0.0000000000000000e+00  0.0000000000000000e+00 0.0000000000000000e+00 0.0000000000000000e+00  0.0000000000000000e+00 0.0000000000000000e+00 0.0000000000000000e+00  0.0000000000000000e+00 0.0000000000000000e+00 0.0000000000000000e+00  0.0000000000000000e+00 0.0000000000000000e+00 0.0000000000000000e+00  0.0000000000000000e+00 0.0000000000000000e+00 0.0000000000000000e+00  0.0000000000000000e+00 0.0000000000000000e+00 0.0000000000000000e+00  0.0000000000000000e+00 0.0000000000000000e+00 0.0000000000000000e+00  0.0000000000000000e+00 0.0000000000000000e+00 0.0000000000000000e+00  0.0000000000000000e+00 0.0000000000000000e+00 0.0000000000000000e+00  0.0000000000000000e+00 0.0000000000000000e+00 0.0000000000000000e+00  0.0000000000000000e+00 0.0000000000000000e+00 0.0000000000000000e+00  0.0000000000000000e+00 0.0000000000000000e+00 0.0000000000000000e+00  0.0000000000000000e+00 0.0000000000000000e+00 0.0000000000000000e+00  0.0000000000000000e+00 0.0000000000000000e+00 0.0000000000000000e+00  0.0000000000000000e+00 0.0000000000000000e+00 0.0000000000000000e+00  0.0000000000000000e+00 0.0000000000000000e+00 0.0000000000000000e+00  0.0000000000000000e+00 0.0000000000000000e+00 0.0000000000000000e+00  0.0000000000000000e+00 0.0000000000000000e+00 0.0000000000000000e+00  0.0000000000000000e+00 0.0000000000000000e+00 0.0000000000000000e+00  0.0000000000000000e+00 0.0000000000000000e+00 0.0000000000000000e+00  0.0000000000000000e+00 0.0000000000000000e+00 0.0000000000000000e+00  0.0000000000000000e+00 0.0000000000000000e+00 0.0000000000000000e+00  0.0000000000000000e+00 0.0000000000000000e+00 0.0000000000000000e+00  0.0000000000000000e+00 0.0000000000000000e+00 0.0000000000000000e+00  0.0000000000000000e+00 0.0000000000000000e+00 0.0000000000000000e+00  0.0000000000000000e+00 0.0000000000000000e+00 0.0000000000000000e+00  0.0000000000000000e+00 0.0000000000000000e+00 0.0000000000000000e+00  0.0000000000000000e+00 0.0000000000000000e+00 0.0000000000000000e+00  0.0000000000000000e+00 0.0000000000000000e+00 0.0000000000000000e+00  0.0000000000000000e+00 0.0000000000000000e+00 0.0000000000000000e+00  0.0000000000000000e+00 0.0000000000000000e+00 0.0000000000000000e+00  0.0000000000000000e+00 0.0000000000000000e+00 0.0000000000000000e+00  0.0000000000000000e+00 0.0000000000000000e+00 0.0000000000000000e+00  0.0000000000000000e+00 0.0000000000000000e+00 0.0000000000000000e+00  0.0000000000000000e+00 0.0000000000000000e+00 0.0000000000000000e+00  5.6659021365467666e-01 -7.3776201162985850e-03 0.0000000000000000e+00  4.1663856527006327e-01 1.8470816052368493e-03 0.0000000000000000e+00  5.6781266555966503e-01 7.8675283783523984e-03 0.0000000000000000e+00  0.0000000000000000e+00 0.0000000000000000e+00 0.0000000000000000e+00  0.0000000000000000e+00 0.0000000000000000e+00 0.0000000000000000e+00  0.0000000000000000e+00 0.0000000000000000e+00 0.0000000000000000e+00  0.0000000000000000e+00 0.0000000000000000e+00 0.0000000000000000e+00  0.0000000000000000e+00 0.0000000000000000e+00 0.0000000000000000e+00  0.0000000000000000e+00 0.0000000000000000e+00 0.0000000000000000e+00  0.0000000000000000e+00 0.0000000000000000e+00 0.0000000000000000e+00  0.0000000000000000e+00 0.0000000000000000e+00 0.0000000000000000e+00  0.0000000000000000e+00 0.0000000000000000e+00 0.0000000000000000e+00  0.0000000000000000e+00 0.0000000000000000e+00 0.0000000000000000e+00  0.0000000000000000e+00 0.0000000000000000e+00 0.0000000000000000e+00  0.0000000000000000e+00 0.0000000000000000e+00 0.0000000000000000e+00  0.0000000000000000e+00 0.0000000000000000e+00 0.0000000000000000e+00  0.0000000000000000e+00 0.0000000000000000e+00 0.0000000000000000e+00  0.0000000000000000e+00 0.0000000000000000e+00 0.0000000000000000e+00  0.0000000000000000e+00 0.0000000000000000e+00 0.0000000000000000e+00  0.0000000000000000e+00 0.0000000000000000e+00 0.0000000000000000e+00  0.0000000000000000e+00 0.0000000000000000e+00 0.0000000000000000e+00  0.0000000000000000e+00 0.0000000000000000e+00 0.0000000000000000e+00  0.0000000000000000e+00 0.0000000000000000e+00 0.0000000000000000e+00  0.0000000000000000e+00 0.0000000000000000e+00 0.0000000000000000e+00  0.0000000000000000e+00 0.0000000000000000e+00 0.0000000000000000e+00  0.0000000000000000e+00 0.0000000000000000e+00 0.0000000000000000e+00  0.0000000000000000e+00 0.0000000000000000e+00 0.0000000000000000e+00  0.0000000000000000e+00 0.0000000000000000e+00 0.0000000000000000e+00  0.0000000000000000e+00 0.0000000000000000e+00 0.0000000000000000e+00  0.0000000000000000e+00 0.0000000000000000e+00 0.0000000000000000e+00  0.0000000000000000e+00 0.0000000000000000e+00 0.0000000000000000e+00  0.0000000000000000e+00 0.0000000000000000e+00 0.0000000000000000e+00  0.0000000000000000e+00 0.0000000000000000e+00 0.0000000000000000e+00  0.0000000000000000e+00 0.0000000000000000e+00 0.0000000000000000e+00  0.0000000000000000e+00 0.0000000000000000e+00 0.0000000000000000e+00  0.0000000000000000e+00 0.0000000000000000e+00 0.0000000000000000e+00  0.0000000000000000e+00 0.0000000000000000e+00 0.0000000000000000e+00  0.0000000000000000e+00 0.0000000000000000e+00 0.0000000000000000e+00  0.0000000000000000e+00 0.0000000000000000e+00 0.0000000000000000e+00  0.0000000000000000e+00 0.0000000000000000e+00 0.0000000000000000e+00  0.0000000000000000e+00 0.0000000000000000e+00 0.0000000000000000e+00  0.0000000000000000e+00 0.0000000000000000e+00 0.0000000000000000e+00  0.0000000000000000e+00 0.0000000000000000e+00 0.0000000000000000e+00  0.0000000000000000e+00 0.0000000000000000e+00 0.0000000000000000e+00  0.0000000000000000e+00 0.0000000000000000e+00 0.0000000000000000e+00  0.0000000000000000e+00 0.0000000000000000e+00 0.0000000000000000e+00  0.0000000000000000e+00 0.0000000000000000e+00 0.0000000000000000e+00  0.0000000000000000e+00 0.0000000000000000e+00 0.0000000000000000e+00  0.0000000000000000e+00 0.0000000000000000e+00 0.0000000000000000e+00  0.0000000000000000e+00 0.0000000000000000e+00 0.0000000000000000e+00  0.0000000000000000e+00 0.0000000000000000e+00 0.0000000000000000e+00  0.0000000000000000e+00 0.0000000000000000e+00 0.0000000000000000e+00  0.0000000000000000e+00 0.0000000000000000e+00 0.0000000000000000e+00  0.0000000000000000e+00 0.0000000000000000e+00 0.0000000000000000e+00  0.0000000000000000e+00 0.0000000000000000e+00 0.0000000000000000e+00  0.0000000000000000e+00 0.0000000000000000e+00 0.0000000000000000e+00  0.0000000000000000e+00 0.0000000000000000e+00 0.0000000000000000e+00  0.0000000000000000e+00 0.0000000000000000e+00 0.0000000000000000e+00  0.0000000000000000e+00 0.0000000000000000e+00 0.0000000000000000e+00  0.0000000000000000e+00 0.0000000000000000e+00 0.0000000000000000e+00  0.0000000000000000e+00 0.0000000000000000e+00 0.0000000000000000e+00  0.0000000000000000e+00 0.0000000000000000e+00 0.0000000000000000e+00  0.0000000000000000e+00 0.0000000000000000e+00 0.0000000000000000e+00  0.0000000000000000e+00 0.0000000000000000e+00 0.0000000000000000e+00  0.0000000000000000e+00 0.0000000000000000e+00 0.0000000000000000e+00  0.0000000000000000e+00 0.0000000000000000e+00 0.0000000000000000e+00  0.0000000000000000e+00 0.0000000000000000e+00 0.0000000000000000e+00  0.0000000000000000e+00 0.0000000000000000e+00 0.0000000000000000e+00  0.0000000000000000e+00 0.0000000000000000e+00 0.0000000000000000e+00  0.0000000000000000e+00 0.0000000000000000e+00 0.0000000000000000e+00  0.0000000000000000e+00 0.0000000000000000e+00 0.0000000000000000e+00  0.0000000000000000e+00 0.0000000000000000e+00 0.0000000000000000e+00  0.0000000000000000e+00 0.0000000000000000e+00 0.0000000000000000e+00  0.0000000000000000e+00 0.0000000000000000e+00 0.0000000000000000e+00  0.0000000000000000e+00 0.0000000000000000e+00 0.0000000000000000e+00  0.0000000000000000e+00 0.0000000000000000e+00 0.0000000000000000e+00  0.0000000000000000e+00 0.0000000000000000e+00 0.0000000000000000e+00  0.0000000000000000e+00 0.0000000000000000e+00 0.0000000000000000e+00  0.0000000000000000e+00 0.0000000000000000e+00 0.0000000000000000e+00  0.0000000000000000e+00 0.0000000000000000e+00 0.0000000000000000e+00  0.0000000000000000e+00 0.0000000000000000e+00 0.0000000000000000e+00  2.6967005510600558e-06 -5.4331735092034618e-06 0.0000000000000000e+00  5.8562035684107620e-06 -8.1053717388021056e-06 0.0000000000000000e+00  9.0544457850689608e-06 -1.2179746642274395e-05 0.0000000000000000e+00  1.2613335798892786e-05 -1.7762967132663712e-05 0.0000000000000000e+00  1.5929671092892265e-05 -2.4809305197657520e-05 0.0000000000000000e+00  1.9602691629135903e-05 -3.3399992187203487e-05 0.0000000000000000e+00  2.2896324129183701e-05 -4.3134885197462928e-05 0.0000000000000000e+00  2.6209721793168247e-05 -5.4380120063238259e-05 0.0000000000000000e+00  2.9818311347553812e-05 -6.6763772087716119e-05 0.0000000000000000e+00  3.2959607930751015e-05 -8.0338562120909663e-05 0.0000000000000000e+00  3.6447417716624886e-05 -9.5098144626270043e-05 0.0000000000000000e+00  3.9438546227468602e-05 -1.1093032826869632e-04 0.0000000000000000e+00  4.2648782880122846e-05 -1.2782468971351676e-04 0.0000000000000000e+00  4.5469154012391918e-05 -1.4557084844738454e-04 0.0000000000000000e+00  4.8179932385059914e-05 -1.6436774354842149e-04 0.0000000000000000e+00  5.0999931987479959e-05 -1.8397271331600299e-04 0.0000000000000000e+00  5.3392971622306733e-05 -2.0435972584802533e-04 0.0000000000000000e+00  5.5910705171211664e-05 -2.2558982671368061e-04 0.0000000000000000e+00  5.8022555084288221e-05 -2.4746841939432595e-04 0.0000000000000000e+00  6.0211549395006129e-05 -2.7006006933674438e-04 0.0000000000000000e+00  6.2086941219185424e-05 -2.9322772599163260e-04 0.0000000000000000e+00  6.3944605430411991e-05 -3.1702753442342966e-04 0.0000000000000000e+00  6.5550934630372195e-05 -3.4126234884950072e-04 0.0000000000000000e+00  6.7024462923495775e-05 -3.6605082747267266e-04 0.0000000000000000e+00  6.8493541438959486e-05 -3.9123240104512732e-04 0.0000000000000000e+00  6.9731628826701919e-05 -4.1681687420801634e-04 0.0000000000000000e+00  7.0879574690432175e-05 -4.4283163854193149e-04 0.0000000000000000e+00  7.1870000698290521e-05 -4.6910972844276547e-04 0.0000000000000000e+00  7.2767570375413014e-05 -4.9576274318425271e-04 0.0000000000000000e+00  7.3521620717568033e-05 -5.2262310619332546e-04 0.0000000000000000e+00  7.4180341420699260e-05 -5.4979698633245350e-04 0.0000000000000000e+00  7.4703493095411270e-05 -5.7712271630926961e-04 0.0000000000000000e+00  7.5133733059519174e-05 -6.0470622234243840e-04 0.0000000000000000e+00  7.5433752591805493e-05 -6.3238966940446341e-04 0.0000000000000000e+00  7.5637335142003065e-05 -6.6028954403789827e-04 0.0000000000000000e+00  7.5722558616632475e-05 -6.8825018082022593e-04 0.0000000000000000e+00  7.5712978723686334e-05 -7.1638125967394639e-04 0.0000000000000000e+00  7.5590901912808529e-05 -7.4453899562096750e-04 0.0000000000000000e+00  7.5371632041694054e-05 -7.7283318696591996e-04 0.0000000000000000e+00  7.5041902416366841e-05 -8.0112560558760532e-04 0.0000000000000000e+00  7.4603877154854397e-05 -8.2950793831912319e-04 0.0000000000000000e+00  7.4078569484452804e-05 -8.5789657295709206e-04 0.0000000000000000e+00  7.3441894138673696e-05 -8.8632506780063011e-04 0.0000000000000000e+00  7.2745196483926537e-05 -9.1476642531558745e-04 0.0000000000000000e+00  7.1926227306185080e-05 -9.4318403779913222e-04 0.0000000000000000e+00  7.1049446460664557e-05 -9.7167282700695123e-04 0.0000000000000000e+00  5.0635089023501216e-05 -9.9938227451666487e-04 0.0000000000000000e+00  1.2361663585826453e-05 -9.9729524462936737e-04 0.0000000000000000e+00  -5.5072939635426161e-06 -9.6780725532352447e-04 0.0000000000000000e+00  -4.5840275822455946e-06 -9.3912930774601164e-04 0.0000000000000000e+00  -3.7183527326545264e-06 -9.1041645451835171e-04 0.0000000000000000e+00  -2.9481496687419983e-06 -8.8176187341827987e-04 0.0000000000000000e+00  -2.2375286027787849e-06 -8.5312646026778000e-04 0.0000000000000000e+00  -1.6221521855834507e-06 -8.2452741656232676e-04 0.0000000000000000e+00  -1.0524574481326169e-06 -7.9597844520461691e-04 0.0000000000000000e+00  -5.8209561410918072e-07 -7.6744707930778309e-04 0.0000000000000000e+00  -1.5594574778292224e-07 -7.3902711725966992e-04 0.0000000000000000e+00  1.7880915404521480e-07 -7.1063046483208522e-04 0.0000000000000000e+00  4.8655038014766953e-07 -6.8237432143676449e-04 0.0000000000000000e+00  6.9622051909300676e-07 -6.5417649733573468e-04 0.0000000000000000e+00  8.9601511090917409e-07 -6.2615728406146436e-04 0.0000000000000000e+00  9.9167889221483641e-07 -5.9823838100255444e-04 0.0000000000000000e+00  1.0988872467235369e-06 -5.7053568930748191e-04 0.0000000000000000e+00  1.0897799525684549e-06 -5.4297959730128153e-04 0.0000000000000000e+00  1.1140367747511842e-06 -5.1568636693929081e-04 0.0000000000000000e+00  1.0072295331296970e-06 -4.8859316563101981e-04 0.0000000000000000e+00  9.5654074055673850e-07 -4.6182187732732706e-04 0.0000000000000000e+00  7.5946591511268388e-07 -4.3531146059297594e-04 0.0000000000000000e+00  6.4836390441913397e-07 -4.0918256928296768e-04 0.0000000000000000e+00  3.7252576988797690e-07 -3.8338401644900520e-04 0.0000000000000000e+00  1.9086422699402012e-07 -3.5802406651623417e-04 0.0000000000000000e+00  -1.2471934489190142e-07 -3.3305539694509259e-04 0.0000000000000000e+00  -4.8777098814409949e-07 -3.0865419507021069e-04 0.0000000000000000e+00  -7.3273925455317549e-07 -2.8467803089222353e-04 0.0000000000000000e+00  -1.1077841467535814e-06 -2.6131503304300667e-04 0.0000000000000000e+00  -1.4251395402636214e-06 -2.3857952175633648e-04 0.0000000000000000e+00  -1.8298772888952402e-06 -2.1649538237964084e-04 0.0000000000000000e+00  -2.1759295446166771e-06 -1.9515507058785191e-04 0.0000000000000000e+00  -2.6036166096711401e-06 -1.7454055827444224e-04 0.0000000000000000e+00  -2.8751639862220019e-06 -1.5487346582168944e-04 0.0000000000000000e+00  -3.3395119043073255e-06 -1.3593718323867278e-04 0.0000000000000000e+00  -3.8078683150558364e-06 -1.1811346143314060e-04 0.0000000000000000e+00  -4.0247946065170477e-06 -1.0108950844584865e-04 0.0000000000000000e+00  -4.3570384681627355e-06 -8.5252201077351590e-05 0.0000000000000000e+00  -4.5350288758976046e-06 -7.0505618581826932e-05 0.0000000000000000e+00  -4.7536514779118530e-06 -5.6932778035777321e-05 0.0000000000000000e+00  -4.6556850214914002e-06 -4.4721557975978106e-05 0.0000000000000000e+00  -4.7599665260863940e-06 -3.3604886766144380e-05 0.0000000000000000e+00  -4.7553879785176028e-06 -2.4055541666421514e-05 0.0000000000000000e+00  -4.3174738341722775e-06 -1.5629481472725823e-05 0.0000000000000000e+00  -3.9817833417118356e-06 -8.7582283592379353e-06 0.0000000000000000e+00  -3.2000653349735664e-06 -3.3514391101502450e-06 0.0000000000000000e+00  -2.5017069744261065e-06 3.7470788252155497e-07 0.0000000000000000e+00  -1.2104666484420633e-06 2.3705896424595583e-06 0.0000000000000000e+00  5.7176870158687931e-07 -1.5977163441042369e-06 0.0000000000000000e+00  3.3493694372873950e-05 -9.5539464983313124e-04 0.0000000000000000e+00  3.5511032601278935e-05 -9.0081086362460720e-04 0.0000000000000000e+00  3.7103345716045371e-05 -8.1175845014662450e-04 0.0000000000000000e+00  3.5911306716694375e-06 -9.3307586544333241e-06 0.0000000000000000e+00  3.7453948741518590e-05 -7.5590516599860307e-04 0.0000000000000000e+00  6.3461626905753313e-06 -2.2592106238132684e-05 0.0000000000000000e+00  3.7925027570669882e-05 -6.9932844034834539e-04 0.0000000000000000e+00  1.1450328280291411e-05 -5.5161887105756924e-05 0.0000000000000000e+00  1.5076165267795242e-05 -8.1926119305930872e-05 0.0000000000000000e+00  3.8066243426702641e-05 -6.4314449068262290e-04 0.0000000000000000e+00  2.3054818429147556e-05 -1.6952955684107002e-04 0.0000000000000000e+00  3.7377988602891876e-05 -5.3258763057937480e-04 0.0000000000000000e+00  1.8088336190017126e-05 -1.1223159855546405e-04 0.0000000000000000e+00  2.6236778404378373e-05 -2.0982230327533380e-04 0.0000000000000000e+00  3.6552436628811718e-05 -4.7859427632493824e-04 0.0000000000000000e+00  3.7882912031267133e-05 -5.8750601925058117e-04 0.0000000000000000e+00  2.8839628547358397e-05 -2.5384872659624887e-04 0.0000000000000000e+00  3.5403331236513126e-05 -4.2575980696865439e-04 0.0000000000000000e+00  3.0630428597457814e-05 -2.9846116764915809e-04 0.0000000000000000e+00  3.4408433046735366e-05 -3.7542939831500434e-04 0.0000000000000000e+00  3.2507897898140807e-05 -3.3490573953134532e-04 0.0000000000000000e+00  2.0870247515153127e-05 -1.3871327395725917e-04 0.0000000000000000e+00  3.5664104705175908e-05 -8.5798735748652188e-04 0.0000000000000000e+00  8.9125667342222113e-06 -3.6881907512726345e-05 0.0000000000000000e+00  2.1137778822025261e-05 -9.2718090017860071e-04 0.0000000000000000e+00  2.4131940941685749e-07 -3.1550452892231010e-06 0.0000000000000000e+00  2.6735158636469894e-05 -7.2676591525475869e-04 0.0000000000000000e+00  2.6043541884855273e-05 -7.8353893094951807e-04 0.0000000000000000e+00  8.2875762202267971e-06 -1.7290492666574554e-05 0.0000000000000000e+00  1.8593484766102534e-05 -6.9254654384019490e-05 0.0000000000000000e+00  2.7009239041125851e-05 -5.5898989548407217e-04 0.0000000000000000e+00  2.7121319418813851e-05 -6.7031808360076437e-04 0.0000000000000000e+00  3.2769644383069152e-05 -1.9031606700010238e-04 0.0000000000000000e+00  2.6528461627259802e-05 -5.0445956336318289e-04 0.0000000000000000e+00  2.2906750203667858e-05 -9.8783766705268222e-05 0.0000000000000000e+00  3.6087980272304846e-05 -2.3286338844222737e-04 0.0000000000000000e+00  2.5769629889091336e-05 -4.5096973086651565e-04 0.0000000000000000e+00  2.7208931810724610e-05 -6.1433834926576125e-04 0.0000000000000000e+00  4.1002304467022007e-05 -2.7819277388959620e-04 0.0000000000000000e+00  2.4734663916281771e-05 -3.9876278302883544e-04 0.0000000000000000e+00  1.4673494066090110e-07 -1.2608074549908176e-06 0.0000000000000000e+00  -5.1231467687983094e-07 5.8364496205187214e-07 0.0000000000000000e+00  4.1489819395536023e-05 -9.7832702908534110e-04 0.0000000000000000e+00  4.1915935597118514e-06 -6.6021029222764784e-0