<?xml version="1.0"?>
<VTKFile type="UnstructuredGrid"  version="0.1"  >
<UnstructuredGrid>
<Piece  NumberOfPoints="1419" NumberOfCells="2698">
<Points>
<DataArray  type="Float64"  NumberOfComponents="3"  format="ascii">0 0 0  0 0.41 0  2.5 0 0  2.5 0.41 0  0.6 0.19 0  0.6 0.21 0  0.25 0.2 0  0.15 0.2 0  0.2489897948556636 0.21 0  0.2489897948556636 0.19 0  0.6 0.2 0  0 0.3807142857143437 0  0 0.3514285714286952 0  0 0.3221428571430699 0  0 0.29285714285744 0  0 0.2635714285718054 0  0 0.2342857142861561 0  0 0.2050000000005308 0  0 0.175714285714732 0  0 0.1464285714289574 0  0 0.1171428571431897 0  0 0.08785714285737878 0  0 0.05857142857161107 0  0 0.02928571428580012 0  0.03015443760436003 0 0  0.06140001986583606 0 0  0.09377624077125973 0 0  0.1273239957535082 0 0  0.1620856860351972 0 0  0.1981052433264291 0 0  0.235428184091502 0 0  0.2741016576309132 0 0  0.3141745521465447 0 0  0.3556974926295285 0 0  0.3987229542472677 0 0  0.4433053055141081 0 0  0.4895008759286886 0 0  0.5373680609405097 0 0  0.5869673343216626 0 0  0.6383613676634521 0 0  0.6916151138468254 0 0  0.7467958595648856 0 0  0.8039733463919316 0 0  0.8632198139502143 0 0  0.9246101326867038 0 0  0.9882218810934433 0 0  1.054135445558498 0 0  1.122434100542598 0 0  1.193204177141305 0 0  1.266535089879536 0 0  1.342519516046404 0 0  1.421253448503939 0 0  1.502836389106271 0 0  1.587371439758838 0 0  1.674965418777374 0 0  1.765729001825544 0 0  1.859776908880082 0 0  1.957227977487062 0 0  2.058205329869943 0 0  2.162836591189951 0 0  2.271253957290865 0 0  2.383594446803425 0 0  2.5 0.1024999999997612 0  2.5 0.2049999999994743 0  2.5 0.3074999999997183 0  2.383594446803656 0.41 0  2.271253957291315 0.41 0  2.162836591190598 0.41 0  2.058205329870775 0.41 0  1.957227977488067 0.41 0  1.859776908881246 0.41 0  1.765729001826854 0.41 0  1.674965418778818 0.41 0  1.58737143976041 0.41 0  1.502836389107956 0.41 0  1.421253448505726 0.41 0  1.342519516048286 0.41 0  1.266535089881505 0.41 0  1.193204177143353 0.41 0  1.122434100544716 0.41 0  1.05413544556068 0.41 0  0.9882218810956305 0.41 0  0.9246101326886647 0.41 0  0.8632198139519631 0.41 0  0.8039733463934788 0.41 0  0.7467958595662458 0.41 0  0.6916151138480078 0.41 0  0.6383613676644679 0.41 0  0.5869673343225223 0.41 0  0.5373680609412221 0.41 0  0.4895008759292634 0.41 0  0.4433053055145528 0.41 0  0.3987229542475914 0.41 0  0.3556974926297398 0.41 0  0.3141745521466497 0.41 0  0.2741016576310038 0.41 0  0.2354281840915826 0.41 0  0.1981052433265003 0.41 0  0.1620856860352591 0.41 0  0.1273239957535623 0.41 0  0.09377624077128965 0.41 0  0.06140001986584975 0.41 0  0.03015443760436654 0.41 0  0.2497468076502589 0.2050254481002335 0  0.2497468076502614 0.1949745518997913 0  0.2469965252529372 0.1829317073451959 0  0.2439893735792749 0.1762316384219906 0  0.2400332147834255 0.1700443375285386 0  0.2352133972704371 0.1645032867342007 0  0.2296339016332438 0.1597280261969788 0  0.2234150974217223 0.1558215752574715 0  0.2166911463437691 0.1528682099456123 0  0.2096071079204251 0.1509316448471593 0  0.2023158100364996 0.1500536585536553 0  0.194974551899914 0.1502531923497262 0  0.1877417105387872 0.1515259415822739 0  0.1807733240461124 0.153844448527136 0  0.1742197252835808 0.15715869474974 0  0.1682222986673531 0.1613971801805478 0  0.162910430003803 0.1664684656256651 0  0.1583987151779087 0.1722631454351573 0  0.1547844879126891 0.178656207771761 0  0.1521457199348551 0.1855097315605723 0  0.1505393388476355 0.1926758619366523 0  0.1505393388476328 0.2073241380633295 0  0.1521457199348437 0.2144902684393899 0  0.1547844879126531 0.221343792228163 0  0.1583987151778488 0.2277368545647528 0  0.1629104300036858 0.2335315343742052 0  0.1682222986671726 0.2386028198193036 0  0.1742197252833576 0.2428413052501257 0  0.1807733240458683 0.2461555514727623 0  0.1877417105384929 0.2484740584176516 0  0.1949745518995776 0.2497468076502398 0  0.202315810036185 0.2499463414463592 0  0.2096071079201568 0.2490683551528932 0  0.2166911463435495 0.2471317900544655 0  0.2234150974215506 0.2441784247426195 0  0.2296339016331197 0.2402719738031125 0  0.2352133972703547 0.2354967132658811 0  0.2400332147833751 0.2299556624715287 0  0.2439893735792577 0.2237683615780412 0  0.246996525252926 0.2170682926548348 0  0.25645809709277 0.21 0  0.2639263993298655 0.21 0  0.271394701566961 0.21 0  0.2788630038040554 0.21 0  0.2863313060411479 0.21 0  0.2937996082782405 0.21 0  0.301267910515333 0.21 0  0.3087362127524279 0.21 0  0.3162045149895234 0.21 0  0.3236728172265972 0.21 0  0.3311411194636928 0.21 0  0.3386094217007701 0.21 0  0.3460777239378666 0.21 0  0.3535460261749672 0.21 0  0.3610143284120516 0.21 0  0.3684826306491596 0.21 0  0.3759509328862226 0.21 0  0.383419235123329 0.21 0  0.3908875373604028 0.21 0  0.3983558395975142 0.21 0  0.4058241418345938 0.21 0  0.4132924440716992 0.21 0  0.4207607463087888 0.21 0  0.4282290485459029 0.21 0  0.4356973507830418 0.21 0  0.4431656530201649 0.21 0  0.4506339552573136 0.21 0  0.4581022574944306 0.21 0  0.4655705597315852 0.21 0  0.4730388619686996 0.21 0  0.480507164205851 0.21 0  0.4879754664429498 0.21 0  0.4954437686800938 0.21 0  0.502912070917267 0.21 0  0.5103803731544119 0.21 0  0.5178486753915261 0.21 0  0.5253169776286404 0.21 0  0.5327852798657868 0.21 0  0.5402535821029386 0.21 0  0.54772188434007 0.21 0  0.5551901865771842 0.21 0  0.5626584888143201 0.21 0  0.5701267910514778 0.21 0  0.5775950932886138 0.21 0  0.5850633955257281 0.21 0  0.5925316977628483 0.21 0  0.6 0.2050000000000054 0  0.6 0.1950000000000217 0  0.5925316977628897 0.19 0  0.5850633955257988 0.19 0  0.5775950932887378 0.19 0  0.5701267910515998 0.19 0  0.5626584888145268 0.19 0  0.5551901865773963 0.19 0  0.547721884340339 0.19 0  0.5402535821032429 0.19 0  0.5327852798661811 0.19 0  0.5253169776290537 0.19 0  0.5178486753919799 0.19 0  0.5103803731549078 0.19 0  0.502912070917822 0.19 0  0.4954437686807294 0.19 0  0.4879754664436223 0.19 0  0.4805071642065402 0.19 0  0.4730388619694271 0.19 0  0.4655705597323621 0.19 0  0.4581022574952563 0.19 0  0.4506339552581777 0.19 0  0.4431656530210671 0.19 0  0.4356973507839815 0.19 0  0.4282290485468779 0.19 0  0.4207607463097617 0.19 0  0.4132924440726327 0.19 0  0.4058241418354857 0.19 0  0.3983558395983636 0.19 0  0.3908875373612097 0.19 0  0.3834192351240934 0.19 0  0.3759509328869369 0.19 0  0.3684826306498175 0.19 0  0.361014328412667 0.19 0  0.3535460261755617 0.19 0  0.3460777239384295 0.19 0  0.3386094217012945 0.19 0  0.3311411194641595 0.19 0  0.3236728172270245 0.19 0  0.3162045149898895 0.19 0  0.3087362127527544 0.19 0  0.3012679105156187 0.19 0  0.2937996082784807 0.19 0  0.2863313060413428 0.19 0  0.2788630038042048 0.19 0  0.2713947015670686 0.19 0  0.2639263993299336 0.19 0  0.2564580970927985 0.19 0  0.2607803159922026 0.2000727136295815 0  0.5887803774232762 0.2001272386983733 0  0.5745072403740523 0.2002044435018727 0  0.5511891430099709 0.2001122610077113 0  0.2751288526855082 0.20000000000002 0  0.5365194309847112 0.1999999999999436 0  0.2894621222999649 0.1998691686390484 0  0.5215828265105155 0.1999999999999228 0  0.3127789816668748 0.1998657885438805 0  0.3274069683451451 0.2000000000000796 0  0.5066462220363641 0.199999999999908 0  0.3650630746574081 0.199866017807523 0  0.476773013087985 0.1999999999998713 0  0.3417402379596385 0.1998691686391011 0  0.3796850840047755 0.200000000000134 0  0.4618364086138087 0.1999999999998546 0  0.4917096175621762 0.1999999999998808 0  0.3946216884789568 0.2000000000001512 0  0.446899804139621 0.1999999999998389 0  0.4089549580935208 0.1998691686391595 0  0.4322718174608562 0.200127451265745 0  0.4201487168029707 0.1999966199048527 0  0.3528922713220932 0.2000185703532356 0  0.5633122436674589 0.1999814296467508 0  0.3006558810093873 0.1999966199048318 0  0.5815926498168407 0.1966545283159175 0  0.2677053789419034 0.1964246479135325 0  0.5290511287476175 0.1970915826863981 0  0.5439877332217911 0.197091582686394 0  0.2825131256993216 0.2035478995978015 0  0.3199386661080599 0.202908417313604 0  0.4842413153250809 0.1970915826863873 0  0.5141145242734466 0.1970915826863843 0  0.3722167817676917 0.2029084173136195 0  0.4693047108508938 0.1970915826863783 0  0.3348752705822316 0.202908417313609 0  0.3871533862418661 0.2029084173136212 0  0.4543681063767183 0.1970915826863795 0  0.4991779197992749 0.1970915826863902 0  0.4020059614928624 0.203547899597858 0  0.4394315019025246 0.1970915826863714 0  0.2550657455369551 0.2034088125358657 0  0.2548908499171161 0.1966940311614271 0  0.5946539510196798 0.2024302972968126 0  0.267698176732111 0.2039977513680092 0  0.4261685417851465 0.196409292431739 0  0.3590076176283495 0.196411355804271 0  0.5571672426447437 0.2036011176410121 0  0.3066757059912147 0.1964092924317024 0  0.594380730180568 0.1966558399668133 0  0.4842413153245942 0.2040749161535287 0  0.4693047108503577 0.2040749161535231 0  0.3871533862424271 0.1959250838464788 0  0.372246743208829 0.1959123236376545 0  0.5141145242731028 0.2040749161535395 0  0.4543681063761134 0.2040749161535186 0  0.4019979587101454 0.1959834479682427 0  0.4394608940728603 0.2040870543693135 0  0.5439623148931173 0.2040856076781014 0  0.5290511287473298 0.2040749161535501 0  0.4991779197988497 0.2040749161535382 0  0.3347912413592433 0.1959225448935183 0  0.3199680582793816 0.1959123018030061 0  0.2825051229162361 0.1959834479681729 0  0.3590471196690275 0.2036304442587945 0  0.5571594006495384 0.1963685282145804 0  0.3067669986803285 0.203627750582736 0  0.4262598344738712 0.2036568242185335 0  0.5814408164431408 0.2041285596160068 0  0.5688286748170428 0.1961819304477386 0  0.4145905603063645 0.2038180695522843 0  0.3473758401724931 0.2038180695522752 0  0.2950977245128307 0.2038180695522663 0  0.5688286748170693 0.203818069552238 0  0.2950977245127906 0.1961819304477774 0  0.3473758401723931 0.1961819304478349 0  0.4145905603061963 0.1961819304479011 0  0.2601812407614425 0.2056861609747042
[...]
<PointData  Vectors="f_40-0"> 
<DataArray  type="Float64"  Name="f_40-0"  NumberOfComponents="3" format="ascii">0.0000000000000000e+00 0.0000000000000000e+00 0.0000000000000000e+00  0.0000000000000000e+00 0.0000000000000000e+00 0.0000000000000000e+00  0.0000000000000000e+00 0.0000000000000000e+00 0.0000000000000000e+00  0.0000000000000000e+00 0.0000000000000000e+00 0.0000000000000000e+00  1.4226741576787061e-04 3.1987959278443182e-03 0.0000000000000000e+00  -1.0617169270042405e-04 3.2033804339196650e-03 0.0000000000000000e+00  0.0000000000000000e+00 0.0000000000000000e+00 0.0000000000000000e+00  0.0000000000000000e+00 0.0000000000000000e+00 0.0000000000000000e+00  0.0000000000000000e+00 0.0000000000000000e+00 0.0000000000000000e+00  0.0000000000000000e+00 0.0000000000000000e+00 0.0000000000000000e+00  1.8452485261763693e-05 3.2010646915446358e-03 0.0000000000000000e+00  7.6395334512777746e-01 0.0000000000000000e+00 0.0000000000000000e+00  1.4103754063898366e+00 0.0000000000000000e+00 0.0000000000000000e+00  1.9392661837860259e+00 0.0000000000000000e+00 0.0000000000000000e+00  2.3506256773169572e+00 0.0000000000000000e+00 0.0000000000000000e+00  2.6444538869825776e+00 0.0000000000000000e+00 0.0000000000000000e+00  2.8207508127828684e+00 0.0000000000000000e+00 0.0000000000000000e+00  2.8795164547176553e+00 0.0000000000000000e+00 0.0000000000000000e+00  2.8207508127864336e+00 0.0000000000000000e+00 0.0000000000000000e+00  2.6444538869886998e+00 0.0000000000000000e+00 0.0000000000000000e+00  2.3506256773245391e+00 0.0000000000000000e+00 0.0000000000000000e+00  1.9392661837932288e+00 0.0000000000000000e+00 0.0000000000000000e+00  1.4103754063959832e+00 0.0000000000000000e+00 0.0000000000000000e+00  7.6395334513124069e-01 0.0000000000000000e+00 0.0000000000000000e+00  0.0000000000000000e+00 0.0000000000000000e+00 0.0000000000000000e+00  0.0000000000000000e+00 0.0000000000000000e+00 0.0000000000000000e+00  0.0000000000000000e+00 0.0000000000000000e+00 0.0000000000000000e+00  0.0000000000000000e+00 0.0000000000000000e+00 0.0000000000000000e+00  0.0000000000000000e+00 0.0000000000000000e+00 0.0000000000000000e+00  0.0000000000000000e+00 0.0000000000000000e+00 0.0000000000000000e+00  0.0000000000000000e+00 0.0000000000000000e+00 0.0000000000000000e+00  0.0000000000000000e+00 0.0000000000000000e+00 0.0000000000000000e+00  0.0000000000000000e+00 0.0000000000000000e+00 0.0000000000000000e+00  0.0000000000000000e+00 0.0000000000000000e+00 0.0000000000000000e+00  0.0000000000000000e+00 0.0000000000000000e+00 0.0000000000000000e+00  0.0000000000000000e+00 0.0000000000000000e+00 0.0000000000000000e+00  0.0000000000000000e+00 0.0000000000000000e+00 0.0000000000000000e+00  0.0000000000000000e+00 0.0000000000000000e+00 0.0000000000000000e+00  0.0000000000000000e+00 0.0000000000000000e+00 0.0000000000000000e+00  0.0000000000000000e+00 0.0000000000000000e+00 0.0000000000000000e+00  0.0000000000000000e+00 0.0000000000000000e+00 0.0000000000000000e+00  0.0000000000000000e+00 0.0000000000000000e+00 0.0000000000000000e+00  0.0000000000000000e+00 0.0000000000000000e+00 0.0000000000000000e+00  0.0000000000000000e+00 0.0000000000000000e+00 0.0000000000000000e+00  0.0000000000000000e+00 0.0000000000000000e+00 0.0000000000000000e+00  0.0000000000000000e+00 0.0000000000000000e+00 0.0000000000000000e+00  0.0000000000000000e+00 0.0000000000000000e+00 0.0000000000000000e+00  0.0000000000000000e+00 0.0000000000000000e+00 0.0000000000000000e+00  0.0000000000000000e+00 0.0000000000000000e+00 0.0000000000000000e+00  0.0000000000000000e+00 0.0000000000000000e+00 0.0000000000000000e+00  0.0000000000000000e+00 0.0000000000000000e+00 0.0000000000000000e+00  0.0000000000000000e+00 0.0000000000000000e+00 0.0000000000000000e+00  0.0000000000000000e+00 0.0000000000000000e+00 0.0000000000000000e+00  0.0000000000000000e+00 0.0000000000000000e+00 0.0000000000000000e+00  0.0000000000000000e+00 0.0000000000000000e+00 0.0000000000000000e+00  0.0000000000000000e+00 0.0000000000000000e+00 0.0000000000000000e+00  0.0000000000000000e+00 0.0000000000000000e+00 0.0000000000000000e+00  0.0000000000000000e+00 0.0000000000000000e+00 0.0000000000000000e+00  0.0000000000000000e+00 0.0000000000000000e+00 0.0000000000000000e+00  0.0000000000000000e+00 0.0000000000000000e+00 0.0000000000000000e+00  0.0000000000000000e+00 0.0000000000000000e+00 0.0000000000000000e+00  0.0000000000000000e+00 0.0000000000000000e+00 0.0000000000000000e+00  2.5574005914393481e+00 -1.2390749623447748e-02 0.0000000000000000e+00  2.3945339933679022e+00 1.2730517066545535e-02 0.0000000000000000e+00  2.5328311651796587e+00 7.0830706523531850e-02 0.0000000000000000e+00  0.0000000000000000e+00 0.0000000000000000e+00 0.0000000000000000e+00  0.0000000000000000e+00 0.0000000000000000e+00 0.0000000000000000e+00  0.0000000000000000e+00 0.0000000000000000e+00 0.0000000000000000e+00  0.0000000000000000e+00 0.0000000000000000e+00 0.0000000000000000e+00  0.0000000000000000e+00 0.0000000000000000e+00 0.0000000000000000e+00  0.0000000000000000e+00 0.0000000000000000e+00 0.0000000000000000e+00  0.0000000000000000e+00 0.0000000000000000e+00 0.0000000000000000e+00  0.0000000000000000e+00 0.0000000000000000e+00 0.0000000000000000e+00  0.0000000000000000e+00 0.0000000000000000e+00 0.0000000000000000e+00  0.0000000000000000e+00 0.0000000000000000e+00 0.0000000000000000e+00  0.0000000000000000e+00 0.0000000000000000e+00 0.0000000000000000e+00  0.0000000000000000e+00 0.0000000000000000e+00 0.0000000000000000e+00  0.0000000000000000e+00 0.0000000000000000e+00 0.0000000000000000e+00  0.0000000000000000e+00 0.0000000000000000e+00 0.0000000000000000e+00  0.0000000000000000e+00 0.0000000000000000e+00 0.0000000000000000e+00  0.0000000000000000e+00 0.0000000000000000e+00 0.0000000000000000e+00  0.0000000000000000e+00 0.0000000000000000e+00 0.0000000000000000e+00  0.0000000000000000e+00 0.0000000000000000e+00 0.0000000000000000e+00  0.0000000000000000e+00 0.0000000000000000e+00 0.0000000000000000e+00  0.0000000000000000e+00 0.0000000000000000e+00 0.0000000000000000e+00  0.0000000000000000e+00 0.0000000000000000e+00 0.0000000000000000e+00  0.0000000000000000e+00 0.0000000000000000e+00 0.0000000000000000e+00  0.0000000000000000e+00 0.0000000000000000e+00 0.0000000000000000e+00  0.0000000000000000e+00 0.0000000000000000e+00 0.0000000000000000e+00  0.0000000000000000e+00 0.0000000000000000e+00 0.0000000000000000e+00  0.0000000000000000e+00 0.0000000000000000e+00 0.0000000000000000e+00  0.0000000000000000e+00 0.0000000000000000e+00 0.0000000000000000e+00  0.0000000000000000e+00 0.0000000000000000e+00 0.0000000000000000e+00  0.0000000000000000e+00 0.0000000000000000e+00 0.0000000000000000e+00  0.0000000000000000e+00 0.0000000000000000e+00 0.0000000000000000e+00  0.0000000000000000e+00 0.0000000000000000e+00 0.0000000000000000e+00  0.0000000000000000e+00 0.0000000000000000e+00 0.0000000000000000e+00  0.0000000000000000e+00 0.0000000000000000e+00 0.0000000000000000e+00  0.0000000000000000e+00 0.0000000000000000e+00 0.0000000000000000e+00  0.0000000000000000e+00 0.0000000000000000e+00 0.0000000000000000e+00  0.0000000000000000e+00 0.0000000000000000e+00 0.0000000000000000e+00  0.0000000000000000e+00 0.0000000000000000e+00 0.0000000000000000e+00  0.0000000000000000e+00 0.0000000000000000e+00 0.0000000000000000e+00  0.0000000000000000e+00 0.0000000000000000e+00 0.0000000000000000e+00  0.0000000000000000e+00 0.0000000000000000e+00 0.0000000000000000e+00  0.0000000000000000e+00 0.0000000000000000e+00 0.0000000000000000e+00  0.0000000000000000e+00 0.0000000000000000e+00 0.0000000000000000e+00  0.0000000000000000e+00 0.0000000000000000e+00 0.0000000000000000e+00  0.0000000000000000e+00 0.0000000000000000e+00 0.0000000000000000e+00  0.0000000000000000e+00 0.0000000000000000e+00 0.0000000000000000e+00  0.0000000000000000e+00 0.0000000000000000e+00 0.0000000000000000e+00  0.0000000000000000e+00 0.0000000000000000e+00 0.0000000000000000e+00  0.0000000000000000e+00 0.0000000000000000e+00 0.0000000000000000e+00  0.0000000000000000e+00 0.0000000000000000e+00 0.0000000000000000e+00  0.0000000000000000e+00 0.0000000000000000e+00 0.0000000000000000e+00  0.0000000000000000e+00 0.0000000000000000e+00 0.0000000000000000e+00  0.0000000000000000e+00 0.0000000000000000e+00 0.0000000000000000e+00  0.0000000000000000e+00 0.0000000000000000e+00 0.0000000000000000e+00  0.0000000000000000e+00 0.0000000000000000e+00 0.0000000000000000e+00  0.0000000000000000e+00 0.0000000000000000e+00 0.0000000000000000e+00  0.0000000000000000e+00 0.0000000000000000e+00 0.0000000000000000e+00  0.0000000000000000e+00 0.0000000000000000e+00 0.0000000000000000e+00  0.0000000000000000e+00 0.0000000000000000e+00 0.0000000000000000e+00  0.0000000000000000e+00 0.0000000000000000e+00 0.0000000000000000e+00  0.0000000000000000e+00 0.0000000000000000e+00 0.0000000000000000e+00  0.0000000000000000e+00 0.0000000000000000e+00 0.0000000000000000e+00  0.0000000000000000e+00 0.0000000000000000e+00 0.0000000000000000e+00  0.0000000000000000e+00 0.0000000000000000e+00 0.0000000000000000e+00  0.0000000000000000e+00 0.0000000000000000e+00 0.0000000000000000e+00  0.0000000000000000e+00 0.0000000000000000e+00 0.0000000000000000e+00  0.0000000000000000e+00 0.0000000000000000e+00 0.0000000000000000e+00  0.0000000000000000e+00 0.0000000000000000e+00 0.0000000000000000e+00  0.0000000000000000e+00 0.0000000000000000e+00 0.0000000000000000e+00  0.0000000000000000e+00 0.0000000000000000e+00 0.0000000000000000e+00  0.0000000000000000e+00 0.0000000000000000e+00 0.0000000000000000e+00  0.0000000000000000e+00 0.0000000000000000e+00 0.0000000000000000e+00  0.0000000000000000e+00 0.0000000000000000e+00 0.0000000000000000e+00  0.0000000000000000e+00 0.0000000000000000e+00 0.0000000000000000e+00  0.0000000000000000e+00 0.0000000000000000e+00 0.0000000000000000e+00  0.0000000000000000e+00 0.0000000000000000e+00 0.0000000000000000e+00  0.0000000000000000e+00 0.0000000000000000e+00 0.0000000000000000e+00  0.0000000000000000e+00 0.0000000000000000e+00 0.0000000000000000e+00  0.0000000000000000e+00 0.0000000000000000e+00 0.0000000000000000e+00  -4.8278499133017452e-06 8.8554584588173004e-06 0.0000000000000000e+00  -1.0679628683024057e-05 1.5811940691117512e-05 0.0000000000000000e+00  -1.6085585432577622e-05 2.7141957664164166e-05 0.0000000000000000e+00  -2.2265148637677512e-05 4.3192629852458041e-05 0.0000000000000000e+00  -2.7483250058925285e-05 6.3518713945509683e-05 0.0000000000000000e+00  -3.3633910680830003e-05 8.8557188819620271e-05 0.0000000000000000e+00  -3.8553121494568849e-05 1.1717531296472247e-04 0.0000000000000000e+00  -4.3410763477450070e-05 1.5056317552661951e-04 0.0000000000000000e+00  -4.9186211185326564e-05 1.8762508567187012e-04 0.0000000000000000e+00  -5.3536599573683180e-05 2.2861680737179413e-04 0.0000000000000000e+00  -5.9070191884567048e-05 2.7348660706348317e-04 0.0000000000000000e+00  -6.3149042463215102e-05 3.2203608321360440e-04 0.0000000000000000e+00  -6.8143705340541387e-05 3.7415151892077633e-04 0.0000000000000000e+00  -7.2036816243091102e-05 4.2921762038181452e-04 0.0000000000000000e+00  -7.5819589899411925e-05 4.8794988969231683e-04 0.0000000000000000e+00  -8.0208320047032647e-05 5.4946537342774658e-04 0.0000000000000000e+00  -8.3437471125062581e-05 6.1388354439305035e-04 0.0000000000000000e+00  -8.7405029749634716e-05 6.8112369057059632e-04 0.0000000000000000e+00  -9.0238630968642866e-05 7.5090577997653524e-04 0.0000000000000000e+00  -9.3647091736683862e-05 8.2306316232810329e-04 0.0000000000000000e+00  -9.6235140132473770e-05 8.9751504410769752e-04 0.0000000000000000e+00  -9.9105142291908610e-05 9.7416385504974336e-04 0.0000000000000000e+00  -1.0127550631143884e-04 1.0524303232705748e-03 0.0000000000000000e+00  -1.0327849942019549e-04 1.1327652037272564e-03 0.0000000000000000e+00  -1.0547795728596715e-04 1.2144919186576307e-03 0.0000000000000000e+00  -1.0715868530904376e-04 1.2978361451454017e-03 0.0000000000000000e+00  -1.0877458666988688e-04 1.3825837035125331e-03 0.0000000000000000e+00  -1.1006869834405511e-04 1.4684698757125214e-03 0.0000000000000000e+00  -1.1127212336644219e-04 1.5555490198476010e-03 0.0000000000000000e+00  -1.1218896587897068e-04 1.6435200564158233e-03 0.0000000000000000e+00  -1.1300182142311565e-04 1.7324406488363094e-03 0.0000000000000000e+00  -1.1355832688778661e-04 1.8220225911807844e-03 0.0000000000000000e+00  -1.1400383403505705e-04 1.9123273984656120e-03 0.0000000000000000e+00  -1.1422463480719507e-04 2.0030887093472490e-03 0.0000000000000000e+00  -1.1432673788152720e-04 2.0943798933631087e-03 0.0000000000000000e+00  -1.1424050241210147e-04 2.1859614696964147e-03 0.0000000000000000e+00  -1.1404369172540514e-04 2.2779053299695432e-03 0.0000000000000000e+00  -1.1368998752516521e-04 2.3700119955116323e-03 0.0000000000000000e+00  -1.1323200176218774e-04 2.4623552635126330e-03 0.0000000000000000e+00  -1.1264243132155612e-04 2.5547671742483431e-03 0.0000000000000000e+00  -1.1195154411275072e-04 2.6473136627122910e-03 0.0000000000000000e+00  -1.1116366998731013e-04 2.7398838608245091e-03 0.0000000000000000e+00  -1.1027341570398869e-04 2.8325104362992661e-03 0.0000000000000000e+00  -1.0933413290451641e-04 2.9251465136294098e-03 0.0000000000000000e+00  -1.0829189049558729e-04 3.0177686589437963e-03 0.0000000000000000e+00  -1.0720802107118358e-04 3.1104499576936669e-03 0.0000000000000000e+00  -4.3712526177875763e-05 3.2022150493423596e-03 0.0000000000000000e+00  8.0486771656979364e-05 3.1999217490566575e-03 0.0000000000000000e+00  1.4119981062088712e-04 3.1061493819534089e-03 0.0000000000000000e+00  1.4007821835165956e-04 3.0133133534843504e-03 0.0000000000000000e+00  1.3899221185841867e-04 2.9204594515531506e-03 0.0000000000000000e+00  1.3796398107631492e-04 2.8276517112091263e-03 0.0000000000000000e+00  1.3696883751012823e-04 2.7348624775797069e-03 0.0000000000000000e+00  1.3602694843061421e-04 2.6421266412800554e-03 0.0000000000000000e+00  1.3508046177215861e-04 2.5494547083835203e-03 0.0000000000000000e+00  1.3418717218798519e-04 2.4568673942379628e-03 0.0000000000000000e+00  1.3324295888303653e-04 2.3644292883577261e-03 0.0000000000000000e+00  1.3235367072926657e-04 2.2721536982498011e-03 0.0000000000000000e+00  1.3135099659128895e-04 2.1801207177057072e-03 0.0000000000000000e+00  1.3041650381880458e-04 2.0883779146366006e-03 0.0000000000000000e+00  1.2929200380844307e-04 1.9970049730721807e-03 0.0000000000000000e+00  1.2826015215297703e-04 1.9060883790253441e-03 0.0000000000000000e+00  1.2695099194308344e-04 1.8157065814520409e-03 0.0000000000000000e+00  1.2577449726965898e-04 1.7259795342980889e-03 0.0000000000000000e+00  1.2422662109306593e-04 1.6369842906211510e-03 0.0000000000000000e+00  1.2286432061176493e-04 1.5488701038765653e-03 0.0000000000000000e+00  1.2103024314843457e-04 1.4617128699836919e-03 0.0000000000000000e+00  1.1944676246798870e-04 1.3756813016085417e-03 0.0000000000000000e+00  1.1727339736736940e-04 1.2908569691506850e-03 0.0000000000000000e+00  1.1542034537187074e-04 1.2074309554479660e-03 0.0000000000000000e+00  1.1290817594763379e-04 1.1255068025057815e-03 0.0000000000000000e+00  1.1066026063715278e-04 1.0450843233762136e-03 0.0000000000000000e+00  1.0827522829453333e-04 9.6672879187618846e-04 0.0000000000000000e+00  1.0526412932816276e-04 8.8990956789113118e-04 0.0000000000000000e+00  1.0240286688410256e-04 8.1542158212747793e-04 0.0000000000000000e+00  9.9067986370158652e-05 7.4304579148339630e-04 0.0000000000000000e+00  9.5785358195314344e-05 6.7318811022798778e-04 0.0000000000000000e+00  9.2037268165691232e-05 6.0581999138587211e-04 0.0000000000000000e+00  8.8344910512032436e-05 5.4116133124438887e-04 0.0000000000000000e+00  8.3860587046947593e-05 4.7969986489861035e-04 0.0000000000000000e+00  7.9907310553360906e-05 4.2079709829179630e-04 0.0000000000000000e+00  7.5800501256751465e-05 3.6565400007674951e-04 0.0000000000000000e+00  7.0735265799166673e-05 3.1317650491484293e-04 0.0000000000000000e+00  6.5989681787012448e-05 2.6462817112726794e-04 0.0000000000000000e+00  6.0683120527411600e-05 2.1960604681250457e-04 0.0000000000000000e+00  5.5581938963638668e-05 1.7833110873290665e-04 0.0000000000000000e+00  4.9545258163192403e-05 1.4137505846884780e-04 0.0000000000000000e+00  4.4295208948044632e-05 1.0780531727908675e-04 0.0000000000000000e+00  3.8958513755304394e-05 7.9090358883217296e-05 0.0000000000000000e+00  3.2462368715089475e-05 5.3815732985422493e-05 0.0000000000000000e+00  2.6601176194577603e-05 3.3278935732838188e-05 0.0000000000000000e+00  1.9791953675374420e-05 1.7311255647608569e-05 0.0000000000000000e+00  1.3648052862744542e-05 6.0738928966246555e-06 0.0000000000000000e+00  6.4491959119114347e-06 -2.7090616647785332e-07 0.0000000000000000e+00  2.0020095645300008e-06 4.3545413400758747e-06 0.0000000000000000e+00  1.5022036828301216e-05 3.0617222603315426e-03 0.0000000000000000e+00  1.1933017302669230e-05 2.8844869675974105e-03 0.0000000000000000e+00  1.0251331247202406e-05 2.5950602273116458e-03 0.0000000000000000e+00  2.1180057065340039e-06 2.6697969976245217e-05 0.0000000000000000e+00  1.0178085334643673e-05 2.4132823270901623e-03 0.0000000000000000e+00  2.9764548668108386e-06 6.5674247384202731e-05 0.0000000000000000e+00  8.9029695280371116e-06 2.2288157705871682e-03 0.0000000000000000e+00  3.8956955818745113e-06 1.6281815963272215e-04 0.0000000000000000e+00  3.5487409219196128e-06 2.4373209916390238e-04 0.0000000000000000e+00  7.8351697692068868e-06 2.0453805504091682e-03 0.0000000000000000e+00  5.2237585688097842e-06 5.1476388744077267e-04 0.0000000000000000e+00  6.2448585770106600e-06 1.6840959225138355e-03 0.0000000000000000e+00  4.6996615871166853e-06 3.3671414510131687e-04 0.0000000000000000e+00  4.2656470936032500e-06 6.4145544450072288e-04 0.0000000000000000e+00  5.6793954315542292e-06 1.5078345289509982e-03 0.0000000000000000e+00  6.9560895947917678e-06 1.8635629654848935e-03 0.0000000000000000e+00  4.4085487310670961e-06 7.8128544032227880e-04 0.0000000000000000e+00  5.2489063472770688e-06 1.3357315266363239e-03 0.0000000000000000e+00  5.8995272273261718e-06 9.2419369870649828e-04 0.0000000000000000e+00  3.5254392657423543e-06 1.1722361339882748e-03 0.0000000000000000e+00  4.7546943642013913e-06 1.0413882263494113e-03 0.0000000000000000e+00  3.8298641117000688e-06 4.1851338866505221e-04 0.0000000000000000e+00  1.3289390247010416e-05 2.7454549761618658e-03 0.0000000000000000e+00  2.9391221927949391e-06 1.0797283566649972e-04 0.0000000000000000e+00  5.7027186580799782e-05 2.9716768676652581e-03 0.0000000000000000e+00  7.4136294032589580e-06 1.1689901951395058e-05 0.0000000000000000e+00  4.5376780095902569e-05 2.3201485509534957e-03 0.0000000000000000e+00  4.6893612286820590e-05 2.5049870062038718e-03 0.0000000000000000e+00  -7.1968702103495415e-06 4.6997496497202771e-05 0.0000000000000000e+00  -1.2585327037391372e-05 2.0226181646549910e-04 0.0000000000000000e+00  4.1416000464602394e-05 1.7726215905649171e-03 0.0000000000000000e+00  4.3987317026497872e-05 2.1361088646546537e-03 0.0000000000000000e+00  -2.0849342803603473e-05 5.7685673728052487e-04 0.0000000000000000e+00  4.0143354808010173e-05 1.5946313202700420e-03 0.0000000000000000e+00  -1.5049126365200926e-05 2.9217115238339088e-04 0.0000000000000000e+00  -2.2714504823622629e-05 7.1150533142416662e-04 0.0000000000000000e+00  3.8827929807296139e-05 1.4203133116745367e-03 0.0000000000000000e+00  4.2682623637002515e-05 1.9533787809661251e-03 0.0000000000000000e+00  -3.0696326550274687e-05 8.5553408047018447e-04 0.0000000000000000e+00  3.7456349443623596e-05 1.2506556052151500e-03 0.0000000000000000e+00  5.1670095627004844e-07 1.8771596923514529e-06 0.0000000000000000e+00  2.3820486454915425e-06 -2.7926099603805935e-07 0.0000000000000000e+00  -1.2622462257751673e-05 3.1351769397596854e-03 0.0000000000000000e+00  -4.1251771381907618e-06 1.5614595633757367e-05 0.0000000000000000e+00  4.3484620284936823e-05 1.1045608286006957e-03 0.0000000000000000e+00  3.2486755120433522e