<?xml version="1.0"?>
<VTKFile type="UnstructuredGrid"  version="0.1"  >
<UnstructuredGrid>
<Piece  NumberOfPoints="1419" NumberOfCells="2698">
<Points>
<DataArray  type="Float64"  NumberOfComponents="3"  format="ascii">0 0 0  0 0.41 0  2.5 0 0  2.5 0.41 0  0.6 0.19 0  0.6 0.21 0  0.25 0.2 0  0.15 0.2 0  0.2489897948556636 0.21 0  0.2489897948556636 0.19 0  0.6 0.2 0  0 0.3807142857143437 0  0 0.3514285714286952 0  0 0.3221428571430699 0  0 0.29285714285744 0  0 0.2635714285718054 0  0 0.2342857142861561 0  0 0.2050000000005308 0  0 0.175714285714732 0  0 0.1464285714289574 0  0 0.1171428571431897 0  0 0.08785714285737878 0  0 0.05857142857161107 0  0 0.02928571428580012 0  0.03015443760436003 0 0  0.06140001986583606 0 0  0.09377624077125973 0 0  0.1273239957535082 0 0  0.1620856860351972 0 0  0.1981052433264291 0 0  0.235428184091502 0 0  0.2741016576309132 0 0  0.3141745521465447 0 0  0.3556974926295285 0 0  0.3987229542472677 0 0  0.4433053055141081 0 0  0.4895008759286886 0 0  0.5373680609405097 0 0  0.5869673343216626 0 0  0.6383613676634521 0 0  0.6916151138468254 0 0  0.7467958595648856 0 0  0.8039733463919316 0 0  0.8632198139502143 0 0  0.9246101326867038 0 0  0.9882218810934433 0 0  1.054135445558498 0 0  1.122434100542598 0 0  1.193204177141305 0 0  1.266535089879536 0 0  1.342519516046404 0 0  1.421253448503939 0 0  1.502836389106271 0 0  1.587371439758838 0 0  1.674965418777374 0 0  1.765729001825544 0 0  1.859776908880082 0 0  1.957227977487062 0 0  2.058205329869943 0 0  2.162836591189951 0 0  2.271253957290865 0 0  2.383594446803425 0 0  2.5 0.1024999999997612 0  2.5 0.2049999999994743 0  2.5 0.3074999999997183 0  2.383594446803656 0.41 0  2.271253957291315 0.41 0  2.162836591190598 0.41 0  2.058205329870775 0.41 0  1.957227977488067 0.41 0  1.859776908881246 0.41 0  1.765729001826854 0.41 0  1.674965418778818 0.41 0  1.58737143976041 0.41 0  1.502836389107956 0.41 0  1.421253448505726 0.41 0  1.342519516048286 0.41 0  1.266535089881505 0.41 0  1.193204177143353 0.41 0  1.122434100544716 0.41 0  1.05413544556068 0.41 0  0.9882218810956305 0.41 0  0.9246101326886647 0.41 0  0.8632198139519631 0.41 0  0.8039733463934788 0.41 0  0.7467958595662458 0.41 0  0.6916151138480078 0.41 0  0.6383613676644679 0.41 0  0.5869673343225223 0.41 0  0.5373680609412221 0.41 0  0.4895008759292634 0.41 0  0.4433053055145528 0.41 0  0.3987229542475914 0.41 0  0.3556974926297398 0.41 0  0.3141745521466497 0.41 0  0.2741016576310038 0.41 0  0.2354281840915826 0.41 0  0.1981052433265003 0.41 0  0.1620856860352591 0.41 0  0.1273239957535623 0.41 0  0.09377624077128965 0.41 0  0.06140001986584975 0.41 0  0.03015443760436654 0.41 0  0.2497468076502589 0.2050254481002335 0  0.2497468076502614 0.1949745518997913 0  0.2469965252529372 0.1829317073451959 0  0.2439893735792749 0.1762316384219906 0  0.2400332147834255 0.1700443375285386 0  0.2352133972704371 0.1645032867342007 0  0.2296339016332438 0.1597280261969788 0  0.2234150974217223 0.1558215752574715 0  0.2166911463437691 0.1528682099456123 0  0.2096071079204251 0.1509316448471593 0  0.2023158100364996 0.1500536585536553 0  0.194974551899914 0.1502531923497262 0  0.1877417105387872 0.1515259415822739 0  0.1807733240461124 0.153844448527136 0  0.1742197252835808 0.15715869474974 0  0.1682222986673531 0.1613971801805478 0  0.162910430003803 0.1664684656256651 0  0.1583987151779087 0.1722631454351573 0  0.1547844879126891 0.178656207771761 0  0.1521457199348551 0.1855097315605723 0  0.1505393388476355 0.1926758619366523 0  0.1505393388476328 0.2073241380633295 0  0.1521457199348437 0.2144902684393899 0  0.1547844879126531 0.221343792228163 0  0.1583987151778488 0.2277368545647528 0  0.1629104300036858 0.2335315343742052 0  0.1682222986671726 0.2386028198193036 0  0.1742197252833576 0.2428413052501257 0  0.1807733240458683 0.2461555514727623 0  0.1877417105384929 0.2484740584176516 0  0.1949745518995776 0.2497468076502398 0  0.202315810036185 0.2499463414463592 0  0.2096071079201568 0.2490683551528932 0  0.2166911463435495 0.2471317900544655 0  0.2234150974215506 0.2441784247426195 0  0.2296339016331197 0.2402719738031125 0  0.2352133972703547 0.2354967132658811 0  0.2400332147833751 0.2299556624715287 0  0.2439893735792577 0.2237683615780412 0  0.246996525252926 0.2170682926548348 0  0.25645809709277 0.21 0  0.2639263993298655 0.21 0  0.271394701566961 0.21 0  0.2788630038040554 0.21 0  0.2863313060411479 0.21 0  0.2937996082782405 0.21 0  0.301267910515333 0.21 0  0.3087362127524279 0.21 0  0.3162045149895234 0.21 0  0.3236728172265972 0.21 0  0.3311411194636928 0.21 0  0.3386094217007701 0.21 0  0.3460777239378666 0.21 0  0.3535460261749672 0.21 0  0.3610143284120516 0.21 0  0.3684826306491596 0.21 0  0.3759509328862226 0.21 0  0.383419235123329 0.21 0  0.3908875373604028 0.21 0  0.3983558395975142 0.21 0  0.4058241418345938 0.21 0  0.4132924440716992 0.21 0  0.4207607463087888 0.21 0  0.4282290485459029 0.21 0  0.4356973507830418 0.21 0  0.4431656530201649 0.21 0  0.4506339552573136 0.21 0  0.4581022574944306 0.21 0  0.4655705597315852 0.21 0  0.4730388619686996 0.21 0  0.480507164205851 0.21 0  0.4879754664429498 0.21 0  0.4954437686800938 0.21 0  0.502912070917267 0.21 0  0.5103803731544119 0.21 0  0.5178486753915261 0.21 0  0.5253169776286404 0.21 0  0.5327852798657868 0.21 0  0.5402535821029386 0.21 0  0.54772188434007 0.21 0  0.5551901865771842 0.21 0  0.5626584888143201 0.21 0  0.5701267910514778 0.21 0  0.5775950932886138 0.21 0  0.5850633955257281 0.21 0  0.5925316977628483 0.21 0  0.6 0.2050000000000054 0  0.6 0.1950000000000217 0  0.5925316977628897 0.19 0  0.5850633955257988 0.19 0  0.5775950932887378 0.19 0  0.5701267910515998 0.19 0  0.5626584888145268 0.19 0  0.5551901865773963 0.19 0  0.547721884340339 0.19 0  0.5402535821032429 0.19 0  0.5327852798661811 0.19 0  0.5253169776290537 0.19 0  0.5178486753919799 0.19 0  0.5103803731549078 0.19 0  0.502912070917822 0.19 0  0.4954437686807294 0.19 0  0.4879754664436223 0.19 0  0.4805071642065402 0.19 0  0.4730388619694271 0.19 0  0.4655705597323621 0.19 0  0.4581022574952563 0.19 0  0.4506339552581777 0.19 0  0.4431656530210671 0.19 0  0.4356973507839815 0.19 0  0.4282290485468779 0.19 0  0.4207607463097617 0.19 0  0.4132924440726327 0.19 0  0.4058241418354857 0.19 0  0.3983558395983636 0.19 0  0.3908875373612097 0.19 0  0.3834192351240934 0.19 0  0.3759509328869369 0.19 0  0.3684826306498175 0.19 0  0.361014328412667 0.19 0  0.3535460261755617 0.19 0  0.3460777239384295 0.19 0  0.3386094217012945 0.19 0  0.3311411194641595 0.19 0  0.3236728172270245 0.19 0  0.3162045149898895 0.19 0  0.3087362127527544 0.19 0  0.3012679105156187 0.19 0  0.2937996082784807 0.19 0  0.2863313060413428 0.19 0  0.2788630038042048 0.19 0  0.2713947015670686 0.19 0  0.2639263993299336 0.19 0  0.2564580970927985 0.19 0  0.2607803159922026 0.2000727136295815 0  0.5887803774232762 0.2001272386983733 0  0.5745072403740523 0.2002044435018727 0  0.5511891430099709 0.2001122610077113 0  0.2751288526855082 0.20000000000002 0  0.5365194309847112 0.1999999999999436 0  0.2894621222999649 0.1998691686390484 0  0.5215828265105155 0.1999999999999228 0  0.3127789816668748 0.1998657885438805 0  0.3274069683451451 0.2000000000000796 0  0.5066462220363641 0.199999999999908 0  0.3650630746574081 0.199866017807523 0  0.476773013087985 0.1999999999998713 0  0.3417402379596385 0.1998691686391011 0  0.3796850840047755 0.200000000000134 0  0.4618364086138087 0.1999999999998546 0  0.4917096175621762 0.1999999999998808 0  0.3946216884789568 0.2000000000001512 0  0.446899804139621 0.1999999999998389 0  0.4089549580935208 0.1998691686391595 0  0.4322718174608562 0.200127451265745 0  0.4201487168029707 0.1999966199048527 0  0.3528922713220932 0.2000185703532356 0  0.5633122436674589 0.1999814296467508 0  0.3006558810093873 0.1999966199048318 0  0.5815926498168407 0.1966545283159175 0  0.2677053789419034 0.1964246479135325 0  0.5290511287476175 0.1970915826863981 0  0.5439877332217911 0.197091582686394 0  0.2825131256993216 0.2035478995978015 0  0.3199386661080599 0.202908417313604 0  0.4842413153250809 0.1970915826863873 0  0.5141145242734466 0.1970915826863843 0  0.3722167817676917 0.2029084173136195 0  0.4693047108508938 0.1970915826863783 0  0.3348752705822316 0.202908417313609 0  0.3871533862418661 0.2029084173136212 0  0.4543681063767183 0.1970915826863795 0  0.4991779197992749 0.1970915826863902 0  0.4020059614928624 0.203547899597858 0  0.4394315019025246 0.1970915826863714 0  0.2550657455369551 0.2034088125358657 0  0.2548908499171161 0.1966940311614271 0  0.5946539510196798 0.2024302972968126 0  0.267698176732111 0.2039977513680092 0  0.4261685417851465 0.196409292431739 0  0.3590076176283495 0.196411355804271 0  0.5571672426447437 0.2036011176410121 0  0.3066757059912147 0.1964092924317024 0  0.594380730180568 0.1966558399668133 0  0.4842413153245942 0.2040749161535287 0  0.4693047108503577 0.2040749161535231 0  0.3871533862424271 0.1959250838464788 0  0.372246743208829 0.1959123236376545 0  0.5141145242731028 0.2040749161535395 0  0.4543681063761134 0.2040749161535186 0  0.4019979587101454 0.1959834479682427 0  0.4394608940728603 0.2040870543693135 0  0.5439623148931173 0.2040856076781014 0  0.5290511287473298 0.2040749161535501 0  0.4991779197988497 0.2040749161535382 0  0.3347912413592433 0.1959225448935183 0  0.3199680582793816 0.1959123018030061 0  0.2825051229162361 0.1959834479681729 0  0.3590471196690275 0.2036304442587945 0  0.5571594006495384 0.1963685282145804 0  0.3067669986803285 0.203627750582736 0  0.4262598344738712 0.2036568242185335 0  0.5814408164431408 0.2041285596160068 0  0.5688286748170428 0.1961819304477386 0  0.4145905603063645 0.2038180695522843 0  0.3473758401724931 0.2038180695522752 0  0.2950977245128307 0.2038180695522663 0  0.5688286748170693 0.203818069552238 0  0.2950977245127906 0.1961819304477774 0  0.3473758401723931 0.1961819304478349 0  0.4145905603061963 0.1961819304479011 0  0.2601812407614425 0.2056861609747042
[...]
<PointData  Vectors="f_40-0"> 
<DataArray  type="Float64"  Name="f_40-0"  NumberOfComponents="3" format="ascii">0.0000000000000000e+00 0.0000000000000000e+00 0.0000000000000000e+00  0.0000000000000000e+00 0.0000000000000000e+00 0.0000000000000000e+00  0.0000000000000000e+00 0.0000000000000000e+00 0.0000000000000000e+00  0.0000000000000000e+00 0.0000000000000000e+00 0.0000000000000000e+00  -1.3384475810195952e-05 -3.8206713350454448e-04 0.0000000000000000e+00  1.6144231887382685e-05 -3.8769527072529572e-04 0.0000000000000000e+00  0.0000000000000000e+00 0.0000000000000000e+00 0.0000000000000000e+00  0.0000000000000000e+00 0.0000000000000000e+00 0.0000000000000000e+00  0.0000000000000000e+00 0.0000000000000000e+00 0.0000000000000000e+00  0.0000000000000000e+00 0.0000000000000000e+00 0.0000000000000000e+00  8.9234488077607983e-07 -3.8487933758042382e-04 0.0000000000000000e+00  5.7052825871033649e-02 0.0000000000000000e+00 0.0000000000000000e+00  1.0532829391576140e-01 0.0000000000000000e+00 0.0000000000000000e+00  1.4482640413417194e-01 0.0000000000000000e+00 0.0000000000000000e+00  1.7554715652631100e-01 0.0000000000000000e+00 0.0000000000000000e+00  1.9749055109217462e-01 0.0000000000000000e+00 0.0000000000000000e+00  2.1065658783176142e-01 0.0000000000000000e+00 0.0000000000000000e+00  2.1504526674505831e-01 0.0000000000000000e+00 0.0000000000000000e+00  2.1065658783202762e-01 0.0000000000000000e+00 0.0000000000000000e+00  1.9749055109263183e-01 0.0000000000000000e+00 0.0000000000000000e+00  1.7554715652687725e-01 0.0000000000000000e+00 0.0000000000000000e+00  1.4482640413470987e-01 0.0000000000000000e+00 0.0000000000000000e+00  1.0532829391622041e-01 0.0000000000000000e+00 0.0000000000000000e+00  5.7052825871292283e-02 0.0000000000000000e+00 0.0000000000000000e+00  0.0000000000000000e+00 0.0000000000000000e+00 0.0000000000000000e+00  0.0000000000000000e+00 0.0000000000000000e+00 0.0000000000000000e+00  0.0000000000000000e+00 0.0000000000000000e+00 0.0000000000000000e+00  0.0000000000000000e+00 0.0000000000000000e+00 0.0000000000000000e+00  0.0000000000000000e+00 0.0000000000000000e+00 0.0000000000000000e+00  0.0000000000000000e+00 0.0000000000000000e+00 0.0000000000000000e+00  0.0000000000000000e+00 0.0000000000000000e+00 0.0000000000000000e+00  0.0000000000000000e+00 0.0000000000000000e+00 0.0000000000000000e+00  0.0000000000000000e+00 0.0000000000000000e+00 0.0000000000000000e+00  0.0000000000000000e+00 0.0000000000000000e+00 0.0000000000000000e+00  0.0000000000000000e+00 0.0000000000000000e+00 0.0000000000000000e+00  0.0000000000000000e+00 0.0000000000000000e+00 0.0000000000000000e+00  0.0000000000000000e+00 0.0000000000000000e+00 0.0000000000000000e+00  0.0000000000000000e+00 0.0000000000000000e+00 0.0000000000000000e+00  0.0000000000000000e+00 0.0000000000000000e+00 0.0000000000000000e+00  0.0000000000000000e+00 0.0000000000000000e+00 0.0000000000000000e+00  0.0000000000000000e+00 0.0000000000000000e+00 0.0000000000000000e+00  0.0000000000000000e+00 0.0000000000000000e+00 0.0000000000000000e+00  0.0000000000000000e+00 0.0000000000000000e+00 0.0000000000000000e+00  0.0000000000000000e+00 0.0000000000000000e+00 0.0000000000000000e+00  0.0000000000000000e+00 0.0000000000000000e+00 0.0000000000000000e+00  0.0000000000000000e+00 0.0000000000000000e+00 0.0000000000000000e+00  0.0000000000000000e+00 0.0000000000000000e+00 0.0000000000000000e+00  0.0000000000000000e+00 0.0000000000000000e+00 0.0000000000000000e+00  0.0000000000000000e+00 0.0000000000000000e+00 0.0000000000000000e+00  0.0000000000000000e+00 0.0000000000000000e+00 0.0000000000000000e+00  0.0000000000000000e+00 0.0000000000000000e+00 0.0000000000000000e+00  0.0000000000000000e+00 0.0000000000000000e+00 0.0000000000000000e+00  0.0000000000000000e+00 0.0000000000000000e+00 0.0000000000000000e+00  0.0000000000000000e+00 0.0000000000000000e+00 0.0000000000000000e+00  0.0000000000000000e+00 0.0000000000000000e+00 0.0000000000000000e+00  0.0000000000000000e+00 0.0000000000000000e+00 0.0000000000000000e+00  0.0000000000000000e+00 0.0000000000000000e+00 0.0000000000000000e+00  0.0000000000000000e+00 0.0000000000000000e+00 0.0000000000000000e+00  0.0000000000000000e+00 0.0000000000000000e+00 0.0000000000000000e+00  0.0000000000000000e+00 0.0000000000000000e+00 0.0000000000000000e+00  0.0000000000000000e+00 0.0000000000000000e+00 0.0000000000000000e+00  0.0000000000000000e+00 0.0000000000000000e+00 0.0000000000000000e+00  1.7798898966273025e-01 1.8454167670607822e-03 0.0000000000000000e+00  1.3898531849839521e-01 -3.4534029164140159e-04 0.0000000000000000e+00  1.7686060172009044e-01 -2.4949050678683333e-03 0.0000000000000000e+00  0.0000000000000000e+00 0.0000000000000000e+00 0.0000000000000000e+00  0.0000000000000000e+00 0.0000000000000000e+00 0.0000000000000000e+00  0.0000000000000000e+00 0.0000000000000000e+00 0.0000000000000000e+00  0.0000000000000000e+00 0.0000000000000000e+00 0.0000000000000000e+00  0.0000000000000000e+00 0.0000000000000000e+00 0.0000000000000000e+00  0.0000000000000000e+00 0.0000000000000000e+00 0.0000000000000000e+00  0.0000000000000000e+00 0.0000000000000000e+00 0.0000000000000000e+00  0.0000000000000000e+00 0.0000000000000000e+00 0.0000000000000000e+00  0.0000000000000000e+00 0.0000000000000000e+00 0.0000000000000000e+00  0.0000000000000000e+00 0.0000000000000000e+00 0.0000000000000000e+00  0.0000000000000000e+00 0.0000000000000000e+00 0.0000000000000000e+00  0.0000000000000000e+00 0.0000000000000000e+00 0.0000000000000000e+00  0.0000000000000000e+00 0.0000000000000000e+00 0.0000000000000000e+00  0.0000000000000000e+00 0.0000000000000000e+00 0.0000000000000000e+00  0.0000000000000000e+00 0.0000000000000000e+00 0.0000000000000000e+00  0.0000000000000000e+00 0.0000000000000000e+00 0.0000000000000000e+00  0.0000000000000000e+00 0.0000000000000000e+00 0.0000000000000000e+00  0.0000000000000000e+00 0.0000000000000000e+00 0.0000000000000000e+00  0.0000000000000000e+00 0.0000000000000000e+00 0.0000000000000000e+00  0.0000000000000000e+00 0.0000000000000000e+00 0.0000000000000000e+00  0.0000000000000000e+00 0.0000000000000000e+00 0.0000000000000000e+00  0.0000000000000000e+00 0.0000000000000000e+00 0.0000000000000000e+00  0.0000000000000000e+00 0.0000000000000000e+00 0.0000000000000000e+00  0.0000000000000000e+00 0.0000000000000000e+00 0.0000000000000000e+00  0.0000000000000000e+00 0.0000000000000000e+00 0.0000000000000000e+00  0.0000000000000000e+00 0.0000000000000000e+00 0.0000000000000000e+00  0.0000000000000000e+00 0.0000000000000000e+00 0.0000000000000000e+00  0.0000000000000000e+00 0.0000000000000000e+00 0.0000000000000000e+00  0.0000000000000000e+00 0.0000000000000000e+00 0.0000000000000000e+00  0.0000000000000000e+00 0.0000000000000000e+00 0.0000000000000000e+00  0.0000000000000000e+00 0.0000000000000000e+00 0.0000000000000000e+00  0.0000000000000000e+00 0.0000000000000000e+00 0.0000000000000000e+00  0.0000000000000000e+00 0.0000000000000000e+00 0.0000000000000000e+00  0.0000000000000000e+00 0.0000000000000000e+00 0.0000000000000000e+00  0.0000000000000000e+00 0.0000000000000000e+00 0.0000000000000000e+00  0.0000000000000000e+00 0.0000000000000000e+00 0.0000000000000000e+00  0.0000000000000000e+00 0.0000000000000000e+00 0.0000000000000000e+00  0.0000000000000000e+00 0.0000000000000000e+00 0.0000000000000000e+00  0.0000000000000000e+00 0.0000000000000000e+00 0.0000000000000000e+00  0.0000000000000000e+00 0.0000000000000000e+00 0.0000000000000000e+00  0.0000000000000000e+00 0.0000000000000000e+00 0.0000000000000000e+00  0.0000000000000000e+00 0.0000000000000000e+00 0.0000000000000000e+00  0.0000000000000000e+00 0.0000000000000000e+00 0.0000000000000000e+00  0.0000000000000000e+00 0.0000000000000000e+00 0.0000000000000000e+00  0.0000000000000000e+00 0.0000000000000000e+00 0.0000000000000000e+00  0.0000000000000000e+00 0.0000000000000000e+00 0.0000000000000000e+00  0.0000000000000000e+00 0.0000000000000000e+00 0.0000000000000000e+00  0.0000000000000000e+00 0.0000000000000000e+00 0.0000000000000000e+00  0.0000000000000000e+00 0.0000000000000000e+00 0.0000000000000000e+00  0.0000000000000000e+00 0.0000000000000000e+00 0.0000000000000000e+00  0.0000000000000000e+00 0.0000000000000000e+00 0.0000000000000000e+00  0.0000000000000000e+00 0.0000000000000000e+00 0.0000000000000000e+00  0.0000000000000000e+00 0.0000000000000000e+00 0.0000000000000000e+00  0.0000000000000000e+00 0.0000000000000000e+00 0.0000000000000000e+00  0.0000000000000000e+00 0.0000000000000000e+00 0.0000000000000000e+00  0.0000000000000000e+00 0.0000000000000000e+00 0.0000000000000000e+00  0.0000000000000000e+00 0.0000000000000000e+00 0.0000000000000000e+00  0.0000000000000000e+00 0.0000000000000000e+00 0.0000000000000000e+00  0.0000000000000000e+00 0.0000000000000000e+00 0.0000000000000000e+00  0.0000000000000000e+00 0.0000000000000000e+00 0.0000000000000000e+00  0.0000000000000000e+00 0.0000000000000000e+00 0.0000000000000000e+00  0.0000000000000000e+00 0.0000000000000000e+00 0.0000000000000000e+00  0.0000000000000000e+00 0.0000000000000000e+00 0.0000000000000000e+00  0.0000000000000000e+00 0.0000000000000000e+00 0.0000000000000000e+00  0.0000000000000000e+00 0.0000000000000000e+00 0.0000000000000000e+00  0.0000000000000000e+00 0.0000000000000000e+00 0.0000000000000000e+00  0.0000000000000000e+00 0.0000000000000000e+00 0.0000000000000000e+00  0.0000000000000000e+00 0.0000000000000000e+00 0.0000000000000000e+00  0.0000000000000000e+00 0.0000000000000000e+00 0.0000000000000000e+00  0.0000000000000000e+00 0.0000000000000000e+00 0.0000000000000000e+00  0.0000000000000000e+00 0.0000000000000000e+00 0.0000000000000000e+00  0.0000000000000000e+00 0.0000000000000000e+00 0.0000000000000000e+00  0.0000000000000000e+00 0.0000000000000000e+00 0.0000000000000000e+00  0.0000000000000000e+00 0.0000000000000000e+00 0.0000000000000000e+00  0.0000000000000000e+00 0.0000000000000000e+00 0.0000000000000000e+00  0.0000000000000000e+00 0.0000000000000000e+00 0.0000000000000000e+00  0.0000000000000000e+00 0.0000000000000000e+00 0.0000000000000000e+00  0.0000000000000000e+00 0.0000000000000000e+00 0.0000000000000000e+00  1.4091042341046440e-06 -6.0779407928054551e-06 0.0000000000000000e+00  3.1228457394366916e-06 -7.4380929287270844e-06 0.0000000000000000e+00  5.0255813505793876e-06 -9.0965974333064249e-06 0.0000000000000000e+00  7.1242668089897406e-06 -1.1225258371638165e-05 0.0000000000000000e+00  9.1013380856267040e-06 -1.3885216861769472e-05 0.0000000000000000e+00  1.1122917388429470e-05 -1.7186780581237822e-05 0.0000000000000000e+00  1.2937901406047615e-05 -2.0921846762844980e-05 0.0000000000000000e+00  1.4665030166919950e-05 -2.5235999743499599e-05 0.0000000000000000e+00  1.6444846657515361e-05 -2.9999478663003319e-05 0.0000000000000000e+00  1.7972051260926378e-05 -3.5199155073918787e-05 0.0000000000000000e+00  1.9564111622070149e-05 -4.0887501553754220e-05 0.0000000000000000e+00  2.0914053290491696e-05 -4.6953105684319900e-05 0.0000000000000000e+00  2.2284734139679731e-05 -5.3442534315860682e-05 0.0000000000000000e+00  2.3474501295126543e-05 -6.0255872370314446e-05 0.0000000000000000e+00  2.4569712609174602e-05 -6.7461487895482150e-05 0.0000000000000000e+00  2.5674695997910142e-05 -7.4982201489129250e-05 0.0000000000000000e+00  2.6575207023942083e-05 -8.2778884993766922e-05 0.0000000000000000e+00  2.7484584837554216e-05 -9.0917559242636653e-05 0.0000000000000000e+00  2.8206035755046846e-05 -9.9274513078049528e-05 0.0000000000000000e+00  2.8921931013434634e-05 -1.0792535725758465e-04 0.0000000000000000e+00  2.9484239428692361e-05 -1.1677074202173812e-04 0.0000000000000000e+00  2.9999772559161801e-05 -1.2586922647463060e-04 0.0000000000000000e+00  3.0395076519722236e-05 -1.3513311862317967e-04 0.0000000000000000e+00  3.0699540944884012e-05 -1.4460399877326926e-04 0.0000000000000000e+00  3.0976903959064296e-05 -1.5423575724630759e-04 0.0000000000000000e+00  3.1124446855387256e-05 -1.6400531572616865e-04 0.0000000000000000e+00  3.1201262063881380e-05 -1.7396568894990702e-04 0.0000000000000000e+00  3.1182252895022409e-05 -1.8400328951937841e-04 0.0000000000000000e+00  3.1091331746776484e-05 -1.9420861087358950e-04 0.0000000000000000e+00  3.0909792838824112e-05 -2.0447215280598917e-04 0.0000000000000000e+00  3.0655601190180846e-05 -2.1487851585663131e-04 0.0000000000000000e+00  3.0312704048063817e-05 -2.2532143858364895e-04 0.0000000000000000e+00  2.9899197052902288e-05 -2.3588771688300969e-04 0.0000000000000000e+00  2.9397709045513746e-05 -2.4646877737151548e-04 0.0000000000000000e+00  2.8821267295610976e-05 -2.5716007736312143e-04 0.0000000000000000e+00  2.8163294476145797e-05 -2.6785228037338359e-04 0.0000000000000000e+00  2.7432963829927315e-05 -2.7863489890182395e-04 0.0000000000000000e+00  2.6622471999218553e-05 -2.8940664491115229e-04 0.0000000000000000e+00  2.5736701352452930e-05 -3.0025583594285848e-04 0.0000000000000000e+00  2.4769037668743500e-05 -3.1108335961562073e-04 0.0000000000000000e+00  2.3716085004979233e-05 -3.2196188099357204e-04 0.0000000000000000e+00  2.2600438247491103e-05 -3.3283682559197910e-04 0.0000000000000000e+00  2.1395977413015088e-05 -3.4373191067683337e-04 0.0000000000000000e+00  2.0146252354635662e-05 -3.5463219727854887e-04 0.0000000000000000e+00  1.8804978084671043e-05 -3.6551182015154884e-04 0.0000000000000000e+00  1.7435666466400475e-05 -3.7645928635322205e-04 0.0000000000000000e+00  8.3453894368454972e-06 -3.8628484920457545e-04 0.0000000000000000e+00  -6.3994331483915177e-06 -3.8348015928828233e-04 0.0000000000000000e+00  -1.2072921610602638e-05 -3.7125794331744152e-04 0.0000000000000000e+00  -1.0670302054810286e-05 -3.6016908169909912e-04 0.0000000000000000e+00  -9.3020766617494905e-06 -3.4904554058142991e-04 0.0000000000000000e+00  -8.0142247384025245e-06 -3.3796237877802774e-04 0.0000000000000000e+00  -6.7739875444264349e-06 -3.2688946264979507e-04 0.0000000000000000e+00  -5.6185201746158668e-06 -3.1583363120720706e-04 0.0000000000000000e+00  -4.5101969678774348e-06 -3.0480579992339180e-04 0.0000000000000000e+00  -3.4844853934814049e-06 -2.9377340387151739e-04 0.0000000000000000e+00  -2.5130486085574617e-06 -2.8280798265241163e-04 0.0000000000000000e+00  -1.6150496361657024e-06 -2.7182993092582472e-04 0.0000000000000000e+00  -7.6436209711023909e-07 -2.6093183383675566e-04 0.0000000000000000e+00  1.0439162555978424e-08 -2.5003423593270089e-04 0.0000000000000000e+00  7.4464955124696177e-07 -2.3923039606152361e-04 0.0000000000000000e+00  1.4015870255594080e-06 -2.2844385785336096e-04 0.0000000000000000e+00  2.0265479120546363e-06 -2.1776551035135970e-04 0.0000000000000000e+00  2.5696388817668327e-06 -2.0712168077301302e-04 0.0000000000000000e+00  3.0888855961438792e-06 -1.9660312614100522e-04 0.0000000000000000e+00  3.5211650214026573e-06 -1.8613894304801663e-04 0.0000000000000000e+00  3.9391304302683406e-06 -1.7582255777445522e-04 0.0000000000000000e+00  4.2649227850021646e-06 -1.6558517545461624e-04 0.0000000000000000e+00  4.5878532816152661e-06 -1.5551833062073798e-04 0.0000000000000000e+00  4.8116809543421786e-06 -1.4555820434403405e-04 0.0000000000000000e+00  5.0306733709736539e-06 -1.3578177325695932e-04 0.0000000000000000e+00  5.1700726362441692e-06 -1.2615049193741182e-04 0.0000000000000000e+00  5.2483664416266842e-06 -1.1673787216950834e-04 0.0000000000000000e+00  5.3466082009872972e-06 -1.0749121345152161e-04 0.0000000000000000e+00  5.3517372108797564e-06 -9.8464232611001042e-05 0.0000000000000000e+00  5.3425260483433335e-06 -8.9696622388579845e-05 0.0000000000000000e+00  5.2625691943738982e-06 -8.1148039014638230e-05 0.0000000000000000e+00  5.1667123161235527e-06 -7.2902888308263523e-05 0.0000000000000000e+00  5.0012858755957873e-06 -6.4901611279150190e-05 0.0000000000000000e+00  4.8491492903865051e-06 -5.7270687337322785e-05 0.0000000000000000e+00  4.5956503180781001e-06 -4.9900171981976742e-05 0.0000000000000000e+00  4.2896378772839649e-06 -4.2947357855647026e-05 0.0000000000000000e+00  4.0484291865111122e-06 -3.6290614827519849e-05 0.0000000000000000e+00  3.7021568061734559e-06 -3.0059960679890376e-05 0.0000000000000000e+00  3.3620108247927776e-06 -2.4265808856464618e-05 0.0000000000000000e+00  2.9427471165366416e-06 -1.8873406773745134e-05 0.0000000000000000e+00  2.5738065764596614e-06 -1.4013717213953137e-05 0.0000000000000000e+00  2.0751430598624912e-06 -9.5548953251672819e-06 0.0000000000000000e+00  1.5307901365579224e-06 -5.6964191318201128e-06 0.0000000000000000e+00  1.1032689528226072e-06 -2.2760935403540911e-06 0.0000000000000000e+00  5.4941342852104839e-07 5.8103066000058802e-07 0.0000000000000000e+00  1.5634128113045165e-07 2.8250073284819731e-06 0.0000000000000000e+00  -2.1294761074660379e-07 4.2843921310893767e-06 0.0000000000000000e+00  -1.7229297718522945e-07 4.7986679455747631e-06 0.0000000000000000e+00  4.7229605087249373e-08 -6.9321409303253387e-07 0.0000000000000000e+00  3.3737868518415612e-06 -3.6834767321068879e-04 0.0000000000000000e+00  6.1864811526046547e-06 -3.4733969255701901e-04 0.0000000000000000e+00  9.7344893790814213e-06 -3.1304864124190529e-04 0.0000000000000000e+00  3.1423777510493414e-06 -3.7676547959655993e-06 0.0000000000000000e+00  1.1518519703391264e-05 -2.9153746810407549e-04 0.0000000000000000e+00  5.5322264903680141e-06 -8.9729784291441861e-06 0.0000000000000000e+00  1.3234111986439984e-05 -2.6977977300945104e-04 0.0000000000000000e+00  9.0605419108132352e-06 -2.1781424523067633e-05 0.0000000000000000e+00  1.1087916117456397e-05 -3.2273063584890649e-05 0.0000000000000000e+00  1.4673741777547718e-05 -2.4818082993349890e-04 0.0000000000000000e+00  1.4858145550772936e-05 -6.6153575974603381e-05 0.0000000000000000e+00  1.6736842080403502e-05 -2.0569748838219888e-04 0.0000000000000000e+00  1.2660700375880673e-05 -4.3997275158802914e-05 0.0000000000000000e+00  1.6056857261745081e-05 -8.1720313738898817e-05 0.0000000000000000e+00  1.7364797644289433e-05 -1.8495551794447422e-04 0.0000000000000000e+00  1.5840577030730002e-05 -2.2679782667851949e-04 0.0000000000000000e+00  1.6892625644658599e-05 -9.8648789973942972e-05 0.0000000000000000e+00  1.7724361288879918e-05 -1.6466251893243179e-04 0.0000000000000000e+00  1.7293106307507995e-05 -1.1574453281220861e-04 0.0000000000000000e+00  1.7992590965754431e-05 -1.4537168328200497e-04 0.0000000000000000e+00  1.7682512176103254e-05 -1.2977662158296453e-04 0.0000000000000000e+00  1.3905539259933204e-05 -5.4300295745228795e-05 0.0000000000000000e+00  7.6872102115230756e-06 -3.3081123084377007e-04 0.0000000000000000e+00  7.3350546123657763e-06 -1.4658149691587238e-05 0.0000000000000000e+00  -3.3362177152605300e-07 -3.5682077328296093e-04 0.0000000000000000e+00  9.5550271019931012e-07 2.7730402648336811e-07 0.0000000000000000e+00  8.1819406632162672e-06 -2.7967095959998426e-04 0.0000000000000000e+00  6.3055550721726633e-06 -3.0153424288322395e-04 0.0000000000000000e+00  5.7001395439368225e-06 -8.3634246895567128e-06 0.0000000000000000e+00  1.2173944975441220e-05 -2.8380444439729264e-05 0.0000000000000000e+00  1.2225306994727366e-05 -2.1510221487309623e-04 0.0000000000000000e+00  9.7915214648844702e-06 -2.5794049212748271e-04 0.0000000000000000e+00  1.8605721581692282e-05 -7.5137607115992796e-05 0.0000000000000000e+00  1.3058977564387535e-05 -1.9412671593493813e-04 0.0000000000000000e+00  1.4361672303568912e-05 -3.9832318106898910e-05 0.0000000000000000e+00  1.9781596715077543e-05 -9.1486871444809568e-05 0.0000000000000000e+00  1.3640870870362604e-05 -1.7355412968382769e-04 0.0000000000000000e+00  1.1137400575912452e-05 -2.3639657433860279e-04 0.0000000000000000e+00  2.1434619978326962e-05 -1.0907472804269864e-04 0.0000000000000000e+00  1.3974173291330008e-05 -1.5347959549653868e-04 0.0000000000000000e+00  -4.8791051898124675e-07 -1.4570555406353195e-06 0.0000000000000000e+00  -7.4711573954789165e-07 1.0677258355674532e-06 0.0000000000000000e+00  5.5761190302281937e-06 -3.7761975622745863e-04 0.0000000000000000e+00  2.5440794595176329e-06 -4.4259815999678981e-06 0.00000000000000