<?xml version="1.0"?>
<VTKFile type="UnstructuredGrid"  version="0.1"  >
<UnstructuredGrid>
<Piece  NumberOfPoints="1419" NumberOfCells="2698">
<Points>
<DataArray  type="Float64"  NumberOfComponents="3"  format="ascii">0 0 0  0 0.41 0  2.5 0 0  2.5 0.41 0  0.6 0.19 0  0.6 0.21 0  0.25 0.2 0  0.15 0.2 0  0.2489897948556636 0.21 0  0.2489897948556636 0.19 0  0.6 0.2 0  0 0.3807142857143437 0  0 0.3514285714286952 0  0 0.3221428571430699 0  0 0.29285714285744 0  0 0.2635714285718054 0  0 0.2342857142861561 0  0 0.2050000000005308 0  0 0.175714285714732 0  0 0.1464285714289574 0  0 0.1171428571431897 0  0 0.08785714285737878 0  0 0.05857142857161107 0  0 0.02928571428580012 0  0.03015443760436003 0 0  0.06140001986583606 0 0  0.09377624077125973 0 0  0.1273239957535082 0 0  0.1620856860351972 0 0  0.1981052433264291 0 0  0.235428184091502 0 0  0.2741016576309132 0 0  0.3141745521465447 0 0  0.3556974926295285 0 0  0.3987229542472677 0 0  0.4433053055141081 0 0  0.4895008759286886 0 0  0.5373680609405097 0 0  0.5869673343216626 0 0  0.6383613676634521 0 0  0.6916151138468254 0 0  0.7467958595648856 0 0  0.8039733463919316 0 0  0.8632198139502143 0 0  0.9246101326867038 0 0  0.9882218810934433 0 0  1.054135445558498 0 0  1.122434100542598 0 0  1.193204177141305 0 0  1.266535089879536 0 0  1.342519516046404 0 0  1.421253448503939 0 0  1.502836389106271 0 0  1.587371439758838 0 0  1.674965418777374 0 0  1.765729001825544 0 0  1.859776908880082 0 0  1.957227977487062 0 0  2.058205329869943 0 0  2.162836591189951 0 0  2.271253957290865 0 0  2.383594446803425 0 0  2.5 0.1024999999997612 0  2.5 0.2049999999994743 0  2.5 0.3074999999997183 0  2.383594446803656 0.41 0  2.271253957291315 0.41 0  2.162836591190598 0.41 0  2.058205329870775 0.41 0  1.957227977488067 0.41 0  1.859776908881246 0.41 0  1.765729001826854 0.41 0  1.674965418778818 0.41 0  1.58737143976041 0.41 0  1.502836389107956 0.41 0  1.421253448505726 0.41 0  1.342519516048286 0.41 0  1.266535089881505 0.41 0  1.193204177143353 0.41 0  1.122434100544716 0.41 0  1.05413544556068 0.41 0  0.9882218810956305 0.41 0  0.9246101326886647 0.41 0  0.8632198139519631 0.41 0  0.8039733463934788 0.41 0  0.7467958595662458 0.41 0  0.6916151138480078 0.41 0  0.6383613676644679 0.41 0  0.5869673343225223 0.41 0  0.5373680609412221 0.41 0  0.4895008759292634 0.41 0  0.4433053055145528 0.41 0  0.3987229542475914 0.41 0  0.3556974926297398 0.41 0  0.3141745521466497 0.41 0  0.2741016576310038 0.41 0  0.2354281840915826 0.41 0  0.1981052433265003 0.41 0  0.1620856860352591 0.41 0  0.1273239957535623 0.41 0  0.09377624077128965 0.41 0  0.06140001986584975 0.41 0  0.03015443760436654 0.41 0  0.2497468076502589 0.2050254481002335 0  0.2497468076502614 0.1949745518997913 0  0.2469965252529372 0.1829317073451959 0  0.2439893735792749 0.1762316384219906 0  0.2400332147834255 0.1700443375285386 0  0.2352133972704371 0.1645032867342007 0  0.2296339016332438 0.1597280261969788 0  0.2234150974217223 0.1558215752574715 0  0.2166911463437691 0.1528682099456123 0  0.2096071079204251 0.1509316448471593 0  0.2023158100364996 0.1500536585536553 0  0.194974551899914 0.1502531923497262 0  0.1877417105387872 0.1515259415822739 0  0.1807733240461124 0.153844448527136 0  0.1742197252835808 0.15715869474974 0  0.1682222986673531 0.1613971801805478 0  0.162910430003803 0.1664684656256651 0  0.1583987151779087 0.1722631454351573 0  0.1547844879126891 0.178656207771761 0  0.1521457199348551 0.1855097315605723 0  0.1505393388476355 0.1926758619366523 0  0.1505393388476328 0.2073241380633295 0  0.1521457199348437 0.2144902684393899 0  0.1547844879126531 0.221343792228163 0  0.1583987151778488 0.2277368545647528 0  0.1629104300036858 0.2335315343742052 0  0.1682222986671726 0.2386028198193036 0  0.1742197252833576 0.2428413052501257 0  0.1807733240458683 0.2461555514727623 0  0.1877417105384929 0.2484740584176516 0  0.1949745518995776 0.2497468076502398 0  0.202315810036185 0.2499463414463592 0  0.2096071079201568 0.2490683551528932 0  0.2166911463435495 0.2471317900544655 0  0.2234150974215506 0.2441784247426195 0  0.2296339016331197 0.2402719738031125 0  0.2352133972703547 0.2354967132658811 0  0.2400332147833751 0.2299556624715287 0  0.2439893735792577 0.2237683615780412 0  0.246996525252926 0.2170682926548348 0  0.25645809709277 0.21 0  0.2639263993298655 0.21 0  0.271394701566961 0.21 0  0.2788630038040554 0.21 0  0.2863313060411479 0.21 0  0.2937996082782405 0.21 0  0.301267910515333 0.21 0  0.3087362127524279 0.21 0  0.3162045149895234 0.21 0  0.3236728172265972 0.21 0  0.3311411194636928 0.21 0  0.3386094217007701 0.21 0  0.3460777239378666 0.21 0  0.3535460261749672 0.21 0  0.3610143284120516 0.21 0  0.3684826306491596 0.21 0  0.3759509328862226 0.21 0  0.383419235123329 0.21 0  0.3908875373604028 0.21 0  0.3983558395975142 0.21 0  0.4058241418345938 0.21 0  0.4132924440716992 0.21 0  0.4207607463087888 0.21 0  0.4282290485459029 0.21 0  0.4356973507830418 0.21 0  0.4431656530201649 0.21 0  0.4506339552573136 0.21 0  0.4581022574944306 0.21 0  0.4655705597315852 0.21 0  0.4730388619686996 0.21 0  0.480507164205851 0.21 0  0.4879754664429498 0.21 0  0.4954437686800938 0.21 0  0.502912070917267 0.21 0  0.5103803731544119 0.21 0  0.5178486753915261 0.21 0  0.5253169776286404 0.21 0  0.5327852798657868 0.21 0  0.5402535821029386 0.21 0  0.54772188434007 0.21 0  0.5551901865771842 0.21 0  0.5626584888143201 0.21 0  0.5701267910514778 0.21 0  0.5775950932886138 0.21 0  0.5850633955257281 0.21 0  0.5925316977628483 0.21 0  0.6 0.2050000000000054 0  0.6 0.1950000000000217 0  0.5925316977628897 0.19 0  0.5850633955257988 0.19 0  0.5775950932887378 0.19 0  0.5701267910515998 0.19 0  0.5626584888145268 0.19 0  0.5551901865773963 0.19 0  0.547721884340339 0.19 0  0.5402535821032429 0.19 0  0.5327852798661811 0.19 0  0.5253169776290537 0.19 0  0.5178486753919799 0.19 0  0.5103803731549078 0.19 0  0.502912070917822 0.19 0  0.4954437686807294 0.19 0  0.4879754664436223 0.19 0  0.4805071642065402 0.19 0  0.4730388619694271 0.19 0  0.4655705597323621 0.19 0  0.4581022574952563 0.19 0  0.4506339552581777 0.19 0  0.4431656530210671 0.19 0  0.4356973507839815 0.19 0  0.4282290485468779 0.19 0  0.4207607463097617 0.19 0  0.4132924440726327 0.19 0  0.4058241418354857 0.19 0  0.3983558395983636 0.19 0  0.3908875373612097 0.19 0  0.3834192351240934 0.19 0  0.3759509328869369 0.19 0  0.3684826306498175 0.19 0  0.361014328412667 0.19 0  0.3535460261755617 0.19 0  0.3460777239384295 0.19 0  0.3386094217012945 0.19 0  0.3311411194641595 0.19 0  0.3236728172270245 0.19 0  0.3162045149898895 0.19 0  0.3087362127527544 0.19 0  0.3012679105156187 0.19 0  0.2937996082784807 0.19 0  0.2863313060413428 0.19 0  0.2788630038042048 0.19 0  0.2713947015670686 0.19 0  0.2639263993299336 0.19 0  0.2564580970927985 0.19 0  0.2607803159922026 0.2000727136295815 0  0.5887803774232762 0.2001272386983733 0  0.5745072403740523 0.2002044435018727 0  0.5511891430099709 0.2001122610077113 0  0.2751288526855082 0.20000000000002 0  0.5365194309847112 0.1999999999999436 0  0.2894621222999649 0.1998691686390484 0  0.5215828265105155 0.1999999999999228 0  0.3127789816668748 0.1998657885438805 0  0.3274069683451451 0.2000000000000796 0  0.5066462220363641 0.199999999999908 0  0.3650630746574081 0.199866017807523 0  0.476773013087985 0.1999999999998713 0  0.3417402379596385 0.1998691686391011 0  0.3796850840047755 0.200000000000134 0  0.4618364086138087 0.1999999999998546 0  0.4917096175621762 0.1999999999998808 0  0.3946216884789568 0.2000000000001512 0  0.446899804139621 0.1999999999998389 0  0.4089549580935208 0.1998691686391595 0  0.4322718174608562 0.200127451265745 0  0.4201487168029707 0.1999966199048527 0  0.3528922713220932 0.2000185703532356 0  0.5633122436674589 0.1999814296467508 0  0.3006558810093873 0.1999966199048318 0  0.5815926498168407 0.1966545283159175 0  0.2677053789419034 0.1964246479135325 0  0.5290511287476175 0.1970915826863981 0  0.5439877332217911 0.197091582686394 0  0.2825131256993216 0.2035478995978015 0  0.3199386661080599 0.202908417313604 0  0.4842413153250809 0.1970915826863873 0  0.5141145242734466 0.1970915826863843 0  0.3722167817676917 0.2029084173136195 0  0.4693047108508938 0.1970915826863783 0  0.3348752705822316 0.202908417313609 0  0.3871533862418661 0.2029084173136212 0  0.4543681063767183 0.1970915826863795 0  0.4991779197992749 0.1970915826863902 0  0.4020059614928624 0.203547899597858 0  0.4394315019025246 0.1970915826863714 0  0.2550657455369551 0.2034088125358657 0  0.2548908499171161 0.1966940311614271 0  0.5946539510196798 0.2024302972968126 0  0.267698176732111 0.2039977513680092 0  0.4261685417851465 0.196409292431739 0  0.3590076176283495 0.196411355804271 0  0.5571672426447437 0.2036011176410121 0  0.3066757059912147 0.1964092924317024 0  0.594380730180568 0.1966558399668133 0  0.4842413153245942 0.2040749161535287 0  0.4693047108503577 0.2040749161535231 0  0.3871533862424271 0.1959250838464788 0  0.372246743208829 0.1959123236376545 0  0.5141145242731028 0.2040749161535395 0  0.4543681063761134 0.2040749161535186 0  0.4019979587101454 0.1959834479682427 0  0.4394608940728603 0.2040870543693135 0  0.5439623148931173 0.2040856076781014 0  0.5290511287473298 0.2040749161535501 0  0.4991779197988497 0.2040749161535382 0  0.3347912413592433 0.1959225448935183 0  0.3199680582793816 0.1959123018030061 0  0.2825051229162361 0.1959834479681729 0  0.3590471196690275 0.2036304442587945 0  0.5571594006495384 0.1963685282145804 0  0.3067669986803285 0.203627750582736 0  0.4262598344738712 0.2036568242185335 0  0.5814408164431408 0.2041285596160068 0  0.5688286748170428 0.1961819304477386 0  0.4145905603063645 0.2038180695522843 0  0.3473758401724931 0.2038180695522752 0  0.2950977245128307 0.2038180695522663 0  0.5688286748170693 0.203818069552238 0  0.2950977245127906 0.1961819304477774 0  0.3473758401723931 0.1961819304478349 0  0.4145905603061963 0.1961819304479011 0  0.2601812407614425 0.2056861609747042
[...]
<PointData  Vectors="f_40-0"> 
<DataArray  type="Float64"  Name="f_40-0"  NumberOfComponents="3" format="ascii">0.0000000000000000e+00 0.0000000000000000e+00 0.0000000000000000e+00  0.0000000000000000e+00 0.0000000000000000e+00 0.0000000000000000e+00  0.0000000000000000e+00 0.0000000000000000e+00 0.0000000000000000e+00  0.0000000000000000e+00 0.0000000000000000e+00 0.0000000000000000e+00  1.6176921395752564e-04 5.9821123302672939e-03 0.0000000000000000e+00  -2.7203672448635526e-04 5.9862800744708332e-03 0.0000000000000000e+00  0.0000000000000000e+00 0.0000000000000000e+00 0.0000000000000000e+00  0.0000000000000000e+00 0.0000000000000000e+00 0.0000000000000000e+00  0.0000000000000000e+00 0.0000000000000000e+00 0.0000000000000000e+00  0.0000000000000000e+00 0.0000000000000000e+00 0.0000000000000000e+00  -5.4639913744787824e-05 5.9841528094327018e-03 0.0000000000000000e+00  5.7028115183876449e-01 0.0000000000000000e+00 0.0000000000000000e+00  1.0528267418562505e+00 0.0000000000000000e+00 0.0000000000000000e+00  1.4476367700523447e+00 0.0000000000000000e+00 0.0000000000000000e+00  1.7547112364275042e+00 0.0000000000000000e+00 0.0000000000000000e+00  1.9740501409816893e+00 0.0000000000000000e+00 0.0000000000000000e+00  2.1056534837148861e+00 0.0000000000000000e+00 0.0000000000000000e+00  2.1495212646269644e+00 0.0000000000000000e+00 0.0000000000000000e+00  2.1056534837175471e+00 0.0000000000000000e+00 0.0000000000000000e+00  1.9740501409862596e+00 0.0000000000000000e+00 0.0000000000000000e+00  1.7547112364331643e+00 0.0000000000000000e+00 0.0000000000000000e+00  1.4476367700577217e+00 0.0000000000000000e+00 0.0000000000000000e+00  1.0528267418608388e+00 0.0000000000000000e+00 0.0000000000000000e+00  5.7028115184134975e-01 0.0000000000000000e+00 0.0000000000000000e+00  0.0000000000000000e+00 0.0000000000000000e+00 0.0000000000000000e+00  0.0000000000000000e+00 0.0000000000000000e+00 0.0000000000000000e+00  0.0000000000000000e+00 0.0000000000000000e+00 0.0000000000000000e+00  0.0000000000000000e+00 0.0000000000000000e+00 0.0000000000000000e+00  0.0000000000000000e+00 0.0000000000000000e+00 0.0000000000000000e+00  0.0000000000000000e+00 0.0000000000000000e+00 0.0000000000000000e+00  0.0000000000000000e+00 0.0000000000000000e+00 0.0000000000000000e+00  0.0000000000000000e+00 0.0000000000000000e+00 0.0000000000000000e+00  0.0000000000000000e+00 0.0000000000000000e+00 0.0000000000000000e+00  0.0000000000000000e+00 0.0000000000000000e+00 0.0000000000000000e+00  0.0000000000000000e+00 0.0000000000000000e+00 0.0000000000000000e+00  0.0000000000000000e+00 0.0000000000000000e+00 0.0000000000000000e+00  0.0000000000000000e+00 0.0000000000000000e+00 0.0000000000000000e+00  0.0000000000000000e+00 0.0000000000000000e+00 0.0000000000000000e+00  0.0000000000000000e+00 0.0000000000000000e+00 0.0000000000000000e+00  0.0000000000000000e+00 0.0000000000000000e+00 0.0000000000000000e+00  0.0000000000000000e+00 0.0000000000000000e+00 0.0000000000000000e+00  0.0000000000000000e+00 0.0000000000000000e+00 0.0000000000000000e+00  0.0000000000000000e+00 0.0000000000000000e+00 0.0000000000000000e+00  0.0000000000000000e+00 0.0000000000000000e+00 0.0000000000000000e+00  0.0000000000000000e+00 0.0000000000000000e+00 0.0000000000000000e+00  0.0000000000000000e+00 0.0000000000000000e+00 0.0000000000000000e+00  0.0000000000000000e+00 0.0000000000000000e+00 0.0000000000000000e+00  0.0000000000000000e+00 0.0000000000000000e+00 0.0000000000000000e+00  0.0000000000000000e+00 0.0000000000000000e+00 0.0000000000000000e+00  0.0000000000000000e+00 0.0000000000000000e+00 0.0000000000000000e+00  0.0000000000000000e+00 0.0000000000000000e+00 0.0000000000000000e+00  0.0000000000000000e+00 0.0000000000000000e+00 0.0000000000000000e+00  0.0000000000000000e+00 0.0000000000000000e+00 0.0000000000000000e+00  0.0000000000000000e+00 0.0000000000000000e+00 0.0000000000000000e+00  0.0000000000000000e+00 0.0000000000000000e+00 0.0000000000000000e+00  0.0000000000000000e+00 0.0000000000000000e+00 0.0000000000000000e+00  0.0000000000000000e+00 0.0000000000000000e+00 0.0000000000000000e+00  0.0000000000000000e+00 0.0000000000000000e+00 0.0000000000000000e+00  0.0000000000000000e+00 0.0000000000000000e+00 0.0000000000000000e+00  0.0000000000000000e+00 0.0000000000000000e+00 0.0000000000000000e+00  0.0000000000000000e+00 0.0000000000000000e+00 0.0000000000000000e+00  0.0000000000000000e+00 0.0000000000000000e+00 0.0000000000000000e+00  1.9552243853490361e+00 -2.8410215566707819e-02 0.0000000000000000e+00  1.6186348044778334e+00 1.3720376431639670e-02 0.0000000000000000e+00  1.9231493962231463e+00 6.7972092755039779e-02 0.0000000000000000e+00  0.0000000000000000e+00 0.0000000000000000e+00 0.0000000000000000e+00  0.0000000000000000e+00 0.0000000000000000e+00 0.0000000000000000e+00  0.0000000000000000e+00 0.0000000000000000e+00 0.0000000000000000e+00  0.0000000000000000e+00 0.0000000000000000e+00 0.0000000000000000e+00  0.0000000000000000e+00 0.0000000000000000e+00 0.0000000000000000e+00  0.0000000000000000e+00 0.0000000000000000e+00 0.0000000000000000e+00  0.0000000000000000e+00 0.0000000000000000e+00 0.0000000000000000e+00  0.0000000000000000e+00 0.0000000000000000e+00 0.0000000000000000e+00  0.0000000000000000e+00 0.0000000000000000e+00 0.0000000000000000e+00  0.0000000000000000e+00 0.0000000000000000e+00 0.0000000000000000e+00  0.0000000000000000e+00 0.0000000000000000e+00 0.0000000000000000e+00  0.0000000000000000e+00 0.0000000000000000e+00 0.0000000000000000e+00  0.0000000000000000e+00 0.0000000000000000e+00 0.0000000000000000e+00  0.0000000000000000e+00 0.0000000000000000e+00 0.0000000000000000e+00  0.0000000000000000e+00 0.0000000000000000e+00 0.0000000000000000e+00  0.0000000000000000e+00 0.0000000000000000e+00 0.0000000000000000e+00  0.0000000000000000e+00 0.0000000000000000e+00 0.0000000000000000e+00  0.0000000000000000e+00 0.0000000000000000e+00 0.0000000000000000e+00  0.0000000000000000e+00 0.0000000000000000e+00 0.0000000000000000e+00  0.0000000000000000e+00 0.0000000000000000e+00 0.0000000000000000e+00  0.0000000000000000e+00 0.0000000000000000e+00 0.0000000000000000e+00  0.0000000000000000e+00 0.0000000000000000e+00 0.0000000000000000e+00  0.0000000000000000e+00 0.0000000000000000e+00 0.0000000000000000e+00  0.0000000000000000e+00 0.0000000000000000e+00 0.0000000000000000e+00  0.0000000000000000e+00 0.0000000000000000e+00 0.0000000000000000e+00  0.0000000000000000e+00 0.0000000000000000e+00 0.0000000000000000e+00  0.0000000000000000e+00 0.0000000000000000e+00 0.0000000000000000e+00  0.0000000000000000e+00 0.0000000000000000e+00 0.0000000000000000e+00  0.0000000000000000e+00 0.0000000000000000e+00 0.0000000000000000e+00  0.0000000000000000e+00 0.0000000000000000e+00 0.0000000000000000e+00  0.0000000000000000e+00 0.0000000000000000e+00 0.0000000000000000e+00  0.0000000000000000e+00 0.0000000000000000e+00 0.0000000000000000e+00  0.0000000000000000e+00 0.0000000000000000e+00 0.0000000000000000e+00  0.0000000000000000e+00 0.0000000000000000e+00 0.0000000000000000e+00  0.0000000000000000e+00 0.0000000000000000e+00 0.0000000000000000e+00  0.0000000000000000e+00 0.0000000000000000e+00 0.0000000000000000e+00  0.0000000000000000e+00 0.0000000000000000e+00 0.0000000000000000e+00  0.0000000000000000e+00 0.0000000000000000e+00 0.0000000000000000e+00  0.0000000000000000e+00 0.0000000000000000e+00 0.0000000000000000e+00  0.0000000000000000e+00 0.0000000000000000e+00 0.0000000000000000e+00  0.0000000000000000e+00 0.0000000000000000e+00 0.0000000000000000e+00  0.0000000000000000e+00 0.0000000000000000e+00 0.0000000000000000e+00  0.0000000000000000e+00 0.0000000000000000e+00 0.0000000000000000e+00  0.0000000000000000e+00 0.0000000000000000e+00 0.0000000000000000e+00  0.0000000000000000e+00 0.0000000000000000e+00 0.0000000000000000e+00  0.0000000000000000e+00 0.0000000000000000e+00 0.0000000000000000e+00  0.0000000000000000e+00 0.0000000000000000e+00 0.0000000000000000e+00  0.0000000000000000e+00 0.0000000000000000e+00 0.0000000000000000e+00  0.0000000000000000e+00 0.0000000000000000e+00 0.0000000000000000e+00  0.0000000000000000e+00 0.0000000000000000e+00 0.0000000000000000e+00  0.0000000000000000e+00 0.0000000000000000e+00 0.0000000000000000e+00  0.0000000000000000e+00 0.0000000000000000e+00 0.0000000000000000e+00  0.0000000000000000e+00 0.0000000000000000e+00 0.0000000000000000e+00  0.0000000000000000e+00 0.0000000000000000e+00 0.0000000000000000e+00  0.0000000000000000e+00 0.0000000000000000e+00 0.0000000000000000e+00  0.0000000000000000e+00 0.0000000000000000e+00 0.0000000000000000e+00  0.0000000000000000e+00 0.0000000000000000e+00 0.0000000000000000e+00  0.0000000000000000e+00 0.0000000000000000e+00 0.0000000000000000e+00  0.0000000000000000e+00 0.0000000000000000e+00 0.0000000000000000e+00  0.0000000000000000e+00 0.0000000000000000e+00 0.0000000000000000e+00  0.0000000000000000e+00 0.0000000000000000e+00 0.0000000000000000e+00  0.0000000000000000e+00 0.0000000000000000e+00 0.0000000000000000e+00  0.0000000000000000e+00 0.0000000000000000e+00 0.0000000000000000e+00  0.0000000000000000e+00 0.0000000000000000e+00 0.0000000000000000e+00  0.0000000000000000e+00 0.0000000000000000e+00 0.0000000000000000e+00  0.0000000000000000e+00 0.0000000000000000e+00 0.0000000000000000e+00  0.0000000000000000e+00 0.0000000000000000e+00 0.0000000000000000e+00  0.0000000000000000e+00 0.0000000000000000e+00 0.0000000000000000e+00  0.0000000000000000e+00 0.0000000000000000e+00 0.0000000000000000e+00  0.0000000000000000e+00 0.0000000000000000e+00 0.0000000000000000e+00  0.0000000000000000e+00 0.0000000000000000e+00 0.0000000000000000e+00  0.0000000000000000e+00 0.0000000000000000e+00 0.0000000000000000e+00  0.0000000000000000e+00 0.0000000000000000e+00 0.0000000000000000e+00  0.0000000000000000e+00 0.0000000000000000e+00 0.0000000000000000e+00  0.0000000000000000e+00 0.0000000000000000e+00 0.0000000000000000e+00  0.0000000000000000e+00 0.0000000000000000e+00 0.0000000000000000e+00  0.0000000000000000e+00 0.0000000000000000e+00 0.0000000000000000e+00  0.0000000000000000e+00 0.0000000000000000e+00 0.0000000000000000e+00  -1.5536814802508401e-05 1.6301674987066419e-05 0.0000000000000000e+00  -3.3038428560893124e-05 3.3919635869649522e-05 0.0000000000000000e+00  -4.8668323540781327e-05 6.2113507418880127e-05 0.0000000000000000e+00  -6.5410778519181087e-05 1.0154755786031828e-04 0.0000000000000000e+00  -7.9495780239194865e-05 1.5031803534083186e-04 0.0000000000000000e+00  -9.5100908472644843e-05 2.0927187423501586e-04 0.0000000000000000e+00  -1.0776307396372033e-04 2.7563152157471200e-04 0.0000000000000000e+00  -1.1991583665502112e-04 3.5162591526660095e-04 0.0000000000000000e+00  -1.3349616225679731e-04 4.3481008599483695e-04 0.0000000000000000e+00  -1.4398108052018346e-04 5.2534798526207582e-04 0.0000000000000000e+00  -1.5627638058869826e-04 6.2303683720413988e-04 0.0000000000000000e+00  -1.6565322782981831e-04 7.2710931623785142e-04 0.0000000000000000e+00  -1.7626375648008193e-04 8.3728043417224637e-04 0.0000000000000000e+00  -1.8477800610460074e-04 9.5225457124665483e-04 0.0000000000000000e+00  -1.9284918538172794e-04 1.0730443530195877e-03 0.0000000000000000e+00  -2.0160609930203083e-04 1.1980986148731174e-03 0.0000000000000000e+00  -2.0836892962566145e-04 1.3273903114018432e-03 0.0000000000000000e+00  -2.1596621545690522e-04 1.4607569202506868e-03 0.0000000000000000e+00  -2.2176591675971915e-04 1.5975401084054280e-03 0.0000000000000000e+00  -2.2814355135390094e-04 1.7375303359038457e-03 0.0000000000000000e+00  -2.3326342053697237e-04 1.8803911644892752e-03 0.0000000000000000e+00  -2.3854528368897918e-04 2.0259814562271533e-03 0.0000000000000000e+00  -2.4284767778464883e-04 2.1734565213546511e-03 0.0000000000000000e+00  -2.4680618552687985e-04 2.3232928402158026e-03 0.0000000000000000e+00  -2.5086484593624353e-04 2.4746682771424043e-03 0.0000000000000000e+00  -2.5420834296222071e-04 2.6277243774642492e-03 0.0000000000000000e+00  -2.5736487107782917e-04 2.7822484279057509e-03 0.0000000000000000e+00  -2.6008705111905456e-04 2.9378324549558335e-03 0.0000000000000000e+00  -2.6261584489736399e-04 3.0945896010233487e-03 0.0000000000000000e+00  -2.6477907884693780e-04 3.2521119979989220e-03 0.0000000000000000e+00  -2.6675555367804924e-04 3.4105168154697813e-03 0.0000000000000000e+00  -2.6841950947448294e-04 3.5694459214678626e-03 0.0000000000000000e+00  -2.6991016590277600e-04 3.7290251764126661e-03 0.0000000000000000e+00  -2.7113169990830712e-04 3.8889360947319007e-03 0.0000000000000000e+00  -2.7217903245500119e-04 4.0493288054760726e-03 0.0000000000000000e+00  -2.7300422352680490e-04 4.2099191789440613e-03 0.0000000000000000e+00  -2.7367285838953738e-04 4.3708483005962129e-03 0.0000000000000000e+00  -2.7414949359073979e-04 4.5318799939982153e-03 0.0000000000000000e+00  -2.7447459995304393e-04 4.6931568618122149e-03 0.0000000000000000e+00  -2.7462685468876511e-04 4.8544745156235943e-03 0.0000000000000000e+00  -2.7462706586410887e-04 5.0159546817374612e-03 0.0000000000000000e+00  -2.7449394513518599e-04 5.1774661118861968e-03 0.0000000000000000e+00  -2.7419692316065387e-04 5.3390703105744806e-03 0.0000000000000000e+00  -2.7382607464900520e-04 5.5007167736043569e-03 0.0000000000000000e+00  -2.7328658222508246e-04 5.6623728165490798e-03 0.0000000000000000e+00  -2.7265228210278158e-04 5.8241461171958222e-03 0.0000000000000000e+00  -1.6313468071111348e-04 5.9852122180576216e-03 0.0000000000000000e+00  5.3706416518672584e-05 5.9831141366189985e-03 0.0000000000000000e+00  1.6103641962925201e-04 5.8202489569772371e-03 0.0000000000000000e+00  1.6025986700240208e-04 5.6581883243909687e-03 0.0000000000000000e+00  1.5957254275872392e-04 5.4961205326810045e-03 0.0000000000000000e+00  1.5899862085172356e-04 5.3341541536584217e-03 0.0000000000000000e+00  1.5851285175949687e-04 5.1722396933058671e-03 0.0000000000000000e+00  1.5816144169633698e-04 5.0104136188207898e-03 0.0000000000000000e+00  1.5785411565960220e-04 4.8486809142041475e-03 0.0000000000000000e+00  1.5768918961620102e-04 4.6870232890245363e-03 0.0000000000000000e+00  1.5754902997764696e-04 4.5255520717683625e-03 0.0000000000000000e+00  1.5753859992269557e-04 4.3641899441695603e-03 0.0000000000000000e+00  1.5750388086697363e-04 4.2030820469933072e-03 0.0000000000000000e+00  1.5760533828928280e-04 4.0421801022141012e-03 0.0000000000000000e+00  1.5761671965913246e-04 3.8816349120987608e-03 0.0000000000000000e+00  1.5777051394180836e-04 3.7214351167996571e-03 0.0000000000000000e+00  1.5774450215357312e-04 3.5617235720431435e-03 0.0000000000000000e+00  1.5788631785846501e-04 3.4025387041230620e-03 0.0000000000000000e+00  1.5774130671447650e-04 3.2440231707982423e-03 0.0000000000000000e+00  1.5779944789320589e-04 3.0862693398395350e-03 0.0000000000000000e+00  1.5743673256700774e-04 2.9294237896357578e-03 0.0000000000000000e+00  1.5732743111217484e-04 2.7736331292147888e-03 0.0000000000000000e+00  1.5662415266361836e-04 2.6190492373415826e-03 0.0000000000000000e+00  1.5624085975788051e-04 2.4658853791438462e-03 0.0000000000000000e+00  1.5511776597647718e-04 2.3143293945586171e-03 0.0000000000000000e+00  1.5424722662638431e-04 2.1644194235848533e-03 0.0000000000000000e+00  1.5317802670426848e-04 2.0168840734116540e-03 0.0000000000000000e+00  1.5129901869129775e-04 1.8711622819182080e-03 0.0000000000000000e+00  1.4951539063573483e-04 1.7283297346924358e-03 0.0000000000000000e+00  1.4702861043138966e-04 1.5881582645465048e-03 0.0000000000000000e+00  1.4450370040548045e-04 1.4513776435060701e-03 0.0000000000000000e+00  1.4120797911141788e-04 1.3179562005074649e-03 0.0000000000000000e+00  1.3785789898068971e-04 1.1884430738573614e-03 0.0000000000000000e+00  1.3313241529092437e-04 1.0636357307388868e-03 0.0000000000000000e+00  1.2907609669238559e-04 9.4274249323021990e-04 0.0000000000000000e+00  1.2460090485728168e-04 8.2781489422868889e-04 0.0000000000000000e+00  1.1836690865335793e-04 7.1722500067483773e-04 0.0000000000000000e+00  1.1240743446893187e-04 6.1334538179598508e-04 0.0000000000000000e+00  1.0520399217603815e-04 5.1556045237113120e-04 0.0000000000000000e+00  9.8110060343441175e-05 4.2468127911415496e-04 0.0000000000000000e+00  8.8888859159159622e-05 3.4189308875747843e-04 0.0000000000000000e+00  8.0943667213617581e-05 2.6571701559923995e-04 0.0000000000000000e+00  7.2520017578157249e-05 1.9932111880349720e-04 0.0000000000000000e+00  6.1371534924205712e-05 1.4003046825275214e-04 0.0000000000000000e+00  5.1146942180158376e-05 9.0995532280679309e-05 0.0000000000000000e+00  3.8443925016581722e-05 5.1976153150826817e-05 0.0000000000000000e+00  2.6983924313575483e-05 2.3771937181190806e-05 0.0000000000000000e+00  1.2779821755998915e-05 6.7011999349214171e-06 0.0000000000000000e+00  -1.5613362430574067e-06 1.2299585353702509e-05 0.0000000000000000e+00  -5.8720971003062732e-05 5.7408535496938570e-03 0.0000000000000000e+00  -6.1692184142737088e-05 5.4315082398854074e-03 0.0000000000000000e+00  -6.0676121219377648e-05 4.9265505708565721e-03 0.0000000000000000e+00  -5.9376193520270538e-06 6.8618503985779175e-05 0.0000000000000000e+00  -5.8257750902217015e-05 4.6092755377415149e-03 0.0000000000000000e+00  -9.0684555936010976e-06 1.6247941118654379e-04 0.0000000000000000e+00  -5.7821960026818432e-05 4.2868180641932032e-03 0.0000000000000000e+00  -1.5086118752524987e-05 3.8560267088222030e-04 0.0000000000000000e+00  -2.0660876612463478e-05 5.6417825142327177e-04 0.0000000000000000e+00  -5.6936669106391785e-05 3.9652382853856893e-03 0.0000000000000000e+00  -2.8638939730406896e-05 1.1324571341879606e-03 0.0000000000000000e+00  -5.3899769841705690e-05 3.3267238647143949e-03 0.0000000000000000e+00  -2.2724243666132855e-05 7.6372368219628677e-04 0.0000000000000000e+00  -3.4653910028280795e-05 1.3864721386943435e-03 0.0000000000000000e+00  -5.1795954389939502e-05 3.0112484560500998e-03 0.0000000000000000e+00  -5.5621940884401635e-05 3.6449966422989260e-03 0.0000000000000000e+00  -3.8340111445393091e-05 1.6604855013033217e-03 0.0000000000000000e+00  -4.9327568226211998e-05 2.6996333656535685e-03 0.0000000000000000e+00  -3.9143884978364782e-05 1.9347657140959017e-03 0.0000000000000000e+00  -4.9187009459831032e-05 2.3995006855618661e-03 0.0000000000000000e+00  -4.4043023779600730e-05 2.1557343570603343e-03 0.0000000000000000e+00  -2.7924308846044993e-05 9.3473956307307902e-04 0.0000000000000000e+00  -5.7438010203652398e-05 5.1889641094184378e-03 0.0000000000000000e+00  -1.3100270073205817e-05 2.6081177390043186e-04 0.0000000000000000e+00  1.5823522446649891e-05 5.5843022839285449e-03 0.0000000000000000e+00  9.5167387703422476e-06 3.3870335338581616e-05 0.0000000000000000e+00  4.6414892118383054e-06 4.4470358354442166e-03 0.0000000000000000e+00  4.5601877502662028e-06 4.7698749790700103e-03 0.0000000000000000e+00  -3.0605788199260616e-05 1.1549148181049776e-04 0.0000000000000000e+00  -5.3607662433117641e-05 4.7168302855352654e-04 0.0000000000000000e+00  7.0398585535510322e-06 3.4844861743048411e-03 0.0000000000000000e+00  5.1113687045781278e-06 4.1249060930552816e-03 0.0000000000000000e+00  -8.2864461924259624e-05 1.2565588669534043e-03 0.0000000000000000e+00  8.3797422632817097e-06 3.1674641964306608e-03 0.0000000000000000e+00  -6.2730386792164084e-05 6.6732848023510832e-04 0.0000000000000000e+00  -8.9482219435048509e-05 1.5234897178905524e-03 0.0000000000000000e+00  9.8841672807034431e-06 2.8537522533364566e-03 0.0000000000000000e+00  5.9302734175103664e-06 3.8038743206788746e-03 0.0000000000000000e+00  -1.0757599586502624e-04 1.8025256893922990e-03 0.0000000000000000e+00  1.1499977103285111e-05 2.5445302383465922e-03 0.0000000000000000e+00  -2.6072183401303125e-06 3.8218077847720441e-06 0.0000000000000000e+00  2.1001687190314410e-06 1.3615542199060295e-06 0.0000000000000000e+00  -1.0798293849156998e-04 5.8686768017632189e-03 0.0000000000000000e+00  -1.8524778862658017e-05 3.7978292150773369e-05 0.0000000000000000e+00  2.6622686377925339e-05 2.2746107842897953e-03 0.0000000000000000