<?xml version="1.0"?>
<VTKFile type="UnstructuredGrid"  version="0.1"  >
<UnstructuredGrid>
<Piece  NumberOfPoints="1419" NumberOfCells="2698">
<Points>
<DataArray  type="Float64"  NumberOfComponents="3"  format="ascii">0 0 0  0 0.41 0  2.5 0 0  2.5 0.41 0  0.6 0.19 0  0.6 0.21 0  0.25 0.2 0  0.15 0.2 0  0.2489897948556636 0.21 0  0.2489897948556636 0.19 0  0.6 0.2 0  0 0.3807142857143437 0  0 0.3514285714286952 0  0 0.3221428571430699 0  0 0.29285714285744 0  0 0.2635714285718054 0  0 0.2342857142861561 0  0 0.2050000000005308 0  0 0.175714285714732 0  0 0.1464285714289574 0  0 0.1171428571431897 0  0 0.08785714285737878 0  0 0.05857142857161107 0  0 0.02928571428580012 0  0.03015443760436003 0 0  0.06140001986583606 0 0  0.09377624077125973 0 0  0.1273239957535082 0 0  0.1620856860351972 0 0  0.1981052433264291 0 0  0.235428184091502 0 0  0.2741016576309132 0 0  0.3141745521465447 0 0  0.3556974926295285 0 0  0.3987229542472677 0 0  0.4433053055141081 0 0  0.4895008759286886 0 0  0.5373680609405097 0 0  0.5869673343216626 0 0  0.6383613676634521 0 0  0.6916151138468254 0 0  0.7467958595648856 0 0  0.8039733463919316 0 0  0.8632198139502143 0 0  0.9246101326867038 0 0  0.9882218810934433 0 0  1.054135445558498 0 0  1.122434100542598 0 0  1.193204177141305 0 0  1.266535089879536 0 0  1.342519516046404 0 0  1.421253448503939 0 0  1.502836389106271 0 0  1.587371439758838 0 0  1.674965418777374 0 0  1.765729001825544 0 0  1.859776908880082 0 0  1.957227977487062 0 0  2.058205329869943 0 0  2.162836591189951 0 0  2.271253957290865 0 0  2.383594446803425 0 0  2.5 0.1024999999997612 0  2.5 0.2049999999994743 0  2.5 0.3074999999997183 0  2.383594446803656 0.41 0  2.271253957291315 0.41 0  2.162836591190598 0.41 0  2.058205329870775 0.41 0  1.957227977488067 0.41 0  1.859776908881246 0.41 0  1.765729001826854 0.41 0  1.674965418778818 0.41 0  1.58737143976041 0.41 0  1.502836389107956 0.41 0  1.421253448505726 0.41 0  1.342519516048286 0.41 0  1.266535089881505 0.41 0  1.193204177143353 0.41 0  1.122434100544716 0.41 0  1.05413544556068 0.41 0  0.9882218810956305 0.41 0  0.9246101326886647 0.41 0  0.8632198139519631 0.41 0  0.8039733463934788 0.41 0  0.7467958595662458 0.41 0  0.6916151138480078 0.41 0  0.6383613676644679 0.41 0  0.5869673343225223 0.41 0  0.5373680609412221 0.41 0  0.4895008759292634 0.41 0  0.4433053055145528 0.41 0  0.3987229542475914 0.41 0  0.3556974926297398 0.41 0  0.3141745521466497 0.41 0  0.2741016576310038 0.41 0  0.2354281840915826 0.41 0  0.1981052433265003 0.41 0  0.1620856860352591 0.41 0  0.1273239957535623 0.41 0  0.09377624077128965 0.41 0  0.06140001986584975 0.41 0  0.03015443760436654 0.41 0  0.2497468076502589 0.2050254481002335 0  0.2497468076502614 0.1949745518997913 0  0.2469965252529372 0.1829317073451959 0  0.2439893735792749 0.1762316384219906 0  0.2400332147834255 0.1700443375285386 0  0.2352133972704371 0.1645032867342007 0  0.2296339016332438 0.1597280261969788 0  0.2234150974217223 0.1558215752574715 0  0.2166911463437691 0.1528682099456123 0  0.2096071079204251 0.1509316448471593 0  0.2023158100364996 0.1500536585536553 0  0.194974551899914 0.1502531923497262 0  0.1877417105387872 0.1515259415822739 0  0.1807733240461124 0.153844448527136 0  0.1742197252835808 0.15715869474974 0  0.1682222986673531 0.1613971801805478 0  0.162910430003803 0.1664684656256651 0  0.1583987151779087 0.1722631454351573 0  0.1547844879126891 0.178656207771761 0  0.1521457199348551 0.1855097315605723 0  0.1505393388476355 0.1926758619366523 0  0.1505393388476328 0.2073241380633295 0  0.1521457199348437 0.2144902684393899 0  0.1547844879126531 0.221343792228163 0  0.1583987151778488 0.2277368545647528 0  0.1629104300036858 0.2335315343742052 0  0.1682222986671726 0.2386028198193036 0  0.1742197252833576 0.2428413052501257 0  0.1807733240458683 0.2461555514727623 0  0.1877417105384929 0.2484740584176516 0  0.1949745518995776 0.2497468076502398 0  0.202315810036185 0.2499463414463592 0  0.2096071079201568 0.2490683551528932 0  0.2166911463435495 0.2471317900544655 0  0.2234150974215506 0.2441784247426195 0  0.2296339016331197 0.2402719738031125 0  0.2352133972703547 0.2354967132658811 0  0.2400332147833751 0.2299556624715287 0  0.2439893735792577 0.2237683615780412 0  0.246996525252926 0.2170682926548348 0  0.25645809709277 0.21 0  0.2639263993298655 0.21 0  0.271394701566961 0.21 0  0.2788630038040554 0.21 0  0.2863313060411479 0.21 0  0.2937996082782405 0.21 0  0.301267910515333 0.21 0  0.3087362127524279 0.21 0  0.3162045149895234 0.21 0  0.3236728172265972 0.21 0  0.3311411194636928 0.21 0  0.3386094217007701 0.21 0  0.3460777239378666 0.21 0  0.3535460261749672 0.21 0  0.3610143284120516 0.21 0  0.3684826306491596 0.21 0  0.3759509328862226 0.21 0  0.383419235123329 0.21 0  0.3908875373604028 0.21 0  0.3983558395975142 0.21 0  0.4058241418345938 0.21 0  0.4132924440716992 0.21 0  0.4207607463087888 0.21 0  0.4282290485459029 0.21 0  0.4356973507830418 0.21 0  0.4431656530201649 0.21 0  0.4506339552573136 0.21 0  0.4581022574944306 0.21 0  0.4655705597315852 0.21 0  0.4730388619686996 0.21 0  0.480507164205851 0.21 0  0.4879754664429498 0.21 0  0.4954437686800938 0.21 0  0.502912070917267 0.21 0  0.5103803731544119 0.21 0  0.5178486753915261 0.21 0  0.5253169776286404 0.21 0  0.5327852798657868 0.21 0  0.5402535821029386 0.21 0  0.54772188434007 0.21 0  0.5551901865771842 0.21 0  0.5626584888143201 0.21 0  0.5701267910514778 0.21 0  0.5775950932886138 0.21 0  0.5850633955257281 0.21 0  0.5925316977628483 0.21 0  0.6 0.2050000000000054 0  0.6 0.1950000000000217 0  0.5925316977628897 0.19 0  0.5850633955257988 0.19 0  0.5775950932887378 0.19 0  0.5701267910515998 0.19 0  0.5626584888145268 0.19 0  0.5551901865773963 0.19 0  0.547721884340339 0.19 0  0.5402535821032429 0.19 0  0.5327852798661811 0.19 0  0.5253169776290537 0.19 0  0.5178486753919799 0.19 0  0.5103803731549078 0.19 0  0.502912070917822 0.19 0  0.4954437686807294 0.19 0  0.4879754664436223 0.19 0  0.4805071642065402 0.19 0  0.4730388619694271 0.19 0  0.4655705597323621 0.19 0  0.4581022574952563 0.19 0  0.4506339552581777 0.19 0  0.4431656530210671 0.19 0  0.4356973507839815 0.19 0  0.4282290485468779 0.19 0  0.4207607463097617 0.19 0  0.4132924440726327 0.19 0  0.4058241418354857 0.19 0  0.3983558395983636 0.19 0  0.3908875373612097 0.19 0  0.3834192351240934 0.19 0  0.3759509328869369 0.19 0  0.3684826306498175 0.19 0  0.361014328412667 0.19 0  0.3535460261755617 0.19 0  0.3460777239384295 0.19 0  0.3386094217012945 0.19 0  0.3311411194641595 0.19 0  0.3236728172270245 0.19 0  0.3162045149898895 0.19 0  0.3087362127527544 0.19 0  0.3012679105156187 0.19 0  0.2937996082784807 0.19 0  0.2863313060413428 0.19 0  0.2788630038042048 0.19 0  0.2713947015670686 0.19 0  0.2639263993299336 0.19 0  0.2564580970927985 0.19 0  0.2607803159922026 0.2000727136295815 0  0.5887803774232762 0.2001272386983733 0  0.5745072403740523 0.2002044435018727 0  0.5511891430099709 0.2001122610077113 0  0.2751288526855082 0.20000000000002 0  0.5365194309847112 0.1999999999999436 0  0.2894621222999649 0.1998691686390484 0  0.5215828265105155 0.1999999999999228 0  0.3127789816668748 0.1998657885438805 0  0.3274069683451451 0.2000000000000796 0  0.5066462220363641 0.199999999999908 0  0.3650630746574081 0.199866017807523 0  0.476773013087985 0.1999999999998713 0  0.3417402379596385 0.1998691686391011 0  0.3796850840047755 0.200000000000134 0  0.4618364086138087 0.1999999999998546 0  0.4917096175621762 0.1999999999998808 0  0.3946216884789568 0.2000000000001512 0  0.446899804139621 0.1999999999998389 0  0.4089549580935208 0.1998691686391595 0  0.4322718174608562 0.200127451265745 0  0.4201487168029707 0.1999966199048527 0  0.3528922713220932 0.2000185703532356 0  0.5633122436674589 0.1999814296467508 0  0.3006558810093873 0.1999966199048318 0  0.5815926498168407 0.1966545283159175 0  0.2677053789419034 0.1964246479135325 0  0.5290511287476175 0.1970915826863981 0  0.5439877332217911 0.197091582686394 0  0.2825131256993216 0.2035478995978015 0  0.3199386661080599 0.202908417313604 0  0.4842413153250809 0.1970915826863873 0  0.5141145242734466 0.1970915826863843 0  0.3722167817676917 0.2029084173136195 0  0.4693047108508938 0.1970915826863783 0  0.3348752705822316 0.202908417313609 0  0.3871533862418661 0.2029084173136212 0  0.4543681063767183 0.1970915826863795 0  0.4991779197992749 0.1970915826863902 0  0.4020059614928624 0.203547899597858 0  0.4394315019025246 0.1970915826863714 0  0.2550657455369551 0.2034088125358657 0  0.2548908499171161 0.1966940311614271 0  0.5946539510196798 0.2024302972968126 0  0.267698176732111 0.2039977513680092 0  0.4261685417851465 0.196409292431739 0  0.3590076176283495 0.196411355804271 0  0.5571672426447437 0.2036011176410121 0  0.3066757059912147 0.1964092924317024 0  0.594380730180568 0.1966558399668133 0  0.4842413153245942 0.2040749161535287 0  0.4693047108503577 0.2040749161535231 0  0.3871533862424271 0.1959250838464788 0  0.372246743208829 0.1959123236376545 0  0.5141145242731028 0.2040749161535395 0  0.4543681063761134 0.2040749161535186 0  0.4019979587101454 0.1959834479682427 0  0.4394608940728603 0.2040870543693135 0  0.5439623148931173 0.2040856076781014 0  0.5290511287473298 0.2040749161535501 0  0.4991779197988497 0.2040749161535382 0  0.3347912413592433 0.1959225448935183 0  0.3199680582793816 0.1959123018030061 0  0.2825051229162361 0.1959834479681729 0  0.3590471196690275 0.2036304442587945 0  0.5571594006495384 0.1963685282145804 0  0.3067669986803285 0.203627750582736 0  0.4262598344738712 0.2036568242185335 0  0.5814408164431408 0.2041285596160068 0  0.5688286748170428 0.1961819304477386 0  0.4145905603063645 0.2038180695522843 0  0.3473758401724931 0.2038180695522752 0  0.2950977245128307 0.2038180695522663 0  0.5688286748170693 0.203818069552238 0  0.2950977245127906 0.1961819304477774 0  0.3473758401723931 0.1961819304478349 0  0.4145905603061963 0.1961819304479011 0  0.2601812407614425 0.2056861609747042
[...]
<PointData  Vectors="f_40-0"> 
<DataArray  type="Float64"  Name="f_40-0"  NumberOfComponents="3" format="ascii">0.0000000000000000e+00 0.0000000000000000e+00 0.0000000000000000e+00  0.0000000000000000e+00 0.0000000000000000e+00 0.0000000000000000e+00  0.0000000000000000e+00 0.0000000000000000e+00 0.0000000000000000e+00  0.0000000000000000e+00 0.0000000000000000e+00 0.0000000000000000e+00  1.5218649974483130e-04 3.8072571106094835e-03 0.0000000000000000e+00  -1.3538508283366649e-04 3.8117072674128962e-03 0.0000000000000000e+00  0.0000000000000000e+00 0.0000000000000000e+00 0.0000000000000000e+00  0.0000000000000000e+00 0.0000000000000000e+00 0.0000000000000000e+00  0.0000000000000000e+00 0.0000000000000000e+00 0.0000000000000000e+00  0.0000000000000000e+00 0.0000000000000000e+00 0.0000000000000000e+00  8.8401300121601226e-06 3.8094592523810356e-03 0.0000000000000000e+00  7.3533356190703969e-01 0.0000000000000000e+00 0.0000000000000000e+00  1.3575388835207789e+00 0.0000000000000000e+00 0.0000000000000000e+00  1.8666159648410712e+00 0.0000000000000000e+00 0.0000000000000000e+00  2.2625648058685059e+00 0.0000000000000000e+00 0.0000000000000000e+00  2.5453854066030326e+00 0.0000000000000000e+00 0.0000000000000000e+00  2.7150777670446335e+00 0.0000000000000000e+00 0.0000000000000000e+00  2.7716418871931392e+00 0.0000000000000000e+00 0.0000000000000000e+00  2.7150777670480641e+00 0.0000000000000000e+00 0.0000000000000000e+00  2.5453854066089256e+00 0.0000000000000000e+00 0.0000000000000000e+00  2.2625648058758046e+00 0.0000000000000000e+00 0.0000000000000000e+00  1.8666159648480043e+00 0.0000000000000000e+00 0.0000000000000000e+00  1.3575388835266951e+00 0.0000000000000000e+00 0.0000000000000000e+00  7.3533356191037325e-01 0.0000000000000000e+00 0.0000000000000000e+00  0.0000000000000000e+00 0.0000000000000000e+00 0.0000000000000000e+00  0.0000000000000000e+00 0.0000000000000000e+00 0.0000000000000000e+00  0.0000000000000000e+00 0.0000000000000000e+00 0.0000000000000000e+00  0.0000000000000000e+00 0.0000000000000000e+00 0.0000000000000000e+00  0.0000000000000000e+00 0.0000000000000000e+00 0.0000000000000000e+00  0.0000000000000000e+00 0.0000000000000000e+00 0.0000000000000000e+00  0.0000000000000000e+00 0.0000000000000000e+00 0.0000000000000000e+00  0.0000000000000000e+00 0.0000000000000000e+00 0.0000000000000000e+00  0.0000000000000000e+00 0.0000000000000000e+00 0.0000000000000000e+00  0.0000000000000000e+00 0.0000000000000000e+00 0.0000000000000000e+00  0.0000000000000000e+00 0.0000000000000000e+00 0.0000000000000000e+00  0.0000000000000000e+00 0.0000000000000000e+00 0.0000000000000000e+00  0.0000000000000000e+00 0.0000000000000000e+00 0.0000000000000000e+00  0.0000000000000000e+00 0.0000000000000000e+00 0.0000000000000000e+00  0.0000000000000000e+00 0.0000000000000000e+00 0.0000000000000000e+00  0.0000000000000000e+00 0.0000000000000000e+00 0.0000000000000000e+00  0.0000000000000000e+00 0.0000000000000000e+00 0.0000000000000000e+00  0.0000000000000000e+00 0.0000000000000000e+00 0.0000000000000000e+00  0.0000000000000000e+00 0.0000000000000000e+00 0.0000000000000000e+00  0.0000000000000000e+00 0.0000000000000000e+00 0.0000000000000000e+00  0.0000000000000000e+00 0.0000000000000000e+00 0.0000000000000000e+00  0.0000000000000000e+00 0.0000000000000000e+00 0.0000000000000000e+00  0.0000000000000000e+00 0.0000000000000000e+00 0.0000000000000000e+00  0.0000000000000000e+00 0.0000000000000000e+00 0.0000000000000000e+00  0.0000000000000000e+00 0.0000000000000000e+00 0.0000000000000000e+00  0.0000000000000000e+00 0.0000000000000000e+00 0.0000000000000000e+00  0.0000000000000000e+00 0.0000000000000000e+00 0.0000000000000000e+00  0.0000000000000000e+00 0.0000000000000000e+00 0.0000000000000000e+00  0.0000000000000000e+00 0.0000000000000000e+00 0.0000000000000000e+00  0.0000000000000000e+00 0.0000000000000000e+00 0.0000000000000000e+00  0.0000000000000000e+00 0.0000000000000000e+00 0.0000000000000000e+00  0.0000000000000000e+00 0.0000000000000000e+00 0.0000000000000000e+00  0.0000000000000000e+00 0.0000000000000000e+00 0.0000000000000000e+00  0.0000000000000000e+00 0.0000000000000000e+00 0.0000000000000000e+00  0.0000000000000000e+00 0.0000000000000000e+00 0.0000000000000000e+00  0.0000000000000000e+00 0.0000000000000000e+00 0.0000000000000000e+00  0.0000000000000000e+00 0.0000000000000000e+00 0.0000000000000000e+00  0.0000000000000000e+00 0.0000000000000000e+00 0.0000000000000000e+00  2.4751795197323658e+00 -1.6255636840185505e-02 0.0000000000000000e+00  2.2644375111914239e+00 1.2825922568184650e-02 0.0000000000000000e+00  2.4447391008605335e+00 7.3178143191724068e-02 0.0000000000000000e+00  0.0000000000000000e+00 0.0000000000000000e+00 0.0000000000000000e+00  0.0000000000000000e+00 0.0000000000000000e+00 0.0000000000000000e+00  0.0000000000000000e+00 0.0000000000000000e+00 0.0000000000000000e+00  0.0000000000000000e+00 0.0000000000000000e+00 0.0000000000000000e+00  0.0000000000000000e+00 0.0000000000000000e+00 0.0000000000000000e+00  0.0000000000000000e+00 0.0000000000000000e+00 0.0000000000000000e+00  0.0000000000000000e+00 0.0000000000000000e+00 0.0000000000000000e+00  0.0000000000000000e+00 0.0000000000000000e+00 0.0000000000000000e+00  0.0000000000000000e+00 0.0000000000000000e+00 0.0000000000000000e+00  0.0000000000000000e+00 0.0000000000000000e+00 0.0000000000000000e+00  0.0000000000000000e+00 0.0000000000000000e+00 0.0000000000000000e+00  0.0000000000000000e+00 0.0000000000000000e+00 0.0000000000000000e+00  0.0000000000000000e+00 0.0000000000000000e+00 0.0000000000000000e+00  0.0000000000000000e+00 0.0000000000000000e+00 0.0000000000000000e+00  0.0000000000000000e+00 0.0000000000000000e+00 0.0000000000000000e+00  0.0000000000000000e+00 0.0000000000000000e+00 0.0000000000000000e+00  0.0000000000000000e+00 0.0000000000000000e+00 0.0000000000000000e+00  0.0000000000000000e+00 0.0000000000000000e+00 0.0000000000000000e+00  0.0000000000000000e+00 0.0000000000000000e+00 0.0000000000000000e+00  0.0000000000000000e+00 0.0000000000000000e+00 0.0000000000000000e+00  0.0000000000000000e+00 0.0000000000000000e+00 0.0000000000000000e+00  0.0000000000000000e+00 0.0000000000000000e+00 0.0000000000000000e+00  0.0000000000000000e+00 0.0000000000000000e+00 0.0000000000000000e+00  0.0000000000000000e+00 0.0000000000000000e+00 0.0000000000000000e+00  0.0000000000000000e+00 0.0000000000000000e+00 0.0000000000000000e+00  0.0000000000000000e+00 0.0000000000000000e+00 0.0000000000000000e+00  0.0000000000000000e+00 0.0000000000000000e+00 0.0000000000000000e+00  0.0000000000000000e+00 0.0000000000000000e+00 0.0000000000000000e+00  0.0000000000000000e+00 0.0000000000000000e+00 0.0000000000000000e+00  0.0000000000000000e+00 0.0000000000000000e+00 0.0000000000000000e+00  0.0000000000000000e+00 0.0000000000000000e+00 0.0000000000000000e+00  0.0000000000000000e+00 0.0000000000000000e+00 0.0000000000000000e+00  0.0000000000000000e+00 0.0000000000000000e+00 0.0000000000000000e+00  0.0000000000000000e+00 0.0000000000000000e+00 0.0000000000000000e+00  0.0000000000000000e+00 0.0000000000000000e+00 0.0000000000000000e+00  0.0000000000000000e+00 0.0000000000000000e+00 0.0000000000000000e+00  0.0000000000000000e+00 0.0000000000000000e+00 0.0000000000000000e+00  0.0000000000000000e+00 0.0000000000000000e+00 0.0000000000000000e+00  0.0000000000000000e+00 0.0000000000000000e+00 0.0000000000000000e+00  0.0000000000000000e+00 0.0000000000000000e+00 0.0000000000000000e+00  0.0000000000000000e+00 0.0000000000000000e+00 0.0000000000000000e+00  0.0000000000000000e+00 0.0000000000000000e+00 0.0000000000000000e+00  0.0000000000000000e+00 0.0000000000000000e+00 0.0000000000000000e+00  0.0000000000000000e+00 0.0000000000000000e+00 0.0000000000000000e+00  0.0000000000000000e+00 0.0000000000000000e+00 0.0000000000000000e+00  0.0000000000000000e+00 0.0000000000000000e+00 0.0000000000000000e+00  0.0000000000000000e+00 0.0000000000000000e+00 0.0000000000000000e+00  0.0000000000000000e+00 0.0000000000000000e+00 0.0000000000000000e+00  0.0000000000000000e+00 0.0000000000000000e+00 0.0000000000000000e+00  0.0000000000000000e+00 0.0000000000000000e+00 0.0000000000000000e+00  0.0000000000000000e+00 0.0000000000000000e+00 0.0000000000000000e+00  0.0000000000000000e+00 0.0000000000000000e+00 0.0000000000000000e+00  0.0000000000000000e+00 0.0000000000000000e+00 0.0000000000000000e+00  0.0000000000000000e+00 0.0000000000000000e+00 0.0000000000000000e+00  0.0000000000000000e+00 0.0000000000000000e+00 0.0000000000000000e+00  0.0000000000000000e+00 0.0000000000000000e+00 0.0000000000000000e+00  0.0000000000000000e+00 0.0000000000000000e+00 0.0000000000000000e+00  0.0000000000000000e+00 0.0000000000000000e+00 0.0000000000000000e+00  0.0000000000000000e+00 0.0000000000000000e+00 0.0000000000000000e+00  0.0000000000000000e+00 0.0000000000000000e+00 0.0000000000000000e+00  0.0000000000000000e+00 0.0000000000000000e+00 0.0000000000000000e+00  0.0000000000000000e+00 0.0000000000000000e+00 0.0000000000000000e+00  0.0000000000000000e+00 0.0000000000000000e+00 0.0000000000000000e+00  0.0000000000000000e+00 0.0000000000000000e+00 0.0000000000000000e+00  0.0000000000000000e+00 0.0000000000000000e+00 0.0000000000000000e+00  0.0000000000000000e+00 0.0000000000000000e+00 0.0000000000000000e+00  0.0000000000000000e+00 0.0000000000000000e+00 0.0000000000000000e+00  0.0000000000000000e+00 0.0000000000000000e+00 0.0000000000000000e+00  0.0000000000000000e+00 0.0000000000000000e+00 0.0000000000000000e+00  0.0000000000000000e+00 0.0000000000000000e+00 0.0000000000000000e+00  0.0000000000000000e+00 0.0000000000000000e+00 0.0000000000000000e+00  0.0000000000000000e+00 0.0000000000000000e+00 0.0000000000000000e+00  0.0000000000000000e+00 0.0000000000000000e+00 0.0000000000000000e+00  0.0000000000000000e+00 0.0000000000000000e+00 0.0000000000000000e+00  0.0000000000000000e+00 0.0000000000000000e+00 0.0000000000000000e+00  0.0000000000000000e+00 0.0000000000000000e+00 0.0000000000000000e+00  0.0000000000000000e+00 0.0000000000000000e+00 0.0000000000000000e+00  0.0000000000000000e+00 0.0000000000000000e+00 0.0000000000000000e+00  -6.9653586609010870e-06 1.0488128656875225e-05 0.0000000000000000e+00  -1.5152435506566670e-05 1.9832525415695336e-05 0.0000000000000000e+00  -2.2567372093892284e-05 3.4944744112841829e-05 0.0000000000000000e+00  -3.0834375284930000e-05 5.6237322202885822e-05 0.0000000000000000e+00  -3.7761998024931435e-05 8.2937981034654279e-05 0.0000000000000000e+00  -4.5759171503915677e-05 1.1557345413734345e-04 0.0000000000000000e+00  -5.2145919134174129e-05 1.5264529685026800e-04 0.0000000000000000e+00  -5.8377533550965298e-05 1.9557476193557635e-04 0.0000000000000000e+00  -6.5647651088138851e-05 2.4296291341138420e-04 0.0000000000000000e+00  -7.1125107927457804e-05 2.9505072588369494e-04 0.0000000000000000e+00  -7.7933509217811270e-05 3.5174815651641466e-04 0.0000000000000000e+00  -8.2965625390425687e-05 4.1273551970236736e-04 0.0000000000000000e+00  -8.8990286451640769e-05 4.7785563940651684e-04 0.0000000000000000e+00  -9.3695556120172892e-05 5.4634501889879621e-04 0.0000000000000000e+00  -9.8220923797810985e-05 6.1898091527353902e-04 0.0000000000000000e+00  -1.0337187725232415e-04 6.9472823310223644e-04 0.0000000000000000e+00  -1.0718168326430786e-04 7.7367378012479550e-04 0.0000000000000000e+00  -1.1174961018712808e-04 8.5571060904718419e-04 0.0000000000000000e+00  -1.1504198168971255e-04 9.4047358858303782e-04 0.0000000000000000e+00  -1.1890478852843035e-04 1.0277788823368386e-03 0.0000000000000000e+00  -1.2185650865120854e-04 1.1174851277766244e-03 0.0000000000000000e+00  -1.2505724308392528e-04 1.2094770562631034e-03 0.0000000000000000e+00  -1.2750513271364970e-04 1.3031199987723547e-03 0.0000000000000000e+00  -1.2974828976143311e-04 1.3988564167691693e-03 0.0000000000000000e+00  -1.3215945554725844e-04 1.4959840121747659e-03 0.0000000000000000e+00  -1.3401953519963234e-04 1.5947004669820250e-03 0.0000000000000000e+00  -1.3578811825794756e-04 1.6947887465344144e-03 0.0000000000000000e+00  -1.3721944835068308e-04 1.7959565137990283e-03 0.0000000000000000e+00  -1.3853939931672169e-04 1.8982621575637175e-03 0.0000000000000000e+00  -1.3956687939902575e-04 2.0013886927329181e-03 0.0000000000000000e+00  -1.4047625086040198e-04 2.1053977499275777e-03 0.0000000000000000e+00  -1.4113084005976551e-04 2.2099962522831740e-03 0.0000000000000000e+00  -1.4166685631029923e-04 2.3152490324801060e-03 0.0000000000000000e+00  -1.4198420406132028e-04 2.4208930646609722e-03 0.0000000000000000e+00  -1.4217936462560294e-04 2.5270067245306491e-03 0.0000000000000000e+00  -1.4219504985760325e-04 2.6333591923864688e-03 0.0000000000000000e+00  -1.4210046261797465e-04 2.7400265024648813e-03 0.0000000000000000e+00  -1.4185730320286495e-04 2.8468200295508604e-03 0.0000000000000000e+00  -1.4151111897983719e-04 2.9538187572276794e-03 0.0000000000000000e+00  -1.4103914087794600e-04 3.0608647037574511e-03 0.0000000000000000e+00  -1.4046577541817072e-04 3.1680270188892330e-03 0.0000000000000000e+00  -1.3979977245836235e-04 3.2752042499744989e-03 0.0000000000000000e+00  -1.3902905811941400e-04 3.3824298737763370e-03 0.0000000000000000e+00  -1.3820817181699278e-04 3.4896634551759799e-03 0.0000000000000000e+00  -1.3728029567987648e-04 3.5968795662638894e-03 0.0000000000000000e+00  -1.3630804771312243e-04 3.7041585727976140e-03 0.0000000000000000e+00  -6.3111785864821568e-05 3.8105767479059802e-03 0.0000000000000000e+00  8.0650897477524557e-05 3.8083500884113801e-03 0.0000000000000000e+00  1.5122886055408242e-04 3.7000106752275983e-03 0.0000000000000000e+00  1.5021390438443467e-04 3.5925585113962843e-03 0.0000000000000000e+00  1.4924061795149529e-04 3.4850863546420259e-03 0.0000000000000000e+00  1.4833696818230071e-04 3.3776634938161073e-03 0.0000000000000000e+00  1.4747362445608535e-04 3.2702593867353340e-03 0.0000000000000000e+00  1.4667628996564594e-04 3.1629034764347648e-03 0.0000000000000000e+00  1.4588798292126457e-04 3.0556046084995580e-03 0.0000000000000000e+00  1.4516145323882778e-04 2.9483716980808726e-03 0.0000000000000000e+00  1.4440648018927444e-04 2.8412716925583109e-03 0.0000000000000000e+00  1.4370980844009601e-04 2.7343000197532063e-03 0.0000000000000000e+00  1.4292724691880094e-04 2.6275397129507270e-03 0.0000000000000000e+00  1.4221151233797486e-04 2.5210197485477457e-03 0.0000000000000000e+00  1.4133696272610905e-04 2.4148234200838470e-03 0.0000000000000000e+00  1.4054698988313980e-04 2.3090208599367175e-03 0.0000000000000000e+00  1.3951072923802874e-04 2.2036931082720602e-03 0.0000000000000000e+00  1.3859269201397208e-04 2.0989491913104468e-03 0.0000000000000000e+00  1.3733070590914926e-04 1.9948699293057333e-03 0.0000000000000000e+00  1.3623418596818662e-04 1.8916014336103125e-03 0.0000000000000000e+00  1.3468494068380750e-04 1.7892246173374015e-03 0.0000000000000000e+00  1.3336232355653970e-04 1.6879144334870587e-03 0.0000000000000000e+00  1.3145524483976551e-04 1.5877585368227808e-03 0.0000000000000000e+00  1.2984390070567179e-04 1.4889648549898890e-03 0.0000000000000000e+00  1.2755692734266731e-04 1.3916491174478080e-03 0.0000000000000000e+00  1.2551229348059867e-04 1.2958315674389434e-03 0.0000000000000000e+00  1.2330448178420639e-04 1.2021065719780941e-03 0.0000000000000000e+00  1.2042780581611851e-04 1.1099505143811026e-03 0.0000000000000000e+00  1.1766937989480287e-04 1.0202203386250168e-03 0.0000000000000000e+00  1.1437662487641021e-04 9.3269645569133992e-04 0.0000000000000000e+00  1.1110053113821881e-04 8.4786976707061071e-04 0.0000000000000000e+00  1.0727968810250344e-04 7.6570728231421879e-04 0.0000000000000000e+00  1.0347679017630809e-04 6.8651493826791610e-04 0.0000000000000000e+00  9.8739824993548673e-05 6.1084571367693509e-04 0.0000000000000000e+00  9.4554704365107286e-05 5.3803717699252946e-04 0.0000000000000000e+00  9.0146524661862513e-05 4.6947943065167970e-04 0.0000000000000000e+00  8.4593581905461162e-05 4.0395979968396132e-04 0.0000000000000000e+00  7.9341405493357165e-05 3.4299362567623471e-04 0.0000000000000000e+00  7.3368427618650809e-05 2.8612948369089787e-04 0.0000000000000000e+00  6.7572896099238414e-05 2.3372131663482334e-04 0.0000000000000000e+00  6.0568065316750665e-05 1.8647610971796511e-04 0.0000000000000000e+00  5.4453887752427385e-05 1.4334142866462196e-04 0.0000000000000000e+00  4.8158185910559905e-05 1.0616420653871187e-04 0.0000000000000000e+00  4.0347441134789977e-05 7.3246184897048759e-05 0.0000000000000000e+00  3.3229703920344780e-05 4.6303845597191349e-05 0.0000000000000000e+00  2.4816446374628362e-05 2.5151909161921116e-05 0.0000000000000000e+00  1.7193620944690227e-05 1.0098577988916299e-05 0.0000000000000000e+00  8.1410014319610617e-06 1.3367521704847728e-06 0.0000000000000000e+00  1.6242666497095352e-06 6.1414898237626122e-06 0.0000000000000000e+00  5.3052634958416891e-06 3.6481679699928052e-03 0.0000000000000000e+00  2.2733239631974448e-06 3.4430202458930960e-03 0.0000000000000000e+00  1.1749080059236599e-06 3.1079834529862734e-03 0.0000000000000000e+00  1.2894245436111375e-06 3.6116121517522110e-05 0.0000000000000000e+00  1.6037838767912225e-06 2.8974576657900138e-03 0.0000000000000000e+00  1.7881470551135814e-06 8.7411804847152460e-05 0.0000000000000000e+00  6.3514974399132563e-07 2.6836182792899072e-03 0.0000000000000000e+00  1.9765814588706187e-06 2.1280771461595850e-04 0.0000000000000000e+00  9.4213722214169958e-07 3.1561469379361428e-04 0.0000000000000000e+00  -1.0662766359810670e-07 2.4706450895625185e-03 0.0000000000000000e+00  1.5798859835611557e-06 6.5329701862287533e-04 0.0000000000000000e+00  -9.8793538915509580e-07 2.0495661073081767e-03 0.0000000000000000e+00  1.8222301947473183e-06 4.3249204011626142e-04 0.0000000000000000e+00  -1.2227049337854335e-07 8.0851205187994039e-04 0.0000000000000000e+00  -1.1698977841683084e-06 1.8429893324729482e-03 0.0000000000000000e+00  -6.4067848894196317e-07 2.2590648066691315e-03 0.0000000000000000e+00  -4.6746856894856619e-07 9.7835551561727954e-04 0.0000000000000000e+00  -1.1968256218490699e-06 1.6403118023571037e-03 0.0000000000000000e+00  8.3699115120963660e-07 1.1505704911519477e-03 0.0000000000000000e+00  -2.7671905814343301e-06 1.4466919253512298e-03 0.0000000000000000e+00  -9.0974737020357796e-07 1.2908282601787782e-03 0.0000000000000000e+00  3.1224563672970444e-07 5.3429393404143082e-04 0.0000000000000000e+00  4.2544041600247022e-06 3.2820961157638035e-03 0.0000000000000000e+00  1.2575661999943160e-06 1.4227787510496433e-04 0.0000000000000000e+00  5.4204397033553100e-05 3.5440883811135022e-03 0.0000000000000000e+00  8.5804032087996049e-06 1.6693493210423194e-05 0.0000000000000000e+00  4.2679881106366202e-05 2.7896554735708464e-03 0.0000000000000000e+00  4.3879249924065090e-05 3.0038115606863536e-03 0.0000000000000000e+00  -1.1194125351774982e-05 6.2357659422745466e-05 0.0000000000000000e+00  -1.9208331057069599e-05 2.6266849649979232e-04 0.0000000000000000e+00  3.9847052152412278e-05 2.1531395785444767e-03 0.0000000000000000e+00  4.1638323240661976e-05 2.5761654783086232e-03 0.0000000000000000e+00  -3.0605519369357155e-05 7.2922504793618520e-04 0.0000000000000000e+00  3.8997934493374602e-05 1.9449763626965581e-03 0.0000000000000000e+00  -2.2683272566386155e-05 3.7627652973249614e-04 0.0000000000000000e+00  -3.3141362871672868e-05 8.9348659464603443e-04 0.0000000000000000e+00  3.8120070747895614e-05 1.7402101707916296e-03 0.0000000000000000e+00  4.0710884987770432e-05 2.3637902335117309e-03 0.0000000000000000e+00  -4.3011798181786188e-05 1.0676585403731037e-03 0.0000000000000000e+00  3.7191272325640435e-05 1.5398761112454782e-03 0.0000000000000000e+00  1.2886408290529032e-08 2.3022756362395347e-06 0.0000000000000000e+00  2.5101123765305424e-06 1.0280129116086609e-07 0.0000000000000000e+00  -2.6921722439427520e-05 3.7330940822235567e-03 0.0000000000000000e+00  -6.6647126439090350e-06 2.0619589413937854e-05 0.0000000000000000e+00  4.5014561742331863e-05 1.3664306611177849e-03 0.0000000000000000e+00  3.5457277024