<?xml version="1.0"?>
<VTKFile type="UnstructuredGrid"  version="0.1"  >
<UnstructuredGrid>
<Piece  NumberOfPoints="1419" NumberOfCells="2698">
<Points>
<DataArray  type="Float64"  NumberOfComponents="3"  format="ascii">0 0 0  0 0.41 0  2.5 0 0  2.5 0.41 0  0.6 0.19 0  0.6 0.21 0  0.25 0.2 0  0.15 0.2 0  0.2489897948556636 0.21 0  0.2489897948556636 0.19 0  0.6 0.2 0  0 0.3807142857143437 0  0 0.3514285714286952 0  0 0.3221428571430699 0  0 0.29285714285744 0  0 0.2635714285718054 0  0 0.2342857142861561 0  0 0.2050000000005308 0  0 0.175714285714732 0  0 0.1464285714289574 0  0 0.1171428571431897 0  0 0.08785714285737878 0  0 0.05857142857161107 0  0 0.02928571428580012 0  0.03015443760436003 0 0  0.06140001986583606 0 0  0.09377624077125973 0 0  0.1273239957535082 0 0  0.1620856860351972 0 0  0.1981052433264291 0 0  0.235428184091502 0 0  0.2741016576309132 0 0  0.3141745521465447 0 0  0.3556974926295285 0 0  0.3987229542472677 0 0  0.4433053055141081 0 0  0.4895008759286886 0 0  0.5373680609405097 0 0  0.5869673343216626 0 0  0.6383613676634521 0 0  0.6916151138468254 0 0  0.7467958595648856 0 0  0.8039733463919316 0 0  0.8632198139502143 0 0  0.9246101326867038 0 0  0.9882218810934433 0 0  1.054135445558498 0 0  1.122434100542598 0 0  1.193204177141305 0 0  1.266535089879536 0 0  1.342519516046404 0 0  1.421253448503939 0 0  1.502836389106271 0 0  1.587371439758838 0 0  1.674965418777374 0 0  1.765729001825544 0 0  1.859776908880082 0 0  1.957227977487062 0 0  2.058205329869943 0 0  2.162836591189951 0 0  2.271253957290865 0 0  2.383594446803425 0 0  2.5 0.1024999999997612 0  2.5 0.2049999999994743 0  2.5 0.3074999999997183 0  2.383594446803656 0.41 0  2.271253957291315 0.41 0  2.162836591190598 0.41 0  2.058205329870775 0.41 0  1.957227977488067 0.41 0  1.859776908881246 0.41 0  1.765729001826854 0.41 0  1.674965418778818 0.41 0  1.58737143976041 0.41 0  1.502836389107956 0.41 0  1.421253448505726 0.41 0  1.342519516048286 0.41 0  1.266535089881505 0.41 0  1.193204177143353 0.41 0  1.122434100544716 0.41 0  1.05413544556068 0.41 0  0.9882218810956305 0.41 0  0.9246101326886647 0.41 0  0.8632198139519631 0.41 0  0.8039733463934788 0.41 0  0.7467958595662458 0.41 0  0.6916151138480078 0.41 0  0.6383613676644679 0.41 0  0.5869673343225223 0.41 0  0.5373680609412221 0.41 0  0.4895008759292634 0.41 0  0.4433053055145528 0.41 0  0.3987229542475914 0.41 0  0.3556974926297398 0.41 0  0.3141745521466497 0.41 0  0.2741016576310038 0.41 0  0.2354281840915826 0.41 0  0.1981052433265003 0.41 0  0.1620856860352591 0.41 0  0.1273239957535623 0.41 0  0.09377624077128965 0.41 0  0.06140001986584975 0.41 0  0.03015443760436654 0.41 0  0.2497468076502589 0.2050254481002335 0  0.2497468076502614 0.1949745518997913 0  0.2469965252529372 0.1829317073451959 0  0.2439893735792749 0.1762316384219906 0  0.2400332147834255 0.1700443375285386 0  0.2352133972704371 0.1645032867342007 0  0.2296339016332438 0.1597280261969788 0  0.2234150974217223 0.1558215752574715 0  0.2166911463437691 0.1528682099456123 0  0.2096071079204251 0.1509316448471593 0  0.2023158100364996 0.1500536585536553 0  0.194974551899914 0.1502531923497262 0  0.1877417105387872 0.1515259415822739 0  0.1807733240461124 0.153844448527136 0  0.1742197252835808 0.15715869474974 0  0.1682222986673531 0.1613971801805478 0  0.162910430003803 0.1664684656256651 0  0.1583987151779087 0.1722631454351573 0  0.1547844879126891 0.178656207771761 0  0.1521457199348551 0.1855097315605723 0  0.1505393388476355 0.1926758619366523 0  0.1505393388476328 0.2073241380633295 0  0.1521457199348437 0.2144902684393899 0  0.1547844879126531 0.221343792228163 0  0.1583987151778488 0.2277368545647528 0  0.1629104300036858 0.2335315343742052 0  0.1682222986671726 0.2386028198193036 0  0.1742197252833576 0.2428413052501257 0  0.1807733240458683 0.2461555514727623 0  0.1877417105384929 0.2484740584176516 0  0.1949745518995776 0.2497468076502398 0  0.202315810036185 0.2499463414463592 0  0.2096071079201568 0.2490683551528932 0  0.2166911463435495 0.2471317900544655 0  0.2234150974215506 0.2441784247426195 0  0.2296339016331197 0.2402719738031125 0  0.2352133972703547 0.2354967132658811 0  0.2400332147833751 0.2299556624715287 0  0.2439893735792577 0.2237683615780412 0  0.246996525252926 0.2170682926548348 0  0.25645809709277 0.21 0  0.2639263993298655 0.21 0  0.271394701566961 0.21 0  0.2788630038040554 0.21 0  0.2863313060411479 0.21 0  0.2937996082782405 0.21 0  0.301267910515333 0.21 0  0.3087362127524279 0.21 0  0.3162045149895234 0.21 0  0.3236728172265972 0.21 0  0.3311411194636928 0.21 0  0.3386094217007701 0.21 0  0.3460777239378666 0.21 0  0.3535460261749672 0.21 0  0.3610143284120516 0.21 0  0.3684826306491596 0.21 0  0.3759509328862226 0.21 0  0.383419235123329 0.21 0  0.3908875373604028 0.21 0  0.3983558395975142 0.21 0  0.4058241418345938 0.21 0  0.4132924440716992 0.21 0  0.4207607463087888 0.21 0  0.4282290485459029 0.21 0  0.4356973507830418 0.21 0  0.4431656530201649 0.21 0  0.4506339552573136 0.21 0  0.4581022574944306 0.21 0  0.4655705597315852 0.21 0  0.4730388619686996 0.21 0  0.480507164205851 0.21 0  0.4879754664429498 0.21 0  0.4954437686800938 0.21 0  0.502912070917267 0.21 0  0.5103803731544119 0.21 0  0.5178486753915261 0.21 0  0.5253169776286404 0.21 0  0.5327852798657868 0.21 0  0.5402535821029386 0.21 0  0.54772188434007 0.21 0  0.5551901865771842 0.21 0  0.5626584888143201 0.21 0  0.5701267910514778 0.21 0  0.5775950932886138 0.21 0  0.5850633955257281 0.21 0  0.5925316977628483 0.21 0  0.6 0.2050000000000054 0  0.6 0.1950000000000217 0  0.5925316977628897 0.19 0  0.5850633955257988 0.19 0  0.5775950932887378 0.19 0  0.5701267910515998 0.19 0  0.5626584888145268 0.19 0  0.5551901865773963 0.19 0  0.547721884340339 0.19 0  0.5402535821032429 0.19 0  0.5327852798661811 0.19 0  0.5253169776290537 0.19 0  0.5178486753919799 0.19 0  0.5103803731549078 0.19 0  0.502912070917822 0.19 0  0.4954437686807294 0.19 0  0.4879754664436223 0.19 0  0.4805071642065402 0.19 0  0.4730388619694271 0.19 0  0.4655705597323621 0.19 0  0.4581022574952563 0.19 0  0.4506339552581777 0.19 0  0.4431656530210671 0.19 0  0.4356973507839815 0.19 0  0.4282290485468779 0.19 0  0.4207607463097617 0.19 0  0.4132924440726327 0.19 0  0.4058241418354857 0.19 0  0.3983558395983636 0.19 0  0.3908875373612097 0.19 0  0.3834192351240934 0.19 0  0.3759509328869369 0.19 0  0.3684826306498175 0.19 0  0.361014328412667 0.19 0  0.3535460261755617 0.19 0  0.3460777239384295 0.19 0  0.3386094217012945 0.19 0  0.3311411194641595 0.19 0  0.3236728172270245 0.19 0  0.3162045149898895 0.19 0  0.3087362127527544 0.19 0  0.3012679105156187 0.19 0  0.2937996082784807 0.19 0  0.2863313060413428 0.19 0  0.2788630038042048 0.19 0  0.2713947015670686 0.19 0  0.2639263993299336 0.19 0  0.2564580970927985 0.19 0  0.2607803159922026 0.2000727136295815 0  0.5887803774232762 0.2001272386983733 0  0.5745072403740523 0.2002044435018727 0  0.5511891430099709 0.2001122610077113 0  0.2751288526855082 0.20000000000002 0  0.5365194309847112 0.1999999999999436 0  0.2894621222999649 0.1998691686390484 0  0.5215828265105155 0.1999999999999228 0  0.3127789816668748 0.1998657885438805 0  0.3274069683451451 0.2000000000000796 0  0.5066462220363641 0.199999999999908 0  0.3650630746574081 0.199866017807523 0  0.476773013087985 0.1999999999998713 0  0.3417402379596385 0.1998691686391011 0  0.3796850840047755 0.200000000000134 0  0.4618364086138087 0.1999999999998546 0  0.4917096175621762 0.1999999999998808 0  0.3946216884789568 0.2000000000001512 0  0.446899804139621 0.1999999999998389 0  0.4089549580935208 0.1998691686391595 0  0.4322718174608562 0.200127451265745 0  0.4201487168029707 0.1999966199048527 0  0.3528922713220932 0.2000185703532356 0  0.5633122436674589 0.1999814296467508 0  0.3006558810093873 0.1999966199048318 0  0.5815926498168407 0.1966545283159175 0  0.2677053789419034 0.1964246479135325 0  0.5290511287476175 0.1970915826863981 0  0.5439877332217911 0.197091582686394 0  0.2825131256993216 0.2035478995978015 0  0.3199386661080599 0.202908417313604 0  0.4842413153250809 0.1970915826863873 0  0.5141145242734466 0.1970915826863843 0  0.3722167817676917 0.2029084173136195 0  0.4693047108508938 0.1970915826863783 0  0.3348752705822316 0.202908417313609 0  0.3871533862418661 0.2029084173136212 0  0.4543681063767183 0.1970915826863795 0  0.4991779197992749 0.1970915826863902 0  0.4020059614928624 0.203547899597858 0  0.4394315019025246 0.1970915826863714 0  0.2550657455369551 0.2034088125358657 0  0.2548908499171161 0.1966940311614271 0  0.5946539510196798 0.2024302972968126 0  0.267698176732111 0.2039977513680092 0  0.4261685417851465 0.196409292431739 0  0.3590076176283495 0.196411355804271 0  0.5571672426447437 0.2036011176410121 0  0.3066757059912147 0.1964092924317024 0  0.594380730180568 0.1966558399668133 0  0.4842413153245942 0.2040749161535287 0  0.4693047108503577 0.2040749161535231 0  0.3871533862424271 0.1959250838464788 0  0.372246743208829 0.1959123236376545 0  0.5141145242731028 0.2040749161535395 0  0.4543681063761134 0.2040749161535186 0  0.4019979587101454 0.1959834479682427 0  0.4394608940728603 0.2040870543693135 0  0.5439623148931173 0.2040856076781014 0  0.5290511287473298 0.2040749161535501 0  0.4991779197988497 0.2040749161535382 0  0.3347912413592433 0.1959225448935183 0  0.3199680582793816 0.1959123018030061 0  0.2825051229162361 0.1959834479681729 0  0.3590471196690275 0.2036304442587945 0  0.5571594006495384 0.1963685282145804 0  0.3067669986803285 0.203627750582736 0  0.4262598344738712 0.2036568242185335 0  0.5814408164431408 0.2041285596160068 0  0.5688286748170428 0.1961819304477386 0  0.4145905603063645 0.2038180695522843 0  0.3473758401724931 0.2038180695522752 0  0.2950977245128307 0.2038180695522663 0  0.5688286748170693 0.203818069552238 0  0.2950977245127906 0.1961819304477774 0  0.3473758401723931 0.1961819304478349 0  0.4145905603061963 0.1961819304479011 0  0.2601812407614425 0.2056861609747042
[...]
<PointData  Vectors="f_40-0"> 
<DataArray  type="Float64"  Name="f_40-0"  NumberOfComponents="3" format="ascii">0.0000000000000000e+00 0.0000000000000000e+00 0.0000000000000000e+00  0.0000000000000000e+00 0.0000000000000000e+00 0.0000000000000000e+00  0.0000000000000000e+00 0.0000000000000000e+00 0.0000000000000000e+00  0.0000000000000000e+00 0.0000000000000000e+00 0.0000000000000000e+00  1.7107325290075754e-04 5.5925816875027918e-03 0.0000000000000000e+00  -2.3216650011120859e-04 5.5968593235857095e-03 0.0000000000000000e+00  0.0000000000000000e+00 0.0000000000000000e+00 0.0000000000000000e+00  0.0000000000000000e+00 0.0000000000000000e+00 0.0000000000000000e+00  0.0000000000000000e+00 0.0000000000000000e+00 0.0000000000000000e+00  0.0000000000000000e+00 0.0000000000000000e+00 0.0000000000000000e+00  -3.0006456927440224e-05 5.5946850419705445e-03 0.0000000000000000e+00  6.2887993144961696e-01 0.0000000000000000e+00 0.0000000000000000e+00  1.1610091042147546e+00 0.0000000000000000e+00 0.0000000000000000e+00  1.5963875182952876e+00 0.0000000000000000e+00 0.0000000000000000e+00  1.9350151736917207e+00 0.0000000000000000e+00 0.0000000000000000e+00  2.1768920704040093e+00 0.0000000000000000e+00 0.0000000000000000e+00  2.3220182084321395e+00 0.0000000000000000e+00 0.0000000000000000e+00  2.3703935877759656e+00 0.0000000000000000e+00 0.0000000000000000e+00  2.3220182084350740e+00 0.0000000000000000e+00 0.0000000000000000e+00  2.1768920704090493e+00 0.0000000000000000e+00 0.0000000000000000e+00  1.9350151736979624e+00 0.0000000000000000e+00 0.0000000000000000e+00  1.5963875183012171e+00 0.0000000000000000e+00 0.0000000000000000e+00  1.1610091042198141e+00 0.0000000000000000e+00 0.0000000000000000e+00  6.2887993145246779e-01 0.0000000000000000e+00 0.0000000000000000e+00  0.0000000000000000e+00 0.0000000000000000e+00 0.0000000000000000e+00  0.0000000000000000e+00 0.0000000000000000e+00 0.0000000000000000e+00  0.0000000000000000e+00 0.0000000000000000e+00 0.0000000000000000e+00  0.0000000000000000e+00 0.0000000000000000e+00 0.0000000000000000e+00  0.0000000000000000e+00 0.0000000000000000e+00 0.0000000000000000e+00  0.0000000000000000e+00 0.0000000000000000e+00 0.0000000000000000e+00  0.0000000000000000e+00 0.0000000000000000e+00 0.0000000000000000e+00  0.0000000000000000e+00 0.0000000000000000e+00 0.0000000000000000e+00  0.0000000000000000e+00 0.0000000000000000e+00 0.0000000000000000e+00  0.0000000000000000e+00 0.0000000000000000e+00 0.0000000000000000e+00  0.0000000000000000e+00 0.0000000000000000e+00 0.0000000000000000e+00  0.0000000000000000e+00 0.0000000000000000e+00 0.0000000000000000e+00  0.0000000000000000e+00 0.0000000000000000e+00 0.0000000000000000e+00  0.0000000000000000e+00 0.0000000000000000e+00 0.0000000000000000e+00  0.0000000000000000e+00 0.0000000000000000e+00 0.0000000000000000e+00  0.0000000000000000e+00 0.0000000000000000e+00 0.0000000000000000e+00  0.0000000000000000e+00 0.0000000000000000e+00 0.0000000000000000e+00  0.0000000000000000e+00 0.0000000000000000e+00 0.0000000000000000e+00  0.0000000000000000e+00 0.0000000000000000e+00 0.0000000000000000e+00  0.0000000000000000e+00 0.0000000000000000e+00 0.0000000000000000e+00  0.0000000000000000e+00 0.0000000000000000e+00 0.0000000000000000e+00  0.0000000000000000e+00 0.0000000000000000e+00 0.0000000000000000e+00  0.0000000000000000e+00 0.0000000000000000e+00 0.0000000000000000e+00  0.0000000000000000e+00 0.0000000000000000e+00 0.0000000000000000e+00  0.0000000000000000e+00 0.0000000000000000e+00 0.0000000000000000e+00  0.0000000000000000e+00 0.0000000000000000e+00 0.0000000000000000e+00  0.0000000000000000e+00 0.0000000000000000e+00 0.0000000000000000e+00  0.0000000000000000e+00 0.0000000000000000e+00 0.0000000000000000e+00  0.0000000000000000e+00 0.0000000000000000e+00 0.0000000000000000e+00  0.0000000000000000e+00 0.0000000000000000e+00 0.0000000000000000e+00  0.0000000000000000e+00 0.0000000000000000e+00 0.0000000000000000e+00  0.0000000000000000e+00 0.0000000000000000e+00 0.0000000000000000e+00  0.0000000000000000e+00 0.0000000000000000e+00 0.0000000000000000e+00  0.0000000000000000e+00 0.0000000000000000e+00 0.0000000000000000e+00  0.0000000000000000e+00 0.0000000000000000e+00 0.0000000000000000e+00  0.0000000000000000e+00 0.0000000000000000e+00 0.0000000000000000e+00  0.0000000000000000e+00 0.0000000000000000e+00 0.0000000000000000e+00  0.0000000000000000e+00 0.0000000000000000e+00 0.0000000000000000e+00  2.1443106969847978e+00 -2.6108180992392659e-02 0.0000000000000000e+00  1.8301615815454113e+00 1.3090237347349820e-02 0.0000000000000000e+00  2.1158203972233065e+00 7.3236385016234848e-02 0.0000000000000000e+00  0.0000000000000000e+00 0.0000000000000000e+00 0.0000000000000000e+00  0.0000000000000000e+00 0.0000000000000000e+00 0.0000000000000000e+00  0.0000000000000000e+00 0.0000000000000000e+00 0.0000000000000000e+00  0.0000000000000000e+00 0.0000000000000000e+00 0.0000000000000000e+00  0.0000000000000000e+00 0.0000000000000000e+00 0.0000000000000000e+00  0.0000000000000000e+00 0.0000000000000000e+00 0.0000000000000000e+00  0.0000000000000000e+00 0.0000000000000000e+00 0.0000000000000000e+00  0.0000000000000000e+00 0.0000000000000000e+00 0.0000000000000000e+00  0.0000000000000000e+00 0.0000000000000000e+00 0.0000000000000000e+00  0.0000000000000000e+00 0.0000000000000000e+00 0.0000000000000000e+00  0.0000000000000000e+00 0.0000000000000000e+00 0.0000000000000000e+00  0.0000000000000000e+00 0.0000000000000000e+00 0.0000000000000000e+00  0.0000000000000000e+00 0.0000000000000000e+00 0.0000000000000000e+00  0.0000000000000000e+00 0.0000000000000000e+00 0.0000000000000000e+00  0.0000000000000000e+00 0.0000000000000000e+00 0.0000000000000000e+00  0.0000000000000000e+00 0.0000000000000000e+00 0.0000000000000000e+00  0.0000000000000000e+00 0.0000000000000000e+00 0.0000000000000000e+00  0.0000000000000000e+00 0.0000000000000000e+00 0.0000000000000000e+00  0.0000000000000000e+00 0.0000000000000000e+00 0.0000000000000000e+00  0.0000000000000000e+00 0.0000000000000000e+00 0.0000000000000000e+00  0.0000000000000000e+00 0.0000000000000000e+00 0.0000000000000000e+00  0.0000000000000000e+00 0.0000000000000000e+00 0.0000000000000000e+00  0.0000000000000000e+00 0.0000000000000000e+00 0.0000000000000000e+00  0.0000000000000000e+00 0.0000000000000000e+00 0.0000000000000000e+00  0.0000000000000000e+00 0.0000000000000000e+00 0.0000000000000000e+00  0.0000000000000000e+00 0.0000000000000000e+00 0.0000000000000000e+00  0.0000000000000000e+00 0.0000000000000000e+00 0.0000000000000000e+00  0.0000000000000000e+00 0.0000000000000000e+00 0.0000000000000000e+00  0.0000000000000000e+00 0.0000000000000000e+00 0.0000000000000000e+00  0.0000000000000000e+00 0.0000000000000000e+00 0.0000000000000000e+00  0.0000000000000000e+00 0.0000000000000000e+00 0.0000000000000000e+00  0.0000000000000000e+00 0.0000000000000000e+00 0.0000000000000000e+00  0.0000000000000000e+00 0.0000000000000000e+00 0.0000000000000000e+00  0.0000000000000000e+00 0.0000000000000000e+00 0.0000000000000000e+00  0.0000000000000000e+00 0.0000000000000000e+00 0.0000000000000000e+00  0.0000000000000000e+00 0.0000000000000000e+00 0.0000000000000000e+00  0.0000000000000000e+00 0.0000000000000000e+00 0.0000000000000000e+00  0.0000000000000000e+00 0.0000000000000000e+00 0.0000000000000000e+00  0.0000000000000000e+00 0.0000000000000000e+00 0.0000000000000000e+00  0.0000000000000000e+00 0.0000000000000000e+00 0.0000000000000000e+00  0.0000000000000000e+00 0.0000000000000000e+00 0.0000000000000000e+00  0.0000000000000000e+00 0.0000000000000000e+00 0.0000000000000000e+00  0.0000000000000000e+00 0.0000000000000000e+00 0.0000000000000000e+00  0.0000000000000000e+00 0.0000000000000000e+00 0.0000000000000000e+00  0.0000000000000000e+00 0.0000000000000000e+00 0.0000000000000000e+00  0.0000000000000000e+00 0.0000000000000000e+00 0.0000000000000000e+00  0.0000000000000000e+00 0.0000000000000000e+00 0.0000000000000000e+00  0.0000000000000000e+00 0.0000000000000000e+00 0.0000000000000000e+00  0.0000000000000000e+00 0.0000000000000000e+00 0.0000000000000000e+00  0.0000000000000000e+00 0.0000000000000000e+00 0.0000000000000000e+00  0.0000000000000000e+00 0.0000000000000000e+00 0.0000000000000000e+00  0.0000000000000000e+00 0.0000000000000000e+00 0.0000000000000000e+00  0.0000000000000000e+00 0.0000000000000000e+00 0.0000000000000000e+00  0.0000000000000000e+00 0.0000000000000000e+00 0.0000000000000000e+00  0.0000000000000000e+00 0.0000000000000000e+00 0.0000000000000000e+00  0.0000000000000000e+00 0.0000000000000000e+00 0.0000000000000000e+00  0.0000000000000000e+00 0.0000000000000000e+00 0.0000000000000000e+00  0.0000000000000000e+00 0.0000000000000000e+00 0.0000000000000000e+00  0.0000000000000000e+00 0.0000000000000000e+00 0.0000000000000000e+00  0.0000000000000000e+00 0.0000000000000000e+00 0.0000000000000000e+00  0.0000000000000000e+00 0.0000000000000000e+00 0.0000000000000000e+00  0.0000000000000000e+00 0.0000000000000000e+00 0.0000000000000000e+00  0.0000000000000000e+00 0.0000000000000000e+00 0.0000000000000000e+00  0.0000000000000000e+00 0.0000000000000000e+00 0.0000000000000000e+00  0.0000000000000000e+00 0.0000000000000000e+00 0.0000000000000000e+00  0.0000000000000000e+00 0.0000000000000000e+00 0.0000000000000000e+00  0.0000000000000000e+00 0.0000000000000000e+00 0.0000000000000000e+00  0.0000000000000000e+00 0.0000000000000000e+00 0.0000000000000000e+00  0.0000000000000000e+00 0.0000000000000000e+00 0.0000000000000000e+00  0.0000000000000000e+00 0.0000000000000000e+00 0.0000000000000000e+00  0.0000000000000000e+00 0.0000000000000000e+00 0.0000000000000000e+00  0.0000000000000000e+00 0.0000000000000000e+00 0.0000000000000000e+00  0.0000000000000000e+00 0.0000000000000000e+00 0.0000000000000000e+00  0.0000000000000000e+00 0.0000000000000000e+00 0.0000000000000000e+00  0.0000000000000000e+00 0.0000000000000000e+00 0.0000000000000000e+00  0.0000000000000000e+00 0.0000000000000000e+00 0.0000000000000000e+00  0.0000000000000000e+00 0.0000000000000000e+00 0.0000000000000000e+00  0.0000000000000000e+00 0.0000000000000000e+00 0.0000000000000000e+00  -1.3844832316542275e-05 1.5483466358543567e-05 0.0000000000000000e+00  -2.9498679478800287e-05 3.2073952945123103e-05 0.0000000000000000e+00  -4.3382836115009476e-05 5.8599697374694334e-05 0.0000000000000000e+00  -5.8319771336578568e-05 9.5673002482662015e-05 0.0000000000000000e+00  -7.0765420136867466e-05 1.4151076281070633e-04 0.0000000000000000e+00  -8.4647431364718919e-05 1.9690419315840867e-04 0.0000000000000000e+00  -9.5774913276436865e-05 2.5924839716979641e-04 0.0000000000000000e+00  -1.0643832671463935e-04 3.3063166859530630e-04 0.0000000000000000e+00  -1.1845534163237116e-04 4.0875637957163451e-04 0.0000000000000000e+00  -1.2758179548743304e-04 4.9378837417268610e-04 0.0000000000000000e+00  -1.3842431410628824e-04 5.8552717174002223e-04 0.0000000000000000e+00  -1.4654339689390409e-04 6.8326694836508533e-04 0.0000000000000000e+00  -1.5583592763942963e-04 7.8672900766137935e-04 0.0000000000000000e+00  -1.6317430724239077e-04 8.9470813791162236e-04 0.0000000000000000e+00  -1.7011245952018694e-04 1.0081468379806707e-03 0.0000000000000000e+00  -1.7770412671176407e-04 1.1255838208116349e-03 0.0000000000000000e+00  -1.8343916781790170e-04 1.2469991823753691e-03 0.0000000000000000e+00  -1.8996306275608231e-04 1.3722223249839703e-03 0.0000000000000000e+00  -1.9481696004967488e-04 1.5006416968465191e-03 0.0000000000000000e+00  -2.0021307899096186e-04 1.6320417153173059e-03 0.0000000000000000e+00  -2.0444682178637471e-04 1.7661081858222477e-03 0.0000000000000000e+00  -2.0883102287641231e-04 1.9026901442796072e-03 0.0000000000000000e+00  -2.1231595605554561e-04 2.0410032245006204e-03 0.0000000000000000e+00  -2.1548977052195331e-04 2.1814710744866165e-03 0.0000000000000000e+00  -2.1875156436362302e-04 2.3233286694065340e-03 0.0000000000000000e+00  -2.2136861526456908e-04 2.4666970275379349e-03 0.0000000000000000e+00  -2.2381744509410582e-04 2.6113636442880849e-03 0.0000000000000000e+00  -2.2588095758617154e-04 2.7569573276086013e-03 0.0000000000000000e+00  -2.2777314274098287e-04 2.9035615725589484e-03 0.0000000000000000e+00  -2.2934820835273205e-04 3.0508104049706483e-03 0.0000000000000000e+00  -2.3076201480576612e-04 3.1987915083599339e-03 0.0000000000000000e+00  -2.3191279922108577e-04 3.3471913517545632e-03 0.0000000000000000e+00  -2.3291756440516396e-04 3.4961035616166451e-03 0.0000000000000000e+00  -2.3370432274766317e-04 3.6452603096508223e-03 0.0000000000000000e+00  -2.3434891316149805e-04 3.7947743276700099e-03 0.0000000000000000e+00  -2.3481872375040829e-04 3.9444168839084665e-03 0.0000000000000000e+00  -2.3516536762526846e-04 4.0942961629767353e-03 0.0000000000000000e+00  -2.3536464631651667e-04 4.2442282185025763e-03 0.0000000000000000e+00  -2.3544760243570298e-04 4.3943249717788742e-03 0.0000000000000000e+00  -2.3539725881129280e-04 4.5444292823097867e-03 0.0000000000000000e+00  -2.3522729329755312e-04 4.6946385073224628e-03 0.0000000000000000e+00  -2.3495560113703573e-04 4.8448567832191690e-03 0.0000000000000000e+00  -2.3455171833736344e-04 4.9951323872655402e-03 0.0000000000000000e+00  -2.3408700891841685e-04 5.1454297515680994e-03 0.0000000000000000e+00  -2.3347969231248130e-04 5.2957190689247582e-03 0.0000000000000000e+00  -2.3280173495813210e-04 5.4461088097295506e-03 0.0000000000000000e+00  -1.3087593802868435e-04 5.5957667822253230e-03 0.0000000000000000e+00  7.0694403486098168e-05 5.5936203054634528e-03 0.0000000000000000e+00  1.7034951651137618e-04 5.4421658245745498e-03 0.0000000000000000e+00  1.6956539842838644e-04 5.2915200048389071e-03 0.0000000000000000e+00  1.6885520839398117e-04 5.1408614518265528e-03 0.0000000000000000e+00  1.6825497907162803e-04 4.9902881573247642e-03 0.0000000000000000e+00  1.6772959407188902e-04 4.8397521192987403e-03 0.0000000000000000e+00  1.6732169027391033e-04 4.6892762924419431e-03 0.0000000000000000e+00  1.6696220566409287e-04 4.5388637596820011e-03 0.0000000000000000e+00  1.6671437563093057e-04 4.3884907060344758e-03 0.0000000000000000e+00  1.6649991819876921e-04 4.2382456658052181e-03 0.0000000000000000e+00  1.6637883344488999e-04 4.0880606737701778e-03 0.0000000000000000e+00  1.6624687634317207e-04 3.9380489071525965e-03 0.0000000000000000e+00  1.6620623283271818e-04 3.7881732169437812e-03 0.0000000000000000e+00  1.6609299931056554e-04 3.6385481492063293e-03 0.0000000000000000e+00  1.6607147283312520e-04 3.4891785765365003e-03 0.0000000000000000e+00  1.6589252263895555e-04 3.3401724307238409e-03 0.0000000000000000e+00  1.6582271030585196e-04 3.1915853853620984e-03 0.0000000000000000e+00  1.6549187246621357e-04 3.0435260802765510e-03 0.0000000000000000e+00  1.6529958330774766e-04 2.8961061475074744e-03 0.0000000000000000e+00  1.6471687311257502e-04 2.7494368371383184e-03 0.0000000000000000e+00  1.6431939526082861e-04 2.6036854785448159e-03 0.0000000000000000e+00  1.6336531017848658e-04 2.4589709690693252e-03 0.0000000000000000e+00  1.6265999344618591e-04 2.3155240843992803e-03 0.0000000000000000e+00  1.6125162914590706e-04 2.1735041982335153e-03 0.0000000000000000e+00  1.6004011626616086e-04 2.0329732281424598e-03 0.0000000000000000e+00  1.5861110150869074e-04 1.8946026141924950e-03 0.0000000000000000e+00  1.5641158574183618e-04 1.7578871149842882e-03 0.0000000000000000e+00  1.5426075615300735e-04 1.6238399060964255e-03 0.0000000000000000e+00  1.5142663818000737e-04 1.4922448704841951e-03 0.0000000000000000e+00  1.4852479768194516e-04 1.3638121528860609e-03 0.0000000000000000e+00  1.4487473533452290e-04 1.2385019382128006e-03 0.0000000000000000e+00  1.4114661543394627e-04 1.1168524960612348e-03 0.0000000000000000e+00  1.3610205200082433e-04 9.9960248139756573e-04 0.0000000000000000e+00  1.3166525446199807e-04 8.8602758598256993e-04 0.0000000000000000e+00  1.2681295716675633e-04 7.7804946356992437e-04 0.0000000000000000e+00  1.2029424956409431e-04 6.7413949048032110e-04 0.0000000000000000e+00  1.1401417920306585e-04 5.7653137910076795e-04 0.0000000000000000e+00  1.0655108429204135e-04 4.8464425526209933e-04 0.0000000000000000e+00  9.9176217585325598e-05 3.9924092587165233e-04 0.0000000000000000e+00  8.9788992870479560e-05 3.2142920507908059e-04 0.0000000000000000e+00  8.1586411693623285e-05 2.4982716694006907e-04 0.0000000000000000e+00  7.2917979582697476e-05 1.8740411370487143e-04 0.0000000000000000e+00  6.1679599003081474e-05 1.3164670993610618e-04 0.0000000000000000e+00  5.1291965200302720e-05 8.5520848526615787e-05 0.0000000000000000e+00  3.8560503396824364e-05 4.8800825766522598e-05 0.0000000000000000e+00  2.6977978813358974e-05 2.2259981372364403e-05 0.0000000000000000e+00  1.2810653436363950e-05 6.1909138513683186e-06 0.0000000000000000e+00  -2.0153595668910004e-07 1.1600663496853832e-05 0.0000000000000000e+00  -3.3943026963629487e-05 5.3685283336517998e-03 0.0000000000000000e+00  -3.6890276483816887e-05 5.0809534991470206e-03 0.0000000000000000e+00  -3.6291813822717904e-05 4.6114061433986048e-03 0.0000000000000000e+00  -2.7802252026365459e-06 6.4596210012677770e-05 0.0000000000000000e+00  -3.4322804525864874e-05 4.3162394869230561e-03 0.0000000000000000e+00  -4.2143658426426272e-06 1.5285339125384025e-04 0.0000000000000000e+00  -3.4268306452637156e-05 4.0160736365490194e-03 0.0000000000000000e+00  -7.5151896961542942e-06 3.6253140302558743e-04 0.0000000000000000e+00  -1.1349622340719265e-05 5.3029444214686985e-04 0.0000000000000000e+00  -3.3870818521097742e-05 3.7164813477031287e-03 0.0000000000000000e+00  -1.5519586910302227e-05 1.0641091017675644e-03 0.0000000000000000e+00  -3.2140916902606203e-05 3.1207053445881884e-03 0.0000000000000000e+00  -1.1971797936160479e-05 7.1774446809497227e-04 0.0000000000000000e+00  -1.9998752194456123e-05 1.3026777220153459e-03 0.0000000000000000e+00  -3.0856533276194807e-05 2.8258466647786760e-03 0.0000000000000000e+00  -3.3153832774809682e-05 3.4178393988217792e-03 0.0000000000000000e+00  -2.2336896437117883e-05 1.5599598883383459e-03 0.0000000000000000e+00  -2.9315124029870687e-05 2.5342704603280425e-03 0.0000000000000000e+00  -2.2084321084247122e-05 1.8173774644690329e-03 0.0000000000000000e+00  -3.0015529670430241e-05 2.2531490123280603e-03 0.0000000000000000e+00  -2.5949047632402896e-05 2.0246325927387272e-03 0.0000000000000000e+00  -1.5879149475607268e-05 8.7838642395662338e-04 0.0000000000000000e+00  -3.3090226498646278e-05 4.8554371603469247e-03 0.0000000000000000e+00  -6.8585663478162864e-06 2.4527416456257225e-04 0.0000000000000000e+00  3.5265391595392339e-05 5.2229458819931431e-03 0.0000000000000000e+00  1.0961893553464887e-05 3.1852932022169863e-05 0.0000000000000000e+00  2.4073122034335190e-05 4.1652278706803547e-03 0.0000000000000000e+00  2.4277791845767391e-05 4.4656398257576640e-03 0.0000000000000000e+00  -2.5193919238016598e-05 1.0871477525965974e-04 0.0000000000000000e+00  -4.3017922496451073e-05 4.4339817693070822e-04 0.0000000000000000e+00  2.5065778803300297e-05 3.2680561360164599e-03 0.0000000000000000e+00  2.4169537725934426e-05 3.8652649131579275e-03 0.0000000000000000e+00  -6.5868486782490781e-05 1.1806164718761508e-03 0.0000000000000000e+00  2.5742339195897371e-05 2.9719319027361928e-03 0.0000000000000000e+00  -5.0182898275533331e-05 6.2717319137911185e-04 0.0000000000000000e+00  -7.0908299486744411e-05 1.4312798669378574e-03 0.0000000000000000e+00  2.6485100258054034e-05 2.6785644617306880e-03 0.0000000000000000e+00  2.4520684793769859e-05 3.5660523355510480e-03 0.0000000000000000e+00  -8.6786804045130124e-05 1.6932021064627492e-03 0.0000000000000000e+00  2.7243406475914847e-05 2.3890805159919298e-03 0.0000000000000000e+00  -1.8302533612192153e-06 3.6312921598016590e-06 0.0000000000000000e+00  2.5792277710269994e-06 1.2753872954007511e-06 0.0000000000000000e+00  -7.9661728601910652e-05 5.4873832610855379e-03 0.0000000000000000e+00  -1.5418051191235885e-05 3.5823734707724895e-05 0.0000000000000000e+00  4.0676962865409123e-05 2.1361689866105844e-03 0.0000000000000000