<?xml version="1.0"?>
<VTKFile type="UnstructuredGrid"  version="0.1"  >
<UnstructuredGrid>
<Piece  NumberOfPoints="1419" NumberOfCells="2698">
<Points>
<DataArray  type="Float64"  NumberOfComponents="3"  format="ascii">0 0 0  0 0.41 0  2.5 0 0  2.5 0.41 0  0.6 0.19 0  0.6 0.21 0  0.25 0.2 0  0.15 0.2 0  0.2489897948556636 0.21 0  0.2489897948556636 0.19 0  0.6 0.2 0  0 0.3807142857143437 0  0 0.3514285714286952 0  0 0.3221428571430699 0  0 0.29285714285744 0  0 0.2635714285718054 0  0 0.2342857142861561 0  0 0.2050000000005308 0  0 0.175714285714732 0  0 0.1464285714289574 0  0 0.1171428571431897 0  0 0.08785714285737878 0  0 0.05857142857161107 0  0 0.02928571428580012 0  0.03015443760436003 0 0  0.06140001986583606 0 0  0.09377624077125973 0 0  0.1273239957535082 0 0  0.1620856860351972 0 0  0.1981052433264291 0 0  0.235428184091502 0 0  0.2741016576309132 0 0  0.3141745521465447 0 0  0.3556974926295285 0 0  0.3987229542472677 0 0  0.4433053055141081 0 0  0.4895008759286886 0 0  0.5373680609405097 0 0  0.5869673343216626 0 0  0.6383613676634521 0 0  0.6916151138468254 0 0  0.7467958595648856 0 0  0.8039733463919316 0 0  0.8632198139502143 0 0  0.9246101326867038 0 0  0.9882218810934433 0 0  1.054135445558498 0 0  1.122434100542598 0 0  1.193204177141305 0 0  1.266535089879536 0 0  1.342519516046404 0 0  1.421253448503939 0 0  1.502836389106271 0 0  1.587371439758838 0 0  1.674965418777374 0 0  1.765729001825544 0 0  1.859776908880082 0 0  1.957227977487062 0 0  2.058205329869943 0 0  2.162836591189951 0 0  2.271253957290865 0 0  2.383594446803425 0 0  2.5 0.1024999999997612 0  2.5 0.2049999999994743 0  2.5 0.3074999999997183 0  2.383594446803656 0.41 0  2.271253957291315 0.41 0  2.162836591190598 0.41 0  2.058205329870775 0.41 0  1.957227977488067 0.41 0  1.859776908881246 0.41 0  1.765729001826854 0.41 0  1.674965418778818 0.41 0  1.58737143976041 0.41 0  1.502836389107956 0.41 0  1.421253448505726 0.41 0  1.342519516048286 0.41 0  1.266535089881505 0.41 0  1.193204177143353 0.41 0  1.122434100544716 0.41 0  1.05413544556068 0.41 0  0.9882218810956305 0.41 0  0.9246101326886647 0.41 0  0.8632198139519631 0.41 0  0.8039733463934788 0.41 0  0.7467958595662458 0.41 0  0.6916151138480078 0.41 0  0.6383613676644679 0.41 0  0.5869673343225223 0.41 0  0.5373680609412221 0.41 0  0.4895008759292634 0.41 0  0.4433053055145528 0.41 0  0.3987229542475914 0.41 0  0.3556974926297398 0.41 0  0.3141745521466497 0.41 0  0.2741016576310038 0.41 0  0.2354281840915826 0.41 0  0.1981052433265003 0.41 0  0.1620856860352591 0.41 0  0.1273239957535623 0.41 0  0.09377624077128965 0.41 0  0.06140001986584975 0.41 0  0.03015443760436654 0.41 0  0.2497468076502589 0.2050254481002335 0  0.2497468076502614 0.1949745518997913 0  0.2469965252529372 0.1829317073451959 0  0.2439893735792749 0.1762316384219906 0  0.2400332147834255 0.1700443375285386 0  0.2352133972704371 0.1645032867342007 0  0.2296339016332438 0.1597280261969788 0  0.2234150974217223 0.1558215752574715 0  0.2166911463437691 0.1528682099456123 0  0.2096071079204251 0.1509316448471593 0  0.2023158100364996 0.1500536585536553 0  0.194974551899914 0.1502531923497262 0  0.1877417105387872 0.1515259415822739 0  0.1807733240461124 0.153844448527136 0  0.1742197252835808 0.15715869474974 0  0.1682222986673531 0.1613971801805478 0  0.162910430003803 0.1664684656256651 0  0.1583987151779087 0.1722631454351573 0  0.1547844879126891 0.178656207771761 0  0.1521457199348551 0.1855097315605723 0  0.1505393388476355 0.1926758619366523 0  0.1505393388476328 0.2073241380633295 0  0.1521457199348437 0.2144902684393899 0  0.1547844879126531 0.221343792228163 0  0.1583987151778488 0.2277368545647528 0  0.1629104300036858 0.2335315343742052 0  0.1682222986671726 0.2386028198193036 0  0.1742197252833576 0.2428413052501257 0  0.1807733240458683 0.2461555514727623 0  0.1877417105384929 0.2484740584176516 0  0.1949745518995776 0.2497468076502398 0  0.202315810036185 0.2499463414463592 0  0.2096071079201568 0.2490683551528932 0  0.2166911463435495 0.2471317900544655 0  0.2234150974215506 0.2441784247426195 0  0.2296339016331197 0.2402719738031125 0  0.2352133972703547 0.2354967132658811 0  0.2400332147833751 0.2299556624715287 0  0.2439893735792577 0.2237683615780412 0  0.246996525252926 0.2170682926548348 0  0.25645809709277 0.21 0  0.2639263993298655 0.21 0  0.271394701566961 0.21 0  0.2788630038040554 0.21 0  0.2863313060411479 0.21 0  0.2937996082782405 0.21 0  0.301267910515333 0.21 0  0.3087362127524279 0.21 0  0.3162045149895234 0.21 0  0.3236728172265972 0.21 0  0.3311411194636928 0.21 0  0.3386094217007701 0.21 0  0.3460777239378666 0.21 0  0.3535460261749672 0.21 0  0.3610143284120516 0.21 0  0.3684826306491596 0.21 0  0.3759509328862226 0.21 0  0.383419235123329 0.21 0  0.3908875373604028 0.21 0  0.3983558395975142 0.21 0  0.4058241418345938 0.21 0  0.4132924440716992 0.21 0  0.4207607463087888 0.21 0  0.4282290485459029 0.21 0  0.4356973507830418 0.21 0  0.4431656530201649 0.21 0  0.4506339552573136 0.21 0  0.4581022574944306 0.21 0  0.4655705597315852 0.21 0  0.4730388619686996 0.21 0  0.480507164205851 0.21 0  0.4879754664429498 0.21 0  0.4954437686800938 0.21 0  0.502912070917267 0.21 0  0.5103803731544119 0.21 0  0.5178486753915261 0.21 0  0.5253169776286404 0.21 0  0.5327852798657868 0.21 0  0.5402535821029386 0.21 0  0.54772188434007 0.21 0  0.5551901865771842 0.21 0  0.5626584888143201 0.21 0  0.5701267910514778 0.21 0  0.5775950932886138 0.21 0  0.5850633955257281 0.21 0  0.5925316977628483 0.21 0  0.6 0.2050000000000054 0  0.6 0.1950000000000217 0  0.5925316977628897 0.19 0  0.5850633955257988 0.19 0  0.5775950932887378 0.19 0  0.5701267910515998 0.19 0  0.5626584888145268 0.19 0  0.5551901865773963 0.19 0  0.547721884340339 0.19 0  0.5402535821032429 0.19 0  0.5327852798661811 0.19 0  0.5253169776290537 0.19 0  0.5178486753919799 0.19 0  0.5103803731549078 0.19 0  0.502912070917822 0.19 0  0.4954437686807294 0.19 0  0.4879754664436223 0.19 0  0.4805071642065402 0.19 0  0.4730388619694271 0.19 0  0.4655705597323621 0.19 0  0.4581022574952563 0.19 0  0.4506339552581777 0.19 0  0.4431656530210671 0.19 0  0.4356973507839815 0.19 0  0.4282290485468779 0.19 0  0.4207607463097617 0.19 0  0.4132924440726327 0.19 0  0.4058241418354857 0.19 0  0.3983558395983636 0.19 0  0.3908875373612097 0.19 0  0.3834192351240934 0.19 0  0.3759509328869369 0.19 0  0.3684826306498175 0.19 0  0.361014328412667 0.19 0  0.3535460261755617 0.19 0  0.3460777239384295 0.19 0  0.3386094217012945 0.19 0  0.3311411194641595 0.19 0  0.3236728172270245 0.19 0  0.3162045149898895 0.19 0  0.3087362127527544 0.19 0  0.3012679105156187 0.19 0  0.2937996082784807 0.19 0  0.2863313060413428 0.19 0  0.2788630038042048 0.19 0  0.2713947015670686 0.19 0  0.2639263993299336 0.19 0  0.2564580970927985 0.19 0  0.2607803159922026 0.2000727136295815 0  0.5887803774232762 0.2001272386983733 0  0.5745072403740523 0.2002044435018727 0  0.5511891430099709 0.2001122610077113 0  0.2751288526855082 0.20000000000002 0  0.5365194309847112 0.1999999999999436 0  0.2894621222999649 0.1998691686390484 0  0.5215828265105155 0.1999999999999228 0  0.3127789816668748 0.1998657885438805 0  0.3274069683451451 0.2000000000000796 0  0.5066462220363641 0.199999999999908 0  0.3650630746574081 0.199866017807523 0  0.476773013087985 0.1999999999998713 0  0.3417402379596385 0.1998691686391011 0  0.3796850840047755 0.200000000000134 0  0.4618364086138087 0.1999999999998546 0  0.4917096175621762 0.1999999999998808 0  0.3946216884789568 0.2000000000001512 0  0.446899804139621 0.1999999999998389 0  0.4089549580935208 0.1998691686391595 0  0.4322718174608562 0.200127451265745 0  0.4201487168029707 0.1999966199048527 0  0.3528922713220932 0.2000185703532356 0  0.5633122436674589 0.1999814296467508 0  0.3006558810093873 0.1999966199048318 0  0.5815926498168407 0.1966545283159175 0  0.2677053789419034 0.1964246479135325 0  0.5290511287476175 0.1970915826863981 0  0.5439877332217911 0.197091582686394 0  0.2825131256993216 0.2035478995978015 0  0.3199386661080599 0.202908417313604 0  0.4842413153250809 0.1970915826863873 0  0.5141145242734466 0.1970915826863843 0  0.3722167817676917 0.2029084173136195 0  0.4693047108508938 0.1970915826863783 0  0.3348752705822316 0.202908417313609 0  0.3871533862418661 0.2029084173136212 0  0.4543681063767183 0.1970915826863795 0  0.4991779197992749 0.1970915826863902 0  0.4020059614928624 0.203547899597858 0  0.4394315019025246 0.1970915826863714 0  0.2550657455369551 0.2034088125358657 0  0.2548908499171161 0.1966940311614271 0  0.5946539510196798 0.2024302972968126 0  0.267698176732111 0.2039977513680092 0  0.4261685417851465 0.196409292431739 0  0.3590076176283495 0.196411355804271 0  0.5571672426447437 0.2036011176410121 0  0.3066757059912147 0.1964092924317024 0  0.594380730180568 0.1966558399668133 0  0.4842413153245942 0.2040749161535287 0  0.4693047108503577 0.2040749161535231 0  0.3871533862424271 0.1959250838464788 0  0.372246743208829 0.1959123236376545 0  0.5141145242731028 0.2040749161535395 0  0.4543681063761134 0.2040749161535186 0  0.4019979587101454 0.1959834479682427 0  0.4394608940728603 0.2040870543693135 0  0.5439623148931173 0.2040856076781014 0  0.5290511287473298 0.2040749161535501 0  0.4991779197988497 0.2040749161535382 0  0.3347912413592433 0.1959225448935183 0  0.3199680582793816 0.1959123018030061 0  0.2825051229162361 0.1959834479681729 0  0.3590471196690275 0.2036304442587945 0  0.5571594006495384 0.1963685282145804 0  0.3067669986803285 0.203627750582736 0  0.4262598344738712 0.2036568242185335 0  0.5814408164431408 0.2041285596160068 0  0.5688286748170428 0.1961819304477386 0  0.4145905603063645 0.2038180695522843 0  0.3473758401724931 0.2038180695522752 0  0.2950977245128307 0.2038180695522663 0  0.5688286748170693 0.203818069552238 0  0.2950977245127906 0.1961819304477774 0  0.3473758401723931 0.1961819304478349 0  0.4145905603061963 0.1961819304479011 0  0.2601812407614425 0.2056861609747042
[...]
<PointData  Vectors="f_40-0"> 
<DataArray  type="Float64"  Name="f_40-0"  NumberOfComponents="3" format="ascii">0.0000000000000000e+00 0.0000000000000000e+00 0.0000000000000000e+00  0.0000000000000000e+00 0.0000000000000000e+00 0.0000000000000000e+00  0.0000000000000000e+00 0.0000000000000000e+00 0.0000000000000000e+00  0.0000000000000000e+00 0.0000000000000000e+00 0.0000000000000000e+00  -2.1497714335367714e-05 -1.9104751863511447e-04 0.0000000000000000e+00  -6.5847887299055919e-06 -1.9692344275060698e-04 0.0000000000000000e+00  0.0000000000000000e+00 0.0000000000000000e+00 0.0000000000000000e+00  0.0000000000000000e+00 0.0000000000000000e+00 0.0000000000000000e+00  0.0000000000000000e+00 0.0000000000000000e+00 0.0000000000000000e+00  0.0000000000000000e+00 0.0000000000000000e+00 0.0000000000000000e+00  -1.4454568760772279e-05 -1.9398525118037403e-04 0.0000000000000000e+00  2.8663846420850472e-02 0.0000000000000000e+00 0.0000000000000000e+00  5.2917870315419765e-02 0.0000000000000000e+00 0.0000000000000000e+00  7.2762071683702190e-02 0.0000000000000000e+00 0.0000000000000000e+00  8.8196450525720727e-02 0.0000000000000000e+00 0.0000000000000000e+00  9.9221006841473364e-02 0.0000000000000000e+00 0.0000000000000000e+00  1.0583574063095944e-01 0.0000000000000000e+00 0.0000000000000000e+00  1.0804065189417235e-01 0.0000000000000000e+00 0.0000000000000000e+00  1.0583574063109316e-01 0.0000000000000000e+00 0.0000000000000000e+00  9.9221006841703069e-02 0.0000000000000000e+00 0.0000000000000000e+00  8.8196450526005221e-02 0.0000000000000000e+00 0.0000000000000000e+00  7.2762071683972460e-02 0.0000000000000000e+00 0.0000000000000000e+00  5.2917870315650387e-02 0.0000000000000000e+00 0.0000000000000000e+00  2.8663846420980417e-02 0.0000000000000000e+00 0.0000000000000000e+00  0.0000000000000000e+00 0.0000000000000000e+00 0.0000000000000000e+00  0.0000000000000000e+00 0.0000000000000000e+00 0.0000000000000000e+00  0.0000000000000000e+00 0.0000000000000000e+00 0.0000000000000000e+00  0.0000000000000000e+00 0.0000000000000000e+00 0.0000000000000000e+00  0.0000000000000000e+00 0.0000000000000000e+00 0.0000000000000000e+00  0.0000000000000000e+00 0.0000000000000000e+00 0.0000000000000000e+00  0.0000000000000000e+00 0.0000000000000000e+00 0.0000000000000000e+00  0.0000000000000000e+00 0.0000000000000000e+00 0.0000000000000000e+00  0.0000000000000000e+00 0.0000000000000000e+00 0.0000000000000000e+00  0.0000000000000000e+00 0.0000000000000000e+00 0.0000000000000000e+00  0.0000000000000000e+00 0.0000000000000000e+00 0.0000000000000000e+00  0.0000000000000000e+00 0.0000000000000000e+00 0.0000000000000000e+00  0.0000000000000000e+00 0.0000000000000000e+00 0.0000000000000000e+00  0.0000000000000000e+00 0.0000000000000000e+00 0.0000000000000000e+00  0.0000000000000000e+00 0.0000000000000000e+00 0.0000000000000000e+00  0.0000000000000000e+00 0.0000000000000000e+00 0.0000000000000000e+00  0.0000000000000000e+00 0.0000000000000000e+00 0.0000000000000000e+00  0.0000000000000000e+00 0.0000000000000000e+00 0.0000000000000000e+00  0.0000000000000000e+00 0.0000000000000000e+00 0.0000000000000000e+00  0.0000000000000000e+00 0.0000000000000000e+00 0.0000000000000000e+00  0.0000000000000000e+00 0.0000000000000000e+00 0.0000000000000000e+00  0.0000000000000000e+00 0.0000000000000000e+00 0.0000000000000000e+00  0.0000000000000000e+00 0.0000000000000000e+00 0.0000000000000000e+00  0.0000000000000000e+00 0.0000000000000000e+00 0.0000000000000000e+00  0.0000000000000000e+00 0.0000000000000000e+00 0.0000000000000000e+00  0.0000000000000000e+00 0.0000000000000000e+00 0.0000000000000000e+00  0.0000000000000000e+00 0.0000000000000000e+00 0.0000000000000000e+00  0.0000000000000000e+00 0.0000000000000000e+00 0.0000000000000000e+00  0.0000000000000000e+00 0.0000000000000000e+00 0.0000000000000000e+00  0.0000000000000000e+00 0.0000000000000000e+00 0.0000000000000000e+00  0.0000000000000000e+00 0.0000000000000000e+00 0.0000000000000000e+00  0.0000000000000000e+00 0.0000000000000000e+00 0.0000000000000000e+00  0.0000000000000000e+00 0.0000000000000000e+00 0.0000000000000000e+00  0.0000000000000000e+00 0.0000000000000000e+00 0.0000000000000000e+00  0.0000000000000000e+00 0.0000000000000000e+00 0.0000000000000000e+00  0.0000000000000000e+00 0.0000000000000000e+00 0.0000000000000000e+00  0.0000000000000000e+00 0.0000000000000000e+00 0.0000000000000000e+00  0.0000000000000000e+00 0.0000000000000000e+00 0.0000000000000000e+00  8.4622418041658862e-02 1.2017626723232753e-03 0.0000000000000000e+00  6.8529283446868483e-02 -2.4632847359508012e-04 0.0000000000000000e+00  8.3865139452587514e-02 -1.4579932425862515e-03 0.0000000000000000e+00  0.0000000000000000e+00 0.0000000000000000e+00 0.0000000000000000e+00  0.0000000000000000e+00 0.0000000000000000e+00 0.0000000000000000e+00  0.0000000000000000e+00 0.0000000000000000e+00 0.0000000000000000e+00  0.0000000000000000e+00 0.0000000000000000e+00 0.0000000000000000e+00  0.0000000000000000e+00 0.0000000000000000e+00 0.0000000000000000e+00  0.0000000000000000e+00 0.0000000000000000e+00 0.0000000000000000e+00  0.0000000000000000e+00 0.0000000000000000e+00 0.0000000000000000e+00  0.0000000000000000e+00 0.0000000000000000e+00 0.0000000000000000e+00  0.0000000000000000e+00 0.0000000000000000e+00 0.0000000000000000e+00  0.0000000000000000e+00 0.0000000000000000e+00 0.0000000000000000e+00  0.0000000000000000e+00 0.0000000000000000e+00 0.0000000000000000e+00  0.0000000000000000e+00 0.0000000000000000e+00 0.0000000000000000e+00  0.0000000000000000e+00 0.0000000000000000e+00 0.0000000000000000e+00  0.0000000000000000e+00 0.0000000000000000e+00 0.0000000000000000e+00  0.0000000000000000e+00 0.0000000000000000e+00 0.0000000000000000e+00  0.0000000000000000e+00 0.0000000000000000e+00 0.0000000000000000e+00  0.0000000000000000e+00 0.0000000000000000e+00 0.0000000000000000e+00  0.0000000000000000e+00 0.0000000000000000e+00 0.0000000000000000e+00  0.0000000000000000e+00 0.0000000000000000e+00 0.0000000000000000e+00  0.0000000000000000e+00 0.0000000000000000e+00 0.0000000000000000e+00  0.0000000000000000e+00 0.0000000000000000e+00 0.0000000000000000e+00  0.0000000000000000e+00 0.0000000000000000e+00 0.0000000000000000e+00  0.0000000000000000e+00 0.0000000000000000e+00 0.0000000000000000e+00  0.0000000000000000e+00 0.0000000000000000e+00 0.0000000000000000e+00  0.0000000000000000e+00 0.0000000000000000e+00 0.0000000000000000e+00  0.0000000000000000e+00 0.0000000000000000e+00 0.0000000000000000e+00  0.0000000000000000e+00 0.0000000000000000e+00 0.0000000000000000e+00  0.0000000000000000e+00 0.0000000000000000e+00 0.0000000000000000e+00  0.0000000000000000e+00 0.0000000000000000e+00 0.0000000000000000e+00  0.0000000000000000e+00 0.0000000000000000e+00 0.0000000000000000e+00  0.0000000000000000e+00 0.0000000000000000e+00 0.0000000000000000e+00  0.0000000000000000e+00 0.0000000000000000e+00 0.0000000000000000e+00  0.0000000000000000e+00 0.0000000000000000e+00 0.0000000000000000e+00  0.0000000000000000e+00 0.0000000000000000e+00 0.0000000000000000e+00  0.0000000000000000e+00 0.0000000000000000e+00 0.0000000000000000e+00  0.0000000000000000e+00 0.0000000000000000e+00 0.0000000000000000e+00  0.0000000000000000e+00 0.0000000000000000e+00 0.0000000000000000e+00  0.0000000000000000e+00 0.0000000000000000e+00 0.0000000000000000e+00  0.0000000000000000e+00 0.0000000000000000e+00 0.0000000000000000e+00  0.0000000000000000e+00 0.0000000000000000e+00 0.0000000000000000e+00  0.0000000000000000e+00 0.0000000000000000e+00 0.0000000000000000e+00  0.0000000000000000e+00 0.0000000000000000e+00 0.0000000000000000e+00  0.0000000000000000e+00 0.0000000000000000e+00 0.0000000000000000e+00  0.0000000000000000e+00 0.0000000000000000e+00 0.0000000000000000e+00  0.0000000000000000e+00 0.0000000000000000e+00 0.0000000000000000e+00  0.0000000000000000e+00 0.0000000000000000e+00 0.0000000000000000e+00  0.0000000000000000e+00 0.0000000000000000e+00 0.0000000000000000e+00  0.0000000000000000e+00 0.0000000000000000e+00 0.0000000000000000e+00  0.0000000000000000e+00 0.0000000000000000e+00 0.0000000000000000e+00  0.0000000000000000e+00 0.0000000000000000e+00 0.0000000000000000e+00  0.0000000000000000e+00 0.0000000000000000e+00 0.0000000000000000e+00  0.0000000000000000e+00 0.0000000000000000e+00 0.0000000000000000e+00  0.0000000000000000e+00 0.0000000000000000e+00 0.0000000000000000e+00  0.0000000000000000e+00 0.0000000000000000e+00 0.0000000000000000e+00  0.0000000000000000e+00 0.0000000000000000e+00 0.0000000000000000e+00  0.0000000000000000e+00 0.0000000000000000e+00 0.0000000000000000e+00  0.0000000000000000e+00 0.0000000000000000e+00 0.0000000000000000e+00  0.0000000000000000e+00 0.0000000000000000e+00 0.0000000000000000e+00  0.0000000000000000e+00 0.0000000000000000e+00 0.0000000000000000e+00  0.0000000000000000e+00 0.0000000000000000e+00 0.0000000000000000e+00  0.0000000000000000e+00 0.0000000000000000e+00 0.0000000000000000e+00  0.0000000000000000e+00 0.0000000000000000e+00 0.0000000000000000e+00  0.0000000000000000e+00 0.0000000000000000e+00 0.0000000000000000e+00  0.0000000000000000e+00 0.0000000000000000e+00 0.0000000000000000e+00  0.0000000000000000e+00 0.0000000000000000e+00 0.0000000000000000e+00  0.0000000000000000e+00 0.0000000000000000e+00 0.0000000000000000e+00  0.0000000000000000e+00 0.0000000000000000e+00 0.0000000000000000e+00  0.0000000000000000e+00 0.0000000000000000e+00 0.0000000000000000e+00  0.0000000000000000e+00 0.0000000000000000e+00 0.0000000000000000e+00  0.0000000000000000e+00 0.0000000000000000e+00 0.0000000000000000e+00  0.0000000000000000e+00 0.0000000000000000e+00 0.0000000000000000e+00  0.0000000000000000e+00 0.0000000000000000e+00 0.0000000000000000e+00  0.0000000000000000e+00 0.0000000000000000e+00 0.0000000000000000e+00  0.0000000000000000e+00 0.0000000000000000e+00 0.0000000000000000e+00  0.0000000000000000e+00 0.0000000000000000e+00 0.0000000000000000e+00  0.0000000000000000e+00 0.0000000000000000e+00 0.0000000000000000e+00  0.0000000000000000e+00 0.0000000000000000e+00 0.0000000000000000e+00  0.0000000000000000e+00 0.0000000000000000e+00 0.0000000000000000e+00  6.1658393947540288e-07 -5.6459454862699287e-06 0.0000000000000000e+00  1.4554569481610218e-06 -6.5277962773496412e-06 0.0000000000000000e+00  2.5116386528234023e-06 -7.4121446666491523e-06 0.0000000000000000e+00  3.7190913117563517e-06 -8.4561303299939047e-06 0.0000000000000000e+00  4.8743073775764195e-06 -9.7659314684526766e-06 0.0000000000000000e+00  6.0228852430536683e-06 -1.1426334707699189e-05 0.0000000000000000e+00  7.0500792583024428e-06 -1.3304567879300162e-05 0.0000000000000000e+00  8.0050249649065666e-06 -1.5475064902045743e-05 0.0000000000000000e+00  8.9689364855564260e-06 -1.7875266100338952e-05 0.0000000000000000e+00  9.7793940788820051e-06 -2.0486639062131457e-05 0.0000000000000000e+00  1.0599328499041514e-05 -2.3355798840452218e-05 0.0000000000000000e+00  1.1273928486017065e-05 -2.6400291494942172e-05 0.0000000000000000e+00  1.1931789236893638e-05 -2.9663455122892993e-05 0.0000000000000000e+00  1.2480492258485941e-05 -3.3087898205244398e-05 0.0000000000000000e+00  1.2952553625275390e-05 -3.6704078805601157e-05 0.0000000000000000e+00  1.3410674977323371e-05 -4.0482067998565915e-05 0.0000000000000000e+00  1.3739124047950661e-05 -4.4384591688340983e-05 0.0000000000000000e+00  1.4046746741177971e-05 -4.8471681767597669e-05 0.0000000000000000e+00  1.4236569269449224e-05 -5.2648942563311616e-05 0.0000000000000000e+00  1.4398880448790518e-05 -5.6987709947847074e-05 0.0000000000000000e+00  1.4459736310960542e-05 -6.1405651782606266e-05 0.0000000000000000e+00  1.4468029791319325e-05 -6.5956676550805589e-05 0.0000000000000000e+00  1.4399015373890295e-05 -7.0588319097552576e-05 0.0000000000000000e+00  1.4255134461385526e-05 -7.5317597652058293e-05 0.0000000000000000e+00  1.4079053811129731e-05 -8.0132493800630131e-05 0.0000000000000000e+00  1.3809040192716024e-05 -8.5001894885617995e-05 0.0000000000000000e+00  1.3478070073384604e-05 -8.9982296588492813e-05 0.0000000000000000e+00  1.3074873667295736e-05 -9.4982689441632751e-05 0.0000000000000000e+00  1.2610504452859128e-05 -1.0008154145511057e-04 0.0000000000000000e+00  1.2076775691565214e-05 -1.0519391923296088e-04 0.0000000000000000e+00  1.1481861507025726e-05 -1.1039203076856094e-04 0.0000000000000000e+00  1.0817701466724350e-05 -1.1559348397616867e-04 0.0000000000000000e+00  1.0094466657373007e-05 -1.2087268369585155e-04 0.0000000000000000e+00  9.3014094328682239e-06 -1.2614302332037704e-04 0.0000000000000000e+00  8.4450782679371376e-06 -1.3148690129856057e-04 0.0000000000000000e+00  7.5235862531798601e-06 -1.3681669355875624e-04 0.0000000000000000e+00  6.5415250797033482e-06 -1.4220924348611635e-04 0.0000000000000000e+00  5.4942142854905362e-06 -1.4758329568326215e-04 0.0000000000000000e+00  4.3834332129996556e-06 -1.5301401021226041e-04 0.0000000000000000e+00  3.2049507986292187e-06 -1.5842128062014228e-04 0.0000000000000000e+00  1.9545035948847071e-06 -1.6386635623856158e-04 0.0000000000000000e+00  6.5284848459093384e-07 -1.6930664781455459e-04 0.0000000000000000e+00  -7.2468553604001634e-07 -1.7476178098818840e-04 0.0000000000000000e+00  -2.1395994420121148e-06 -1.8022074053908660e-04 0.0000000000000000e+00  -3.6302764606065255e-06 -1.8566269967738936e-04 0.0000000000000000e+00  -5.1414531847046690e-06 -1.9116350214599064e-04 0.0000000000000000e+00  -1.0668091263410224e-05 -1.9545260987680979e-04 0.0000000000000000e+00  -1.8106287136798732e-05 -1.9252283148060394e-04 0.0000000000000000e+00  -2.0037132879632192e-05 -1.8568039600846584e-04 0.0000000000000000e+00  -1.8497749561195718e-05 -1.8005741212974107e-04 0.0000000000000000e+00  -1.6985622862016597e-05 -1.7440545136148143e-04 0.0000000000000000e+00  -1.5542287151126832e-05 -1.6878590125003851e-04 0.0000000000000000e+00  -1.4139502240937495e-05 -1.6317407712469978e-04 0.0000000000000000e+00  -1.2811797412109469e-05 -1.5757398607306174e-04 0.0000000000000000e+00  -1.1527053036250516e-05 -1.5199438019960823e-04 0.0000000000000000e+00  -1.0314036901163758e-05 -1.4640623726868611e-04 0.0000000000000000e+00  -9.1531098888208537e-06 -1.4086834110449832e-04 0.0000000000000000e+00  -8.0556588894204664e-06 -1.3531084711090115e-04 0.0000000000000000e+00  -7.0071623060124623e-06 -1.2981153152852852e-04 0.0000000000000000e+00  -6.0234373960985569e-06 -1.2429892920520484e-04 0.0000000000000000e+00  -5.0854556030982133e-06 -1.1885053307304792e-04 0.0000000000000000e+00  -4.2121433194030098e-06 -1.1339659420904825e-04 0.0000000000000000e+00  -3.3802213664538971e-06 -1.0801317143024143e-04 0.0000000000000000e+00  -2.6152300606039537e-06 -1.0263190629397635e-04 0.0000000000000000e+00  -1.8882470253779997e-06 -9.7328941598650572e-05 0.0000000000000000e+00  -1.2303727853984421e-06 -9.2037333284767934e-05 0.0000000000000000e+00  -6.0551853556937308e-07 -8.6834784511157848e-05 0.0000000000000000e+00  -5.1743466200439572e-08 -8.1655498719705293e-05 0.0000000000000000e+00  4.7461732066551153e-07 -7.6575420600880992e-05 0.0000000000000000e+00  9.2669199920881135e-07 -7.1532600684384468e-05 0.0000000000000000e+00  1.3471131291136442e-06 -6.6589399585850989e-05 0.0000000000000000e+00  1.7086819699314184e-06 -6.1713608442567905e-05 0.0000000000000000e+00  2.0093974928831004e-06 -5.6945795205686948e-05 0.0000000000000000e+00  2.3028295257379009e-06 -5.2262053562019819e-05 0.0000000000000000e+00  2.5205174863613099e-06 -4.7677329019783794e-05 0.0000000000000000e+00  2.7065842301188224e-06 -4.3235384770710033e-05 0.0000000000000000e+00  2.8323944937894877e-06 -3.8884238196188043e-05 0.0000000000000000e+00  2.9252794806807369e-06 -3.4699558435903051e-05 0.0000000000000000e+00  2.9592909824563939e-06 -3.0618901303877869e-05 0.0000000000000000e+00  2.9721877545107362e-06 -2.6732607504847657e-05 0.0000000000000000e+00  2.9179037432854880e-06 -2.2969787444897736e-05 0.0000000000000000e+00  2.8095766600416751e-06 -1.9417370755038491e-05 0.0000000000000000e+00  2.7172583569197049e-06 -1.6013119981781858e-05 0.0000000000000000e+00  2.5454538426616243e-06 -1.2816521034761750e-05 0.0000000000000000e+00  2.3537642508438184e-06 -9.8515380750498358e-06 0.0000000000000000e+00  2.1001081802452174e-06 -7.0756273230976229e-06 0.0000000000000000e+00  1.8470317399473002e-06 -4.5759211049966003e-06 0.0000000000000000e+00  1.5130730800607358e-06 -2.2755852132346285e-06 0.0000000000000000e+00  1.1302095662147582e-06 -2.7975227961667801e-07 0.0000000000000000e+00  7.9246016271992194e-07 1.4919765884491092e-06 0.0000000000000000e+00  3.6211876059874087e-07 3.0019755133312117e-06 0.0000000000000000e+00  2.7576144291591920e-08 4.1898648828357426e-06 0.0000000000000000e+00  -2.4919935564521991e-07 4.8984678901363181e-06 0.0000000000000000e+00  -2.0172486204313864e-07 4.9693171119468667e-06 0.0000000000000000e+00  -5.9357133846575888e-07 -3.7845220559083032e-07 0.0000000000000000e+00  -1.1888765924092010e-05 -1.8565477899639993e-04 0.0000000000000000e+00  -8.8655477816808524e-06 -1.7507349348033478e-04 0.0000000000000000e+00  -4.7092857199036803e-06 -1.5779281296965546e-04 0.0000000000000000e+00  1.5936306993952403e-06 -1.9351310550601635e-06 0.0000000000000000e+00  -2.4518505304546162e-06 -1.4695413415813840e-04 0.0000000000000000e+00  3.0945285681483884e-06 -4.5583774828571098e-06 0.0000000000000000e+00  -3.0240563164546706e-07 -1.3601920724579304e-04 0.0000000000000000e+00  5.1723450487398684e-06 -1.1090959771215120e-05 0.0000000000000000e+00  6.2715899851425563e-06 -1.6462033282678719e-05 0.0000000000000000e+00  1.6065995194704703e-06 -1.2517278633701677e-04 0.0000000000000000e+00  7.9736757400830364e-06 -3.3604956207451935e-05 0.0000000000000000e+00  4.7113957792137195e-06 -1.0385110476519418e-04 0.0000000000000000e+00  7.0605056163089405e-06 -2.2381032422615074e-05 0.0000000000000000e+00  8.3356152289884638e-06 -4.1503343414065643e-05 0.0000000000000000e+00  5.9103643509892479e-06 -9.3440981059408462e-05 0.0000000000000000e+00  3.2774023434647131e-06 -1.1443983065261084e-04 0.0000000000000000e+00  8.4172645123240459e-06 -5.0042971507773283e-05 0.0000000000000000e+00  6.8744808458705346e-06 -8.3251986303060172e-05 0.0000000000000000e+00  8.2039753102407447e-06 -5.8625628439969160e-05 0.0000000000000000e+00  7.6826219265082673e-06 -7.3586112422781611e-05 0.0000000000000000e+00  8.0016938236943190e-06 -6.5716304491796244e-05 0.0000000000000000e+00  7.6155409633761807e-06 -2.7640969092132916e-05 0.0000000000000000e+00  -6.9500482800719023e-06 -1.6671372956254428e-04 0.0000000000000000e+00  4.1653161396693618e-06 -7.4943150869897108e-06 0.0000000000000000e+00  -1.2933092207031503e-05 -1.7933396584642549e-04 0.0000000000000000e+00  2.3973482195456871e-07 1.1639057543143099e-06 0.0000000000000000e+00  -3.4728184756890772e-06 -1.4048927375416424e-04 0.0000000000000000e+00  -5.7555363309227048e-06 -1.5150049758849213e-04 0.0000000000000000e+00  3.0540356822266647e-06 -5.2347499525621901e-06 0.0000000000000000e+00  6.7984454345609004e-06 -1.5225660051944668e-05 0.0000000000000000e+00  1.9670738706088181e-06 -1.0801390723238242e-04 0.0000000000000000e+00  -1.4261848085631549e-06 -1.2955404622563721e-04 0.0000000000000000e+00  9.7584800160478016e-06 -3.8866227005315834e-05 0.0000000000000000e+00  3.3192190032188296e-06 -9.7469014719883527e-05 0.0000000000000000e+00  7.9377317507483676e-06 -2.1029213318946821e-05 0.0000000000000000e+00  1.0056151475669637e-05 -4.7103687803960101e-05 0.0000000000000000e+00  4.4440251969948830e-06 -8.7123772427680980e-05 0.0000000000000000e+00  3.8593537358583554e-07 -1.1871940649717767e-04 0.0000000000000000e+00  1.0502382992207641e-05 -5.6096597754483010e-05 0.0000000000000000e+00  5.3443450749372382e-06 -7.7023089828773175e-05 0.0000000000000000e+00  -8.4487745714855605e-07 -1.3570508622629656e-06 0.0000000000000000e+00  -9.6659105895867120e-07 1.0913610386298299e-06 0.0000000000000000e+00  -1.1465014287812188e-05 -1.9066821283124290e-04 0.0000000000000000e+00  1.0615367597285656e-06 -3.41630284506