<?xml version="1.0"?>
<VTKFile type="UnstructuredGrid"  version="0.1"  >
<UnstructuredGrid>
<Piece  NumberOfPoints="1419" NumberOfCells="2698">
<Points>
<DataArray  type="Float64"  NumberOfComponents="3"  format="ascii">0 0 0  0 0.41 0  2.5 0 0  2.5 0.41 0  0.6 0.19 0  0.6 0.21 0  0.25 0.2 0  0.15 0.2 0  0.2489897948556636 0.21 0  0.2489897948556636 0.19 0  0.6 0.2 0  0 0.3807142857143437 0  0 0.3514285714286952 0  0 0.3221428571430699 0  0 0.29285714285744 0  0 0.2635714285718054 0  0 0.2342857142861561 0  0 0.2050000000005308 0  0 0.175714285714732 0  0 0.1464285714289574 0  0 0.1171428571431897 0  0 0.08785714285737878 0  0 0.05857142857161107 0  0 0.02928571428580012 0  0.03015443760436003 0 0  0.06140001986583606 0 0  0.09377624077125973 0 0  0.1273239957535082 0 0  0.1620856860351972 0 0  0.1981052433264291 0 0  0.235428184091502 0 0  0.2741016576309132 0 0  0.3141745521465447 0 0  0.3556974926295285 0 0  0.3987229542472677 0 0  0.4433053055141081 0 0  0.4895008759286886 0 0  0.5373680609405097 0 0  0.5869673343216626 0 0  0.6383613676634521 0 0  0.6916151138468254 0 0  0.7467958595648856 0 0  0.8039733463919316 0 0  0.8632198139502143 0 0  0.9246101326867038 0 0  0.9882218810934433 0 0  1.054135445558498 0 0  1.122434100542598 0 0  1.193204177141305 0 0  1.266535089879536 0 0  1.342519516046404 0 0  1.421253448503939 0 0  1.502836389106271 0 0  1.587371439758838 0 0  1.674965418777374 0 0  1.765729001825544 0 0  1.859776908880082 0 0  1.957227977487062 0 0  2.058205329869943 0 0  2.162836591189951 0 0  2.271253957290865 0 0  2.383594446803425 0 0  2.5 0.1024999999997612 0  2.5 0.2049999999994743 0  2.5 0.3074999999997183 0  2.383594446803656 0.41 0  2.271253957291315 0.41 0  2.162836591190598 0.41 0  2.058205329870775 0.41 0  1.957227977488067 0.41 0  1.859776908881246 0.41 0  1.765729001826854 0.41 0  1.674965418778818 0.41 0  1.58737143976041 0.41 0  1.502836389107956 0.41 0  1.421253448505726 0.41 0  1.342519516048286 0.41 0  1.266535089881505 0.41 0  1.193204177143353 0.41 0  1.122434100544716 0.41 0  1.05413544556068 0.41 0  0.9882218810956305 0.41 0  0.9246101326886647 0.41 0  0.8632198139519631 0.41 0  0.8039733463934788 0.41 0  0.7467958595662458 0.41 0  0.6916151138480078 0.41 0  0.6383613676644679 0.41 0  0.5869673343225223 0.41 0  0.5373680609412221 0.41 0  0.4895008759292634 0.41 0  0.4433053055145528 0.41 0  0.3987229542475914 0.41 0  0.3556974926297398 0.41 0  0.3141745521466497 0.41 0  0.2741016576310038 0.41 0  0.2354281840915826 0.41 0  0.1981052433265003 0.41 0  0.1620856860352591 0.41 0  0.1273239957535623 0.41 0  0.09377624077128965 0.41 0  0.06140001986584975 0.41 0  0.03015443760436654 0.41 0  0.2497468076502589 0.2050254481002335 0  0.2497468076502614 0.1949745518997913 0  0.2469965252529372 0.1829317073451959 0  0.2439893735792749 0.1762316384219906 0  0.2400332147834255 0.1700443375285386 0  0.2352133972704371 0.1645032867342007 0  0.2296339016332438 0.1597280261969788 0  0.2234150974217223 0.1558215752574715 0  0.2166911463437691 0.1528682099456123 0  0.2096071079204251 0.1509316448471593 0  0.2023158100364996 0.1500536585536553 0  0.194974551899914 0.1502531923497262 0  0.1877417105387872 0.1515259415822739 0  0.1807733240461124 0.153844448527136 0  0.1742197252835808 0.15715869474974 0  0.1682222986673531 0.1613971801805478 0  0.162910430003803 0.1664684656256651 0  0.1583987151779087 0.1722631454351573 0  0.1547844879126891 0.178656207771761 0  0.1521457199348551 0.1855097315605723 0  0.1505393388476355 0.1926758619366523 0  0.1505393388476328 0.2073241380633295 0  0.1521457199348437 0.2144902684393899 0  0.1547844879126531 0.221343792228163 0  0.1583987151778488 0.2277368545647528 0  0.1629104300036858 0.2335315343742052 0  0.1682222986671726 0.2386028198193036 0  0.1742197252833576 0.2428413052501257 0  0.1807733240458683 0.2461555514727623 0  0.1877417105384929 0.2484740584176516 0  0.1949745518995776 0.2497468076502398 0  0.202315810036185 0.2499463414463592 0  0.2096071079201568 0.2490683551528932 0  0.2166911463435495 0.2471317900544655 0  0.2234150974215506 0.2441784247426195 0  0.2296339016331197 0.2402719738031125 0  0.2352133972703547 0.2354967132658811 0  0.2400332147833751 0.2299556624715287 0  0.2439893735792577 0.2237683615780412 0  0.246996525252926 0.2170682926548348 0  0.25645809709277 0.21 0  0.2639263993298655 0.21 0  0.271394701566961 0.21 0  0.2788630038040554 0.21 0  0.2863313060411479 0.21 0  0.2937996082782405 0.21 0  0.301267910515333 0.21 0  0.3087362127524279 0.21 0  0.3162045149895234 0.21 0  0.3236728172265972 0.21 0  0.3311411194636928 0.21 0  0.3386094217007701 0.21 0  0.3460777239378666 0.21 0  0.3535460261749672 0.21 0  0.3610143284120516 0.21 0  0.3684826306491596 0.21 0  0.3759509328862226 0.21 0  0.383419235123329 0.21 0  0.3908875373604028 0.21 0  0.3983558395975142 0.21 0  0.4058241418345938 0.21 0  0.4132924440716992 0.21 0  0.4207607463087888 0.21 0  0.4282290485459029 0.21 0  0.4356973507830418 0.21 0  0.4431656530201649 0.21 0  0.4506339552573136 0.21 0  0.4581022574944306 0.21 0  0.4655705597315852 0.21 0  0.4730388619686996 0.21 0  0.480507164205851 0.21 0  0.4879754664429498 0.21 0  0.4954437686800938 0.21 0  0.502912070917267 0.21 0  0.5103803731544119 0.21 0  0.5178486753915261 0.21 0  0.5253169776286404 0.21 0  0.5327852798657868 0.21 0  0.5402535821029386 0.21 0  0.54772188434007 0.21 0  0.5551901865771842 0.21 0  0.5626584888143201 0.21 0  0.5701267910514778 0.21 0  0.5775950932886138 0.21 0  0.5850633955257281 0.21 0  0.5925316977628483 0.21 0  0.6 0.2050000000000054 0  0.6 0.1950000000000217 0  0.5925316977628897 0.19 0  0.5850633955257988 0.19 0  0.5775950932887378 0.19 0  0.5701267910515998 0.19 0  0.5626584888145268 0.19 0  0.5551901865773963 0.19 0  0.547721884340339 0.19 0  0.5402535821032429 0.19 0  0.5327852798661811 0.19 0  0.5253169776290537 0.19 0  0.5178486753919799 0.19 0  0.5103803731549078 0.19 0  0.502912070917822 0.19 0  0.4954437686807294 0.19 0  0.4879754664436223 0.19 0  0.4805071642065402 0.19 0  0.4730388619694271 0.19 0  0.4655705597323621 0.19 0  0.4581022574952563 0.19 0  0.4506339552581777 0.19 0  0.4431656530210671 0.19 0  0.4356973507839815 0.19 0  0.4282290485468779 0.19 0  0.4207607463097617 0.19 0  0.4132924440726327 0.19 0  0.4058241418354857 0.19 0  0.3983558395983636 0.19 0  0.3908875373612097 0.19 0  0.3834192351240934 0.19 0  0.3759509328869369 0.19 0  0.3684826306498175 0.19 0  0.361014328412667 0.19 0  0.3535460261755617 0.19 0  0.3460777239384295 0.19 0  0.3386094217012945 0.19 0  0.3311411194641595 0.19 0  0.3236728172270245 0.19 0  0.3162045149898895 0.19 0  0.3087362127527544 0.19 0  0.3012679105156187 0.19 0  0.2937996082784807 0.19 0  0.2863313060413428 0.19 0  0.2788630038042048 0.19 0  0.2713947015670686 0.19 0  0.2639263993299336 0.19 0  0.2564580970927985 0.19 0  0.2607803159922026 0.2000727136295815 0  0.5887803774232762 0.2001272386983733 0  0.5745072403740523 0.2002044435018727 0  0.5511891430099709 0.2001122610077113 0  0.2751288526855082 0.20000000000002 0  0.5365194309847112 0.1999999999999436 0  0.2894621222999649 0.1998691686390484 0  0.5215828265105155 0.1999999999999228 0  0.3127789816668748 0.1998657885438805 0  0.3274069683451451 0.2000000000000796 0  0.5066462220363641 0.199999999999908 0  0.3650630746574081 0.199866017807523 0  0.476773013087985 0.1999999999998713 0  0.3417402379596385 0.1998691686391011 0  0.3796850840047755 0.200000000000134 0  0.4618364086138087 0.1999999999998546 0  0.4917096175621762 0.1999999999998808 0  0.3946216884789568 0.2000000000001512 0  0.446899804139621 0.1999999999998389 0  0.4089549580935208 0.1998691686391595 0  0.4322718174608562 0.200127451265745 0  0.4201487168029707 0.1999966199048527 0  0.3528922713220932 0.2000185703532356 0  0.5633122436674589 0.1999814296467508 0  0.3006558810093873 0.1999966199048318 0  0.5815926498168407 0.1966545283159175 0  0.2677053789419034 0.1964246479135325 0  0.5290511287476175 0.1970915826863981 0  0.5439877332217911 0.197091582686394 0  0.2825131256993216 0.2035478995978015 0  0.3199386661080599 0.202908417313604 0  0.4842413153250809 0.1970915826863873 0  0.5141145242734466 0.1970915826863843 0  0.3722167817676917 0.2029084173136195 0  0.4693047108508938 0.1970915826863783 0  0.3348752705822316 0.202908417313609 0  0.3871533862418661 0.2029084173136212 0  0.4543681063767183 0.1970915826863795 0  0.4991779197992749 0.1970915826863902 0  0.4020059614928624 0.203547899597858 0  0.4394315019025246 0.1970915826863714 0  0.2550657455369551 0.2034088125358657 0  0.2548908499171161 0.1966940311614271 0  0.5946539510196798 0.2024302972968126 0  0.267698176732111 0.2039977513680092 0  0.4261685417851465 0.196409292431739 0  0.3590076176283495 0.196411355804271 0  0.5571672426447437 0.2036011176410121 0  0.3066757059912147 0.1964092924317024 0  0.594380730180568 0.1966558399668133 0  0.4842413153245942 0.2040749161535287 0  0.4693047108503577 0.2040749161535231 0  0.3871533862424271 0.1959250838464788 0  0.372246743208829 0.1959123236376545 0  0.5141145242731028 0.2040749161535395 0  0.4543681063761134 0.2040749161535186 0  0.4019979587101454 0.1959834479682427 0  0.4394608940728603 0.2040870543693135 0  0.5439623148931173 0.2040856076781014 0  0.5290511287473298 0.2040749161535501 0  0.4991779197988497 0.2040749161535382 0  0.3347912413592433 0.1959225448935183 0  0.3199680582793816 0.1959123018030061 0  0.2825051229162361 0.1959834479681729 0  0.3590471196690275 0.2036304442587945 0  0.5571594006495384 0.1963685282145804 0  0.3067669986803285 0.203627750582736 0  0.4262598344738712 0.2036568242185335 0  0.5814408164431408 0.2041285596160068 0  0.5688286748170428 0.1961819304477386 0  0.4145905603063645 0.2038180695522843 0  0.3473758401724931 0.2038180695522752 0  0.2950977245128307 0.2038180695522663 0  0.5688286748170693 0.203818069552238 0  0.2950977245127906 0.1961819304477774 0  0.3473758401723931 0.1961819304478349 0  0.4145905603061963 0.1961819304479011 0  0.2601812407614425 0.2056861609747042
[...]
<PointData  Vectors="f_40-0"> 
<DataArray  type="Float64"  Name="f_40-0"  NumberOfComponents="3" format="ascii">0.0000000000000000e+00 0.0000000000000000e+00 0.0000000000000000e+00  0.0000000000000000e+00 0.0000000000000000e+00 0.0000000000000000e+00  0.0000000000000000e+00 0.0000000000000000e+00 0.0000000000000000e+00  0.0000000000000000e+00 0.0000000000000000e+00 0.0000000000000000e+00  -1.6830760810228087e-05 -2.8173621304258990e-04 0.0000000000000000e+00  4.9433751767333397e-06 -2.8752332603727712e-04 0.0000000000000000e+00  0.0000000000000000e+00 0.0000000000000000e+00 0.0000000000000000e+00  0.0000000000000000e+00 0.0000000000000000e+00 0.0000000000000000e+00  0.0000000000000000e+00 0.0000000000000000e+00 0.0000000000000000e+00  0.0000000000000000e+00 0.0000000000000000e+00 0.0000000000000000e+00  -6.4023299517381956e-06 -2.8462911028940267e-04 0.0000000000000000e+00  4.1994874642513766e-02 0.0000000000000000e+00 0.0000000000000000e+00  7.7528999340030560e-02 0.0000000000000000e+00 0.0000000000000000e+00  1.0660237409254203e-01 0.0000000000000000e+00 0.0000000000000000e+00  1.2921499890008184e-01 0.0000000000000000e+00 0.0000000000000000e+00  1.4536687376264709e-01 0.0000000000000000e+00 0.0000000000000000e+00  1.5505799868023679e-01 0.0000000000000000e+00 0.0000000000000000e+00  1.5828837365284124e-01 0.0000000000000000e+00 0.0000000000000000e+00  1.5505799868043268e-01 0.0000000000000000e+00 0.0000000000000000e+00  1.4536687376298363e-01 0.0000000000000000e+00 0.0000000000000000e+00  1.2921499890049867e-01 0.0000000000000000e+00 0.0000000000000000e+00  1.0660237409293799e-01 0.0000000000000000e+00 0.0000000000000000e+00  7.7528999340368443e-02 0.0000000000000000e+00 0.0000000000000000e+00  4.1994874642704148e-02 0.0000000000000000e+00 0.0000000000000000e+00  0.0000000000000000e+00 0.0000000000000000e+00 0.0000000000000000e+00  0.0000000000000000e+00 0.0000000000000000e+00 0.0000000000000000e+00  0.0000000000000000e+00 0.0000000000000000e+00 0.0000000000000000e+00  0.0000000000000000e+00 0.0000000000000000e+00 0.0000000000000000e+00  0.0000000000000000e+00 0.0000000000000000e+00 0.0000000000000000e+00  0.0000000000000000e+00 0.0000000000000000e+00 0.0000000000000000e+00  0.0000000000000000e+00 0.0000000000000000e+00 0.0000000000000000e+00  0.0000000000000000e+00 0.0000000000000000e+00 0.0000000000000000e+00  0.0000000000000000e+00 0.0000000000000000e+00 0.0000000000000000e+00  0.0000000000000000e+00 0.0000000000000000e+00 0.0000000000000000e+00  0.0000000000000000e+00 0.0000000000000000e+00 0.0000000000000000e+00  0.0000000000000000e+00 0.0000000000000000e+00 0.0000000000000000e+00  0.0000000000000000e+00 0.0000000000000000e+00 0.0000000000000000e+00  0.0000000000000000e+00 0.0000000000000000e+00 0.0000000000000000e+00  0.0000000000000000e+00 0.0000000000000000e+00 0.0000000000000000e+00  0.0000000000000000e+00 0.0000000000000000e+00 0.0000000000000000e+00  0.0000000000000000e+00 0.0000000000000000e+00 0.0000000000000000e+00  0.0000000000000000e+00 0.0000000000000000e+00 0.0000000000000000e+00  0.0000000000000000e+00 0.0000000000000000e+00 0.0000000000000000e+00  0.0000000000000000e+00 0.0000000000000000e+00 0.0000000000000000e+00  0.0000000000000000e+00 0.0000000000000000e+00 0.0000000000000000e+00  0.0000000000000000e+00 0.0000000000000000e+00 0.0000000000000000e+00  0.0000000000000000e+00 0.0000000000000000e+00 0.0000000000000000e+00  0.0000000000000000e+00 0.0000000000000000e+00 0.0000000000000000e+00  0.0000000000000000e+00 0.0000000000000000e+00 0.0000000000000000e+00  0.0000000000000000e+00 0.0000000000000000e+00 0.0000000000000000e+00  0.0000000000000000e+00 0.0000000000000000e+00 0.0000000000000000e+00  0.0000000000000000e+00 0.0000000000000000e+00 0.0000000000000000e+00  0.0000000000000000e+00 0.0000000000000000e+00 0.0000000000000000e+00  0.0000000000000000e+00 0.0000000000000000e+00 0.0000000000000000e+00  0.0000000000000000e+00 0.0000000000000000e+00 0.0000000000000000e+00  0.0000000000000000e+00 0.0000000000000000e+00 0.0000000000000000e+00  0.0000000000000000e+00 0.0000000000000000e+00 0.0000000000000000e+00  0.0000000000000000e+00 0.0000000000000000e+00 0.0000000000000000e+00  0.0000000000000000e+00 0.0000000000000000e+00 0.0000000000000000e+00  0.0000000000000000e+00 0.0000000000000000e+00 0.0000000000000000e+00  0.0000000000000000e+00 0.0000000000000000e+00 0.0000000000000000e+00  0.0000000000000000e+00 0.0000000000000000e+00 0.0000000000000000e+00  1.2798892487620728e-01 1.6126807351464290e-03 0.0000000000000000e+00  1.0164854140156382e-01 -3.0987074621236009e-04 0.0000000000000000e+00  1.2701638043329708e-01 -2.0757073848912222e-03 0.0000000000000000e+00  0.0000000000000000e+00 0.0000000000000000e+00 0.0000000000000000e+00  0.0000000000000000e+00 0.0000000000000000e+00 0.0000000000000000e+00  0.0000000000000000e+00 0.0000000000000000e+00 0.0000000000000000e+00  0.0000000000000000e+00 0.0000000000000000e+00 0.0000000000000000e+00  0.0000000000000000e+00 0.0000000000000000e+00 0.0000000000000000e+00  0.0000000000000000e+00 0.0000000000000000e+00 0.0000000000000000e+00  0.0000000000000000e+00 0.0000000000000000e+00 0.0000000000000000e+00  0.0000000000000000e+00 0.0000000000000000e+00 0.0000000000000000e+00  0.0000000000000000e+00 0.0000000000000000e+00 0.0000000000000000e+00  0.0000000000000000e+00 0.0000000000000000e+00 0.0000000000000000e+00  0.0000000000000000e+00 0.0000000000000000e+00 0.0000000000000000e+00  0.0000000000000000e+00 0.0000000000000000e+00 0.0000000000000000e+00  0.0000000000000000e+00 0.0000000000000000e+00 0.0000000000000000e+00  0.0000000000000000e+00 0.0000000000000000e+00 0.0000000000000000e+00  0.0000000000000000e+00 0.0000000000000000e+00 0.0000000000000000e+00  0.0000000000000000e+00 0.0000000000000000e+00 0.0000000000000000e+00  0.0000000000000000e+00 0.0000000000000000e+00 0.0000000000000000e+00  0.0000000000000000e+00 0.0000000000000000e+00 0.0000000000000000e+00  0.0000000000000000e+00 0.0000000000000000e+00 0.0000000000000000e+00  0.0000000000000000e+00 0.0000000000000000e+00 0.0000000000000000e+00  0.0000000000000000e+00 0.0000000000000000e+00 0.0000000000000000e+00  0.0000000000000000e+00 0.0000000000000000e+00 0.0000000000000000e+00  0.0000000000000000e+00 0.0000000000000000e+00 0.0000000000000000e+00  0.0000000000000000e+00 0.0000000000000000e+00 0.0000000000000000e+00  0.0000000000000000e+00 0.0000000000000000e+00 0.0000000000000000e+00  0.0000000000000000e+00 0.0000000000000000e+00 0.0000000000000000e+00  0.0000000000000000e+00 0.0000000000000000e+00 0.0000000000000000e+00  0.0000000000000000e+00 0.0000000000000000e+00 0.0000000000000000e+00  0.0000000000000000e+00 0.0000000000000000e+00 0.0000000000000000e+00  0.0000000000000000e+00 0.0000000000000000e+00 0.0000000000000000e+00  0.0000000000000000e+00 0.0000000000000000e+00 0.0000000000000000e+00  0.0000000000000000e+00 0.0000000000000000e+00 0.0000000000000000e+00  0.0000000000000000e+00 0.0000000000000000e+00 0.0000000000000000e+00  0.0000000000000000e+00 0.0000000000000000e+00 0.0000000000000000e+00  0.0000000000000000e+00 0.0000000000000000e+00 0.0000000000000000e+00  0.0000000000000000e+00 0.0000000000000000e+00 0.0000000000000000e+00  0.0000000000000000e+00 0.0000000000000000e+00 0.0000000000000000e+00  0.0000000000000000e+00 0.0000000000000000e+00 0.0000000000000000e+00  0.0000000000000000e+00 0.0000000000000000e+00 0.0000000000000000e+00  0.0000000000000000e+00 0.0000000000000000e+00 0.0000000000000000e+00  0.0000000000000000e+00 0.0000000000000000e+00 0.0000000000000000e+00  0.0000000000000000e+00 0.0000000000000000e+00 0.0000000000000000e+00  0.0000000000000000e+00 0.0000000000000000e+00 0.0000000000000000e+00  0.0000000000000000e+00 0.0000000000000000e+00 0.0000000000000000e+00  0.0000000000000000e+00 0.0000000000000000e+00 0.0000000000000000e+00  0.0000000000000000e+00 0.0000000000000000e+00 0.0000000000000000e+00  0.0000000000000000e+00 0.0000000000000000e+00 0.0000000000000000e+00  0.0000000000000000e+00 0.0000000000000000e+00 0.0000000000000000e+00  0.0000000000000000e+00 0.0000000000000000e+00 0.0000000000000000e+00  0.0000000000000000e+00 0.0000000000000000e+00 0.0000000000000000e+00  0.0000000000000000e+00 0.0000000000000000e+00 0.0000000000000000e+00  0.0000000000000000e+00 0.0000000000000000e+00 0.0000000000000000e+00  0.0000000000000000e+00 0.0000000000000000e+00 0.0000000000000000e+00  0.0000000000000000e+00 0.0000000000000000e+00 0.0000000000000000e+00  0.0000000000000000e+00 0.0000000000000000e+00 0.0000000000000000e+00  0.0000000000000000e+00 0.0000000000000000e+00 0.0000000000000000e+00  0.0000000000000000e+00 0.0000000000000000e+00 0.0000000000000000e+00  0.0000000000000000e+00 0.0000000000000000e+00 0.0000000000000000e+00  0.0000000000000000e+00 0.0000000000000000e+00 0.0000000000000000e+00  0.0000000000000000e+00 0.0000000000000000e+00 0.0000000000000000e+00  0.0000000000000000e+00 0.0000000000000000e+00 0.0000000000000000e+00  0.0000000000000000e+00 0.0000000000000000e+00 0.0000000000000000e+00  0.0000000000000000e+00 0.0000000000000000e+00 0.0000000000000000e+00  0.0000000000000000e+00 0.0000000000000000e+00 0.0000000000000000e+00  0.0000000000000000e+00 0.0000000000000000e+00 0.0000000000000000e+00  0.0000000000000000e+00 0.0000000000000000e+00 0.0000000000000000e+00  0.0000000000000000e+00 0.0000000000000000e+00 0.0000000000000000e+00  0.0000000000000000e+00 0.0000000000000000e+00 0.0000000000000000e+00  0.0000000000000000e+00 0.0000000000000000e+00 0.0000000000000000e+00  0.0000000000000000e+00 0.0000000000000000e+00 0.0000000000000000e+00  0.0000000000000000e+00 0.0000000000000000e+00 0.0000000000000000e+00  0.0000000000000000e+00 0.0000000000000000e+00 0.0000000000000000e+00  0.0000000000000000e+00 0.0000000000000000e+00 0.0000000000000000e+00  0.0000000000000000e+00 0.0000000000000000e+00 0.0000000000000000e+00  0.0000000000000000e+00 0.0000000000000000e+00 0.0000000000000000e+00  0.0000000000000000e+00 0.0000000000000000e+00 0.0000000000000000e+00  0.0000000000000000e+00 0.0000000000000000e+00 0.0000000000000000e+00  0.0000000000000000e+00 0.0000000000000000e+00 0.0000000000000000e+00  1.0276685189001047e-06 -5.8946704724040043e-06 0.0000000000000000e+00  2.3190375340872314e-06 -7.0150798637443127e-06 0.0000000000000000e+00  3.8138276220214645e-06 -8.2796022049222489e-06 0.0000000000000000e+00  5.4803808342607004e-06 -9.8551994375513275e-06 0.0000000000000000e+00  7.0591490702819190e-06 -1.1824881833458704e-05 0.0000000000000000e+00  8.6535689263490044e-06 -1.4287331430386027e-05 0.0000000000000000e+00  1.0084013814767051e-05 -1.7071870574296998e-05 0.0000000000000000e+00  1.1433023469137168e-05 -2.0286775658214448e-05 0.0000000000000000e+00  1.2810688226854944e-05 -2.3836849960024065e-05 0.0000000000000000e+00  1.3986223166294251e-05 -2.7705099252733382e-05 0.0000000000000000e+00  1.5196305855355719e-05 -3.1941365072720086e-05 0.0000000000000000e+00  1.6214123348904303e-05 -3.6447838780197322e-05 0.0000000000000000e+00  1.7231602388023413e-05 -4.1269876378632737e-05 0.0000000000000000e+00  1.8105323921713983e-05 -4.6329317642906162e-05 0.0000000000000000e+00  1.8892938347930469e-05 -5.1673964814632983e-05 0.0000000000000000e+00  1.9676674859768663e-05 -5.7251748104387342e-05 0.0000000000000000e+00  2.0294868083498702e-05 -6.3023598335741558e-05 0.0000000000000000e+00  2.0904799237390664e-05 -6.9053043292604722e-05 0.0000000000000000e+00  2.1363657617452648e-05 -7.5230586668536569e-05 0.0000000000000000e+00  2.1803945740403086e-05 -8.1630646268422068e-05 0.0000000000000000e+00  2.2117949521003489e-05 -8.8161492660779507e-05 0.0000000000000000e+00  2.2380703141043453e-05 -9.4879959581138518e-05 0.0000000000000000e+00  2.2545960836586969e-05 -1.0171700802465881e-04 0.0000000000000000e+00  2.2628077686191695e-05 -1.0870042669199902e-04 0.0000000000000000e+00  2.2679344142815842e-05 -1.1580309536112181e-04 0.0000000000000000e+00  2.2619419422523674e-05 -1.2299654995357498e-04 0.0000000000000000e+00  2.2493065322518387e-05 -1.3033673277456983e-04 0.0000000000000000e+00  2.2282992946477375e-05 -1.3772106337850247e-04 0.0000000000000000e+00  2.2005904033428230e-05 -1.4523457504617536e-04 0.0000000000000000e+00  2.1649112436887267e-05 -1.5278003256385803e-04 0.0000000000000000e+00  2.1225027852754592e-05 -1.6043634743082651e-04 0.0000000000000000e+00  2.0722225477411867e-05 -1.6810924537002725e-04 0.0000000000000000e+00  2.0154273642699643e-05 -1.7587987472436587e-04 0.0000000000000000e+00  1.9507629080623959e-05 -1.8365067465620305e-04 0.0000000000000000e+00  1.8791598929951526e-05 -1.9151110357457234e-04 0.0000000000000000e+00  1.8002396238419193e-05 -1.9936270041931781e-04 0.0000000000000000e+00  1.7146529921983632e-05 -2.0728916759938152e-04 0.0000000000000000e+00  1.6218057207441827e-05 -2.1519928039115768e-04 0.0000000000000000e+00  1.5220002687967516e-05 -2.2317528961597868e-04 0.0000000000000000e+00  1.4147148529999079e-05 -2.3112757242950083e-04 0.0000000000000000e+00  1.2995379057914209e-05 -2.3912344517833554e-04 0.0000000000000000e+00  1.1786745369269519e-05 -2.4711462267715798e-04 0.0000000000000000e+00  1.0495596042540531e-05 -2.5512278814455720e-04 0.0000000000000000e+00  9.1630945169861230e-06 -2.6313522451031660e-04 0.0000000000000000e+00  7.7468875011446188e-06 -2.7112854083582007e-04 0.0000000000000000e+00  6.3074498635542332e-06 -2.7918620308046201e-04 0.0000000000000000e+00  -8.9294224858516626e-07 -2.8607399940638580e-04 0.0000000000000000e+00  -1.1760835229034763e-05 -2.8318986647129932e-04 0.0000000000000000e+00  -1.5448126526996429e-05 -2.7382181311727012e-04 0.0000000000000000e+00  -1.3977817044208156e-05 -2.6563282360173799e-04 0.0000000000000000e+00  -1.2537708278917371e-05 -2.5741149706506980e-04 0.0000000000000000e+00  -1.1172722632950155e-05 -2.4922658059938743e-04 0.0000000000000000e+00  -9.8520240483029895e-06 -2.4105042910069370e-04 0.0000000000000000e+00  -8.6118796039574567e-06 -2.3288816135482666e-04 0.0000000000000000e+00  -7.4175123755991270e-06 -2.2474965878785838e-04 0.0000000000000000e+00  -6.3007899585555224e-06 -2.1660351876700234e-04 0.0000000000000000e+00  -5.2383407160040956e-06 -2.0851527935202794e-04 0.0000000000000000e+00  -4.2446114366233785e-06 -2.0040924289823980e-04 0.0000000000000000e+00  -3.3003195008893825e-06 -1.9237112930986270e-04 0.0000000000000000e+00  -2.4264676783054670e-06 -1.8432437411882409e-04 0.0000000000000000e+00  -1.5972944301776083e-06 -1.7635485816578931e-04 0.0000000000000000e+00  -8.3903905331886580e-07 -1.6838841876398963e-04 0.0000000000000000e+00  -1.1918993258025173e-07 -1.6050906721661723e-04 0.0000000000000000e+00  5.2650213354273929e-07 -1.5264469789734417e-04 0.0000000000000000e+00  1.1393528012458090e-06 -1.4487929559408636e-04 0.0000000000000000e+00  1.6746306605555453e-06 -1.3714281772445042e-04 0.0000000000000000e+00  2.1841802394556082e-06 -1.2952134585816257e-04 0.0000000000000000e+00  2.6127732509038497e-06 -1.2194657953988054e-04 0.0000000000000000e+00  3.0239876601842825e-06 -1.1450276494981802e-04 0.0000000000000000e+00  3.3493692131951188e-06 -1.0712606469476954e-04 0.0000000000000000e+00  3.6542437147014522e-06 -9.9886514243650631e-05 0.0000000000000000e+00  3.8906334139493872e-06 -9.2748694528109029e-05 0.0000000000000000e+00  4.0654733587041465e-06 -8.5768349718317737e-05 0.0000000000000000e+00  4.2449429413479345e-06 -7.8908844842808719e-05 0.0000000000000000e+00  4.3402617804222405e-06 -7.2202554929159859e-05 0.0000000000000000e+00  4.4113799987626052e-06 -6.5692297863031692e-05 0.0000000000000000e+00  4.4170987043302776e-06 -5.9330879305543026e-05 0.0000000000000000e+00  4.3973690069417245e-06 -5.3198961797145028e-05 0.0000000000000000e+00  4.3135464108542792e-06 -4.7235002301238733e-05 0.0000000000000000e+00  4.2242739617547202e-06 -4.1546998286270236e-05 0.0000000000000000e+00  4.0518635708293714e-06 -3.6045933253422321e-05 0.0000000000000000e+00  3.8259628321254652e-06 -3.0852044306575168e-05 0.0000000000000000e+00  3.6389364153137834e-06 -2.5875566552325720e-05 0.0000000000000000e+00  3.3602953819953572e-06 -2.1209380274578014e-05 0.0000000000000000e+00  3.0740316842525470e-06 -1.6871807428515749e-05 0.0000000000000000e+00  2.7175717814673314e-06 -1.2823910736994590e-05 0.0000000000000000e+00  2.3854251531715188e-06 -9.1745372648288044e-06 0.0000000000000000e+00  1.9489355390752465e-06 -5.8206943579861401e-06 0.0000000000000000e+00  1.4646581706730892e-06 -2.9133179444751025e-06 0.0000000000000000e+00  1.0598950983743784e-06 -3.3297517783402880e-07 0.0000000000000000e+00  5.4524818843219367e-07 1.8404808130009397e-06 0.0000000000000000e+00  1.5767837778673673e-07 3.5497846718120571e-06 0.0000000000000000e+00  -1.8860103443754789e-07 4.6299250851347873e-06 0.0000000000000000e+00  -1.6720004993872128e-07 4.9185118608160949e-06 0.0000000000000000e+00  -2.5235839670013538e-07 -5.3602275461123802e-07 0.0000000000000000e+00  -3.8800959101424922e-06 -2.7244876861365846e-04 0.0000000000000000e+00  -9.6186481311890331e-07 -2.5697336683481748e-04 0.0000000000000000e+00  2.8907321680917861e-06 -2.3170703497697677e-04 0.0000000000000000e+00  2.4317992369577392e-06 -2.8413337345111467e-06 0.0000000000000000e+00  4.9109246041002198e-06 -2.1585561667867290e-04 0.0000000000000000e+00  4.4112942365412416e-06 -6.7316816795893270e-06 0.0000000000000000e+00  6.8388503587585108e-06 -1.9983423021233704e-04 0.0000000000000000e+00  7.2603530910531794e-06 -1.6328636052188427e-05 0.0000000000000000e+00  8.8485604318839081e-06 -2.4188377242479526e-05 0.0000000000000000e+00  8.5069700159671297e-06 -1.8392971300270082e-04 0.0000000000000000e+00  1.1645394993933869e-05 -4.9413336491244823e-05 0.0000000000000000e+00  1.1073621048926343e-05 -1.5263423193361884e-04 0.0000000000000000e+00  1.0053989285021793e-05 -3.2918210920538067e-05 0.0000000000000000e+00  1.2445056652213994e-05 -6.0994485674600965e-05 0.0000000000000000e+00  1.1975974149225002e-05 -1.3734250951458852e-04 0.0000000000000000e+00  9.9179662853583806e-06 -1.6818086899113849e-04 0.0000000000000000e+00  1.2923505767500741e-05 -7.3550499595839727e-05 0.0000000000000000e+00  1.2625093050788951e-05 -1.2237008707625640e-04 0.0000000000000000e+00  1.3036556672185734e-05 -8.6197416935779482e-05 0.0000000000000000e+00  1.3147219135867275e-05 -1.0813797873383714e-04 0.0000000000000000e+00  1.3140839322725458e-05 -9.6594618892562867e-05 0.0000000000000000e+00  1.0970181727673857e-05 -4.0613086795498888e-05 0.0000000000000000e+00  7.5071717345454742e-07 -2.4477889742542409e-04 0.0000000000000000e+00  5.8704793970849054e-06 -1.1012470865929393e-05 0.0000000000000000e+00  -6.1769744960257321e-06 -2.6368196696604959e-04 0.0000000000000000e+00  6.4384165049944861e-07 7.3742098370280792e-07 0.0000000000000000e+00  2.7930430836160978e-06 -2.0684893379415743e-04 0.0000000000000000e+00  7.1823461285818948e-07 -2.2295895748467465e-04 0.0000000000000000e+00  4.4526276208499080e-06 -6.7891390988427055e-06 0.0000000000000000e+00  9.6276855467644363e-06 -2.1669992911419885e-05 0.0000000000000000e+00  7.5083201764839761e-06 -1.5926557242098229e-04 0.0000000000000000e+00  4.6144127780980040e-06 -1.9083764108413970e-04 0.0000000000000000e+00  1.4390443179285307e-05 -5.6470861056539092e-05 0.0000000000000000e+00  8.5883062923810996e-06 -1.4379649151442762e-04 0.0000000000000000e+00  1.1312355721787648e-05 -3.0213085100311696e-05 0.0000000000000000e+00  1.5143268456283171e-05 -6.8597543861236991e-05 0.0000000000000000e+00  9.4267084385958430e-06 -1.2861399436911808e-04 0.0000000000000000e+00  6.1846460802415055e-06 -1.7496199794124893e-04 0.0000000000000000e+00  1.6199059551661849e-05 -8.1700708805916542e-05 0.0000000000000000e+00  1.0026657623407600e-05 -1.1378610933527315e-04 0.0000000000000000e+00  -6.6087222642991151e-07 -1.4158896112323898e-06 0.0000000000000000e+00  -8.5070697557943084e-07 1.0864506429940061e-06 0.0000000000000000e+00  -2.6195252602365295e-06 -2.7946310509845525e-04 0.0000000000000000e+00  1.8427119098813863e-06 -3.9318428806859805e-06 0.0000