<?xml version="1.0"?>
<VTKFile type="UnstructuredGrid"  version="0.1"  >
<UnstructuredGrid>
<Piece  NumberOfPoints="1419" NumberOfCells="2698">
<Points>
<DataArray  type="Float64"  NumberOfComponents="3"  format="ascii">0 0 0  0 0.41 0  2.5 0 0  2.5 0.41 0  0.6 0.19 0  0.6 0.21 0  0.25 0.2 0  0.15 0.2 0  0.2489897948556636 0.21 0  0.2489897948556636 0.19 0  0.6 0.2 0  0 0.3807142857143437 0  0 0.3514285714286952 0  0 0.3221428571430699 0  0 0.29285714285744 0  0 0.2635714285718054 0  0 0.2342857142861561 0  0 0.2050000000005308 0  0 0.175714285714732 0  0 0.1464285714289574 0  0 0.1171428571431897 0  0 0.08785714285737878 0  0 0.05857142857161107 0  0 0.02928571428580012 0  0.03015443760436003 0 0  0.06140001986583606 0 0  0.09377624077125973 0 0  0.1273239957535082 0 0  0.1620856860351972 0 0  0.1981052433264291 0 0  0.235428184091502 0 0  0.2741016576309132 0 0  0.3141745521465447 0 0  0.3556974926295285 0 0  0.3987229542472677 0 0  0.4433053055141081 0 0  0.4895008759286886 0 0  0.5373680609405097 0 0  0.5869673343216626 0 0  0.6383613676634521 0 0  0.6916151138468254 0 0  0.7467958595648856 0 0  0.8039733463919316 0 0  0.8632198139502143 0 0  0.9246101326867038 0 0  0.9882218810934433 0 0  1.054135445558498 0 0  1.122434100542598 0 0  1.193204177141305 0 0  1.266535089879536 0 0  1.342519516046404 0 0  1.421253448503939 0 0  1.502836389106271 0 0  1.587371439758838 0 0  1.674965418777374 0 0  1.765729001825544 0 0  1.859776908880082 0 0  1.957227977487062 0 0  2.058205329869943 0 0  2.162836591189951 0 0  2.271253957290865 0 0  2.383594446803425 0 0  2.5 0.1024999999997612 0  2.5 0.2049999999994743 0  2.5 0.3074999999997183 0  2.383594446803656 0.41 0  2.271253957291315 0.41 0  2.162836591190598 0.41 0  2.058205329870775 0.41 0  1.957227977488067 0.41 0  1.859776908881246 0.41 0  1.765729001826854 0.41 0  1.674965418778818 0.41 0  1.58737143976041 0.41 0  1.502836389107956 0.41 0  1.421253448505726 0.41 0  1.342519516048286 0.41 0  1.266535089881505 0.41 0  1.193204177143353 0.41 0  1.122434100544716 0.41 0  1.05413544556068 0.41 0  0.9882218810956305 0.41 0  0.9246101326886647 0.41 0  0.8632198139519631 0.41 0  0.8039733463934788 0.41 0  0.7467958595662458 0.41 0  0.6916151138480078 0.41 0  0.6383613676644679 0.41 0  0.5869673343225223 0.41 0  0.5373680609412221 0.41 0  0.4895008759292634 0.41 0  0.4433053055145528 0.41 0  0.3987229542475914 0.41 0  0.3556974926297398 0.41 0  0.3141745521466497 0.41 0  0.2741016576310038 0.41 0  0.2354281840915826 0.41 0  0.1981052433265003 0.41 0  0.1620856860352591 0.41 0  0.1273239957535623 0.41 0  0.09377624077128965 0.41 0  0.06140001986584975 0.41 0  0.03015443760436654 0.41 0  0.2497468076502589 0.2050254481002335 0  0.2497468076502614 0.1949745518997913 0  0.2469965252529372 0.1829317073451959 0  0.2439893735792749 0.1762316384219906 0  0.2400332147834255 0.1700443375285386 0  0.2352133972704371 0.1645032867342007 0  0.2296339016332438 0.1597280261969788 0  0.2234150974217223 0.1558215752574715 0  0.2166911463437691 0.1528682099456123 0  0.2096071079204251 0.1509316448471593 0  0.2023158100364996 0.1500536585536553 0  0.194974551899914 0.1502531923497262 0  0.1877417105387872 0.1515259415822739 0  0.1807733240461124 0.153844448527136 0  0.1742197252835808 0.15715869474974 0  0.1682222986673531 0.1613971801805478 0  0.162910430003803 0.1664684656256651 0  0.1583987151779087 0.1722631454351573 0  0.1547844879126891 0.178656207771761 0  0.1521457199348551 0.1855097315605723 0  0.1505393388476355 0.1926758619366523 0  0.1505393388476328 0.2073241380633295 0  0.1521457199348437 0.2144902684393899 0  0.1547844879126531 0.221343792228163 0  0.1583987151778488 0.2277368545647528 0  0.1629104300036858 0.2335315343742052 0  0.1682222986671726 0.2386028198193036 0  0.1742197252833576 0.2428413052501257 0  0.1807733240458683 0.2461555514727623 0  0.1877417105384929 0.2484740584176516 0  0.1949745518995776 0.2497468076502398 0  0.202315810036185 0.2499463414463592 0  0.2096071079201568 0.2490683551528932 0  0.2166911463435495 0.2471317900544655 0  0.2234150974215506 0.2441784247426195 0  0.2296339016331197 0.2402719738031125 0  0.2352133972703547 0.2354967132658811 0  0.2400332147833751 0.2299556624715287 0  0.2439893735792577 0.2237683615780412 0  0.246996525252926 0.2170682926548348 0  0.25645809709277 0.21 0  0.2639263993298655 0.21 0  0.271394701566961 0.21 0  0.2788630038040554 0.21 0  0.2863313060411479 0.21 0  0.2937996082782405 0.21 0  0.301267910515333 0.21 0  0.3087362127524279 0.21 0  0.3162045149895234 0.21 0  0.3236728172265972 0.21 0  0.3311411194636928 0.21 0  0.3386094217007701 0.21 0  0.3460777239378666 0.21 0  0.3535460261749672 0.21 0  0.3610143284120516 0.21 0  0.3684826306491596 0.21 0  0.3759509328862226 0.21 0  0.383419235123329 0.21 0  0.3908875373604028 0.21 0  0.3983558395975142 0.21 0  0.4058241418345938 0.21 0  0.4132924440716992 0.21 0  0.4207607463087888 0.21 0  0.4282290485459029 0.21 0  0.4356973507830418 0.21 0  0.4431656530201649 0.21 0  0.4506339552573136 0.21 0  0.4581022574944306 0.21 0  0.4655705597315852 0.21 0  0.4730388619686996 0.21 0  0.480507164205851 0.21 0  0.4879754664429498 0.21 0  0.4954437686800938 0.21 0  0.502912070917267 0.21 0  0.5103803731544119 0.21 0  0.5178486753915261 0.21 0  0.5253169776286404 0.21 0  0.5327852798657868 0.21 0  0.5402535821029386 0.21 0  0.54772188434007 0.21 0  0.5551901865771842 0.21 0  0.5626584888143201 0.21 0  0.5701267910514778 0.21 0  0.5775950932886138 0.21 0  0.5850633955257281 0.21 0  0.5925316977628483 0.21 0  0.6 0.2050000000000054 0  0.6 0.1950000000000217 0  0.5925316977628897 0.19 0  0.5850633955257988 0.19 0  0.5775950932887378 0.19 0  0.5701267910515998 0.19 0  0.5626584888145268 0.19 0  0.5551901865773963 0.19 0  0.547721884340339 0.19 0  0.5402535821032429 0.19 0  0.5327852798661811 0.19 0  0.5253169776290537 0.19 0  0.5178486753919799 0.19 0  0.5103803731549078 0.19 0  0.502912070917822 0.19 0  0.4954437686807294 0.19 0  0.4879754664436223 0.19 0  0.4805071642065402 0.19 0  0.4730388619694271 0.19 0  0.4655705597323621 0.19 0  0.4581022574952563 0.19 0  0.4506339552581777 0.19 0  0.4431656530210671 0.19 0  0.4356973507839815 0.19 0  0.4282290485468779 0.19 0  0.4207607463097617 0.19 0  0.4132924440726327 0.19 0  0.4058241418354857 0.19 0  0.3983558395983636 0.19 0  0.3908875373612097 0.19 0  0.3834192351240934 0.19 0  0.3759509328869369 0.19 0  0.3684826306498175 0.19 0  0.361014328412667 0.19 0  0.3535460261755617 0.19 0  0.3460777239384295 0.19 0  0.3386094217012945 0.19 0  0.3311411194641595 0.19 0  0.3236728172270245 0.19 0  0.3162045149898895 0.19 0  0.3087362127527544 0.19 0  0.3012679105156187 0.19 0  0.2937996082784807 0.19 0  0.2863313060413428 0.19 0  0.2788630038042048 0.19 0  0.2713947015670686 0.19 0  0.2639263993299336 0.19 0  0.2564580970927985 0.19 0  0.2607803159922026 0.2000727136295815 0  0.5887803774232762 0.2001272386983733 0  0.5745072403740523 0.2002044435018727 0  0.5511891430099709 0.2001122610077113 0  0.2751288526855082 0.20000000000002 0  0.5365194309847112 0.1999999999999436 0  0.2894621222999649 0.1998691686390484 0  0.5215828265105155 0.1999999999999228 0  0.3127789816668748 0.1998657885438805 0  0.3274069683451451 0.2000000000000796 0  0.5066462220363641 0.199999999999908 0  0.3650630746574081 0.199866017807523 0  0.476773013087985 0.1999999999998713 0  0.3417402379596385 0.1998691686391011 0  0.3796850840047755 0.200000000000134 0  0.4618364086138087 0.1999999999998546 0  0.4917096175621762 0.1999999999998808 0  0.3946216884789568 0.2000000000001512 0  0.446899804139621 0.1999999999998389 0  0.4089549580935208 0.1998691686391595 0  0.4322718174608562 0.200127451265745 0  0.4201487168029707 0.1999966199048527 0  0.3528922713220932 0.2000185703532356 0  0.5633122436674589 0.1999814296467508 0  0.3006558810093873 0.1999966199048318 0  0.5815926498168407 0.1966545283159175 0  0.2677053789419034 0.1964246479135325 0  0.5290511287476175 0.1970915826863981 0  0.5439877332217911 0.197091582686394 0  0.2825131256993216 0.2035478995978015 0  0.3199386661080599 0.202908417313604 0  0.4842413153250809 0.1970915826863873 0  0.5141145242734466 0.1970915826863843 0  0.3722167817676917 0.2029084173136195 0  0.4693047108508938 0.1970915826863783 0  0.3348752705822316 0.202908417313609 0  0.3871533862418661 0.2029084173136212 0  0.4543681063767183 0.1970915826863795 0  0.4991779197992749 0.1970915826863902 0  0.4020059614928624 0.203547899597858 0  0.4394315019025246 0.1970915826863714 0  0.2550657455369551 0.2034088125358657 0  0.2548908499171161 0.1966940311614271 0  0.5946539510196798 0.2024302972968126 0  0.267698176732111 0.2039977513680092 0  0.4261685417851465 0.196409292431739 0  0.3590076176283495 0.196411355804271 0  0.5571672426447437 0.2036011176410121 0  0.3066757059912147 0.1964092924317024 0  0.594380730180568 0.1966558399668133 0  0.4842413153245942 0.2040749161535287 0  0.4693047108503577 0.2040749161535231 0  0.3871533862424271 0.1959250838464788 0  0.372246743208829 0.1959123236376545 0  0.5141145242731028 0.2040749161535395 0  0.4543681063761134 0.2040749161535186 0  0.4019979587101454 0.1959834479682427 0  0.4394608940728603 0.2040870543693135 0  0.5439623148931173 0.2040856076781014 0  0.5290511287473298 0.2040749161535501 0  0.4991779197988497 0.2040749161535382 0  0.3347912413592433 0.1959225448935183 0  0.3199680582793816 0.1959123018030061 0  0.2825051229162361 0.1959834479681729 0  0.3590471196690275 0.2036304442587945 0  0.5571594006495384 0.1963685282145804 0  0.3067669986803285 0.203627750582736 0  0.4262598344738712 0.2036568242185335 0  0.5814408164431408 0.2041285596160068 0  0.5688286748170428 0.1961819304477386 0  0.4145905603063645 0.2038180695522843 0  0.3473758401724931 0.2038180695522752 0  0.2950977245128307 0.2038180695522663 0  0.5688286748170693 0.203818069552238 0  0.2950977245127906 0.1961819304477774 0  0.3473758401723931 0.1961819304478349 0  0.4145905603061963 0.1961819304479011 0  0.2601812407614425 0.2056861609747042
[...]
<PointData  Vectors="f_40-0"> 
<DataArray  type="Float64"  Name="f_40-0"  NumberOfComponents="3" format="ascii">0.0000000000000000e+00 0.0000000000000000e+00 0.0000000000000000e+00  0.0000000000000000e+00 0.0000000000000000e+00 0.0000000000000000e+00  0.0000000000000000e+00 0.0000000000000000e+00 0.0000000000000000e+00  0.0000000000000000e+00 0.0000000000000000e+00 0.0000000000000000e+00  -1.8694519098883267e-05 -2.3955513645417857e-04 0.0000000000000000e+00  -1.5038442241760845e-07 -2.4539165116919422e-04 0.0000000000000000e+00  0.0000000000000000e+00 0.0000000000000000e+00 0.0000000000000000e+00  0.0000000000000000e+00 0.0000000000000000e+00 0.0000000000000000e+00  0.0000000000000000e+00 0.0000000000000000e+00 0.0000000000000000e+00  0.0000000000000000e+00 0.0000000000000000e+00 0.0000000000000000e+00  -9.8630168671279559e-06 -2.4247302279534959e-04 0.0000000000000000e+00  3.5800062140381401e-02 0.0000000000000000e+00 0.0000000000000000e+00  6.6092422413016202e-02 0.0000000000000000e+00 0.0000000000000000e+00  9.0877080817897304e-02 0.0000000000000000e+00 0.0000000000000000e+00  1.1015403735505337e-01 0.0000000000000000e+00 0.0000000000000000e+00  1.2392329202448196e-01 0.0000000000000000e+00 0.0000000000000000e+00  1.3218484482618217e-01 0.0000000000000000e+00 0.0000000000000000e+00  1.3493869576014578e-01 0.0000000000000000e+00 0.0000000000000000e+00  1.3218484482634918e-01 0.0000000000000000e+00 0.0000000000000000e+00  1.2392329202476884e-01 0.0000000000000000e+00 0.0000000000000000e+00  1.1015403735540867e-01 0.0000000000000000e+00 0.0000000000000000e+00  9.0877080818234840e-02 0.0000000000000000e+00 0.0000000000000000e+00  6.6092422413304236e-02 0.0000000000000000e+00 0.0000000000000000e+00  3.5800062140543702e-02 0.0000000000000000e+00 0.0000000000000000e+00  0.0000000000000000e+00 0.0000000000000000e+00 0.0000000000000000e+00  0.0000000000000000e+00 0.0000000000000000e+00 0.0000000000000000e+00  0.0000000000000000e+00 0.0000000000000000e+00 0.0000000000000000e+00  0.0000000000000000e+00 0.0000000000000000e+00 0.0000000000000000e+00  0.0000000000000000e+00 0.0000000000000000e+00 0.0000000000000000e+00  0.0000000000000000e+00 0.0000000000000000e+00 0.0000000000000000e+00  0.0000000000000000e+00 0.0000000000000000e+00 0.0000000000000000e+00  0.0000000000000000e+00 0.0000000000000000e+00 0.0000000000000000e+00  0.0000000000000000e+00 0.0000000000000000e+00 0.0000000000000000e+00  0.0000000000000000e+00 0.0000000000000000e+00 0.0000000000000000e+00  0.0000000000000000e+00 0.0000000000000000e+00 0.0000000000000000e+00  0.0000000000000000e+00 0.0000000000000000e+00 0.0000000000000000e+00  0.0000000000000000e+00 0.0000000000000000e+00 0.0000000000000000e+00  0.0000000000000000e+00 0.0000000000000000e+00 0.0000000000000000e+00  0.0000000000000000e+00 0.0000000000000000e+00 0.0000000000000000e+00  0.0000000000000000e+00 0.0000000000000000e+00 0.0000000000000000e+00  0.0000000000000000e+00 0.0000000000000000e+00 0.0000000000000000e+00  0.0000000000000000e+00 0.0000000000000000e+00 0.0000000000000000e+00  0.0000000000000000e+00 0.0000000000000000e+00 0.0000000000000000e+00  0.0000000000000000e+00 0.0000000000000000e+00 0.0000000000000000e+00  0.0000000000000000e+00 0.0000000000000000e+00 0.0000000000000000e+00  0.0000000000000000e+00 0.0000000000000000e+00 0.0000000000000000e+00  0.0000000000000000e+00 0.0000000000000000e+00 0.0000000000000000e+00  0.0000000000000000e+00 0.0000000000000000e+00 0.0000000000000000e+00  0.0000000000000000e+00 0.0000000000000000e+00 0.0000000000000000e+00  0.0000000000000000e+00 0.0000000000000000e+00 0.0000000000000000e+00  0.0000000000000000e+00 0.0000000000000000e+00 0.0000000000000000e+00  0.0000000000000000e+00 0.0000000000000000e+00 0.0000000000000000e+00  0.0000000000000000e+00 0.0000000000000000e+00 0.0000000000000000e+00  0.0000000000000000e+00 0.0000000000000000e+00 0.0000000000000000e+00  0.0000000000000000e+00 0.0000000000000000e+00 0.0000000000000000e+00  0.0000000000000000e+00 0.0000000000000000e+00 0.0000000000000000e+00  0.0000000000000000e+00 0.0000000000000000e+00 0.0000000000000000e+00  0.0000000000000000e+00 0.0000000000000000e+00 0.0000000000000000e+00  0.0000000000000000e+00 0.0000000000000000e+00 0.0000000000000000e+00  0.0000000000000000e+00 0.0000000000000000e+00 0.0000000000000000e+00  0.0000000000000000e+00 0.0000000000000000e+00 0.0000000000000000e+00  0.0000000000000000e+00 0.0000000000000000e+00 0.0000000000000000e+00  1.0770991816139780e-01 1.4437215438589447e-03 0.0000000000000000e+00  8.6260510982840974e-02 -2.8400215133578776e-04 0.0000000000000000e+00  1.0682839875879210e-01 -1.8131591082600769e-03 0.0000000000000000e+00  0.0000000000000000e+00 0.0000000000000000e+00 0.0000000000000000e+00  0.0000000000000000e+00 0.0000000000000000e+00 0.0000000000000000e+00  0.0000000000000000e+00 0.0000000000000000e+00 0.0000000000000000e+00  0.0000000000000000e+00 0.0000000000000000e+00 0.0000000000000000e+00  0.0000000000000000e+00 0.0000000000000000e+00 0.0000000000000000e+00  0.0000000000000000e+00 0.0000000000000000e+00 0.0000000000000000e+00  0.0000000000000000e+00 0.0000000000000000e+00 0.0000000000000000e+00  0.0000000000000000e+00 0.0000000000000000e+00 0.0000000000000000e+00  0.0000000000000000e+00 0.0000000000000000e+00 0.0000000000000000e+00  0.0000000000000000e+00 0.0000000000000000e+00 0.0000000000000000e+00  0.0000000000000000e+00 0.0000000000000000e+00 0.0000000000000000e+00  0.0000000000000000e+00 0.0000000000000000e+00 0.0000000000000000e+00  0.0000000000000000e+00 0.0000000000000000e+00 0.0000000000000000e+00  0.0000000000000000e+00 0.0000000000000000e+00 0.0000000000000000e+00  0.0000000000000000e+00 0.0000000000000000e+00 0.0000000000000000e+00  0.0000000000000000e+00 0.0000000000000000e+00 0.0000000000000000e+00  0.0000000000000000e+00 0.0000000000000000e+00 0.0000000000000000e+00  0.0000000000000000e+00 0.0000000000000000e+00 0.0000000000000000e+00  0.0000000000000000e+00 0.0000000000000000e+00 0.0000000000000000e+00  0.0000000000000000e+00 0.0000000000000000e+00 0.0000000000000000e+00  0.0000000000000000e+00 0.0000000000000000e+00 0.0000000000000000e+00  0.0000000000000000e+00 0.0000000000000000e+00 0.0000000000000000e+00  0.0000000000000000e+00 0.0000000000000000e+00 0.0000000000000000e+00  0.0000000000000000e+00 0.0000000000000000e+00 0.0000000000000000e+00  0.0000000000000000e+00 0.0000000000000000e+00 0.0000000000000000e+00  0.0000000000000000e+00 0.0000000000000000e+00 0.0000000000000000e+00  0.0000000000000000e+00 0.0000000000000000e+00 0.0000000000000000e+00  0.0000000000000000e+00 0.0000000000000000e+00 0.0000000000000000e+00  0.0000000000000000e+00 0.0000000000000000e+00 0.0000000000000000e+00  0.0000000000000000e+00 0.0000000000000000e+00 0.0000000000000000e+00  0.0000000000000000e+00 0.0000000000000000e+00 0.0000000000000000e+00  0.0000000000000000e+00 0.0000000000000000e+00 0.0000000000000000e+00  0.0000000000000000e+00 0.0000000000000000e+00 0.0000000000000000e+00  0.0000000000000000e+00 0.0000000000000000e+00 0.0000000000000000e+00  0.0000000000000000e+00 0.0000000000000000e+00 0.0000000000000000e+00  0.0000000000000000e+00 0.0000000000000000e+00 0.0000000000000000e+00  0.0000000000000000e+00 0.0000000000000000e+00 0.0000000000000000e+00  0.0000000000000000e+00 0.0000000000000000e+00 0.0000000000000000e+00  0.0000000000000000e+00 0.0000000000000000e+00 0.0000000000000000e+00  0.0000000000000000e+00 0.0000000000000000e+00 0.0000000000000000e+00  0.0000000000000000e+00 0.0000000000000000e+00 0.0000000000000000e+00  0.0000000000000000e+00 0.0000000000000000e+00 0.0000000000000000e+00  0.0000000000000000e+00 0.0000000000000000e+00 0.0000000000000000e+00  0.0000000000000000e+00 0.0000000000000000e+00 0.0000000000000000e+00  0.0000000000000000e+00 0.0000000000000000e+00 0.0000000000000000e+00  0.0000000000000000e+00 0.0000000000000000e+00 0.0000000000000000e+00  0.0000000000000000e+00 0.0000000000000000e+00 0.0000000000000000e+00  0.0000000000000000e+00 0.0000000000000000e+00 0.0000000000000000e+00  0.0000000000000000e+00 0.0000000000000000e+00 0.0000000000000000e+00  0.0000000000000000e+00 0.0000000000000000e+00 0.0000000000000000e+00  0.0000000000000000e+00 0.0000000000000000e+00 0.0000000000000000e+00  0.0000000000000000e+00 0.0000000000000000e+00 0.0000000000000000e+00  0.0000000000000000e+00 0.0000000000000000e+00 0.0000000000000000e+00  0.0000000000000000e+00 0.0000000000000000e+00 0.0000000000000000e+00  0.0000000000000000e+00 0.0000000000000000e+00 0.0000000000000000e+00  0.0000000000000000e+00 0.0000000000000000e+00 0.0000000000000000e+00  0.0000000000000000e+00 0.0000000000000000e+00 0.0000000000000000e+00  0.0000000000000000e+00 0.0000000000000000e+00 0.0000000000000000e+00  0.0000000000000000e+00 0.0000000000000000e+00 0.0000000000000000e+00  0.0000000000000000e+00 0.0000000000000000e+00 0.0000000000000000e+00  0.0000000000000000e+00 0.0000000000000000e+00 0.0000000000000000e+00  0.0000000000000000e+00 0.0000000000000000e+00 0.0000000000000000e+00  0.0000000000000000e+00 0.0000000000000000e+00 0.0000000000000000e+00  0.0000000000000000e+00 0.0000000000000000e+00 0.0000000000000000e+00  0.0000000000000000e+00 0.0000000000000000e+00 0.0000000000000000e+00  0.0000000000000000e+00 0.0000000000000000e+00 0.0000000000000000e+00  0.0000000000000000e+00 0.0000000000000000e+00 0.0000000000000000e+00  0.0000000000000000e+00 0.0000000000000000e+00 0.0000000000000000e+00  0.0000000000000000e+00 0.0000000000000000e+00 0.0000000000000000e+00  0.0000000000000000e+00 0.0000000000000000e+00 0.0000000000000000e+00  0.0000000000000000e+00 0.0000000000000000e+00 0.0000000000000000e+00  0.0000000000000000e+00 0.0000000000000000e+00 0.0000000000000000e+00  0.0000000000000000e+00 0.0000000000000000e+00 0.0000000000000000e+00  0.0000000000000000e+00 0.0000000000000000e+00 0.0000000000000000e+00  0.0000000000000000e+00 0.0000000000000000e+00 0.0000000000000000e+00  0.0000000000000000e+00 0.0000000000000000e+00 0.0000000000000000e+00  0.0000000000000000e+00 0.0000000000000000e+00 0.0000000000000000e+00  0.0000000000000000e+00 0.0000000000000000e+00 0.0000000000000000e+00  8.4918573768801923e-07 -5.7933755631940111e-06 0.0000000000000000e+00  1.9436250754383153e-06 -6.8080430932539195e-06 0.0000000000000000e+00  3.2476692451701155e-06 -7.9022312119754314e-06 0.0000000000000000e+00  4.7138112691612088e-06 -9.2391058287393782e-06 0.0000000000000000e+00  6.1077627265095071e-06 -1.0911708869247224e-05 0.0000000000000000e+00  7.5065010798615259e-06 -1.3012695141096920e-05 0.0000000000000000e+00  8.7602535913665312e-06 -1.5388157139105739e-05 0.0000000000000000e+00  9.9362573501164803e-06 -1.8130679005881771e-05 0.0000000000000000e+00  1.1131404705030304e-05 -2.1159859224248908e-05 0.0000000000000000e+00  1.2146404455576507e-05 -2.4457595799926583e-05 0.0000000000000000e+00  1.3183827297284385e-05 -2.8072322019215158e-05 0.0000000000000000e+00  1.4050397576513823e-05 -3.1912745784903873e-05 0.0000000000000000e+00  1.4908416541205208e-05 -3.6023396762497867e-05 0.0000000000000000e+00  1.5638552224299934e-05 -4.0335537887814082e-05 0.0000000000000000e+00  1.6286576756201290e-05 -4.4888584115385036e-05 0.0000000000000000e+00  1.6925504942662872e-05 -4.9640865196904984e-05 0.0000000000000000e+00  1.7415476031493611e-05 -5.4553755903754254e-05 0.0000000000000000e+00  1.7890645201489891e-05 -5.9689354298326372e-05 0.0000000000000000e+00  1.8230301340086656e-05 -6.4944725208776095e-05 0.0000000000000000e+00  1.8546550142201365e-05 -7.0393224115972988e-05 0.0000000000000000e+00  1.8748107163760607e-05 -7.5946965221059161e-05 0.0000000000000000e+00  1.8897171302996089e-05 -8.1661659583633482e-05 0.0000000000000000e+00  1.8958295355472458e-05 -8.7476100524164975e-05 0.0000000000000000e+00  1.8939860143422907e-05 -9.3412618171191691e-05 0.0000000000000000e+00  1.8889469821119236e-05 -9.9451632267699236e-05 0.0000000000000000e+00  1.8735918544833520e-05 -1.0556293620611458e-04 0.0000000000000000e+00  1.8518158376959213e-05 -1.1180316852100219e-04 0.0000000000000000e+00  1.8221976235631390e-05 -1.1807485597432821e-04 0.0000000000000000e+00  1.7861213868503833e-05 -1.2446027550673842e-04 0.0000000000000000e+00  1.7425526874931853e-05 -1.3086773878097675e-04 0.0000000000000000e+00  1.6925144532665124e-05 -1.3737332019871966e-04 0.0000000000000000e+00  1.6350421819126548e-05 -1.4388813719670791e-04 0.0000000000000000e+00  1.5713165033640610e-05 -1.5049049388219277e-04 0.0000000000000000e+00  1.5001302654721803e-05 -1.5708780230184083e-04 0.0000000000000000e+00  1.4222701101852378e-05 -1.6376653472677960e-04 0.0000000000000000e+00  1.3374616147123866e-05 -1.7043315246852487e-04 0.0000000000000000e+00  1.2462537108051600e-05 -1.7716845954268194e-04 0.0000000000000000e+00  1.1481214691596817e-05 -1.8388577102178996e-04 0.0000000000000000e+00  1.0432985468591805e-05 -1.9066433066673862e-04 0.0000000000000000e+00  9.3131596366965217e-06 -1.9741882683487478e-04 0.0000000000000000e+00  8.1174410019182840e-06 -2.0421397189348636e-04 0.0000000000000000e+00  6.8674393991049084e-06 -2.1100417896044289e-04 0.0000000000000000e+00  5.5378340680044902e-06 -2.1781021322184592e-04 0.0000000000000000e+00  4.1686340417164115e-06 -2.2462023143105103e-04 0.0000000000000000e+00  2.7192583139843978e-06 -2.3141197309251181e-04 0.0000000000000000e+00  1.2481231847359310e-06 -2.3826585837405004e-04 0.0000000000000000e+00  -5.1641985478609687e-06 -2.4393030649297017e-04 0.0000000000000000e+00  -1.4417412569342728e-05 -2.4102107084543150e-04 0.0000000000000000e+00  -1.7278057838726633e-05 -2.3284206944978854e-04 0.0000000000000000e+00  -1.5777223774144622e-05 -2.2586098145065467e-04 0.0000000000000000e+00  -1.4305159679368875e-05 -2.1884892433105500e-04 0.0000000000000000e+00  -1.2905603577822072e-05 -2.1187148720715258e-04 0.0000000000000000e+00  -1.1548759965031774e-05 -2.0490226511531322e-04 0.0000000000000000e+00  -1.0270270569199244e-05 -1.9794575680958461e-04 0.0000000000000000e+00  -9.0365871506358602e-06 -1.9101134750148052e-04 0.0000000000000000e+00  -7.8780778954680958e-06 -1.8406846802949248e-04 0.0000000000000000e+00  -6.7733039699424693e-06 -1.7717973899185072e-04 0.0000000000000000e+00  -5.7349982856995363e-06 -1.7027172415022226e-04 0.0000000000000000e+00  -4.7464517478118478e-06 -1.6342675358270602e-04 0.0000000000000000e+00  -3.8258386947475835e-06 -1.5657013757052314e-04 0.0000000000000000e+00  -2.9510078909662306e-06 -1.4978415484954034e-04 0.0000000000000000e+00  -2.1442498826078826e-06 -1.4299621863382654e-04 0.0000000000000000e+00  -1.3779458991967663e-06 -1.3628694189362546e-04 0.0000000000000000e+00  -6.8243177397054769e-07 -1.2958549387163940e-04 0.0000000000000000e+00  -2.2863954629835605e-08 -1.2297251188123938e-04 0.0000000000000000e+00  5.6314797456349282e-07 -1.1637893754683455e-04 0.0000000000000000e+00  1.1193168567193033e-06 -1.0988725834560087e-04 0.0000000000000000e+00  1.5992715943542152e-06 -1.0342993266083993e-04 0.0000000000000000e+00  2.0564395413794874e-06 -9.7087638868386444e-05 0.0000000000000000e+00  2.4333460800937351e-06 -9.0797051532478607e-05 0.0000000000000000e+00  2.7838502489419579e-06 -8.4624877131813303e-05 0.0000000000000000e+00  3.0705277843696923e-06 -7.8537161410135255e-05 0.0000000000000000e+00  3.2957749898816250e-06 -7.2582321195917998e-05 0.0000000000000000e+00  3.5196582048920455e-06 -6.6730122034348399e-05 0.0000000000000000e+00  3.6633380889885567e-06 -6.1004383348334326e-05 0.0000000000000000e+00  3.7790649652384379e-06 -5.5448761785318943e-05 0.0000000000000000e+00  3.8317994358932285e-06 -5.0013611856843454e-05 0.0000000000000000e+00  3.8553994376712702e-06 -4.4777570931880821e-05 0.0000000000000000e+00  3.8173610819107661e-06 -3.9678595924006812e-05 0.0000000000000000e+00  3.7663684465068748e-06 -3.4816613995874576e-05 0.0000000000000000e+00  3.6398609871369751e-06 -3.0111319571605605e-05 0.0000000000000000e+00  3.4596068045650002e-06 -2.5667394509310294e-05 0.0000000000000000e+00  3.3075151015664437e-06 -2.1408212943000204e-05 0.0000000000000000e+00  3.0695699635588294e-06 -1.7411146514721040e-05 0.0000000000000000e+00  2.8183588199186091e-06 -1.3697431706345557e-05 0.0000000000000000e+00  2.5008656627333105e-06 -1.0226583160482887e-05 0.0000000000000000e+00  2.1968579079469328e-06 -7.0976759410742565e-06 0.0000000000000000e+00  1.7994215291646252e-06 -4.2199649359366175e-06 0.0000000000000000e+00  1.3537416293389309e-06 -1.7235651550943449e-06 0.0000000000000000e+00  9.7196119039717312e-07 4.9291250706725497e-07 0.0000000000000000e+00  4.8816038409427309e-07 2.3687521870407897e-06 0.0000000000000000e+00  1.1741265158367250e-07 3.8447752611492082e-06 0.0000000000000000e+00  -2.0436951823386209e-07 4.7590218097309610e-06 0.0000000000000000e+00  -1.7740815657536873e-07 4.9501367707522131e-06 0.0000000000000000e+00  -3.9836135153791760e-07 -4.6656719250690920e-07 0.0000000000000000e+00  -7.3221436206884353e-06 -2.3210510008429735e-04 0.0000000000000000e+00  -4.3574462092182620e-06 -2.1893389889117930e-04 0.0000000000000000e+00  -3.6967808219650030e-07 -1.9742677168961247e-04 0.0000000000000000e+00  2.0767298244142065e-06 -2.4372626405476576e-06 0.0000000000000000e+00  1.7559142040727026e-06 -1.8393398725333741e-04 0.0000000000000000e+00  3.8532382148641665e-06 -5.7583913815332443e-06 0.0000000000000000e+00  3.7807276204402127e-06 -1.7030442821653106e-04 0.0000000000000000e+00  6.3734647743319941e-06 -1.3971659862066925e-05 0.0000000000000000e+00  7.7522006819051414e-06 -2.0702372350664366e-05 0.0000000000000000e+00  5.5538096304763972e-06 -1.5677616821753676e-04 0.0000000000000000e+00  1.0082007643625136e-05 -4.2236279485293754e-05 0.0000000000000000e+00  8.3538302526526520e-06 -1.3015686423328385e-04 0.0000000000000000e+00  8.7803774203883236e-06 -2.8152214723073876e-05 0.0000000000000000e+00  1.0693354849730789e-05 -5.2125757004528364e-05 0.0000000000000000e+00  9.3843073095493036e-06 -1.1714784034034083e-04 0.0000000000000000e+00  7.0776425327278727e-06 -1.4338081262344889e-04 0.0000000000000000e+00  1.1001879314854288e-05 -6.2830757874839254e-05 0.0000000000000000e+00  1.0169203193702846e-05 -1.0440742911708332e-04 0.0000000000000000e+00  1.0976353090049188e-05 -7.3598784657746163e-05 0.0000000000000000e+00  1.0813010318270626e-05 -9.2301045314389146e-05 0.0000000000000000e+00  1.0947825111796113e-05 -8.2463513548368164e-05 0.0000000000000000e+00  9.5412713097945470e-06 -3.4734894379541710e-05 0.0000000000000000e+00  -2.5528718903707841e-06 -2.0854468308644438e-04 0.0000000000000000e+00  5.1465106034040121e-06 -9.4329683177934228e-06 0.0000000000000000e+00  -9.0306136709659431e-06 -2.2448925582525806e-04 0.0000000000000000e+00  4.7672234601672084e-07 9.3060467623055872e-07 0.0000000000000000e+00  1.5024712440376576e-07 -1.7612161363159872e-04 0.0000000000000000e+00  -2.0152548828443246e-06 -1.8983330144391102e-04 0.0000000000000000e+00  3.8518606173555676e-06 -6.0974402819548282e-06 0.0000000000000000e+00  8.4104413687956673e-06 -1.8768547350669936e-05 0.0000000000000000e+00  5.1781233665396996e-06 -1.3563060173222091e-04 0.0000000000000000e+00  2.0693123174197365e-06 -1.6249607968981305e-04 0.0000000000000000e+00  1.2392192996095899e-05 -4.8471630753867259e-05 0.0000000000000000e+00  6.3744531131313326e-06 -1.2246621606546923e-04 0.0000000000000000e+00  9.8591624283279187e-06 -2.6066307864025350e-05 0.0000000000000000e+00  1.2947514499445629e-05 -5.8808687553236990e-05 0.0000000000000000e+00  7.3348228827998298e-06 -1.0954320197950208e-04 0.0000000000000000e+00  3.7439042990303495e-06 -1.4898712146439467e-04 0.0000000000000000e+00  1.3733513928432973e-05 -7.0014952343609420e-05 0.0000000000000000e+00  8.0622967939386332e-06 -9.6918398593429716e-05 0.0000000000000000e+00  -7.4113085409589979e-07 -1.3923469308116560e-06 0.0000000000000000e+00  -9.0057200219180043e-07 1.0903215479043937e-06 0.0000000000000000e+00  -6.4545782465456494e-06 -2.3817791996675857e-04 0.0000000000000000e+00  1.5064941895679977e-06 -3.7066332071498525e-06 0