<?xml version="1.0"?>
<VTKFile type="UnstructuredGrid"  version="0.1"  >
<UnstructuredGrid>
<Piece  NumberOfPoints="1419" NumberOfCells="2698">
<Points>
<DataArray  type="Float64"  NumberOfComponents="3"  format="ascii">0 0 0  0 0.41 0  2.5 0 0  2.5 0.41 0  0.6 0.19 0  0.6 0.21 0  0.25 0.2 0  0.15 0.2 0  0.2489897948556636 0.21 0  0.2489897948556636 0.19 0  0.6 0.2 0  0 0.3807142857143437 0  0 0.3514285714286952 0  0 0.3221428571430699 0  0 0.29285714285744 0  0 0.2635714285718054 0  0 0.2342857142861561 0  0 0.2050000000005308 0  0 0.175714285714732 0  0 0.1464285714289574 0  0 0.1171428571431897 0  0 0.08785714285737878 0  0 0.05857142857161107 0  0 0.02928571428580012 0  0.03015443760436003 0 0  0.06140001986583606 0 0  0.09377624077125973 0 0  0.1273239957535082 0 0  0.1620856860351972 0 0  0.1981052433264291 0 0  0.235428184091502 0 0  0.2741016576309132 0 0  0.3141745521465447 0 0  0.3556974926295285 0 0  0.3987229542472677 0 0  0.4433053055141081 0 0  0.4895008759286886 0 0  0.5373680609405097 0 0  0.5869673343216626 0 0  0.6383613676634521 0 0  0.6916151138468254 0 0  0.7467958595648856 0 0  0.8039733463919316 0 0  0.8632198139502143 0 0  0.9246101326867038 0 0  0.9882218810934433 0 0  1.054135445558498 0 0  1.122434100542598 0 0  1.193204177141305 0 0  1.266535089879536 0 0  1.342519516046404 0 0  1.421253448503939 0 0  1.502836389106271 0 0  1.587371439758838 0 0  1.674965418777374 0 0  1.765729001825544 0 0  1.859776908880082 0 0  1.957227977487062 0 0  2.058205329869943 0 0  2.162836591189951 0 0  2.271253957290865 0 0  2.383594446803425 0 0  2.5 0.1024999999997612 0  2.5 0.2049999999994743 0  2.5 0.3074999999997183 0  2.383594446803656 0.41 0  2.271253957291315 0.41 0  2.162836591190598 0.41 0  2.058205329870775 0.41 0  1.957227977488067 0.41 0  1.859776908881246 0.41 0  1.765729001826854 0.41 0  1.674965418778818 0.41 0  1.58737143976041 0.41 0  1.502836389107956 0.41 0  1.421253448505726 0.41 0  1.342519516048286 0.41 0  1.266535089881505 0.41 0  1.193204177143353 0.41 0  1.122434100544716 0.41 0  1.05413544556068 0.41 0  0.9882218810956305 0.41 0  0.9246101326886647 0.41 0  0.8632198139519631 0.41 0  0.8039733463934788 0.41 0  0.7467958595662458 0.41 0  0.6916151138480078 0.41 0  0.6383613676644679 0.41 0  0.5869673343225223 0.41 0  0.5373680609412221 0.41 0  0.4895008759292634 0.41 0  0.4433053055145528 0.41 0  0.3987229542475914 0.41 0  0.3556974926297398 0.41 0  0.3141745521466497 0.41 0  0.2741016576310038 0.41 0  0.2354281840915826 0.41 0  0.1981052433265003 0.41 0  0.1620856860352591 0.41 0  0.1273239957535623 0.41 0  0.09377624077128965 0.41 0  0.06140001986584975 0.41 0  0.03015443760436654 0.41 0  0.2497468076502589 0.2050254481002335 0  0.2497468076502614 0.1949745518997913 0  0.2469965252529372 0.1829317073451959 0  0.2439893735792749 0.1762316384219906 0  0.2400332147834255 0.1700443375285386 0  0.2352133972704371 0.1645032867342007 0  0.2296339016332438 0.1597280261969788 0  0.2234150974217223 0.1558215752574715 0  0.2166911463437691 0.1528682099456123 0  0.2096071079204251 0.1509316448471593 0  0.2023158100364996 0.1500536585536553 0  0.194974551899914 0.1502531923497262 0  0.1877417105387872 0.1515259415822739 0  0.1807733240461124 0.153844448527136 0  0.1742197252835808 0.15715869474974 0  0.1682222986673531 0.1613971801805478 0  0.162910430003803 0.1664684656256651 0  0.1583987151779087 0.1722631454351573 0  0.1547844879126891 0.178656207771761 0  0.1521457199348551 0.1855097315605723 0  0.1505393388476355 0.1926758619366523 0  0.1505393388476328 0.2073241380633295 0  0.1521457199348437 0.2144902684393899 0  0.1547844879126531 0.221343792228163 0  0.1583987151778488 0.2277368545647528 0  0.1629104300036858 0.2335315343742052 0  0.1682222986671726 0.2386028198193036 0  0.1742197252833576 0.2428413052501257 0  0.1807733240458683 0.2461555514727623 0  0.1877417105384929 0.2484740584176516 0  0.1949745518995776 0.2497468076502398 0  0.202315810036185 0.2499463414463592 0  0.2096071079201568 0.2490683551528932 0  0.2166911463435495 0.2471317900544655 0  0.2234150974215506 0.2441784247426195 0  0.2296339016331197 0.2402719738031125 0  0.2352133972703547 0.2354967132658811 0  0.2400332147833751 0.2299556624715287 0  0.2439893735792577 0.2237683615780412 0  0.246996525252926 0.2170682926548348 0  0.25645809709277 0.21 0  0.2639263993298655 0.21 0  0.271394701566961 0.21 0  0.2788630038040554 0.21 0  0.2863313060411479 0.21 0  0.2937996082782405 0.21 0  0.301267910515333 0.21 0  0.3087362127524279 0.21 0  0.3162045149895234 0.21 0  0.3236728172265972 0.21 0  0.3311411194636928 0.21 0  0.3386094217007701 0.21 0  0.3460777239378666 0.21 0  0.3535460261749672 0.21 0  0.3610143284120516 0.21 0  0.3684826306491596 0.21 0  0.3759509328862226 0.21 0  0.383419235123329 0.21 0  0.3908875373604028 0.21 0  0.3983558395975142 0.21 0  0.4058241418345938 0.21 0  0.4132924440716992 0.21 0  0.4207607463087888 0.21 0  0.4282290485459029 0.21 0  0.4356973507830418 0.21 0  0.4431656530201649 0.21 0  0.4506339552573136 0.21 0  0.4581022574944306 0.21 0  0.4655705597315852 0.21 0  0.4730388619686996 0.21 0  0.480507164205851 0.21 0  0.4879754664429498 0.21 0  0.4954437686800938 0.21 0  0.502912070917267 0.21 0  0.5103803731544119 0.21 0  0.5178486753915261 0.21 0  0.5253169776286404 0.21 0  0.5327852798657868 0.21 0  0.5402535821029386 0.21 0  0.54772188434007 0.21 0  0.5551901865771842 0.21 0  0.5626584888143201 0.21 0  0.5701267910514778 0.21 0  0.5775950932886138 0.21 0  0.5850633955257281 0.21 0  0.5925316977628483 0.21 0  0.6 0.2050000000000054 0  0.6 0.1950000000000217 0  0.5925316977628897 0.19 0  0.5850633955257988 0.19 0  0.5775950932887378 0.19 0  0.5701267910515998 0.19 0  0.5626584888145268 0.19 0  0.5551901865773963 0.19 0  0.547721884340339 0.19 0  0.5402535821032429 0.19 0  0.5327852798661811 0.19 0  0.5253169776290537 0.19 0  0.5178486753919799 0.19 0  0.5103803731549078 0.19 0  0.502912070917822 0.19 0  0.4954437686807294 0.19 0  0.4879754664436223 0.19 0  0.4805071642065402 0.19 0  0.4730388619694271 0.19 0  0.4655705597323621 0.19 0  0.4581022574952563 0.19 0  0.4506339552581777 0.19 0  0.4431656530210671 0.19 0  0.4356973507839815 0.19 0  0.4282290485468779 0.19 0  0.4207607463097617 0.19 0  0.4132924440726327 0.19 0  0.4058241418354857 0.19 0  0.3983558395983636 0.19 0  0.3908875373612097 0.19 0  0.3834192351240934 0.19 0  0.3759509328869369 0.19 0  0.3684826306498175 0.19 0  0.361014328412667 0.19 0  0.3535460261755617 0.19 0  0.3460777239384295 0.19 0  0.3386094217012945 0.19 0  0.3311411194641595 0.19 0  0.3236728172270245 0.19 0  0.3162045149898895 0.19 0  0.3087362127527544 0.19 0  0.3012679105156187 0.19 0  0.2937996082784807 0.19 0  0.2863313060413428 0.19 0  0.2788630038042048 0.19 0  0.2713947015670686 0.19 0  0.2639263993299336 0.19 0  0.2564580970927985 0.19 0  0.2607803159922026 0.2000727136295815 0  0.5887803774232762 0.2001272386983733 0  0.5745072403740523 0.2002044435018727 0  0.5511891430099709 0.2001122610077113 0  0.2751288526855082 0.20000000000002 0  0.5365194309847112 0.1999999999999436 0  0.2894621222999649 0.1998691686390484 0  0.5215828265105155 0.1999999999999228 0  0.3127789816668748 0.1998657885438805 0  0.3274069683451451 0.2000000000000796 0  0.5066462220363641 0.199999999999908 0  0.3650630746574081 0.199866017807523 0  0.476773013087985 0.1999999999998713 0  0.3417402379596385 0.1998691686391011 0  0.3796850840047755 0.200000000000134 0  0.4618364086138087 0.1999999999998546 0  0.4917096175621762 0.1999999999998808 0  0.3946216884789568 0.2000000000001512 0  0.446899804139621 0.1999999999998389 0  0.4089549580935208 0.1998691686391595 0  0.4322718174608562 0.200127451265745 0  0.4201487168029707 0.1999966199048527 0  0.3528922713220932 0.2000185703532356 0  0.5633122436674589 0.1999814296467508 0  0.3006558810093873 0.1999966199048318 0  0.5815926498168407 0.1966545283159175 0  0.2677053789419034 0.1964246479135325 0  0.5290511287476175 0.1970915826863981 0  0.5439877332217911 0.197091582686394 0  0.2825131256993216 0.2035478995978015 0  0.3199386661080599 0.202908417313604 0  0.4842413153250809 0.1970915826863873 0  0.5141145242734466 0.1970915826863843 0  0.3722167817676917 0.2029084173136195 0  0.4693047108508938 0.1970915826863783 0  0.3348752705822316 0.202908417313609 0  0.3871533862418661 0.2029084173136212 0  0.4543681063767183 0.1970915826863795 0  0.4991779197992749 0.1970915826863902 0  0.4020059614928624 0.203547899597858 0  0.4394315019025246 0.1970915826863714 0  0.2550657455369551 0.2034088125358657 0  0.2548908499171161 0.1966940311614271 0  0.5946539510196798 0.2024302972968126 0  0.267698176732111 0.2039977513680092 0  0.4261685417851465 0.196409292431739 0  0.3590076176283495 0.196411355804271 0  0.5571672426447437 0.2036011176410121 0  0.3066757059912147 0.1964092924317024 0  0.594380730180568 0.1966558399668133 0  0.4842413153245942 0.2040749161535287 0  0.4693047108503577 0.2040749161535231 0  0.3871533862424271 0.1959250838464788 0  0.372246743208829 0.1959123236376545 0  0.5141145242731028 0.2040749161535395 0  0.4543681063761134 0.2040749161535186 0  0.4019979587101454 0.1959834479682427 0  0.4394608940728603 0.2040870543693135 0  0.5439623148931173 0.2040856076781014 0  0.5290511287473298 0.2040749161535501 0  0.4991779197988497 0.2040749161535382 0  0.3347912413592433 0.1959225448935183 0  0.3199680582793816 0.1959123018030061 0  0.2825051229162361 0.1959834479681729 0  0.3590471196690275 0.2036304442587945 0  0.5571594006495384 0.1963685282145804 0  0.3067669986803285 0.203627750582736 0  0.4262598344738712 0.2036568242185335 0  0.5814408164431408 0.2041285596160068 0  0.5688286748170428 0.1961819304477386 0  0.4145905603063645 0.2038180695522843 0  0.3473758401724931 0.2038180695522752 0  0.2950977245128307 0.2038180695522663 0  0.5688286748170693 0.203818069552238 0  0.2950977245127906 0.1961819304477774 0  0.3473758401723931 0.1961819304478349 0  0.4145905603061963 0.1961819304479011 0  0.2601812407614425 0.2056861609747042
[...]
<PointData  Vectors="f_40-0"> 
<DataArray  type="Float64"  Name="f_40-0"  NumberOfComponents="3" format="ascii">0.0000000000000000e+00 0.0000000000000000e+00 0.0000000000000000e+00  0.0000000000000000e+00 0.0000000000000000e+00 0.0000000000000000e+00  0.0000000000000000e+00 0.0000000000000000e+00 0.0000000000000000e+00  0.0000000000000000e+00 0.0000000000000000e+00 0.0000000000000000e+00  -9.0293592548358482e-05 -1.4703813540037837e-03 0.0000000000000000e+00  5.8443021864216955e-05 -1.4726253373718067e-03 0.0000000000000000e+00  0.0000000000000000e+00 0.0000000000000000e+00 0.0000000000000000e+00  0.0000000000000000e+00 0.0000000000000000e+00 0.0000000000000000e+00  0.0000000000000000e+00 0.0000000000000000e+00 0.0000000000000000e+00  0.0000000000000000e+00 0.0000000000000000e+00 0.0000000000000000e+00  -1.6486531266123275e-05 -1.4714709520967377e-03 0.0000000000000000e+00  3.5062544201293694e-01 0.0000000000000000e+00 0.0000000000000000e+00  6.4730850833161890e-01 0.0000000000000000e+00 0.0000000000000000e+00  8.9004919895597601e-01 0.0000000000000000e+00 0.0000000000000000e+00  1.0788475138862896e+00 0.0000000000000000e+00 0.0000000000000000e+00  1.2137034531225350e+00 0.0000000000000000e+00 0.0000000000000000e+00  1.2946170166647042e+00 0.0000000000000000e+00 0.0000000000000000e+00  1.3215882045127163e+00 0.0000000000000000e+00 0.0000000000000000e+00  1.2946170166663400e+00 0.0000000000000000e+00 0.0000000000000000e+00  1.2137034531253450e+00 0.0000000000000000e+00 0.0000000000000000e+00  1.0788475138897695e+00 0.0000000000000000e+00 0.0000000000000000e+00  8.9004919895928192e-01 0.0000000000000000e+00 0.0000000000000000e+00  6.4730850833443987e-01 0.0000000000000000e+00 0.0000000000000000e+00  3.5062544201452644e-01 0.0000000000000000e+00 0.0000000000000000e+00  0.0000000000000000e+00 0.0000000000000000e+00 0.0000000000000000e+00  0.0000000000000000e+00 0.0000000000000000e+00 0.0000000000000000e+00  0.0000000000000000e+00 0.0000000000000000e+00 0.0000000000000000e+00  0.0000000000000000e+00 0.0000000000000000e+00 0.0000000000000000e+00  0.0000000000000000e+00 0.0000000000000000e+00 0.0000000000000000e+00  0.0000000000000000e+00 0.0000000000000000e+00 0.0000000000000000e+00  0.0000000000000000e+00 0.0000000000000000e+00 0.0000000000000000e+00  0.0000000000000000e+00 0.0000000000000000e+00 0.0000000000000000e+00  0.0000000000000000e+00 0.0000000000000000e+00 0.0000000000000000e+00  0.0000000000000000e+00 0.0000000000000000e+00 0.0000000000000000e+00  0.0000000000000000e+00 0.0000000000000000e+00 0.0000000000000000e+00  0.0000000000000000e+00 0.0000000000000000e+00 0.0000000000000000e+00  0.0000000000000000e+00 0.0000000000000000e+00 0.0000000000000000e+00  0.0000000000000000e+00 0.0000000000000000e+00 0.0000000000000000e+00  0.0000000000000000e+00 0.0000000000000000e+00 0.0000000000000000e+00  0.0000000000000000e+00 0.0000000000000000e+00 0.0000000000000000e+00  0.0000000000000000e+00 0.0000000000000000e+00 0.0000000000000000e+00  0.0000000000000000e+00 0.0000000000000000e+00 0.0000000000000000e+00  0.0000000000000000e+00 0.0000000000000000e+00 0.0000000000000000e+00  0.0000000000000000e+00 0.0000000000000000e+00 0.0000000000000000e+00  0.0000000000000000e+00 0.0000000000000000e+00 0.0000000000000000e+00  0.0000000000000000e+00 0.0000000000000000e+00 0.0000000000000000e+00  0.0000000000000000e+00 0.0000000000000000e+00 0.0000000000000000e+00  0.0000000000000000e+00 0.0000000000000000e+00 0.0000000000000000e+00  0.0000000000000000e+00 0.0000000000000000e+00 0.0000000000000000e+00  0.0000000000000000e+00 0.0000000000000000e+00 0.0000000000000000e+00  0.0000000000000000e+00 0.0000000000000000e+00 0.0000000000000000e+00  0.0000000000000000e+00 0.0000000000000000e+00 0.0000000000000000e+00  0.0000000000000000e+00 0.0000000000000000e+00 0.0000000000000000e+00  0.0000000000000000e+00 0.0000000000000000e+00 0.0000000000000000e+00  0.0000000000000000e+00 0.0000000000000000e+00 0.0000000000000000e+00  0.0000000000000000e+00 0.0000000000000000e+00 0.0000000000000000e+00  0.0000000000000000e+00 0.0000000000000000e+00 0.0000000000000000e+00  0.0000000000000000e+00 0.0000000000000000e+00 0.0000000000000000e+00  0.0000000000000000e+00 0.0000000000000000e+00 0.0000000000000000e+00  0.0000000000000000e+00 0.0000000000000000e+00 0.0000000000000000e+00  0.0000000000000000e+00 0.0000000000000000e+00 0.0000000000000000e+00  0.0000000000000000e+00 0.0000000000000000e+00 0.0000000000000000e+00  1.2002588789247777e+00 -3.5164820234063060e-02 0.0000000000000000e+00  9.1511528514819618e-01 1.5066075565932905e-02 0.0000000000000000e+00  1.1944424551566091e+00 4.7165116062585354e-02 0.0000000000000000e+00  0.0000000000000000e+00 0.0000000000000000e+00 0.0000000000000000e+00  0.0000000000000000e+00 0.0000000000000000e+00 0.0000000000000000e+00  0.0000000000000000e+00 0.0000000000000000e+00 0.0000000000000000e+00  0.0000000000000000e+00 0.0000000000000000e+00 0.0000000000000000e+00  0.0000000000000000e+00 0.0000000000000000e+00 0.0000000000000000e+00  0.0000000000000000e+00 0.0000000000000000e+00 0.0000000000000000e+00  0.0000000000000000e+00 0.0000000000000000e+00 0.0000000000000000e+00  0.0000000000000000e+00 0.0000000000000000e+00 0.0000000000000000e+00  0.0000000000000000e+00 0.0000000000000000e+00 0.0000000000000000e+00  0.0000000000000000e+00 0.0000000000000000e+00 0.0000000000000000e+00  0.0000000000000000e+00 0.0000000000000000e+00 0.0000000000000000e+00  0.0000000000000000e+00 0.0000000000000000e+00 0.0000000000000000e+00  0.0000000000000000e+00 0.0000000000000000e+00 0.0000000000000000e+00  0.0000000000000000e+00 0.0000000000000000e+00 0.0000000000000000e+00  0.0000000000000000e+00 0.0000000000000000e+00 0.0000000000000000e+00  0.0000000000000000e+00 0.0000000000000000e+00 0.0000000000000000e+00  0.0000000000000000e+00 0.0000000000000000e+00 0.0000000000000000e+00  0.0000000000000000e+00 0.0000000000000000e+00 0.0000000000000000e+00  0.0000000000000000e+00 0.0000000000000000e+00 0.0000000000000000e+00  0.0000000000000000e+00 0.0000000000000000e+00 0.0000000000000000e+00  0.0000000000000000e+00 0.0000000000000000e+00 0.0000000000000000e+00  0.0000000000000000e+00 0.0000000000000000e+00 0.0000000000000000e+00  0.0000000000000000e+00 0.0000000000000000e+00 0.0000000000000000e+00  0.0000000000000000e+00 0.0000000000000000e+00 0.0000000000000000e+00  0.0000000000000000e+00 0.0000000000000000e+00 0.0000000000000000e+00  0.0000000000000000e+00 0.0000000000000000e+00 0.0000000000000000e+00  0.0000000000000000e+00 0.0000000000000000e+00 0.0000000000000000e+00  0.0000000000000000e+00 0.0000000000000000e+00 0.0000000000000000e+00  0.0000000000000000e+00 0.0000000000000000e+00 0.0000000000000000e+00  0.0000000000000000e+00 0.0000000000000000e+00 0.0000000000000000e+00  0.0000000000000000e+00 0.0000000000000000e+00 0.0000000000000000e+00  0.0000000000000000e+00 0.0000000000000000e+00 0.0000000000000000e+00  0.0000000000000000e+00 0.0000000000000000e+00 0.0000000000000000e+00  0.0000000000000000e+00 0.0000000000000000e+00 0.0000000000000000e+00  0.0000000000000000e+00 0.0000000000000000e+00 0.0000000000000000e+00  0.0000000000000000e+00 0.0000000000000000e+00 0.0000000000000000e+00  0.0000000000000000e+00 0.0000000000000000e+00 0.0000000000000000e+00  0.0000000000000000e+00 0.0000000000000000e+00 0.0000000000000000e+00  0.0000000000000000e+00 0.0000000000000000e+00 0.0000000000000000e+00  0.0000000000000000e+00 0.0000000000000000e+00 0.0000000000000000e+00  0.0000000000000000e+00 0.0000000000000000e+00 0.0000000000000000e+00  0.0000000000000000e+00 0.0000000000000000e+00 0.0000000000000000e+00  0.0000000000000000e+00 0.0000000000000000e+00 0.0000000000000000e+00  0.0000000000000000e+00 0.0000000000000000e+00 0.0000000000000000e+00  0.0000000000000000e+00 0.0000000000000000e+00 0.0000000000000000e+00  0.0000000000000000e+00 0.0000000000000000e+00 0.0000000000000000e+00  0.0000000000000000e+00 0.0000000000000000e+00 0.0000000000000000e+00  0.0000000000000000e+00 0.0000000000000000e+00 0.0000000000000000e+00  0.0000000000000000e+00 0.0000000000000000e+00 0.0000000000000000e+00  0.0000000000000000e+00 0.0000000000000000e+00 0.0000000000000000e+00  0.0000000000000000e+00 0.0000000000000000e+00 0.0000000000000000e+00  0.0000000000000000e+00 0.0000000000000000e+00 0.0000000000000000e+00  0.0000000000000000e+00 0.0000000000000000e+00 0.0000000000000000e+00  0.0000000000000000e+00 0.0000000000000000e+00 0.0000000000000000e+00  0.0000000000000000e+00 0.0000000000000000e+00 0.0000000000000000e+00  0.0000000000000000e+00 0.0000000000000000e+00 0.0000000000000000e+00  0.0000000000000000e+00 0.0000000000000000e+00 0.0000000000000000e+00  0.0000000000000000e+00 0.0000000000000000e+00 0.0000000000000000e+00  0.0000000000000000e+00 0.0000000000000000e+00 0.0000000000000000e+00  0.0000000000000000e+00 0.0000000000000000e+00 0.0000000000000000e+00  0.0000000000000000e+00 0.0000000000000000e+00 0.0000000000000000e+00  0.0000000000000000e+00 0.0000000000000000e+00 0.0000000000000000e+00  0.0000000000000000e+00 0.0000000000000000e+00 0.0000000000000000e+00  0.0000000000000000e+00 0.0000000000000000e+00 0.0000000000000000e+00  0.0000000000000000e+00 0.0000000000000000e+00 0.0000000000000000e+00  0.0000000000000000e+00 0.0000000000000000e+00 0.0000000000000000e+00  0.0000000000000000e+00 0.0000000000000000e+00 0.0000000000000000e+00  0.0000000000000000e+00 0.0000000000000000e+00 0.0000000000000000e+00  0.0000000000000000e+00 0.0000000000000000e+00 0.0000000000000000e+00  0.0000000000000000e+00 0.0000000000000000e+00 0.0000000000000000e+00  0.0000000000000000e+00 0.0000000000000000e+00 0.0000000000000000e+00  0.0000000000000000e+00 0.0000000000000000e+00 0.0000000000000000e+00  0.0000000000000000e+00 0.0000000000000000e+00 0.0000000000000000e+00  0.0000000000000000e+00 0.0000000000000000e+00 0.0000000000000000e+00  0.0000000000000000e+00 0.0000000000000000e+00 0.0000000000000000e+00  0.0000000000000000e+00 0.0000000000000000e+00 0.0000000000000000e+00  0.0000000000000000e+00 0.0000000000000000e+00 0.0000000000000000e+00  0.0000000000000000e+00 0.0000000000000000e+00 0.0000000000000000e+00  -3.4083201294575228e-06 4.0702998267334567e-06 0.0000000000000000e+00  -6.5533475986571075e-06 6.9841088527161893e-06 0.0000000000000000e+00  -9.1032610653646818e-06 1.0282816064004108e-05 0.0000000000000000e+00  -1.1141707224737470e-05 1.3969403331890452e-05 0.0000000000000000e+00  -1.2690932899399638e-05 1.7264049696065205e-05 0.0000000000000000e+00  -1.3516845857175578e-05 2.0037884867694212e-05 0.0000000000000000e+00  -1.4143647518279804e-05 2.1964023345457815e-05 0.0000000000000000e+00  -1.4301140235112240e-05 2.2452952680240774e-05 0.0000000000000000e+00  -1.3666352952995363e-05 2.1537528870633411e-05 0.0000000000000000e+00  -1.3127735242880291e-05 1.8694493103785046e-05 0.0000000000000000e+00  -1.1502475804041833e-05 1.3875512285140393e-05 0.0000000000000000e+00  -1.0269054094214711e-05 6.6032914194905416e-06 0.0000000000000000e+00  -7.9336037395817370e-06 -3.0905449620981797e-06 0.0000000000000000e+00  -6.0280044329070144e-06 -1.5063136641064511e-05 0.0000000000000000e+00  -3.7779666772834259e-06 -3.0111819795006599e-05 0.0000000000000000e+00  -6.4106953835842435e-07 -4.7626782532143225e-05 0.0000000000000000e+00  1.8496751858365466e-06 -6.8040627105439862e-05 0.0000000000000000e+00  5.4460678098977472e-06 -9.1170719640411765e-05 0.0000000000000000e+00  8.2031491374025678e-06 -1.1721117717701133e-04 0.0000000000000000e+00  1.1911903837736442e-05 -1.4576224839020905e-04 0.0000000000000000e+00  1.4984912892187480e-05 -1.7715392134675024e-04 0.0000000000000000e+00  1.8710535484860574e-05 -2.1112604983635280e-04 0.0000000000000000e+00  2.1748880471798900e-05 -2.4711709479294502e-04 0.0000000000000000e+00  2.4831128068330880e-05 -2.8575436002681499e-04 0.0000000000000000e+00  2.8311250053672295e-05 -3.2615053298749912e-04 0.0000000000000000e+00  3.1316854662290751e-05 -3.6872864810713428e-04 0.0000000000000000e+00  3.4378383077875602e-05 -4.1306558781730119e-04 0.0000000000000000e+00  3.7129342686992718e-05 -4.5899939234089288e-04 0.0000000000000000e+00  3.9867780290151370e-05 -5.0645938521834996e-04 0.0000000000000000e+00  4.2292035115831813e-05 -5.5516071084503417e-04 0.0000000000000000e+00  4.4659507606204195e-05 -6.0509483584406804e-04 0.0000000000000000e+00  4.6730131167703768e-05 -6.5596261106339190e-04 0.0000000000000000e+00  4.8707016885818224e-05 -7.0778719753081113e-04 0.0000000000000000e+00  5.0419985796734709e-05 -7.6027628172042959e-04 0.0000000000000000e+00  5.2009042279558289e-05 -8.1348511410619668e-04 0.0000000000000000e+00  5.3358399853216665e-05 -8.6712595708211837e-04 0.0000000000000000e+00  5.4578632957709864e-05 -9.2127977126191436e-04 0.0000000000000000e+00  5.5590305486425403e-05 -9.7568904849288187e-04 0.0000000000000000e+00  5.6469307630238982e-05 -1.0304536899670357e-03 0.0000000000000000e+00  5.7161631792721598e-05 -1.0853420183774905e-03 0.0000000000000000e+00  5.7713101779609163e-05 -1.1404570628817375e-03 0.0000000000000000e+00  5.8114510357099903e-05 -1.1956277262711299e-03 0.0000000000000000e+00  5.8366778966089301e-05 -1.2509048109877882e-03 0.0000000000000000e+00  5.8542415747532514e-05 -1.3062198808791456e-03 0.0000000000000000e+00  5.8551775284628978e-05 -1.3615278313279138e-03 0.0000000000000000e+00  5.8477231856774695e-05 -1.4169263870460488e-03 0.0000000000000000e+00  2.0771331400856235e-05 -1.4720445007142214e-03 0.0000000000000000e+00  -5.3560742981224256e-05 -1.4709132193895169e-03 0.0000000000000000e+00  -9.0188947969546459e-05 -1.4149639063439023e-03 0.0000000000000000e+00  -9.0016579607697666e-05 -1.3593452178647515e-03 0.0000000000000000e+00  -8.9909258185940342e-05 -1.3037031565640636e-03 0.0000000000000000e+00  -8.9883318111177380e-05 -1.2481540301871837e-03 0.0000000000000000e+00  -8.9916269610914199e-05 -1.1926574667478235e-03 0.0000000000000000e+00  -9.0020726523166140e-05 -1.1372726881755874e-03 0.0000000000000000e+00  -9.0111942043875909e-05 -1.0820137109724896e-03 0.0000000000000000e+00  -9.0290478470729350e-05 -1.0269054267413287e-03 0.0000000000000000e+00  -9.0389237768593773e-05 -9.7205678473529314e-04 0.0000000000000000e+00  -9.0571579424060297e-05 -9.1747248486637265e-04 0.0000000000000000e+00  -9.0584670420232308e-05 -8.6326821283527809e-04 0.0000000000000000e+00  -9.0687227376228178e-05 -8.0950808724360222e-04 0.0000000000000000e+00  -9.0509431935623767e-05 -7.5629511174652852e-04 0.0000000000000000e+00  -9.0438411885538795e-05 -7.0375550385409563e-04 0.0000000000000000e+00  -8.9962001912945243e-05 -6.5197164151158723e-04 0.0000000000000000e+00  -8.9630584324369090e-05 -6.0113289776276429e-04 0.0000000000000000e+00  -8.8756962021443371e-05 -5.5129676800393394e-04 0.0000000000000000e+00  -8.8072110069039799e-05 -5.0271743627353961e-04 0.0000000000000000e+00  -8.6691568208329659e-05 -4.5541675909000927e-04 0.0000000000000000e+00  -8.5562142208591154e-05 -4.0970557928529742e-04 0.0000000000000000e+00  -8.3576643543535031e-05 -3.6558831676719664e-04 0.0000000000000000e+00  -8.1914799864473635e-05 -3.2341679861120487e-04 0.0000000000000000e+00  -7.9303118828266572e-05 -2.8321841787699230e-04 0.0000000000000000e+00  -7.6963931302827460e-05 -2.4501235816762432e-04 0.0000000000000000e+00  -7.4330531001380007e-05 -2.0944843763413836e-04 0.0000000000000000e+00  -7.0898446861713998e-05 -1.7582773081980613e-04 0.0000000000000000e+00  -6.7573498072528681e-05 -1.4508694777161683e-04 0.0000000000000000e+00  -6.3669221869447581e-05 -1.1677089901688348e-04 0.0000000000000000e+00  -5.9810903887207959e-05 -9.1370492385676300e-05 0.0000000000000000e+00  -5.5472247471620629e-05 -6.8593440944412994e-05 0.0000000000000000e+00  -5.1226188977202851e-05 -4.8641418208012184e-05 0.0000000000000000e+00  -4.6336352664399214e-05 -3.1691007691329878e-05 0.0000000000000000e+00  -4.2033591616686687e-05 -1.7046755791811889e-05 0.0000000000000000e+00  -3.7706318159826204e-05 -5.4740152289870418e-06 0.0000000000000000e+00  -3.2821853259462668e-05 4.0228947094454557e-06 0.0000000000000000e+00  -2.8405960149433237e-05 1.0850041328974612e-05 0.0000000000000000e+00  -2.3891881919110147e-05 1.5462788888545786e-05 0.0000000000000000e+00  -1.9785280244522569e-05 1.8112048147097192e-05 0.0000000000000000e+00  -1.5652631760293705e-05 1.8754426757685116e-05 0.0000000000000000e+00  -1.2151061235750885e-05 1.8155370520607839e-05 0.0000000000000000e+00  -8.9942052444739947e-06 1.6123522506051170e-05 0.0000000000000000e+00  -5.9757979658758911e-06 1.3303072021772080e-05 0.0000000000000000e+00  -3.5828481505957612e-06 9.9014531724087298e-06 0.0000000000000000e+00  -1.7154358248737078e-06 6.1729577231967845e-06 0.0000000000000000e+00  -3.9450612686048233e-07 2.9334091563364507e-06 0.0000000000000000e+00  8.4514563632304274e-08 3.0484257296704844e-07 0.0000000000000000e+00  -2.3247080675528898e-06 3.0312493865250601e-06 0.0000000000000000e+00  -1.5090821694701434e-05 -1.3880483183958919e-03 0.0000000000000000e+00  -1.4303046868453880e-05 -1.2820116193068898e-03 0.0000000000000000e+00  -1.5603974645358604e-05 -1.1091862069651456e-03 0.0000000000000000e+00  -6.3350487273312430e-06 1.0025085468327138e-05 0.0000000000000000e+00  -1.7273033158590777e-05 -1.0010638865441451e-03 0.0000000000000000e+00  -1.0056485622268091e-05 1.6974984471789697e-05 0.0000000000000000e+00  -1.8413645644379216e-05 -8.9195889516272475e-04 0.0000000000000000e+00  -1.5903514905802105e-05 2.1452844349029622e-05 0.0000000000000000e+00  -1.9132992167518048e-05 1.6330238133478158e-05 0.0000000000000000e+00  -1.9788622706404057e-05 -7.8441321709201252e-04 0.0000000000000000e+00  -2.5799845288972669e-05 -3.8116938669622233e-05 0.0000000000000000e+00  -2.2917235406118448e-05 -5.7729932626770391e-04 0.0000000000000000e+00  -2.2130261063425787e-05 3.2199682772297879e-06 0.0000000000000000e+00  -2.6874097994948186e-05 -7.7691552165682777e-05 0.0000000000000000e+00  -2.4475219874578121e-05 -4.7979168137733360e-04 0.0000000000000000e+00  -2.1319208860639247e-05 -6.7920777480852640e-04 0.0000000000000000e+00  -2.7667665178046915e-05 -1.2915637194251518e-04 0.0000000000000000e+00  -2.5881601748629331e-05 -3.8792841942128942e-04 0.0000000000000000e+00  -2.8424943800854124e-05 -1.8867373752857385e-04 0.0000000000000000e+00  -2.6292338798944057e-05 -3.0471026209745222e-04 0.0000000000000000e+00  -2.7551116263410504e-05 -2.4194444212526401e-04 0.0000000000000000e+00  -2.3745158023730691e-05 -1.3685621257865019e-05 0.0000000000000000e+00  -1.6176622160998226e-05 -1.1989327117795062e-03 0.0000000000000000e+00  -1.2921621988262665e-05 2.0484148264140805e-05 0.0000000000000000e+00  -4.0703756482124575e-05 -1.3342467267878206e-03 0.0000000000000000e+00  -3.1630939132750906e-06 5.5076152707911975e-06 0.0000000000000000e+00  -3.8965362431515203e-05 -9.4585003633172011e-04 0.0000000000000000e+00  -3.8176432214782778e-05 -1.0555315033857660e-03 0.0000000000000000e+00  -9.5033253176870483e-06 1.4491269792175395e-05 0.0000000000000000e+00  -1.6221759130446190e-05 2.0221458722709708e-05 0.0000000000000000e+00  -4.1797674167520129e-05 -6.2728968572235190e-04 0.0000000000000000e+00  -3.9901935350225024e-05 -8.3742677424605177e-04 0.0000000000000000e+00  -1.8343287907697652e-05 -5.6248668596029480e-05 0.0000000000000000e+00  -4.2515739917488772e-05 -5.2748600105482503e-04 0.0000000000000000e+00  -1.7819828568359655e-05 1.0808037893724227e-05 0.0000000000000000e+00  -1.7398896565619972e-05 -1.0229969444748653e-04 0.0000000000000000e+00  -4.2902411737236126e-05 -4.3270937181605433e-04 0.0000000000000000e+00  -4.0884812322525323e-05 -7.3094676766833559e-04 0.0000000000000000e+00  -1.3240093845692334e-05 -1.5906999646235503e-04 0.0000000000000000e+00  -4.2855333875155417e-05 -3.4425406269126673e-04 0.0000000000000000e+00  -1.1436107256270551e-06 1.5299955377028561e-06 0.0000000000000000e+00  -6.1934731948251450e-07 5.7489479636340748e-07 0.0000000000000000e+00  1.8119482756514904e-06 -1.4319473088790051e-03 0.0000000000000000e+00  -5.606