<?xml version="1.0"?>
<VTKFile type="UnstructuredGrid"  version="0.1"  >
<UnstructuredGrid>
<Piece  NumberOfPoints="1419" NumberOfCells="2698">
<Points>
<DataArray  type="Float64"  NumberOfComponents="3"  format="ascii">0 0 0  0 0.41 0  2.5 0 0  2.5 0.41 0  0.6 0.19 0  0.6 0.21 0  0.25 0.2 0  0.15 0.2 0  0.2489897948556636 0.21 0  0.2489897948556636 0.19 0  0.6 0.2 0  0 0.3807142857143437 0  0 0.3514285714286952 0  0 0.3221428571430699 0  0 0.29285714285744 0  0 0.2635714285718054 0  0 0.2342857142861561 0  0 0.2050000000005308 0  0 0.175714285714732 0  0 0.1464285714289574 0  0 0.1171428571431897 0  0 0.08785714285737878 0  0 0.05857142857161107 0  0 0.02928571428580012 0  0.03015443760436003 0 0  0.06140001986583606 0 0  0.09377624077125973 0 0  0.1273239957535082 0 0  0.1620856860351972 0 0  0.1981052433264291 0 0  0.235428184091502 0 0  0.2741016576309132 0 0  0.3141745521465447 0 0  0.3556974926295285 0 0  0.3987229542472677 0 0  0.4433053055141081 0 0  0.4895008759286886 0 0  0.5373680609405097 0 0  0.5869673343216626 0 0  0.6383613676634521 0 0  0.6916151138468254 0 0  0.7467958595648856 0 0  0.8039733463919316 0 0  0.8632198139502143 0 0  0.9246101326867038 0 0  0.9882218810934433 0 0  1.054135445558498 0 0  1.122434100542598 0 0  1.193204177141305 0 0  1.266535089879536 0 0  1.342519516046404 0 0  1.421253448503939 0 0  1.502836389106271 0 0  1.587371439758838 0 0  1.674965418777374 0 0  1.765729001825544 0 0  1.859776908880082 0 0  1.957227977487062 0 0  2.058205329869943 0 0  2.162836591189951 0 0  2.271253957290865 0 0  2.383594446803425 0 0  2.5 0.1024999999997612 0  2.5 0.2049999999994743 0  2.5 0.3074999999997183 0  2.383594446803656 0.41 0  2.271253957291315 0.41 0  2.162836591190598 0.41 0  2.058205329870775 0.41 0  1.957227977488067 0.41 0  1.859776908881246 0.41 0  1.765729001826854 0.41 0  1.674965418778818 0.41 0  1.58737143976041 0.41 0  1.502836389107956 0.41 0  1.421253448505726 0.41 0  1.342519516048286 0.41 0  1.266535089881505 0.41 0  1.193204177143353 0.41 0  1.122434100544716 0.41 0  1.05413544556068 0.41 0  0.9882218810956305 0.41 0  0.9246101326886647 0.41 0  0.8632198139519631 0.41 0  0.8039733463934788 0.41 0  0.7467958595662458 0.41 0  0.6916151138480078 0.41 0  0.6383613676644679 0.41 0  0.5869673343225223 0.41 0  0.5373680609412221 0.41 0  0.4895008759292634 0.41 0  0.4433053055145528 0.41 0  0.3987229542475914 0.41 0  0.3556974926297398 0.41 0  0.3141745521466497 0.41 0  0.2741016576310038 0.41 0  0.2354281840915826 0.41 0  0.1981052433265003 0.41 0  0.1620856860352591 0.41 0  0.1273239957535623 0.41 0  0.09377624077128965 0.41 0  0.06140001986584975 0.41 0  0.03015443760436654 0.41 0  0.2497468076502589 0.2050254481002335 0  0.2497468076502614 0.1949745518997913 0  0.2469965252529372 0.1829317073451959 0  0.2439893735792749 0.1762316384219906 0  0.2400332147834255 0.1700443375285386 0  0.2352133972704371 0.1645032867342007 0  0.2296339016332438 0.1597280261969788 0  0.2234150974217223 0.1558215752574715 0  0.2166911463437691 0.1528682099456123 0  0.2096071079204251 0.1509316448471593 0  0.2023158100364996 0.1500536585536553 0  0.194974551899914 0.1502531923497262 0  0.1877417105387872 0.1515259415822739 0  0.1807733240461124 0.153844448527136 0  0.1742197252835808 0.15715869474974 0  0.1682222986673531 0.1613971801805478 0  0.162910430003803 0.1664684656256651 0  0.1583987151779087 0.1722631454351573 0  0.1547844879126891 0.178656207771761 0  0.1521457199348551 0.1855097315605723 0  0.1505393388476355 0.1926758619366523 0  0.1505393388476328 0.2073241380633295 0  0.1521457199348437 0.2144902684393899 0  0.1547844879126531 0.221343792228163 0  0.1583987151778488 0.2277368545647528 0  0.1629104300036858 0.2335315343742052 0  0.1682222986671726 0.2386028198193036 0  0.1742197252833576 0.2428413052501257 0  0.1807733240458683 0.2461555514727623 0  0.1877417105384929 0.2484740584176516 0  0.1949745518995776 0.2497468076502398 0  0.202315810036185 0.2499463414463592 0  0.2096071079201568 0.2490683551528932 0  0.2166911463435495 0.2471317900544655 0  0.2234150974215506 0.2441784247426195 0  0.2296339016331197 0.2402719738031125 0  0.2352133972703547 0.2354967132658811 0  0.2400332147833751 0.2299556624715287 0  0.2439893735792577 0.2237683615780412 0  0.246996525252926 0.2170682926548348 0  0.25645809709277 0.21 0  0.2639263993298655 0.21 0  0.271394701566961 0.21 0  0.2788630038040554 0.21 0  0.2863313060411479 0.21 0  0.2937996082782405 0.21 0  0.301267910515333 0.21 0  0.3087362127524279 0.21 0  0.3162045149895234 0.21 0  0.3236728172265972 0.21 0  0.3311411194636928 0.21 0  0.3386094217007701 0.21 0  0.3460777239378666 0.21 0  0.3535460261749672 0.21 0  0.3610143284120516 0.21 0  0.3684826306491596 0.21 0  0.3759509328862226 0.21 0  0.383419235123329 0.21 0  0.3908875373604028 0.21 0  0.3983558395975142 0.21 0  0.4058241418345938 0.21 0  0.4132924440716992 0.21 0  0.4207607463087888 0.21 0  0.4282290485459029 0.21 0  0.4356973507830418 0.21 0  0.4431656530201649 0.21 0  0.4506339552573136 0.21 0  0.4581022574944306 0.21 0  0.4655705597315852 0.21 0  0.4730388619686996 0.21 0  0.480507164205851 0.21 0  0.4879754664429498 0.21 0  0.4954437686800938 0.21 0  0.502912070917267 0.21 0  0.5103803731544119 0.21 0  0.5178486753915261 0.21 0  0.5253169776286404 0.21 0  0.5327852798657868 0.21 0  0.5402535821029386 0.21 0  0.54772188434007 0.21 0  0.5551901865771842 0.21 0  0.5626584888143201 0.21 0  0.5701267910514778 0.21 0  0.5775950932886138 0.21 0  0.5850633955257281 0.21 0  0.5925316977628483 0.21 0  0.6 0.2050000000000054 0  0.6 0.1950000000000217 0  0.5925316977628897 0.19 0  0.5850633955257988 0.19 0  0.5775950932887378 0.19 0  0.5701267910515998 0.19 0  0.5626584888145268 0.19 0  0.5551901865773963 0.19 0  0.547721884340339 0.19 0  0.5402535821032429 0.19 0  0.5327852798661811 0.19 0  0.5253169776290537 0.19 0  0.5178486753919799 0.19 0  0.5103803731549078 0.19 0  0.502912070917822 0.19 0  0.4954437686807294 0.19 0  0.4879754664436223 0.19 0  0.4805071642065402 0.19 0  0.4730388619694271 0.19 0  0.4655705597323621 0.19 0  0.4581022574952563 0.19 0  0.4506339552581777 0.19 0  0.4431656530210671 0.19 0  0.4356973507839815 0.19 0  0.4282290485468779 0.19 0  0.4207607463097617 0.19 0  0.4132924440726327 0.19 0  0.4058241418354857 0.19 0  0.3983558395983636 0.19 0  0.3908875373612097 0.19 0  0.3834192351240934 0.19 0  0.3759509328869369 0.19 0  0.3684826306498175 0.19 0  0.361014328412667 0.19 0  0.3535460261755617 0.19 0  0.3460777239384295 0.19 0  0.3386094217012945 0.19 0  0.3311411194641595 0.19 0  0.3236728172270245 0.19 0  0.3162045149898895 0.19 0  0.3087362127527544 0.19 0  0.3012679105156187 0.19 0  0.2937996082784807 0.19 0  0.2863313060413428 0.19 0  0.2788630038042048 0.19 0  0.2713947015670686 0.19 0  0.2639263993299336 0.19 0  0.2564580970927985 0.19 0  0.2607803159922026 0.2000727136295815 0  0.5887803774232762 0.2001272386983733 0  0.5745072403740523 0.2002044435018727 0  0.5511891430099709 0.2001122610077113 0  0.2751288526855082 0.20000000000002 0  0.5365194309847112 0.1999999999999436 0  0.2894621222999649 0.1998691686390484 0  0.5215828265105155 0.1999999999999228 0  0.3127789816668748 0.1998657885438805 0  0.3274069683451451 0.2000000000000796 0  0.5066462220363641 0.199999999999908 0  0.3650630746574081 0.199866017807523 0  0.476773013087985 0.1999999999998713 0  0.3417402379596385 0.1998691686391011 0  0.3796850840047755 0.200000000000134 0  0.4618364086138087 0.1999999999998546 0  0.4917096175621762 0.1999999999998808 0  0.3946216884789568 0.2000000000001512 0  0.446899804139621 0.1999999999998389 0  0.4089549580935208 0.1998691686391595 0  0.4322718174608562 0.200127451265745 0  0.4201487168029707 0.1999966199048527 0  0.3528922713220932 0.2000185703532356 0  0.5633122436674589 0.1999814296467508 0  0.3006558810093873 0.1999966199048318 0  0.5815926498168407 0.1966545283159175 0  0.2677053789419034 0.1964246479135325 0  0.5290511287476175 0.1970915826863981 0  0.5439877332217911 0.197091582686394 0  0.2825131256993216 0.2035478995978015 0  0.3199386661080599 0.202908417313604 0  0.4842413153250809 0.1970915826863873 0  0.5141145242734466 0.1970915826863843 0  0.3722167817676917 0.2029084173136195 0  0.4693047108508938 0.1970915826863783 0  0.3348752705822316 0.202908417313609 0  0.3871533862418661 0.2029084173136212 0  0.4543681063767183 0.1970915826863795 0  0.4991779197992749 0.1970915826863902 0  0.4020059614928624 0.203547899597858 0  0.4394315019025246 0.1970915826863714 0  0.2550657455369551 0.2034088125358657 0  0.2548908499171161 0.1966940311614271 0  0.5946539510196798 0.2024302972968126 0  0.267698176732111 0.2039977513680092 0  0.4261685417851465 0.196409292431739 0  0.3590076176283495 0.196411355804271 0  0.5571672426447437 0.2036011176410121 0  0.3066757059912147 0.1964092924317024 0  0.594380730180568 0.1966558399668133 0  0.4842413153245942 0.2040749161535287 0  0.4693047108503577 0.2040749161535231 0  0.3871533862424271 0.1959250838464788 0  0.372246743208829 0.1959123236376545 0  0.5141145242731028 0.2040749161535395 0  0.4543681063761134 0.2040749161535186 0  0.4019979587101454 0.1959834479682427 0  0.4394608940728603 0.2040870543693135 0  0.5439623148931173 0.2040856076781014 0  0.5290511287473298 0.2040749161535501 0  0.4991779197988497 0.2040749161535382 0  0.3347912413592433 0.1959225448935183 0  0.3199680582793816 0.1959123018030061 0  0.2825051229162361 0.1959834479681729 0  0.3590471196690275 0.2036304442587945 0  0.5571594006495384 0.1963685282145804 0  0.3067669986803285 0.203627750582736 0  0.4262598344738712 0.2036568242185335 0  0.5814408164431408 0.2041285596160068 0  0.5688286748170428 0.1961819304477386 0  0.4145905603063645 0.2038180695522843 0  0.3473758401724931 0.2038180695522752 0  0.2950977245128307 0.2038180695522663 0  0.5688286748170693 0.203818069552238 0  0.2950977245127906 0.1961819304477774 0  0.3473758401723931 0.1961819304478349 0  0.4145905603061963 0.1961819304479011 0  0.2601812407614425 0.2056861609747042
[...]
<PointData  Vectors="f_40-0"> 
<DataArray  type="Float64"  Name="f_40-0"  NumberOfComponents="3" format="ascii">0.0000000000000000e+00 0.0000000000000000e+00 0.0000000000000000e+00  0.0000000000000000e+00 0.0000000000000000e+00 0.0000000000000000e+00  0.0000000000000000e+00 0.0000000000000000e+00 0.0000000000000000e+00  0.0000000000000000e+00 0.0000000000000000e+00 0.0000000000000000e+00  -1.2612059962287373e-04 -3.6390795388360140e-04 0.0000000000000000e+00  -1.4542144344015906e-05 -3.6482780117404434e-04 0.0000000000000000e+00  0.0000000000000000e+00 0.0000000000000000e+00 0.0000000000000000e+00  0.0000000000000000e+00 0.0000000000000000e+00 0.0000000000000000e+00  0.0000000000000000e+00 0.0000000000000000e+00 0.0000000000000000e+00  0.0000000000000000e+00 0.0000000000000000e+00 0.0000000000000000e+00  -7.0735538195335553e-05 -3.6432040536981823e-04 0.0000000000000000e+00  4.2300963518907553e-01 0.0000000000000000e+00 0.0000000000000000e+00  7.8094086496449899e-01 0.0000000000000000e+00 0.0000000000000000e+00  1.0737936893261864e+00 0.0000000000000000e+00 0.0000000000000000e+00  1.3015681082744763e+00 0.0000000000000000e+00 0.0000000000000000e+00  1.4642641218093400e+00 0.0000000000000000e+00 0.0000000000000000e+00  1.5618817299307672e+00 0.0000000000000000e+00 0.0000000000000000e+00  1.5944209326386605e+00 0.0000000000000000e+00 0.0000000000000000e+00  1.5618817299327408e+00 0.0000000000000000e+00 0.0000000000000000e+00  1.4642641218127301e+00 0.0000000000000000e+00 0.0000000000000000e+00  1.3015681082786748e+00 0.0000000000000000e+00 0.0000000000000000e+00  1.0737936893301747e+00 0.0000000000000000e+00 0.0000000000000000e+00  7.8094086496790238e-01 0.0000000000000000e+00 0.0000000000000000e+00  4.2300963519099322e-01 0.0000000000000000e+00 0.0000000000000000e+00  0.0000000000000000e+00 0.0000000000000000e+00 0.0000000000000000e+00  0.0000000000000000e+00 0.0000000000000000e+00 0.0000000000000000e+00  0.0000000000000000e+00 0.0000000000000000e+00 0.0000000000000000e+00  0.0000000000000000e+00 0.0000000000000000e+00 0.0000000000000000e+00  0.0000000000000000e+00 0.0000000000000000e+00 0.0000000000000000e+00  0.0000000000000000e+00 0.0000000000000000e+00 0.0000000000000000e+00  0.0000000000000000e+00 0.0000000000000000e+00 0.0000000000000000e+00  0.0000000000000000e+00 0.0000000000000000e+00 0.0000000000000000e+00  0.0000000000000000e+00 0.0000000000000000e+00 0.0000000000000000e+00  0.0000000000000000e+00 0.0000000000000000e+00 0.0000000000000000e+00  0.0000000000000000e+00 0.0000000000000000e+00 0.0000000000000000e+00  0.0000000000000000e+00 0.0000000000000000e+00 0.0000000000000000e+00  0.0000000000000000e+00 0.0000000000000000e+00 0.0000000000000000e+00  0.0000000000000000e+00 0.0000000000000000e+00 0.0000000000000000e+00  0.0000000000000000e+00 0.0000000000000000e+00 0.0000000000000000e+00  0.0000000000000000e+00 0.0000000000000000e+00 0.0000000000000000e+00  0.0000000000000000e+00 0.0000000000000000e+00 0.0000000000000000e+00  0.0000000000000000e+00 0.0000000000000000e+00 0.0000000000000000e+00  0.0000000000000000e+00 0.0000000000000000e+00 0.0000000000000000e+00  0.0000000000000000e+00 0.0000000000000000e+00 0.0000000000000000e+00  0.0000000000000000e+00 0.0000000000000000e+00 0.0000000000000000e+00  0.0000000000000000e+00 0.0000000000000000e+00 0.0000000000000000e+00  0.0000000000000000e+00 0.0000000000000000e+00 0.0000000000000000e+00  0.0000000000000000e+00 0.0000000000000000e+00 0.0000000000000000e+00  0.0000000000000000e+00 0.0000000000000000e+00 0.0000000000000000e+00  0.0000000000000000e+00 0.0000000000000000e+00 0.0000000000000000e+00  0.0000000000000000e+00 0.0000000000000000e+00 0.0000000000000000e+00  0.0000000000000000e+00 0.0000000000000000e+00 0.0000000000000000e+00  0.0000000000000000e+00 0.0000000000000000e+00 0.0000000000000000e+00  0.0000000000000000e+00 0.0000000000000000e+00 0.0000000000000000e+00  0.0000000000000000e+00 0.0000000000000000e+00 0.0000000000000000e+00  0.0000000000000000e+00 0.0000000000000000e+00 0.0000000000000000e+00  0.0000000000000000e+00 0.0000000000000000e+00 0.0000000000000000e+00  0.0000000000000000e+00 0.0000000000000000e+00 0.0000000000000000e+00  0.0000000000000000e+00 0.0000000000000000e+00 0.0000000000000000e+00  0.0000000000000000e+00 0.0000000000000000e+00 0.0000000000000000e+00  0.0000000000000000e+00 0.0000000000000000e+00 0.0000000000000000e+00  0.0000000000000000e+00 0.0000000000000000e+00 0.0000000000000000e+00  1.4515691672992772e+00 -3.6044262823873720e-02 0.0000000000000000e+00  1.1386696712306872e+00 1.2993709236191031e-02 0.0000000000000000e+00  1.4356604892477889e+00 5.2712529305101175e-02 0.0000000000000000e+00  0.0000000000000000e+00 0.0000000000000000e+00 0.0000000000000000e+00  0.0000000000000000e+00 0.0000000000000000e+00 0.0000000000000000e+00  0.0000000000000000e+00 0.0000000000000000e+00 0.0000000000000000e+00  0.0000000000000000e+00 0.0000000000000000e+00 0.0000000000000000e+00  0.0000000000000000e+00 0.0000000000000000e+00 0.0000000000000000e+00  0.0000000000000000e+00 0.0000000000000000e+00 0.0000000000000000e+00  0.0000000000000000e+00 0.0000000000000000e+00 0.0000000000000000e+00  0.0000000000000000e+00 0.0000000000000000e+00 0.0000000000000000e+00  0.0000000000000000e+00 0.0000000000000000e+00 0.0000000000000000e+00  0.0000000000000000e+00 0.0000000000000000e+00 0.0000000000000000e+00  0.0000000000000000e+00 0.0000000000000000e+00 0.0000000000000000e+00  0.0000000000000000e+00 0.0000000000000000e+00 0.0000000000000000e+00  0.0000000000000000e+00 0.0000000000000000e+00 0.0000000000000000e+00  0.0000000000000000e+00 0.0000000000000000e+00 0.0000000000000000e+00  0.0000000000000000e+00 0.0000000000000000e+00 0.0000000000000000e+00  0.0000000000000000e+00 0.0000000000000000e+00 0.0000000000000000e+00  0.0000000000000000e+00 0.0000000000000000e+00 0.0000000000000000e+00  0.0000000000000000e+00 0.0000000000000000e+00 0.0000000000000000e+00  0.0000000000000000e+00 0.0000000000000000e+00 0.0000000000000000e+00  0.0000000000000000e+00 0.0000000000000000e+00 0.0000000000000000e+00  0.0000000000000000e+00 0.0000000000000000e+00 0.0000000000000000e+00  0.0000000000000000e+00 0.0000000000000000e+00 0.0000000000000000e+00  0.0000000000000000e+00 0.0000000000000000e+00 0.0000000000000000e+00  0.0000000000000000e+00 0.0000000000000000e+00 0.0000000000000000e+00  0.0000000000000000e+00 0.0000000000000000e+00 0.0000000000000000e+00  0.0000000000000000e+00 0.0000000000000000e+00 0.0000000000000000e+00  0.0000000000000000e+00 0.0000000000000000e+00 0.0000000000000000e+00  0.0000000000000000e+00 0.0000000000000000e+00 0.0000000000000000e+00  0.0000000000000000e+00 0.0000000000000000e+00 0.0000000000000000e+00  0.0000000000000000e+00 0.0000000000000000e+00 0.0000000000000000e+00  0.0000000000000000e+00 0.0000000000000000e+00 0.0000000000000000e+00  0.0000000000000000e+00 0.0000000000000000e+00 0.0000000000000000e+00  0.0000000000000000e+00 0.0000000000000000e+00 0.0000000000000000e+00  0.0000000000000000e+00 0.0000000000000000e+00 0.0000000000000000e+00  0.0000000000000000e+00 0.0000000000000000e+00 0.0000000000000000e+00  0.0000000000000000e+00 0.0000000000000000e+00 0.0000000000000000e+00  0.0000000000000000e+00 0.0000000000000000e+00 0.0000000000000000e+00  0.0000000000000000e+00 0.0000000000000000e+00 0.0000000000000000e+00  0.0000000000000000e+00 0.0000000000000000e+00 0.0000000000000000e+00  0.0000000000000000e+00 0.0000000000000000e+00 0.0000000000000000e+00  0.0000000000000000e+00 0.0000000000000000e+00 0.0000000000000000e+00  0.0000000000000000e+00 0.0000000000000000e+00 0.0000000000000000e+00  0.0000000000000000e+00 0.0000000000000000e+00 0.0000000000000000e+00  0.0000000000000000e+00 0.0000000000000000e+00 0.0000000000000000e+00  0.0000000000000000e+00 0.0000000000000000e+00 0.0000000000000000e+00  0.0000000000000000e+00 0.0000000000000000e+00 0.0000000000000000e+00  0.0000000000000000e+00 0.0000000000000000e+00 0.0000000000000000e+00  0.0000000000000000e+00 0.0000000000000000e+00 0.0000000000000000e+00  0.0000000000000000e+00 0.0000000000000000e+00 0.0000000000000000e+00  0.0000000000000000e+00 0.0000000000000000e+00 0.0000000000000000e+00  0.0000000000000000e+00 0.0000000000000000e+00 0.0000000000000000e+00  0.0000000000000000e+00 0.0000000000000000e+00 0.0000000000000000e+00  0.0000000000000000e+00 0.0000000000000000e+00 0.0000000000000000e+00  0.0000000000000000e+00 0.0000000000000000e+00 0.0000000000000000e+00  0.0000000000000000e+00 0.0000000000000000e+00 0.0000000000000000e+00  0.0000000000000000e+00 0.0000000000000000e+00 0.0000000000000000e+00  0.0000000000000000e+00 0.0000000000000000e+00 0.0000000000000000e+00  0.0000000000000000e+00 0.0000000000000000e+00 0.0000000000000000e+00  0.0000000000000000e+00 0.0000000000000000e+00 0.0000000000000000e+00  0.0000000000000000e+00 0.0000000000000000e+00 0.0000000000000000e+00  0.0000000000000000e+00 0.0000000000000000e+00 0.0000000000000000e+00  0.0000000000000000e+00 0.0000000000000000e+00 0.0000000000000000e+00  0.0000000000000000e+00 0.0000000000000000e+00 0.0000000000000000e+00  0.0000000000000000e+00 0.0000000000000000e+00 0.0000000000000000e+00  0.0000000000000000e+00 0.0000000000000000e+00 0.0000000000000000e+00  0.0000000000000000e+00 0.0000000000000000e+00 0.0000000000000000e+00  0.0000000000000000e+00 0.0000000000000000e+00 0.0000000000000000e+00  0.0000000000000000e+00 0.0000000000000000e+00 0.0000000000000000e+00  0.0000000000000000e+00 0.0000000000000000e+00 0.0000000000000000e+00  0.0000000000000000e+00 0.0000000000000000e+00 0.0000000000000000e+00  0.0000000000000000e+00 0.0000000000000000e+00 0.0000000000000000e+00  0.0000000000000000e+00 0.0000000000000000e+00 0.0000000000000000e+00  0.0000000000000000e+00 0.0000000000000000e+00 0.0000000000000000e+00  0.0000000000000000e+00 0.0000000000000000e+00 0.0000000000000000e+00  0.0000000000000000e+00 0.0000000000000000e+00 0.0000000000000000e+00  0.0000000000000000e+00 0.0000000000000000e+00 0.0000000000000000e+00  0.0000000000000000e+00 0.0000000000000000e+00 0.0000000000000000e+00  0.0000000000000000e+00 0.0000000000000000e+00 0.0000000000000000e+00  -9.0386261100646907e-06 1.0092668515781894e-05 0.0000000000000000e+00  -1.8426928930759286e-05 1.9072750630162834e-05 0.0000000000000000e+00  -2.6558096840026306e-05 3.1883298687273319e-05 0.0000000000000000e+00  -3.4462135303505531e-05 4.8743210819824309e-05 0.0000000000000000e+00  -4.0967543338523746e-05 6.8167934457632285e-05 0.0000000000000000e+00  -4.7122652846568438e-05 9.0252598395129714e-05 0.0000000000000000e+00  -5.2114812426783152e-05 1.1373664207261821e-04 0.0000000000000000e+00  -5.6420015931089495e-05 1.3862082914941381e-04 0.0000000000000000e+00  -6.0242314702702933e-05 1.6414499752849529e-04 0.0000000000000000e+00  -6.3243586671896899e-05 1.8973369979443766e-04 0.0000000000000000e+00  -6.5515926973768956e-05 2.1518257847416507e-04 0.0000000000000000e+00  -6.7391858307637629e-05 2.3969322183153041e-04 0.0000000000000000e+00  -6.8316019523632183e-05 2.6310404598100861e-04 0.0000000000000000e+00  -6.9142810897950644e-05 2.8514943035975587e-04 0.0000000000000000e+00  -6.9451772185871732e-05 3.0507706716764520e-04 0.0000000000000000e+00  -6.8796871521967112e-05 3.2307472747386551e-04 0.0000000000000000e+00  -6.8422303112933885e-05 3.3852560218794898e-04 0.0000000000000000e+00  -6.6784818717618904e-05 3.5144003083640012e-04 0.0000000000000000e+00  -6.5765746817513001e-05 3.6131315395266983e-04 0.0000000000000000e+00  -6.3518405188356375e-05 3.6846549192061926e-04 0.0000000000000000e+00  -6.1786967068546046e-05 3.7222870636915376e-04 0.0000000000000000e+00  -5.9030122963423524e-05 3.7275439092800887e-04 0.0000000000000000e+00  -5.6970073049214428e-05 3.7054849949242328e-04 0.0000000000000000e+00  -5.4676796533815058e-05 3.6459721485139273e-04 0.0000000000000000e+00  -5.1593607909710064e-05 3.5600587328249602e-04 0.0000000000000000e+00  -4.8966037705266892e-05 3.4388419177716796e-04 0.0000000000000000e+00  -4.5997471630583478e-05 3.2885932585595727e-04 0.0000000000000000e+00  -4.3304713627304362e-05 3.1082659023998443e-04 0.0000000000000000e+00  -4.0363550658098065e-05 2.9000234632384035e-04 0.0000000000000000e+00  -3.7736552460205024e-05 2.6649558155393722e-04 0.0000000000000000e+00  -3.4942032660086981e-05 2.4046285699694063e-04 0.0000000000000000e+00  -3.2482129307179031e-05 2.1210639355288515e-04 0.0000000000000000e+00  -2.9945695114123625e-05 1.8156100230217208e-04 0.0000000000000000e+00  -2.7738140344690724e-05 1.4908575677779717e-04 0.0000000000000000e+00  -2.5530414933886456e-05 1.1481099984600689e-04 0.0000000000000000e+00  -2.3667987456112120e-05 7.9049713052262114e-05 0.0000000000000000e+00  -2.1867099588721414e-05 4.1879230563737980e-05 0.0000000000000000e+00  -2.0388518248120686e-05 3.6457429793832844e-06 0.0000000000000000e+00  -1.9009604889205280e-05 -3.5608397175669823e-05 0.0000000000000000e+00  -1.7924126935062802e-05 -7.5529361426423649e-05 0.0000000000000000e+00  -1.6947106194459634e-05 -1.1615386323367967e-04 0.0000000000000000e+00  -1.6250101135876782e-05 -1.5709112613419211e-04 0.0000000000000000e+00  -1.5714440552569962e-05 -1.9839537893487417e-04 0.0000000000000000e+00  -1.5240835117317086e-05 -2.3983992258370319e-04 0.0000000000000000e+00  -1.4966134183966727e-05 -2.8137462811401011e-04 0.0000000000000000e+00  -1.4760669757767178e-05 -3.2300132995359755e-04 0.0000000000000000e+00  -4.2790855947656071e-05 -3.6456126051969990e-04 0.0000000000000000e+00  -9.8536834119214352e-05 -3.6410522963009975e-04 0.0000000000000000e+00  -1.2621892259764275e-04 -3.2234177530654371e-04 0.0000000000000000e+00  -1.2621429008167868e-04 -2.8064491046775146e-04 0.0000000000000000e+00  -1.2617349260938117e-04 -2.3900007383463606e-04 0.0000000000000000e+00  -1.2601363897117891e-04 -1.9751470456712839e-04 0.0000000000000000e+00  -1.2581087412703152e-04 -1.5620930177106507e-04 0.0000000000000000e+00  -1.2545908637924479e-04 -1.1529356473607906e-04 0.0000000000000000e+00  -1.2480923347641705e-04 -7.4782784219444567e-05 0.0000000000000000e+00  -1.2412169674864658e-04 -3.4938464629192593e-05 0.0000000000000000e+00  -1.2290891546454753e-04 4.1747267714111437e-06 0.0000000000000000e+00  -1.2174793297688997e-04 4.2216582777518297e-05 0.0000000000000000e+00  -1.1988029348923546e-04 7.9183174418257876e-05 0.0000000000000000e+00  -1.1813856941535319e-04 1.1465991788319437e-04 0.0000000000000000e+00  -1.1551088799364832e-04 1.4867874738188613e-04 0.0000000000000000e+00  -1.1312444332454795e-04 1.8077883147617327e-04 0.0000000000000000e+00  -1.0970391045015196e-04 2.1101990768865976e-04 0.0000000000000000e+00  -1.0665488659410762e-04 2.3893996544819456e-04 0.0000000000000000e+00  -1.0244650224683811e-04 2.6463057892417744e-04 0.0000000000000000e+00  -9.8740756421602174e-05 2.8764307891973552e-04 0.0000000000000000e+00  -9.3776661994093323e-05 3.0811347474019973e-04 0.0000000000000000e+00  -8.9456226243757946e-05 3.2562532185075423e-04 0.0000000000000000e+00  -8.3803460765043711e-05 3.4030077419662503e-04 0.0000000000000000e+00  -7.8913278446315574e-05 3.5177920130684287e-04 0.0000000000000000e+00  -7.2768033854011085e-05 3.6015526047586952e-04 0.0000000000000000e+00  -6.7279291757688976e-05 3.6560296790385562e-04 0.0000000000000000e+00  -6.1649945198645920e-05 3.6737199901284691e-04 0.0000000000000000e+00  -5.5201608351083866e-05 3.6655774395771953e-04 0.0000000000000000e+00  -4.9236980550380754e-05 3.6222872536255683e-04 0.0000000000000000e+00  -4.2895225551026642e-05 3.5495981347731444e-04 0.0000000000000000e+00  -3.6931326550873394e-05 3.4464498642644830e-04 0.0000000000000000e+00  -3.0808982005843450e-05 3.3151514506101767e-04 0.0000000000000000e+00  -2.5105613905770821e-05 3.1583867681158392e-04 0.0000000000000000e+00  -1.9253778332082576e-05 2.9749991391605796e-04 0.0000000000000000e+00  -1.4154961924219683e-05 2.7740376582437355e-04 0.0000000000000000e+00  -9.3928331100354171e-06 2.5519115128594492e-04 0.0000000000000000e+00  -4.6220936992813686e-06 2.3171319793197952e-04 0.0000000000000000e+00  -5.5899437442516373e-07 2.0704239215526890e-04 0.0000000000000000e+00  3.0794499864270079e-06 1.8150424258672843e-04 0.0000000000000000e+00  6.1336679789726885e-06 1.5583092004832567e-04 0.0000000000000000e+00  8.4222280937636118e-06 1.3027588351364843e-04 0.0000000000000000e+00  1.0304980756509588e-05 1.0535789427616269e-04 0.0000000000000000e+00  1.1558856925876881e-05 8.1856378080135921e-05 0.0000000000000000e+00  1.1746357301187903e-05 5.9693041629526770e-05 0.0000000000000000e+00  1.1465258164131956e-05 4.0130727966912523e-05 0.0000000000000000e+00  9.7567945968735364e-06 2.3380900643001747e-05 0.0000000000000000e+00  7.8093136219812437e-06 1.0666642125652136e-05 0.0000000000000000e+00  4.0018579934592419e-06 2.2285647344413735e-06 0.0000000000000000e+00  -3.4111160043715411e-06 7.3760876325915251e-06 0.0000000000000000e+00  -7.0005630334816764e-05 -3.0168699210413968e-04 0.0000000000000000e+00  -6.9714487926419148e-05 -2.2211359935693438e-04 0.0000000000000000e+00  -7.0745488988365886e-05 -9.3538614325776662e-05 0.0000000000000000e+00  -9.8612925594041429e-06 3.3399036779214145e-05 0.0000000000000000e+00  -7.1638762269960675e-05 -1.4985791157231125e-05 0.0000000000000000e+00  -1.5583630234572693e-05 7.1422857049104546e-05 0.0000000000000000e+00  -7.1803516993387801e-05 6.1568288614949151e-05 0.0000000000000000e+00  -2.5172645579448290e-05 1.4786245328271585e-04 0.0000000000000000e+00  -3.1514185899346051e-05 1.9871505759828001e-04 0.0000000000000000e+00  -7.1716643197894552e-05 1.3310606691392110e-04 0.0000000000000000e+00  -4.5402625628425575e-05 3.1284416808422552e-04 0.0000000000000000e+00  -7.0378944052595710e-05 2.5450695926356392e-04 0.0000000000000000e+00  -3.6730391637432454e-05 2.4647684780064428e-04 0.0000000000000000e+00  -5.0615217676691812e-05 3.4358742461639593e-04 0.0000000000000000e+00  -6.8957747677555296e-05 3.0126205807739397e-04 0.0000000000000000e+00  -7.1272777862072597e-05 1.9796279506226736e-04 0.0000000000000000e+00  -5.5205827178853771e-05 3.6405234307272866e-04 0.0000000000000000e+00  -6.6969573833202989e-05 3.3695702816162503e-04 0.0000000000000000e+00  -5.9145238610147364e-05 3.7214969191677648e-04 0.0000000000000000e+00  -6.4280704213543329e-05 3.6026104977835045e-04 0.0000000000000000e+00  -6.1805348420824373e-05 3.6987296829839517e-04 0.0000000000000000e+00  -4.1357595590407407e-05 2.8023292743050956e-04 0.0000000000000000e+00  -7.1190942587987007e-05 -1.6007644435614746e-04 0.0000000000000000e+00  -2.0589029626211815e-05 1.0690879913159748e-04 0.0000000000000000e+00  -8.9326828571666185e-05 -2.6147415087968574e-04 0.0000000000000000e+00  -1.0553204970665234e-06 1.7000961580489563e-05 0.0000000000000000e+00  -8.6433783562497063e-05 2.3780389337665656e-05 0.0000000000000000e+00  -8.6880579680457723e-05 -5.4614396233409089e-05 0.0000000000000000e+00  -2.1603627855252970e-05 5.3633869629178889e-05 0.0000000000000000e+00  -3.8112885375772809e-05 1.7402429651843592e-04 0.0000000000000000e+00  -8.1689308443192398e-05 2.2697903523980189e-04 0.0000000000000000e+00  -8.5496575994021369e-05 9.7931150082012947e-05 0.0000000000000000e+00  -5.4002203888596337e-05 3.2995723152531397e-04 0.0000000000000000e+00  -7.8665357472095930e-05 2.7865250875785464e-04 0.0000000000000000e+00  -4.3725102856256856e-05 2.2517228860417161e-04 0.0000000000000000e+00  -5.6798000147957751e-05 3.5599226832486722e-04 0.0000000000000000e+00  -7.4845647948218753e-05 3.1987869790626100e-04 0.0000000000000000e+00  -8.3945656720861418e-05 1.6621995475009965e-04 0.0000000000000000e+00  -5.9229601367816809e-05 3.7043466263125227e-04 0.0000000000000000e+00  -7.0297846681691901e-05 3.4950652046086914e-04 0.0000000000000000e+00  -2.2342397946554708e-06 3.0186919558677456e-06 0.0000000000000000e+00  -1.2498951219266224e-07 1.0220760079029479e-06 0.0000000000000000e+00  -5.7172806999401454e-05 -3.3455953884796512e-04 0.0000000000000000e+00  -1.2818489345846786e-05 2.0385058170121218e-05 0.00000000