<?xml version="1.0"?>
<VTKFile type="UnstructuredGrid"  version="0.1"  >
<UnstructuredGrid>
<Piece  NumberOfPoints="1419" NumberOfCells="2698">
<Points>
<DataArray  type="Float64"  NumberOfComponents="3"  format="ascii">0 0 0  0 0.41 0  2.5 0 0  2.5 0.41 0  0.6 0.19 0  0.6 0.21 0  0.25 0.2 0  0.15 0.2 0  0.2489897948556636 0.21 0  0.2489897948556636 0.19 0  0.6 0.2 0  0 0.3807142857143437 0  0 0.3514285714286952 0  0 0.3221428571430699 0  0 0.29285714285744 0  0 0.2635714285718054 0  0 0.2342857142861561 0  0 0.2050000000005308 0  0 0.175714285714732 0  0 0.1464285714289574 0  0 0.1171428571431897 0  0 0.08785714285737878 0  0 0.05857142857161107 0  0 0.02928571428580012 0  0.03015443760436003 0 0  0.06140001986583606 0 0  0.09377624077125973 0 0  0.1273239957535082 0 0  0.1620856860351972 0 0  0.1981052433264291 0 0  0.235428184091502 0 0  0.2741016576309132 0 0  0.3141745521465447 0 0  0.3556974926295285 0 0  0.3987229542472677 0 0  0.4433053055141081 0 0  0.4895008759286886 0 0  0.5373680609405097 0 0  0.5869673343216626 0 0  0.6383613676634521 0 0  0.6916151138468254 0 0  0.7467958595648856 0 0  0.8039733463919316 0 0  0.8632198139502143 0 0  0.9246101326867038 0 0  0.9882218810934433 0 0  1.054135445558498 0 0  1.122434100542598 0 0  1.193204177141305 0 0  1.266535089879536 0 0  1.342519516046404 0 0  1.421253448503939 0 0  1.502836389106271 0 0  1.587371439758838 0 0  1.674965418777374 0 0  1.765729001825544 0 0  1.859776908880082 0 0  1.957227977487062 0 0  2.058205329869943 0 0  2.162836591189951 0 0  2.271253957290865 0 0  2.383594446803425 0 0  2.5 0.1024999999997612 0  2.5 0.2049999999994743 0  2.5 0.3074999999997183 0  2.383594446803656 0.41 0  2.271253957291315 0.41 0  2.162836591190598 0.41 0  2.058205329870775 0.41 0  1.957227977488067 0.41 0  1.859776908881246 0.41 0  1.765729001826854 0.41 0  1.674965418778818 0.41 0  1.58737143976041 0.41 0  1.502836389107956 0.41 0  1.421253448505726 0.41 0  1.342519516048286 0.41 0  1.266535089881505 0.41 0  1.193204177143353 0.41 0  1.122434100544716 0.41 0  1.05413544556068 0.41 0  0.9882218810956305 0.41 0  0.9246101326886647 0.41 0  0.8632198139519631 0.41 0  0.8039733463934788 0.41 0  0.7467958595662458 0.41 0  0.6916151138480078 0.41 0  0.6383613676644679 0.41 0  0.5869673343225223 0.41 0  0.5373680609412221 0.41 0  0.4895008759292634 0.41 0  0.4433053055145528 0.41 0  0.3987229542475914 0.41 0  0.3556974926297398 0.41 0  0.3141745521466497 0.41 0  0.2741016576310038 0.41 0  0.2354281840915826 0.41 0  0.1981052433265003 0.41 0  0.1620856860352591 0.41 0  0.1273239957535623 0.41 0  0.09377624077128965 0.41 0  0.06140001986584975 0.41 0  0.03015443760436654 0.41 0  0.2497468076502589 0.2050254481002335 0  0.2497468076502614 0.1949745518997913 0  0.2469965252529372 0.1829317073451959 0  0.2439893735792749 0.1762316384219906 0  0.2400332147834255 0.1700443375285386 0  0.2352133972704371 0.1645032867342007 0  0.2296339016332438 0.1597280261969788 0  0.2234150974217223 0.1558215752574715 0  0.2166911463437691 0.1528682099456123 0  0.2096071079204251 0.1509316448471593 0  0.2023158100364996 0.1500536585536553 0  0.194974551899914 0.1502531923497262 0  0.1877417105387872 0.1515259415822739 0  0.1807733240461124 0.153844448527136 0  0.1742197252835808 0.15715869474974 0  0.1682222986673531 0.1613971801805478 0  0.162910430003803 0.1664684656256651 0  0.1583987151779087 0.1722631454351573 0  0.1547844879126891 0.178656207771761 0  0.1521457199348551 0.1855097315605723 0  0.1505393388476355 0.1926758619366523 0  0.1505393388476328 0.2073241380633295 0  0.1521457199348437 0.2144902684393899 0  0.1547844879126531 0.221343792228163 0  0.1583987151778488 0.2277368545647528 0  0.1629104300036858 0.2335315343742052 0  0.1682222986671726 0.2386028198193036 0  0.1742197252833576 0.2428413052501257 0  0.1807733240458683 0.2461555514727623 0  0.1877417105384929 0.2484740584176516 0  0.1949745518995776 0.2497468076502398 0  0.202315810036185 0.2499463414463592 0  0.2096071079201568 0.2490683551528932 0  0.2166911463435495 0.2471317900544655 0  0.2234150974215506 0.2441784247426195 0  0.2296339016331197 0.2402719738031125 0  0.2352133972703547 0.2354967132658811 0  0.2400332147833751 0.2299556624715287 0  0.2439893735792577 0.2237683615780412 0  0.246996525252926 0.2170682926548348 0  0.25645809709277 0.21 0  0.2639263993298655 0.21 0  0.271394701566961 0.21 0  0.2788630038040554 0.21 0  0.2863313060411479 0.21 0  0.2937996082782405 0.21 0  0.301267910515333 0.21 0  0.3087362127524279 0.21 0  0.3162045149895234 0.21 0  0.3236728172265972 0.21 0  0.3311411194636928 0.21 0  0.3386094217007701 0.21 0  0.3460777239378666 0.21 0  0.3535460261749672 0.21 0  0.3610143284120516 0.21 0  0.3684826306491596 0.21 0  0.3759509328862226 0.21 0  0.383419235123329 0.21 0  0.3908875373604028 0.21 0  0.3983558395975142 0.21 0  0.4058241418345938 0.21 0  0.4132924440716992 0.21 0  0.4207607463087888 0.21 0  0.4282290485459029 0.21 0  0.4356973507830418 0.21 0  0.4431656530201649 0.21 0  0.4506339552573136 0.21 0  0.4581022574944306 0.21 0  0.4655705597315852 0.21 0  0.4730388619686996 0.21 0  0.480507164205851 0.21 0  0.4879754664429498 0.21 0  0.4954437686800938 0.21 0  0.502912070917267 0.21 0  0.5103803731544119 0.21 0  0.5178486753915261 0.21 0  0.5253169776286404 0.21 0  0.5327852798657868 0.21 0  0.5402535821029386 0.21 0  0.54772188434007 0.21 0  0.5551901865771842 0.21 0  0.5626584888143201 0.21 0  0.5701267910514778 0.21 0  0.5775950932886138 0.21 0  0.5850633955257281 0.21 0  0.5925316977628483 0.21 0  0.6 0.2050000000000054 0  0.6 0.1950000000000217 0  0.5925316977628897 0.19 0  0.5850633955257988 0.19 0  0.5775950932887378 0.19 0  0.5701267910515998 0.19 0  0.5626584888145268 0.19 0  0.5551901865773963 0.19 0  0.547721884340339 0.19 0  0.5402535821032429 0.19 0  0.5327852798661811 0.19 0  0.5253169776290537 0.19 0  0.5178486753919799 0.19 0  0.5103803731549078 0.19 0  0.502912070917822 0.19 0  0.4954437686807294 0.19 0  0.4879754664436223 0.19 0  0.4805071642065402 0.19 0  0.4730388619694271 0.19 0  0.4655705597323621 0.19 0  0.4581022574952563 0.19 0  0.4506339552581777 0.19 0  0.4431656530210671 0.19 0  0.4356973507839815 0.19 0  0.4282290485468779 0.19 0  0.4207607463097617 0.19 0  0.4132924440726327 0.19 0  0.4058241418354857 0.19 0  0.3983558395983636 0.19 0  0.3908875373612097 0.19 0  0.3834192351240934 0.19 0  0.3759509328869369 0.19 0  0.3684826306498175 0.19 0  0.361014328412667 0.19 0  0.3535460261755617 0.19 0  0.3460777239384295 0.19 0  0.3386094217012945 0.19 0  0.3311411194641595 0.19 0  0.3236728172270245 0.19 0  0.3162045149898895 0.19 0  0.3087362127527544 0.19 0  0.3012679105156187 0.19 0  0.2937996082784807 0.19 0  0.2863313060413428 0.19 0  0.2788630038042048 0.19 0  0.2713947015670686 0.19 0  0.2639263993299336 0.19 0  0.2564580970927985 0.19 0  0.2607803159922026 0.2000727136295815 0  0.5887803774232762 0.2001272386983733 0  0.5745072403740523 0.2002044435018727 0  0.5511891430099709 0.2001122610077113 0  0.2751288526855082 0.20000000000002 0  0.5365194309847112 0.1999999999999436 0  0.2894621222999649 0.1998691686390484 0  0.5215828265105155 0.1999999999999228 0  0.3127789816668748 0.1998657885438805 0  0.3274069683451451 0.2000000000000796 0  0.5066462220363641 0.199999999999908 0  0.3650630746574081 0.199866017807523 0  0.476773013087985 0.1999999999998713 0  0.3417402379596385 0.1998691686391011 0  0.3796850840047755 0.200000000000134 0  0.4618364086138087 0.1999999999998546 0  0.4917096175621762 0.1999999999998808 0  0.3946216884789568 0.2000000000001512 0  0.446899804139621 0.1999999999998389 0  0.4089549580935208 0.1998691686391595 0  0.4322718174608562 0.200127451265745 0  0.4201487168029707 0.1999966199048527 0  0.3528922713220932 0.2000185703532356 0  0.5633122436674589 0.1999814296467508 0  0.3006558810093873 0.1999966199048318 0  0.5815926498168407 0.1966545283159175 0  0.2677053789419034 0.1964246479135325 0  0.5290511287476175 0.1970915826863981 0  0.5439877332217911 0.197091582686394 0  0.2825131256993216 0.2035478995978015 0  0.3199386661080599 0.202908417313604 0  0.4842413153250809 0.1970915826863873 0  0.5141145242734466 0.1970915826863843 0  0.3722167817676917 0.2029084173136195 0  0.4693047108508938 0.1970915826863783 0  0.3348752705822316 0.202908417313609 0  0.3871533862418661 0.2029084173136212 0  0.4543681063767183 0.1970915826863795 0  0.4991779197992749 0.1970915826863902 0  0.4020059614928624 0.203547899597858 0  0.4394315019025246 0.1970915826863714 0  0.2550657455369551 0.2034088125358657 0  0.2548908499171161 0.1966940311614271 0  0.5946539510196798 0.2024302972968126 0  0.267698176732111 0.2039977513680092 0  0.4261685417851465 0.196409292431739 0  0.3590076176283495 0.196411355804271 0  0.5571672426447437 0.2036011176410121 0  0.3066757059912147 0.1964092924317024 0  0.594380730180568 0.1966558399668133 0  0.4842413153245942 0.2040749161535287 0  0.4693047108503577 0.2040749161535231 0  0.3871533862424271 0.1959250838464788 0  0.372246743208829 0.1959123236376545 0  0.5141145242731028 0.2040749161535395 0  0.4543681063761134 0.2040749161535186 0  0.4019979587101454 0.1959834479682427 0  0.4394608940728603 0.2040870543693135 0  0.5439623148931173 0.2040856076781014 0  0.5290511287473298 0.2040749161535501 0  0.4991779197988497 0.2040749161535382 0  0.3347912413592433 0.1959225448935183 0  0.3199680582793816 0.1959123018030061 0  0.2825051229162361 0.1959834479681729 0  0.3590471196690275 0.2036304442587945 0  0.5571594006495384 0.1963685282145804 0  0.3067669986803285 0.203627750582736 0  0.4262598344738712 0.2036568242185335 0  0.5814408164431408 0.2041285596160068 0  0.5688286748170428 0.1961819304477386 0  0.4145905603063645 0.2038180695522843 0  0.3473758401724931 0.2038180695522752 0  0.2950977245128307 0.2038180695522663 0  0.5688286748170693 0.203818069552238 0  0.2950977245127906 0.1961819304477774 0  0.3473758401723931 0.1961819304478349 0  0.4145905603061963 0.1961819304479011 0  0.2601812407614425 0.2056861609747042
[...]
<PointData  Vectors="f_40-0"> 
<DataArray  type="Float64"  Name="f_40-0"  NumberOfComponents="3" format="ascii">0.0000000000000000e+00 0.0000000000000000e+00 0.0000000000000000e+00  0.0000000000000000e+00 0.0000000000000000e+00 0.0000000000000000e+00  0.0000000000000000e+00 0.0000000000000000e+00 0.0000000000000000e+00  0.0000000000000000e+00 0.0000000000000000e+00 0.0000000000000000e+00  1.5096741302605477e-04 3.7246262905027239e-03 0.0000000000000000e+00  -1.3123534058565378e-04 3.7290962989013411e-03 0.0000000000000000e+00  0.0000000000000000e+00 0.0000000000000000e+00 0.0000000000000000e+00  0.0000000000000000e+00 0.0000000000000000e+00 0.0000000000000000e+00  0.0000000000000000e+00 0.0000000000000000e+00 0.0000000000000000e+00  0.0000000000000000e+00 0.0000000000000000e+00 0.0000000000000000e+00  1.0300373595842479e-05 3.7268386069871755e-03 0.0000000000000000e+00  7.3957302317169693e-01 0.0000000000000000e+00 0.0000000000000000e+00  1.3653655812401466e+00 0.0000000000000000e+00 0.0000000000000000e+00  1.8773776742052022e+00 0.0000000000000000e+00 0.0000000000000000e+00  2.2756093020674557e+00 0.0000000000000000e+00 0.0000000000000000e+00  2.5600604648268561e+00 0.0000000000000000e+00 0.0000000000000000e+00  2.7307311624833868e+00 0.0000000000000000e+00 0.0000000000000000e+00  2.7876213950368762e+00 0.0000000000000000e+00 0.0000000000000000e+00  2.7307311624868373e+00 0.0000000000000000e+00 0.0000000000000000e+00  2.5600604648327834e+00 0.0000000000000000e+00 0.0000000000000000e+00  2.2756093020747961e+00 0.0000000000000000e+00 0.0000000000000000e+00  1.8773776742121748e+00 0.0000000000000000e+00 0.0000000000000000e+00  1.3653655812460972e+00 0.0000000000000000e+00 0.0000000000000000e+00  7.3957302317504980e-01 0.0000000000000000e+00 0.0000000000000000e+00  0.0000000000000000e+00 0.0000000000000000e+00 0.0000000000000000e+00  0.0000000000000000e+00 0.0000000000000000e+00 0.0000000000000000e+00  0.0000000000000000e+00 0.0000000000000000e+00 0.0000000000000000e+00  0.0000000000000000e+00 0.0000000000000000e+00 0.0000000000000000e+00  0.0000000000000000e+00 0.0000000000000000e+00 0.0000000000000000e+00  0.0000000000000000e+00 0.0000000000000000e+00 0.0000000000000000e+00  0.0000000000000000e+00 0.0000000000000000e+00 0.0000000000000000e+00  0.0000000000000000e+00 0.0000000000000000e+00 0.0000000000000000e+00  0.0000000000000000e+00 0.0000000000000000e+00 0.0000000000000000e+00  0.0000000000000000e+00 0.0000000000000000e+00 0.0000000000000000e+00  0.0000000000000000e+00 0.0000000000000000e+00 0.0000000000000000e+00  0.0000000000000000e+00 0.0000000000000000e+00 0.0000000000000000e+00  0.0000000000000000e+00 0.0000000000000000e+00 0.0000000000000000e+00  0.0000000000000000e+00 0.0000000000000000e+00 0.0000000000000000e+00  0.0000000000000000e+00 0.0000000000000000e+00 0.0000000000000000e+00  0.0000000000000000e+00 0.0000000000000000e+00 0.0000000000000000e+00  0.0000000000000000e+00 0.0000000000000000e+00 0.0000000000000000e+00  0.0000000000000000e+00 0.0000000000000000e+00 0.0000000000000000e+00  0.0000000000000000e+00 0.0000000000000000e+00 0.0000000000000000e+00  0.0000000000000000e+00 0.0000000000000000e+00 0.0000000000000000e+00  0.0000000000000000e+00 0.0000000000000000e+00 0.0000000000000000e+00  0.0000000000000000e+00 0.0000000000000000e+00 0.0000000000000000e+00  0.0000000000000000e+00 0.0000000000000000e+00 0.0000000000000000e+00  0.0000000000000000e+00 0.0000000000000000e+00 0.0000000000000000e+00  0.0000000000000000e+00 0.0000000000000000e+00 0.0000000000000000e+00  0.0000000000000000e+00 0.0000000000000000e+00 0.0000000000000000e+00  0.0000000000000000e+00 0.0000000000000000e+00 0.0000000000000000e+00  0.0000000000000000e+00 0.0000000000000000e+00 0.0000000000000000e+00  0.0000000000000000e+00 0.0000000000000000e+00 0.0000000000000000e+00  0.0000000000000000e+00 0.0000000000000000e+00 0.0000000000000000e+00  0.0000000000000000e+00 0.0000000000000000e+00 0.0000000000000000e+00  0.0000000000000000e+00 0.0000000000000000e+00 0.0000000000000000e+00  0.0000000000000000e+00 0.0000000000000000e+00 0.0000000000000000e+00  0.0000000000000000e+00 0.0000000000000000e+00 0.0000000000000000e+00  0.0000000000000000e+00 0.0000000000000000e+00 0.0000000000000000e+00  0.0000000000000000e+00 0.0000000000000000e+00 0.0000000000000000e+00  0.0000000000000000e+00 0.0000000000000000e+00 0.0000000000000000e+00  0.0000000000000000e+00 0.0000000000000000e+00 0.0000000000000000e+00  2.4875588004556310e+00 -1.5774100346401244e-02 0.0000000000000000e+00  2.2831924863766671e+00 1.2673025484990025e-02 0.0000000000000000e+00  2.4578153549241750e+00 7.2834247514810102e-02 0.0000000000000000e+00  0.0000000000000000e+00 0.0000000000000000e+00 0.0000000000000000e+00  0.0000000000000000e+00 0.0000000000000000e+00 0.0000000000000000e+00  0.0000000000000000e+00 0.0000000000000000e+00 0.0000000000000000e+00  0.0000000000000000e+00 0.0000000000000000e+00 0.0000000000000000e+00  0.0000000000000000e+00 0.0000000000000000e+00 0.0000000000000000e+00  0.0000000000000000e+00 0.0000000000000000e+00 0.0000000000000000e+00  0.0000000000000000e+00 0.0000000000000000e+00 0.0000000000000000e+00  0.0000000000000000e+00 0.0000000000000000e+00 0.0000000000000000e+00  0.0000000000000000e+00 0.0000000000000000e+00 0.0000000000000000e+00  0.0000000000000000e+00 0.0000000000000000e+00 0.0000000000000000e+00  0.0000000000000000e+00 0.0000000000000000e+00 0.0000000000000000e+00  0.0000000000000000e+00 0.0000000000000000e+00 0.0000000000000000e+00  0.0000000000000000e+00 0.0000000000000000e+00 0.0000000000000000e+00  0.0000000000000000e+00 0.0000000000000000e+00 0.0000000000000000e+00  0.0000000000000000e+00 0.0000000000000000e+00 0.0000000000000000e+00  0.0000000000000000e+00 0.0000000000000000e+00 0.0000000000000000e+00  0.0000000000000000e+00 0.0000000000000000e+00 0.0000000000000000e+00  0.0000000000000000e+00 0.0000000000000000e+00 0.0000000000000000e+00  0.0000000000000000e+00 0.0000000000000000e+00 0.0000000000000000e+00  0.0000000000000000e+00 0.0000000000000000e+00 0.0000000000000000e+00  0.0000000000000000e+00 0.0000000000000000e+00 0.0000000000000000e+00  0.0000000000000000e+00 0.0000000000000000e+00 0.0000000000000000e+00  0.0000000000000000e+00 0.0000000000000000e+00 0.0000000000000000e+00  0.0000000000000000e+00 0.0000000000000000e+00 0.0000000000000000e+00  0.0000000000000000e+00 0.0000000000000000e+00 0.0000000000000000e+00  0.0000000000000000e+00 0.0000000000000000e+00 0.0000000000000000e+00  0.0000000000000000e+00 0.0000000000000000e+00 0.0000000000000000e+00  0.0000000000000000e+00 0.0000000000000000e+00 0.0000000000000000e+00  0.0000000000000000e+00 0.0000000000000000e+00 0.0000000000000000e+00  0.0000000000000000e+00 0.0000000000000000e+00 0.0000000000000000e+00  0.0000000000000000e+00 0.0000000000000000e+00 0.0000000000000000e+00  0.0000000000000000e+00 0.0000000000000000e+00 0.0000000000000000e+00  0.0000000000000000e+00 0.0000000000000000e+00 0.0000000000000000e+00  0.0000000000000000e+00 0.0000000000000000e+00 0.0000000000000000e+00  0.0000000000000000e+00 0.0000000000000000e+00 0.0000000000000000e+00  0.0000000000000000e+00 0.0000000000000000e+00 0.0000000000000000e+00  0.0000000000000000e+00 0.0000000000000000e+00 0.0000000000000000e+00  0.0000000000000000e+00 0.0000000000000000e+00 0.0000000000000000e+00  0.0000000000000000e+00 0.0000000000000000e+00 0.0000000000000000e+00  0.0000000000000000e+00 0.0000000000000000e+00 0.0000000000000000e+00  0.0000000000000000e+00 0.0000000000000000e+00 0.0000000000000000e+00  0.0000000000000000e+00 0.0000000000000000e+00 0.0000000000000000e+00  0.0000000000000000e+00 0.0000000000000000e+00 0.0000000000000000e+00  0.0000000000000000e+00 0.0000000000000000e+00 0.0000000000000000e+00  0.0000000000000000e+00 0.0000000000000000e+00 0.0000000000000000e+00  0.0000000000000000e+00 0.0000000000000000e+00 0.0000000000000000e+00  0.0000000000000000e+00 0.0000000000000000e+00 0.0000000000000000e+00  0.0000000000000000e+00 0.0000000000000000e+00 0.0000000000000000e+00  0.0000000000000000e+00 0.0000000000000000e+00 0.0000000000000000e+00  0.0000000000000000e+00 0.0000000000000000e+00 0.0000000000000000e+00  0.0000000000000000e+00 0.0000000000000000e+00 0.0000000000000000e+00  0.0000000000000000e+00 0.0000000000000000e+00 0.0000000000000000e+00  0.0000000000000000e+00 0.0000000000000000e+00 0.0000000000000000e+00  0.0000000000000000e+00 0.0000000000000000e+00 0.0000000000000000e+00  0.0000000000000000e+00 0.0000000000000000e+00 0.0000000000000000e+00  0.0000000000000000e+00 0.0000000000000000e+00 0.0000000000000000e+00  0.0000000000000000e+00 0.0000000000000000e+00 0.0000000000000000e+00  0.0000000000000000e+00 0.0000000000000000e+00 0.0000000000000000e+00  0.0000000000000000e+00 0.0000000000000000e+00 0.0000000000000000e+00  0.0000000000000000e+00 0.0000000000000000e+00 0.0000000000000000e+00  0.0000000000000000e+00 0.0000000000000000e+00 0.0000000000000000e+00  0.0000000000000000e+00 0.0000000000000000e+00 0.0000000000000000e+00  0.0000000000000000e+00 0.0000000000000000e+00 0.0000000000000000e+00  0.0000000000000000e+00 0.0000000000000000e+00 0.0000000000000000e+00  0.0000000000000000e+00 0.0000000000000000e+00 0.0000000000000000e+00  0.0000000000000000e+00 0.0000000000000000e+00 0.0000000000000000e+00  0.0000000000000000e+00 0.0000000000000000e+00 0.0000000000000000e+00  0.0000000000000000e+00 0.0000000000000000e+00 0.0000000000000000e+00  0.0000000000000000e+00 0.0000000000000000e+00 0.0000000000000000e+00  0.0000000000000000e+00 0.0000000000000000e+00 0.0000000000000000e+00  0.0000000000000000e+00 0.0000000000000000e+00 0.0000000000000000e+00  0.0000000000000000e+00 0.0000000000000000e+00 0.0000000000000000e+00  0.0000000000000000e+00 0.0000000000000000e+00 0.0000000000000000e+00  0.0000000000000000e+00 0.0000000000000000e+00 0.0000000000000000e+00  0.0000000000000000e+00 0.0000000000000000e+00 0.0000000000000000e+00  0.0000000000000000e+00 0.0000000000000000e+00 0.0000000000000000e+00  0.0000000000000000e+00 0.0000000000000000e+00 0.0000000000000000e+00  0.0000000000000000e+00 0.0000000000000000e+00 0.0000000000000000e+00  -6.6689632495961689e-06 1.0268027206999393e-05 0.0000000000000000e+00  -1.4533095709694977e-05 1.9286801360919799e-05 0.0000000000000000e+00  -2.1669979785750574e-05 3.3884081127010318e-05 0.0000000000000000e+00  -2.9648865651792589e-05 5.4463577855227024e-05 0.0000000000000000e+00  -3.6339975539174641e-05 8.0298027976812825e-05 0.0000000000000000e+00  -4.4082553141102342e-05 1.1190204479074585e-04 0.0000000000000000e+00  -5.0266178005447652e-05 1.4782691175648402e-04 0.0000000000000000e+00  -5.6307627140759051e-05 1.8946278497662561e-04 0.0000000000000000e+00  -6.3371648866642546e-05 2.3545171901727703e-04 0.0000000000000000e+00  -6.8692752932334873e-05 2.8603693426997815e-04 0.0000000000000000e+00  -7.5325250807606781e-05 3.4113351760398276e-04 0.0000000000000000e+00  -8.0224843830346631e-05 4.0043834422311169e-04 0.0000000000000000e+00  -8.6106908448929111e-05 4.6380000673272684e-04 0.0000000000000000e+00  -9.0698907823209203e-05 5.3047503245647195e-04 0.0000000000000000e+00  -9.5120446821347660e-05 6.0123235007529790e-04 0.0000000000000000e+00  -1.0016501576821754e-04 6.7505721371821951e-04 0.0000000000000000e+00  -1.0389279885567036e-04 7.5204080529832904e-04 0.0000000000000000e+00  -1.0837602597663258e-04 8.3207956844182952e-04 0.0000000000000000e+00  -1.1160271375558912e-04 9.1481967287174095e-04 0.0000000000000000e+00  -1.1540028800707073e-04 1.0000794546137553e-03 0.0000000000000000e+00  -1.1829896670999021e-04 1.0877254711880026e-03 0.0000000000000000e+00  -1.2145085200941934e-04 1.1776446819215679e-03 0.0000000000000000e+00  -1.2385713629452149e-04 1.2692098635747971e-03 0.0000000000000000e+00  -1.2606362798572759e-04 1.3628642642593788e-03 0.0000000000000000e+00  -1.2844171938022637e-04 1.4579092117864749e-03 0.0000000000000000e+00  -1.3027318691397738e-04 1.5545458823875357e-03 0.0000000000000000e+00  -1.3201663958123410e-04 1.6525576902009880e-03 0.0000000000000000e+00  -1.3342499809194727e-04 1.7516559672463171e-03 0.0000000000000000e+00  -1.3472463824407718e-04 1.8518985367645467e-03 0.0000000000000000e+00  -1.3573267917393598e-04 1.9529705321710018e-03 0.0000000000000000e+00  -1.3662434841750379e-04 2.0549329808414079e-03 0.0000000000000000e+00  -1.3726109301472232e-04 2.1574933327560370e-03 0.0000000000000000e+00  -1.3778007492625246e-04 2.2607158215935063e-03 0.0000000000000000e+00  -1.3807962491047698e-04 2.3643368026591283e-03 0.0000000000000000e+00  -1.3825722435764198e-04 2.4684338233287649e-03 0.0000000000000000e+00  -1.3825427196123734e-04 2.5727747591205055e-03 0.0000000000000000e+00  -1.3814083373576641e-04 2.6774349177663653e-03 0.0000000000000000e+00  -1.3787794146405649e-04 2.7822242763491487e-03 0.0000000000000000e+00  -1.3751182765898808e-04 2.8872210116242078e-03 0.0000000000000000e+00  -1.3701957328829083e-04 2.9922661545572905e-03 0.0000000000000000e+00  -1.3642605757950763e-04 3.0974281520907269e-03 0.0000000000000000e+00  -1.3573998859545537e-04 3.2026050509610360e-03 0.0000000000000000e+00  -1.3495000176282418e-04 3.3078300164962752e-03 0.0000000000000000e+00  -1.3411014420487677e-04 3.4130623662382746e-03 0.0000000000000000e+00  -1.3316453545664049e-04 3.5182770394140920e-03 0.0000000000000000e+00  -1.3217530422338479e-04 3.6235535038946394e-03 0.0000000000000000e+00  -6.0308933264929224e-05 3.7279608638225927e-03 0.0000000000000000e+00  8.0770049475934445e-05 3.7257243961122256e-03 0.0000000000000000e+00  1.4999405104394332e-04 3.6193833546005242e-03 0.0000000000000000e+00  1.4896392339490720e-04 3.5139366128267078e-03 0.0000000000000000e+00  1.4797464906261094e-04 3.4084696702425888e-03 0.0000000000000000e+00  1.4705381818189627e-04 3.3030508516235912e-03 0.0000000000000000e+00  1.4617225491880299e-04 3.1976499329253406e-03 0.0000000000000000e+00  1.4535511877259444e-04 3.0922965119548011e-03 0.0000000000000000e+00  1.4454568884506947e-04 2.9869996610213559e-03 0.0000000000000000e+00  1.4379647613422069e-04 2.8817695054070705e-03 0.0000000000000000e+00  1.4301644641479753e-04 2.7766725070223551e-03 0.0000000000000000e+00  1.4229361500838771e-04 2.6717065098131815e-03 0.0000000000000000e+00  1.4148174831178016e-04 2.5669540269736158e-03 0.0000000000000000e+00  1.4073610835825081e-04 2.4624467233558289e-03 0.0000000000000000e+00  1.3982785688095413e-04 2.3582673205338211e-03 0.0000000000000000e+00  1.3900446005896144e-04 2.2544885320303935e-03 0.0000000000000000e+00  1.3793087559176769e-04 2.1511909714081335e-03 0.0000000000000000e+00  1.3697671269234153e-04 2.0484855148734625e-03 0.0000000000000000e+00  1.3567512170414601e-04 1.9464523740580001e-03 0.0000000000000000e+00  1.3454110361853984e-04 1.8452383918360071e-03 0.0000000000000000e+00  1.3295203616014753e-04 1.7449237223497590e-03 0.0000000000000000e+00  1.3159233166907129e-04 1.6456826686081618e-03 0.0000000000000000e+00  1.2964766580394701e-04 1.5476019476599984e-03 0.0000000000000000e+00  1.2800160503630554e-04 1.4508873575989217e-03 0.0000000000000000e+00  1.2568227067657141e-04 1.3556529286418363e-03 0.0000000000000000e+00  1.2360786812385101e-04 1.2619163690571723e-03 0.0000000000000000e+00  1.2137360321511195e-04 1.1702680164390824e-03 0.0000000000000000e+00  1.1847619096363462e-04 1.0801836202987841e-03 0.0000000000000000e+00  1.1570088783718487e-04 9.9251182088580373e-04 0.0000000000000000e+00  1.1239919362263110e-04 9.0703319849459437e-04 0.0000000000000000e+00  1.0911861493331408e-04 8.2422753383578533e-04 0.0000000000000000e+00  1.0530366987906988e-04 7.4406241710977682e-04 0.0000000000000000e+00  1.0151148278942379e-04 6.6683249780393101e-04 0.0000000000000000e+00  9.6804041470847078e-05 5.9308198924255210e-04 0.0000000000000000e+00  9.2645516710136854e-05 5.2215182784551208e-04 0.0000000000000000e+00  8.8273114992427215e-05 4.5540677222925141e-04 0.0000000000000000e+00  8.2780831579346308e-05 3.9165000317435922e-04 0.0000000000000000e+00  7.7591798766851595e-05 3.3236310864135504e-04 0.0000000000000000e+00  7.1703401755094919e-05 2.7710113571358358e-04 0.0000000000000000e+00  6.5996216496465608e-05 2.2619999950666955e-04 0.0000000000000000e+00  5.9116624143224687e-05 1.8034839964739573e-04 0.0000000000000000e+00  5.3113740988052456e-05 1.3850991868875624e-04 0.0000000000000000e+00  4.6942213743909561e-05 1.0248031495181218e-04 0.0000000000000000e+00  3.9303778076777710e-05 7.0599474765993791e-05 0.0000000000000000e+00  3.2350744510549409e-05 4.4527052095584508e-05 0.0000000000000000e+00  2.4149494902484664e-05 2.4079936422472304e-05 0.0000000000000000e+00  1.6721946017159396e-05 9.5460443266982734e-06 0.0000000000000000e+00  7.9158892813021251e-06 1.1140790237360436e-06 0.0000000000000000e+00  1.6846717375752317e-06 5.8968290191975488e-06 0.0000000000000000e+00  6.7783590518612572e-06 3.5685589715015419e-03 0.0000000000000000e+00  3.7362291828295028e-06 3.3672399965058910e-03 0.0000000000000000e+00  2.5527670142698701e-06 3.0384523104542219e-03 0.0000000000000000e+00  1.4209242532148171e-06 3.4832224694615495e-05 0.0000000000000000e+00  2.9091409564886670e-06 2.8318575390877060e-03 0.0000000000000000e+00  1.9783770048251791e-06 8.4453982786951280e-05 0.0000000000000000e+00  1.8944039482822828e-06 2.6220266706330022e-03 0.0000000000000000e+00  2.2813543226532127e-06 2.0601892975573055e-04 0.0000000000000000e+00  1.3491298748389581e-06 3.0586179252451812e-04 0.0000000000000000e+00  1.1035997751180167e-06 2.4130762308186607e-03 0.0000000000000000e+00  2.1486348669220980e-06 6.3453508444207007e-04 0.0000000000000000e+00  1.1559096880165037e-07 2.0001193128969257e-03 0.0000000000000000e+00  2.2743873780996318e-06 4.1950713190796036e-04 0.0000000000000000e+00  5.5456774936102350e-07 7.8589849644085375e-04 0.0000000000000000e+00  -1.2409677939466631e-07 1.7976522168309172e-03 0.0000000000000000e+00  5.1764515537075313e-07 2.2055418015469739e-03 0.0000000000000000e+00  2.8260039382250388e-07 9.5168968320200411e-04 0.0000000000000000e+00  -2.1167461670555203e-07 1.5991151171513827e-03 0.0000000000000000e+00  1.6188790340681085e-06 1.1199469811041191e-03 0.0000000000000000e+00  -1.8088555120900709e-06 1.4095707565848533e-03 0.0000000000000000e+00  -4.1587817331514302e-08 1.2570886861370117e-03 0.0000000000000000e+00  8.5726330257441232e-07 5.1860562574099396e-04 0.0000000000000000e+00  5.6293604813636100e-06 3.2093166432454064e-03 0.0000000000000000e+00  1.5222233637153978e-06 1.3761504045558715e-04 0.0000000000000000e+00  5.4731036397193177e-05 3.4664044985692798e-03 0.0000000000000000e+00  8.4354679118027875e-06 1.6009275157180283e-05 0.0000000000000000e+00  4.3181120839105383e-05 2.7260582363808315e-03 0.0000000000000000e+00  4.4426536750236364e-05 2.9362091894493520e-03 0.0000000000000000e+00  -1.0627248473788542e-05 6.0267051772604139e-05 0.0000000000000000e+00  -1.8262248858596594e-05 2.5446939319658180e-04 0.0000000000000000e+00  4.0184445930160372e-05 2.1016512855270165e-03 0.0000000000000000e+00  4.2089168964159954e-05 2.5165832054049120e-03 0.0000000000000000e+00  -2.9207506364880998e-05 7.0859462190888474e-04 0.0000000000000000e+00  3.9273330650198656e-05 1.8975808826467457e-03 0.0000000000000000e+00  -2.1591815253547248e-05 3.6487033460274405e-04 0.0000000000000000e+00  -3.1645305459752144e-05 8.6885774727724248e-04 0.0000000000000000e+00  3.8331201139053278e-05 1.6969401738411254e-03 0.0000000000000000e+00  4.1106977856344457e-05 2.3082414878347690e-03 0.0000000000000000e+00  -4.1253439210892576e-05 1.0389594668784091e-03 0.0000000000000000e+00  3.7337122996621031e-05 1.5007582702977864e-03 0.0000000000000000e+00  8.6108771976453768e-08 2.2443803374648019e-06 0.0000000000000000e+00  2.4972255490066694e-06 4.9544965205078743e-08 0.0000000000000000e+00  -2.4819250909251273e-05 3.6519112050588214e-03 0.0000000000000000e+00  -6.3057103432368647e-06 1.9937665518385802e-05 0.0000000000000000e+00  4.4912716073318492e-05 1.3310115935137830e-03 0.0000000000000000e+00  3.512915970409978