<?xml version="1.0"?>
<VTKFile type="UnstructuredGrid"  version="0.1"  >
<UnstructuredGrid>
<Piece  NumberOfPoints="1419" NumberOfCells="2698">
<Points>
<DataArray  type="Float64"  NumberOfComponents="3"  format="ascii">0 0 0  0 0.41 0  2.5 0 0  2.5 0.41 0  0.6 0.19 0  0.6 0.21 0  0.25 0.2 0  0.15 0.2 0  0.2489897948556636 0.21 0  0.2489897948556636 0.19 0  0.6 0.2 0  0 0.3807142857143437 0  0 0.3514285714286952 0  0 0.3221428571430699 0  0 0.29285714285744 0  0 0.2635714285718054 0  0 0.2342857142861561 0  0 0.2050000000005308 0  0 0.175714285714732 0  0 0.1464285714289574 0  0 0.1171428571431897 0  0 0.08785714285737878 0  0 0.05857142857161107 0  0 0.02928571428580012 0  0.03015443760436003 0 0  0.06140001986583606 0 0  0.09377624077125973 0 0  0.1273239957535082 0 0  0.1620856860351972 0 0  0.1981052433264291 0 0  0.235428184091502 0 0  0.2741016576309132 0 0  0.3141745521465447 0 0  0.3556974926295285 0 0  0.3987229542472677 0 0  0.4433053055141081 0 0  0.4895008759286886 0 0  0.5373680609405097 0 0  0.5869673343216626 0 0  0.6383613676634521 0 0  0.6916151138468254 0 0  0.7467958595648856 0 0  0.8039733463919316 0 0  0.8632198139502143 0 0  0.9246101326867038 0 0  0.9882218810934433 0 0  1.054135445558498 0 0  1.122434100542598 0 0  1.193204177141305 0 0  1.266535089879536 0 0  1.342519516046404 0 0  1.421253448503939 0 0  1.502836389106271 0 0  1.587371439758838 0 0  1.674965418777374 0 0  1.765729001825544 0 0  1.859776908880082 0 0  1.957227977487062 0 0  2.058205329869943 0 0  2.162836591189951 0 0  2.271253957290865 0 0  2.383594446803425 0 0  2.5 0.1024999999997612 0  2.5 0.2049999999994743 0  2.5 0.3074999999997183 0  2.383594446803656 0.41 0  2.271253957291315 0.41 0  2.162836591190598 0.41 0  2.058205329870775 0.41 0  1.957227977488067 0.41 0  1.859776908881246 0.41 0  1.765729001826854 0.41 0  1.674965418778818 0.41 0  1.58737143976041 0.41 0  1.502836389107956 0.41 0  1.421253448505726 0.41 0  1.342519516048286 0.41 0  1.266535089881505 0.41 0  1.193204177143353 0.41 0  1.122434100544716 0.41 0  1.05413544556068 0.41 0  0.9882218810956305 0.41 0  0.9246101326886647 0.41 0  0.8632198139519631 0.41 0  0.8039733463934788 0.41 0  0.7467958595662458 0.41 0  0.6916151138480078 0.41 0  0.6383613676644679 0.41 0  0.5869673343225223 0.41 0  0.5373680609412221 0.41 0  0.4895008759292634 0.41 0  0.4433053055145528 0.41 0  0.3987229542475914 0.41 0  0.3556974926297398 0.41 0  0.3141745521466497 0.41 0  0.2741016576310038 0.41 0  0.2354281840915826 0.41 0  0.1981052433265003 0.41 0  0.1620856860352591 0.41 0  0.1273239957535623 0.41 0  0.09377624077128965 0.41 0  0.06140001986584975 0.41 0  0.03015443760436654 0.41 0  0.2497468076502589 0.2050254481002335 0  0.2497468076502614 0.1949745518997913 0  0.2469965252529372 0.1829317073451959 0  0.2439893735792749 0.1762316384219906 0  0.2400332147834255 0.1700443375285386 0  0.2352133972704371 0.1645032867342007 0  0.2296339016332438 0.1597280261969788 0  0.2234150974217223 0.1558215752574715 0  0.2166911463437691 0.1528682099456123 0  0.2096071079204251 0.1509316448471593 0  0.2023158100364996 0.1500536585536553 0  0.194974551899914 0.1502531923497262 0  0.1877417105387872 0.1515259415822739 0  0.1807733240461124 0.153844448527136 0  0.1742197252835808 0.15715869474974 0  0.1682222986673531 0.1613971801805478 0  0.162910430003803 0.1664684656256651 0  0.1583987151779087 0.1722631454351573 0  0.1547844879126891 0.178656207771761 0  0.1521457199348551 0.1855097315605723 0  0.1505393388476355 0.1926758619366523 0  0.1505393388476328 0.2073241380633295 0  0.1521457199348437 0.2144902684393899 0  0.1547844879126531 0.221343792228163 0  0.1583987151778488 0.2277368545647528 0  0.1629104300036858 0.2335315343742052 0  0.1682222986671726 0.2386028198193036 0  0.1742197252833576 0.2428413052501257 0  0.1807733240458683 0.2461555514727623 0  0.1877417105384929 0.2484740584176516 0  0.1949745518995776 0.2497468076502398 0  0.202315810036185 0.2499463414463592 0  0.2096071079201568 0.2490683551528932 0  0.2166911463435495 0.2471317900544655 0  0.2234150974215506 0.2441784247426195 0  0.2296339016331197 0.2402719738031125 0  0.2352133972703547 0.2354967132658811 0  0.2400332147833751 0.2299556624715287 0  0.2439893735792577 0.2237683615780412 0  0.246996525252926 0.2170682926548348 0  0.25645809709277 0.21 0  0.2639263993298655 0.21 0  0.271394701566961 0.21 0  0.2788630038040554 0.21 0  0.2863313060411479 0.21 0  0.2937996082782405 0.21 0  0.301267910515333 0.21 0  0.3087362127524279 0.21 0  0.3162045149895234 0.21 0  0.3236728172265972 0.21 0  0.3311411194636928 0.21 0  0.3386094217007701 0.21 0  0.3460777239378666 0.21 0  0.3535460261749672 0.21 0  0.3610143284120516 0.21 0  0.3684826306491596 0.21 0  0.3759509328862226 0.21 0  0.383419235123329 0.21 0  0.3908875373604028 0.21 0  0.3983558395975142 0.21 0  0.4058241418345938 0.21 0  0.4132924440716992 0.21 0  0.4207607463087888 0.21 0  0.4282290485459029 0.21 0  0.4356973507830418 0.21 0  0.4431656530201649 0.21 0  0.4506339552573136 0.21 0  0.4581022574944306 0.21 0  0.4655705597315852 0.21 0  0.4730388619686996 0.21 0  0.480507164205851 0.21 0  0.4879754664429498 0.21 0  0.4954437686800938 0.21 0  0.502912070917267 0.21 0  0.5103803731544119 0.21 0  0.5178486753915261 0.21 0  0.5253169776286404 0.21 0  0.5327852798657868 0.21 0  0.5402535821029386 0.21 0  0.54772188434007 0.21 0  0.5551901865771842 0.21 0  0.5626584888143201 0.21 0  0.5701267910514778 0.21 0  0.5775950932886138 0.21 0  0.5850633955257281 0.21 0  0.5925316977628483 0.21 0  0.6 0.2050000000000054 0  0.6 0.1950000000000217 0  0.5925316977628897 0.19 0  0.5850633955257988 0.19 0  0.5775950932887378 0.19 0  0.5701267910515998 0.19 0  0.5626584888145268 0.19 0  0.5551901865773963 0.19 0  0.547721884340339 0.19 0  0.5402535821032429 0.19 0  0.5327852798661811 0.19 0  0.5253169776290537 0.19 0  0.5178486753919799 0.19 0  0.5103803731549078 0.19 0  0.502912070917822 0.19 0  0.4954437686807294 0.19 0  0.4879754664436223 0.19 0  0.4805071642065402 0.19 0  0.4730388619694271 0.19 0  0.4655705597323621 0.19 0  0.4581022574952563 0.19 0  0.4506339552581777 0.19 0  0.4431656530210671 0.19 0  0.4356973507839815 0.19 0  0.4282290485468779 0.19 0  0.4207607463097617 0.19 0  0.4132924440726327 0.19 0  0.4058241418354857 0.19 0  0.3983558395983636 0.19 0  0.3908875373612097 0.19 0  0.3834192351240934 0.19 0  0.3759509328869369 0.19 0  0.3684826306498175 0.19 0  0.361014328412667 0.19 0  0.3535460261755617 0.19 0  0.3460777239384295 0.19 0  0.3386094217012945 0.19 0  0.3311411194641595 0.19 0  0.3236728172270245 0.19 0  0.3162045149898895 0.19 0  0.3087362127527544 0.19 0  0.3012679105156187 0.19 0  0.2937996082784807 0.19 0  0.2863313060413428 0.19 0  0.2788630038042048 0.19 0  0.2713947015670686 0.19 0  0.2639263993299336 0.19 0  0.2564580970927985 0.19 0  0.2607803159922026 0.2000727136295815 0  0.5887803774232762 0.2001272386983733 0  0.5745072403740523 0.2002044435018727 0  0.5511891430099709 0.2001122610077113 0  0.2751288526855082 0.20000000000002 0  0.5365194309847112 0.1999999999999436 0  0.2894621222999649 0.1998691686390484 0  0.5215828265105155 0.1999999999999228 0  0.3127789816668748 0.1998657885438805 0  0.3274069683451451 0.2000000000000796 0  0.5066462220363641 0.199999999999908 0  0.3650630746574081 0.199866017807523 0  0.476773013087985 0.1999999999998713 0  0.3417402379596385 0.1998691686391011 0  0.3796850840047755 0.200000000000134 0  0.4618364086138087 0.1999999999998546 0  0.4917096175621762 0.1999999999998808 0  0.3946216884789568 0.2000000000001512 0  0.446899804139621 0.1999999999998389 0  0.4089549580935208 0.1998691686391595 0  0.4322718174608562 0.200127451265745 0  0.4201487168029707 0.1999966199048527 0  0.3528922713220932 0.2000185703532356 0  0.5633122436674589 0.1999814296467508 0  0.3006558810093873 0.1999966199048318 0  0.5815926498168407 0.1966545283159175 0  0.2677053789419034 0.1964246479135325 0  0.5290511287476175 0.1970915826863981 0  0.5439877332217911 0.197091582686394 0  0.2825131256993216 0.2035478995978015 0  0.3199386661080599 0.202908417313604 0  0.4842413153250809 0.1970915826863873 0  0.5141145242734466 0.1970915826863843 0  0.3722167817676917 0.2029084173136195 0  0.4693047108508938 0.1970915826863783 0  0.3348752705822316 0.202908417313609 0  0.3871533862418661 0.2029084173136212 0  0.4543681063767183 0.1970915826863795 0  0.4991779197992749 0.1970915826863902 0  0.4020059614928624 0.203547899597858 0  0.4394315019025246 0.1970915826863714 0  0.2550657455369551 0.2034088125358657 0  0.2548908499171161 0.1966940311614271 0  0.5946539510196798 0.2024302972968126 0  0.267698176732111 0.2039977513680092 0  0.4261685417851465 0.196409292431739 0  0.3590076176283495 0.196411355804271 0  0.5571672426447437 0.2036011176410121 0  0.3066757059912147 0.1964092924317024 0  0.594380730180568 0.1966558399668133 0  0.4842413153245942 0.2040749161535287 0  0.4693047108503577 0.2040749161535231 0  0.3871533862424271 0.1959250838464788 0  0.372246743208829 0.1959123236376545 0  0.5141145242731028 0.2040749161535395 0  0.4543681063761134 0.2040749161535186 0  0.4019979587101454 0.1959834479682427 0  0.4394608940728603 0.2040870543693135 0  0.5439623148931173 0.2040856076781014 0  0.5290511287473298 0.2040749161535501 0  0.4991779197988497 0.2040749161535382 0  0.3347912413592433 0.1959225448935183 0  0.3199680582793816 0.1959123018030061 0  0.2825051229162361 0.1959834479681729 0  0.3590471196690275 0.2036304442587945 0  0.5571594006495384 0.1963685282145804 0  0.3067669986803285 0.203627750582736 0  0.4262598344738712 0.2036568242185335 0  0.5814408164431408 0.2041285596160068 0  0.5688286748170428 0.1961819304477386 0  0.4145905603063645 0.2038180695522843 0  0.3473758401724931 0.2038180695522752 0  0.2950977245128307 0.2038180695522663 0  0.5688286748170693 0.203818069552238 0  0.2950977245127906 0.1961819304477774 0  0.3473758401723931 0.1961819304478349 0  0.4145905603061963 0.1961819304479011 0  0.2601812407614425 0.2056861609747042
[...]
<PointData  Vectors="f_40-0"> 
<DataArray  type="Float64"  Name="f_40-0"  NumberOfComponents="3" format="ascii">0.0000000000000000e+00 0.0000000000000000e+00 0.0000000000000000e+00  0.0000000000000000e+00 0.0000000000000000e+00 0.0000000000000000e+00  0.0000000000000000e+00 0.0000000000000000e+00 0.0000000000000000e+00  0.0000000000000000e+00 0.0000000000000000e+00 0.0000000000000000e+00  1.5332848114826573e-04 3.8839987564704289e-03 0.0000000000000000e+00  -1.3931468673712038e-04 3.8884305270220059e-03 0.0000000000000000e+00  0.0000000000000000e+00 0.0000000000000000e+00 0.0000000000000000e+00  0.0000000000000000e+00 0.0000000000000000e+00 0.0000000000000000e+00  0.0000000000000000e+00 0.0000000000000000e+00 0.0000000000000000e+00  0.0000000000000000e+00 0.0000000000000000e+00 0.0000000000000000e+00  7.4510953461193609e-06 3.8861914046602105e-03 0.0000000000000000e+00  7.3129531049010632e-01 0.0000000000000000e+00 0.0000000000000000e+00  1.3500836501356706e+00 0.0000000000000000e+00 0.0000000000000000e+00  1.8563650189365473e+00 0.0000000000000000e+00 0.0000000000000000e+00  2.2501394168933229e+00 0.0000000000000000e+00 0.0000000000000000e+00  2.5314068440059456e+00 0.0000000000000000e+00 0.0000000000000000e+00  2.7001673002744000e+00 0.0000000000000000e+00 0.0000000000000000e+00  2.7564207856985159e+00 0.0000000000000000e+00 0.0000000000000000e+00  2.7001673002778119e+00 0.0000000000000000e+00 0.0000000000000000e+00  2.5314068440118067e+00 0.0000000000000000e+00 0.0000000000000000e+00  2.2501394169005811e+00 0.0000000000000000e+00 0.0000000000000000e+00  1.8563650189434424e+00 0.0000000000000000e+00 0.0000000000000000e+00  1.3500836501415543e+00 0.0000000000000000e+00 0.0000000000000000e+00  7.3129531049342156e-01 0.0000000000000000e+00 0.0000000000000000e+00  0.0000000000000000e+00 0.0000000000000000e+00 0.0000000000000000e+00  0.0000000000000000e+00 0.0000000000000000e+00 0.0000000000000000e+00  0.0000000000000000e+00 0.0000000000000000e+00 0.0000000000000000e+00  0.0000000000000000e+00 0.0000000000000000e+00 0.0000000000000000e+00  0.0000000000000000e+00 0.0000000000000000e+00 0.0000000000000000e+00  0.0000000000000000e+00 0.0000000000000000e+00 0.0000000000000000e+00  0.0000000000000000e+00 0.0000000000000000e+00 0.0000000000000000e+00  0.0000000000000000e+00 0.0000000000000000e+00 0.0000000000000000e+00  0.0000000000000000e+00 0.0000000000000000e+00 0.0000000000000000e+00  0.0000000000000000e+00 0.0000000000000000e+00 0.0000000000000000e+00  0.0000000000000000e+00 0.0000000000000000e+00 0.0000000000000000e+00  0.0000000000000000e+00 0.0000000000000000e+00 0.0000000000000000e+00  0.0000000000000000e+00 0.0000000000000000e+00 0.0000000000000000e+00  0.0000000000000000e+00 0.0000000000000000e+00 0.0000000000000000e+00  0.0000000000000000e+00 0.0000000000000000e+00 0.0000000000000000e+00  0.0000000000000000e+00 0.0000000000000000e+00 0.0000000000000000e+00  0.0000000000000000e+00 0.0000000000000000e+00 0.0000000000000000e+00  0.0000000000000000e+00 0.0000000000000000e+00 0.0000000000000000e+00  0.0000000000000000e+00 0.0000000000000000e+00 0.0000000000000000e+00  0.0000000000000000e+00 0.0000000000000000e+00 0.0000000000000000e+00  0.0000000000000000e+00 0.0000000000000000e+00 0.0000000000000000e+00  0.0000000000000000e+00 0.0000000000000000e+00 0.0000000000000000e+00  0.0000000000000000e+00 0.0000000000000000e+00 0.0000000000000000e+00  0.0000000000000000e+00 0.0000000000000000e+00 0.0000000000000000e+00  0.0000000000000000e+00 0.0000000000000000e+00 0.0000000000000000e+00  0.0000000000000000e+00 0.0000000000000000e+00 0.0000000000000000e+00  0.0000000000000000e+00 0.0000000000000000e+00 0.0000000000000000e+00  0.0000000000000000e+00 0.0000000000000000e+00 0.0000000000000000e+00  0.0000000000000000e+00 0.0000000000000000e+00 0.0000000000000000e+00  0.0000000000000000e+00 0.0000000000000000e+00 0.0000000000000000e+00  0.0000000000000000e+00 0.0000000000000000e+00 0.0000000000000000e+00  0.0000000000000000e+00 0.0000000000000000e+00 0.0000000000000000e+00  0.0000000000000000e+00 0.0000000000000000e+00 0.0000000000000000e+00  0.0000000000000000e+00 0.0000000000000000e+00 0.0000000000000000e+00  0.0000000000000000e+00 0.0000000000000000e+00 0.0000000000000000e+00  0.0000000000000000e+00 0.0000000000000000e+00 0.0000000000000000e+00  0.0000000000000000e+00 0.0000000000000000e+00 0.0000000000000000e+00  0.0000000000000000e+00 0.0000000000000000e+00 0.0000000000000000e+00  2.4632974806966366e+00 -1.6661435872995605e-02 0.0000000000000000e+00  2.2467079461874691e+00 1.3037031011264712e-02 0.0000000000000000e+00  2.4323051057262290e+00 7.3496584340857193e-02 0.0000000000000000e+00  0.0000000000000000e+00 0.0000000000000000e+00 0.0000000000000000e+00  0.0000000000000000e+00 0.0000000000000000e+00 0.0000000000000000e+00  0.0000000000000000e+00 0.0000000000000000e+00 0.0000000000000000e+00  0.0000000000000000e+00 0.0000000000000000e+00 0.0000000000000000e+00  0.0000000000000000e+00 0.0000000000000000e+00 0.0000000000000000e+00  0.0000000000000000e+00 0.0000000000000000e+00 0.0000000000000000e+00  0.0000000000000000e+00 0.0000000000000000e+00 0.0000000000000000e+00  0.0000000000000000e+00 0.0000000000000000e+00 0.0000000000000000e+00  0.0000000000000000e+00 0.0000000000000000e+00 0.0000000000000000e+00  0.0000000000000000e+00 0.0000000000000000e+00 0.0000000000000000e+00  0.0000000000000000e+00 0.0000000000000000e+00 0.0000000000000000e+00  0.0000000000000000e+00 0.0000000000000000e+00 0.0000000000000000e+00  0.0000000000000000e+00 0.0000000000000000e+00 0.0000000000000000e+00  0.0000000000000000e+00 0.0000000000000000e+00 0.0000000000000000e+00  0.0000000000000000e+00 0.0000000000000000e+00 0.0000000000000000e+00  0.0000000000000000e+00 0.0000000000000000e+00 0.0000000000000000e+00  0.0000000000000000e+00 0.0000000000000000e+00 0.0000000000000000e+00  0.0000000000000000e+00 0.0000000000000000e+00 0.0000000000000000e+00  0.0000000000000000e+00 0.0000000000000000e+00 0.0000000000000000e+00  0.0000000000000000e+00 0.0000000000000000e+00 0.0000000000000000e+00  0.0000000000000000e+00 0.0000000000000000e+00 0.0000000000000000e+00  0.0000000000000000e+00 0.0000000000000000e+00 0.0000000000000000e+00  0.0000000000000000e+00 0.0000000000000000e+00 0.0000000000000000e+00  0.0000000000000000e+00 0.0000000000000000e+00 0.0000000000000000e+00  0.0000000000000000e+00 0.0000000000000000e+00 0.0000000000000000e+00  0.0000000000000000e+00 0.0000000000000000e+00 0.0000000000000000e+00  0.0000000000000000e+00 0.0000000000000000e+00 0.0000000000000000e+00  0.0000000000000000e+00 0.0000000000000000e+00 0.0000000000000000e+00  0.0000000000000000e+00 0.0000000000000000e+00 0.0000000000000000e+00  0.0000000000000000e+00 0.0000000000000000e+00 0.0000000000000000e+00  0.0000000000000000e+00 0.0000000000000000e+00 0.0000000000000000e+00  0.0000000000000000e+00 0.0000000000000000e+00 0.0000000000000000e+00  0.0000000000000000e+00 0.0000000000000000e+00 0.0000000000000000e+00  0.0000000000000000e+00 0.0000000000000000e+00 0.0000000000000000e+00  0.0000000000000000e+00 0.0000000000000000e+00 0.0000000000000000e+00  0.0000000000000000e+00 0.0000000000000000e+00 0.0000000000000000e+00  0.0000000000000000e+00 0.0000000000000000e+00 0.0000000000000000e+00  0.0000000000000000e+00 0.0000000000000000e+00 0.0000000000000000e+00  0.0000000000000000e+00 0.0000000000000000e+00 0.0000000000000000e+00  0.0000000000000000e+00 0.0000000000000000e+00 0.0000000000000000e+00  0.0000000000000000e+00 0.0000000000000000e+00 0.0000000000000000e+00  0.0000000000000000e+00 0.0000000000000000e+00 0.0000000000000000e+00  0.0000000000000000e+00 0.0000000000000000e+00 0.0000000000000000e+00  0.0000000000000000e+00 0.0000000000000000e+00 0.0000000000000000e+00  0.0000000000000000e+00 0.0000000000000000e+00 0.0000000000000000e+00  0.0000000000000000e+00 0.0000000000000000e+00 0.0000000000000000e+00  0.0000000000000000e+00 0.0000000000000000e+00 0.0000000000000000e+00  0.0000000000000000e+00 0.0000000000000000e+00 0.0000000000000000e+00  0.0000000000000000e+00 0.0000000000000000e+00 0.0000000000000000e+00  0.0000000000000000e+00 0.0000000000000000e+00 0.0000000000000000e+00  0.0000000000000000e+00 0.0000000000000000e+00 0.0000000000000000e+00  0.0000000000000000e+00 0.0000000000000000e+00 0.0000000000000000e+00  0.0000000000000000e+00 0.0000000000000000e+00 0.0000000000000000e+00  0.0000000000000000e+00 0.0000000000000000e+00 0.0000000000000000e+00  0.0000000000000000e+00 0.0000000000000000e+00 0.0000000000000000e+00  0.0000000000000000e+00 0.0000000000000000e+00 0.0000000000000000e+00  0.0000000000000000e+00 0.0000000000000000e+00 0.0000000000000000e+00  0.0000000000000000e+00 0.0000000000000000e+00 0.0000000000000000e+00  0.0000000000000000e+00 0.0000000000000000e+00 0.0000000000000000e+00  0.0000000000000000e+00 0.0000000000000000e+00 0.0000000000000000e+00  0.0000000000000000e+00 0.0000000000000000e+00 0.0000000000000000e+00  0.0000000000000000e+00 0.0000000000000000e+00 0.0000000000000000e+00  0.0000000000000000e+00 0.0000000000000000e+00 0.0000000000000000e+00  0.0000000000000000e+00 0.0000000000000000e+00 0.0000000000000000e+00  0.0000000000000000e+00 0.0000000000000000e+00 0.0000000000000000e+00  0.0000000000000000e+00 0.0000000000000000e+00 0.0000000000000000e+00  0.0000000000000000e+00 0.0000000000000000e+00 0.0000000000000000e+00  0.0000000000000000e+00 0.0000000000000000e+00 0.0000000000000000e+00  0.0000000000000000e+00 0.0000000000000000e+00 0.0000000000000000e+00  0.0000000000000000e+00 0.0000000000000000e+00 0.0000000000000000e+00  0.0000000000000000e+00 0.0000000000000000e+00 0.0000000000000000e+00  0.0000000000000000e+00 0.0000000000000000e+00 0.0000000000000000e+00  0.0000000000000000e+00 0.0000000000000000e+00 0.0000000000000000e+00  0.0000000000000000e+00 0.0000000000000000e+00 0.0000000000000000e+00  0.0000000000000000e+00 0.0000000000000000e+00 0.0000000000000000e+00  0.0000000000000000e+00 0.0000000000000000e+00 0.0000000000000000e+00  0.0000000000000000e+00 0.0000000000000000e+00 0.0000000000000000e+00  0.0000000000000000e+00 0.0000000000000000e+00 0.0000000000000000e+00  -7.2398399501480520e-06 1.0690899689842830e-05 0.0000000000000000e+00  -1.5725563480648418e-05 2.0335348379962147e-05 0.0000000000000000e+00  -2.3397614553882352e-05 3.5921424252278582e-05 0.0000000000000000e+00  -3.1930692281356346e-05 5.7869745452609266e-05 0.0000000000000000e+00  -3.9076859878468379e-05 8.5366400324410701e-05 0.0000000000000000e+00  -4.7308947236070758e-05 1.1894923512113307e-04 0.0000000000000000e+00  -5.3883363427213615e-05 1.5707410083858926e-04 0.0000000000000000e+00  -6.0290677901546116e-05 2.0119070503019014e-04 0.0000000000000000e+00  -6.7751003536376781e-05 2.4986257846895075e-04 0.0000000000000000e+00  -7.3373127233080873e-05 3.0332862742945573e-04 0.0000000000000000e+00  -8.0344102781132538e-05 3.6149415927011442e-04 0.0000000000000000e+00  -8.5499117942734046e-05 4.2402439796398084e-04 0.0000000000000000e+00  -9.1656042444792897e-05 4.9075698393790106e-04 0.0000000000000000e+00  -9.6466773093230120e-05 5.6091014148849114e-04 0.0000000000000000e+00  -1.0108909380817853e-04 6.3526899576248595e-04 0.0000000000000000e+00  -1.0633964075291047e-04 7.1277986354487512e-04 0.0000000000000000e+00  -1.1022672092300932e-04 7.9352580446976522e-04 0.0000000000000000e+00  -1.1487488393266099e-04 8.7739688368402180e-04 0.0000000000000000e+00  -1.1822993095379339e-04 9.6401794451820525e-04 0.0000000000000000e+00  -1.2215563043392773e-04 1.0532031694414120e-03 0.0000000000000000e+00  -1.2515894373249105e-04 1.1448044130551774e-03 0.0000000000000000e+00  -1.2840811030312668e-04 1.2387044897801552e-03 0.0000000000000000e+00  -1.3089750646799031e-04 1.3342617779930259e-03 0.0000000000000000e+00  -1.3317788060760924e-04 1.4319187916239254e-03 0.0000000000000000e+00  -1.3562363817458176e-04 1.5309693676156266e-03 0.0000000000000000e+00  -1.3751401485032037e-04 1.6316087911390693e-03 0.0000000000000000e+00  -1.3931009347922652e-04 1.7336193726419072e-03 0.0000000000000000e+00  -1.4076682616517521e-04 1.8367056894919678e-03 0.0000000000000000e+00  -1.4211009609280549e-04 1.9409266654624897e-03 0.0000000000000000e+00  -1.4315990681984888e-04 2.0459635170683643e-03 0.0000000000000000e+00  -1.4409030913107673e-04 2.1518784738449996e-03 0.0000000000000000e+00  -1.4476577855607672e-04 2.2583780026315891e-03 0.0000000000000000e+00  -1.4532213094218158e-04 2.3655275526533390e-03 0.0000000000000000e+00  -1.4566013626003921e-04 2.4730645205700060e-03 0.0000000000000000e+00  -1.4587580701410019e-04 2.5810681034118071e-03 0.0000000000000000e+00  -1.4591250748962020e-04 2.6893083171749218e-03 0.0000000000000000e+00  -1.4583904690118873e-04 2.7978619123950328e-03 0.0000000000000000e+00  -1.4561726574251942e-04 2.9065409858814919e-03 0.0000000000000000e+00  -1.4529242372574055e-04 3.0154253140640686e-03 0.0000000000000000e+00  -1.4484152914717854e-04 3.1243571505434687e-03 0.0000000000000000e+00  -1.4428887875852337e-04 3.2334064563436346e-03 0.0000000000000000e+00  -1.4364293121895585e-04 3.3424714613753369e-03 0.0000000000000000e+00  -1.4289115901023659e-04 3.4515860657657409e-03 0.0000000000000000e+00  -1.4208880106327036e-04 3.5607096002453109e-03 0.0000000000000000e+00  -1.4117788609670654e-04 3.6698161942167189e-03 0.0000000000000000e+00  -1.4022169477911596e-04 3.7789869187636518e-03 0.0000000000000000e+00  -6.5769066893834073e-05 3.8873045024310758e-03 0.0000000000000000e+00  8.0528679794845455e-05 3.8850869474244083e-03 0.0000000000000000e+00  1.5238540078566846e-04 3.7748597391292567e-03 0.0000000000000000e+00  1.5138430869888060e-04 3.6655130840996895e-03 0.0000000000000000e+00  1.5042557253042269e-04 3.5561467360259546e-03 0.0000000000000000e+00  1.4953728024601833e-04 3.4468311281013425e-03 0.0000000000000000e+00  1.4869020970478179e-04 3.3375355381288310e-03 0.0000000000000000e+00  1.4791037160663084e-04 3.2282896780632202e-03 0.0000000000000000e+00  1.4714020293503551e-04 3.1191021784740709e-03 0.0000000000000000e+00  1.4643336904592778e-04 3.0099813125025929e-03 0.0000000000000000e+00  1.4569941348491382e-04 2.9009946787919437e-03 0.0000000000000000e+00  1.4502511355505464e-04 2.7921359059059972e-03 0.0000000000000000e+00  1.4426678848148409e-04 2.6834886311374682e-03 0.0000000000000000e+00  1.4357639741404419e-04 2.5750797416739433e-03 0.0000000000000000e+00  1.4272960691479684e-04 2.4669931658278734e-03 0.0000000000000000e+00  1.4196791174600530e-04 2.3592968825968063e-03 0.0000000000000000e+00  1.4096246706748005e-04 2.2520723748173598e-03 0.0000000000000000e+00  1.4007510370694505e-04 2.1454270135004339e-03 0.0000000000000000e+00  1.3884603540124517e-04 2.0394422139633152e-03 0.0000000000000000e+00  1.3778155237368370e-04 1.9342633214979078e-03 0.0000000000000000e+00  1.3626562865344925e-04 1.8299719645423348e-03 0.0000000000000000e+00  1.3497489392454921e-04 1.7267434986931729e-03 0.0000000000000000e+00  1.3309940668047621e-04 1.6246664623263865e-03 0.0000000000000000e+00  1.3151805377163177e-04 1.5239505055329402e-03 0.0000000000000000e+00  1.2925838866087878e-04 1.4247128879877186e-03 0.0000000000000000e+00  1.2723947258888238e-04 1.3269757419993233e-03 0.0000000000000000e+00  1.2505460137973202e-04 1.2313374827048037e-03 0.0000000000000000e+00  1.2219541670448750e-04 1.1372742599149480e-03 0.0000000000000000e+00  1.1945157802700983e-04 1.0456508953196710e-03 0.0000000000000000e+00  1.1616624956168200e-04 9.5624734766880978e-04 0.0000000000000000e+00  1.1289395477085387e-04 8.6956436452004487e-04 0.0000000000000000e+00  1.0906760167435712e-04 7.8556840483065386e-04 0.0000000000000000e+00  1.0525516313955698e-04 7.0457532107194370e-04 0.0000000000000000e+00  1.0049162953200474e-04 6.2714618085761792e-04 0.0000000000000000e+00  9.6282968478422618e-05 5.5261501673105036e-04 0.0000000000000000e+00  9.1843076964570928e-05 4.8239517844220599e-04 0.0000000000000000e+00  8.6235766945677787e-05 4.1525924324330751e-04 0.0000000000000000e+00  8.0927189640054792e-05 3.5275336072845484e-04 0.0000000000000000e+00  7.4878330502696822e-05 2.9442011705839167e-04 0.0000000000000000e+00  6.9003592178283301e-05 2.4062983150263355e-04 0.0000000000000000e+00  6.1885877707789676e-05 1.9210624149113345e-04 0.0000000000000000e+00  5.5671602493314661e-05 1.4778220237038437e-04 0.0000000000000000e+00  4.9264013584516929e-05 1.0955152837801392e-04 0.0000000000000000e+00  4.1297265836812932e-05 7.5681074818506407e-05 0.0000000000000000e+00  3.4030379068166550e-05 4.7939475762384387e-05 0.0000000000000000e+00  2.5424434147161315e-05 2.6139504844805495e-05 0.0000000000000000e+00  1.7624092409062189e-05 1.0608239028972607e-05 0.0000000000000000e+00  8.3465558929531928e-06 1.5424763481663838e-06 0.0000000000000000e+00  1.5659731040153527e-06 6.3675159387476857e-06 0.0000000000000000e+00  3.9037904323099063e-06 3.7220550600124110e-03 0.0000000000000000e+00  8.8117557639961643e-07 3.5132905362480378e-03 0.0000000000000000e+00  -1.3709659049766494e-07 3.1723542462876696e-03 0.0000000000000000e+00  1.1624454241598678e-06 3.7298606991175355e-05 0.0000000000000000e+00  3.6024714896266283e-07 2.9581226446830007e-03 0.0000000000000000e+00  1.6039295487141009e-06 9.0132571577353817e-05 0.0000000000000000e+00  -5.6468840897247424e-07 2.7405114600438990e-03 0.0000000000000000e+00  1.6821116992325535e-06 2.1904464378669737e-04 0.0000000000000000e+00  5.5091317464752357e-07 3.2457015778488709e-04 0.0000000000000000e+00  -1.2599739320231643e-06 2.5237626531794039e-03 0.0000000000000000e+00  1.0334923960988643e-06 6.7051345387183960e-04 0.0000000000000000e+00  -2.0401163828960987e-06 2.0950956076226214e-03 0.0000000000000000e+00  1.3868388640554037e-06 4.4441093892799011e-04 0.0000000000000000e+00  -7.7016516152331717e-07 8.2926262805797118e-04 0.0000000000000000e+00  -2.1673491341432609e-06 1.8846976189560421e-03 0.0000000000000000e+00  -1.7448117522728813e-06 2.3083964421695474e-03 0.0000000000000000e+00  -1.1847755835619720e-06 1.0028278351176746e-03 0.0000000000000000e+00  -2.1367786725469857e-06 1.6781817601559412e-03 0.0000000000000000e+00  8.8600414324052722e-08 1.1786825658165242e-03 0.0000000000000000e+00  -3.6809056228783156e-06 1.4807938625147189e-03 0.0000000000000000e+00  -1.7389136943226792e-06 1.3218107438958007e-03 0.0000000000000000e+00  -2.1030739696748938e-07 5.4869163452685892e-04 0.0000000000000000e+00  2.9451779199367251e-06 3.3495327569061694e-03 0.0000000000000000e+00  1.0025252462776113e-06 1.4656402102369880e-04 0.0000000000000000e+00  5.3696608814567644e-05 3.6161568062553504e-03 0.0000000000000000e+00  8.7093088422052542e-06 1.7324371784083173e-05 0.0000000000000000e+00  4.2192802273440774e-05 2.8484347871445609e-03 0.0000000000000000e+00  4.3349941619329744e-05 3.0663633611414070e-03 0.0000000000000000e+00  -1.1722766017119096e-05 6.4281620249517860e-05 0.0000000000000000e+00  -2.0092517299086644e-05 2.7019910023743949e-04 0.0000000000000000e+00  3.9509043117876664e-05 2.2005717717702659e-03 0.0000000000000000e+00  4.1197213317119806e-05 2.6311714467756550e-03 0.0000000000000000e+00  -3.1914179919275279e-05 7.4815596787116095e-04 0.0000000000000000e+00  3.8716338467700502e-05 1.9885970124454743e-03 0.0000000000000000e+00  -2.3703639130733553e-05 3.8674808524368875e-04 0.0000000000000000e+00  -3.4542971455850369e-05 9.1608793082918782e-04 0.0000000000000000e+00  3.7897133730126094e-05 1.7800007095066853e-03 0.0000000000000000e+00  4.0319554348001765e-05 2.4150159847274623e-03 0.0000000000000000e+00  -4.4657635658258387e-05 1.0940006144454179e-03 0.0000000000000000e+00  3.7028180352148463e-05 1.5758227752058461e-03 0.0000000000000000e+00  -5.5811053081973919e-08 2.3559352219005137e-06 0.0000000000000000e+00  2.5206631475987482e-06 1.5227262829922366e-07 0.0000000000000000e+00  -2.8917542431935656e-05 3.8084680692092011e-03 0.0000000000000000e+00  -6.9991553589299929e-06 2.1248135277075085e-05 0.0000000000000000e+00  4.5079860351483957e-05 1.3989614511668528e-03 0.0000000000000000e+00  3.573461