<?xml version="1.0"?>
<VTKFile type="UnstructuredGrid"  version="0.1"  >
<UnstructuredGrid>
<Piece  NumberOfPoints="1419" NumberOfCells="2698">
<Points>
<DataArray  type="Float64"  NumberOfComponents="3"  format="ascii">0 0 0  0 0.41 0  2.5 0 0  2.5 0.41 0  0.6 0.19 0  0.6 0.21 0  0.25 0.2 0  0.15 0.2 0  0.2489897948556636 0.21 0  0.2489897948556636 0.19 0  0.6 0.2 0  0 0.3807142857143437 0  0 0.3514285714286952 0  0 0.3221428571430699 0  0 0.29285714285744 0  0 0.2635714285718054 0  0 0.2342857142861561 0  0 0.2050000000005308 0  0 0.175714285714732 0  0 0.1464285714289574 0  0 0.1171428571431897 0  0 0.08785714285737878 0  0 0.05857142857161107 0  0 0.02928571428580012 0  0.03015443760436003 0 0  0.06140001986583606 0 0  0.09377624077125973 0 0  0.1273239957535082 0 0  0.1620856860351972 0 0  0.1981052433264291 0 0  0.235428184091502 0 0  0.2741016576309132 0 0  0.3141745521465447 0 0  0.3556974926295285 0 0  0.3987229542472677 0 0  0.4433053055141081 0 0  0.4895008759286886 0 0  0.5373680609405097 0 0  0.5869673343216626 0 0  0.6383613676634521 0 0  0.6916151138468254 0 0  0.7467958595648856 0 0  0.8039733463919316 0 0  0.8632198139502143 0 0  0.9246101326867038 0 0  0.9882218810934433 0 0  1.054135445558498 0 0  1.122434100542598 0 0  1.193204177141305 0 0  1.266535089879536 0 0  1.342519516046404 0 0  1.421253448503939 0 0  1.502836389106271 0 0  1.587371439758838 0 0  1.674965418777374 0 0  1.765729001825544 0 0  1.859776908880082 0 0  1.957227977487062 0 0  2.058205329869943 0 0  2.162836591189951 0 0  2.271253957290865 0 0  2.383594446803425 0 0  2.5 0.1024999999997612 0  2.5 0.2049999999994743 0  2.5 0.3074999999997183 0  2.383594446803656 0.41 0  2.271253957291315 0.41 0  2.162836591190598 0.41 0  2.058205329870775 0.41 0  1.957227977488067 0.41 0  1.859776908881246 0.41 0  1.765729001826854 0.41 0  1.674965418778818 0.41 0  1.58737143976041 0.41 0  1.502836389107956 0.41 0  1.421253448505726 0.41 0  1.342519516048286 0.41 0  1.266535089881505 0.41 0  1.193204177143353 0.41 0  1.122434100544716 0.41 0  1.05413544556068 0.41 0  0.9882218810956305 0.41 0  0.9246101326886647 0.41 0  0.8632198139519631 0.41 0  0.8039733463934788 0.41 0  0.7467958595662458 0.41 0  0.6916151138480078 0.41 0  0.6383613676644679 0.41 0  0.5869673343225223 0.41 0  0.5373680609412221 0.41 0  0.4895008759292634 0.41 0  0.4433053055145528 0.41 0  0.3987229542475914 0.41 0  0.3556974926297398 0.41 0  0.3141745521466497 0.41 0  0.2741016576310038 0.41 0  0.2354281840915826 0.41 0  0.1981052433265003 0.41 0  0.1620856860352591 0.41 0  0.1273239957535623 0.41 0  0.09377624077128965 0.41 0  0.06140001986584975 0.41 0  0.03015443760436654 0.41 0  0.2497468076502589 0.2050254481002335 0  0.2497468076502614 0.1949745518997913 0  0.2469965252529372 0.1829317073451959 0  0.2439893735792749 0.1762316384219906 0  0.2400332147834255 0.1700443375285386 0  0.2352133972704371 0.1645032867342007 0  0.2296339016332438 0.1597280261969788 0  0.2234150974217223 0.1558215752574715 0  0.2166911463437691 0.1528682099456123 0  0.2096071079204251 0.1509316448471593 0  0.2023158100364996 0.1500536585536553 0  0.194974551899914 0.1502531923497262 0  0.1877417105387872 0.1515259415822739 0  0.1807733240461124 0.153844448527136 0  0.1742197252835808 0.15715869474974 0  0.1682222986673531 0.1613971801805478 0  0.162910430003803 0.1664684656256651 0  0.1583987151779087 0.1722631454351573 0  0.1547844879126891 0.178656207771761 0  0.1521457199348551 0.1855097315605723 0  0.1505393388476355 0.1926758619366523 0  0.1505393388476328 0.2073241380633295 0  0.1521457199348437 0.2144902684393899 0  0.1547844879126531 0.221343792228163 0  0.1583987151778488 0.2277368545647528 0  0.1629104300036858 0.2335315343742052 0  0.1682222986671726 0.2386028198193036 0  0.1742197252833576 0.2428413052501257 0  0.1807733240458683 0.2461555514727623 0  0.1877417105384929 0.2484740584176516 0  0.1949745518995776 0.2497468076502398 0  0.202315810036185 0.2499463414463592 0  0.2096071079201568 0.2490683551528932 0  0.2166911463435495 0.2471317900544655 0  0.2234150974215506 0.2441784247426195 0  0.2296339016331197 0.2402719738031125 0  0.2352133972703547 0.2354967132658811 0  0.2400332147833751 0.2299556624715287 0  0.2439893735792577 0.2237683615780412 0  0.246996525252926 0.2170682926548348 0  0.25645809709277 0.21 0  0.2639263993298655 0.21 0  0.271394701566961 0.21 0  0.2788630038040554 0.21 0  0.2863313060411479 0.21 0  0.2937996082782405 0.21 0  0.301267910515333 0.21 0  0.3087362127524279 0.21 0  0.3162045149895234 0.21 0  0.3236728172265972 0.21 0  0.3311411194636928 0.21 0  0.3386094217007701 0.21 0  0.3460777239378666 0.21 0  0.3535460261749672 0.21 0  0.3610143284120516 0.21 0  0.3684826306491596 0.21 0  0.3759509328862226 0.21 0  0.383419235123329 0.21 0  0.3908875373604028 0.21 0  0.3983558395975142 0.21 0  0.4058241418345938 0.21 0  0.4132924440716992 0.21 0  0.4207607463087888 0.21 0  0.4282290485459029 0.21 0  0.4356973507830418 0.21 0  0.4431656530201649 0.21 0  0.4506339552573136 0.21 0  0.4581022574944306 0.21 0  0.4655705597315852 0.21 0  0.4730388619686996 0.21 0  0.480507164205851 0.21 0  0.4879754664429498 0.21 0  0.4954437686800938 0.21 0  0.502912070917267 0.21 0  0.5103803731544119 0.21 0  0.5178486753915261 0.21 0  0.5253169776286404 0.21 0  0.5327852798657868 0.21 0  0.5402535821029386 0.21 0  0.54772188434007 0.21 0  0.5551901865771842 0.21 0  0.5626584888143201 0.21 0  0.5701267910514778 0.21 0  0.5775950932886138 0.21 0  0.5850633955257281 0.21 0  0.5925316977628483 0.21 0  0.6 0.2050000000000054 0  0.6 0.1950000000000217 0  0.5925316977628897 0.19 0  0.5850633955257988 0.19 0  0.5775950932887378 0.19 0  0.5701267910515998 0.19 0  0.5626584888145268 0.19 0  0.5551901865773963 0.19 0  0.547721884340339 0.19 0  0.5402535821032429 0.19 0  0.5327852798661811 0.19 0  0.5253169776290537 0.19 0  0.5178486753919799 0.19 0  0.5103803731549078 0.19 0  0.502912070917822 0.19 0  0.4954437686807294 0.19 0  0.4879754664436223 0.19 0  0.4805071642065402 0.19 0  0.4730388619694271 0.19 0  0.4655705597323621 0.19 0  0.4581022574952563 0.19 0  0.4506339552581777 0.19 0  0.4431656530210671 0.19 0  0.4356973507839815 0.19 0  0.4282290485468779 0.19 0  0.4207607463097617 0.19 0  0.4132924440726327 0.19 0  0.4058241418354857 0.19 0  0.3983558395983636 0.19 0  0.3908875373612097 0.19 0  0.3834192351240934 0.19 0  0.3759509328869369 0.19 0  0.3684826306498175 0.19 0  0.361014328412667 0.19 0  0.3535460261755617 0.19 0  0.3460777239384295 0.19 0  0.3386094217012945 0.19 0  0.3311411194641595 0.19 0  0.3236728172270245 0.19 0  0.3162045149898895 0.19 0  0.3087362127527544 0.19 0  0.3012679105156187 0.19 0  0.2937996082784807 0.19 0  0.2863313060413428 0.19 0  0.2788630038042048 0.19 0  0.2713947015670686 0.19 0  0.2639263993299336 0.19 0  0.2564580970927985 0.19 0  0.2607803159922026 0.2000727136295815 0  0.5887803774232762 0.2001272386983733 0  0.5745072403740523 0.2002044435018727 0  0.5511891430099709 0.2001122610077113 0  0.2751288526855082 0.20000000000002 0  0.5365194309847112 0.1999999999999436 0  0.2894621222999649 0.1998691686390484 0  0.5215828265105155 0.1999999999999228 0  0.3127789816668748 0.1998657885438805 0  0.3274069683451451 0.2000000000000796 0  0.5066462220363641 0.199999999999908 0  0.3650630746574081 0.199866017807523 0  0.476773013087985 0.1999999999998713 0  0.3417402379596385 0.1998691686391011 0  0.3796850840047755 0.200000000000134 0  0.4618364086138087 0.1999999999998546 0  0.4917096175621762 0.1999999999998808 0  0.3946216884789568 0.2000000000001512 0  0.446899804139621 0.1999999999998389 0  0.4089549580935208 0.1998691686391595 0  0.4322718174608562 0.200127451265745 0  0.4201487168029707 0.1999966199048527 0  0.3528922713220932 0.2000185703532356 0  0.5633122436674589 0.1999814296467508 0  0.3006558810093873 0.1999966199048318 0  0.5815926498168407 0.1966545283159175 0  0.2677053789419034 0.1964246479135325 0  0.5290511287476175 0.1970915826863981 0  0.5439877332217911 0.197091582686394 0  0.2825131256993216 0.2035478995978015 0  0.3199386661080599 0.202908417313604 0  0.4842413153250809 0.1970915826863873 0  0.5141145242734466 0.1970915826863843 0  0.3722167817676917 0.2029084173136195 0  0.4693047108508938 0.1970915826863783 0  0.3348752705822316 0.202908417313609 0  0.3871533862418661 0.2029084173136212 0  0.4543681063767183 0.1970915826863795 0  0.4991779197992749 0.1970915826863902 0  0.4020059614928624 0.203547899597858 0  0.4394315019025246 0.1970915826863714 0  0.2550657455369551 0.2034088125358657 0  0.2548908499171161 0.1966940311614271 0  0.5946539510196798 0.2024302972968126 0  0.267698176732111 0.2039977513680092 0  0.4261685417851465 0.196409292431739 0  0.3590076176283495 0.196411355804271 0  0.5571672426447437 0.2036011176410121 0  0.3066757059912147 0.1964092924317024 0  0.594380730180568 0.1966558399668133 0  0.4842413153245942 0.2040749161535287 0  0.4693047108503577 0.2040749161535231 0  0.3871533862424271 0.1959250838464788 0  0.372246743208829 0.1959123236376545 0  0.5141145242731028 0.2040749161535395 0  0.4543681063761134 0.2040749161535186 0  0.4019979587101454 0.1959834479682427 0  0.4394608940728603 0.2040870543693135 0  0.5439623148931173 0.2040856076781014 0  0.5290511287473298 0.2040749161535501 0  0.4991779197988497 0.2040749161535382 0  0.3347912413592433 0.1959225448935183 0  0.3199680582793816 0.1959123018030061 0  0.2825051229162361 0.1959834479681729 0  0.3590471196690275 0.2036304442587945 0  0.5571594006495384 0.1963685282145804 0  0.3067669986803285 0.203627750582736 0  0.4262598344738712 0.2036568242185335 0  0.5814408164431408 0.2041285596160068 0  0.5688286748170428 0.1961819304477386 0  0.4145905603063645 0.2038180695522843 0  0.3473758401724931 0.2038180695522752 0  0.2950977245128307 0.2038180695522663 0  0.5688286748170693 0.203818069552238 0  0.2950977245127906 0.1961819304477774 0  0.3473758401723931 0.1961819304478349 0  0.4145905603061963 0.1961819304479011 0  0.2601812407614425 0.2056861609747042
[...]
<PointData  Vectors="f_40-0"> 
<DataArray  type="Float64"  Name="f_40-0"  NumberOfComponents="3" format="ascii">0.0000000000000000e+00 0.0000000000000000e+00 0.0000000000000000e+00  0.0000000000000000e+00 0.0000000000000000e+00 0.0000000000000000e+00  0.0000000000000000e+00 0.0000000000000000e+00 0.0000000000000000e+00  0.0000000000000000e+00 0.0000000000000000e+00 0.0000000000000000e+00  -1.1873328362685971e-04 -1.1534539045497108e-03 0.0000000000000000e+00  3.1136897681241422e-05 -1.1552548270399984e-03 0.0000000000000000e+00  0.0000000000000000e+00 0.0000000000000000e+00 0.0000000000000000e+00  0.0000000000000000e+00 0.0000000000000000e+00 0.0000000000000000e+00  0.0000000000000000e+00 0.0000000000000000e+00 0.0000000000000000e+00  0.0000000000000000e+00 0.0000000000000000e+00 0.0000000000000000e+00  -4.4343645578279784e-05 -1.1543168069861783e-03 0.0000000000000000e+00  3.8614628675477131e-01 0.0000000000000000e+00 0.0000000000000000e+00  7.1288545247039425e-01 0.0000000000000000e+00 0.0000000000000000e+00  9.8021749714679229e-01 0.0000000000000000e+00 0.0000000000000000e+00  1.1881424207842750e+00 0.0000000000000000e+00 0.0000000000000000e+00  1.3366602233828151e+00 0.0000000000000000e+00 0.0000000000000000e+00  1.4257709049424037e+00 0.0000000000000000e+00 0.0000000000000000e+00  1.4554744654629523e+00 0.0000000000000000e+00 0.0000000000000000e+00  1.4257709049442056e+00 0.0000000000000000e+00 0.0000000000000000e+00  1.3366602233859097e+00 0.0000000000000000e+00 0.0000000000000000e+00  1.1881424207881073e+00 0.0000000000000000e+00 0.0000000000000000e+00  9.8021749715043305e-01 0.0000000000000000e+00 0.0000000000000000e+00  7.1288545247350110e-01 0.0000000000000000e+00 0.0000000000000000e+00  3.8614628675652179e-01 0.0000000000000000e+00 0.0000000000000000e+00  0.0000000000000000e+00 0.0000000000000000e+00 0.0000000000000000e+00  0.0000000000000000e+00 0.0000000000000000e+00 0.0000000000000000e+00  0.0000000000000000e+00 0.0000000000000000e+00 0.0000000000000000e+00  0.0000000000000000e+00 0.0000000000000000e+00 0.0000000000000000e+00  0.0000000000000000e+00 0.0000000000000000e+00 0.0000000000000000e+00  0.0000000000000000e+00 0.0000000000000000e+00 0.0000000000000000e+00  0.0000000000000000e+00 0.0000000000000000e+00 0.0000000000000000e+00  0.0000000000000000e+00 0.0000000000000000e+00 0.0000000000000000e+00  0.0000000000000000e+00 0.0000000000000000e+00 0.0000000000000000e+00  0.0000000000000000e+00 0.0000000000000000e+00 0.0000000000000000e+00  0.0000000000000000e+00 0.0000000000000000e+00 0.0000000000000000e+00  0.0000000000000000e+00 0.0000000000000000e+00 0.0000000000000000e+00  0.0000000000000000e+00 0.0000000000000000e+00 0.0000000000000000e+00  0.0000000000000000e+00 0.0000000000000000e+00 0.0000000000000000e+00  0.0000000000000000e+00 0.0000000000000000e+00 0.0000000000000000e+00  0.0000000000000000e+00 0.0000000000000000e+00 0.0000000000000000e+00  0.0000000000000000e+00 0.0000000000000000e+00 0.0000000000000000e+00  0.0000000000000000e+00 0.0000000000000000e+00 0.0000000000000000e+00  0.0000000000000000e+00 0.0000000000000000e+00 0.0000000000000000e+00  0.0000000000000000e+00 0.0000000000000000e+00 0.0000000000000000e+00  0.0000000000000000e+00 0.0000000000000000e+00 0.0000000000000000e+00  0.0000000000000000e+00 0.0000000000000000e+00 0.0000000000000000e+00  0.0000000000000000e+00 0.0000000000000000e+00 0.0000000000000000e+00  0.0000000000000000e+00 0.0000000000000000e+00 0.0000000000000000e+00  0.0000000000000000e+00 0.0000000000000000e+00 0.0000000000000000e+00  0.0000000000000000e+00 0.0000000000000000e+00 0.0000000000000000e+00  0.0000000000000000e+00 0.0000000000000000e+00 0.0000000000000000e+00  0.0000000000000000e+00 0.0000000000000000e+00 0.0000000000000000e+00  0.0000000000000000e+00 0.0000000000000000e+00 0.0000000000000000e+00  0.0000000000000000e+00 0.0000000000000000e+00 0.0000000000000000e+00  0.0000000000000000e+00 0.0000000000000000e+00 0.0000000000000000e+00  0.0000000000000000e+00 0.0000000000000000e+00 0.0000000000000000e+00  0.0000000000000000e+00 0.0000000000000000e+00 0.0000000000000000e+00  0.0000000000000000e+00 0.0000000000000000e+00 0.0000000000000000e+00  0.0000000000000000e+00 0.0000000000000000e+00 0.0000000000000000e+00  0.0000000000000000e+00 0.0000000000000000e+00 0.0000000000000000e+00  0.0000000000000000e+00 0.0000000000000000e+00 0.0000000000000000e+00  0.0000000000000000e+00 0.0000000000000000e+00 0.0000000000000000e+00  1.3242788931555884e+00 -3.6132988415082730e-02 0.0000000000000000e+00  1.0238910481657628e+00 1.4399612042046204e-02 0.0000000000000000e+00  1.3125910512331933e+00 5.0167977023216723e-02 0.0000000000000000e+00  0.0000000000000000e+00 0.0000000000000000e+00 0.0000000000000000e+00  0.0000000000000000e+00 0.0000000000000000e+00 0.0000000000000000e+00  0.0000000000000000e+00 0.0000000000000000e+00 0.0000000000000000e+00  0.0000000000000000e+00 0.0000000000000000e+00 0.0000000000000000e+00  0.0000000000000000e+00 0.0000000000000000e+00 0.0000000000000000e+00  0.0000000000000000e+00 0.0000000000000000e+00 0.0000000000000000e+00  0.0000000000000000e+00 0.0000000000000000e+00 0.0000000000000000e+00  0.0000000000000000e+00 0.0000000000000000e+00 0.0000000000000000e+00  0.0000000000000000e+00 0.0000000000000000e+00 0.0000000000000000e+00  0.0000000000000000e+00 0.0000000000000000e+00 0.0000000000000000e+00  0.0000000000000000e+00 0.0000000000000000e+00 0.0000000000000000e+00  0.0000000000000000e+00 0.0000000000000000e+00 0.0000000000000000e+00  0.0000000000000000e+00 0.0000000000000000e+00 0.0000000000000000e+00  0.0000000000000000e+00 0.0000000000000000e+00 0.0000000000000000e+00  0.0000000000000000e+00 0.0000000000000000e+00 0.0000000000000000e+00  0.0000000000000000e+00 0.0000000000000000e+00 0.0000000000000000e+00  0.0000000000000000e+00 0.0000000000000000e+00 0.0000000000000000e+00  0.0000000000000000e+00 0.0000000000000000e+00 0.0000000000000000e+00  0.0000000000000000e+00 0.0000000000000000e+00 0.0000000000000000e+00  0.0000000000000000e+00 0.0000000000000000e+00 0.0000000000000000e+00  0.0000000000000000e+00 0.0000000000000000e+00 0.0000000000000000e+00  0.0000000000000000e+00 0.0000000000000000e+00 0.0000000000000000e+00  0.0000000000000000e+00 0.0000000000000000e+00 0.0000000000000000e+00  0.0000000000000000e+00 0.0000000000000000e+00 0.0000000000000000e+00  0.0000000000000000e+00 0.0000000000000000e+00 0.0000000000000000e+00  0.0000000000000000e+00 0.0000000000000000e+00 0.0000000000000000e+00  0.0000000000000000e+00 0.0000000000000000e+00 0.0000000000000000e+00  0.0000000000000000e+00 0.0000000000000000e+00 0.0000000000000000e+00  0.0000000000000000e+00 0.0000000000000000e+00 0.0000000000000000e+00  0.0000000000000000e+00 0.0000000000000000e+00 0.0000000000000000e+00  0.0000000000000000e+00 0.0000000000000000e+00 0.0000000000000000e+00  0.0000000000000000e+00 0.0000000000000000e+00 0.0000000000000000e+00  0.0000000000000000e+00 0.0000000000000000e+00 0.0000000000000000e+00  0.0000000000000000e+00 0.0000000000000000e+00 0.0000000000000000e+00  0.0000000000000000e+00 0.0000000000000000e+00 0.0000000000000000e+00  0.0000000000000000e+00 0.0000000000000000e+00 0.0000000000000000e+00  0.0000000000000000e+00 0.0000000000000000e+00 0.0000000000000000e+00  0.0000000000000000e+00 0.0000000000000000e+00 0.0000000000000000e+00  0.0000000000000000e+00 0.0000000000000000e+00 0.0000000000000000e+00  0.0000000000000000e+00 0.0000000000000000e+00 0.0000000000000000e+00  0.0000000000000000e+00 0.0000000000000000e+00 0.0000000000000000e+00  0.0000000000000000e+00 0.0000000000000000e+00 0.0000000000000000e+00  0.0000000000000000e+00 0.0000000000000000e+00 0.0000000000000000e+00  0.0000000000000000e+00 0.0000000000000000e+00 0.0000000000000000e+00  0.0000000000000000e+00 0.0000000000000000e+00 0.0000000000000000e+00  0.0000000000000000e+00 0.0000000000000000e+00 0.0000000000000000e+00  0.0000000000000000e+00 0.0000000000000000e+00 0.0000000000000000e+00  0.0000000000000000e+00 0.0000000000000000e+00 0.0000000000000000e+00  0.0000000000000000e+00 0.0000000000000000e+00 0.0000000000000000e+00  0.0000000000000000e+00 0.0000000000000000e+00 0.0000000000000000e+00  0.0000000000000000e+00 0.0000000000000000e+00 0.0000000000000000e+00  0.0000000000000000e+00 0.0000000000000000e+00 0.0000000000000000e+00  0.0000000000000000e+00 0.0000000000000000e+00 0.0000000000000000e+00  0.0000000000000000e+00 0.0000000000000000e+00 0.0000000000000000e+00  0.0000000000000000e+00 0.0000000000000000e+00 0.0000000000000000e+00  0.0000000000000000e+00 0.0000000000000000e+00 0.0000000000000000e+00  0.0000000000000000e+00 0.0000000000000000e+00 0.0000000000000000e+00  0.0000000000000000e+00 0.0000000000000000e+00 0.0000000000000000e+00  0.0000000000000000e+00 0.0000000000000000e+00 0.0000000000000000e+00  0.0000000000000000e+00 0.0000000000000000e+00 0.0000000000000000e+00  0.0000000000000000e+00 0.0000000000000000e+00 0.0000000000000000e+00  0.0000000000000000e+00 0.0000000000000000e+00 0.0000000000000000e+00  0.0000000000000000e+00 0.0000000000000000e+00 0.0000000000000000e+00  0.0000000000000000e+00 0.0000000000000000e+00 0.0000000000000000e+00  0.0000000000000000e+00 0.0000000000000000e+00 0.0000000000000000e+00  0.0000000000000000e+00 0.0000000000000000e+00 0.0000000000000000e+00  0.0000000000000000e+00 0.0000000000000000e+00 0.0000000000000000e+00  0.0000000000000000e+00 0.0000000000000000e+00 0.0000000000000000e+00  0.0000000000000000e+00 0.0000000000000000e+00 0.0000000000000000e+00  0.0000000000000000e+00 0.0000000000000000e+00 0.0000000000000000e+00  0.0000000000000000e+00 0.0000000000000000e+00 0.0000000000000000e+00  0.0000000000000000e+00 0.0000000000000000e+00 0.0000000000000000e+00  0.0000000000000000e+00 0.0000000000000000e+00 0.0000000000000000e+00  0.0000000000000000e+00 0.0000000000000000e+00 0.0000000000000000e+00  0.0000000000000000e+00 0.0000000000000000e+00 0.0000000000000000e+00  0.0000000000000000e+00 0.0000000000000000e+00 0.0000000000000000e+00  0.0000000000000000e+00 0.0000000000000000e+00 0.0000000000000000e+00  0.0000000000000000e+00 0.0000000000000000e+00 0.0000000000000000e+00  -6.1672055005140432e-06 7.0928551541037133e-06 0.0000000000000000e+00  -1.2328324274640475e-05 1.2943742944742071e-05 0.0000000000000000e+00  -1.7556364664317009e-05 2.0757333941444238e-05 0.0000000000000000e+00  -2.2363703451492389e-05 3.0632477972651165e-05 0.0000000000000000e+00  -2.6240969356371478e-05 4.1419028498186298e-05 0.0000000000000000e+00  -2.9508873309007649e-05 5.3072222413706907e-05 0.0000000000000000e+00  -3.2133226933590977e-05 6.4823090061453045e-05 0.0000000000000000e+00  -3.4161157089220687e-05 7.6294405878669824e-05 0.0000000000000000e+00  -3.5471624954643828e-05 8.7161649047593165e-05 0.0000000000000000e+00  -3.6487345215277268e-05 9.6832847970789449e-05 0.0000000000000000e+00  -3.6484372728555707e-05 1.0516821834550047e-04 0.0000000000000000e+00  -3.6567332372538587e-05 1.1150799687039643e-04 0.0000000000000000e+00  -3.5516639535911550e-05 1.1577792961278868e-04 0.0000000000000000e+00  -3.4707039452742937e-05 1.1794507179989061e-04 0.0000000000000000e+00  -3.3452191358531909e-05 1.1713826132997314e-04 0.0000000000000000e+00  -3.1175681065812978e-05 1.1382347772406366e-04 0.0000000000000000e+00  -2.9460769759755478e-05 1.0742822567606097e-04 0.0000000000000000e+00  -2.6435289118218553e-05 9.8053758682298169e-05 0.0000000000000000e+00  -2.4251694440675624e-05 8.5332585682959490e-05 0.0000000000000000e+00  -2.0861637504504419e-05 6.9662372562180459e-05 0.0000000000000000e+00  -1.8129279881433390e-05 5.0500172809292484e-05 0.0000000000000000e+00  -1.4471005191752451e-05 2.8079849248958354e-05 0.0000000000000000e+00  -1.1590422524750984e-05 3.0071800445727131e-06 0.0000000000000000e+00  -8.5602621129257560e-06 -2.5623115659078941e-05 0.0000000000000000e+00  -4.8795025725298869e-06 -5.6693601919447838e-05 0.0000000000000000e+00  -1.7200521298872913e-06 -9.0914601790907651e-05 0.0000000000000000e+00  1.6458298837261275e-06 -1.2769120653783215e-04 0.0000000000000000e+00  4.6770884671177023e-06 -1.6696815762080199e-04 0.0000000000000000e+00  7.8170374559662138e-06 -2.0857764541481222e-04 0.0000000000000000e+00  1.0595168447210046e-05 -2.5226886961730681e-04 0.0000000000000000e+00  1.3406736888446900e-05 -2.9794835523194637e-04 0.0000000000000000e+00  1.5856344243548864e-05 -3.4530481351864866e-04 0.0000000000000000e+00  1.8267101798553755e-05 -3.9428052860762864e-04 0.0000000000000000e+00  2.0344021154113580e-05 -4.4454278747264750e-04 0.0000000000000000e+00  2.2326140479283177e-05 -4.9606082153957583e-04 0.0000000000000000e+00  2.3989762015517391e-05 -5.4848788219471697e-04 0.0000000000000000e+00  2.5533156352519779e-05 -6.0183713200565210e-04 0.0000000000000000e+00  2.6798616888474741e-05 -6.5578050935074139e-04 0.0000000000000000e+00  2.7931992800158955e-05 -7.1036009651950479e-04 0.0000000000000000e+00  2.8822563871167541e-05 -7.6527513987417468e-04 0.0000000000000000e+00  2.9577421686395608e-05 -8.2060278769933081e-04 0.0000000000000000e+00  3.0126547368494086e-05 -8.7607728778125386e-04 0.0000000000000000e+00  3.0519388540725557e-05 -9.3175184151986744e-04 0.0000000000000000e+00  3.0839322425482303e-05 -9.8749569307007975e-04 0.0000000000000000e+00  3.0977800412939194e-05 -1.0432612958851761e-03 0.0000000000000000e+00  3.1038944329688864e-05 -1.0991176233055803e-03 0.0000000000000000e+00  -6.8041102008336815e-06 -1.1547789260286487e-03 0.0000000000000000e+00  -8.1699895400550137e-05 -1.1538741586625215e-03 0.0000000000000000e+00  -1.1874486657823613e-04 -1.0976208054260762e-03 0.0000000000000000e+00  -1.1866966272825976e-04 -1.0415942974602889e-03 0.0000000000000000e+00  -1.1862224723713611e-04 -9.8556988030515228e-04 0.0000000000000000e+00  -1.1858507018194168e-04 -9.2966416799757621e-04 0.0000000000000000e+00  -1.1856664991577659e-04 -8.7385540114138442e-04 0.0000000000000000e+00  -1.1853204287641961e-04 -8.1826062589941911e-04 0.0000000000000000e+00  -1.1836933824406254e-04 -7.6289461671003381e-04 0.0000000000000000e+00  -1.1823518083242550e-04 -7.0788164397102792e-04 0.0000000000000000e+00  -1.1782756786711643e-04 -6.5331382739641103e-04 0.0000000000000000e+00  -1.1747720825984469e-04 -5.9935063447357601e-04 0.0000000000000000e+00  -1.1670523407779891e-04 -5.4606318293002731e-04 0.0000000000000000e+00  -1.1602145155683559e-04 -4.9369569804079145e-04 0.0000000000000000e+00  -1.1474815256364002e-04 -4.4229641458661732e-04 0.0000000000000000e+00  -1.1362284227934344e-04 -3.9218628733576129e-04 0.0000000000000000e+00  -1.1174185871397762e-04 -3.4338781125528605e-04 0.0000000000000000e+00  -1.1009460177421876e-04 -2.9627491431458137e-04 0.0000000000000000e+00  -1.0752857936925731e-04 -2.5083735166736587e-04 0.0000000000000000e+00  -1.0529052777036069e-04 -2.0749184906606734e-04 0.0000000000000000e+00  -1.0197411624559026e-04 -1.6617863222057250e-04 0.0000000000000000e+00  -9.9102110556081394e-05 -1.2733639553506857e-04 0.0000000000000000e+00  -9.5006774494273027e-05 -9.0896966097091261e-05 0.0000000000000000e+00  -9.1471768037513314e-05 -5.7290566777471536e-05 0.0000000000000000e+00  -8.6691081202292883e-05 -2.6477798760128462e-05 0.0000000000000000e+00  -8.2400272561236300e-05 1.6067254240922653e-06 0.0000000000000000e+00  -7.7845585499169151e-05 2.6180624775293916e-05 0.0000000000000000e+00  -7.2375447587304850e-05 4.8233832467887576e-05 0.0000000000000000e+00  -6.7220220476483909e-05 6.6715246642700662e-05 0.0000000000000000e+00  -6.1519886495868580e-05 8.2197005495508534e-05 0.0000000000000000e+00  -5.6052941010125919e-05 9.4333248729015879e-05 0.0000000000000000e+00  -5.0223616876547467e-05 1.0340996161013326e-04 0.0000000000000000e+00  -4.4684116669344176e-05 1.0945919046064511e-04 0.0000000000000000e+00  -3.8692372649111088e-05 1.1229591225759039e-04 0.0000000000000000e+00  -3.3459749841492323e-05 1.1282374187526779e-04 0.0000000000000000e+00  -2.8405092693157864e-05 1.1037597324181331e-04 0.0000000000000000e+00  -2.3008287058133073e-05 1.0600351687119418e-04 0.0000000000000000e+00  -1.8275485959940081e-05 9.9365323670578114e-05 0.0000000000000000e+00  -1.3700090154156053e-05 9.0893463772445278e-05 0.0000000000000000e+00  -9.6760248249908554e-06 8.1111036998879373e-05 0.0000000000000000e+00  -6.0048211041519933e-06 7.0088817717423000e-05 0.0000000000000000e+00  -2.9324612484113640e-06 5.8564051099279095e-05 0.0000000000000000e+00  -3.7820040085921758e-07 4.6762788982931109e-05 0.0000000000000000e+00  1.6017104355650064e-06 3.5061638289659492e-05 0.0000000000000000e+00  2.9673246895735815e-06 2.4161229924446132e-05 0.0000000000000000e+00  3.3556662877681103e-06 1.4314214657010464e-05 0.0000000000000000e+00  3.2918539602095827e-06 6.5869454277245835e-06 0.0000000000000000e+00  1.8647258862404771e-06 1.1616617378918271e-06 0.0000000000000000e+00  -2.9540153173224671e-06 5.1990197942667240e-06 0.0000000000000000e+00  -4.3132047060016948e-05 -1.0702397692053090e-03 0.0000000000000000e+00  -4.2524715134088857e-05 -9.6337285170367069e-04 0.0000000000000000e+00  -4.3898964931750935e-05 -7.8953361842442336e-04 0.0000000000000000e+00  -8.3329386558453732e-06 2.1248913108110503e-05 0.0000000000000000e+00  -4.5418582183867397e-05 -6.8141730298155025e-04 0.0000000000000000e+00  -1.3213235241885335e-05 4.2664713858876223e-05 0.0000000000000000e+00  -4.6234198156605272e-05 -5.7330902055153772e-04 0.0000000000000000e+00  -2.1211055164497571e-05 7.9744761964775469e-05 0.0000000000000000e+00  -2.6162593053105652e-05 9.9261747283159923e-05 0.0000000000000000e+00  -4.7074021877904521e-05 -4.6827197559195691e-04 0.0000000000000000e+00  -3.7091794131300074e-05 1.1523152131008986e-04 0.0000000000000000e+00  -4.8403764297942816e-05 -2.7288989836589660e-04 0.0000000000000000e+00  -3.0524959255373777e-05 1.1225093913459324e-04 0.0000000000000000e+00  -4.0403813564261043e-05 1.0315262121236974e-04 0.0000000000000000e+00  -4.8663353161796958e-05 -1.8557380758863127e-04 0.0000000000000000e+00  -4.7833876867721101e-05 -3.6763659662057300e-04 0.0000000000000000e+00  -4.3311164538291716e-05 7.8424355693906315e-05 0.0000000000000000e+00  -4.8507872981845844e-05 -1.0722683431672635e-04 0.0000000000000000e+00  -4.5919345762606486e-05 4.2535614437813249e-05 0.0000000000000000e+00  -4.7311955524418922e-05 -4.0556696014972236e-05 0.0000000000000000e+00  -4.6783851647586230e-05 5.9095644008336174e-06 0.0000000000000000e+00  -3.3770296230391749e-05 1.1646668015471443e-04 0.0000000000000000e+00  -4.4469258491933144e-05 -8.7973739968857673e-04 0.0000000000000000e+00  -1.7260653062603389e-05 6.0782242481059837e-05 0.0000000000000000e+00  -6.9027062433739129e-05 -1.0161149389185606e-03 0.0000000000000000e+00  -2.4104035740780531e-06 1.1054009071540773e-05 0.0000000000000000e+00  -6.6710588353885363e-05 -6.2675676955350589e-04 0.0000000000000000e+00  -6.6357711389331816e-05 -7.3595955395509881e-04 0.0000000000000000e+00  -1.5571909289117936e-05 3.3137194795160076e-05 0.0000000000000000e+00  -2.7220803729229052e-05 9.0706256437082515e-05 0.0000000000000000e+00  -6.6378622936393272e-05 -3.1932332844136177e-04 0.0000000000000000e+00  -6.6921294048025463e-05 -5.2007094827113509e-04 0.0000000000000000e+00  -3.6183770911753436e-05 1.1114689478407807e-04 0.0000000000000000e+00  -6.5364408528063151e-05 -2.2821012945879388e-04 0.0000000000000000e+00  -3.0824746458066123e-05 1.0761349660899733e-04 0.0000000000000000e+00  -3.7077554988077384e-05 9.2612799213684992e-05 0.0000000000000000e+00  -6.3695322212383517e-05 -1.4531473401037810e-04 0.0000000000000000e+00  -6.6855191808724661e-05 -4.1711679502779830e-04 0.0000000000000000e+00  -3.5695602765185437e-05 6.1561983797849516e-05 0.0000000000000000e+00  -6.1331710907216530e-05 -7.2139365239517973e-05 0.0000000000000000e+00  -1.7002081261486789e-06 2.3135322102744066e-06 0.0000000000000000e+00  -4.2658625233231058e-07 8.0962043458137150e-07 0.0000000000000000e+00  -2.6003318709393537e-05 -1.1144299266735785e-03 0.0000000000000000e+00  -9.2155252037005447e-06 1.360