<?xml version="1.0"?>
<VTKFile type="UnstructuredGrid"  version="0.1"  >
<UnstructuredGrid>
<Piece  NumberOfPoints="1419" NumberOfCells="2698">
<Points>
<DataArray  type="Float64"  NumberOfComponents="3"  format="ascii">0 0 0  0 0.41 0  2.5 0 0  2.5 0.41 0  0.6 0.19 0  0.6 0.21 0  0.25 0.2 0  0.15 0.2 0  0.2489897948556636 0.21 0  0.2489897948556636 0.19 0  0.6 0.2 0  0 0.3807142857143437 0  0 0.3514285714286952 0  0 0.3221428571430699 0  0 0.29285714285744 0  0 0.2635714285718054 0  0 0.2342857142861561 0  0 0.2050000000005308 0  0 0.175714285714732 0  0 0.1464285714289574 0  0 0.1171428571431897 0  0 0.08785714285737878 0  0 0.05857142857161107 0  0 0.02928571428580012 0  0.03015443760436003 0 0  0.06140001986583606 0 0  0.09377624077125973 0 0  0.1273239957535082 0 0  0.1620856860351972 0 0  0.1981052433264291 0 0  0.235428184091502 0 0  0.2741016576309132 0 0  0.3141745521465447 0 0  0.3556974926295285 0 0  0.3987229542472677 0 0  0.4433053055141081 0 0  0.4895008759286886 0 0  0.5373680609405097 0 0  0.5869673343216626 0 0  0.6383613676634521 0 0  0.6916151138468254 0 0  0.7467958595648856 0 0  0.8039733463919316 0 0  0.8632198139502143 0 0  0.9246101326867038 0 0  0.9882218810934433 0 0  1.054135445558498 0 0  1.122434100542598 0 0  1.193204177141305 0 0  1.266535089879536 0 0  1.342519516046404 0 0  1.421253448503939 0 0  1.502836389106271 0 0  1.587371439758838 0 0  1.674965418777374 0 0  1.765729001825544 0 0  1.859776908880082 0 0  1.957227977487062 0 0  2.058205329869943 0 0  2.162836591189951 0 0  2.271253957290865 0 0  2.383594446803425 0 0  2.5 0.1024999999997612 0  2.5 0.2049999999994743 0  2.5 0.3074999999997183 0  2.383594446803656 0.41 0  2.271253957291315 0.41 0  2.162836591190598 0.41 0  2.058205329870775 0.41 0  1.957227977488067 0.41 0  1.859776908881246 0.41 0  1.765729001826854 0.41 0  1.674965418778818 0.41 0  1.58737143976041 0.41 0  1.502836389107956 0.41 0  1.421253448505726 0.41 0  1.342519516048286 0.41 0  1.266535089881505 0.41 0  1.193204177143353 0.41 0  1.122434100544716 0.41 0  1.05413544556068 0.41 0  0.9882218810956305 0.41 0  0.9246101326886647 0.41 0  0.8632198139519631 0.41 0  0.8039733463934788 0.41 0  0.7467958595662458 0.41 0  0.6916151138480078 0.41 0  0.6383613676644679 0.41 0  0.5869673343225223 0.41 0  0.5373680609412221 0.41 0  0.4895008759292634 0.41 0  0.4433053055145528 0.41 0  0.3987229542475914 0.41 0  0.3556974926297398 0.41 0  0.3141745521466497 0.41 0  0.2741016576310038 0.41 0  0.2354281840915826 0.41 0  0.1981052433265003 0.41 0  0.1620856860352591 0.41 0  0.1273239957535623 0.41 0  0.09377624077128965 0.41 0  0.06140001986584975 0.41 0  0.03015443760436654 0.41 0  0.2497468076502589 0.2050254481002335 0  0.2497468076502614 0.1949745518997913 0  0.2469965252529372 0.1829317073451959 0  0.2439893735792749 0.1762316384219906 0  0.2400332147834255 0.1700443375285386 0  0.2352133972704371 0.1645032867342007 0  0.2296339016332438 0.1597280261969788 0  0.2234150974217223 0.1558215752574715 0  0.2166911463437691 0.1528682099456123 0  0.2096071079204251 0.1509316448471593 0  0.2023158100364996 0.1500536585536553 0  0.194974551899914 0.1502531923497262 0  0.1877417105387872 0.1515259415822739 0  0.1807733240461124 0.153844448527136 0  0.1742197252835808 0.15715869474974 0  0.1682222986673531 0.1613971801805478 0  0.162910430003803 0.1664684656256651 0  0.1583987151779087 0.1722631454351573 0  0.1547844879126891 0.178656207771761 0  0.1521457199348551 0.1855097315605723 0  0.1505393388476355 0.1926758619366523 0  0.1505393388476328 0.2073241380633295 0  0.1521457199348437 0.2144902684393899 0  0.1547844879126531 0.221343792228163 0  0.1583987151778488 0.2277368545647528 0  0.1629104300036858 0.2335315343742052 0  0.1682222986671726 0.2386028198193036 0  0.1742197252833576 0.2428413052501257 0  0.1807733240458683 0.2461555514727623 0  0.1877417105384929 0.2484740584176516 0  0.1949745518995776 0.2497468076502398 0  0.202315810036185 0.2499463414463592 0  0.2096071079201568 0.2490683551528932 0  0.2166911463435495 0.2471317900544655 0  0.2234150974215506 0.2441784247426195 0  0.2296339016331197 0.2402719738031125 0  0.2352133972703547 0.2354967132658811 0  0.2400332147833751 0.2299556624715287 0  0.2439893735792577 0.2237683615780412 0  0.246996525252926 0.2170682926548348 0  0.25645809709277 0.21 0  0.2639263993298655 0.21 0  0.271394701566961 0.21 0  0.2788630038040554 0.21 0  0.2863313060411479 0.21 0  0.2937996082782405 0.21 0  0.301267910515333 0.21 0  0.3087362127524279 0.21 0  0.3162045149895234 0.21 0  0.3236728172265972 0.21 0  0.3311411194636928 0.21 0  0.3386094217007701 0.21 0  0.3460777239378666 0.21 0  0.3535460261749672 0.21 0  0.3610143284120516 0.21 0  0.3684826306491596 0.21 0  0.3759509328862226 0.21 0  0.383419235123329 0.21 0  0.3908875373604028 0.21 0  0.3983558395975142 0.21 0  0.4058241418345938 0.21 0  0.4132924440716992 0.21 0  0.4207607463087888 0.21 0  0.4282290485459029 0.21 0  0.4356973507830418 0.21 0  0.4431656530201649 0.21 0  0.4506339552573136 0.21 0  0.4581022574944306 0.21 0  0.4655705597315852 0.21 0  0.4730388619686996 0.21 0  0.480507164205851 0.21 0  0.4879754664429498 0.21 0  0.4954437686800938 0.21 0  0.502912070917267 0.21 0  0.5103803731544119 0.21 0  0.5178486753915261 0.21 0  0.5253169776286404 0.21 0  0.5327852798657868 0.21 0  0.5402535821029386 0.21 0  0.54772188434007 0.21 0  0.5551901865771842 0.21 0  0.5626584888143201 0.21 0  0.5701267910514778 0.21 0  0.5775950932886138 0.21 0  0.5850633955257281 0.21 0  0.5925316977628483 0.21 0  0.6 0.2050000000000054 0  0.6 0.1950000000000217 0  0.5925316977628897 0.19 0  0.5850633955257988 0.19 0  0.5775950932887378 0.19 0  0.5701267910515998 0.19 0  0.5626584888145268 0.19 0  0.5551901865773963 0.19 0  0.547721884340339 0.19 0  0.5402535821032429 0.19 0  0.5327852798661811 0.19 0  0.5253169776290537 0.19 0  0.5178486753919799 0.19 0  0.5103803731549078 0.19 0  0.502912070917822 0.19 0  0.4954437686807294 0.19 0  0.4879754664436223 0.19 0  0.4805071642065402 0.19 0  0.4730388619694271 0.19 0  0.4655705597323621 0.19 0  0.4581022574952563 0.19 0  0.4506339552581777 0.19 0  0.4431656530210671 0.19 0  0.4356973507839815 0.19 0  0.4282290485468779 0.19 0  0.4207607463097617 0.19 0  0.4132924440726327 0.19 0  0.4058241418354857 0.19 0  0.3983558395983636 0.19 0  0.3908875373612097 0.19 0  0.3834192351240934 0.19 0  0.3759509328869369 0.19 0  0.3684826306498175 0.19 0  0.361014328412667 0.19 0  0.3535460261755617 0.19 0  0.3460777239384295 0.19 0  0.3386094217012945 0.19 0  0.3311411194641595 0.19 0  0.3236728172270245 0.19 0  0.3162045149898895 0.19 0  0.3087362127527544 0.19 0  0.3012679105156187 0.19 0  0.2937996082784807 0.19 0  0.2863313060413428 0.19 0  0.2788630038042048 0.19 0  0.2713947015670686 0.19 0  0.2639263993299336 0.19 0  0.2564580970927985 0.19 0  0.2607803159922026 0.2000727136295815 0  0.5887803774232762 0.2001272386983733 0  0.5745072403740523 0.2002044435018727 0  0.5511891430099709 0.2001122610077113 0  0.2751288526855082 0.20000000000002 0  0.5365194309847112 0.1999999999999436 0  0.2894621222999649 0.1998691686390484 0  0.5215828265105155 0.1999999999999228 0  0.3127789816668748 0.1998657885438805 0  0.3274069683451451 0.2000000000000796 0  0.5066462220363641 0.199999999999908 0  0.3650630746574081 0.199866017807523 0  0.476773013087985 0.1999999999998713 0  0.3417402379596385 0.1998691686391011 0  0.3796850840047755 0.200000000000134 0  0.4618364086138087 0.1999999999998546 0  0.4917096175621762 0.1999999999998808 0  0.3946216884789568 0.2000000000001512 0  0.446899804139621 0.1999999999998389 0  0.4089549580935208 0.1998691686391595 0  0.4322718174608562 0.200127451265745 0  0.4201487168029707 0.1999966199048527 0  0.3528922713220932 0.2000185703532356 0  0.5633122436674589 0.1999814296467508 0  0.3006558810093873 0.1999966199048318 0  0.5815926498168407 0.1966545283159175 0  0.2677053789419034 0.1964246479135325 0  0.5290511287476175 0.1970915826863981 0  0.5439877332217911 0.197091582686394 0  0.2825131256993216 0.2035478995978015 0  0.3199386661080599 0.202908417313604 0  0.4842413153250809 0.1970915826863873 0  0.5141145242734466 0.1970915826863843 0  0.3722167817676917 0.2029084173136195 0  0.4693047108508938 0.1970915826863783 0  0.3348752705822316 0.202908417313609 0  0.3871533862418661 0.2029084173136212 0  0.4543681063767183 0.1970915826863795 0  0.4991779197992749 0.1970915826863902 0  0.4020059614928624 0.203547899597858 0  0.4394315019025246 0.1970915826863714 0  0.2550657455369551 0.2034088125358657 0  0.2548908499171161 0.1966940311614271 0  0.5946539510196798 0.2024302972968126 0  0.267698176732111 0.2039977513680092 0  0.4261685417851465 0.196409292431739 0  0.3590076176283495 0.196411355804271 0  0.5571672426447437 0.2036011176410121 0  0.3066757059912147 0.1964092924317024 0  0.594380730180568 0.1966558399668133 0  0.4842413153245942 0.2040749161535287 0  0.4693047108503577 0.2040749161535231 0  0.3871533862424271 0.1959250838464788 0  0.372246743208829 0.1959123236376545 0  0.5141145242731028 0.2040749161535395 0  0.4543681063761134 0.2040749161535186 0  0.4019979587101454 0.1959834479682427 0  0.4394608940728603 0.2040870543693135 0  0.5439623148931173 0.2040856076781014 0  0.5290511287473298 0.2040749161535501 0  0.4991779197988497 0.2040749161535382 0  0.3347912413592433 0.1959225448935183 0  0.3199680582793816 0.1959123018030061 0  0.2825051229162361 0.1959834479681729 0  0.3590471196690275 0.2036304442587945 0  0.5571594006495384 0.1963685282145804 0  0.3067669986803285 0.203627750582736 0  0.4262598344738712 0.2036568242185335 0  0.5814408164431408 0.2041285596160068 0  0.5688286748170428 0.1961819304477386 0  0.4145905603063645 0.2038180695522843 0  0.3473758401724931 0.2038180695522752 0  0.2950977245128307 0.2038180695522663 0  0.5688286748170693 0.203818069552238 0  0.2950977245127906 0.1961819304477774 0  0.3473758401723931 0.1961819304478349 0  0.4145905603061963 0.1961819304479011 0  0.2601812407614425 0.2056861609747042
[...]
<PointData  Vectors="f_40-0"> 
<DataArray  type="Float64"  Name="f_40-0"  NumberOfComponents="3" format="ascii">0.0000000000000000e+00 0.0000000000000000e+00 0.0000000000000000e+00  0.0000000000000000e+00 0.0000000000000000e+00 0.0000000000000000e+00  0.0000000000000000e+00 0.0000000000000000e+00 0.0000000000000000e+00  0.0000000000000000e+00 0.0000000000000000e+00 0.0000000000000000e+00  -4.2251935505631246e-05 -1.5284582364939756e-03 0.0000000000000000e+00  8.3497142390429055e-05 -1.5313384816757240e-03 0.0000000000000000e+00  0.0000000000000000e+00 0.0000000000000000e+00 0.0000000000000000e+00  0.0000000000000000e+00 0.0000000000000000e+00 0.0000000000000000e+00  0.0000000000000000e+00 0.0000000000000000e+00 0.0000000000000000e+00  0.0000000000000000e+00 0.0000000000000000e+00 0.0000000000000000e+00  2.0100484059795316e-05 -1.5298740722781889e-03 0.0000000000000000e+00  2.8100288516682215e-01 0.0000000000000000e+00 0.0000000000000000e+00  5.1877455723109078e-01 0.0000000000000000e+00 0.0000000000000000e+00  7.1331501619274984e-01 0.0000000000000000e+00 0.0000000000000000e+00  8.6462426205202469e-01 0.0000000000000000e+00 0.0000000000000000e+00  9.7270229480889592e-01 0.0000000000000000e+00 0.0000000000000000e+00  1.0375491144633568e+00 0.0000000000000000e+00 0.0000000000000000e+00  1.0591647210153425e+00 0.0000000000000000e+00 0.0000000000000000e+00  1.0375491144646678e+00 0.0000000000000000e+00 0.0000000000000000e+00  9.7270229481114789e-01 0.0000000000000000e+00 0.0000000000000000e+00  8.6462426205481380e-01 0.0000000000000000e+00 0.0000000000000000e+00  7.1331501619539939e-01 0.0000000000000000e+00 0.0000000000000000e+00  5.1877455723335153e-01 0.0000000000000000e+00 0.0000000000000000e+00  2.8100288516809607e-01 0.0000000000000000e+00 0.0000000000000000e+00  0.0000000000000000e+00 0.0000000000000000e+00 0.0000000000000000e+00  0.0000000000000000e+00 0.0000000000000000e+00 0.0000000000000000e+00  0.0000000000000000e+00 0.0000000000000000e+00 0.0000000000000000e+00  0.0000000000000000e+00 0.0000000000000000e+00 0.0000000000000000e+00  0.0000000000000000e+00 0.0000000000000000e+00 0.0000000000000000e+00  0.0000000000000000e+00 0.0000000000000000e+00 0.0000000000000000e+00  0.0000000000000000e+00 0.0000000000000000e+00 0.0000000000000000e+00  0.0000000000000000e+00 0.0000000000000000e+00 0.0000000000000000e+00  0.0000000000000000e+00 0.0000000000000000e+00 0.0000000000000000e+00  0.0000000000000000e+00 0.0000000000000000e+00 0.0000000000000000e+00  0.0000000000000000e+00 0.0000000000000000e+00 0.0000000000000000e+00  0.0000000000000000e+00 0.0000000000000000e+00 0.0000000000000000e+00  0.0000000000000000e+00 0.0000000000000000e+00 0.0000000000000000e+00  0.0000000000000000e+00 0.0000000000000000e+00 0.0000000000000000e+00  0.0000000000000000e+00 0.0000000000000000e+00 0.0000000000000000e+00  0.0000000000000000e+00 0.0000000000000000e+00 0.0000000000000000e+00  0.0000000000000000e+00 0.0000000000000000e+00 0.0000000000000000e+00  0.0000000000000000e+00 0.0000000000000000e+00 0.0000000000000000e+00  0.0000000000000000e+00 0.0000000000000000e+00 0.0000000000000000e+00  0.0000000000000000e+00 0.0000000000000000e+00 0.0000000000000000e+00  0.0000000000000000e+00 0.0000000000000000e+00 0.0000000000000000e+00  0.0000000000000000e+00 0.0000000000000000e+00 0.0000000000000000e+00  0.0000000000000000e+00 0.0000000000000000e+00 0.0000000000000000e+00  0.0000000000000000e+00 0.0000000000000000e+00 0.0000000000000000e+00  0.0000000000000000e+00 0.0000000000000000e+00 0.0000000000000000e+00  0.0000000000000000e+00 0.0000000000000000e+00 0.0000000000000000e+00  0.0000000000000000e+00 0.0000000000000000e+00 0.0000000000000000e+00  0.0000000000000000e+00 0.0000000000000000e+00 0.0000000000000000e+00  0.0000000000000000e+00 0.0000000000000000e+00 0.0000000000000000e+00  0.0000000000000000e+00 0.0000000000000000e+00 0.0000000000000000e+00  0.0000000000000000e+00 0.0000000000000000e+00 0.0000000000000000e+00  0.0000000000000000e+00 0.0000000000000000e+00 0.0000000000000000e+00  0.0000000000000000e+00 0.0000000000000000e+00 0.0000000000000000e+00  0.0000000000000000e+00 0.0000000000000000e+00 0.0000000000000000e+00  0.0000000000000000e+00 0.0000000000000000e+00 0.0000000000000000e+00  0.0000000000000000e+00 0.0000000000000000e+00 0.0000000000000000e+00  0.0000000000000000e+00 0.0000000000000000e+00 0.0000000000000000e+00  0.0000000000000000e+00 0.0000000000000000e+00 0.0000000000000000e+00  9.5601373690340796e-01 -2.8780492037368894e-02 0.0000000000000000e+00  7.1078430386006364e-01 1.0831529943170813e-02 0.0000000000000000e+00  9.5917703743259131e-01 3.5217471978583950e-02 0.0000000000000000e+00  0.0000000000000000e+00 0.0000000000000000e+00 0.0000000000000000e+00  0.0000000000000000e+00 0.0000000000000000e+00 0.0000000000000000e+00  0.0000000000000000e+00 0.0000000000000000e+00 0.0000000000000000e+00  0.0000000000000000e+00 0.0000000000000000e+00 0.0000000000000000e+00  0.0000000000000000e+00 0.0000000000000000e+00 0.0000000000000000e+00  0.0000000000000000e+00 0.0000000000000000e+00 0.0000000000000000e+00  0.0000000000000000e+00 0.0000000000000000e+00 0.0000000000000000e+00  0.0000000000000000e+00 0.0000000000000000e+00 0.0000000000000000e+00  0.0000000000000000e+00 0.0000000000000000e+00 0.0000000000000000e+00  0.0000000000000000e+00 0.0000000000000000e+00 0.0000000000000000e+00  0.0000000000000000e+00 0.0000000000000000e+00 0.0000000000000000e+00  0.0000000000000000e+00 0.0000000000000000e+00 0.0000000000000000e+00  0.0000000000000000e+00 0.0000000000000000e+00 0.0000000000000000e+00  0.0000000000000000e+00 0.0000000000000000e+00 0.0000000000000000e+00  0.0000000000000000e+00 0.0000000000000000e+00 0.0000000000000000e+00  0.0000000000000000e+00 0.0000000000000000e+00 0.0000000000000000e+00  0.0000000000000000e+00 0.0000000000000000e+00 0.0000000000000000e+00  0.0000000000000000e+00 0.0000000000000000e+00 0.0000000000000000e+00  0.0000000000000000e+00 0.0000000000000000e+00 0.0000000000000000e+00  0.0000000000000000e+00 0.0000000000000000e+00 0.0000000000000000e+00  0.0000000000000000e+00 0.0000000000000000e+00 0.0000000000000000e+00  0.0000000000000000e+00 0.0000000000000000e+00 0.0000000000000000e+00  0.0000000000000000e+00 0.0000000000000000e+00 0.0000000000000000e+00  0.0000000000000000e+00 0.0000000000000000e+00 0.0000000000000000e+00  0.0000000000000000e+00 0.0000000000000000e+00 0.0000000000000000e+00  0.0000000000000000e+00 0.0000000000000000e+00 0.0000000000000000e+00  0.0000000000000000e+00 0.0000000000000000e+00 0.0000000000000000e+00  0.0000000000000000e+00 0.0000000000000000e+00 0.0000000000000000e+00  0.0000000000000000e+00 0.0000000000000000e+00 0.0000000000000000e+00  0.0000000000000000e+00 0.0000000000000000e+00 0.0000000000000000e+00  0.0000000000000000e+00 0.0000000000000000e+00 0.0000000000000000e+00  0.0000000000000000e+00 0.0000000000000000e+00 0.0000000000000000e+00  0.0000000000000000e+00 0.0000000000000000e+00 0.0000000000000000e+00  0.0000000000000000e+00 0.0000000000000000e+00 0.0000000000000000e+00  0.0000000000000000e+00 0.0000000000000000e+00 0.0000000000000000e+00  0.0000000000000000e+00 0.0000000000000000e+00 0.0000000000000000e+00  0.0000000000000000e+00 0.0000000000000000e+00 0.0000000000000000e+00  0.0000000000000000e+00 0.0000000000000000e+00 0.0000000000000000e+00  0.0000000000000000e+00 0.0000000000000000e+00 0.0000000000000000e+00  0.0000000000000000e+00 0.0000000000000000e+00 0.0000000000000000e+00  0.0000000000000000e+00 0.0000000000000000e+00 0.0000000000000000e+00  0.0000000000000000e+00 0.0000000000000000e+00 0.0000000000000000e+00  0.0000000000000000e+00 0.0000000000000000e+00 0.0000000000000000e+00  0.0000000000000000e+00 0.0000000000000000e+00 0.0000000000000000e+00  0.0000000000000000e+00 0.0000000000000000e+00 0.0000000000000000e+00  0.0000000000000000e+00 0.0000000000000000e+00 0.0000000000000000e+00  0.0000000000000000e+00 0.0000000000000000e+00 0.0000000000000000e+00  0.0000000000000000e+00 0.0000000000000000e+00 0.0000000000000000e+00  0.0000000000000000e+00 0.0000000000000000e+00 0.0000000000000000e+00  0.0000000000000000e+00 0.0000000000000000e+00 0.0000000000000000e+00  0.0000000000000000e+00 0.0000000000000000e+00 0.0000000000000000e+00  0.0000000000000000e+00 0.0000000000000000e+00 0.0000000000000000e+00  0.0000000000000000e+00 0.0000000000000000e+00 0.0000000000000000e+00  0.0000000000000000e+00 0.0000000000000000e+00 0.0000000000000000e+00  0.0000000000000000e+00 0.0000000000000000e+00 0.0000000000000000e+00  0.0000000000000000e+00 0.0000000000000000e+00 0.0000000000000000e+00  0.0000000000000000e+00 0.0000000000000000e+00 0.0000000000000000e+00  0.0000000000000000e+00 0.0000000000000000e+00 0.0000000000000000e+00  0.0000000000000000e+00 0.0000000000000000e+00 0.0000000000000000e+00  0.0000000000000000e+00 0.0000000000000000e+00 0.0000000000000000e+00  0.0000000000000000e+00 0.0000000000000000e+00 0.0000000000000000e+00  0.0000000000000000e+00 0.0000000000000000e+00 0.0000000000000000e+00  0.0000000000000000e+00 0.0000000000000000e+00 0.0000000000000000e+00  0.0000000000000000e+00 0.0000000000000000e+00 0.0000000000000000e+00  0.0000000000000000e+00 0.0000000000000000e+00 0.0000000000000000e+00  0.0000000000000000e+00 0.0000000000000000e+00 0.0000000000000000e+00  0.0000000000000000e+00 0.0000000000000000e+00 0.0000000000000000e+00  0.0000000000000000e+00 0.0000000000000000e+00 0.0000000000000000e+00  0.0000000000000000e+00 0.0000000000000000e+00 0.0000000000000000e+00  0.0000000000000000e+00 0.0000000000000000e+00 0.0000000000000000e+00  0.0000000000000000e+00 0.0000000000000000e+00 0.0000000000000000e+00  0.0000000000000000e+00 0.0000000000000000e+00 0.0000000000000000e+00  0.0000000000000000e+00 0.0000000000000000e+00 0.0000000000000000e+00  0.0000000000000000e+00 0.0000000000000000e+00 0.0000000000000000e+00  0.0000000000000000e+00 0.0000000000000000e+00 0.0000000000000000e+00  0.0000000000000000e+00 0.0000000000000000e+00 0.0000000000000000e+00  0.0000000000000000e+00 0.0000000000000000e+00 0.0000000000000000e+00  0.0000000000000000e+00 0.0000000000000000e+00 0.0000000000000000e+00  7.2824961481624081e-07 -1.0455944819157563e-06 0.0000000000000000e+00  1.9406559652601316e-06 -2.4568814258588016e-06 0.0000000000000000e+00  3.2176667849905571e-06 -5.4167803882411672e-06 0.0000000000000000e+00  4.9850875756329262e-06 -1.0013424862856980e-05 0.0000000000000000e+00  6.6320297084958243e-06 -1.6406582975549892e-05 0.0000000000000000e+00  8.9565052758776789e-06 -2.4741397446809814e-05 0.0000000000000000e+00  1.0948533273355244e-05 -3.4744925357386140e-05 0.0000000000000000e+00  1.3190867671722910e-05 -4.7049680065060130e-05 0.0000000000000000e+00  1.6101479269383756e-05 -6.1206259372683280e-05 0.0000000000000000e+00  1.8558492085574648e-05 -7.7499738970544490e-05 0.0000000000000000e+00  2.1883722960114840e-05 -9.5816616229580241e-05 0.0000000000000000e+00  2.4630355609553953e-05 -1.1630168525304323e-04 0.0000000000000000e+00  2.8134034140653448e-05 -1.3878498046586594e-04 0.0000000000000000e+00  3.1141990767368428e-05 -1.6298095018800110e-04 0.0000000000000000e+00  3.4290299874960230e-05 -1.8936026821896385e-04 0.0000000000000000e+00  3.7910148380426457e-05 -2.1736671557971986e-04 0.0000000000000000e+00  4.0973207746901098e-05 -2.4715239442584349e-04 0.0000000000000000e+00  4.4591744376178617e-05 -2.7857295306316901e-04 0.0000000000000000e+00  4.7591016533265973e-05 -3.1156814586892785e-04 0.0000000000000000e+00  5.1006024436446260e-05 -3.4595230323145921e-04 0.0000000000000000e+00  5.3954102963659570e-05 -3.8173628437934861e-04 0.0000000000000000e+00  5.7104707195254811e-05 -4.1881625222792222e-04 0.0000000000000000e+00  5.9820142116427459e-05 -4.5684291726317026e-04 0.0000000000000000e+00  6.2440843299438220e-05 -4.9608641376358814e-04 0.0000000000000000e+00  6.5157344112248963e-05 -5.3613557137273903e-04 0.0000000000000000e+00  6.7527968093363767e-05 -5.7710399027546464e-04 0.0000000000000000e+00  6.9820385963142935e-05 -6.1889780276343524e-04 0.0000000000000000e+00  7.1879365695503279e-05 -6.6131247577794531e-04 0.0000000000000000e+00  7.3838402712576346e-05 -7.0444160902612390e-04 0.0000000000000000e+00  7.5576940745046827e-05 -7.4804914723254862e-04 0.0000000000000000e+00  7.7201995079311534e-05 -7.9224440881044632e-04 0.0000000000000000e+00  7.8620461496345333e-05 -8.3679712928974787e-04 0.0000000000000000e+00  7.9920350755773297e-05 -8.8182446976440101e-04 0.0000000000000000e+00  8.1027401367320722e-05 -9.2710210689131781e-04 0.0000000000000000e+00  8.2008961843554624e-05 -9.7276427887428812e-04 0.0000000000000000e+00  8.2819108701498548e-05 -1.0185927242527023e-03 0.0000000000000000e+00  8.3505723724980045e-05 -1.0647153257424362e-03 0.0000000000000000e+00  8.4036091705299028e-05 -1.1109337111874439e-03 0.0000000000000000e+00  8.4442398800249824e-05 -1.1573761735676575e-03 0.0000000000000000e+00  8.4704759177869164e-05 -1.2038601712977379e-03 0.0000000000000000e+00  8.4837289750555500e-05 -1.2504930712763120e-03 0.0000000000000000e+00  8.4855494683187954e-05 -1.2971546229403805e-03 0.0000000000000000e+00  8.4742958557313192e-05 -1.3438888764145129e-03 0.0000000000000000e+00  8.4562100163731118e-05 -1.3906517924298092e-03 0.0000000000000000e+00  8.4239798873634878e-05 -1.4374022227861961e-03 0.0000000000000000e+00  8.3845592516845207e-05 -1.4842334210700624e-03 0.0000000000000000e+00  5.1609124815434511e-05 -1.5306033562318649e-03 0.0000000000000000e+00  -1.1236402599196941e-05 -1.5291574890309060e-03 0.0000000000000000e+00  -4.1851036834701918e-05 -1.4816215286599561e-03 0.0000000000000000e+00  -4.1385347851136768e-05 -1.4345898669371978e-03 0.0000000000000000e+00  -4.0982781631135916e-05 -1.3875283931096120e-03 0.0000000000000000e+00  -4.0671245654898080e-05 -1.3405390426552849e-03 0.0000000000000000e+00  -4.0423200748506938e-05 -1.2935821220993241e-03 0.0000000000000000e+00  -4.0269452641076547e-05 -1.2466900282653154e-03 0.0000000000000000e+00  -4.0145547541127194e-05 -1.1998770529894848e-03 0.0000000000000000e+00  -4.0133276740956204e-05 -1.1531235725875579e-03 0.0000000000000000e+00  -4.0136004662275499e-05 -1.1065404006041198e-03 0.0000000000000000e+00  -4.0249027511994724e-05 -1.0600486931976330e-03 0.0000000000000000e+00  -4.0344738724476866e-05 -1.0137856791916893e-03 0.0000000000000000e+00  -4.0564647390019576e-05 -9.6768681688755103e-04 0.0000000000000000e+00  -4.0731586775747247e-05 -9.2189507214706441e-04 0.0000000000000000e+00  -4.1035378899274968e-05 -8.7635539712334766e-04 0.0000000000000000e+00  -4.1240701641608669e-05 -8.3120547645102166e-04 0.0000000000000000e+00  -4.1603374735737803e-05 -7.8641287615556596e-04 0.0000000000000000e+00  -4.1816084351866875e-05 -7.4211109675492650e-04 0.0000000000000000e+00  -4.2205654375235876e-05 -6.9829163566317528e-04 0.0000000000000000e+00  -4.2381526047964818e-05 -6.5508405657903953e-04 0.0000000000000000e+00  -4.2751981197533140e-05 -6.1250405575203920e-04 0.0000000000000000e+00  -4.2825608917818814e-05 -5.7066961986617802e-04 0.0000000000000000e+00  -4.3113201089917286e-05 -5.2963781943211245e-04 0.0000000000000000e+00  -4.3042147691970035e-05 -4.8952045037593339e-04 0.0000000000000000e+00  -4.3127408934993902e-05 -4.5030251896951198e-04 0.0000000000000000e+00  -4.3115350879172624e-05 -4.1233788940477767e-04 0.0000000000000000e+00  -4.2716574888158307e-05 -3.7531543269287104e-04 0.0000000000000000e+00  -4.2367783057054450e-05 -3.3974061959982348e-04 0.0000000000000000e+00  -4.1691944016337843e-05 -3.0544107822498253e-04 0.0000000000000000e+00  -4.0986585090354824e-05 -2.7274749795056505e-04 0.0000000000000000e+00  -3.9928460281939327e-05 -2.4153751983857903e-04 0.0000000000000000e+00  -3.8814418937875884e-05 -2.1206174706413176e-04 0.0000000000000000e+00  -3.7124458250389328e-05 -1.8448738721945187e-04 0.0000000000000000e+00  -3.5689323053648113e-05 -1.5849737386562456e-04 0.0000000000000000e+00  -3.4030021003512214e-05 -1.3472884083484937e-04 0.0000000000000000e+00  -3.1762868094211029e-05 -1.1254810556293481e-04 0.0000000000000000e+00  -2.9563236625521262e-05 -9.2647721209261876e-05 0.0000000000000000e+00  -2.6977378601817190e-05 -7.4660937621317183e-05 0.0000000000000000e+00  -2.4442713864770848e-05 -5.8771180276541088e-05 0.0000000000000000e+00  -2.1394486864831673e-05 -4.5095022361294993e-05 0.0000000000000000e+00  -1.8755359888825178e-05 -3.3111615622690489e-05 0.0000000000000000e+00  -1.6068622490745415e-05 -2.3411734609362368e-05 0.0000000000000000e+00  -1.2934733319727513e-05 -1.5252901532745093e-05 0.0000000000000000e+00  -1.0175266101763408e-05 -9.0659203239013405e-06 0.0000000000000000e+00  -7.2031309445323925e-06 -4.6462093610399063e-06 0.0000000000000000e+00  -4.6747813020445428e-06 -1.7723171192200188e-06 0.0000000000000000e+00  -2.0799533982034575e-06 -4.0850279159772373e-07 0.0000000000000000e+00  -1.0749231612008115e-06 -4.1429696081832153e-07 0.0000000000000000e+00  2.1790502613273094e-05 -1.4593508569973558e-03 0.0000000000000000e+00  2.3079214810010156e-05 -1.3697034608054963e-03 0.0000000000000000e+00  2.2886945165176242e-05 -1.2235095324525406e-03 0.0000000000000000e+00  -2.2611211461649221e-06 -5.9974318239644930e-06 0.0000000000000000e+00  2.1936807030245780e-05 -1.1318836886787193e-03 0.0000000000000000e+00  -3.3986107318162666e-06 -1.7799088361562987e-05 0.0000000000000000e+00  2.1317465138233424e-05 -1.0391257575364285e-03 0.0000000000000000e+00  -4.3598700453926024e-06 -5.2005580493794337e-05 0.0000000000000000e+00  -3.9399903207270313e-06 -8.3602074447802852e-05 0.0000000000000000e+00  2.0319222655925940e-05 -9.4714225172643114e-04 0.0000000000000000e+00  -1.4080347963653320e-06 -2.0055267607667557e-04 0.0000000000000000e+00  1.7226620529346251e-05 -7.6682394449427763e-04 0.0000000000000000e+00  -3.6218403351113205e-06 -1.2218476692556893e-04 0.0000000000000000e+00  1.1758062730437080e-06 -2.5876158869180509e-04 0.0000000000000000e+00  1.5174673460723607e-05 -6.7930252063586678e-04 0.0000000000000000e+00  1.8950793670663621e-05 -8.5625065486668564e-04 0.0000000000000000e+00  3.6224975396272776e-06 -3.2456981480842568e-04 0.0000000000000000e+00  1.2836076044015889e-05 -5.9420202268709249e-04 0.0000000000000000e+00  5.5124073834737652e-06 -3.9302750711483873e-04 0.0000000000000000e+00  1.1027987242253074e-05 -5.1380903060765904e-04 0.0000000000000000e+00  8.1535279151744063e-06 -4.4988843408389157e-04 0.0000000000000000e+00  -2.1896740889500427e-06 -1.5766115478176354e-04 0.0000000000000000e+00  2.1944070015467120e-05 -1.2994330687638169e-03 0.0000000000000000e+00  -3.7857618692750823e-06 -3.2116056718323643e-05 0.0000000000000000e+00  4.4970357919122708e-07 -1.4136940569684530e-03 0.0000000000000000e+00  -3.2346745748727633e-06 -2.4250625330520313e-06 0.0000000000000000e+00  3.6539927897367955e-06 -1.0847833392910048e-03 0.0000000000000000e+00  3.9759802412558085e-06 -1.1778810877574022e-03 0.0000000000000000e+00  2.5199501824613201e-07 -1.1624373607794615e-05 0.0000000000000000e+00  2.2072213035562623e-06 -6.7038317351436367e-05 0.0000000000000000e+00  7.8760396257358367e-07 -8.1053814518270025e-04 0.0000000000000000e+00  3.0047797020362262e-06 -9.9232270387502068e-04 0.0000000000000000e+00  1.1549088082477732e-05 -2.2916684032549473e-04 0.0000000000000000e+00  -7.2305218416357666e-07 -7.2196666593797988e-04 0.0000000000000000e+00  4.1551957692964952e-06 -1.0345535565067211e-04 0.0000000000000000e+00  1.5063955281006581e-05 -2.9191262991102836e-04 0.0000000000000000e+00  -2.4426541277189227e-06 -6.3555946200704423e-04 0.0000000000000000e+00  2.0409075560885405e-06 -9.0079237811344027e-04 0.0000000000000000e+00  2.1723850515629569e-05 -3.6051941041732448e-04 0.0000000000000000e+00  -4.3119417818171454e-06 -5.5187118347613435e-04 0.0000000000000000e+00  -2.8763908338965645e-07 5.9407029748141417e-08 0.0000000000000000e+00  -7.8297901317286244e-07 2.0265220412244529e-07 0.0000000000000000e+00  3.5816117381522827e-05 -1.4965738733695583e-03 0.0000000000000000e+00  8.4695459383634