<?xml version="1.0"?>
<VTKFile type="UnstructuredGrid"  version="0.1"  >
<UnstructuredGrid>
<Piece  NumberOfPoints="1419" NumberOfCells="2698">
<Points>
<DataArray  type="Float64"  NumberOfComponents="3"  format="ascii">0 0 0  0 0.41 0  2.5 0 0  2.5 0.41 0  0.6 0.19 0  0.6 0.21 0  0.25 0.2 0  0.15 0.2 0  0.2489897948556636 0.21 0  0.2489897948556636 0.19 0  0.6 0.2 0  0 0.3807142857143437 0  0 0.3514285714286952 0  0 0.3221428571430699 0  0 0.29285714285744 0  0 0.2635714285718054 0  0 0.2342857142861561 0  0 0.2050000000005308 0  0 0.175714285714732 0  0 0.1464285714289574 0  0 0.1171428571431897 0  0 0.08785714285737878 0  0 0.05857142857161107 0  0 0.02928571428580012 0  0.03015443760436003 0 0  0.06140001986583606 0 0  0.09377624077125973 0 0  0.1273239957535082 0 0  0.1620856860351972 0 0  0.1981052433264291 0 0  0.235428184091502 0 0  0.2741016576309132 0 0  0.3141745521465447 0 0  0.3556974926295285 0 0  0.3987229542472677 0 0  0.4433053055141081 0 0  0.4895008759286886 0 0  0.5373680609405097 0 0  0.5869673343216626 0 0  0.6383613676634521 0 0  0.6916151138468254 0 0  0.7467958595648856 0 0  0.8039733463919316 0 0  0.8632198139502143 0 0  0.9246101326867038 0 0  0.9882218810934433 0 0  1.054135445558498 0 0  1.122434100542598 0 0  1.193204177141305 0 0  1.266535089879536 0 0  1.342519516046404 0 0  1.421253448503939 0 0  1.502836389106271 0 0  1.587371439758838 0 0  1.674965418777374 0 0  1.765729001825544 0 0  1.859776908880082 0 0  1.957227977487062 0 0  2.058205329869943 0 0  2.162836591189951 0 0  2.271253957290865 0 0  2.383594446803425 0 0  2.5 0.1024999999997612 0  2.5 0.2049999999994743 0  2.5 0.3074999999997183 0  2.383594446803656 0.41 0  2.271253957291315 0.41 0  2.162836591190598 0.41 0  2.058205329870775 0.41 0  1.957227977488067 0.41 0  1.859776908881246 0.41 0  1.765729001826854 0.41 0  1.674965418778818 0.41 0  1.58737143976041 0.41 0  1.502836389107956 0.41 0  1.421253448505726 0.41 0  1.342519516048286 0.41 0  1.266535089881505 0.41 0  1.193204177143353 0.41 0  1.122434100544716 0.41 0  1.05413544556068 0.41 0  0.9882218810956305 0.41 0  0.9246101326886647 0.41 0  0.8632198139519631 0.41 0  0.8039733463934788 0.41 0  0.7467958595662458 0.41 0  0.6916151138480078 0.41 0  0.6383613676644679 0.41 0  0.5869673343225223 0.41 0  0.5373680609412221 0.41 0  0.4895008759292634 0.41 0  0.4433053055145528 0.41 0  0.3987229542475914 0.41 0  0.3556974926297398 0.41 0  0.3141745521466497 0.41 0  0.2741016576310038 0.41 0  0.2354281840915826 0.41 0  0.1981052433265003 0.41 0  0.1620856860352591 0.41 0  0.1273239957535623 0.41 0  0.09377624077128965 0.41 0  0.06140001986584975 0.41 0  0.03015443760436654 0.41 0  0.2497468076502589 0.2050254481002335 0  0.2497468076502614 0.1949745518997913 0  0.2469965252529372 0.1829317073451959 0  0.2439893735792749 0.1762316384219906 0  0.2400332147834255 0.1700443375285386 0  0.2352133972704371 0.1645032867342007 0  0.2296339016332438 0.1597280261969788 0  0.2234150974217223 0.1558215752574715 0  0.2166911463437691 0.1528682099456123 0  0.2096071079204251 0.1509316448471593 0  0.2023158100364996 0.1500536585536553 0  0.194974551899914 0.1502531923497262 0  0.1877417105387872 0.1515259415822739 0  0.1807733240461124 0.153844448527136 0  0.1742197252835808 0.15715869474974 0  0.1682222986673531 0.1613971801805478 0  0.162910430003803 0.1664684656256651 0  0.1583987151779087 0.1722631454351573 0  0.1547844879126891 0.178656207771761 0  0.1521457199348551 0.1855097315605723 0  0.1505393388476355 0.1926758619366523 0  0.1505393388476328 0.2073241380633295 0  0.1521457199348437 0.2144902684393899 0  0.1547844879126531 0.221343792228163 0  0.1583987151778488 0.2277368545647528 0  0.1629104300036858 0.2335315343742052 0  0.1682222986671726 0.2386028198193036 0  0.1742197252833576 0.2428413052501257 0  0.1807733240458683 0.2461555514727623 0  0.1877417105384929 0.2484740584176516 0  0.1949745518995776 0.2497468076502398 0  0.202315810036185 0.2499463414463592 0  0.2096071079201568 0.2490683551528932 0  0.2166911463435495 0.2471317900544655 0  0.2234150974215506 0.2441784247426195 0  0.2296339016331197 0.2402719738031125 0  0.2352133972703547 0.2354967132658811 0  0.2400332147833751 0.2299556624715287 0  0.2439893735792577 0.2237683615780412 0  0.246996525252926 0.2170682926548348 0  0.25645809709277 0.21 0  0.2639263993298655 0.21 0  0.271394701566961 0.21 0  0.2788630038040554 0.21 0  0.2863313060411479 0.21 0  0.2937996082782405 0.21 0  0.301267910515333 0.21 0  0.3087362127524279 0.21 0  0.3162045149895234 0.21 0  0.3236728172265972 0.21 0  0.3311411194636928 0.21 0  0.3386094217007701 0.21 0  0.3460777239378666 0.21 0  0.3535460261749672 0.21 0  0.3610143284120516 0.21 0  0.3684826306491596 0.21 0  0.3759509328862226 0.21 0  0.383419235123329 0.21 0  0.3908875373604028 0.21 0  0.3983558395975142 0.21 0  0.4058241418345938 0.21 0  0.4132924440716992 0.21 0  0.4207607463087888 0.21 0  0.4282290485459029 0.21 0  0.4356973507830418 0.21 0  0.4431656530201649 0.21 0  0.4506339552573136 0.21 0  0.4581022574944306 0.21 0  0.4655705597315852 0.21 0  0.4730388619686996 0.21 0  0.480507164205851 0.21 0  0.4879754664429498 0.21 0  0.4954437686800938 0.21 0  0.502912070917267 0.21 0  0.5103803731544119 0.21 0  0.5178486753915261 0.21 0  0.5253169776286404 0.21 0  0.5327852798657868 0.21 0  0.5402535821029386 0.21 0  0.54772188434007 0.21 0  0.5551901865771842 0.21 0  0.5626584888143201 0.21 0  0.5701267910514778 0.21 0  0.5775950932886138 0.21 0  0.5850633955257281 0.21 0  0.5925316977628483 0.21 0  0.6 0.2050000000000054 0  0.6 0.1950000000000217 0  0.5925316977628897 0.19 0  0.5850633955257988 0.19 0  0.5775950932887378 0.19 0  0.5701267910515998 0.19 0  0.5626584888145268 0.19 0  0.5551901865773963 0.19 0  0.547721884340339 0.19 0  0.5402535821032429 0.19 0  0.5327852798661811 0.19 0  0.5253169776290537 0.19 0  0.5178486753919799 0.19 0  0.5103803731549078 0.19 0  0.502912070917822 0.19 0  0.4954437686807294 0.19 0  0.4879754664436223 0.19 0  0.4805071642065402 0.19 0  0.4730388619694271 0.19 0  0.4655705597323621 0.19 0  0.4581022574952563 0.19 0  0.4506339552581777 0.19 0  0.4431656530210671 0.19 0  0.4356973507839815 0.19 0  0.4282290485468779 0.19 0  0.4207607463097617 0.19 0  0.4132924440726327 0.19 0  0.4058241418354857 0.19 0  0.3983558395983636 0.19 0  0.3908875373612097 0.19 0  0.3834192351240934 0.19 0  0.3759509328869369 0.19 0  0.3684826306498175 0.19 0  0.361014328412667 0.19 0  0.3535460261755617 0.19 0  0.3460777239384295 0.19 0  0.3386094217012945 0.19 0  0.3311411194641595 0.19 0  0.3236728172270245 0.19 0  0.3162045149898895 0.19 0  0.3087362127527544 0.19 0  0.3012679105156187 0.19 0  0.2937996082784807 0.19 0  0.2863313060413428 0.19 0  0.2788630038042048 0.19 0  0.2713947015670686 0.19 0  0.2639263993299336 0.19 0  0.2564580970927985 0.19 0  0.2607803159922026 0.2000727136295815 0  0.5887803774232762 0.2001272386983733 0  0.5745072403740523 0.2002044435018727 0  0.5511891430099709 0.2001122610077113 0  0.2751288526855082 0.20000000000002 0  0.5365194309847112 0.1999999999999436 0  0.2894621222999649 0.1998691686390484 0  0.5215828265105155 0.1999999999999228 0  0.3127789816668748 0.1998657885438805 0  0.3274069683451451 0.2000000000000796 0  0.5066462220363641 0.199999999999908 0  0.3650630746574081 0.199866017807523 0  0.476773013087985 0.1999999999998713 0  0.3417402379596385 0.1998691686391011 0  0.3796850840047755 0.200000000000134 0  0.4618364086138087 0.1999999999998546 0  0.4917096175621762 0.1999999999998808 0  0.3946216884789568 0.2000000000001512 0  0.446899804139621 0.1999999999998389 0  0.4089549580935208 0.1998691686391595 0  0.4322718174608562 0.200127451265745 0  0.4201487168029707 0.1999966199048527 0  0.3528922713220932 0.2000185703532356 0  0.5633122436674589 0.1999814296467508 0  0.3006558810093873 0.1999966199048318 0  0.5815926498168407 0.1966545283159175 0  0.2677053789419034 0.1964246479135325 0  0.5290511287476175 0.1970915826863981 0  0.5439877332217911 0.197091582686394 0  0.2825131256993216 0.2035478995978015 0  0.3199386661080599 0.202908417313604 0  0.4842413153250809 0.1970915826863873 0  0.5141145242734466 0.1970915826863843 0  0.3722167817676917 0.2029084173136195 0  0.4693047108508938 0.1970915826863783 0  0.3348752705822316 0.202908417313609 0  0.3871533862418661 0.2029084173136212 0  0.4543681063767183 0.1970915826863795 0  0.4991779197992749 0.1970915826863902 0  0.4020059614928624 0.203547899597858 0  0.4394315019025246 0.1970915826863714 0  0.2550657455369551 0.2034088125358657 0  0.2548908499171161 0.1966940311614271 0  0.5946539510196798 0.2024302972968126 0  0.267698176732111 0.2039977513680092 0  0.4261685417851465 0.196409292431739 0  0.3590076176283495 0.196411355804271 0  0.5571672426447437 0.2036011176410121 0  0.3066757059912147 0.1964092924317024 0  0.594380730180568 0.1966558399668133 0  0.4842413153245942 0.2040749161535287 0  0.4693047108503577 0.2040749161535231 0  0.3871533862424271 0.1959250838464788 0  0.372246743208829 0.1959123236376545 0  0.5141145242731028 0.2040749161535395 0  0.4543681063761134 0.2040749161535186 0  0.4019979587101454 0.1959834479682427 0  0.4394608940728603 0.2040870543693135 0  0.5439623148931173 0.2040856076781014 0  0.5290511287473298 0.2040749161535501 0  0.4991779197988497 0.2040749161535382 0  0.3347912413592433 0.1959225448935183 0  0.3199680582793816 0.1959123018030061 0  0.2825051229162361 0.1959834479681729 0  0.3590471196690275 0.2036304442587945 0  0.5571594006495384 0.1963685282145804 0  0.3067669986803285 0.203627750582736 0  0.4262598344738712 0.2036568242185335 0  0.5814408164431408 0.2041285596160068 0  0.5688286748170428 0.1961819304477386 0  0.4145905603063645 0.2038180695522843 0  0.3473758401724931 0.2038180695522752 0  0.2950977245128307 0.2038180695522663 0  0.5688286748170693 0.203818069552238 0  0.2950977245127906 0.1961819304477774 0  0.3473758401723931 0.1961819304478349 0  0.4145905603061963 0.1961819304479011 0  0.2601812407614425 0.2056861609747042
[...]
<PointData  Vectors="f_40-0"> 
<DataArray  type="Float64"  Name="f_40-0"  NumberOfComponents="3" format="ascii">0.0000000000000000e+00 0.0000000000000000e+00 0.0000000000000000e+00  0.0000000000000000e+00 0.0000000000000000e+00 0.0000000000000000e+00  0.0000000000000000e+00 0.0000000000000000e+00 0.0000000000000000e+00  0.0000000000000000e+00 0.0000000000000000e+00 0.0000000000000000e+00  -1.2885848113137436e-04 -8.0167862625430406e-04 0.0000000000000000e+00  9.6510838681800667e-06 -8.0305652315613258e-04 0.0000000000000000e+00  0.0000000000000000e+00 0.0000000000000000e+00 0.0000000000000000e+00  0.0000000000000000e+00 0.0000000000000000e+00 0.0000000000000000e+00  0.0000000000000000e+00 0.0000000000000000e+00 0.0000000000000000e+00  0.0000000000000000e+00 0.0000000000000000e+00 0.0000000000000000e+00  -6.0084679983771895e-05 -8.0232426333509243e-04 0.0000000000000000e+00  4.0677255389115419e-01 0.0000000000000000e+00 0.0000000000000000e+00  7.5096471487602678e-01 0.0000000000000000e+00 0.0000000000000000e+00  1.0325764829545370e+00 0.0000000000000000e+00 0.0000000000000000e+00  1.2516078581270107e+00 0.0000000000000000e+00 0.0000000000000000e+00  1.4080588403934198e+00 0.0000000000000000e+00 0.0000000000000000e+00  1.5019294297537549e+00 0.0000000000000000e+00 0.0000000000000000e+00  1.5332196262079218e+00 0.0000000000000000e+00 0.0000000000000000e+00  1.5019294297556527e+00 0.0000000000000000e+00 0.0000000000000000e+00  1.4080588403966798e+00 0.0000000000000000e+00 0.0000000000000000e+00  1.2516078581310479e+00 0.0000000000000000e+00 0.0000000000000000e+00  1.0325764829583723e+00 0.0000000000000000e+00 0.0000000000000000e+00  7.5096471487929950e-01 0.0000000000000000e+00 0.0000000000000000e+00  4.0677255389299827e-01 0.0000000000000000e+00 0.0000000000000000e+00  0.0000000000000000e+00 0.0000000000000000e+00 0.0000000000000000e+00  0.0000000000000000e+00 0.0000000000000000e+00 0.0000000000000000e+00  0.0000000000000000e+00 0.0000000000000000e+00 0.0000000000000000e+00  0.0000000000000000e+00 0.0000000000000000e+00 0.0000000000000000e+00  0.0000000000000000e+00 0.0000000000000000e+00 0.0000000000000000e+00  0.0000000000000000e+00 0.0000000000000000e+00 0.0000000000000000e+00  0.0000000000000000e+00 0.0000000000000000e+00 0.0000000000000000e+00  0.0000000000000000e+00 0.0000000000000000e+00 0.0000000000000000e+00  0.0000000000000000e+00 0.0000000000000000e+00 0.0000000000000000e+00  0.0000000000000000e+00 0.0000000000000000e+00 0.0000000000000000e+00  0.0000000000000000e+00 0.0000000000000000e+00 0.0000000000000000e+00  0.0000000000000000e+00 0.0000000000000000e+00 0.0000000000000000e+00  0.0000000000000000e+00 0.0000000000000000e+00 0.0000000000000000e+00  0.0000000000000000e+00 0.0000000000000000e+00 0.0000000000000000e+00  0.0000000000000000e+00 0.0000000000000000e+00 0.0000000000000000e+00  0.0000000000000000e+00 0.0000000000000000e+00 0.0000000000000000e+00  0.0000000000000000e+00 0.0000000000000000e+00 0.0000000000000000e+00  0.0000000000000000e+00 0.0000000000000000e+00 0.0000000000000000e+00  0.0000000000000000e+00 0.0000000000000000e+00 0.0000000000000000e+00  0.0000000000000000e+00 0.0000000000000000e+00 0.0000000000000000e+00  0.0000000000000000e+00 0.0000000000000000e+00 0.0000000000000000e+00  0.0000000000000000e+00 0.0000000000000000e+00 0.0000000000000000e+00  0.0000000000000000e+00 0.0000000000000000e+00 0.0000000000000000e+00  0.0000000000000000e+00 0.0000000000000000e+00 0.0000000000000000e+00  0.0000000000000000e+00 0.0000000000000000e+00 0.0000000000000000e+00  0.0000000000000000e+00 0.0000000000000000e+00 0.0000000000000000e+00  0.0000000000000000e+00 0.0000000000000000e+00 0.0000000000000000e+00  0.0000000000000000e+00 0.0000000000000000e+00 0.0000000000000000e+00  0.0000000000000000e+00 0.0000000000000000e+00 0.0000000000000000e+00  0.0000000000000000e+00 0.0000000000000000e+00 0.0000000000000000e+00  0.0000000000000000e+00 0.0000000000000000e+00 0.0000000000000000e+00  0.0000000000000000e+00 0.0000000000000000e+00 0.0000000000000000e+00  0.0000000000000000e+00 0.0000000000000000e+00 0.0000000000000000e+00  0.0000000000000000e+00 0.0000000000000000e+00 0.0000000000000000e+00  0.0000000000000000e+00 0.0000000000000000e+00 0.0000000000000000e+00  0.0000000000000000e+00 0.0000000000000000e+00 0.0000000000000000e+00  0.0000000000000000e+00 0.0000000000000000e+00 0.0000000000000000e+00  0.0000000000000000e+00 0.0000000000000000e+00 0.0000000000000000e+00  1.3956966001871403e+00 -3.6241222307905899e-02 0.0000000000000000e+00  1.0879174033180563e+00 1.3528327892586296e-02 0.0000000000000000e+00  1.3813454952478947e+00 5.1539351140324895e-02 0.0000000000000000e+00  0.0000000000000000e+00 0.0000000000000000e+00 0.0000000000000000e+00  0.0000000000000000e+00 0.0000000000000000e+00 0.0000000000000000e+00  0.0000000000000000e+00 0.0000000000000000e+00 0.0000000000000000e+00  0.0000000000000000e+00 0.0000000000000000e+00 0.0000000000000000e+00  0.0000000000000000e+00 0.0000000000000000e+00 0.0000000000000000e+00  0.0000000000000000e+00 0.0000000000000000e+00 0.0000000000000000e+00  0.0000000000000000e+00 0.0000000000000000e+00 0.0000000000000000e+00  0.0000000000000000e+00 0.0000000000000000e+00 0.0000000000000000e+00  0.0000000000000000e+00 0.0000000000000000e+00 0.0000000000000000e+00  0.0000000000000000e+00 0.0000000000000000e+00 0.0000000000000000e+00  0.0000000000000000e+00 0.0000000000000000e+00 0.0000000000000000e+00  0.0000000000000000e+00 0.0000000000000000e+00 0.0000000000000000e+00  0.0000000000000000e+00 0.0000000000000000e+00 0.0000000000000000e+00  0.0000000000000000e+00 0.0000000000000000e+00 0.0000000000000000e+00  0.0000000000000000e+00 0.0000000000000000e+00 0.0000000000000000e+00  0.0000000000000000e+00 0.0000000000000000e+00 0.0000000000000000e+00  0.0000000000000000e+00 0.0000000000000000e+00 0.0000000000000000e+00  0.0000000000000000e+00 0.0000000000000000e+00 0.0000000000000000e+00  0.0000000000000000e+00 0.0000000000000000e+00 0.0000000000000000e+00  0.0000000000000000e+00 0.0000000000000000e+00 0.0000000000000000e+00  0.0000000000000000e+00 0.0000000000000000e+00 0.0000000000000000e+00  0.0000000000000000e+00 0.0000000000000000e+00 0.0000000000000000e+00  0.0000000000000000e+00 0.0000000000000000e+00 0.0000000000000000e+00  0.0000000000000000e+00 0.0000000000000000e+00 0.0000000000000000e+00  0.0000000000000000e+00 0.0000000000000000e+00 0.0000000000000000e+00  0.0000000000000000e+00 0.0000000000000000e+00 0.0000000000000000e+00  0.0000000000000000e+00 0.0000000000000000e+00 0.0000000000000000e+00  0.0000000000000000e+00 0.0000000000000000e+00 0.0000000000000000e+00  0.0000000000000000e+00 0.0000000000000000e+00 0.0000000000000000e+00  0.0000000000000000e+00 0.0000000000000000e+00 0.0000000000000000e+00  0.0000000000000000e+00 0.0000000000000000e+00 0.0000000000000000e+00  0.0000000000000000e+00 0.0000000000000000e+00 0.0000000000000000e+00  0.0000000000000000e+00 0.0000000000000000e+00 0.0000000000000000e+00  0.0000000000000000e+00 0.0000000000000000e+00 0.0000000000000000e+00  0.0000000000000000e+00 0.0000000000000000e+00 0.0000000000000000e+00  0.0000000000000000e+00 0.0000000000000000e+00 0.0000000000000000e+00  0.0000000000000000e+00 0.0000000000000000e+00 0.0000000000000000e+00  0.0000000000000000e+00 0.0000000000000000e+00 0.0000000000000000e+00  0.0000000000000000e+00 0.0000000000000000e+00 0.0000000000000000e+00  0.0000000000000000e+00 0.0000000000000000e+00 0.0000000000000000e+00  0.0000000000000000e+00 0.0000000000000000e+00 0.0000000000000000e+00  0.0000000000000000e+00 0.0000000000000000e+00 0.0000000000000000e+00  0.0000000000000000e+00 0.0000000000000000e+00 0.0000000000000000e+00  0.0000000000000000e+00 0.0000000000000000e+00 0.0000000000000000e+00  0.0000000000000000e+00 0.0000000000000000e+00 0.0000000000000000e+00  0.0000000000000000e+00 0.0000000000000000e+00 0.0000000000000000e+00  0.0000000000000000e+00 0.0000000000000000e+00 0.0000000000000000e+00  0.0000000000000000e+00 0.0000000000000000e+00 0.0000000000000000e+00  0.0000000000000000e+00 0.0000000000000000e+00 0.0000000000000000e+00  0.0000000000000000e+00 0.0000000000000000e+00 0.0000000000000000e+00  0.0000000000000000e+00 0.0000000000000000e+00 0.0000000000000000e+00  0.0000000000000000e+00 0.0000000000000000e+00 0.0000000000000000e+00  0.0000000000000000e+00 0.0000000000000000e+00 0.0000000000000000e+00  0.0000000000000000e+00 0.0000000000000000e+00 0.0000000000000000e+00  0.0000000000000000e+00 0.0000000000000000e+00 0.0000000000000000e+00  0.0000000000000000e+00 0.0000000000000000e+00 0.0000000000000000e+00  0.0000000000000000e+00 0.0000000000000000e+00 0.0000000000000000e+00  0.0000000000000000e+00 0.0000000000000000e+00 0.0000000000000000e+00  0.0000000000000000e+00 0.0000000000000000e+00 0.0000000000000000e+00  0.0000000000000000e+00 0.0000000000000000e+00 0.0000000000000000e+00  0.0000000000000000e+00 0.0000000000000000e+00 0.0000000000000000e+00  0.0000000000000000e+00 0.0000000000000000e+00 0.0000000000000000e+00  0.0000000000000000e+00 0.0000000000000000e+00 0.0000000000000000e+00  0.0000000000000000e+00 0.0000000000000000e+00 0.0000000000000000e+00  0.0000000000000000e+00 0.0000000000000000e+00 0.0000000000000000e+00  0.0000000000000000e+00 0.0000000000000000e+00 0.0000000000000000e+00  0.0000000000000000e+00 0.0000000000000000e+00 0.0000000000000000e+00  0.0000000000000000e+00 0.0000000000000000e+00 0.0000000000000000e+00  0.0000000000000000e+00 0.0000000000000000e+00 0.0000000000000000e+00  0.0000000000000000e+00 0.0000000000000000e+00 0.0000000000000000e+00  0.0000000000000000e+00 0.0000000000000000e+00 0.0000000000000000e+00  0.0000000000000000e+00 0.0000000000000000e+00 0.0000000000000000e+00  0.0000000000000000e+00 0.0000000000000000e+00 0.0000000000000000e+00  0.0000000000000000e+00 0.0000000000000000e+00 0.0000000000000000e+00  0.0000000000000000e+00 0.0000000000000000e+00 0.0000000000000000e+00  0.0000000000000000e+00 0.0000000000000000e+00 0.0000000000000000e+00  0.0000000000000000e+00 0.0000000000000000e+00 0.0000000000000000e+00  0.0000000000000000e+00 0.0000000000000000e+00 0.0000000000000000e+00  -7.8566646145583720e-06 8.8688328028424148e-06 0.0000000000000000e+00  -1.5897112365976299e-05 1.6562977359601882e-05 0.0000000000000000e+00  -2.2802295399792260e-05 2.7283124476557750e-05 0.0000000000000000e+00  -2.9378167220561134e-05 4.1194173770477620e-05 0.0000000000000000e+00  -3.4745667796710386e-05 5.6933096876400604e-05 0.0000000000000000e+00  -3.9625137903990399e-05 7.4527126899392551e-05 0.0000000000000000e+00  -4.3563542118884393e-05 9.2921508827912896e-05 0.0000000000000000e+00  -4.6839942218510933e-05 1.1192859370501065e-04 0.0000000000000000e+00  -4.9501582355597955e-05 1.3097922813932073e-04 0.0000000000000000e+00  -5.1579800450762112e-05 1.4947063826664035e-04 0.0000000000000000e+00  -5.2760205918978845e-05 1.6721939244401478e-04 0.0000000000000000e+00  -5.3774482861230530e-05 1.8347021681993441e-04 0.0000000000000000e+00  -5.3712597017408007e-05 1.9809352950741227e-04 0.0000000000000000e+00  -5.3721447814704863e-05 2.1092953459381130e-04 0.0000000000000000e+00  -5.3232483870027285e-05 2.2113406398282417e-04 0.0000000000000000e+00  -5.1710808854804889e-05 2.2903694055338383e-04 0.0000000000000000e+00  -5.0626530495114972e-05 2.3401674041258701e-04 0.0000000000000000e+00  -4.8199683238092510e-05 2.3611992754422030e-04 0.0000000000000000e+00  -4.6534173278747971e-05 2.3488807033843071e-04 0.0000000000000000e+00  -4.3591965438938365e-05 2.3068489495487894e-04 0.0000000000000000e+00  -4.1262992801332422e-05 2.2287033376701369e-04 0.0000000000000000e+00  -3.7903760425231937e-05 2.1163367445191188e-04 0.0000000000000000e+00  -3.5316755194794915e-05 1.9755334703505249e-04 0.0000000000000000e+00  -3.2524950261203136e-05 1.7960690040567834e-04 0.0000000000000000e+00  -2.8962343459410464e-05 1.5896204720437532e-04 0.0000000000000000e+00  -2.5910641793668761e-05 1.3475882589501239e-04 0.0000000000000000e+00  -2.2559213690239910e-05 1.0764109232515952e-04 0.0000000000000000e+00  -1.9526072902921573e-05 7.7570296557488477e-05 0.0000000000000000e+00  -1.6294419589545427e-05 4.4751121814909334e-05 0.0000000000000000e+00  -1.3419161918630491e-05 9.3656749312001968e-06 0.0000000000000000e+00  -1.0431448054648780e-05 -2.8450599006297713e-05 0.0000000000000000e+00  -7.8158384037711679e-06 -6.8426745361898123e-05 0.0000000000000000e+00  -5.1790613734646785e-06 -1.1045776717198042e-04 0.0000000000000000e+00  -2.9002558788410311e-06 -1.5422436146540877e-04 0.0000000000000000e+00  -6.7452365089881936e-07 -1.9963865596226731e-04 0.0000000000000000e+00  1.1912374548876743e-06 -2.4634146749216333e-04 0.0000000000000000e+00  2.9559446274078948e-06 -2.9429715328329806e-04 0.0000000000000000e+00  4.3960806187974933e-06 -3.4313914076376410e-04 0.0000000000000000e+00  5.7094254482497975e-06 -3.9286567399844527e-04 0.0000000000000000e+00  6.7359075717067912e-06 -4.4312478068095470e-04 0.0000000000000000e+00  7.6321297604042945e-06 -4.9397486999990447e-04 0.0000000000000000e+00  8.2718454812339398e-06 -5.4506666536676730e-04 0.0000000000000000e+00  8.7457317857826800e-06 -5.9645631477151255e-04 0.0000000000000000e+00  9.1499061955687894e-06 -6.4795497337650013e-04 0.0000000000000000e+00  9.3582728534897760e-06 -6.9951287480896638e-04 0.0000000000000000e+00  9.4921776595777568e-06 -7.5116356020609387e-04 0.0000000000000000e+00  -2.5395368532209988e-05 -8.0268010940888175e-04 0.0000000000000000e+00  -9.4608146724061814e-05 -8.0199148832630664e-04 0.0000000000000000e+00  -1.2891238333237844e-04 -7.5007437039546158e-04 0.0000000000000000e+00  -1.2886814702449048e-04 -6.9830533900559213e-04 0.0000000000000000e+00  -1.2881647065765233e-04 -6.4656501221486994e-04 0.0000000000000000e+00  -1.2870330548984881e-04 -5.9496722542805888e-04 0.0000000000000000e+00  -1.2857398499924473e-04 -5.4351262766007768e-04 0.0000000000000000e+00  -1.2835286837313472e-04 -4.9237340206667601e-04 0.0000000000000000e+00  -1.2790209995082805e-04 -4.4156570428106640e-04 0.0000000000000000e+00  -1.2744158850120250e-04 -3.9129807257556231e-04 0.0000000000000000e+00  -1.2655028364617123e-04 -3.4165181043769465e-04 0.0000000000000000e+00  -1.2571314124489250e-04 -2.9290130465448386e-04 0.0000000000000000e+00  -1.2426648236770323e-04 -2.4508549277473543e-04 0.0000000000000000e+00  -1.2293186900968838e-04 -1.9856554795658833e-04 0.0000000000000000e+00  -1.2080004141031211e-04 -1.5335024300099770e-04 0.0000000000000000e+00  -1.1887649330531973e-04 -1.0986614557487677e-04 0.0000000000000000e+00  -1.1598750431232041e-04 -6.8093068206210916e-05 0.0000000000000000e+00  -1.1342588158326766e-04 -2.8483066748218479e-05 0.0000000000000000e+00  -1.0974765464859878e-04 9.0196298689192878e-06 0.0000000000000000e+00  -1.0652103905231807e-04 4.3953650854961856e-05 0.0000000000000000e+00  -1.0204606846518218e-04 7.6425982728439560e-05 0.0000000000000000e+00  -9.8163563721443591e-05 1.0598847075664645e-04 0.0000000000000000e+00  -9.2925053017729701e-05 1.3274474349201786e-04 0.0000000000000000e+00  -8.8405747995870502e-05 1.5628804725387546e-04 0.0000000000000000e+00  -8.2571069309587942e-05 1.7669323290450762e-04 0.0000000000000000e+00  -7.7360207860327317e-05 1.9409993312544452e-04 0.0000000000000000e+00  -7.1953697493737769e-05 2.0770385176730892e-04 0.0000000000000000e+00  -6.5646022507224059e-05 2.1861405224253032e-04 0.0000000000000000e+00  -5.9781124521484807e-05 2.2579918446277402e-04 0.0000000000000000e+00  -5.3450165085720523e-05 2.2985883286807520e-04 0.0000000000000000e+00  -4.7458705439830688e-05 2.3058111399456310e-04 0.0000000000000000e+00  -4.1213531007443670e-05 2.2822550284603654e-04 0.0000000000000000e+00  -3.5355453009612938e-05 2.2297334889165977e-04 0.0000000000000000e+00  -2.9204240437893408e-05 2.1466153155418510e-04 0.0000000000000000e+00  -2.3850219681545457e-05 2.0424474662248610e-04 0.0000000000000000e+00  -1.8778665571074392e-05 1.9119338611269231e-04 0.0000000000000000e+00  -1.3538027775112767e-05 1.7649690451065623e-04 0.0000000000000000e+00  -9.0202240461142078e-06 1.6002610235786198e-04 0.0000000000000000e+00  -4.8163840342698228e-06 1.4216952828606402e-04 0.0000000000000000e+00  -1.2070723538031579e-06 1.2358906733110937e-04 0.0000000000000000e+00  1.8103351860155255e-06 1.0445186560518914e-04 0.0000000000000000e+00  4.3094327130676849e-06 8.5406803411713054e-05 0.0000000000000000e+00  6.2109592755041024e-06 6.6983114779364838e-05 0.0000000000000000e+00  7.2548341335190673e-06 4.9326467041967670e-05 0.0000000000000000e+00  7.7420417964731460e-06 3.3461272280166489e-05 0.0000000000000000e+00  6.9809992078500991e-06 1.9624910064548254e-05 0.0000000000000000e+00  5.8701047563421740e-06 8.9986045595925349e-06 0.0000000000000000e+00  3.0927829035093910e-06 1.7994448789599524e-06 0.0000000000000000e+00  -3.2459766590338992e-06 6.5122696770509680e-06 0.0000000000000000e+00  -5.9059445840888498e-05 -7.2459958521937495e-04 0.0000000000000000e+00  -5.8573152549788370e-05 -6.2582048260181140e-04 0.0000000000000000e+00  -5.9795176743000239e-05 -4.6557260303356452e-04 0.0000000000000000e+00  -9.2858754288037857e-06 2.8376495996016195e-05 0.0000000000000000e+00  -6.1028206239126314e-05 -3.6664491674211062e-04 0.0000000000000000e+00  -1.4695616670830690e-05 5.9331024320979772e-05 0.0000000000000000e+00  -6.1496894934321320e-05 -2.6879127011672174e-04 0.0000000000000000e+00  -2.3688366219050891e-05 1.1862027524470539e-04 0.0000000000000000e+00  -2.9486465460938458e-05 1.5550773927299556e-04 0.0000000000000000e+00  -6.1842139066154136e-05 -1.7527388824915317e-04 0.0000000000000000e+00  -4.2291346421081639e-05 2.2431295751351444e-04 0.0000000000000000e+00  -6.1717457790093979e-05 -7.8515208514367756e-06 0.0000000000000000e+00  -3.4406780389184835e-05 1.8748261656459446e-04 0.0000000000000000e+00  -4.6741849305790157e-05 2.3453393485118801e-04 0.0000000000000000e+00  -6.1031713708140363e-05 6.2738570059684741e-05 0.0000000000000000e+00  -6.1952269248876239e-05 -8.7728850784092439e-05 0.0000000000000000e+00  -5.0683785237409772e-05 2.3280358060022191e-04 0.0000000000000000e+00  -5.9821465494064432e-05 1.2256505644979500e-04 0.0000000000000000e+00  -5.4154084907424960e-05 2.1871713741854353e-04 0.0000000000000000e+00  -5.7699271812413849e-05 1.6954845374829113e-04 0.0000000000000000e+00  -5.6056944342691379e-05 1.9865506017826019e-04 0.0000000000000000e+00  -3.8479909485427428e-05 2.0758069056016245e-04 0.0000000000000000e+00  -6.0362830308704369e-05 -5.4863411468496822e-04 0.0000000000000000e+00  -1.9329140530211200e-05 8.7300584970530492e-05 0.0000000000000000e+00  -8.3013682657245754e-05 -6.7463017797382997e-04 0.0000000000000000e+00  -1.6794387415057481e-06 1.4572228020112995e-05 0.0000000000000000e+00  -8.0121350859340321e-05 -3.1714966003957342e-04 0.0000000000000000e+00  -8.0224335980492217e-05 -4.1656755561404296e-04 0.0000000000000000e+00  -1.9118429858200439e-05 4.5077104904686502e-05 0.0000000000000000e+00  -3.3562952410486341e-05 1.3804710745929296e-04 0.0000000000000000e+00  -7.7208840242697153e-05 -4.6896705908764771e-05 0.0000000000000000e+00  -7.9672883134475155e-05 -2.2134347535260050e-04 0.0000000000000000e+00  -4.6392979374018040e-05 2.3134685117994316e-04 0.0000000000000000e+00  -7.4974746863792536e-05 2.8392106972753699e-05 0.0000000000000000e+00  -3.8303196018558199e-05 1.7379245833032173e-04 0.0000000000000000e+00  -4.8330803862769691e-05 2.3576618690207947e-04 0.0000000000000000e+00  -7.1968247320126143e-05 9.3630699851094662e-05 0.0000000000000000e+00  -7.8741967901145202e-05 -1.3069605007032505e-04 0.0000000000000000e+00  -4.8927295397506993e-05 2.2757618375730224e-04 0.0000000000000000e+00  -6.8214796816033871e-05 1.4744315701202269e-04 0.0000000000000000e+00  -2.0215419169875922e-06 2.7474691625881595e-06 0.0000000000000000e+00  -2.6335551638867635e-07 9.5260965117339014e-07 0.0000000000000000e+00  -4.3185014593362110e-05 -7.6542006211352412e-04 0.0000000000000000e+00  -1.1341867110041761e-05 1.7615136574704437e