<?xml version="1.0"?>
<VTKFile type="UnstructuredGrid"  version="0.1"  >
<UnstructuredGrid>
<Piece  NumberOfPoints="1419" NumberOfCells="2698">
<Points>
<DataArray  type="Float64"  NumberOfComponents="3"  format="ascii">0 0 0  0 0.41 0  2.5 0 0  2.5 0.41 0  0.6 0.19 0  0.6 0.21 0  0.25 0.2 0  0.15 0.2 0  0.2489897948556636 0.21 0  0.2489897948556636 0.19 0  0.6 0.2 0  0 0.3807142857143437 0  0 0.3514285714286952 0  0 0.3221428571430699 0  0 0.29285714285744 0  0 0.2635714285718054 0  0 0.2342857142861561 0  0 0.2050000000005308 0  0 0.175714285714732 0  0 0.1464285714289574 0  0 0.1171428571431897 0  0 0.08785714285737878 0  0 0.05857142857161107 0  0 0.02928571428580012 0  0.03015443760436003 0 0  0.06140001986583606 0 0  0.09377624077125973 0 0  0.1273239957535082 0 0  0.1620856860351972 0 0  0.1981052433264291 0 0  0.235428184091502 0 0  0.2741016576309132 0 0  0.3141745521465447 0 0  0.3556974926295285 0 0  0.3987229542472677 0 0  0.4433053055141081 0 0  0.4895008759286886 0 0  0.5373680609405097 0 0  0.5869673343216626 0 0  0.6383613676634521 0 0  0.6916151138468254 0 0  0.7467958595648856 0 0  0.8039733463919316 0 0  0.8632198139502143 0 0  0.9246101326867038 0 0  0.9882218810934433 0 0  1.054135445558498 0 0  1.122434100542598 0 0  1.193204177141305 0 0  1.266535089879536 0 0  1.342519516046404 0 0  1.421253448503939 0 0  1.502836389106271 0 0  1.587371439758838 0 0  1.674965418777374 0 0  1.765729001825544 0 0  1.859776908880082 0 0  1.957227977487062 0 0  2.058205329869943 0 0  2.162836591189951 0 0  2.271253957290865 0 0  2.383594446803425 0 0  2.5 0.1024999999997612 0  2.5 0.2049999999994743 0  2.5 0.3074999999997183 0  2.383594446803656 0.41 0  2.271253957291315 0.41 0  2.162836591190598 0.41 0  2.058205329870775 0.41 0  1.957227977488067 0.41 0  1.859776908881246 0.41 0  1.765729001826854 0.41 0  1.674965418778818 0.41 0  1.58737143976041 0.41 0  1.502836389107956 0.41 0  1.421253448505726 0.41 0  1.342519516048286 0.41 0  1.266535089881505 0.41 0  1.193204177143353 0.41 0  1.122434100544716 0.41 0  1.05413544556068 0.41 0  0.9882218810956305 0.41 0  0.9246101326886647 0.41 0  0.8632198139519631 0.41 0  0.8039733463934788 0.41 0  0.7467958595662458 0.41 0  0.6916151138480078 0.41 0  0.6383613676644679 0.41 0  0.5869673343225223 0.41 0  0.5373680609412221 0.41 0  0.4895008759292634 0.41 0  0.4433053055145528 0.41 0  0.3987229542475914 0.41 0  0.3556974926297398 0.41 0  0.3141745521466497 0.41 0  0.2741016576310038 0.41 0  0.2354281840915826 0.41 0  0.1981052433265003 0.41 0  0.1620856860352591 0.41 0  0.1273239957535623 0.41 0  0.09377624077128965 0.41 0  0.06140001986584975 0.41 0  0.03015443760436654 0.41 0  0.2497468076502589 0.2050254481002335 0  0.2497468076502614 0.1949745518997913 0  0.2469965252529372 0.1829317073451959 0  0.2439893735792749 0.1762316384219906 0  0.2400332147834255 0.1700443375285386 0  0.2352133972704371 0.1645032867342007 0  0.2296339016332438 0.1597280261969788 0  0.2234150974217223 0.1558215752574715 0  0.2166911463437691 0.1528682099456123 0  0.2096071079204251 0.1509316448471593 0  0.2023158100364996 0.1500536585536553 0  0.194974551899914 0.1502531923497262 0  0.1877417105387872 0.1515259415822739 0  0.1807733240461124 0.153844448527136 0  0.1742197252835808 0.15715869474974 0  0.1682222986673531 0.1613971801805478 0  0.162910430003803 0.1664684656256651 0  0.1583987151779087 0.1722631454351573 0  0.1547844879126891 0.178656207771761 0  0.1521457199348551 0.1855097315605723 0  0.1505393388476355 0.1926758619366523 0  0.1505393388476328 0.2073241380633295 0  0.1521457199348437 0.2144902684393899 0  0.1547844879126531 0.221343792228163 0  0.1583987151778488 0.2277368545647528 0  0.1629104300036858 0.2335315343742052 0  0.1682222986671726 0.2386028198193036 0  0.1742197252833576 0.2428413052501257 0  0.1807733240458683 0.2461555514727623 0  0.1877417105384929 0.2484740584176516 0  0.1949745518995776 0.2497468076502398 0  0.202315810036185 0.2499463414463592 0  0.2096071079201568 0.2490683551528932 0  0.2166911463435495 0.2471317900544655 0  0.2234150974215506 0.2441784247426195 0  0.2296339016331197 0.2402719738031125 0  0.2352133972703547 0.2354967132658811 0  0.2400332147833751 0.2299556624715287 0  0.2439893735792577 0.2237683615780412 0  0.246996525252926 0.2170682926548348 0  0.25645809709277 0.21 0  0.2639263993298655 0.21 0  0.271394701566961 0.21 0  0.2788630038040554 0.21 0  0.2863313060411479 0.21 0  0.2937996082782405 0.21 0  0.301267910515333 0.21 0  0.3087362127524279 0.21 0  0.3162045149895234 0.21 0  0.3236728172265972 0.21 0  0.3311411194636928 0.21 0  0.3386094217007701 0.21 0  0.3460777239378666 0.21 0  0.3535460261749672 0.21 0  0.3610143284120516 0.21 0  0.3684826306491596 0.21 0  0.3759509328862226 0.21 0  0.383419235123329 0.21 0  0.3908875373604028 0.21 0  0.3983558395975142 0.21 0  0.4058241418345938 0.21 0  0.4132924440716992 0.21 0  0.4207607463087888 0.21 0  0.4282290485459029 0.21 0  0.4356973507830418 0.21 0  0.4431656530201649 0.21 0  0.4506339552573136 0.21 0  0.4581022574944306 0.21 0  0.4655705597315852 0.21 0  0.4730388619686996 0.21 0  0.480507164205851 0.21 0  0.4879754664429498 0.21 0  0.4954437686800938 0.21 0  0.502912070917267 0.21 0  0.5103803731544119 0.21 0  0.5178486753915261 0.21 0  0.5253169776286404 0.21 0  0.5327852798657868 0.21 0  0.5402535821029386 0.21 0  0.54772188434007 0.21 0  0.5551901865771842 0.21 0  0.5626584888143201 0.21 0  0.5701267910514778 0.21 0  0.5775950932886138 0.21 0  0.5850633955257281 0.21 0  0.5925316977628483 0.21 0  0.6 0.2050000000000054 0  0.6 0.1950000000000217 0  0.5925316977628897 0.19 0  0.5850633955257988 0.19 0  0.5775950932887378 0.19 0  0.5701267910515998 0.19 0  0.5626584888145268 0.19 0  0.5551901865773963 0.19 0  0.547721884340339 0.19 0  0.5402535821032429 0.19 0  0.5327852798661811 0.19 0  0.5253169776290537 0.19 0  0.5178486753919799 0.19 0  0.5103803731549078 0.19 0  0.502912070917822 0.19 0  0.4954437686807294 0.19 0  0.4879754664436223 0.19 0  0.4805071642065402 0.19 0  0.4730388619694271 0.19 0  0.4655705597323621 0.19 0  0.4581022574952563 0.19 0  0.4506339552581777 0.19 0  0.4431656530210671 0.19 0  0.4356973507839815 0.19 0  0.4282290485468779 0.19 0  0.4207607463097617 0.19 0  0.4132924440726327 0.19 0  0.4058241418354857 0.19 0  0.3983558395983636 0.19 0  0.3908875373612097 0.19 0  0.3834192351240934 0.19 0  0.3759509328869369 0.19 0  0.3684826306498175 0.19 0  0.361014328412667 0.19 0  0.3535460261755617 0.19 0  0.3460777239384295 0.19 0  0.3386094217012945 0.19 0  0.3311411194641595 0.19 0  0.3236728172270245 0.19 0  0.3162045149898895 0.19 0  0.3087362127527544 0.19 0  0.3012679105156187 0.19 0  0.2937996082784807 0.19 0  0.2863313060413428 0.19 0  0.2788630038042048 0.19 0  0.2713947015670686 0.19 0  0.2639263993299336 0.19 0  0.2564580970927985 0.19 0  0.2607803159922026 0.2000727136295815 0  0.5887803774232762 0.2001272386983733 0  0.5745072403740523 0.2002044435018727 0  0.5511891430099709 0.2001122610077113 0  0.2751288526855082 0.20000000000002 0  0.5365194309847112 0.1999999999999436 0  0.2894621222999649 0.1998691686390484 0  0.5215828265105155 0.1999999999999228 0  0.3127789816668748 0.1998657885438805 0  0.3274069683451451 0.2000000000000796 0  0.5066462220363641 0.199999999999908 0  0.3650630746574081 0.199866017807523 0  0.476773013087985 0.1999999999998713 0  0.3417402379596385 0.1998691686391011 0  0.3796850840047755 0.200000000000134 0  0.4618364086138087 0.1999999999998546 0  0.4917096175621762 0.1999999999998808 0  0.3946216884789568 0.2000000000001512 0  0.446899804139621 0.1999999999998389 0  0.4089549580935208 0.1998691686391595 0  0.4322718174608562 0.200127451265745 0  0.4201487168029707 0.1999966199048527 0  0.3528922713220932 0.2000185703532356 0  0.5633122436674589 0.1999814296467508 0  0.3006558810093873 0.1999966199048318 0  0.5815926498168407 0.1966545283159175 0  0.2677053789419034 0.1964246479135325 0  0.5290511287476175 0.1970915826863981 0  0.5439877332217911 0.197091582686394 0  0.2825131256993216 0.2035478995978015 0  0.3199386661080599 0.202908417313604 0  0.4842413153250809 0.1970915826863873 0  0.5141145242734466 0.1970915826863843 0  0.3722167817676917 0.2029084173136195 0  0.4693047108508938 0.1970915826863783 0  0.3348752705822316 0.202908417313609 0  0.3871533862418661 0.2029084173136212 0  0.4543681063767183 0.1970915826863795 0  0.4991779197992749 0.1970915826863902 0  0.4020059614928624 0.203547899597858 0  0.4394315019025246 0.1970915826863714 0  0.2550657455369551 0.2034088125358657 0  0.2548908499171161 0.1966940311614271 0  0.5946539510196798 0.2024302972968126 0  0.267698176732111 0.2039977513680092 0  0.4261685417851465 0.196409292431739 0  0.3590076176283495 0.196411355804271 0  0.5571672426447437 0.2036011176410121 0  0.3066757059912147 0.1964092924317024 0  0.594380730180568 0.1966558399668133 0  0.4842413153245942 0.2040749161535287 0  0.4693047108503577 0.2040749161535231 0  0.3871533862424271 0.1959250838464788 0  0.372246743208829 0.1959123236376545 0  0.5141145242731028 0.2040749161535395 0  0.4543681063761134 0.2040749161535186 0  0.4019979587101454 0.1959834479682427 0  0.4394608940728603 0.2040870543693135 0  0.5439623148931173 0.2040856076781014 0  0.5290511287473298 0.2040749161535501 0  0.4991779197988497 0.2040749161535382 0  0.3347912413592433 0.1959225448935183 0  0.3199680582793816 0.1959123018030061 0  0.2825051229162361 0.1959834479681729 0  0.3590471196690275 0.2036304442587945 0  0.5571594006495384 0.1963685282145804 0  0.3067669986803285 0.203627750582736 0  0.4262598344738712 0.2036568242185335 0  0.5814408164431408 0.2041285596160068 0  0.5688286748170428 0.1961819304477386 0  0.4145905603063645 0.2038180695522843 0  0.3473758401724931 0.2038180695522752 0  0.2950977245128307 0.2038180695522663 0  0.5688286748170693 0.203818069552238 0  0.2950977245127906 0.1961819304477774 0  0.3473758401723931 0.1961819304478349 0  0.4145905603061963 0.1961819304479011 0  0.2601812407614425 0.2056861609747042
[...]
<PointData  Vectors="f_40-0"> 
<DataArray  type="Float64"  Name="f_40-0"  NumberOfComponents="3" format="ascii">0.0000000000000000e+00 0.0000000000000000e+00 0.0000000000000000e+00  0.0000000000000000e+00 0.0000000000000000e+00 0.0000000000000000e+00  0.0000000000000000e+00 0.0000000000000000e+00 0.0000000000000000e+00  0.0000000000000000e+00 0.0000000000000000e+00 0.0000000000000000e+00  -5.1378256355384960e-05 -1.5693015861890933e-03 0.0000000000000000e+00  8.1835033720178171e-05 -1.5720362241510022e-03 0.0000000000000000e+00  0.0000000000000000e+00 0.0000000000000000e+00 0.0000000000000000e+00  0.0000000000000000e+00 0.0000000000000000e+00 0.0000000000000000e+00  0.0000000000000000e+00 0.0000000000000000e+00 0.0000000000000000e+00  0.0000000000000000e+00 0.0000000000000000e+00 0.0000000000000000e+00  1.4704229418728500e-05 -1.5706425666839811e-03 0.0000000000000000e+00  2.9542276535142814e-01 0.0000000000000000e+00 0.0000000000000000e+00  5.4539587449498039e-01 0.0000000000000000e+00 0.0000000000000000e+00  7.4991932743059819e-01 0.0000000000000000e+00 0.0000000000000000e+00  9.0899312415851818e-01 0.0000000000000000e+00 0.0000000000000000e+00  1.0226172646787199e+00 0.0000000000000000e+00 0.0000000000000000e+00  1.0907917489911965e+00 0.0000000000000000e+00 0.0000000000000000e+00  1.1135165770958797e+00 0.0000000000000000e+00 0.0000000000000000e+00  1.0907917489925747e+00 0.0000000000000000e+00 0.0000000000000000e+00  1.0226172646810876e+00 0.0000000000000000e+00 0.0000000000000000e+00  9.0899312416145028e-01 0.0000000000000000e+00 0.0000000000000000e+00  7.4991932743338352e-01 0.0000000000000000e+00 0.0000000000000000e+00  5.4539587449735727e-01 0.0000000000000000e+00 0.0000000000000000e+00  2.9542276535276740e-01 0.0000000000000000e+00 0.0000000000000000e+00  0.0000000000000000e+00 0.0000000000000000e+00 0.0000000000000000e+00  0.0000000000000000e+00 0.0000000000000000e+00 0.0000000000000000e+00  0.0000000000000000e+00 0.0000000000000000e+00 0.0000000000000000e+00  0.0000000000000000e+00 0.0000000000000000e+00 0.0000000000000000e+00  0.0000000000000000e+00 0.0000000000000000e+00 0.0000000000000000e+00  0.0000000000000000e+00 0.0000000000000000e+00 0.0000000000000000e+00  0.0000000000000000e+00 0.0000000000000000e+00 0.0000000000000000e+00  0.0000000000000000e+00 0.0000000000000000e+00 0.0000000000000000e+00  0.0000000000000000e+00 0.0000000000000000e+00 0.0000000000000000e+00  0.0000000000000000e+00 0.0000000000000000e+00 0.0000000000000000e+00  0.0000000000000000e+00 0.0000000000000000e+00 0.0000000000000000e+00  0.0000000000000000e+00 0.0000000000000000e+00 0.0000000000000000e+00  0.0000000000000000e+00 0.0000000000000000e+00 0.0000000000000000e+00  0.0000000000000000e+00 0.0000000000000000e+00 0.0000000000000000e+00  0.0000000000000000e+00 0.0000000000000000e+00 0.0000000000000000e+00  0.0000000000000000e+00 0.0000000000000000e+00 0.0000000000000000e+00  0.0000000000000000e+00 0.0000000000000000e+00 0.0000000000000000e+00  0.0000000000000000e+00 0.0000000000000000e+00 0.0000000000000000e+00  0.0000000000000000e+00 0.0000000000000000e+00 0.0000000000000000e+00  0.0000000000000000e+00 0.0000000000000000e+00 0.0000000000000000e+00  0.0000000000000000e+00 0.0000000000000000e+00 0.0000000000000000e+00  0.0000000000000000e+00 0.0000000000000000e+00 0.0000000000000000e+00  0.0000000000000000e+00 0.0000000000000000e+00 0.0000000000000000e+00  0.0000000000000000e+00 0.0000000000000000e+00 0.0000000000000000e+00  0.0000000000000000e+00 0.0000000000000000e+00 0.0000000000000000e+00  0.0000000000000000e+00 0.0000000000000000e+00 0.0000000000000000e+00  0.0000000000000000e+00 0.0000000000000000e+00 0.0000000000000000e+00  0.0000000000000000e+00 0.0000000000000000e+00 0.0000000000000000e+00  0.0000000000000000e+00 0.0000000000000000e+00 0.0000000000000000e+00  0.0000000000000000e+00 0.0000000000000000e+00 0.0000000000000000e+00  0.0000000000000000e+00 0.0000000000000000e+00 0.0000000000000000e+00  0.0000000000000000e+00 0.0000000000000000e+00 0.0000000000000000e+00  0.0000000000000000e+00 0.0000000000000000e+00 0.0000000000000000e+00  0.0000000000000000e+00 0.0000000000000000e+00 0.0000000000000000e+00  0.0000000000000000e+00 0.0000000000000000e+00 0.0000000000000000e+00  0.0000000000000000e+00 0.0000000000000000e+00 0.0000000000000000e+00  0.0000000000000000e+00 0.0000000000000000e+00 0.0000000000000000e+00  0.0000000000000000e+00 0.0000000000000000e+00 0.0000000000000000e+00  1.0065586791056635e+00 -3.0751105761039576e-02 0.0000000000000000e+00  7.5186821470198584e-01 1.2154379869016211e-02 0.0000000000000000e+00  1.0085984665264429e+00 3.8400712665212562e-02 0.0000000000000000e+00  0.0000000000000000e+00 0.0000000000000000e+00 0.0000000000000000e+00  0.0000000000000000e+00 0.0000000000000000e+00 0.0000000000000000e+00  0.0000000000000000e+00 0.0000000000000000e+00 0.0000000000000000e+00  0.0000000000000000e+00 0.0000000000000000e+00 0.0000000000000000e+00  0.0000000000000000e+00 0.0000000000000000e+00 0.0000000000000000e+00  0.0000000000000000e+00 0.0000000000000000e+00 0.0000000000000000e+00  0.0000000000000000e+00 0.0000000000000000e+00 0.0000000000000000e+00  0.0000000000000000e+00 0.0000000000000000e+00 0.0000000000000000e+00  0.0000000000000000e+00 0.0000000000000000e+00 0.0000000000000000e+00  0.0000000000000000e+00 0.0000000000000000e+00 0.0000000000000000e+00  0.0000000000000000e+00 0.0000000000000000e+00 0.0000000000000000e+00  0.0000000000000000e+00 0.0000000000000000e+00 0.0000000000000000e+00  0.0000000000000000e+00 0.0000000000000000e+00 0.0000000000000000e+00  0.0000000000000000e+00 0.0000000000000000e+00 0.0000000000000000e+00  0.0000000000000000e+00 0.0000000000000000e+00 0.0000000000000000e+00  0.0000000000000000e+00 0.0000000000000000e+00 0.0000000000000000e+00  0.0000000000000000e+00 0.0000000000000000e+00 0.0000000000000000e+00  0.0000000000000000e+00 0.0000000000000000e+00 0.0000000000000000e+00  0.0000000000000000e+00 0.0000000000000000e+00 0.0000000000000000e+00  0.0000000000000000e+00 0.0000000000000000e+00 0.0000000000000000e+00  0.0000000000000000e+00 0.0000000000000000e+00 0.0000000000000000e+00  0.0000000000000000e+00 0.0000000000000000e+00 0.0000000000000000e+00  0.0000000000000000e+00 0.0000000000000000e+00 0.0000000000000000e+00  0.0000000000000000e+00 0.0000000000000000e+00 0.0000000000000000e+00  0.0000000000000000e+00 0.0000000000000000e+00 0.0000000000000000e+00  0.0000000000000000e+00 0.0000000000000000e+00 0.0000000000000000e+00  0.0000000000000000e+00 0.0000000000000000e+00 0.0000000000000000e+00  0.0000000000000000e+00 0.0000000000000000e+00 0.0000000000000000e+00  0.0000000000000000e+00 0.0000000000000000e+00 0.0000000000000000e+00  0.0000000000000000e+00 0.0000000000000000e+00 0.0000000000000000e+00  0.0000000000000000e+00 0.0000000000000000e+00 0.0000000000000000e+00  0.0000000000000000e+00 0.0000000000000000e+00 0.0000000000000000e+00  0.0000000000000000e+00 0.0000000000000000e+00 0.0000000000000000e+00  0.0000000000000000e+00 0.0000000000000000e+00 0.0000000000000000e+00  0.0000000000000000e+00 0.0000000000000000e+00 0.0000000000000000e+00  0.0000000000000000e+00 0.0000000000000000e+00 0.0000000000000000e+00  0.0000000000000000e+00 0.0000000000000000e+00 0.0000000000000000e+00  0.0000000000000000e+00 0.0000000000000000e+00 0.0000000000000000e+00  0.0000000000000000e+00 0.0000000000000000e+00 0.0000000000000000e+00  0.0000000000000000e+00 0.0000000000000000e+00 0.0000000000000000e+00  0.0000000000000000e+00 0.0000000000000000e+00 0.0000000000000000e+00  0.0000000000000000e+00 0.0000000000000000e+00 0.0000000000000000e+00  0.0000000000000000e+00 0.0000000000000000e+00 0.0000000000000000e+00  0.0000000000000000e+00 0.0000000000000000e+00 0.0000000000000000e+00  0.0000000000000000e+00 0.0000000000000000e+00 0.0000000000000000e+00  0.0000000000000000e+00 0.0000000000000000e+00 0.0000000000000000e+00  0.0000000000000000e+00 0.0000000000000000e+00 0.0000000000000000e+00  0.0000000000000000e+00 0.0000000000000000e+00 0.0000000000000000e+00  0.0000000000000000e+00 0.0000000000000000e+00 0.0000000000000000e+00  0.0000000000000000e+00 0.0000000000000000e+00 0.0000000000000000e+00  0.0000000000000000e+00 0.0000000000000000e+00 0.0000000000000000e+00  0.0000000000000000e+00 0.0000000000000000e+00 0.0000000000000000e+00  0.0000000000000000e+00 0.0000000000000000e+00 0.0000000000000000e+00  0.0000000000000000e+00 0.0000000000000000e+00 0.0000000000000000e+00  0.0000000000000000e+00 0.0000000000000000e+00 0.0000000000000000e+00  0.0000000000000000e+00 0.0000000000000000e+00 0.0000000000000000e+00  0.0000000000000000e+00 0.0000000000000000e+00 0.0000000000000000e+00  0.0000000000000000e+00 0.0000000000000000e+00 0.0000000000000000e+00  0.0000000000000000e+00 0.0000000000000000e+00 0.0000000000000000e+00  0.0000000000000000e+00 0.0000000000000000e+00 0.0000000000000000e+00  0.0000000000000000e+00 0.0000000000000000e+00 0.0000000000000000e+00  0.0000000000000000e+00 0.0000000000000000e+00 0.0000000000000000e+00  0.0000000000000000e+00 0.0000000000000000e+00 0.0000000000000000e+00  0.0000000000000000e+00 0.0000000000000000e+00 0.0000000000000000e+00  0.0000000000000000e+00 0.0000000000000000e+00 0.0000000000000000e+00  0.0000000000000000e+00 0.0000000000000000e+00 0.0000000000000000e+00  0.0000000000000000e+00 0.0000000000000000e+00 0.0000000000000000e+00  0.0000000000000000e+00 0.0000000000000000e+00 0.0000000000000000e+00  0.0000000000000000e+00 0.0000000000000000e+00 0.0000000000000000e+00  0.0000000000000000e+00 0.0000000000000000e+00 0.0000000000000000e+00  0.0000000000000000e+00 0.0000000000000000e+00 0.0000000000000000e+00  0.0000000000000000e+00 0.0000000000000000e+00 0.0000000000000000e+00  0.0000000000000000e+00 0.0000000000000000e+00 0.0000000000000000e+00  0.0000000000000000e+00 0.0000000000000000e+00 0.0000000000000000e+00  0.0000000000000000e+00 0.0000000000000000e+00 0.0000000000000000e+00  0.0000000000000000e+00 0.0000000000000000e+00 0.0000000000000000e+00  0.0000000000000000e+00 0.0000000000000000e+00 0.0000000000000000e+00  0.0000000000000000e+00 0.0000000000000000e+00 0.0000000000000000e+00  1.2672967128891926e-08 -7.6028170639153783e-08 0.0000000000000000e+00  4.8941861096175582e-07 -7.5293652212871613e-07 0.0000000000000000e+00  1.1211689607023957e-06 -2.6995223207294582e-06 0.0000000000000000e+00  2.2635356603726371e-06 -5.9957862920914534e-06 0.0000000000000000e+00  3.3834207518602476e-06 -1.0915036749473503e-05 0.0000000000000000e+00  5.2146865876664472e-06 -1.7612940114690370e-05 0.0000000000000000e+00  6.7895065263025002e-06 -2.5913219252541565e-05 0.0000000000000000e+00  8.6589680682075182e-06 -3.6473664225297582e-05 0.0000000000000000e+00  1.1247893894819355e-05 -4.8900598302591074e-05 0.0000000000000000e+00  1.3423724438815924e-05 -6.3536454016205527e-05 0.0000000000000000e+00  1.6545991146480710e-05 -8.0290614795387280e-05 0.0000000000000000e+00  1.9096771180366034e-05 -9.9374131886141305e-05 0.0000000000000000e+00  2.2501808125331071e-05 -1.2062908653391537e-04 0.0000000000000000e+00  2.5402018926630538e-05 -1.4377843143192963e-04 0.0000000000000000e+00  2.8489494895345151e-05 -1.6936766312316987e-04 0.0000000000000000e+00  3.2141161954803480e-05 -1.9679802659668247e-04 0.0000000000000000e+00  3.5203051808725734e-05 -2.2627506311297780e-04 0.0000000000000000e+00  3.8937539091851133e-05 -2.5762654983109190e-04 0.0000000000000000e+00  4.1996409748873187e-05 -2.9083481674834589e-04 0.0000000000000000e+00  4.5575172503076449e-05 -3.2565573945898368e-04 0.0000000000000000e+00  4.8646256344873071e-05 -3.6215338854060018e-04 0.0000000000000000e+00  5.1998783100779751e-05 -4.0018100081281124e-04 0.0000000000000000e+00  5.4863498617423032e-05 -4.3934213590436367e-04 0.0000000000000000e+00  5.7654911305398237e-05 -4.7996362583465339e-04 0.0000000000000000e+00  6.0587794378529408e-05 -5.2154549129761402e-04 0.0000000000000000e+00  6.3147855954358238e-05 -5.6424652099896057e-04 0.0000000000000000e+00  6.5646429525474041e-05 -6.0791619247479631e-04 0.0000000000000000e+00  6.7895380905305710e-05 -6.5235034884717424e-04 0.0000000000000000e+00  7.0053845797844172e-05 -6.9761894086363787e-04 0.0000000000000000e+00  7.1973282589999100e-05 -7.4347261569339613e-04 0.0000000000000000e+00  7.3784217780081753e-05 -7.9000678892245416e-04 0.0000000000000000e+00  7.5371035610740763e-05 -8.3697699615775895e-04 0.0000000000000000e+00  7.6839310688683006e-05 -8.8449218793096025e-04 0.0000000000000000e+00  7.8100027141648346e-05 -9.3231429625695251e-04 0.0000000000000000e+00  7.9231166150314767e-05 -9.8057361719533433e-04 0.0000000000000000e+00  8.0176571698322078e-05 -1.0290369485541479e-03 0.0000000000000000e+00  8.0992953503951712e-05 -1.0778326897241399e-03 0.0000000000000000e+00  8.1640593014276977e-05 -1.1267484268305038e-03 0.0000000000000000e+00  8.2157629012538378e-05 -1.1759150710139608e-03 0.0000000000000000e+00  8.2519950411108511e-05 -1.2251374836540936e-03 0.0000000000000000e+00  8.2745930805843299e-05 -1.2745269699075583e-03 0.0000000000000000e+00  8.2848675589040837e-05 -1.3239519274100026e-03 0.0000000000000000e+00  8.2813626223241592e-05 -1.3734590984541899e-03 0.0000000000000000e+00  8.2707230059041119e-05 -1.4229991893906075e-03 0.0000000000000000e+00  8.2452812884570585e-05 -1.4725297790914038e-03 0.0000000000000000e+00  8.2122352777579187e-05 -1.5221443803061284e-03 0.0000000000000000e+00  4.8078218222088223e-05 -1.5713362563423868e-03 0.0000000000000000e+00  -1.8497739633306617e-05 -1.5699622653080835e-03 0.0000000000000000e+00  -5.1034214071964839e-05 -1.5196743322484962e-03 0.0000000000000000e+00  -5.0626018616549579e-05 -1.4698541318574000e-03 0.0000000000000000e+00  -5.0282423078949313e-05 -1.4200049258794175e-03 0.0000000000000000e+00  -5.0028781459605538e-05 -1.3702316149822834e-03 0.0000000000000000e+00  -4.9839568885817145e-05 -1.3204946788293091e-03 0.0000000000000000e+00  -4.9744466457698595e-05 -1.2708317116095532e-03 0.0000000000000000e+00  -4.9673732330733087e-05 -1.2212576693227887e-03 0.0000000000000000e+00  -4.9717153666033245e-05 -1.1717584649090717e-03 0.0000000000000000e+00  -4.9764488822383985e-05 -1.1224489872137409e-03 0.0000000000000000e+00  -4.9925541546982192e-05 -1.0732569210578796e-03 0.0000000000000000e+00  -5.0051579193868965e-05 -1.0243228822109881e-03 0.0000000000000000e+00  -5.0304993953601972e-05 -9.7559360688533004e-04 0.0000000000000000e+00  -5.0478346335160312e-05 -9.2721332791868686e-04 0.0000000000000000e+00  -5.0791313977252037e-05 -8.7914444615522268e-04 0.0000000000000000e+00  -5.0967222569416173e-05 -8.3152292596548063e-04 0.0000000000000000e+00  -5.1303550927438489e-05 -7.8434120777497401e-04 0.0000000000000000e+00  -5.1437099477086083e-05 -7.3772670192923410e-04 0.0000000000000000e+00  -5.1750064625478143e-05 -6.9170551166454551e-04 0.0000000000000000e+00  -5.1778374909811337e-05 -6.4639472970440899e-04 0.0000000000000000e+00  -5.2005907005180428e-05 -6.0185559776028278e-04 0.0000000000000000e+00  -5.1846790768073761e-05 -5.5819017198582334e-04 0.0000000000000000e+00  -5.1910563560099319e-05 -5.1550844070168437e-04 0.0000000000000000e+00  -5.1510474493903417e-05 -4.7391113729489625e-04 0.0000000000000000e+00  -5.1274373170380451e-05 -4.3339666470508970e-04 0.0000000000000000e+00  -5.0892142717412209e-05 -3.9437590289062834e-04 0.0000000000000000e+00  -5.0036276537925121e-05 -3.5647551626403676e-04 0.0000000000000000e+00  -4.9219066178836294e-05 -3.2029548237591754e-04 0.0000000000000000e+00  -4.8005315411345810e-05 -2.8560636468021635e-04 0.0000000000000000e+00  -4.6752867280506332e-05 -2.5280273367421491e-04 0.0000000000000000e+00  -4.5093266329255941e-05 -2.2171494019876108e-04 0.0000000000000000e+00  -4.3380783243317177e-05 -1.9262174672085136e-04 0.0000000000000000e+00  -4.1035986779447788e-05 -1.6568805079242166e-04 0.0000000000000000e+00  -3.9000827283999693e-05 -1.4053409255307547e-04 0.0000000000000000e+00  -3.6750609492792064e-05 -1.1784625140320648e-04 0.0000000000000000e+00  -3.3863694560143995e-05 -9.6904180745517558e-05 0.0000000000000000e+00  -3.1108608517843802e-05 -7.8418318103153133e-05 0.0000000000000000e+00  -2.7993911136273811e-05 -6.1988412634149821e-05 0.0000000000000000e+00  -2.4996391833111831e-05 -4.7733370634847898e-05 0.0000000000000000e+00  -2.1549013580086447e-05 -3.5761799627399890e-05 0.0000000000000000e+00  -1.8575333266646231e-05 -2.5482950485251978e-05 0.0000000000000000e+00  -1.5631532391806049e-05 -1.7444716492955408e-05 0.0000000000000000e+00  -1.2330782032604932e-05 -1.0886225404563906e-05 0.0000000000000000e+00  -9.4785389437390001e-06 -6.1418535570054401e-06 0.0000000000000000e+00  -6.5474832758818951e-06 -2.9925646867442095e-06 0.0000000000000000e+00  -4.1090846243182467e-06 -1.0881545917467126e-06 0.0000000000000000e+00  -1.7777481594378060e-06 -3.7956569268488193e-07 0.0000000000000000e+00  -1.3333145127892820e-06 1.9851782001162266e-07 0.0000000000000000e+00  1.6352547644112864e-05 -1.4959306591358175e-03 0.0000000000000000e+00  1.7549631636135479e-05 -1.4009600004780112e-03 0.0000000000000000e+00  1.7103688373488113e-05 -1.2461073856534508e-03 0.0000000000000000e+00  -3.1227478646077417e-06 -3.3520944992969902e-06 0.0000000000000000e+00  1.5960972902470012e-05 -1.1490900870871504e-03 0.0000000000000000e+00  -4.8323881644807475e-06 -1.2296419095932004e-05 0.0000000000000000e+00  1.5180013543930490e-05 -1.0509255838860110e-03 0.0000000000000000e+00  -6.8614162577022683e-06 -4.1104698234890382e-05 0.0000000000000000e+00  -7.1873269177715817e-06 -6.9419636661166313e-05 0.0000000000000000e+00  1.4018910652183836e-05 -9.5366514300390713e-04 0.0000000000000000e+00  -6.4076379395323737e-06 -1.8065154431073756e-04 0.0000000000000000e+00  1.0643289595535404e-05 -7.6343490504969351e-04 0.0000000000000000e+00  -7.5526561689255452e-06 -1.0525258795258674e-04 0.0000000000000000e+00  -4.3869583100561306e-06 -2.3817418877978330e-04 0.0000000000000000e+00  8.5036267166227032e-06 -6.7144401676531395e-04 0.0000000000000000e+00  1.2497146172239584e-05 -8.5768574481796507e-04 0.0000000000000000e+00  -2.3986333912557700e-06 -3.0430368883397881e-04 0.0000000000000000e+00  6.1388517415844451e-06 -5.8234315724683993e-04 0.0000000000000000e+00  -8.5273544363173701e-07 -3.7402174875002069e-04 0.0000000000000000e+00  4.4088628129355738e-06 -4.9861145406474591e-04 0.0000000000000000e+00  1.6380807623044181e-06 -4.3248689963786046e-04 0.0000000000000000e+00  -6.6633469041443362e-06 -1.3906534423138012e-04 0.0000000000000000e+00  1.6228845880033936e-05 -1.3265264108980725e-03 0.0000000000000000e+00  -5.7466146832283365e-06 -2.4050492045444948e-05 0.0000000000000000e+00  -6.3411820996777720e-06 -1.4476161630265524e-03 0.0000000000000000e+00  -3.3703327788027982e-06 -1.1249016244956000e-06 0.0000000000000000e+00  -3.4479795190732122e-06 -1.0992894836848531e-03 0.0000000000000000e+00  -2.9856125500387156e-06 -1.1978409547015760e-03 0.0000000000000000e+00  -1.5463218788434206e-06 -7.3634824613004660e-06 0.0000000000000000e+00  -1.2787923585852409e-06 -5.4307144105711034e-05 0.0000000000000000e+00  -6.6608208641210928e-06 -8.0955266917107115e-04 0.0000000000000000e+00  -4.2332805066732294e-06 -1.0014823234474281e-03 0.0000000000000000e+00  6.1304387968006786e-06 -2.0866630563763115e-04 0.0000000000000000e+00  -8.2108242352843195e-06 -7.1633332968319609e-04 0.0000000000000000e+00  1.3814651483797886e-08 -8.7587721630532552e-05 0.0000000000000000e+00  9.3163404130952362e-06 -2.7124042877707506e-04 0.0000000000000000e+00  -9.8959979225718824e-06 -6.2569040612147600e-04 0.0000000000000000e+00  -5.3177407792637836e-06 -9.0476533082249318e-04 0.0000000000000000e+00  1.5816135325971240e-05 -3.4067041733751432e-04 0.0000000000000000e+00  -1.1637535792451819e-05 -5.3830389605933758e-04 0.0000000000000000e+00  -4.3751433301839284e-07 3.5225530033918778e-07 0.0000000000000000e+00  -7.7068754971403081e-07 2.6317376701642667e-07 0.0000000000000000e+00  3.1284203168717643e-05 -1.5353296749731136e-03 0.0000000000000000e+00  -9.44