<?xml version="1.0"?>
<VTKFile type="UnstructuredGrid"  version="0.1"  >
<UnstructuredGrid>
<Piece  NumberOfPoints="1419" NumberOfCells="2698">
<Points>
<DataArray  type="Float64"  NumberOfComponents="3"  format="ascii">0 0 0  0 0.41 0  2.5 0 0  2.5 0.41 0  0.6 0.19 0  0.6 0.21 0  0.25 0.2 0  0.15 0.2 0  0.2489897948556636 0.21 0  0.2489897948556636 0.19 0  0.6 0.2 0  0 0.3807142857143437 0  0 0.3514285714286952 0  0 0.3221428571430699 0  0 0.29285714285744 0  0 0.2635714285718054 0  0 0.2342857142861561 0  0 0.2050000000005308 0  0 0.175714285714732 0  0 0.1464285714289574 0  0 0.1171428571431897 0  0 0.08785714285737878 0  0 0.05857142857161107 0  0 0.02928571428580012 0  0.03015443760436003 0 0  0.06140001986583606 0 0  0.09377624077125973 0 0  0.1273239957535082 0 0  0.1620856860351972 0 0  0.1981052433264291 0 0  0.235428184091502 0 0  0.2741016576309132 0 0  0.3141745521465447 0 0  0.3556974926295285 0 0  0.3987229542472677 0 0  0.4433053055141081 0 0  0.4895008759286886 0 0  0.5373680609405097 0 0  0.5869673343216626 0 0  0.6383613676634521 0 0  0.6916151138468254 0 0  0.7467958595648856 0 0  0.8039733463919316 0 0  0.8632198139502143 0 0  0.9246101326867038 0 0  0.9882218810934433 0 0  1.054135445558498 0 0  1.122434100542598 0 0  1.193204177141305 0 0  1.266535089879536 0 0  1.342519516046404 0 0  1.421253448503939 0 0  1.502836389106271 0 0  1.587371439758838 0 0  1.674965418777374 0 0  1.765729001825544 0 0  1.859776908880082 0 0  1.957227977487062 0 0  2.058205329869943 0 0  2.162836591189951 0 0  2.271253957290865 0 0  2.383594446803425 0 0  2.5 0.1024999999997612 0  2.5 0.2049999999994743 0  2.5 0.3074999999997183 0  2.383594446803656 0.41 0  2.271253957291315 0.41 0  2.162836591190598 0.41 0  2.058205329870775 0.41 0  1.957227977488067 0.41 0  1.859776908881246 0.41 0  1.765729001826854 0.41 0  1.674965418778818 0.41 0  1.58737143976041 0.41 0  1.502836389107956 0.41 0  1.421253448505726 0.41 0  1.342519516048286 0.41 0  1.266535089881505 0.41 0  1.193204177143353 0.41 0  1.122434100544716 0.41 0  1.05413544556068 0.41 0  0.9882218810956305 0.41 0  0.9246101326886647 0.41 0  0.8632198139519631 0.41 0  0.8039733463934788 0.41 0  0.7467958595662458 0.41 0  0.6916151138480078 0.41 0  0.6383613676644679 0.41 0  0.5869673343225223 0.41 0  0.5373680609412221 0.41 0  0.4895008759292634 0.41 0  0.4433053055145528 0.41 0  0.3987229542475914 0.41 0  0.3556974926297398 0.41 0  0.3141745521466497 0.41 0  0.2741016576310038 0.41 0  0.2354281840915826 0.41 0  0.1981052433265003 0.41 0  0.1620856860352591 0.41 0  0.1273239957535623 0.41 0  0.09377624077128965 0.41 0  0.06140001986584975 0.41 0  0.03015443760436654 0.41 0  0.2497468076502589 0.2050254481002335 0  0.2497468076502614 0.1949745518997913 0  0.2469965252529372 0.1829317073451959 0  0.2439893735792749 0.1762316384219906 0  0.2400332147834255 0.1700443375285386 0  0.2352133972704371 0.1645032867342007 0  0.2296339016332438 0.1597280261969788 0  0.2234150974217223 0.1558215752574715 0  0.2166911463437691 0.1528682099456123 0  0.2096071079204251 0.1509316448471593 0  0.2023158100364996 0.1500536585536553 0  0.194974551899914 0.1502531923497262 0  0.1877417105387872 0.1515259415822739 0  0.1807733240461124 0.153844448527136 0  0.1742197252835808 0.15715869474974 0  0.1682222986673531 0.1613971801805478 0  0.162910430003803 0.1664684656256651 0  0.1583987151779087 0.1722631454351573 0  0.1547844879126891 0.178656207771761 0  0.1521457199348551 0.1855097315605723 0  0.1505393388476355 0.1926758619366523 0  0.1505393388476328 0.2073241380633295 0  0.1521457199348437 0.2144902684393899 0  0.1547844879126531 0.221343792228163 0  0.1583987151778488 0.2277368545647528 0  0.1629104300036858 0.2335315343742052 0  0.1682222986671726 0.2386028198193036 0  0.1742197252833576 0.2428413052501257 0  0.1807733240458683 0.2461555514727623 0  0.1877417105384929 0.2484740584176516 0  0.1949745518995776 0.2497468076502398 0  0.202315810036185 0.2499463414463592 0  0.2096071079201568 0.2490683551528932 0  0.2166911463435495 0.2471317900544655 0  0.2234150974215506 0.2441784247426195 0  0.2296339016331197 0.2402719738031125 0  0.2352133972703547 0.2354967132658811 0  0.2400332147833751 0.2299556624715287 0  0.2439893735792577 0.2237683615780412 0  0.246996525252926 0.2170682926548348 0  0.25645809709277 0.21 0  0.2639263993298655 0.21 0  0.271394701566961 0.21 0  0.2788630038040554 0.21 0  0.2863313060411479 0.21 0  0.2937996082782405 0.21 0  0.301267910515333 0.21 0  0.3087362127524279 0.21 0  0.3162045149895234 0.21 0  0.3236728172265972 0.21 0  0.3311411194636928 0.21 0  0.3386094217007701 0.21 0  0.3460777239378666 0.21 0  0.3535460261749672 0.21 0  0.3610143284120516 0.21 0  0.3684826306491596 0.21 0  0.3759509328862226 0.21 0  0.383419235123329 0.21 0  0.3908875373604028 0.21 0  0.3983558395975142 0.21 0  0.4058241418345938 0.21 0  0.4132924440716992 0.21 0  0.4207607463087888 0.21 0  0.4282290485459029 0.21 0  0.4356973507830418 0.21 0  0.4431656530201649 0.21 0  0.4506339552573136 0.21 0  0.4581022574944306 0.21 0  0.4655705597315852 0.21 0  0.4730388619686996 0.21 0  0.480507164205851 0.21 0  0.4879754664429498 0.21 0  0.4954437686800938 0.21 0  0.502912070917267 0.21 0  0.5103803731544119 0.21 0  0.5178486753915261 0.21 0  0.5253169776286404 0.21 0  0.5327852798657868 0.21 0  0.5402535821029386 0.21 0  0.54772188434007 0.21 0  0.5551901865771842 0.21 0  0.5626584888143201 0.21 0  0.5701267910514778 0.21 0  0.5775950932886138 0.21 0  0.5850633955257281 0.21 0  0.5925316977628483 0.21 0  0.6 0.2050000000000054 0  0.6 0.1950000000000217 0  0.5925316977628897 0.19 0  0.5850633955257988 0.19 0  0.5775950932887378 0.19 0  0.5701267910515998 0.19 0  0.5626584888145268 0.19 0  0.5551901865773963 0.19 0  0.547721884340339 0.19 0  0.5402535821032429 0.19 0  0.5327852798661811 0.19 0  0.5253169776290537 0.19 0  0.5178486753919799 0.19 0  0.5103803731549078 0.19 0  0.502912070917822 0.19 0  0.4954437686807294 0.19 0  0.4879754664436223 0.19 0  0.4805071642065402 0.19 0  0.4730388619694271 0.19 0  0.4655705597323621 0.19 0  0.4581022574952563 0.19 0  0.4506339552581777 0.19 0  0.4431656530210671 0.19 0  0.4356973507839815 0.19 0  0.4282290485468779 0.19 0  0.4207607463097617 0.19 0  0.4132924440726327 0.19 0  0.4058241418354857 0.19 0  0.3983558395983636 0.19 0  0.3908875373612097 0.19 0  0.3834192351240934 0.19 0  0.3759509328869369 0.19 0  0.3684826306498175 0.19 0  0.361014328412667 0.19 0  0.3535460261755617 0.19 0  0.3460777239384295 0.19 0  0.3386094217012945 0.19 0  0.3311411194641595 0.19 0  0.3236728172270245 0.19 0  0.3162045149898895 0.19 0  0.3087362127527544 0.19 0  0.3012679105156187 0.19 0  0.2937996082784807 0.19 0  0.2863313060413428 0.19 0  0.2788630038042048 0.19 0  0.2713947015670686 0.19 0  0.2639263993299336 0.19 0  0.2564580970927985 0.19 0  0.2607803159922026 0.2000727136295815 0  0.5887803774232762 0.2001272386983733 0  0.5745072403740523 0.2002044435018727 0  0.5511891430099709 0.2001122610077113 0  0.2751288526855082 0.20000000000002 0  0.5365194309847112 0.1999999999999436 0  0.2894621222999649 0.1998691686390484 0  0.5215828265105155 0.1999999999999228 0  0.3127789816668748 0.1998657885438805 0  0.3274069683451451 0.2000000000000796 0  0.5066462220363641 0.199999999999908 0  0.3650630746574081 0.199866017807523 0  0.476773013087985 0.1999999999998713 0  0.3417402379596385 0.1998691686391011 0  0.3796850840047755 0.200000000000134 0  0.4618364086138087 0.1999999999998546 0  0.4917096175621762 0.1999999999998808 0  0.3946216884789568 0.2000000000001512 0  0.446899804139621 0.1999999999998389 0  0.4089549580935208 0.1998691686391595 0  0.4322718174608562 0.200127451265745 0  0.4201487168029707 0.1999966199048527 0  0.3528922713220932 0.2000185703532356 0  0.5633122436674589 0.1999814296467508 0  0.3006558810093873 0.1999966199048318 0  0.5815926498168407 0.1966545283159175 0  0.2677053789419034 0.1964246479135325 0  0.5290511287476175 0.1970915826863981 0  0.5439877332217911 0.197091582686394 0  0.2825131256993216 0.2035478995978015 0  0.3199386661080599 0.202908417313604 0  0.4842413153250809 0.1970915826863873 0  0.5141145242734466 0.1970915826863843 0  0.3722167817676917 0.2029084173136195 0  0.4693047108508938 0.1970915826863783 0  0.3348752705822316 0.202908417313609 0  0.3871533862418661 0.2029084173136212 0  0.4543681063767183 0.1970915826863795 0  0.4991779197992749 0.1970915826863902 0  0.4020059614928624 0.203547899597858 0  0.4394315019025246 0.1970915826863714 0  0.2550657455369551 0.2034088125358657 0  0.2548908499171161 0.1966940311614271 0  0.5946539510196798 0.2024302972968126 0  0.267698176732111 0.2039977513680092 0  0.4261685417851465 0.196409292431739 0  0.3590076176283495 0.196411355804271 0  0.5571672426447437 0.2036011176410121 0  0.3066757059912147 0.1964092924317024 0  0.594380730180568 0.1966558399668133 0  0.4842413153245942 0.2040749161535287 0  0.4693047108503577 0.2040749161535231 0  0.3871533862424271 0.1959250838464788 0  0.372246743208829 0.1959123236376545 0  0.5141145242731028 0.2040749161535395 0  0.4543681063761134 0.2040749161535186 0  0.4019979587101454 0.1959834479682427 0  0.4394608940728603 0.2040870543693135 0  0.5439623148931173 0.2040856076781014 0  0.5290511287473298 0.2040749161535501 0  0.4991779197988497 0.2040749161535382 0  0.3347912413592433 0.1959225448935183 0  0.3199680582793816 0.1959123018030061 0  0.2825051229162361 0.1959834479681729 0  0.3590471196690275 0.2036304442587945 0  0.5571594006495384 0.1963685282145804 0  0.3067669986803285 0.203627750582736 0  0.4262598344738712 0.2036568242185335 0  0.5814408164431408 0.2041285596160068 0  0.5688286748170428 0.1961819304477386 0  0.4145905603063645 0.2038180695522843 0  0.3473758401724931 0.2038180695522752 0  0.2950977245128307 0.2038180695522663 0  0.5688286748170693 0.203818069552238 0  0.2950977245127906 0.1961819304477774 0  0.3473758401723931 0.1961819304478349 0  0.4145905603061963 0.1961819304479011 0  0.2601812407614425 0.2056861609747042
[...]
<PointData  Vectors="f_40-0"> 
<DataArray  type="Float64"  Name="f_40-0"  NumberOfComponents="3" format="ascii">0.0000000000000000e+00 0.0000000000000000e+00 0.0000000000000000e+00  0.0000000000000000e+00 0.0000000000000000e+00 0.0000000000000000e+00  0.0000000000000000e+00 0.0000000000000000e+00 0.0000000000000000e+00  0.0000000000000000e+00 0.0000000000000000e+00 0.0000000000000000e+00  -5.7121780154091547e-06 -7.8713188338329137e-04 0.0000000000000000e+00  5.4776470466157316e-05 -7.9182814962054865e-04 0.0000000000000000e+00  0.0000000000000000e+00 0.0000000000000000e+00 0.0000000000000000e+00  0.0000000000000000e+00 0.0000000000000000e+00 0.0000000000000000e+00  0.0000000000000000e+00 0.0000000000000000e+00 0.0000000000000000e+00  0.0000000000000000e+00 0.0000000000000000e+00 0.0000000000000000e+00  2.4013154936480700e-05 -7.8946995393761553e-04 0.0000000000000000e+00  1.2741133221096734e-01 0.0000000000000000e+00 0.0000000000000000e+00  2.3522092100487835e-01 0.0000000000000000e+00 0.0000000000000000e+00  3.2342876638170781e-01 0.0000000000000000e+00 0.0000000000000000e+00  3.9203486834155771e-01 0.0000000000000000e+00 0.0000000000000000e+00  4.4103922688441938e-01 0.0000000000000000e+00 0.0000000000000000e+00  4.7044184201028971e-01 0.0000000000000000e+00 0.0000000000000000e+00  4.8024271371913929e-01 0.0000000000000000e+00 0.0000000000000000e+00  4.7044184201088418e-01 0.0000000000000000e+00 0.0000000000000000e+00  4.4103922688544045e-01 0.0000000000000000e+00 0.0000000000000000e+00  3.9203486834282236e-01 0.0000000000000000e+00 0.0000000000000000e+00  3.2342876638290907e-01 0.0000000000000000e+00 0.0000000000000000e+00  2.3522092100590350e-01 0.0000000000000000e+00 0.0000000000000000e+00  1.2741133221154494e-01 0.0000000000000000e+00 0.0000000000000000e+00  0.0000000000000000e+00 0.0000000000000000e+00 0.0000000000000000e+00  0.0000000000000000e+00 0.0000000000000000e+00 0.0000000000000000e+00  0.0000000000000000e+00 0.0000000000000000e+00 0.0000000000000000e+00  0.0000000000000000e+00 0.0000000000000000e+00 0.0000000000000000e+00  0.0000000000000000e+00 0.0000000000000000e+00 0.0000000000000000e+00  0.0000000000000000e+00 0.0000000000000000e+00 0.0000000000000000e+00  0.0000000000000000e+00 0.0000000000000000e+00 0.0000000000000000e+00  0.0000000000000000e+00 0.0000000000000000e+00 0.0000000000000000e+00  0.0000000000000000e+00 0.0000000000000000e+00 0.0000000000000000e+00  0.0000000000000000e+00 0.0000000000000000e+00 0.0000000000000000e+00  0.0000000000000000e+00 0.0000000000000000e+00 0.0000000000000000e+00  0.0000000000000000e+00 0.0000000000000000e+00 0.0000000000000000e+00  0.0000000000000000e+00 0.0000000000000000e+00 0.0000000000000000e+00  0.0000000000000000e+00 0.0000000000000000e+00 0.0000000000000000e+00  0.0000000000000000e+00 0.0000000000000000e+00 0.0000000000000000e+00  0.0000000000000000e+00 0.0000000000000000e+00 0.0000000000000000e+00  0.0000000000000000e+00 0.0000000000000000e+00 0.0000000000000000e+00  0.0000000000000000e+00 0.0000000000000000e+00 0.0000000000000000e+00  0.0000000000000000e+00 0.0000000000000000e+00 0.0000000000000000e+00  0.0000000000000000e+00 0.0000000000000000e+00 0.0000000000000000e+00  0.0000000000000000e+00 0.0000000000000000e+00 0.0000000000000000e+00  0.0000000000000000e+00 0.0000000000000000e+00 0.0000000000000000e+00  0.0000000000000000e+00 0.0000000000000000e+00 0.0000000000000000e+00  0.0000000000000000e+00 0.0000000000000000e+00 0.0000000000000000e+00  0.0000000000000000e+00 0.0000000000000000e+00 0.0000000000000000e+00  0.0000000000000000e+00 0.0000000000000000e+00 0.0000000000000000e+00  0.0000000000000000e+00 0.0000000000000000e+00 0.0000000000000000e+00  0.0000000000000000e+00 0.0000000000000000e+00 0.0000000000000000e+00  0.0000000000000000e+00 0.0000000000000000e+00 0.0000000000000000e+00  0.0000000000000000e+00 0.0000000000000000e+00 0.0000000000000000e+00  0.0000000000000000e+00 0.0000000000000000e+00 0.0000000000000000e+00  0.0000000000000000e+00 0.0000000000000000e+00 0.0000000000000000e+00  0.0000000000000000e+00 0.0000000000000000e+00 0.0000000000000000e+00  0.0000000000000000e+00 0.0000000000000000e+00 0.0000000000000000e+00  0.0000000000000000e+00 0.0000000000000000e+00 0.0000000000000000e+00  0.0000000000000000e+00 0.0000000000000000e+00 0.0000000000000000e+00  0.0000000000000000e+00 0.0000000000000000e+00 0.0000000000000000e+00  0.0000000000000000e+00 0.0000000000000000e+00 0.0000000000000000e+00  4.1907977384520911e-01 -1.3995797554823013e-03 0.0000000000000000e+00  3.1206285607784723e-01 3.3318735248679516e-04 0.0000000000000000e+00  4.1864107514181159e-01 9.8593788113599998e-04 0.0000000000000000e+00  0.0000000000000000e+00 0.0000000000000000e+00 0.0000000000000000e+00  0.0000000000000000e+00 0.0000000000000000e+00 0.0000000000000000e+00  0.0000000000000000e+00 0.0000000000000000e+00 0.0000000000000000e+00  0.0000000000000000e+00 0.0000000000000000e+00 0.0000000000000000e+00  0.0000000000000000e+00 0.0000000000000000e+00 0.0000000000000000e+00  0.0000000000000000e+00 0.0000000000000000e+00 0.0000000000000000e+00  0.0000000000000000e+00 0.0000000000000000e+00 0.0000000000000000e+00  0.0000000000000000e+00 0.0000000000000000e+00 0.0000000000000000e+00  0.0000000000000000e+00 0.0000000000000000e+00 0.0000000000000000e+00  0.0000000000000000e+00 0.0000000000000000e+00 0.0000000000000000e+00  0.0000000000000000e+00 0.0000000000000000e+00 0.0000000000000000e+00  0.0000000000000000e+00 0.0000000000000000e+00 0.0000000000000000e+00  0.0000000000000000e+00 0.0000000000000000e+00 0.0000000000000000e+00  0.0000000000000000e+00 0.0000000000000000e+00 0.0000000000000000e+00  0.0000000000000000e+00 0.0000000000000000e+00 0.0000000000000000e+00  0.0000000000000000e+00 0.0000000000000000e+00 0.0000000000000000e+00  0.0000000000000000e+00 0.0000000000000000e+00 0.0000000000000000e+00  0.0000000000000000e+00 0.0000000000000000e+00 0.0000000000000000e+00  0.0000000000000000e+00 0.0000000000000000e+00 0.0000000000000000e+00  0.0000000000000000e+00 0.0000000000000000e+00 0.0000000000000000e+00  0.0000000000000000e+00 0.0000000000000000e+00 0.0000000000000000e+00  0.0000000000000000e+00 0.0000000000000000e+00 0.0000000000000000e+00  0.0000000000000000e+00 0.0000000000000000e+00 0.0000000000000000e+00  0.0000000000000000e+00 0.0000000000000000e+00 0.0000000000000000e+00  0.0000000000000000e+00 0.0000000000000000e+00 0.0000000000000000e+00  0.0000000000000000e+00 0.0000000000000000e+00 0.0000000000000000e+00  0.0000000000000000e+00 0.0000000000000000e+00 0.0000000000000000e+00  0.0000000000000000e+00 0.0000000000000000e+00 0.0000000000000000e+00  0.0000000000000000e+00 0.0000000000000000e+00 0.0000000000000000e+00  0.0000000000000000e+00 0.0000000000000000e+00 0.0000000000000000e+00  0.0000000000000000e+00 0.0000000000000000e+00 0.0000000000000000e+00  0.0000000000000000e+00 0.0000000000000000e+00 0.0000000000000000e+00  0.0000000000000000e+00 0.0000000000000000e+00 0.0000000000000000e+00  0.0000000000000000e+00 0.0000000000000000e+00 0.0000000000000000e+00  0.0000000000000000e+00 0.0000000000000000e+00 0.0000000000000000e+00  0.0000000000000000e+00 0.0000000000000000e+00 0.0000000000000000e+00  0.0000000000000000e+00 0.0000000000000000e+00 0.0000000000000000e+00  0.0000000000000000e+00 0.0000000000000000e+00 0.0000000000000000e+00  0.0000000000000000e+00 0.0000000000000000e+00 0.0000000000000000e+00  0.0000000000000000e+00 0.0000000000000000e+00 0.0000000000000000e+00  0.0000000000000000e+00 0.0000000000000000e+00 0.0000000000000000e+00  0.0000000000000000e+00 0.0000000000000000e+00 0.0000000000000000e+00  0.0000000000000000e+00 0.0000000000000000e+00 0.0000000000000000e+00  0.0000000000000000e+00 0.0000000000000000e+00 0.0000000000000000e+00  0.0000000000000000e+00 0.0000000000000000e+00 0.0000000000000000e+00  0.0000000000000000e+00 0.0000000000000000e+00 0.0000000000000000e+00  0.0000000000000000e+00 0.0000000000000000e+00 0.0000000000000000e+00  0.0000000000000000e+00 0.0000000000000000e+00 0.0000000000000000e+00  0.0000000000000000e+00 0.0000000000000000e+00 0.0000000000000000e+00  0.0000000000000000e+00 0.0000000000000000e+00 0.0000000000000000e+00  0.0000000000000000e+00 0.0000000000000000e+00 0.0000000000000000e+00  0.0000000000000000e+00 0.0000000000000000e+00 0.0000000000000000e+00  0.0000000000000000e+00 0.0000000000000000e+00 0.0000000000000000e+00  0.0000000000000000e+00 0.0000000000000000e+00 0.0000000000000000e+00  0.0000000000000000e+00 0.0000000000000000e+00 0.0000000000000000e+00  0.0000000000000000e+00 0.0000000000000000e+00 0.0000000000000000e+00  0.0000000000000000e+00 0.0000000000000000e+00 0.0000000000000000e+00  0.0000000000000000e+00 0.0000000000000000e+00 0.0000000000000000e+00  0.0000000000000000e+00 0.0000000000000000e+00 0.0000000000000000e+00  0.0000000000000000e+00 0.0000000000000000e+00 0.0000000000000000e+00  0.0000000000000000e+00 0.0000000000000000e+00 0.0000000000000000e+00  0.0000000000000000e+00 0.0000000000000000e+00 0.0000000000000000e+00  0.0000000000000000e+00 0.0000000000000000e+00 0.0000000000000000e+00  0.0000000000000000e+00 0.0000000000000000e+00 0.0000000000000000e+00  0.0000000000000000e+00 0.0000000000000000e+00 0.0000000000000000e+00  0.0000000000000000e+00 0.0000000000000000e+00 0.0000000000000000e+00  0.0000000000000000e+00 0.0000000000000000e+00 0.0000000000000000e+00  0.0000000000000000e+00 0.0000000000000000e+00 0.0000000000000000e+00  0.0000000000000000e+00 0.0000000000000000e+00 0.0000000000000000e+00  0.0000000000000000e+00 0.0000000000000000e+00 0.0000000000000000e+00  0.0000000000000000e+00 0.0000000000000000e+00 0.0000000000000000e+00  0.0000000000000000e+00 0.0000000000000000e+00 0.0000000000000000e+00  0.0000000000000000e+00 0.0000000000000000e+00 0.0000000000000000e+00  0.0000000000000000e+00 0.0000000000000000e+00 0.0000000000000000e+00  0.0000000000000000e+00 0.0000000000000000e+00 0.0000000000000000e+00  0.0000000000000000e+00 0.0000000000000000e+00 0.0000000000000000e+00  0.0000000000000000e+00 0.0000000000000000e+00 0.0000000000000000e+00  0.0000000000000000e+00 0.0000000000000000e+00 0.0000000000000000e+00  2.5254419850462782e-06 -6.0856283329380734e-06 0.0000000000000000e+00  5.4829354207599120e-06 -8.3871200456929597e-06 0.0000000000000000e+00  8.5517701765284387e-06 -1.1697561265148917e-05 0.0000000000000000e+00  1.1931948649465331e-05 -1.6152710036239989e-05 0.0000000000000000e+00  1.5095187183916896e-05 -2.1737584017869735e-05 0.0000000000000000e+00  1.8484271686832108e-05 -2.8557126942644545e-05 0.0000000000000000e+00  2.1529801855673504e-05 -3.6266517485506189e-05 0.0000000000000000e+00  2.4516720360053862e-05 -4.5159998084738181e-05 0.0000000000000000e+00  2.7686936740950073e-05 -5.4957444416922400e-05 0.0000000000000000e+00  3.0426794077227092e-05 -6.5675879545524368e-05 0.0000000000000000e+00  3.3381679181529035e-05 -7.7356885681864013e-05 0.0000000000000000e+00  3.5903590993103324e-05 -8.9857988760129494e-05 0.0000000000000000e+00  3.8546823410361013e-05 -1.0321256541115313e-04 0.0000000000000000e+00  4.0861932996282216e-05 -1.1723943221587844e-04 0.0000000000000000e+00  4.3054885510408365e-05 -1.3208949836945508e-04 0.0000000000000000e+00  4.5314374579245307e-05 -1.4758086298724242e-04 0.0000000000000000e+00  4.7216806599055658e-05 -1.6367657650329719e-04 0.0000000000000000e+00  4.9197501168011994e-05 -1.8044509220035726e-04 0.0000000000000000e+00  5.0846264560376110e-05 -1.9770976554104585e-04 0.0000000000000000e+00  5.2540815425248816e-05 -2.1554319729483320e-04 0.0000000000000000e+00  5.3977078224548897e-05 -2.3381856403761696e-04 0.0000000000000000e+00  5.5384866272489475e-05 -2.5259490237407355e-04 0.0000000000000000e+00  5.6587103763090031e-05 -2.7171274236724858e-04 0.0000000000000000e+00  5.7671286949137171e-05 -2.9126445912783195e-04 0.0000000000000000e+00  5.8743419592585493e-05 -3.1112969351520148e-04 0.0000000000000000e+00  5.9619440462647461e-05 -3.3130704340298919e-04 0.0000000000000000e+00  6.0411849560220595e-05 -3.5183349776742273e-04 0.0000000000000000e+00  6.1067392270071680e-05 -3.7255973680624694e-04 0.0000000000000000e+00  6.1636663273446357e-05 -3.9359102989408888e-04 0.0000000000000000e+00  6.2079480373208754e-05 -4.1477824535716328e-04 0.0000000000000000e+00  6.2433808604027177e-05 -4.3622141549500817e-04 0.0000000000000000e+00  6.2667332090000059e-05 -4.5777596094787737e-04 0.0000000000000000e+00  6.2814390351501379e-05 -4.7954297503268709e-04 0.0000000000000000e+00  6.2844245311716494e-05 -5.0137965979163163e-04 0.0000000000000000e+00  6.2783478569483601e-05 -5.2339731667819169e-04 0.0000000000000000e+00  6.2615348492323130e-05 -5.4545378807101643e-04 0.0000000000000000e+00  6.2358476095387548e-05 -5.6765391723931076e-04 0.0000000000000000e+00  6.1998549827348579e-05 -5.8986608492694089e-04 0.0000000000000000e+00  6.1547265459303870e-05 -6.1219482708708679e-04 0.0000000000000000e+00  6.0993411733838122e-05 -6.3451286303967678e-04 0.0000000000000000e+00  6.0336875207025355e-05 -6.5690729060117808e-04 0.0000000000000000e+00  5.9600111385333647e-05 -6.7930356057445949e-04 0.0000000000000000e+00  5.8757312694503340e-05 -7.0173222888995663e-04 0.0000000000000000e+00  5.7857740024370232e-05 -7.2417049064707690e-04 0.0000000000000000e+00  5.6843119700767579e-05 -7.4658434882229050e-04 0.0000000000000000e+00  5.5777510498360291e-05 -7.6906820603751206e-04 0.0000000000000000e+00  3.9211187042004878e-05 -7.9064722338937580e-04 0.0000000000000000e+00  8.9870367109702238e-06 -7.8830134671398330e-04 0.0000000000000000e+00  -4.6826802725312130e-06 -7.6470816957299465e-04 0.0000000000000000e+00  -3.5762012433026094e-06 -7.4204447462683433e-04 0.0000000000000000e+00  -2.5227886895180311e-06 -7.1934451516494707e-04 0.0000000000000000e+00  -1.5632601142328427e-06 -6.9669789961467510e-04 0.0000000000000000e+00  -6.6093183089692324e-07 -6.7406721185566440e-04 0.0000000000000000e+00  1.4712572487090762e-07 -6.5146580128008368e-04 0.0000000000000000e+00  9.0707807623297901e-07 -6.2890698801621120e-04 0.0000000000000000e+00  1.5715241755753863e-06 -6.0635685275833590e-04 0.0000000000000000e+00  2.1863244946555796e-06 -5.8390351145276099e-04 0.0000000000000000e+00  2.7146182584186865e-06 -5.6145932693310010e-04 0.0000000000000000e+00  3.2073261097098987e-06 -5.3913547317689691e-04 0.0000000000000000e+00  3.6083883509642351e-06 -5.1684852221442078e-04 0.0000000000000000e+00  3.9875945360347193e-06 -4.9471204839871387e-04 0.0000000000000000e+00  4.2708063926907674e-06 -4.7264657603108401e-04 0.0000000000000000e+00  4.5494646371213787e-06 -4.5076147479109109e-04 0.0000000000000000e+00  4.7226874754421030e-06 -4.2898379412471680e-04 0.0000000000000000e+00  4.9088508973257331e-06 -4.0742287398637134e-04 0.0000000000000000e+00  4.9782738979837982e-06 -3.8601158262635576e-04 0.0000000000000000e+00  5.0790686169493341e-06 -3.6486390829456764e-04 0.0000000000000000e+00  5.0513251386218888e-06 -3.4391504027675955e-04 0.0000000000000000e+00  5.0784532974177880e-06 -3.2327701701750526e-04 0.0000000000000000e+00  4.9625580826519951e-06 -3.0289273414077023e-04 0.0000000000000000e+00  4.9057553846720779e-06 -2.8286047081747031e-04 0.0000000000000000e+00  4.7328186580787439e-06 -2.6313460516824835e-04 0.0000000000000000e+00  4.5067137908170774e-06 -2.4385555007112490e-04 0.0000000000000000e+00  4.3635108501279121e-06 -2.2491132645567312e-04 0.0000000000000000e+00  4.1012398593209125e-06 -2.0644161235416889e-04 0.0000000000000000e+00  3.8697454615802693e-06 -1.8847078481010334e-04 0.0000000000000000e+00  3.5541976302315795e-06 -1.7099603219981248e-04 0.0000000000000000e+00  3.2678397858025498e-06 -1.5411070537747117e-04 0.0000000000000000e+00  2.8983772993823197e-06 -1.3777520427860993e-04 0.0000000000000000e+00  2.6268249239064335e-06 -1.2218427779886600e-04 0.0000000000000000e+00  2.1877183851524362e-06 -1.0715221218674352e-04 0.0000000000000000e+00  1.7111671000239997e-06 -9.2985716295120689e-05 0.0000000000000000e+00  1.4116898098412252e-06 -7.9437295608770825e-05 0.0000000000000000e+00  9.7248067462687065e-07 -6.6797729422769694e-05 0.0000000000000000e+00  6.1235027334012395e-07 -5.5030773431216519e-05 0.0000000000000000e+00  1.6588950647145483e-07 -4.4148773826897625e-05 0.0000000000000000e+00  -9.1358564296511954e-08 -3.4350125472949598e-05 0.0000000000000000e+00  -5.5051387876194246e-07 -2.5402720839860348e-05 0.0000000000000000e+00  -9.9115505736227901e-07 -1.7696559992261741e-05 0.0000000000000000e+00  -1.1245857197522463e-06 -1.0889230792519836e-05 0.0000000000000000e+00  -1.3876823045199688e-06 -5.3048708109313174e-06 0.0000000000000000e+00  -1.3068302537010223e-06 -9.1339316128202384e-07 0.0000000000000000e+00  -1.2586714614317387e-06 2.0751043130584615e-06 0.0000000000000000e+00  -6.4271738073041541e-07 3.5651591211443942e-06 0.0000000000000000e+00  7.0636399472289568e-07 -1.3335397967201152e-06 0.0000000000000000e+00  2.6266656074675170e-05 -7.5556599318500910e-04 0.0000000000000000e+00  2.8588187709594729e-05 -7.1246863897142835e-04 0.0000000000000000e+00  3.0881012790131616e-05 -6.4214642846179189e-04 0.0000000000000000e+00  4.3883166804987317e-06 -7.5755650311988340e-06 0.0000000000000000e+00  3.1731350135033019e-05 -5.9803566144740891e-04 0.0000000000000000e+00  7.5917390435150155e-06 -1.8199748623126489e-05 0.0000000000000000e+00  3.2631437156967425e-05 -5.5336189902501398e-04 0.0000000000000000e+00  1.2895744955262675e-05 -4.4215966752178483e-05 0.0000000000000000e+00  1.6276255764039350e-05 -6.5531241219391012e-05 0.0000000000000000e+00  3.3213983880418051e-05 -5.0899856285637607e-04 0.0000000000000000e+00  2.3170778043916414e-05 -1.3497124600175405e-04 0.0000000000000000e+00  3.3445342042743002e-05 -4.2170606843133210e-04 0.0000000000000000e+00  1.8989565998788715e-05 -8.9573999502856299e-05 0.0000000000000000e+00  2.5725284348438891e-05 -1.6685627223750457e-04 0.0000000000000000e+00  3.3100076375568716e-05 -3.7907655631930437e-04 0.0000000000000000e+00  3.3484085714567680e-05 -4.6506717586992908e-04 0.0000000000000000e+00  2.7758943290965776e-05 -2.0164498862257132e-04 0.0000000000000000e+00  3.2447199845647405e-05 -3.3736528273921578e-04 0.0000000000000000e+00  2.9100719959921568e-05 -2.3686051004162838e-04 0.0000000000000000e+00  3.1863251645709475e-05 -2.9764756860540235e-04 0.0000000000000000e+00  3.0487392297907380e-05 -2.6564573125902307e-04 0.0000000000000000e+00  2.1336144100574081e-05 -1.1058624948011550e-04 0.0000000000000000e+00  2.9219091872249730e-05 -6.7863894435455361e-04 0.0000000000000000e+00  1.0279492212251547e-05 -2.9652036492955843e-05 0.0000000000000000e+00  1.6886776411383713e-05 -7.3305266142137772e-04 0.0000000000000000e+00  1.0977166860491263e-06 -1.9056665302942304e-06 0.0000000000000000e+00  2.3538799630071912e-05 -5.7478964631552782e-04 0.0000000000000000e+00  2.2435922386677811e-05 -6.1962810447810466e-04 0.0000000000000000e+00  8.6830467721530533e-06 -1.4601121625724503e-05 0.0000000000000000e+00  1.8843984186219943e-05 -5.5876766792603173e-05 0.0000000000000000e+00  2.5085135325214238e-05 -4.4228528517589445e-04 0.0000000000000000e+00  2.4343270131780629e-05 -5.3020779515532124e-04 0.0000000000000000e+00  3.0882389670989371e-05 -1.5176820042285809e-04 0.0000000000000000e+00  2.5039030564920188e-05 -3.9922173309921101e-04 0.0000000000000000e+00  2.2678927956195238e-05 -7.9309298065163597e-05 0.0000000000000000e+00  3.3506898981318973e-05 -1.8539156558674787e-04 0.0000000000000000e+00  2.4720553535589683e-05 -3.5698193376770956e-04 0.0000000000000000e+00  2.4855324630561129e-05 -4.8599623010995934e-04 0.0000000000000000e+00  3.7334629234493705e-05 -2.2125710602500286e-04 0.0000000000000000e+00  2.4132840731437819e-05 -3.1575947809386586e-04 0.0000000000000000e+00  3.6656431494771753e-08 -1.4418216618490364e-06 0.0000000000000000e+00  -4.9844235890515348e-07 8.2478410250383485e-07 0.0000000000000000e+00  3.2263689129599277e-05 -7.7382825286763423e-04 0.0000000000000000e+00  4.2847348854039535e-06 -6.1331751935761358e-06 0.000000000000000