<?xml version="1.0"?>
<VTKFile type="UnstructuredGrid"  version="0.1"  >
<UnstructuredGrid>
<Piece  NumberOfPoints="1419" NumberOfCells="2698">
<Points>
<DataArray  type="Float64"  NumberOfComponents="3"  format="ascii">0 0 0  0 0.41 0  2.5 0 0  2.5 0.41 0  0.6 0.19 0  0.6 0.21 0  0.25 0.2 0  0.15 0.2 0  0.2489897948556636 0.21 0  0.2489897948556636 0.19 0  0.6 0.2 0  0 0.3807142857143437 0  0 0.3514285714286952 0  0 0.3221428571430699 0  0 0.29285714285744 0  0 0.2635714285718054 0  0 0.2342857142861561 0  0 0.2050000000005308 0  0 0.175714285714732 0  0 0.1464285714289574 0  0 0.1171428571431897 0  0 0.08785714285737878 0  0 0.05857142857161107 0  0 0.02928571428580012 0  0.03015443760436003 0 0  0.06140001986583606 0 0  0.09377624077125973 0 0  0.1273239957535082 0 0  0.1620856860351972 0 0  0.1981052433264291 0 0  0.235428184091502 0 0  0.2741016576309132 0 0  0.3141745521465447 0 0  0.3556974926295285 0 0  0.3987229542472677 0 0  0.4433053055141081 0 0  0.4895008759286886 0 0  0.5373680609405097 0 0  0.5869673343216626 0 0  0.6383613676634521 0 0  0.6916151138468254 0 0  0.7467958595648856 0 0  0.8039733463919316 0 0  0.8632198139502143 0 0  0.9246101326867038 0 0  0.9882218810934433 0 0  1.054135445558498 0 0  1.122434100542598 0 0  1.193204177141305 0 0  1.266535089879536 0 0  1.342519516046404 0 0  1.421253448503939 0 0  1.502836389106271 0 0  1.587371439758838 0 0  1.674965418777374 0 0  1.765729001825544 0 0  1.859776908880082 0 0  1.957227977487062 0 0  2.058205329869943 0 0  2.162836591189951 0 0  2.271253957290865 0 0  2.383594446803425 0 0  2.5 0.1024999999997612 0  2.5 0.2049999999994743 0  2.5 0.3074999999997183 0  2.383594446803656 0.41 0  2.271253957291315 0.41 0  2.162836591190598 0.41 0  2.058205329870775 0.41 0  1.957227977488067 0.41 0  1.859776908881246 0.41 0  1.765729001826854 0.41 0  1.674965418778818 0.41 0  1.58737143976041 0.41 0  1.502836389107956 0.41 0  1.421253448505726 0.41 0  1.342519516048286 0.41 0  1.266535089881505 0.41 0  1.193204177143353 0.41 0  1.122434100544716 0.41 0  1.05413544556068 0.41 0  0.9882218810956305 0.41 0  0.9246101326886647 0.41 0  0.8632198139519631 0.41 0  0.8039733463934788 0.41 0  0.7467958595662458 0.41 0  0.6916151138480078 0.41 0  0.6383613676644679 0.41 0  0.5869673343225223 0.41 0  0.5373680609412221 0.41 0  0.4895008759292634 0.41 0  0.4433053055145528 0.41 0  0.3987229542475914 0.41 0  0.3556974926297398 0.41 0  0.3141745521466497 0.41 0  0.2741016576310038 0.41 0  0.2354281840915826 0.41 0  0.1981052433265003 0.41 0  0.1620856860352591 0.41 0  0.1273239957535623 0.41 0  0.09377624077128965 0.41 0  0.06140001986584975 0.41 0  0.03015443760436654 0.41 0  0.2497468076502589 0.2050254481002335 0  0.2497468076502614 0.1949745518997913 0  0.2469965252529372 0.1829317073451959 0  0.2439893735792749 0.1762316384219906 0  0.2400332147834255 0.1700443375285386 0  0.2352133972704371 0.1645032867342007 0  0.2296339016332438 0.1597280261969788 0  0.2234150974217223 0.1558215752574715 0  0.2166911463437691 0.1528682099456123 0  0.2096071079204251 0.1509316448471593 0  0.2023158100364996 0.1500536585536553 0  0.194974551899914 0.1502531923497262 0  0.1877417105387872 0.1515259415822739 0  0.1807733240461124 0.153844448527136 0  0.1742197252835808 0.15715869474974 0  0.1682222986673531 0.1613971801805478 0  0.162910430003803 0.1664684656256651 0  0.1583987151779087 0.1722631454351573 0  0.1547844879126891 0.178656207771761 0  0.1521457199348551 0.1855097315605723 0  0.1505393388476355 0.1926758619366523 0  0.1505393388476328 0.2073241380633295 0  0.1521457199348437 0.2144902684393899 0  0.1547844879126531 0.221343792228163 0  0.1583987151778488 0.2277368545647528 0  0.1629104300036858 0.2335315343742052 0  0.1682222986671726 0.2386028198193036 0  0.1742197252833576 0.2428413052501257 0  0.1807733240458683 0.2461555514727623 0  0.1877417105384929 0.2484740584176516 0  0.1949745518995776 0.2497468076502398 0  0.202315810036185 0.2499463414463592 0  0.2096071079201568 0.2490683551528932 0  0.2166911463435495 0.2471317900544655 0  0.2234150974215506 0.2441784247426195 0  0.2296339016331197 0.2402719738031125 0  0.2352133972703547 0.2354967132658811 0  0.2400332147833751 0.2299556624715287 0  0.2439893735792577 0.2237683615780412 0  0.246996525252926 0.2170682926548348 0  0.25645809709277 0.21 0  0.2639263993298655 0.21 0  0.271394701566961 0.21 0  0.2788630038040554 0.21 0  0.2863313060411479 0.21 0  0.2937996082782405 0.21 0  0.301267910515333 0.21 0  0.3087362127524279 0.21 0  0.3162045149895234 0.21 0  0.3236728172265972 0.21 0  0.3311411194636928 0.21 0  0.3386094217007701 0.21 0  0.3460777239378666 0.21 0  0.3535460261749672 0.21 0  0.3610143284120516 0.21 0  0.3684826306491596 0.21 0  0.3759509328862226 0.21 0  0.383419235123329 0.21 0  0.3908875373604028 0.21 0  0.3983558395975142 0.21 0  0.4058241418345938 0.21 0  0.4132924440716992 0.21 0  0.4207607463087888 0.21 0  0.4282290485459029 0.21 0  0.4356973507830418 0.21 0  0.4431656530201649 0.21 0  0.4506339552573136 0.21 0  0.4581022574944306 0.21 0  0.4655705597315852 0.21 0  0.4730388619686996 0.21 0  0.480507164205851 0.21 0  0.4879754664429498 0.21 0  0.4954437686800938 0.21 0  0.502912070917267 0.21 0  0.5103803731544119 0.21 0  0.5178486753915261 0.21 0  0.5253169776286404 0.21 0  0.5327852798657868 0.21 0  0.5402535821029386 0.21 0  0.54772188434007 0.21 0  0.5551901865771842 0.21 0  0.5626584888143201 0.21 0  0.5701267910514778 0.21 0  0.5775950932886138 0.21 0  0.5850633955257281 0.21 0  0.5925316977628483 0.21 0  0.6 0.2050000000000054 0  0.6 0.1950000000000217 0  0.5925316977628897 0.19 0  0.5850633955257988 0.19 0  0.5775950932887378 0.19 0  0.5701267910515998 0.19 0  0.5626584888145268 0.19 0  0.5551901865773963 0.19 0  0.547721884340339 0.19 0  0.5402535821032429 0.19 0  0.5327852798661811 0.19 0  0.5253169776290537 0.19 0  0.5178486753919799 0.19 0  0.5103803731549078 0.19 0  0.502912070917822 0.19 0  0.4954437686807294 0.19 0  0.4879754664436223 0.19 0  0.4805071642065402 0.19 0  0.4730388619694271 0.19 0  0.4655705597323621 0.19 0  0.4581022574952563 0.19 0  0.4506339552581777 0.19 0  0.4431656530210671 0.19 0  0.4356973507839815 0.19 0  0.4282290485468779 0.19 0  0.4207607463097617 0.19 0  0.4132924440726327 0.19 0  0.4058241418354857 0.19 0  0.3983558395983636 0.19 0  0.3908875373612097 0.19 0  0.3834192351240934 0.19 0  0.3759509328869369 0.19 0  0.3684826306498175 0.19 0  0.361014328412667 0.19 0  0.3535460261755617 0.19 0  0.3460777239384295 0.19 0  0.3386094217012945 0.19 0  0.3311411194641595 0.19 0  0.3236728172270245 0.19 0  0.3162045149898895 0.19 0  0.3087362127527544 0.19 0  0.3012679105156187 0.19 0  0.2937996082784807 0.19 0  0.2863313060413428 0.19 0  0.2788630038042048 0.19 0  0.2713947015670686 0.19 0  0.2639263993299336 0.19 0  0.2564580970927985 0.19 0  0.2607803159922026 0.2000727136295815 0  0.5887803774232762 0.2001272386983733 0  0.5745072403740523 0.2002044435018727 0  0.5511891430099709 0.2001122610077113 0  0.2751288526855082 0.20000000000002 0  0.5365194309847112 0.1999999999999436 0  0.2894621222999649 0.1998691686390484 0  0.5215828265105155 0.1999999999999228 0  0.3127789816668748 0.1998657885438805 0  0.3274069683451451 0.2000000000000796 0  0.5066462220363641 0.199999999999908 0  0.3650630746574081 0.199866017807523 0  0.476773013087985 0.1999999999998713 0  0.3417402379596385 0.1998691686391011 0  0.3796850840047755 0.200000000000134 0  0.4618364086138087 0.1999999999998546 0  0.4917096175621762 0.1999999999998808 0  0.3946216884789568 0.2000000000001512 0  0.446899804139621 0.1999999999998389 0  0.4089549580935208 0.1998691686391595 0  0.4322718174608562 0.200127451265745 0  0.4201487168029707 0.1999966199048527 0  0.3528922713220932 0.2000185703532356 0  0.5633122436674589 0.1999814296467508 0  0.3006558810093873 0.1999966199048318 0  0.5815926498168407 0.1966545283159175 0  0.2677053789419034 0.1964246479135325 0  0.5290511287476175 0.1970915826863981 0  0.5439877332217911 0.197091582686394 0  0.2825131256993216 0.2035478995978015 0  0.3199386661080599 0.202908417313604 0  0.4842413153250809 0.1970915826863873 0  0.5141145242734466 0.1970915826863843 0  0.3722167817676917 0.2029084173136195 0  0.4693047108508938 0.1970915826863783 0  0.3348752705822316 0.202908417313609 0  0.3871533862418661 0.2029084173136212 0  0.4543681063767183 0.1970915826863795 0  0.4991779197992749 0.1970915826863902 0  0.4020059614928624 0.203547899597858 0  0.4394315019025246 0.1970915826863714 0  0.2550657455369551 0.2034088125358657 0  0.2548908499171161 0.1966940311614271 0  0.5946539510196798 0.2024302972968126 0  0.267698176732111 0.2039977513680092 0  0.4261685417851465 0.196409292431739 0  0.3590076176283495 0.196411355804271 0  0.5571672426447437 0.2036011176410121 0  0.3066757059912147 0.1964092924317024 0  0.594380730180568 0.1966558399668133 0  0.4842413153245942 0.2040749161535287 0  0.4693047108503577 0.2040749161535231 0  0.3871533862424271 0.1959250838464788 0  0.372246743208829 0.1959123236376545 0  0.5141145242731028 0.2040749161535395 0  0.4543681063761134 0.2040749161535186 0  0.4019979587101454 0.1959834479682427 0  0.4394608940728603 0.2040870543693135 0  0.5439623148931173 0.2040856076781014 0  0.5290511287473298 0.2040749161535501 0  0.4991779197988497 0.2040749161535382 0  0.3347912413592433 0.1959225448935183 0  0.3199680582793816 0.1959123018030061 0  0.2825051229162361 0.1959834479681729 0  0.3590471196690275 0.2036304442587945 0  0.5571594006495384 0.1963685282145804 0  0.3067669986803285 0.203627750582736 0  0.4262598344738712 0.2036568242185335 0  0.5814408164431408 0.2041285596160068 0  0.5688286748170428 0.1961819304477386 0  0.4145905603063645 0.2038180695522843 0  0.3473758401724931 0.2038180695522752 0  0.2950977245128307 0.2038180695522663 0  0.5688286748170693 0.203818069552238 0  0.2950977245127906 0.1961819304477774 0  0.3473758401723931 0.1961819304478349 0  0.4145905603061963 0.1961819304479011 0  0.2601812407614425 0.2056861609747042
[...]
<PointData  Vectors="f_40-0"> 
<DataArray  type="Float64"  Name="f_40-0"  NumberOfComponents="3" format="ascii">0.0000000000000000e+00 0.0000000000000000e+00 0.0000000000000000e+00  0.0000000000000000e+00 0.0000000000000000e+00 0.0000000000000000e+00  0.0000000000000000e+00 0.0000000000000000e+00 0.0000000000000000e+00  0.0000000000000000e+00 0.0000000000000000e+00 0.0000000000000000e+00  -9.0893282567322434e-06 -5.5499329969830810e-04 0.0000000000000000e+00  3.3644887140167105e-05 -5.6025484774044473e-04 0.0000000000000000e+00  0.0000000000000000e+00 0.0000000000000000e+00 0.0000000000000000e+00  0.0000000000000000e+00 0.0000000000000000e+00 0.0000000000000000e+00  0.0000000000000000e+00 0.0000000000000000e+00 0.0000000000000000e+00  0.0000000000000000e+00 0.0000000000000000e+00 0.0000000000000000e+00  1.1768139254706138e-05 -5.5761898474481451e-04 0.0000000000000000e+00  8.5087108145296381e-02 0.0000000000000000e+00 0.0000000000000000e+00  1.5708389196055758e-01 0.0000000000000000e+00 0.0000000000000000e+00  2.1599035144576675e-01 0.0000000000000000e+00 0.0000000000000000e+00  2.6180648660099193e-01 0.0000000000000000e+00 0.0000000000000000e+00  2.9453229742622739e-01 0.0000000000000000e+00 0.0000000000000000e+00  3.1416778392147110e-01 0.0000000000000000e+00 0.0000000000000000e+00  3.2071294608670331e-01 0.0000000000000000e+00 0.0000000000000000e+00  3.1416778392186806e-01 0.0000000000000000e+00 0.0000000000000000e+00  2.9453229742690928e-01 0.0000000000000000e+00 0.0000000000000000e+00  2.6180648660183647e-01 0.0000000000000000e+00 0.0000000000000000e+00  2.1599035144656897e-01 0.0000000000000000e+00 0.0000000000000000e+00  1.5708389196124217e-01 0.0000000000000000e+00 0.0000000000000000e+00  8.5087108145682114e-02 0.0000000000000000e+00 0.0000000000000000e+00  0.0000000000000000e+00 0.0000000000000000e+00 0.0000000000000000e+00  0.0000000000000000e+00 0.0000000000000000e+00 0.0000000000000000e+00  0.0000000000000000e+00 0.0000000000000000e+00 0.0000000000000000e+00  0.0000000000000000e+00 0.0000000000000000e+00 0.0000000000000000e+00  0.0000000000000000e+00 0.0000000000000000e+00 0.0000000000000000e+00  0.0000000000000000e+00 0.0000000000000000e+00 0.0000000000000000e+00  0.0000000000000000e+00 0.0000000000000000e+00 0.0000000000000000e+00  0.0000000000000000e+00 0.0000000000000000e+00 0.0000000000000000e+00  0.0000000000000000e+00 0.0000000000000000e+00 0.0000000000000000e+00  0.0000000000000000e+00 0.0000000000000000e+00 0.0000000000000000e+00  0.0000000000000000e+00 0.0000000000000000e+00 0.0000000000000000e+00  0.0000000000000000e+00 0.0000000000000000e+00 0.0000000000000000e+00  0.0000000000000000e+00 0.0000000000000000e+00 0.0000000000000000e+00  0.0000000000000000e+00 0.0000000000000000e+00 0.0000000000000000e+00  0.0000000000000000e+00 0.0000000000000000e+00 0.0000000000000000e+00  0.0000000000000000e+00 0.0000000000000000e+00 0.0000000000000000e+00  0.0000000000000000e+00 0.0000000000000000e+00 0.0000000000000000e+00  0.0000000000000000e+00 0.0000000000000000e+00 0.0000000000000000e+00  0.0000000000000000e+00 0.0000000000000000e+00 0.0000000000000000e+00  0.0000000000000000e+00 0.0000000000000000e+00 0.0000000000000000e+00  0.0000000000000000e+00 0.0000000000000000e+00 0.0000000000000000e+00  0.0000000000000000e+00 0.0000000000000000e+00 0.0000000000000000e+00  0.0000000000000000e+00 0.0000000000000000e+00 0.0000000000000000e+00  0.0000000000000000e+00 0.0000000000000000e+00 0.0000000000000000e+00  0.0000000000000000e+00 0.0000000000000000e+00 0.0000000000000000e+00  0.0000000000000000e+00 0.0000000000000000e+00 0.0000000000000000e+00  0.0000000000000000e+00 0.0000000000000000e+00 0.0000000000000000e+00  0.0000000000000000e+00 0.0000000000000000e+00 0.0000000000000000e+00  0.0000000000000000e+00 0.0000000000000000e+00 0.0000000000000000e+00  0.0000000000000000e+00 0.0000000000000000e+00 0.0000000000000000e+00  0.0000000000000000e+00 0.0000000000000000e+00 0.0000000000000000e+00  0.0000000000000000e+00 0.0000000000000000e+00 0.0000000000000000e+00  0.0000000000000000e+00 0.0000000000000000e+00 0.0000000000000000e+00  0.0000000000000000e+00 0.0000000000000000e+00 0.0000000000000000e+00  0.0000000000000000e+00 0.0000000000000000e+00 0.0000000000000000e+00  0.0000000000000000e+00 0.0000000000000000e+00 0.0000000000000000e+00  0.0000000000000000e+00 0.0000000000000000e+00 0.0000000000000000e+00  0.0000000000000000e+00 0.0000000000000000e+00 0.0000000000000000e+00  2.7295640449423131e-01 1.4936672104573284e-03 0.0000000000000000e+00  2.0815113728925441e-01 -2.7847802051716135e-04 0.0000000000000000e+00  2.7180005394480367e-01 -2.2701005772003571e-03 0.0000000000000000e+00  0.0000000000000000e+00 0.0000000000000000e+00 0.0000000000000000e+00  0.0000000000000000e+00 0.0000000000000000e+00 0.0000000000000000e+00  0.0000000000000000e+00 0.0000000000000000e+00 0.0000000000000000e+00  0.0000000000000000e+00 0.0000000000000000e+00 0.0000000000000000e+00  0.0000000000000000e+00 0.0000000000000000e+00 0.0000000000000000e+00  0.0000000000000000e+00 0.0000000000000000e+00 0.0000000000000000e+00  0.0000000000000000e+00 0.0000000000000000e+00 0.0000000000000000e+00  0.0000000000000000e+00 0.0000000000000000e+00 0.0000000000000000e+00  0.0000000000000000e+00 0.0000000000000000e+00 0.0000000000000000e+00  0.0000000000000000e+00 0.0000000000000000e+00 0.0000000000000000e+00  0.0000000000000000e+00 0.0000000000000000e+00 0.0000000000000000e+00  0.0000000000000000e+00 0.0000000000000000e+00 0.0000000000000000e+00  0.0000000000000000e+00 0.0000000000000000e+00 0.0000000000000000e+00  0.0000000000000000e+00 0.0000000000000000e+00 0.0000000000000000e+00  0.0000000000000000e+00 0.0000000000000000e+00 0.0000000000000000e+00  0.0000000000000000e+00 0.0000000000000000e+00 0.0000000000000000e+00  0.0000000000000000e+00 0.0000000000000000e+00 0.0000000000000000e+00  0.0000000000000000e+00 0.0000000000000000e+00 0.0000000000000000e+00  0.0000000000000000e+00 0.0000000000000000e+00 0.0000000000000000e+00  0.0000000000000000e+00 0.0000000000000000e+00 0.0000000000000000e+00  0.0000000000000000e+00 0.0000000000000000e+00 0.0000000000000000e+00  0.0000000000000000e+00 0.0000000000000000e+00 0.0000000000000000e+00  0.0000000000000000e+00 0.0000000000000000e+00 0.0000000000000000e+00  0.0000000000000000e+00 0.0000000000000000e+00 0.0000000000000000e+00  0.0000000000000000e+00 0.0000000000000000e+00 0.0000000000000000e+00  0.0000000000000000e+00 0.0000000000000000e+00 0.0000000000000000e+00  0.0000000000000000e+00 0.0000000000000000e+00 0.0000000000000000e+00  0.0000000000000000e+00 0.0000000000000000e+00 0.0000000000000000e+00  0.0000000000000000e+00 0.0000000000000000e+00 0.0000000000000000e+00  0.0000000000000000e+00 0.0000000000000000e+00 0.0000000000000000e+00  0.0000000000000000e+00 0.0000000000000000e+00 0.0000000000000000e+00  0.0000000000000000e+00 0.0000000000000000e+00 0.0000000000000000e+00  0.0000000000000000e+00 0.0000000000000000e+00 0.0000000000000000e+00  0.0000000000000000e+00 0.0000000000000000e+00 0.0000000000000000e+00  0.0000000000000000e+00 0.0000000000000000e+00 0.0000000000000000e+00  0.0000000000000000e+00 0.0000000000000000e+00 0.0000000000000000e+00  0.0000000000000000e+00 0.0000000000000000e+00 0.0000000000000000e+00  0.0000000000000000e+00 0.0000000000000000e+00 0.0000000000000000e+00  0.0000000000000000e+00 0.0000000000000000e+00 0.0000000000000000e+00  0.0000000000000000e+00 0.0000000000000000e+00 0.0000000000000000e+00  0.0000000000000000e+00 0.0000000000000000e+00 0.0000000000000000e+00  0.0000000000000000e+00 0.0000000000000000e+00 0.0000000000000000e+00  0.0000000000000000e+00 0.0000000000000000e+00 0.0000000000000000e+00  0.0000000000000000e+00 0.0000000000000000e+00 0.0000000000000000e+00  0.0000000000000000e+00 0.0000000000000000e+00 0.0000000000000000e+00  0.0000000000000000e+00 0.0000000000000000e+00 0.0000000000000000e+00  0.0000000000000000e+00 0.0000000000000000e+00 0.0000000000000000e+00  0.0000000000000000e+00 0.0000000000000000e+00 0.0000000000000000e+00  0.0000000000000000e+00 0.0000000000000000e+00 0.0000000000000000e+00  0.0000000000000000e+00 0.0000000000000000e+00 0.0000000000000000e+00  0.0000000000000000e+00 0.0000000000000000e+00 0.0000000000000000e+00  0.0000000000000000e+00 0.0000000000000000e+00 0.0000000000000000e+00  0.0000000000000000e+00 0.0000000000000000e+00 0.0000000000000000e+00  0.0000000000000000e+00 0.0000000000000000e+00 0.0000000000000000e+00  0.0000000000000000e+00 0.0000000000000000e+00 0.0000000000000000e+00  0.0000000000000000e+00 0.0000000000000000e+00 0.0000000000000000e+00  0.0000000000000000e+00 0.0000000000000000e+00 0.0000000000000000e+00  0.0000000000000000e+00 0.0000000000000000e+00 0.0000000000000000e+00  0.0000000000000000e+00 0.0000000000000000e+00 0.0000000000000000e+00  0.0000000000000000e+00 0.0000000000000000e+00 0.0000000000000000e+00  0.0000000000000000e+00 0.0000000000000000e+00 0.0000000000000000e+00  0.0000000000000000e+00 0.0000000000000000e+00 0.0000000000000000e+00  0.0000000000000000e+00 0.0000000000000000e+00 0.0000000000000000e+00  0.0000000000000000e+00 0.0000000000000000e+00 0.0000000000000000e+00  0.0000000000000000e+00 0.0000000000000000e+00 0.0000000000000000e+00  0.0000000000000000e+00 0.0000000000000000e+00 0.0000000000000000e+00  0.0000000000000000e+00 0.0000000000000000e+00 0.0000000000000000e+00  0.0000000000000000e+00 0.0000000000000000e+00 0.0000000000000000e+00  0.0000000000000000e+00 0.0000000000000000e+00 0.0000000000000000e+00  0.0000000000000000e+00 0.0000000000000000e+00 0.0000000000000000e+00  0.0000000000000000e+00 0.0000000000000000e+00 0.0000000000000000e+00  0.0000000000000000e+00 0.0000000000000000e+00 0.0000000000000000e+00  0.0000000000000000e+00 0.0000000000000000e+00 0.0000000000000000e+00  0.0000000000000000e+00 0.0000000000000000e+00 0.0000000000000000e+00  0.0000000000000000e+00 0.0000000000000000e+00 0.0000000000000000e+00  0.0000000000000000e+00 0.0000000000000000e+00 0.0000000000000000e+00  0.0000000000000000e+00 0.0000000000000000e+00 0.0000000000000000e+00  0.0000000000000000e+00 0.0000000000000000e+00 0.0000000000000000e+00  1.9826418287177651e-06 -6.2468181186060495e-06 0.0000000000000000e+00  4.3333363857325004e-06 -8.0261645741290937e-06 0.0000000000000000e+00  6.8439358173630786e-06 -1.0393663677612494e-05 0.0000000000000000e+00  9.5968406231347348e-06 -1.3515933669188440e-05 0.0000000000000000e+00  1.2176289448919092e-05 -1.7417155713155280e-05 0.0000000000000000e+00  1.4862307799290922e-05 -2.2217006098346096e-05 0.0000000000000000e+00  1.7272677791843698e-05 -2.7644754729256852e-05 0.0000000000000000e+00  1.9591821630925435e-05 -3.3910611401425011e-05 0.0000000000000000e+00  2.2009660240202902e-05 -4.0822864706970513e-05 0.0000000000000000e+00  2.4089986167496323e-05 -4.8376937250685291e-05 0.0000000000000000e+00  2.6290469829847120e-05 -5.6626524725991475e-05 0.0000000000000000e+00  2.8163498650518522e-05 -6.5439385231809595e-05 0.0000000000000000e+00  3.0094716012384074e-05 -7.4861159114112199e-05 0.0000000000000000e+00  3.1781296520968789e-05 -8.4754965457468483e-05 0.0000000000000000e+00  3.3359305002254935e-05 -9.5223649469066668e-05 0.0000000000000000e+00  3.4970095929001090e-05 -1.0614602829942381e-04 0.0000000000000000e+00  3.6310899318471068e-05 -1.1748288218692568e-04 0.0000000000000000e+00  3.7689235220202011e-05 -1.2930233426029848e-04 0.0000000000000000e+00  3.8818272325803252e-05 -1.4145718353134588e-04 0.0000000000000000e+00  3.9963179160546936e-05 -1.5402296774028493e-04 0.0000000000000000e+00  4.0909750448376581e-05 -1.6688801334395297e-04 0.0000000000000000e+00  4.1816977438287786e-05 -1.8011198948595980e-04 0.0000000000000000e+00  4.2567342532528309e-05 -1.9357657813638850e-04 0.0000000000000000e+00  4.3214864062389194e-05 -2.0734516299778313e-04 0.0000000000000000e+00  4.3841424899135634e-05 -2.2134031700192351e-04 0.0000000000000000e+00  4.4309152169049827e-05 -2.3554784620689404e-04 0.0000000000000000e+00  4.4699995169360079e-05 -2.5001473939765130e-04 0.0000000000000000e+00  4.4976680562631733e-05 -2.6461105474301166e-04 0.0000000000000000e+00  4.5174521601425353e-05 -2.7943457751168003e-04 0.0000000000000000e+00  4.5265523093745898e-05 -2.9435761146540091e-04 0.0000000000000000e+00  4.5276269200887905e-05 -3.0947239794008749e-04 0.0000000000000000e+00  4.5183680769641733e-05 -3.2465503537013025e-04 0.0000000000000000e+00  4.5012842367831035e-05 -3.3999967840847470e-04 0.0000000000000000e+00  4.4740601824061515e-05 -3.5538191698455501e-04 0.0000000000000000e+00  4.4385759515625790e-05 -3.7090524296836232e-04 0.0000000000000000e+00  4.3937425447475342e-05 -3.8644490316553715e-04 0.0000000000000000e+00  4.3408827366414761e-05 -4.0209817123753336e-04 0.0000000000000000e+00  4.2789377853262791e-05 -4.1774949876341542e-04 0.0000000000000000e+00  4.2086843921620144e-05 -4.3349537219159763e-04 0.0000000000000000e+00  4.1292531268467407e-05 -4.4922334971057311e-04 0.0000000000000000e+00  4.0404260460440699e-05 -4.6501336548876486e-04 0.0000000000000000e+00  3.9445004432668390e-05 -4.8080174134400045e-04 0.0000000000000000e+00  3.8388252912637528e-05 -4.9661529062189867e-04 0.0000000000000000e+00  3.7280465729864182e-05 -5.1243567992944109e-04 0.0000000000000000e+00  3.6069526567325621e-05 -5.2823321010518425e-04 0.0000000000000000e+00  3.4820138430851900e-05 -5.4410064900673198e-04 0.0000000000000000e+00  2.2526471612411529e-05 -5.5893459469988252e-04 0.0000000000000000e+00  1.1789373138657496e-06 -5.5631076351836070e-04 0.0000000000000000e+00  -7.8908002644390468e-06 -5.3923344886616653e-04 0.0000000000000000e+00  -6.6049258248614178e-06 -5.2320643868976877e-04 0.0000000000000000e+00  -5.3622156926798446e-06 -5.0714284474291150e-04 0.0000000000000000e+00  -4.2072879617615658e-06 -4.9112567915091706e-04 0.0000000000000000e+00  -3.1049103002341083e-06 -4.7512117128705632e-04 0.0000000000000000e+00  -2.0927748155862623e-06 -4.5913888019585256e-04 0.0000000000000000e+00  -1.1291797654245248e-06 -4.4319104409662154e-04 0.0000000000000000e+00  -2.5485745275889426e-07 -4.2724379236918296e-04 0.0000000000000000e+00  5.6606777224268622e-07 -4.1137684815174309e-04 0.0000000000000000e+00  1.3071315778078463e-06 -3.9550572845613210e-04 0.0000000000000000e+00  2.0049585786762166e-06 -3.7973229687138498e-04 0.0000000000000000e+00  2.6193669223701965e-06 -3.6397400585785590e-04 0.0000000000000000e+00  3.2002913400786534e-06 -3.4833422683855369e-04 0.0000000000000000e+00  3.6951468566247263e-06 -3.3273406727741330e-04 0.0000000000000000e+00  4.1688948835560773e-06 -3.1727363959962898e-04 0.0000000000000000e+00  4.5499446525003991e-06 -3.0187827972356777e-04 0.0000000000000000e+00  4.9221487019266018e-06 -2.8664790699878999e-04 0.0000000000000000e+00  5.1939404626629557e-06 -2.7151201629565218e-04 0.0000000000000000e+00  5.4703240956917021e-06 -2.5657413464573502e-04 0.0000000000000000e+00  5.6382782051525764e-06 -2.4176625457433405e-04 0.0000000000000000e+00  5.8274599893869866e-06 -2.2718988301500994e-04 0.0000000000000000e+00  5.8980248796872447e-06 -2.1278302354256438e-04 0.0000000000000000e+00  5.9902982245293850e-06 -1.9863260352458222e-04 0.0000000000000000e+00  5.9866835268287976e-06 -1.8469637843704633e-04 0.0000000000000000e+00  5.9245265547940944e-06 -1.7107654238570600e-04 0.0000000000000000e+00  5.9085208494389299e-06 -1.5769493249313270e-04 0.0000000000000000e+00  5.7873008829912192e-06 -1.4464128724153073e-04 0.0000000000000000e+00  5.6700497562341652e-06 -1.3194932042489245e-04 0.0000000000000000e+00  5.4755399054130867e-06 -1.1959318981913282e-04 0.0000000000000000e+00  5.2833530935931959e-06 -1.0766195169873207e-04 0.0000000000000000e+00  5.0148364036943128e-06 -9.6102898125200793e-05 0.0000000000000000e+00  4.7940966851173523e-06 -8.5072439101618457e-05 0.0000000000000000e+00  4.4430736032894565e-06 -7.4427425690632657e-05 0.0000000000000000e+00  4.0437444909537042e-06 -6.4388572960959121e-05 0.0000000000000000e+00  3.7555946734181985e-06 -5.4780643815169092e-05 0.0000000000000000e+00  3.3429545300381534e-06 -4.5799761257361733e-05 0.0000000000000000e+00  2.9633815531503049e-06 -3.7440919442273742e-05 0.0000000000000000e+00  2.4939302768176130e-06 -2.9682189402610933e-05 0.0000000000000000e+00  2.1254164458448275e-06 -2.2690144342512092e-05 0.0000000000000000e+00  1.5881703059030287e-06 -1.6286442117944102e-05 0.0000000000000000e+00  1.0181396498154801e-06 -1.0755065143432418e-05 0.0000000000000000e+00  6.3737814797013538e-07 -5.8588876966525645e-06 0.0000000000000000e+00  1.1443372121945182e-07 -1.8062717610985406e-06 0.0000000000000000e+00  -1.7871950355483220e-07 1.3759839060059207e-06 0.0000000000000000e+00  -4.7402769714431983e-07 3.5014940445430327e-06 0.0000000000000000e+00  -2.8585038167203259e-07 4.4270286809414381e-06 0.0000000000000000e+00  4.4470487395159726e-07 -9.7380102164787824e-07 0.0000000000000000e+00  1.4170165231603656e-05 -5.3367748282658620e-04 0.0000000000000000e+00  1.6791840783909352e-05 -5.0324738831407844e-04 0.0000000000000000e+00  1.9822487834587939e-05 -4.5358638409122521e-04 0.0000000000000000e+00  4.0213392912952065e-06 -5.4175196094881363e-06 0.0000000000000000e+00  2.1213779638039886e-05 -4.2243398424749123e-04 0.0000000000000000e+00  6.9412412496511936e-06 -1.2957768856338584e-05 0.0000000000000000e+00  2.2583474389123301e-05 -3.9089958251393065e-04 0.0000000000000000e+00  1.1424461114953264e-05 -3.1446768733695417e-05 0.0000000000000000e+00  1.4101548340369133e-05 -4.6580950224052239e-05 0.0000000000000000e+00  2.3655835291926365e-05 -3.5958791707644920e-04 0.0000000000000000e+00  1.9309778434837766e-05 -9.5663943043315593e-05 0.0000000000000000e+00  2.4923639752839593e-05 -2.9798593800966963e-04 0.0000000000000000e+00  1.6210209132256952e-05 -6.3577359503240102e-05 0.0000000000000000e+00  2.1115014290205026e-05 -1.1819443635687578e-04 0.0000000000000000e+00  2.5124563898577926e-05 -2.6790557848308048e-04 0.0000000000000000e+00  2.4434898080686780e-05 -3.2858415977983328e-04 0.0000000000000000e+00  2.2487860983516317e-05 -1.4273934000081718e-04 0.0000000000000000e+00  2.5037322309306127e-05 -2.3847560949226800e-04 0.0000000000000000e+00  2.3312856183627237e-05 -1.6755965887933151e-04 0.0000000000000000e+00  2.4924851826537347e-05 -2.1047327090575874e-04 0.0000000000000000e+00  2.4143651309975657e-05 -1.8788206261997699e-04 0.0000000000000000e+00  1.7953415829119696e-05 -7.8458992590980288e-05 0.0000000000000000e+00  1.7931149171239907e-05 -4.7933849230466020e-04 0.0000000000000000e+00  9.2273196996599794e-06 -2.1127276725929815e-05 0.0000000000000000e+00  8.0532655838466025e-06 -5.1745961027103386e-04 0.0000000000000000e+00  1.2470182878381552e-06 -6.0498857001064696e-07 0.0000000000000000e+00  1.5806954533136324e-05 -4.0570594062783194e-04 0.0000000000000000e+00  1.4256816949643969e-05 -4.3737131432228753e-04 0.0000000000000000e+00  7.4248295646383619e-06 -1.1114525919677688e-05 0.0000000000000000e+00  1.5790579514716098e-05 -4.0238576946231624e-05 0.0000000000000000e+00  1.8774699768868597e-05 -3.1215003998148397e-04 0.0000000000000000e+00  1.7073153227712833e-05 -3.7422543507352430e-04 0.0000000000000000e+00  2.4763315326639762e-05 -1.0799437766530387e-04 0.0000000000000000e+00  1.9222913529613717e-05 -2.8174995393286578e-04 0.0000000000000000e+00  1.8741423964161628e-05 -5.6818677185763442e-05 0.0000000000000000e+00  2.6583711881889645e-05 -1.3171172119411787e-04 0.0000000000000000e+00  1.9407531697064353e-05 -2.5193295917737686e-04 0.0000000000000000e+00  1.8059816659522191e-05 -3.4300933079445354e-04 0.0000000000000000e+00  2.9188700210516673e-05 -1.5709469107868051e-04 0.0000000000000000e+00  1.9331935649698559e-05 -2.2283742921151863e-04 0.0000000000000000e+00  -2.2661473265514454e-07 -1.4921636353228917e-06 0.0000000000000000e+00  -6.0686781250896345e-07 9.9804137794167414e-07 0.0000000000000000e+00  1.7982070547939457e-05 -5.4678699504951572e-04 0.0000000000000000e+00  3.5265304854857979e-06 -5.2396345053389291e-06 0.0000000000000000