<?xml version="1.0"?>
<VTKFile type="UnstructuredGrid"  version="0.1"  >
<UnstructuredGrid>
<Piece  NumberOfPoints="1419" NumberOfCells="2698">
<Points>
<DataArray  type="Float64"  NumberOfComponents="3"  format="ascii">0 0 0  0 0.41 0  2.5 0 0  2.5 0.41 0  0.6 0.19 0  0.6 0.21 0  0.25 0.2 0  0.15 0.2 0  0.2489897948556636 0.21 0  0.2489897948556636 0.19 0  0.6 0.2 0  0 0.3807142857143437 0  0 0.3514285714286952 0  0 0.3221428571430699 0  0 0.29285714285744 0  0 0.2635714285718054 0  0 0.2342857142861561 0  0 0.2050000000005308 0  0 0.175714285714732 0  0 0.1464285714289574 0  0 0.1171428571431897 0  0 0.08785714285737878 0  0 0.05857142857161107 0  0 0.02928571428580012 0  0.03015443760436003 0 0  0.06140001986583606 0 0  0.09377624077125973 0 0  0.1273239957535082 0 0  0.1620856860351972 0 0  0.1981052433264291 0 0  0.235428184091502 0 0  0.2741016576309132 0 0  0.3141745521465447 0 0  0.3556974926295285 0 0  0.3987229542472677 0 0  0.4433053055141081 0 0  0.4895008759286886 0 0  0.5373680609405097 0 0  0.5869673343216626 0 0  0.6383613676634521 0 0  0.6916151138468254 0 0  0.7467958595648856 0 0  0.8039733463919316 0 0  0.8632198139502143 0 0  0.9246101326867038 0 0  0.9882218810934433 0 0  1.054135445558498 0 0  1.122434100542598 0 0  1.193204177141305 0 0  1.266535089879536 0 0  1.342519516046404 0 0  1.421253448503939 0 0  1.502836389106271 0 0  1.587371439758838 0 0  1.674965418777374 0 0  1.765729001825544 0 0  1.859776908880082 0 0  1.957227977487062 0 0  2.058205329869943 0 0  2.162836591189951 0 0  2.271253957290865 0 0  2.383594446803425 0 0  2.5 0.1024999999997612 0  2.5 0.2049999999994743 0  2.5 0.3074999999997183 0  2.383594446803656 0.41 0  2.271253957291315 0.41 0  2.162836591190598 0.41 0  2.058205329870775 0.41 0  1.957227977488067 0.41 0  1.859776908881246 0.41 0  1.765729001826854 0.41 0  1.674965418778818 0.41 0  1.58737143976041 0.41 0  1.502836389107956 0.41 0  1.421253448505726 0.41 0  1.342519516048286 0.41 0  1.266535089881505 0.41 0  1.193204177143353 0.41 0  1.122434100544716 0.41 0  1.05413544556068 0.41 0  0.9882218810956305 0.41 0  0.9246101326886647 0.41 0  0.8632198139519631 0.41 0  0.8039733463934788 0.41 0  0.7467958595662458 0.41 0  0.6916151138480078 0.41 0  0.6383613676644679 0.41 0  0.5869673343225223 0.41 0  0.5373680609412221 0.41 0  0.4895008759292634 0.41 0  0.4433053055145528 0.41 0  0.3987229542475914 0.41 0  0.3556974926297398 0.41 0  0.3141745521466497 0.41 0  0.2741016576310038 0.41 0  0.2354281840915826 0.41 0  0.1981052433265003 0.41 0  0.1620856860352591 0.41 0  0.1273239957535623 0.41 0  0.09377624077128965 0.41 0  0.06140001986584975 0.41 0  0.03015443760436654 0.41 0  0.2497468076502589 0.2050254481002335 0  0.2497468076502614 0.1949745518997913 0  0.2469965252529372 0.1829317073451959 0  0.2439893735792749 0.1762316384219906 0  0.2400332147834255 0.1700443375285386 0  0.2352133972704371 0.1645032867342007 0  0.2296339016332438 0.1597280261969788 0  0.2234150974217223 0.1558215752574715 0  0.2166911463437691 0.1528682099456123 0  0.2096071079204251 0.1509316448471593 0  0.2023158100364996 0.1500536585536553 0  0.194974551899914 0.1502531923497262 0  0.1877417105387872 0.1515259415822739 0  0.1807733240461124 0.153844448527136 0  0.1742197252835808 0.15715869474974 0  0.1682222986673531 0.1613971801805478 0  0.162910430003803 0.1664684656256651 0  0.1583987151779087 0.1722631454351573 0  0.1547844879126891 0.178656207771761 0  0.1521457199348551 0.1855097315605723 0  0.1505393388476355 0.1926758619366523 0  0.1505393388476328 0.2073241380633295 0  0.1521457199348437 0.2144902684393899 0  0.1547844879126531 0.221343792228163 0  0.1583987151778488 0.2277368545647528 0  0.1629104300036858 0.2335315343742052 0  0.1682222986671726 0.2386028198193036 0  0.1742197252833576 0.2428413052501257 0  0.1807733240458683 0.2461555514727623 0  0.1877417105384929 0.2484740584176516 0  0.1949745518995776 0.2497468076502398 0  0.202315810036185 0.2499463414463592 0  0.2096071079201568 0.2490683551528932 0  0.2166911463435495 0.2471317900544655 0  0.2234150974215506 0.2441784247426195 0  0.2296339016331197 0.2402719738031125 0  0.2352133972703547 0.2354967132658811 0  0.2400332147833751 0.2299556624715287 0  0.2439893735792577 0.2237683615780412 0  0.246996525252926 0.2170682926548348 0  0.25645809709277 0.21 0  0.2639263993298655 0.21 0  0.271394701566961 0.21 0  0.2788630038040554 0.21 0  0.2863313060411479 0.21 0  0.2937996082782405 0.21 0  0.301267910515333 0.21 0  0.3087362127524279 0.21 0  0.3162045149895234 0.21 0  0.3236728172265972 0.21 0  0.3311411194636928 0.21 0  0.3386094217007701 0.21 0  0.3460777239378666 0.21 0  0.3535460261749672 0.21 0  0.3610143284120516 0.21 0  0.3684826306491596 0.21 0  0.3759509328862226 0.21 0  0.383419235123329 0.21 0  0.3908875373604028 0.21 0  0.3983558395975142 0.21 0  0.4058241418345938 0.21 0  0.4132924440716992 0.21 0  0.4207607463087888 0.21 0  0.4282290485459029 0.21 0  0.4356973507830418 0.21 0  0.4431656530201649 0.21 0  0.4506339552573136 0.21 0  0.4581022574944306 0.21 0  0.4655705597315852 0.21 0  0.4730388619686996 0.21 0  0.480507164205851 0.21 0  0.4879754664429498 0.21 0  0.4954437686800938 0.21 0  0.502912070917267 0.21 0  0.5103803731544119 0.21 0  0.5178486753915261 0.21 0  0.5253169776286404 0.21 0  0.5327852798657868 0.21 0  0.5402535821029386 0.21 0  0.54772188434007 0.21 0  0.5551901865771842 0.21 0  0.5626584888143201 0.21 0  0.5701267910514778 0.21 0  0.5775950932886138 0.21 0  0.5850633955257281 0.21 0  0.5925316977628483 0.21 0  0.6 0.2050000000000054 0  0.6 0.1950000000000217 0  0.5925316977628897 0.19 0  0.5850633955257988 0.19 0  0.5775950932887378 0.19 0  0.5701267910515998 0.19 0  0.5626584888145268 0.19 0  0.5551901865773963 0.19 0  0.547721884340339 0.19 0  0.5402535821032429 0.19 0  0.5327852798661811 0.19 0  0.5253169776290537 0.19 0  0.5178486753919799 0.19 0  0.5103803731549078 0.19 0  0.502912070917822 0.19 0  0.4954437686807294 0.19 0  0.4879754664436223 0.19 0  0.4805071642065402 0.19 0  0.4730388619694271 0.19 0  0.4655705597323621 0.19 0  0.4581022574952563 0.19 0  0.4506339552581777 0.19 0  0.4431656530210671 0.19 0  0.4356973507839815 0.19 0  0.4282290485468779 0.19 0  0.4207607463097617 0.19 0  0.4132924440726327 0.19 0  0.4058241418354857 0.19 0  0.3983558395983636 0.19 0  0.3908875373612097 0.19 0  0.3834192351240934 0.19 0  0.3759509328869369 0.19 0  0.3684826306498175 0.19 0  0.361014328412667 0.19 0  0.3535460261755617 0.19 0  0.3460777239384295 0.19 0  0.3386094217012945 0.19 0  0.3311411194641595 0.19 0  0.3236728172270245 0.19 0  0.3162045149898895 0.19 0  0.3087362127527544 0.19 0  0.3012679105156187 0.19 0  0.2937996082784807 0.19 0  0.2863313060413428 0.19 0  0.2788630038042048 0.19 0  0.2713947015670686 0.19 0  0.2639263993299336 0.19 0  0.2564580970927985 0.19 0  0.2607803159922026 0.2000727136295815 0  0.5887803774232762 0.2001272386983733 0  0.5745072403740523 0.2002044435018727 0  0.5511891430099709 0.2001122610077113 0  0.2751288526855082 0.20000000000002 0  0.5365194309847112 0.1999999999999436 0  0.2894621222999649 0.1998691686390484 0  0.5215828265105155 0.1999999999999228 0  0.3127789816668748 0.1998657885438805 0  0.3274069683451451 0.2000000000000796 0  0.5066462220363641 0.199999999999908 0  0.3650630746574081 0.199866017807523 0  0.476773013087985 0.1999999999998713 0  0.3417402379596385 0.1998691686391011 0  0.3796850840047755 0.200000000000134 0  0.4618364086138087 0.1999999999998546 0  0.4917096175621762 0.1999999999998808 0  0.3946216884789568 0.2000000000001512 0  0.446899804139621 0.1999999999998389 0  0.4089549580935208 0.1998691686391595 0  0.4322718174608562 0.200127451265745 0  0.4201487168029707 0.1999966199048527 0  0.3528922713220932 0.2000185703532356 0  0.5633122436674589 0.1999814296467508 0  0.3006558810093873 0.1999966199048318 0  0.5815926498168407 0.1966545283159175 0  0.2677053789419034 0.1964246479135325 0  0.5290511287476175 0.1970915826863981 0  0.5439877332217911 0.197091582686394 0  0.2825131256993216 0.2035478995978015 0  0.3199386661080599 0.202908417313604 0  0.4842413153250809 0.1970915826863873 0  0.5141145242734466 0.1970915826863843 0  0.3722167817676917 0.2029084173136195 0  0.4693047108508938 0.1970915826863783 0  0.3348752705822316 0.202908417313609 0  0.3871533862418661 0.2029084173136212 0  0.4543681063767183 0.1970915826863795 0  0.4991779197992749 0.1970915826863902 0  0.4020059614928624 0.203547899597858 0  0.4394315019025246 0.1970915826863714 0  0.2550657455369551 0.2034088125358657 0  0.2548908499171161 0.1966940311614271 0  0.5946539510196798 0.2024302972968126 0  0.267698176732111 0.2039977513680092 0  0.4261685417851465 0.196409292431739 0  0.3590076176283495 0.196411355804271 0  0.5571672426447437 0.2036011176410121 0  0.3066757059912147 0.1964092924317024 0  0.594380730180568 0.1966558399668133 0  0.4842413153245942 0.2040749161535287 0  0.4693047108503577 0.2040749161535231 0  0.3871533862424271 0.1959250838464788 0  0.372246743208829 0.1959123236376545 0  0.5141145242731028 0.2040749161535395 0  0.4543681063761134 0.2040749161535186 0  0.4019979587101454 0.1959834479682427 0  0.4394608940728603 0.2040870543693135 0  0.5439623148931173 0.2040856076781014 0  0.5290511287473298 0.2040749161535501 0  0.4991779197988497 0.2040749161535382 0  0.3347912413592433 0.1959225448935183 0  0.3199680582793816 0.1959123018030061 0  0.2825051229162361 0.1959834479681729 0  0.3590471196690275 0.2036304442587945 0  0.5571594006495384 0.1963685282145804 0  0.3067669986803285 0.203627750582736 0  0.4262598344738712 0.2036568242185335 0  0.5814408164431408 0.2041285596160068 0  0.5688286748170428 0.1961819304477386 0  0.4145905603063645 0.2038180695522843 0  0.3473758401724931 0.2038180695522752 0  0.2950977245128307 0.2038180695522663 0  0.5688286748170693 0.203818069552238 0  0.2950977245127906 0.1961819304477774 0  0.3473758401723931 0.1961819304478349 0  0.4145905603061963 0.1961819304479011 0  0.2601812407614425 0.2056861609747042
[...]
<PointData  Vectors="f_40-0"> 
<DataArray  type="Float64"  Name="f_40-0"  NumberOfComponents="3" format="ascii">0.0000000000000000e+00 0.0000000000000000e+00 0.0000000000000000e+00  0.0000000000000000e+00 0.0000000000000000e+00 0.0000000000000000e+00  0.0000000000000000e+00 0.0000000000000000e+00 0.0000000000000000e+00  0.0000000000000000e+00 0.0000000000000000e+00 0.0000000000000000e+00  3.4034493599516288e-05 3.3083185165036048e-03 0.0000000000000000e+00  -2.0178050309579531e-04 3.3107145080172075e-03 0.0000000000000000e+00  0.0000000000000000e+00 0.0000000000000000e+00 0.0000000000000000e+00  0.0000000000000000e+00 0.0000000000000000e+00 0.0000000000000000e+00  0.0000000000000000e+00 0.0000000000000000e+00 0.0000000000000000e+00  0.0000000000000000e+00 0.0000000000000000e+00 0.0000000000000000e+00  -8.3774243349313534e-05 3.3095002114448360e-03 0.0000000000000000e+00  4.9092169304926242e-01 0.0000000000000000e+00 0.0000000000000000e+00  9.0631697178331394e-01 0.0000000000000000e+00 0.0000000000000000e+00  1.2461858362020568e+00 0.0000000000000000e+00 0.0000000000000000e+00  1.5105282863058849e+00 0.0000000000000000e+00 0.0000000000000000e+00  1.6993443220947633e+00 0.0000000000000000e+00 0.0000000000000000e+00  1.8126339435686811e+00 0.0000000000000000e+00 0.0000000000000000e+00  1.8503971507275252e+00 0.0000000000000000e+00 0.0000000000000000e+00  1.8126339435709715e+00 0.0000000000000000e+00 0.0000000000000000e+00  1.6993443220986977e+00 0.0000000000000000e+00 0.0000000000000000e+00  1.5105282863107570e+00 0.0000000000000000e+00 0.0000000000000000e+00  1.2461858362066855e+00 0.0000000000000000e+00 0.0000000000000000e+00  9.0631697178726378e-01 0.0000000000000000e+00 0.0000000000000000e+00  4.9092169305148797e-01 0.0000000000000000e+00 0.0000000000000000e+00  0.0000000000000000e+00 0.0000000000000000e+00 0.0000000000000000e+00  0.0000000000000000e+00 0.0000000000000000e+00 0.0000000000000000e+00  0.0000000000000000e+00 0.0000000000000000e+00 0.0000000000000000e+00  0.0000000000000000e+00 0.0000000000000000e+00 0.0000000000000000e+00  0.0000000000000000e+00 0.0000000000000000e+00 0.0000000000000000e+00  0.0000000000000000e+00 0.0000000000000000e+00 0.0000000000000000e+00  0.0000000000000000e+00 0.0000000000000000e+00 0.0000000000000000e+00  0.0000000000000000e+00 0.0000000000000000e+00 0.0000000000000000e+00  0.0000000000000000e+00 0.0000000000000000e+00 0.0000000000000000e+00  0.0000000000000000e+00 0.0000000000000000e+00 0.0000000000000000e+00  0.0000000000000000e+00 0.0000000000000000e+00 0.0000000000000000e+00  0.0000000000000000e+00 0.0000000000000000e+00 0.0000000000000000e+00  0.0000000000000000e+00 0.0000000000000000e+00 0.0000000000000000e+00  0.0000000000000000e+00 0.0000000000000000e+00 0.0000000000000000e+00  0.0000000000000000e+00 0.0000000000000000e+00 0.0000000000000000e+00  0.0000000000000000e+00 0.0000000000000000e+00 0.0000000000000000e+00  0.0000000000000000e+00 0.0000000000000000e+00 0.0000000000000000e+00  0.0000000000000000e+00 0.0000000000000000e+00 0.0000000000000000e+00  0.0000000000000000e+00 0.0000000000000000e+00 0.0000000000000000e+00  0.0000000000000000e+00 0.0000000000000000e+00 0.0000000000000000e+00  0.0000000000000000e+00 0.0000000000000000e+00 0.0000000000000000e+00  0.0000000000000000e+00 0.0000000000000000e+00 0.0000000000000000e+00  0.0000000000000000e+00 0.0000000000000000e+00 0.0000000000000000e+00  0.0000000000000000e+00 0.0000000000000000e+00 0.0000000000000000e+00  0.0000000000000000e+00 0.0000000000000000e+00 0.0000000000000000e+00  0.0000000000000000e+00 0.0000000000000000e+00 0.0000000000000000e+00  0.0000000000000000e+00 0.0000000000000000e+00 0.0000000000000000e+00  0.0000000000000000e+00 0.0000000000000000e+00 0.0000000000000000e+00  0.0000000000000000e+00 0.0000000000000000e+00 0.0000000000000000e+00  0.0000000000000000e+00 0.0000000000000000e+00 0.0000000000000000e+00  0.0000000000000000e+00 0.0000000000000000e+00 0.0000000000000000e+00  0.0000000000000000e+00 0.0000000000000000e+00 0.0000000000000000e+00  0.0000000000000000e+00 0.0000000000000000e+00 0.0000000000000000e+00  0.0000000000000000e+00 0.0000000000000000e+00 0.0000000000000000e+00  0.0000000000000000e+00 0.0000000000000000e+00 0.0000000000000000e+00  0.0000000000000000e+00 0.0000000000000000e+00 0.0000000000000000e+00  0.0000000000000000e+00 0.0000000000000000e+00 0.0000000000000000e+00  0.0000000000000000e+00 0.0000000000000000e+00 0.0000000000000000e+00  1.6841945997396071e+00 -3.1793807661863065e-02 0.0000000000000000e+00  1.3544501514887979e+00 1.5589837436082344e-02 0.0000000000000000e+00  1.6626259038517421e+00 6.0269332740975116e-02 0.0000000000000000e+00  0.0000000000000000e+00 0.0000000000000000e+00 0.0000000000000000e+00  0.0000000000000000e+00 0.0000000000000000e+00 0.0000000000000000e+00  0.0000000000000000e+00 0.0000000000000000e+00 0.0000000000000000e+00  0.0000000000000000e+00 0.0000000000000000e+00 0.0000000000000000e+00  0.0000000000000000e+00 0.0000000000000000e+00 0.0000000000000000e+00  0.0000000000000000e+00 0.0000000000000000e+00 0.0000000000000000e+00  0.0000000000000000e+00 0.0000000000000000e+00 0.0000000000000000e+00  0.0000000000000000e+00 0.0000000000000000e+00 0.0000000000000000e+00  0.0000000000000000e+00 0.0000000000000000e+00 0.0000000000000000e+00  0.0000000000000000e+00 0.0000000000000000e+00 0.0000000000000000e+00  0.0000000000000000e+00 0.0000000000000000e+00 0.0000000000000000e+00  0.0000000000000000e+00 0.0000000000000000e+00 0.0000000000000000e+00  0.0000000000000000e+00 0.0000000000000000e+00 0.0000000000000000e+00  0.0000000000000000e+00 0.0000000000000000e+00 0.0000000000000000e+00  0.0000000000000000e+00 0.0000000000000000e+00 0.0000000000000000e+00  0.0000000000000000e+00 0.0000000000000000e+00 0.0000000000000000e+00  0.0000000000000000e+00 0.0000000000000000e+00 0.0000000000000000e+00  0.0000000000000000e+00 0.0000000000000000e+00 0.0000000000000000e+00  0.0000000000000000e+00 0.0000000000000000e+00 0.0000000000000000e+00  0.0000000000000000e+00 0.0000000000000000e+00 0.0000000000000000e+00  0.0000000000000000e+00 0.0000000000000000e+00 0.0000000000000000e+00  0.0000000000000000e+00 0.0000000000000000e+00 0.0000000000000000e+00  0.0000000000000000e+00 0.0000000000000000e+00 0.0000000000000000e+00  0.0000000000000000e+00 0.0000000000000000e+00 0.0000000000000000e+00  0.0000000000000000e+00 0.0000000000000000e+00 0.0000000000000000e+00  0.0000000000000000e+00 0.0000000000000000e+00 0.0000000000000000e+00  0.0000000000000000e+00 0.0000000000000000e+00 0.0000000000000000e+00  0.0000000000000000e+00 0.0000000000000000e+00 0.0000000000000000e+00  0.0000000000000000e+00 0.0000000000000000e+00 0.0000000000000000e+00  0.0000000000000000e+00 0.0000000000000000e+00 0.0000000000000000e+00  0.0000000000000000e+00 0.0000000000000000e+00 0.0000000000000000e+00  0.0000000000000000e+00 0.0000000000000000e+00 0.0000000000000000e+00  0.0000000000000000e+00 0.0000000000000000e+00 0.0000000000000000e+00  0.0000000000000000e+00 0.0000000000000000e+00 0.0000000000000000e+00  0.0000000000000000e+00 0.0000000000000000e+00 0.0000000000000000e+00  0.0000000000000000e+00 0.0000000000000000e+00 0.0000000000000000e+00  0.0000000000000000e+00 0.0000000000000000e+00 0.0000000000000000e+00  0.0000000000000000e+00 0.0000000000000000e+00 0.0000000000000000e+00  0.0000000000000000e+00 0.0000000000000000e+00 0.0000000000000000e+00  0.0000000000000000e+00 0.0000000000000000e+00 0.0000000000000000e+00  0.0000000000000000e+00 0.0000000000000000e+00 0.0000000000000000e+00  0.0000000000000000e+00 0.0000000000000000e+00 0.0000000000000000e+00  0.0000000000000000e+00 0.0000000000000000e+00 0.0000000000000000e+00  0.0000000000000000e+00 0.0000000000000000e+00 0.0000000000000000e+00  0.0000000000000000e+00 0.0000000000000000e+00 0.0000000000000000e+00  0.0000000000000000e+00 0.0000000000000000e+00 0.0000000000000000e+00  0.0000000000000000e+00 0.0000000000000000e+00 0.0000000000000000e+00  0.0000000000000000e+00 0.0000000000000000e+00 0.0000000000000000e+00  0.0000000000000000e+00 0.0000000000000000e+00 0.0000000000000000e+00  0.0000000000000000e+00 0.0000000000000000e+00 0.0000000000000000e+00  0.0000000000000000e+00 0.0000000000000000e+00 0.0000000000000000e+00  0.0000000000000000e+00 0.0000000000000000e+00 0.0000000000000000e+00  0.0000000000000000e+00 0.0000000000000000e+00 0.0000000000000000e+00  0.0000000000000000e+00 0.0000000000000000e+00 0.0000000000000000e+00  0.0000000000000000e+00 0.0000000000000000e+00 0.0000000000000000e+00  0.0000000000000000e+00 0.0000000000000000e+00 0.0000000000000000e+00  0.0000000000000000e+00 0.0000000000000000e+00 0.0000000000000000e+00  0.0000000000000000e+00 0.0000000000000000e+00 0.0000000000000000e+00  0.0000000000000000e+00 0.0000000000000000e+00 0.0000000000000000e+00  0.0000000000000000e+00 0.0000000000000000e+00 0.0000000000000000e+00  0.0000000000000000e+00 0.0000000000000000e+00 0.0000000000000000e+00  0.0000000000000000e+00 0.0000000000000000e+00 0.0000000000000000e+00  0.0000000000000000e+00 0.0000000000000000e+00 0.0000000000000000e+00  0.0000000000000000e+00 0.0000000000000000e+00 0.0000000000000000e+00  0.0000000000000000e+00 0.0000000000000000e+00 0.0000000000000000e+00  0.0000000000000000e+00 0.0000000000000000e+00 0.0000000000000000e+00  0.0000000000000000e+00 0.0000000000000000e+00 0.0000000000000000e+00  0.0000000000000000e+00 0.0000000000000000e+00 0.0000000000000000e+00  0.0000000000000000e+00 0.0000000000000000e+00 0.0000000000000000e+00  0.0000000000000000e+00 0.0000000000000000e+00 0.0000000000000000e+00  0.0000000000000000e+00 0.0000000000000000e+00 0.0000000000000000e+00  0.0000000000000000e+00 0.0000000000000000e+00 0.0000000000000000e+00  0.0000000000000000e+00 0.0000000000000000e+00 0.0000000000000000e+00  0.0000000000000000e+00 0.0000000000000000e+00 0.0000000000000000e+00  0.0000000000000000e+00 0.0000000000000000e+00 0.0000000000000000e+00  0.0000000000000000e+00 0.0000000000000000e+00 0.0000000000000000e+00  0.0000000000000000e+00 0.0000000000000000e+00 0.0000000000000000e+00  0.0000000000000000e+00 0.0000000000000000e+00 0.0000000000000000e+00  -1.1117421520711499e-05 1.2076948871575733e-05 0.0000000000000000e+00  -2.3435363174623389e-05 2.3100084745519713e-05 0.0000000000000000e+00  -3.4654266334239294e-05 4.0273258209566859e-05 0.0000000000000000e+00  -4.6462514235789316e-05 6.4041852364443084e-05 0.0000000000000000e+00  -5.6642863546612334e-05 9.3196130805666666e-05 0.0000000000000000e+00  -6.7572301832001080e-05 1.2822114997585666e-04 0.0000000000000000e+00  -7.6744702595707073e-05 1.6741887899157998e-04 0.0000000000000000e+00  -8.5536210785515441e-05 2.1199795929375246e-04 0.0000000000000000e+00  -9.5027713608278937e-05 2.6054033463574226e-04 0.0000000000000000e+00  -1.0272900634155746e-04 3.1305690178696274e-04 0.0000000000000000e+00  -1.1131440148808083e-04 3.6942991871480194e-04 0.0000000000000000e+00  -1.1825835182675847e-04 4.2913880325685418e-04 0.0000000000000000e+00  -1.2575572788564116e-04 4.9203383209223974e-04 0.0000000000000000e+00  -1.3209231079788764e-04 5.5737863813208675e-04 0.0000000000000000e+00  -1.3811652004622093e-04 6.2565731056997084e-04 0.0000000000000000e+00  -1.4440838532955324e-04 6.9606473195065854e-04 0.0000000000000000e+00  -1.4961868139283936e-04 7.6851691836015259e-04 0.0000000000000000e+00  -1.5515353486981754e-04 8.4297520352053781e-04 0.0000000000000000e+00  -1.5973536614330517e-04 9.1900887065646220e-04 0.0000000000000000e+00  -1.6451446062946111e-04 9.9659486316824039e-04 0.0000000000000000e+00  -1.6861368369289878e-04 1.0754657443071459e-03 0.0000000000000000e+00  -1.7269810487144537e-04 1.1556206767013469e-03 0.0000000000000000e+00  -1.7626428343534947e-04 1.2366326578100218e-03 0.0000000000000000e+00  -1.7957844392797685e-04 1.3187143100317844e-03 0.0000000000000000e+00  -1.8287709774834175e-04 1.4015214610785401e-03 0.0000000000000000e+00  -1.8574365202141333e-04 1.4850595208141632e-03 0.0000000000000000e+00  -1.8843746439375380e-04 1.5693375036332131e-03 0.0000000000000000e+00  -1.9084273465567002e-04 1.6540538651195966e-03 0.0000000000000000e+00  -1.9306714989043210e-04 1.7393843262630314e-03 0.0000000000000000e+00  -1.9503163368639787e-04 1.8250352805313881e-03 0.0000000000000000e+00  -1.9681280774880232e-04 1.9111718569456467e-03 0.0000000000000000e+00  -1.9835273003847057e-04 1.9975192512337050e-03 0.0000000000000000e+00  -1.9971935009832203e-04 2.0842479302670518e-03 0.0000000000000000e+00  -2.0085668831651789e-04 2.1710904725531152e-03 0.0000000000000000e+00  -2.0181574006105055e-04 2.2582453428581515e-03 0.0000000000000000e+00  -2.0258407391936652e-04 2.3454594602112903e-03 0.0000000000000000e+00  -2.0318956717259626e-04 2.4329036885252561e-03 0.0000000000000000e+00  -2.0362530662077830e-04 2.5203651747983226e-03 0.0000000000000000e+00  -2.0390314712323302e-04 2.6080032886216615e-03 0.0000000000000000e+00  -2.0403443354297056e-04 2.6956397825346700e-03 0.0000000000000000e+00  -2.0401662815706652e-04 2.7833889058941218e-03 0.0000000000000000e+00  -2.0389549804369903e-04 2.8711527323362095e-03 0.0000000000000000e+00  -2.0363554769637778e-04 2.9589777825170705e-03 0.0000000000000000e+00  -2.0330920837551643e-04 3.0468383138139103e-03 0.0000000000000000e+00  -2.0287008993362897e-04 3.1347114738950930e-03 0.0000000000000000e+00  -2.0234256471899492e-04 3.2226478368027082e-03 0.0000000000000000e+00  -1.4272075338958449e-04 3.3101113539295334e-03 0.0000000000000000e+00  -2.4841258786071651e-05 3.3088950815511639e-03 0.0000000000000000e+00  3.3432563672077236e-05 3.2202405353936175e-03 0.0000000000000000e+00  3.2850977172370430e-05 3.1321064483305645e-03 0.0000000000000000e+00  3.2344011528856402e-05 3.0439513795577668e-03 0.0000000000000000e+00  3.1917535338540383e-05 2.9558344194239401e-03 0.0000000000000000e+00  3.1561556720451868e-05 2.8677337348826078e-03 0.0000000000000000e+00  3.1329595755772993e-05 2.7796683197215759e-03 0.0000000000000000e+00  3.1149883564872969e-05 2.6916496718528788e-03 0.0000000000000000e+00  3.1113038463890403e-05 2.6036475111618578e-03 0.0000000000000000e+00  3.1141390378293201e-05 2.5157666274219811e-03 0.0000000000000000e+00  3.1312814234234393e-05 2.4279007527383454e-03 0.0000000000000000e+00  3.1537139795028648e-05 2.3402042869117854e-03 0.0000000000000000e+00  3.1923854254098881e-05 2.2525688184903952e-03 0.0000000000000000e+00  3.2345785503661386e-05 2.1651710411451897e-03 0.0000000000000000e+00  3.2935630694423867e-05 2.0779007538524875e-03 0.0000000000000000e+00  3.3523349021009384e-05 1.9909331506296766e-03 0.0000000000000000e+00  3.4297053005067478e-05 1.9041781324137161e-03 0.0000000000000000e+00  3.5026591296630257e-05 1.8178142244495011e-03 0.0000000000000000e+00  3.5961557688281179e-05 1.7317694687443807e-03 0.0000000000000000e+00  3.6797090594444097e-05 1.6462340375505982e-03 0.0000000000000000e+00  3.7855702387812547e-05 1.5611518896051372e-03 0.0000000000000000e+00  3.8736147527245441e-05 1.4767035184498050e-03 0.0000000000000000e+00  3.9863497853896720e-05 1.3928702241690597e-03 0.0000000000000000e+00  4.0753255110766206e-05 1.3098229452474107e-03 0.0000000000000000e+00  4.1828741814982149e-05 1.2275267917774520e-03 0.0000000000000000e+00  4.2905693068851296e-05 1.1463357375631753e-03 0.0000000000000000e+00  4.3655112187625049e-05 1.0659938832420653e-03 0.0000000000000000e+00  4.4522119298326844e-05 9.8697797468552152e-04 0.0000000000000000e+00  4.5109021925157095e-05 9.0924218844924036e-04 0.0000000000000000e+00  4.5717582691339233e-05 8.3308247305494425e-04 0.0000000000000000e+00  4.5984715905971703e-05 7.5855467362377442e-04 0.0000000000000000e+00  4.6242318763969243e-05 6.8590225528005985e-04 0.0000000000000000e+00  4.5825856947628820e-05 6.1558329109115699e-04 0.0000000000000000e+00  4.5736947641487264e-05 5.4721023895986092e-04 0.0000000000000000e+00  4.5429495816747104e-05 4.8186511159245153e-04 0.0000000000000000e+00  4.4199365140150370e-05 4.1874276406029268e-04 0.0000000000000000e+00  4.3076407707520203e-05 3.5912166746805512e-04 0.0000000000000000e+00  4.1259943065173946e-05 3.0271035333622679e-04 0.0000000000000000e+00  3.9455708781521716e-05 2.5000949873712103e-04 0.0000000000000000e+00  3.6429007052069682e-05 2.0170225597891900e-04 0.0000000000000000e+00  3.4052515472526987e-05 1.5703874125056735e-04 0.0000000000000000e+00  3.1348721779942948e-05 1.1783616427621427e-04 0.0000000000000000e+00  2.7037013126763530e-05 8.2640033997363920e-05 0.0000000000000000e+00  2.3165798500108353e-05 5.3309235117361338e-05 0.0000000000000000e+00  1.7728522349867730e-05 2.9761532768844705e-05 0.0000000000000000e+00  1.2878510500246066e-05 1.2665357541128574e-05 0.0000000000000000e+00  6.1445571413523283e-06 2.2891602991060902e-06 0.0000000000000000e+00  -3.2336081078835355e-06 7.8313047273442509e-06 0.0000000000000000e+00  -8.6190741587928652e-05 3.1772252677651856e-03 0.0000000000000000e+00  -8.8041458005615130e-05 3.0090182309131801e-03 0.0000000000000000e+00  -8.7681700107351829e-05 2.7344221692463862e-03 0.0000000000000000e+00  -9.9353880233137284e-06 4.2134919882411752e-05 0.0000000000000000e+00  -8.6251459280655728e-05 2.5618772715382048e-03 0.0000000000000000e+00  -1.5639874194892470e-05 9.8332053563309434e-05 0.0000000000000000e+00  -8.5651970460474998e-05 2.3865136883296084e-03 0.0000000000000000e+00  -2.5364100564219837e-05 2.2969640576245024e-04 0.0000000000000000e+00  -3.2410984585525702e-05 3.3333227153436778e-04 0.0000000000000000e+00  -8.4510374293784757e-05 2.2116232928022657e-03 0.0000000000000000e+00  -4.6411475292515177e-05 6.5693388756487680e-04 0.0000000000000000e+00  -8.0528838840367311e-05 1.8642653106541571e-03 0.0000000000000000e+00  -3.7274253712181299e-05 4.4786894879064813e-04 0.0000000000000000e+00  -5.3220055495687901e-05 7.9937829287926023e-04 0.0000000000000000e+00  -7.7686471948409133e-05 1.6924855224697462e-03 0.0000000000000000e+00  -8.2805427027323649e-05 2.0374397747578948e-03 0.0000000000000000e+00  -5.8600831199814863e-05 9.5181640984390921e-04 0.0000000000000000e+00  -7.4290579815893522e-05 1.5225784859419838e-03 0.0000000000000000e+00  -6.2043042123021964e-05 1.1033693392862884e-03 0.0000000000000000e+00  -7.1890262212388295e-05 1.3585825749478282e-03 0.0000000000000000e+00  -6.6879339620215829e-05 1.2249138738178380e-03 0.0000000000000000e+00  -4.3018203162529403e-05 5.4520314659981764e-04 0.0000000000000000e+00  -8.5858363737724324e-05 2.8771186684949028e-03 0.0000000000000000e+00  -2.0994298613747271e-05 1.5653170727260708e-04 0.0000000000000000e+00  -4.5777778000530704e-05 3.0920368716062679e-03 0.0000000000000000e+00  1.4087683459577704e-06 2.0226523444239477e-05 0.0000000000000000e+00  -5.1896699212712699e-05 2.4734611208025092e-03 0.0000000000000000e+00  -5.2172466461647670e-05 2.6490789215509263e-03 0.0000000000000000e+00  -2.6603622470974599e-05 7.1075057388133816e-05 0.0000000000000000e+00  -4.9547330759873502e-05 2.8046515549332945e-04 0.0000000000000000e+00  -4.8078731127513162e-05 1.9497471320193904e-03 0.0000000000000000e+00  -5.1133487643444349e-05 2.2982164324047627e-03 0.0000000000000000e+00  -7.8508519830119584e-05 7.2734856646032499e-04 0.0000000000000000e+00  -4.5803797406189983e-05 1.7771331503769940e-03 0.0000000000000000e+00  -5.8458205028386563e-05 3.9336178071268287e-04 0.0000000000000000e+00  -8.5417073497927171e-05 8.7639069716348645e-04 0.0000000000000000e+00  -4.3058310491118439e-05 1.6061524109125280e-03 0.0000000000000000e+00  -4.9859294061196547e-05 2.1235556373876492e-03 0.0000000000000000e+00  -9.8449661650117784e-05 1.0311939668508428e-03 0.0000000000000000e+00  -3.9880662525802202e-05 1.4373206650929833e-03 0.0000000000000000e+00  -2.4383387035145601e-06 2.9829889741525346e-06 0.0000000000000000e+00  4.4664432154182028e-07 5.3322694065197866e-07 0.0000000000000000e+00  -1.1286750213984774e-04 3.2467563158334171e-03 0.0000000000000000e+00  -1.5473986710081902e-05 2.4434109438497842e-05 0.0000000000000000e+00  -2.9254767880390124e-05 1.2894059070568899e-03 0.00000