<?xml version="1.0"?>
<VTKFile type="UnstructuredGrid"  version="0.1"  >
<UnstructuredGrid>
<Piece  NumberOfPoints="1419" NumberOfCells="2698">
<Points>
<DataArray  type="Float64"  NumberOfComponents="3"  format="ascii">0 0 0  0 0.41 0  2.5 0 0  2.5 0.41 0  0.6 0.19 0  0.6 0.21 0  0.25 0.2 0  0.15 0.2 0  0.2489897948556636 0.21 0  0.2489897948556636 0.19 0  0.6 0.2 0  0 0.3807142857143437 0  0 0.3514285714286952 0  0 0.3221428571430699 0  0 0.29285714285744 0  0 0.2635714285718054 0  0 0.2342857142861561 0  0 0.2050000000005308 0  0 0.175714285714732 0  0 0.1464285714289574 0  0 0.1171428571431897 0  0 0.08785714285737878 0  0 0.05857142857161107 0  0 0.02928571428580012 0  0.03015443760436003 0 0  0.06140001986583606 0 0  0.09377624077125973 0 0  0.1273239957535082 0 0  0.1620856860351972 0 0  0.1981052433264291 0 0  0.235428184091502 0 0  0.2741016576309132 0 0  0.3141745521465447 0 0  0.3556974926295285 0 0  0.3987229542472677 0 0  0.4433053055141081 0 0  0.4895008759286886 0 0  0.5373680609405097 0 0  0.5869673343216626 0 0  0.6383613676634521 0 0  0.6916151138468254 0 0  0.7467958595648856 0 0  0.8039733463919316 0 0  0.8632198139502143 0 0  0.9246101326867038 0 0  0.9882218810934433 0 0  1.054135445558498 0 0  1.122434100542598 0 0  1.193204177141305 0 0  1.266535089879536 0 0  1.342519516046404 0 0  1.421253448503939 0 0  1.502836389106271 0 0  1.587371439758838 0 0  1.674965418777374 0 0  1.765729001825544 0 0  1.859776908880082 0 0  1.957227977487062 0 0  2.058205329869943 0 0  2.162836591189951 0 0  2.271253957290865 0 0  2.383594446803425 0 0  2.5 0.1024999999997612 0  2.5 0.2049999999994743 0  2.5 0.3074999999997183 0  2.383594446803656 0.41 0  2.271253957291315 0.41 0  2.162836591190598 0.41 0  2.058205329870775 0.41 0  1.957227977488067 0.41 0  1.859776908881246 0.41 0  1.765729001826854 0.41 0  1.674965418778818 0.41 0  1.58737143976041 0.41 0  1.502836389107956 0.41 0  1.421253448505726 0.41 0  1.342519516048286 0.41 0  1.266535089881505 0.41 0  1.193204177143353 0.41 0  1.122434100544716 0.41 0  1.05413544556068 0.41 0  0.9882218810956305 0.41 0  0.9246101326886647 0.41 0  0.8632198139519631 0.41 0  0.8039733463934788 0.41 0  0.7467958595662458 0.41 0  0.6916151138480078 0.41 0  0.6383613676644679 0.41 0  0.5869673343225223 0.41 0  0.5373680609412221 0.41 0  0.4895008759292634 0.41 0  0.4433053055145528 0.41 0  0.3987229542475914 0.41 0  0.3556974926297398 0.41 0  0.3141745521466497 0.41 0  0.2741016576310038 0.41 0  0.2354281840915826 0.41 0  0.1981052433265003 0.41 0  0.1620856860352591 0.41 0  0.1273239957535623 0.41 0  0.09377624077128965 0.41 0  0.06140001986584975 0.41 0  0.03015443760436654 0.41 0  0.2497468076502589 0.2050254481002335 0  0.2497468076502614 0.1949745518997913 0  0.2469965252529372 0.1829317073451959 0  0.2439893735792749 0.1762316384219906 0  0.2400332147834255 0.1700443375285386 0  0.2352133972704371 0.1645032867342007 0  0.2296339016332438 0.1597280261969788 0  0.2234150974217223 0.1558215752574715 0  0.2166911463437691 0.1528682099456123 0  0.2096071079204251 0.1509316448471593 0  0.2023158100364996 0.1500536585536553 0  0.194974551899914 0.1502531923497262 0  0.1877417105387872 0.1515259415822739 0  0.1807733240461124 0.153844448527136 0  0.1742197252835808 0.15715869474974 0  0.1682222986673531 0.1613971801805478 0  0.162910430003803 0.1664684656256651 0  0.1583987151779087 0.1722631454351573 0  0.1547844879126891 0.178656207771761 0  0.1521457199348551 0.1855097315605723 0  0.1505393388476355 0.1926758619366523 0  0.1505393388476328 0.2073241380633295 0  0.1521457199348437 0.2144902684393899 0  0.1547844879126531 0.221343792228163 0  0.1583987151778488 0.2277368545647528 0  0.1629104300036858 0.2335315343742052 0  0.1682222986671726 0.2386028198193036 0  0.1742197252833576 0.2428413052501257 0  0.1807733240458683 0.2461555514727623 0  0.1877417105384929 0.2484740584176516 0  0.1949745518995776 0.2497468076502398 0  0.202315810036185 0.2499463414463592 0  0.2096071079201568 0.2490683551528932 0  0.2166911463435495 0.2471317900544655 0  0.2234150974215506 0.2441784247426195 0  0.2296339016331197 0.2402719738031125 0  0.2352133972703547 0.2354967132658811 0  0.2400332147833751 0.2299556624715287 0  0.2439893735792577 0.2237683615780412 0  0.246996525252926 0.2170682926548348 0  0.25645809709277 0.21 0  0.2639263993298655 0.21 0  0.271394701566961 0.21 0  0.2788630038040554 0.21 0  0.2863313060411479 0.21 0  0.2937996082782405 0.21 0  0.301267910515333 0.21 0  0.3087362127524279 0.21 0  0.3162045149895234 0.21 0  0.3236728172265972 0.21 0  0.3311411194636928 0.21 0  0.3386094217007701 0.21 0  0.3460777239378666 0.21 0  0.3535460261749672 0.21 0  0.3610143284120516 0.21 0  0.3684826306491596 0.21 0  0.3759509328862226 0.21 0  0.383419235123329 0.21 0  0.3908875373604028 0.21 0  0.3983558395975142 0.21 0  0.4058241418345938 0.21 0  0.4132924440716992 0.21 0  0.4207607463087888 0.21 0  0.4282290485459029 0.21 0  0.4356973507830418 0.21 0  0.4431656530201649 0.21 0  0.4506339552573136 0.21 0  0.4581022574944306 0.21 0  0.4655705597315852 0.21 0  0.4730388619686996 0.21 0  0.480507164205851 0.21 0  0.4879754664429498 0.21 0  0.4954437686800938 0.21 0  0.502912070917267 0.21 0  0.5103803731544119 0.21 0  0.5178486753915261 0.21 0  0.5253169776286404 0.21 0  0.5327852798657868 0.21 0  0.5402535821029386 0.21 0  0.54772188434007 0.21 0  0.5551901865771842 0.21 0  0.5626584888143201 0.21 0  0.5701267910514778 0.21 0  0.5775950932886138 0.21 0  0.5850633955257281 0.21 0  0.5925316977628483 0.21 0  0.6 0.2050000000000054 0  0.6 0.1950000000000217 0  0.5925316977628897 0.19 0  0.5850633955257988 0.19 0  0.5775950932887378 0.19 0  0.5701267910515998 0.19 0  0.5626584888145268 0.19 0  0.5551901865773963 0.19 0  0.547721884340339 0.19 0  0.5402535821032429 0.19 0  0.5327852798661811 0.19 0  0.5253169776290537 0.19 0  0.5178486753919799 0.19 0  0.5103803731549078 0.19 0  0.502912070917822 0.19 0  0.4954437686807294 0.19 0  0.4879754664436223 0.19 0  0.4805071642065402 0.19 0  0.4730388619694271 0.19 0  0.4655705597323621 0.19 0  0.4581022574952563 0.19 0  0.4506339552581777 0.19 0  0.4431656530210671 0.19 0  0.4356973507839815 0.19 0  0.4282290485468779 0.19 0  0.4207607463097617 0.19 0  0.4132924440726327 0.19 0  0.4058241418354857 0.19 0  0.3983558395983636 0.19 0  0.3908875373612097 0.19 0  0.3834192351240934 0.19 0  0.3759509328869369 0.19 0  0.3684826306498175 0.19 0  0.361014328412667 0.19 0  0.3535460261755617 0.19 0  0.3460777239384295 0.19 0  0.3386094217012945 0.19 0  0.3311411194641595 0.19 0  0.3236728172270245 0.19 0  0.3162045149898895 0.19 0  0.3087362127527544 0.19 0  0.3012679105156187 0.19 0  0.2937996082784807 0.19 0  0.2863313060413428 0.19 0  0.2788630038042048 0.19 0  0.2713947015670686 0.19 0  0.2639263993299336 0.19 0  0.2564580970927985 0.19 0  0.2607803159922026 0.2000727136295815 0  0.5887803774232762 0.2001272386983733 0  0.5745072403740523 0.2002044435018727 0  0.5511891430099709 0.2001122610077113 0  0.2751288526855082 0.20000000000002 0  0.5365194309847112 0.1999999999999436 0  0.2894621222999649 0.1998691686390484 0  0.5215828265105155 0.1999999999999228 0  0.3127789816668748 0.1998657885438805 0  0.3274069683451451 0.2000000000000796 0  0.5066462220363641 0.199999999999908 0  0.3650630746574081 0.199866017807523 0  0.476773013087985 0.1999999999998713 0  0.3417402379596385 0.1998691686391011 0  0.3796850840047755 0.200000000000134 0  0.4618364086138087 0.1999999999998546 0  0.4917096175621762 0.1999999999998808 0  0.3946216884789568 0.2000000000001512 0  0.446899804139621 0.1999999999998389 0  0.4089549580935208 0.1998691686391595 0  0.4322718174608562 0.200127451265745 0  0.4201487168029707 0.1999966199048527 0  0.3528922713220932 0.2000185703532356 0  0.5633122436674589 0.1999814296467508 0  0.3006558810093873 0.1999966199048318 0  0.5815926498168407 0.1966545283159175 0  0.2677053789419034 0.1964246479135325 0  0.5290511287476175 0.1970915826863981 0  0.5439877332217911 0.197091582686394 0  0.2825131256993216 0.2035478995978015 0  0.3199386661080599 0.202908417313604 0  0.4842413153250809 0.1970915826863873 0  0.5141145242734466 0.1970915826863843 0  0.3722167817676917 0.2029084173136195 0  0.4693047108508938 0.1970915826863783 0  0.3348752705822316 0.202908417313609 0  0.3871533862418661 0.2029084173136212 0  0.4543681063767183 0.1970915826863795 0  0.4991779197992749 0.1970915826863902 0  0.4020059614928624 0.203547899597858 0  0.4394315019025246 0.1970915826863714 0  0.2550657455369551 0.2034088125358657 0  0.2548908499171161 0.1966940311614271 0  0.5946539510196798 0.2024302972968126 0  0.267698176732111 0.2039977513680092 0  0.4261685417851465 0.196409292431739 0  0.3590076176283495 0.196411355804271 0  0.5571672426447437 0.2036011176410121 0  0.3066757059912147 0.1964092924317024 0  0.594380730180568 0.1966558399668133 0  0.4842413153245942 0.2040749161535287 0  0.4693047108503577 0.2040749161535231 0  0.3871533862424271 0.1959250838464788 0  0.372246743208829 0.1959123236376545 0  0.5141145242731028 0.2040749161535395 0  0.4543681063761134 0.2040749161535186 0  0.4019979587101454 0.1959834479682427 0  0.4394608940728603 0.2040870543693135 0  0.5439623148931173 0.2040856076781014 0  0.5290511287473298 0.2040749161535501 0  0.4991779197988497 0.2040749161535382 0  0.3347912413592433 0.1959225448935183 0  0.3199680582793816 0.1959123018030061 0  0.2825051229162361 0.1959834479681729 0  0.3590471196690275 0.2036304442587945 0  0.5571594006495384 0.1963685282145804 0  0.3067669986803285 0.203627750582736 0  0.4262598344738712 0.2036568242185335 0  0.5814408164431408 0.2041285596160068 0  0.5688286748170428 0.1961819304477386 0  0.4145905603063645 0.2038180695522843 0  0.3473758401724931 0.2038180695522752 0  0.2950977245128307 0.2038180695522663 0  0.5688286748170693 0.203818069552238 0  0.2950977245127906 0.1961819304477774 0  0.3473758401723931 0.1961819304478349 0  0.4145905603061963 0.1961819304479011 0  0.2601812407614425 0.2056861609747042
[...]
<PointData  Vectors="f_40-0"> 
<DataArray  type="Float64"  Name="f_40-0"  NumberOfComponents="3" format="ascii">0.0000000000000000e+00 0.0000000000000000e+00 0.0000000000000000e+00  0.0000000000000000e+00 0.0000000000000000e+00 0.0000000000000000e+00  0.0000000000000000e+00 0.0000000000000000e+00 0.0000000000000000e+00  0.0000000000000000e+00 0.0000000000000000e+00 0.0000000000000000e+00  -1.2697613031844565e-04 -9.2818709900632725e-04 0.0000000000000000e+00  1.6958832890755326e-05 -9.2970988455133151e-04 0.0000000000000000e+00  0.0000000000000000e+00 0.0000000000000000e+00 0.0000000000000000e+00  0.0000000000000000e+00 0.0000000000000000e+00 0.0000000000000000e+00  0.0000000000000000e+00 0.0000000000000000e+00 0.0000000000000000e+00  0.0000000000000000e+00 0.0000000000000000e+00 0.0000000000000000e+00  -5.5513607097743654e-05 -9.2890703475709724e-04 0.0000000000000000e+00  4.0052212853348396e-01 0.0000000000000000e+00 0.0000000000000000e+00  7.3942546806186549e-01 0.0000000000000000e+00 0.0000000000000000e+00  1.0167100185850653e+00 0.0000000000000000e+00 0.0000000000000000e+00  1.2323757801034041e+00 0.0000000000000000e+00 0.0000000000000000e+00  1.3864227526168542e+00 0.0000000000000000e+00 0.0000000000000000e+00  1.4788509361254063e+00 0.0000000000000000e+00 0.0000000000000000e+00  1.5096603306289684e+00 0.0000000000000000e+00 0.0000000000000000e+00  1.4788509361272750e+00 0.0000000000000000e+00 0.0000000000000000e+00  1.3864227526200641e+00 0.0000000000000000e+00 0.0000000000000000e+00  1.2323757801073794e+00 0.0000000000000000e+00 0.0000000000000000e+00  1.0167100185888416e+00 0.0000000000000000e+00 0.0000000000000000e+00  7.3942546806508802e-01 0.0000000000000000e+00 0.0000000000000000e+00  4.0052212853529962e-01 0.0000000000000000e+00 0.0000000000000000e+00  0.0000000000000000e+00 0.0000000000000000e+00 0.0000000000000000e+00  0.0000000000000000e+00 0.0000000000000000e+00 0.0000000000000000e+00  0.0000000000000000e+00 0.0000000000000000e+00 0.0000000000000000e+00  0.0000000000000000e+00 0.0000000000000000e+00 0.0000000000000000e+00  0.0000000000000000e+00 0.0000000000000000e+00 0.0000000000000000e+00  0.0000000000000000e+00 0.0000000000000000e+00 0.0000000000000000e+00  0.0000000000000000e+00 0.0000000000000000e+00 0.0000000000000000e+00  0.0000000000000000e+00 0.0000000000000000e+00 0.0000000000000000e+00  0.0000000000000000e+00 0.0000000000000000e+00 0.0000000000000000e+00  0.0000000000000000e+00 0.0000000000000000e+00 0.0000000000000000e+00  0.0000000000000000e+00 0.0000000000000000e+00 0.0000000000000000e+00  0.0000000000000000e+00 0.0000000000000000e+00 0.0000000000000000e+00  0.0000000000000000e+00 0.0000000000000000e+00 0.0000000000000000e+00  0.0000000000000000e+00 0.0000000000000000e+00 0.0000000000000000e+00  0.0000000000000000e+00 0.0000000000000000e+00 0.0000000000000000e+00  0.0000000000000000e+00 0.0000000000000000e+00 0.0000000000000000e+00  0.0000000000000000e+00 0.0000000000000000e+00 0.0000000000000000e+00  0.0000000000000000e+00 0.0000000000000000e+00 0.0000000000000000e+00  0.0000000000000000e+00 0.0000000000000000e+00 0.0000000000000000e+00  0.0000000000000000e+00 0.0000000000000000e+00 0.0000000000000000e+00  0.0000000000000000e+00 0.0000000000000000e+00 0.0000000000000000e+00  0.0000000000000000e+00 0.0000000000000000e+00 0.0000000000000000e+00  0.0000000000000000e+00 0.0000000000000000e+00 0.0000000000000000e+00  0.0000000000000000e+00 0.0000000000000000e+00 0.0000000000000000e+00  0.0000000000000000e+00 0.0000000000000000e+00 0.0000000000000000e+00  0.0000000000000000e+00 0.0000000000000000e+00 0.0000000000000000e+00  0.0000000000000000e+00 0.0000000000000000e+00 0.0000000000000000e+00  0.0000000000000000e+00 0.0000000000000000e+00 0.0000000000000000e+00  0.0000000000000000e+00 0.0000000000000000e+00 0.0000000000000000e+00  0.0000000000000000e+00 0.0000000000000000e+00 0.0000000000000000e+00  0.0000000000000000e+00 0.0000000000000000e+00 0.0000000000000000e+00  0.0000000000000000e+00 0.0000000000000000e+00 0.0000000000000000e+00  0.0000000000000000e+00 0.0000000000000000e+00 0.0000000000000000e+00  0.0000000000000000e+00 0.0000000000000000e+00 0.0000000000000000e+00  0.0000000000000000e+00 0.0000000000000000e+00 0.0000000000000000e+00  0.0000000000000000e+00 0.0000000000000000e+00 0.0000000000000000e+00  0.0000000000000000e+00 0.0000000000000000e+00 0.0000000000000000e+00  0.0000000000000000e+00 0.0000000000000000e+00 0.0000000000000000e+00  1.3741085276725096e+00 -3.6246185169139904e-02 0.0000000000000000e+00  1.0684601130582940e+00 1.3790896357932037e-02 0.0000000000000000e+00  1.3604830635986247e+00 5.1122731537683368e-02 0.0000000000000000e+00  0.0000000000000000e+00 0.0000000000000000e+00 0.0000000000000000e+00  0.0000000000000000e+00 0.0000000000000000e+00 0.0000000000000000e+00  0.0000000000000000e+00 0.0000000000000000e+00 0.0000000000000000e+00  0.0000000000000000e+00 0.0000000000000000e+00 0.0000000000000000e+00  0.0000000000000000e+00 0.0000000000000000e+00 0.0000000000000000e+00  0.0000000000000000e+00 0.0000000000000000e+00 0.0000000000000000e+00  0.0000000000000000e+00 0.0000000000000000e+00 0.0000000000000000e+00  0.0000000000000000e+00 0.0000000000000000e+00 0.0000000000000000e+00  0.0000000000000000e+00 0.0000000000000000e+00 0.0000000000000000e+00  0.0000000000000000e+00 0.0000000000000000e+00 0.0000000000000000e+00  0.0000000000000000e+00 0.0000000000000000e+00 0.0000000000000000e+00  0.0000000000000000e+00 0.0000000000000000e+00 0.0000000000000000e+00  0.0000000000000000e+00 0.0000000000000000e+00 0.0000000000000000e+00  0.0000000000000000e+00 0.0000000000000000e+00 0.0000000000000000e+00  0.0000000000000000e+00 0.0000000000000000e+00 0.0000000000000000e+00  0.0000000000000000e+00 0.0000000000000000e+00 0.0000000000000000e+00  0.0000000000000000e+00 0.0000000000000000e+00 0.0000000000000000e+00  0.0000000000000000e+00 0.0000000000000000e+00 0.0000000000000000e+00  0.0000000000000000e+00 0.0000000000000000e+00 0.0000000000000000e+00  0.0000000000000000e+00 0.0000000000000000e+00 0.0000000000000000e+00  0.0000000000000000e+00 0.0000000000000000e+00 0.0000000000000000e+00  0.0000000000000000e+00 0.0000000000000000e+00 0.0000000000000000e+00  0.0000000000000000e+00 0.0000000000000000e+00 0.0000000000000000e+00  0.0000000000000000e+00 0.0000000000000000e+00 0.0000000000000000e+00  0.0000000000000000e+00 0.0000000000000000e+00 0.0000000000000000e+00  0.0000000000000000e+00 0.0000000000000000e+00 0.0000000000000000e+00  0.0000000000000000e+00 0.0000000000000000e+00 0.0000000000000000e+00  0.0000000000000000e+00 0.0000000000000000e+00 0.0000000000000000e+00  0.0000000000000000e+00 0.0000000000000000e+00 0.0000000000000000e+00  0.0000000000000000e+00 0.0000000000000000e+00 0.0000000000000000e+00  0.0000000000000000e+00 0.0000000000000000e+00 0.0000000000000000e+00  0.0000000000000000e+00 0.0000000000000000e+00 0.0000000000000000e+00  0.0000000000000000e+00 0.0000000000000000e+00 0.0000000000000000e+00  0.0000000000000000e+00 0.0000000000000000e+00 0.0000000000000000e+00  0.0000000000000000e+00 0.0000000000000000e+00 0.0000000000000000e+00  0.0000000000000000e+00 0.0000000000000000e+00 0.0000000000000000e+00  0.0000000000000000e+00 0.0000000000000000e+00 0.0000000000000000e+00  0.0000000000000000e+00 0.0000000000000000e+00 0.0000000000000000e+00  0.0000000000000000e+00 0.0000000000000000e+00 0.0000000000000000e+00  0.0000000000000000e+00 0.0000000000000000e+00 0.0000000000000000e+00  0.0000000000000000e+00 0.0000000000000000e+00 0.0000000000000000e+00  0.0000000000000000e+00 0.0000000000000000e+00 0.0000000000000000e+00  0.0000000000000000e+00 0.0000000000000000e+00 0.0000000000000000e+00  0.0000000000000000e+00 0.0000000000000000e+00 0.0000000000000000e+00  0.0000000000000000e+00 0.0000000000000000e+00 0.0000000000000000e+00  0.0000000000000000e+00 0.0000000000000000e+00 0.0000000000000000e+00  0.0000000000000000e+00 0.0000000000000000e+00 0.0000000000000000e+00  0.0000000000000000e+00 0.0000000000000000e+00 0.0000000000000000e+00  0.0000000000000000e+00 0.0000000000000000e+00 0.0000000000000000e+00  0.0000000000000000e+00 0.0000000000000000e+00 0.0000000000000000e+00  0.0000000000000000e+00 0.0000000000000000e+00 0.0000000000000000e+00  0.0000000000000000e+00 0.0000000000000000e+00 0.0000000000000000e+00  0.0000000000000000e+00 0.0000000000000000e+00 0.0000000000000000e+00  0.0000000000000000e+00 0.0000000000000000e+00 0.0000000000000000e+00  0.0000000000000000e+00 0.0000000000000000e+00 0.0000000000000000e+00  0.0000000000000000e+00 0.0000000000000000e+00 0.0000000000000000e+00  0.0000000000000000e+00 0.0000000000000000e+00 0.0000000000000000e+00  0.0000000000000000e+00 0.0000000000000000e+00 0.0000000000000000e+00  0.0000000000000000e+00 0.0000000000000000e+00 0.0000000000000000e+00  0.0000000000000000e+00 0.0000000000000000e+00 0.0000000000000000e+00  0.0000000000000000e+00 0.0000000000000000e+00 0.0000000000000000e+00  0.0000000000000000e+00 0.0000000000000000e+00 0.0000000000000000e+00  0.0000000000000000e+00 0.0000000000000000e+00 0.0000000000000000e+00  0.0000000000000000e+00 0.0000000000000000e+00 0.0000000000000000e+00  0.0000000000000000e+00 0.0000000000000000e+00 0.0000000000000000e+00  0.0000000000000000e+00 0.0000000000000000e+00 0.0000000000000000e+00  0.0000000000000000e+00 0.0000000000000000e+00 0.0000000000000000e+00  0.0000000000000000e+00 0.0000000000000000e+00 0.0000000000000000e+00  0.0000000000000000e+00 0.0000000000000000e+00 0.0000000000000000e+00  0.0000000000000000e+00 0.0000000000000000e+00 0.0000000000000000e+00  0.0000000000000000e+00 0.0000000000000000e+00 0.0000000000000000e+00  0.0000000000000000e+00 0.0000000000000000e+00 0.0000000000000000e+00  0.0000000000000000e+00 0.0000000000000000e+00 0.0000000000000000e+00  0.0000000000000000e+00 0.0000000000000000e+00 0.0000000000000000e+00  0.0000000000000000e+00 0.0000000000000000e+00 0.0000000000000000e+00  0.0000000000000000e+00 0.0000000000000000e+00 0.0000000000000000e+00  0.0000000000000000e+00 0.0000000000000000e+00 0.0000000000000000e+00  0.0000000000000000e+00 0.0000000000000000e+00 0.0000000000000000e+00  -7.3556823953090090e-06 8.3460762726454238e-06 0.0000000000000000e+00  -1.4834919248767044e-05 1.5492080864183659e-05 0.0000000000000000e+00  -2.1237052946634890e-05 2.5340121001816380e-05 0.0000000000000000e+00  -2.7278257918949231e-05 3.8034600930730458e-05 0.0000000000000000e+00  -3.2193535489389079e-05 5.2272813831211877e-05 0.0000000000000000e+00  -3.6578453250304043e-05 6.8058442064782720e-05 0.0000000000000000e+00  -4.0112579078889479e-05 8.4422518876890008e-05 0.0000000000000000e+00  -4.3001881496872766e-05 1.0111431271888561e-04 0.0000000000000000e+00  -4.5238808998509428e-05 1.1763982138167560e-04 0.0000000000000000e+00  -4.6982655738775066e-05 1.3339538221182842e-04 0.0000000000000000e+00  -4.7782806902462474e-05 1.4820927798301015e-04 0.0000000000000000e+00  -4.8498438442068888e-05 1.6135197108360229e-04 0.0000000000000000e+00  -4.8110909088717579e-05 1.7270940697864670e-04 0.0000000000000000e+00  -4.7850739568312418e-05 1.8216157027375519e-04 0.0000000000000000e+00  -4.7106560094906658e-05 1.8884748942404948e-04 0.0000000000000000e+00  -4.5323814139756187e-05 1.9314299632009548e-04 0.0000000000000000e+00  -4.4023908636691640e-05 1.9443649735367897e-04 0.0000000000000000e+00  -4.1378766942562039e-05 1.9279045131645134e-04 0.0000000000000000e+00  -3.9529300754330911e-05 1.8777129968482878e-04 0.0000000000000000e+00  -3.6412360599126368e-05 1.7975536789121828e-04 0.0000000000000000e+00  -3.3929690832943571e-05 1.6812656898501833e-04 0.0000000000000000e+00  -3.0438444360638033e-05 1.5308861367078379e-04 0.0000000000000000e+00  -2.7729443237295491e-05 1.3523449866480346e-04 0.0000000000000000e+00  -2.4830612418132192e-05 1.1356619129324282e-04 0.0000000000000000e+00  -2.1189259767761131e-05 8.9248368420274482e-05 0.0000000000000000e+00  -1.8067421890570522e-05 6.1457557136866201e-05 0.0000000000000000e+00  -1.4671242231628328e-05 3.0829822890254492e-05 0.0000000000000000e+00  -1.1602149731499192e-05 -2.6444514934802863e-06 0.0000000000000000e+00  -8.3607225444372417e-06 -3.8769224664625012e-05 0.0000000000000000e+00  -5.4823639103165862e-06 -7.7337487244554513e-05 0.0000000000000000e+00  -2.5163086835742564e-06 -1.1822505816914683e-04 0.0000000000000000e+00  7.5071663733316915e-08 -1.6114278957866823e-04 0.0000000000000000e+00  2.6670135154739595e-06 -2.0599940314177547e-04 0.0000000000000000e+00  4.9029679710258187e-06 -2.5246486744303812e-04 0.0000000000000000e+00  7.0699292137192265e-06 -3.0046880066836730e-04 0.0000000000000000e+00  8.8850575833203943e-06 -3.4964957286322224e-04 0.0000000000000000e+00  1.0590442485844329e-05 -3.9998707769890913e-04 0.0000000000000000e+00  1.1982474547946245e-05 -4.5112196633417633e-04 0.0000000000000000e+00  1.3244048821174397e-05 -5.0306669588258933e-04 0.0000000000000000e+00  1.4230578496282862e-05 -5.5548239637427340e-04 0.0000000000000000e+00  1.5083916791235433e-05 -6.0843380136900861e-04 0.0000000000000000e+00  1.5695893742267651e-05 -6.6159654880845113e-04 0.0000000000000000e+00  1.6144508040684469e-05 -7.1502616101190369e-04 0.0000000000000000e+00  1.6522157758190756e-05 -7.6855180875284499e-04 0.0000000000000000e+00  1.6708177563344690e-05 -8.2212436738636875e-04 0.0000000000000000e+00  1.6818853098571911e-05 -8.7578913171710367e-04 0.0000000000000000e+00  -1.9464166133046199e-05 -9.2929924441063612e-04 0.0000000000000000e+00  -9.1390447220268594e-05 -9.2853675911480800e-04 0.0000000000000000e+00  -1.2701726293531178e-04 -8.7456247100092311e-04 0.0000000000000000e+00  -1.2696328389861928e-04 -8.2076244435391331e-04 0.0000000000000000e+00  -1.2691304587554052e-04 -7.6698243905056309e-04 0.0000000000000000e+00  -1.2682434811397123e-04 -7.1333748365662016e-04 0.0000000000000000e+00  -1.2673043301443315e-04 -6.5982078753568042e-04 0.0000000000000000e+00  -1.2656840515315609e-04 -6.0658722429814637e-04 0.0000000000000000e+00  -1.2620814060603107e-04 -5.5365255453339822e-04 0.0000000000000000e+00  -1.2584958764159465e-04 -5.0119956068022710e-04 0.0000000000000000e+00  -1.2510757041456176e-04 -4.4931331169520135e-04 0.0000000000000000e+00  -1.2441989584668380e-04 -3.9823428407401623e-04 0.0000000000000000e+00  -1.2317726182627600e-04 -3.4801209586014851e-04 0.0000000000000000e+00  -1.2203849848284208e-04 -2.9897533463909886e-04 0.0000000000000000e+00  -1.2016026081067087e-04 -2.5114592785792388e-04 0.0000000000000000e+00  -1.1847135146023130e-04 -2.0492334826079098e-04 0.0000000000000000e+00  -1.1587224346999432e-04 -1.6030139147863476e-04 0.0000000000000000e+00  -1.1357253690408299e-04 -1.1771476327752207e-04 0.0000000000000000e+00  -1.1020499341960945e-04 -7.7121976956210221e-05 0.0000000000000000e+00  -1.0725358192541343e-04 -3.8977807327031673e-05 0.0000000000000000e+00  -1.0309173252206330e-04 -3.1889170796409078e-06 0.0000000000000000e+00  -9.9481688961396890e-05 2.9792854205613583e-05 0.0000000000000000e+00  -9.4540814286699537e-05 6.0061601239593132e-05 0.0000000000000000e+00  -9.0277549574491225e-05 8.7198166199995567e-05 0.0000000000000000e+00  -8.4705628988661200e-05 1.1126775655542125e-04 0.0000000000000000e+00  -7.9723473938771619e-05 1.3238894763335738e-04 0.0000000000000000e+00  -7.4523275367905390e-05 1.4975581372324767e-04 0.0000000000000000e+00  -6.8408449231220582e-05 1.6445310452089100e-04 0.0000000000000000e+00  -6.2703330880964865e-05 1.7543306918630684e-04 0.0000000000000000e+00  -5.6504152020471379e-05 1.8329250245477109e-04 0.0000000000000000e+00  -5.0616976720084949e-05 1.8777771987966087e-04 0.0000000000000000e+00  -4.4441355531368225e-05 1.8915741810984421e-04 0.0000000000000000e+00  -3.8628315426876936e-05 1.8757050969775432e-04 0.0000000000000000e+00  -3.2470930179041064e-05 1.8284349966315617e-04 0.0000000000000000e+00  -2.7108056857961029e-05 1.7592626766459743e-04 0.0000000000000000e+00  -2.1999074122721948e-05 1.6623945797289145e-04 0.0000000000000000e+00  -1.6664922026974615e-05 1.5480232403078725e-04 0.0000000000000000e+00  -1.2043116120316706e-05 1.4141626193292311e-04 0.0000000000000000e+00  -7.6887380427457823e-06 1.2648655088824226e-04 0.0000000000000000e+00  -3.9210676384836263e-06 1.1063715730672372e-04 0.0000000000000000e+00  -6.7356956636809598e-07 9.4004137508217340e-05 0.0000000000000000e+00  2.0248448353259698e-06 7.7270894720590379e-05 0.0000000000000000e+00  4.1463021155811440e-06 6.0871852666599708e-05 0.0000000000000000e+00  5.4956273574455821e-06 4.5028853825575763e-05 0.0000000000000000e+00  6.2653829707280714e-06 3.0668492308431080e-05 0.0000000000000000e+00  5.8662137652011268e-06 1.8034491080123337e-05 0.0000000000000000e+00  5.0819778368899549e-06 8.2785879138991343e-06 0.0000000000000000e+00  2.7191257037836297e-06 1.6076879300886269e-06 0.0000000000000000e+00  -3.1663429418638646e-06 6.1277398644130924e-06 0.0000000000000000e+00  -5.4416099424083416e-05 -8.4814549435613016e-04 0.0000000000000000e+00  -5.3883517933053243e-05 -7.4550061703053004e-04 0.0000000000000000e+00  -5.5163163119303350e-05 -5.7881477297749785e-04 0.0000000000000000e+00  -9.0212442275374794e-06 2.6249879464935741e-05 0.0000000000000000e+00  -5.6498482289772023e-05 -4.7563511174611417e-04 0.0000000000000000e+00  -1.4285530254742688e-05 5.4317276787482360e-05 0.0000000000000000e+00  -5.7078767798102716e-05 -3.7317587037550995e-04 0.0000000000000000e+00  -2.3003254679871491e-05 1.0680268968715875e-04 0.0000000000000000e+00  -2.8561684921472660e-05 1.3830324891622446e-04 0.0000000000000000e+00  -5.7582418397371164e-05 -2.7467603903608568e-04 0.0000000000000000e+00  -4.0855214342336660e-05 1.9038331035687762e-04 0.0000000000000000e+00  -5.7916666576901063e-05 -9.5902678263673637e-05 0.0000000000000000e+00  -3.3334173878443202e-05 1.6432786827693516e-04 0.0000000000000000e+00  -4.4979467110887470e-05 1.9337804149987080e-04 0.0000000000000000e+00  -5.7522353700630500e-05 -1.8912552407207489e-05 0.0000000000000000e+00  -5.7898998870322630e-05 -1.8169872120146784e-04 0.0000000000000000e+00  -4.8631179433068910e-05 1.8407077839636678e-04 0.0000000000000000e+00  -5.6630671503586011e-05 4.7750300883230943e-05 0.0000000000000000e+00  -5.1868707306418383e-05 1.6266375664484919e-04 0.0000000000000000e+00  -5.4772145364756429e-05 1.0177523617539735e-04 0.0000000000000000e+00  -5.3463665527246695e-05 1.3692882126585873e-04 0.0000000000000000e+00  -3.7169801045502970e-05 1.7939450164853110e-04 0.0000000000000000e+00  -5.5743011962006606e-05 -6.6524785186660449e-04 0.0000000000000000e+00  -1.8753466765135635e-05 7.9279554850915739e-05 0.0000000000000000e+00  -7.9301724638735876e-05 -7.9620175773502172e-04 0.0000000000000000e+00  -1.9159336715696877e-06 1.3526880068323617e-05 0.0000000000000000e+00  -7.6551127462408283e-05 -4.2382214858299131e-04 0.0000000000000000e+00  -7.6510833336166279e-05 -5.2770223629402082e-04 0.0000000000000000e+00  -1.8072986213790438e-05 4.1499272869835299e-05 0.0000000000000000e+00  -3.1687317653233385e-05 1.2361416323234905e-04 0.0000000000000000e+00  -7.4427752556806799e-05 -1.3788238807889804e-04 0.0000000000000000e+00  -7.6307553863363877e-05 -3.2322228439677448e-04 0.0000000000000000e+00  -4.3350998155497285e-05 1.9383458772443974e-04 0.0000000000000000e+00  -7.2554918711291691e-05 -5.6424042526921607e-05 0.0000000000000000e+00  -3.6087089648838871e-05 1.5348686138481180e-04 0.0000000000000000e+00  -4.4971456048049544e-05 1.9075649340873836e-04 0.0000000000000000e+00  -6.9935735623551982e-05 1.5444031586723146e-05 0.0000000000000000e+00  -7.5641931917816126e-05 -2.2736426257373831e-04 0.0000000000000000e+00  -4.4933494559521060e-05 1.7496647249649251e-04 0.0000000000000000e+00  -6.6575511010298128e-05 7.6284563046805499e-05 0.0000000000000000e+00  -1.9281138842041512e-06 2.6230381628887886e-06 0.0000000000000000e+00  -3.1559913476758764e-07 9.1276947896926277e-07 0.0000000000000000e+00  -3.7934743388603990e-05 -8.9057073906840839e-04 0.0000000000000000e+00  -1.0715529167921004e-05 1.642757652762