<?xml version="1.0"?>
<VTKFile type="UnstructuredGrid"  version="0.1"  >
<UnstructuredGrid>
<Piece  NumberOfPoints="1419" NumberOfCells="2698">
<Points>
<DataArray  type="Float64"  NumberOfComponents="3"  format="ascii">0 0 0  0 0.41 0  2.5 0 0  2.5 0.41 0  0.6 0.19 0  0.6 0.21 0  0.25 0.2 0  0.15 0.2 0  0.2489897948556636 0.21 0  0.2489897948556636 0.19 0  0.6 0.2 0  0 0.3807142857143437 0  0 0.3514285714286952 0  0 0.3221428571430699 0  0 0.29285714285744 0  0 0.2635714285718054 0  0 0.2342857142861561 0  0 0.2050000000005308 0  0 0.175714285714732 0  0 0.1464285714289574 0  0 0.1171428571431897 0  0 0.08785714285737878 0  0 0.05857142857161107 0  0 0.02928571428580012 0  0.03015443760436003 0 0  0.06140001986583606 0 0  0.09377624077125973 0 0  0.1273239957535082 0 0  0.1620856860351972 0 0  0.1981052433264291 0 0  0.235428184091502 0 0  0.2741016576309132 0 0  0.3141745521465447 0 0  0.3556974926295285 0 0  0.3987229542472677 0 0  0.4433053055141081 0 0  0.4895008759286886 0 0  0.5373680609405097 0 0  0.5869673343216626 0 0  0.6383613676634521 0 0  0.6916151138468254 0 0  0.7467958595648856 0 0  0.8039733463919316 0 0  0.8632198139502143 0 0  0.9246101326867038 0 0  0.9882218810934433 0 0  1.054135445558498 0 0  1.122434100542598 0 0  1.193204177141305 0 0  1.266535089879536 0 0  1.342519516046404 0 0  1.421253448503939 0 0  1.502836389106271 0 0  1.587371439758838 0 0  1.674965418777374 0 0  1.765729001825544 0 0  1.859776908880082 0 0  1.957227977487062 0 0  2.058205329869943 0 0  2.162836591189951 0 0  2.271253957290865 0 0  2.383594446803425 0 0  2.5 0.1024999999997612 0  2.5 0.2049999999994743 0  2.5 0.3074999999997183 0  2.383594446803656 0.41 0  2.271253957291315 0.41 0  2.162836591190598 0.41 0  2.058205329870775 0.41 0  1.957227977488067 0.41 0  1.859776908881246 0.41 0  1.765729001826854 0.41 0  1.674965418778818 0.41 0  1.58737143976041 0.41 0  1.502836389107956 0.41 0  1.421253448505726 0.41 0  1.342519516048286 0.41 0  1.266535089881505 0.41 0  1.193204177143353 0.41 0  1.122434100544716 0.41 0  1.05413544556068 0.41 0  0.9882218810956305 0.41 0  0.9246101326886647 0.41 0  0.8632198139519631 0.41 0  0.8039733463934788 0.41 0  0.7467958595662458 0.41 0  0.6916151138480078 0.41 0  0.6383613676644679 0.41 0  0.5869673343225223 0.41 0  0.5373680609412221 0.41 0  0.4895008759292634 0.41 0  0.4433053055145528 0.41 0  0.3987229542475914 0.41 0  0.3556974926297398 0.41 0  0.3141745521466497 0.41 0  0.2741016576310038 0.41 0  0.2354281840915826 0.41 0  0.1981052433265003 0.41 0  0.1620856860352591 0.41 0  0.1273239957535623 0.41 0  0.09377624077128965 0.41 0  0.06140001986584975 0.41 0  0.03015443760436654 0.41 0  0.2497468076502589 0.2050254481002335 0  0.2497468076502614 0.1949745518997913 0  0.2469965252529372 0.1829317073451959 0  0.2439893735792749 0.1762316384219906 0  0.2400332147834255 0.1700443375285386 0  0.2352133972704371 0.1645032867342007 0  0.2296339016332438 0.1597280261969788 0  0.2234150974217223 0.1558215752574715 0  0.2166911463437691 0.1528682099456123 0  0.2096071079204251 0.1509316448471593 0  0.2023158100364996 0.1500536585536553 0  0.194974551899914 0.1502531923497262 0  0.1877417105387872 0.1515259415822739 0  0.1807733240461124 0.153844448527136 0  0.1742197252835808 0.15715869474974 0  0.1682222986673531 0.1613971801805478 0  0.162910430003803 0.1664684656256651 0  0.1583987151779087 0.1722631454351573 0  0.1547844879126891 0.178656207771761 0  0.1521457199348551 0.1855097315605723 0  0.1505393388476355 0.1926758619366523 0  0.1505393388476328 0.2073241380633295 0  0.1521457199348437 0.2144902684393899 0  0.1547844879126531 0.221343792228163 0  0.1583987151778488 0.2277368545647528 0  0.1629104300036858 0.2335315343742052 0  0.1682222986671726 0.2386028198193036 0  0.1742197252833576 0.2428413052501257 0  0.1807733240458683 0.2461555514727623 0  0.1877417105384929 0.2484740584176516 0  0.1949745518995776 0.2497468076502398 0  0.202315810036185 0.2499463414463592 0  0.2096071079201568 0.2490683551528932 0  0.2166911463435495 0.2471317900544655 0  0.2234150974215506 0.2441784247426195 0  0.2296339016331197 0.2402719738031125 0  0.2352133972703547 0.2354967132658811 0  0.2400332147833751 0.2299556624715287 0  0.2439893735792577 0.2237683615780412 0  0.246996525252926 0.2170682926548348 0  0.25645809709277 0.21 0  0.2639263993298655 0.21 0  0.271394701566961 0.21 0  0.2788630038040554 0.21 0  0.2863313060411479 0.21 0  0.2937996082782405 0.21 0  0.301267910515333 0.21 0  0.3087362127524279 0.21 0  0.3162045149895234 0.21 0  0.3236728172265972 0.21 0  0.3311411194636928 0.21 0  0.3386094217007701 0.21 0  0.3460777239378666 0.21 0  0.3535460261749672 0.21 0  0.3610143284120516 0.21 0  0.3684826306491596 0.21 0  0.3759509328862226 0.21 0  0.383419235123329 0.21 0  0.3908875373604028 0.21 0  0.3983558395975142 0.21 0  0.4058241418345938 0.21 0  0.4132924440716992 0.21 0  0.4207607463087888 0.21 0  0.4282290485459029 0.21 0  0.4356973507830418 0.21 0  0.4431656530201649 0.21 0  0.4506339552573136 0.21 0  0.4581022574944306 0.21 0  0.4655705597315852 0.21 0  0.4730388619686996 0.21 0  0.480507164205851 0.21 0  0.4879754664429498 0.21 0  0.4954437686800938 0.21 0  0.502912070917267 0.21 0  0.5103803731544119 0.21 0  0.5178486753915261 0.21 0  0.5253169776286404 0.21 0  0.5327852798657868 0.21 0  0.5402535821029386 0.21 0  0.54772188434007 0.21 0  0.5551901865771842 0.21 0  0.5626584888143201 0.21 0  0.5701267910514778 0.21 0  0.5775950932886138 0.21 0  0.5850633955257281 0.21 0  0.5925316977628483 0.21 0  0.6 0.2050000000000054 0  0.6 0.1950000000000217 0  0.5925316977628897 0.19 0  0.5850633955257988 0.19 0  0.5775950932887378 0.19 0  0.5701267910515998 0.19 0  0.5626584888145268 0.19 0  0.5551901865773963 0.19 0  0.547721884340339 0.19 0  0.5402535821032429 0.19 0  0.5327852798661811 0.19 0  0.5253169776290537 0.19 0  0.5178486753919799 0.19 0  0.5103803731549078 0.19 0  0.502912070917822 0.19 0  0.4954437686807294 0.19 0  0.4879754664436223 0.19 0  0.4805071642065402 0.19 0  0.4730388619694271 0.19 0  0.4655705597323621 0.19 0  0.4581022574952563 0.19 0  0.4506339552581777 0.19 0  0.4431656530210671 0.19 0  0.4356973507839815 0.19 0  0.4282290485468779 0.19 0  0.4207607463097617 0.19 0  0.4132924440726327 0.19 0  0.4058241418354857 0.19 0  0.3983558395983636 0.19 0  0.3908875373612097 0.19 0  0.3834192351240934 0.19 0  0.3759509328869369 0.19 0  0.3684826306498175 0.19 0  0.361014328412667 0.19 0  0.3535460261755617 0.19 0  0.3460777239384295 0.19 0  0.3386094217012945 0.19 0  0.3311411194641595 0.19 0  0.3236728172270245 0.19 0  0.3162045149898895 0.19 0  0.3087362127527544 0.19 0  0.3012679105156187 0.19 0  0.2937996082784807 0.19 0  0.2863313060413428 0.19 0  0.2788630038042048 0.19 0  0.2713947015670686 0.19 0  0.2639263993299336 0.19 0  0.2564580970927985 0.19 0  0.2607803159922026 0.2000727136295815 0  0.5887803774232762 0.2001272386983733 0  0.5745072403740523 0.2002044435018727 0  0.5511891430099709 0.2001122610077113 0  0.2751288526855082 0.20000000000002 0  0.5365194309847112 0.1999999999999436 0  0.2894621222999649 0.1998691686390484 0  0.5215828265105155 0.1999999999999228 0  0.3127789816668748 0.1998657885438805 0  0.3274069683451451 0.2000000000000796 0  0.5066462220363641 0.199999999999908 0  0.3650630746574081 0.199866017807523 0  0.476773013087985 0.1999999999998713 0  0.3417402379596385 0.1998691686391011 0  0.3796850840047755 0.200000000000134 0  0.4618364086138087 0.1999999999998546 0  0.4917096175621762 0.1999999999998808 0  0.3946216884789568 0.2000000000001512 0  0.446899804139621 0.1999999999998389 0  0.4089549580935208 0.1998691686391595 0  0.4322718174608562 0.200127451265745 0  0.4201487168029707 0.1999966199048527 0  0.3528922713220932 0.2000185703532356 0  0.5633122436674589 0.1999814296467508 0  0.3006558810093873 0.1999966199048318 0  0.5815926498168407 0.1966545283159175 0  0.2677053789419034 0.1964246479135325 0  0.5290511287476175 0.1970915826863981 0  0.5439877332217911 0.197091582686394 0  0.2825131256993216 0.2035478995978015 0  0.3199386661080599 0.202908417313604 0  0.4842413153250809 0.1970915826863873 0  0.5141145242734466 0.1970915826863843 0  0.3722167817676917 0.2029084173136195 0  0.4693047108508938 0.1970915826863783 0  0.3348752705822316 0.202908417313609 0  0.3871533862418661 0.2029084173136212 0  0.4543681063767183 0.1970915826863795 0  0.4991779197992749 0.1970915826863902 0  0.4020059614928624 0.203547899597858 0  0.4394315019025246 0.1970915826863714 0  0.2550657455369551 0.2034088125358657 0  0.2548908499171161 0.1966940311614271 0  0.5946539510196798 0.2024302972968126 0  0.267698176732111 0.2039977513680092 0  0.4261685417851465 0.196409292431739 0  0.3590076176283495 0.196411355804271 0  0.5571672426447437 0.2036011176410121 0  0.3066757059912147 0.1964092924317024 0  0.594380730180568 0.1966558399668133 0  0.4842413153245942 0.2040749161535287 0  0.4693047108503577 0.2040749161535231 0  0.3871533862424271 0.1959250838464788 0  0.372246743208829 0.1959123236376545 0  0.5141145242731028 0.2040749161535395 0  0.4543681063761134 0.2040749161535186 0  0.4019979587101454 0.1959834479682427 0  0.4394608940728603 0.2040870543693135 0  0.5439623148931173 0.2040856076781014 0  0.5290511287473298 0.2040749161535501 0  0.4991779197988497 0.2040749161535382 0  0.3347912413592433 0.1959225448935183 0  0.3199680582793816 0.1959123018030061 0  0.2825051229162361 0.1959834479681729 0  0.3590471196690275 0.2036304442587945 0  0.5571594006495384 0.1963685282145804 0  0.3067669986803285 0.203627750582736 0  0.4262598344738712 0.2036568242185335 0  0.5814408164431408 0.2041285596160068 0  0.5688286748170428 0.1961819304477386 0  0.4145905603063645 0.2038180695522843 0  0.3473758401724931 0.2038180695522752 0  0.2950977245128307 0.2038180695522663 0  0.5688286748170693 0.203818069552238 0  0.2950977245127906 0.1961819304477774 0  0.3473758401723931 0.1961819304478349 0  0.4145905603061963 0.1961819304479011 0  0.2601812407614425 0.2056861609747042
[...]
<PointData  Vectors="f_40-0"> 
<DataArray  type="Float64"  Name="f_40-0"  NumberOfComponents="3" format="ascii">0.0000000000000000e+00 0.0000000000000000e+00 0.0000000000000000e+00  0.0000000000000000e+00 0.0000000000000000e+00 0.0000000000000000e+00  0.0000000000000000e+00 0.0000000000000000e+00 0.0000000000000000e+00  0.0000000000000000e+00 0.0000000000000000e+00 0.0000000000000000e+00  -1.1117591477674673e-04 1.8610565542400017e-04 0.0000000000000000e+00  -4.4737499025375664e-05 1.8571037958424073e-04 0.0000000000000000e+00  0.0000000000000000e+00 0.0000000000000000e+00 0.0000000000000000e+00  0.0000000000000000e+00 0.0000000000000000e+00 0.0000000000000000e+00  0.0000000000000000e+00 0.0000000000000000e+00 0.0000000000000000e+00  0.0000000000000000e+00 0.0000000000000000e+00 0.0000000000000000e+00  -7.8280264987046414e-05 1.8595508943573490e-04 0.0000000000000000e+00  4.3733924908561650e-01 0.0000000000000000e+00 0.0000000000000000e+00  8.0739553677349962e-01 0.0000000000000000e+00 0.0000000000000000e+00  1.1101688630635620e+00 0.0000000000000000e+00 0.0000000000000000e+00  1.3456592279561543e+00 0.0000000000000000e+00 0.0000000000000000e+00  1.5138666314512466e+00 0.0000000000000000e+00 0.0000000000000000e+00  1.6147910735488282e+00 0.0000000000000000e+00 0.0000000000000000e+00  1.6484325542487985e+00 0.0000000000000000e+00 0.0000000000000000e+00  1.6147910735508684e+00 0.0000000000000000e+00 0.0000000000000000e+00  1.5138666314547513e+00 0.0000000000000000e+00 0.0000000000000000e+00  1.3456592279604951e+00 0.0000000000000000e+00 0.0000000000000000e+00  1.1101688630676854e+00 0.0000000000000000e+00 0.0000000000000000e+00  8.0739553677701814e-01 0.0000000000000000e+00 0.0000000000000000e+00  4.3733924908759908e-01 0.0000000000000000e+00 0.0000000000000000e+00  0.0000000000000000e+00 0.0000000000000000e+00 0.0000000000000000e+00  0.0000000000000000e+00 0.0000000000000000e+00 0.0000000000000000e+00  0.0000000000000000e+00 0.0000000000000000e+00 0.0000000000000000e+00  0.0000000000000000e+00 0.0000000000000000e+00 0.0000000000000000e+00  0.0000000000000000e+00 0.0000000000000000e+00 0.0000000000000000e+00  0.0000000000000000e+00 0.0000000000000000e+00 0.0000000000000000e+00  0.0000000000000000e+00 0.0000000000000000e+00 0.0000000000000000e+00  0.0000000000000000e+00 0.0000000000000000e+00 0.0000000000000000e+00  0.0000000000000000e+00 0.0000000000000000e+00 0.0000000000000000e+00  0.0000000000000000e+00 0.0000000000000000e+00 0.0000000000000000e+00  0.0000000000000000e+00 0.0000000000000000e+00 0.0000000000000000e+00  0.0000000000000000e+00 0.0000000000000000e+00 0.0000000000000000e+00  0.0000000000000000e+00 0.0000000000000000e+00 0.0000000000000000e+00  0.0000000000000000e+00 0.0000000000000000e+00 0.0000000000000000e+00  0.0000000000000000e+00 0.0000000000000000e+00 0.0000000000000000e+00  0.0000000000000000e+00 0.0000000000000000e+00 0.0000000000000000e+00  0.0000000000000000e+00 0.0000000000000000e+00 0.0000000000000000e+00  0.0000000000000000e+00 0.0000000000000000e+00 0.0000000000000000e+00  0.0000000000000000e+00 0.0000000000000000e+00 0.0000000000000000e+00  0.0000000000000000e+00 0.0000000000000000e+00 0.0000000000000000e+00  0.0000000000000000e+00 0.0000000000000000e+00 0.0000000000000000e+00  0.0000000000000000e+00 0.0000000000000000e+00 0.0000000000000000e+00  0.0000000000000000e+00 0.0000000000000000e+00 0.0000000000000000e+00  0.0000000000000000e+00 0.0000000000000000e+00 0.0000000000000000e+00  0.0000000000000000e+00 0.0000000000000000e+00 0.0000000000000000e+00  0.0000000000000000e+00 0.0000000000000000e+00 0.0000000000000000e+00  0.0000000000000000e+00 0.0000000000000000e+00 0.0000000000000000e+00  0.0000000000000000e+00 0.0000000000000000e+00 0.0000000000000000e+00  0.0000000000000000e+00 0.0000000000000000e+00 0.0000000000000000e+00  0.0000000000000000e+00 0.0000000000000000e+00 0.0000000000000000e+00  0.0000000000000000e+00 0.0000000000000000e+00 0.0000000000000000e+00  0.0000000000000000e+00 0.0000000000000000e+00 0.0000000000000000e+00  0.0000000000000000e+00 0.0000000000000000e+00 0.0000000000000000e+00  0.0000000000000000e+00 0.0000000000000000e+00 0.0000000000000000e+00  0.0000000000000000e+00 0.0000000000000000e+00 0.0000000000000000e+00  0.0000000000000000e+00 0.0000000000000000e+00 0.0000000000000000e+00  0.0000000000000000e+00 0.0000000000000000e+00 0.0000000000000000e+00  0.0000000000000000e+00 0.0000000000000000e+00 0.0000000000000000e+00  1.5006752715641576e+00 -3.5608026216933993e-02 0.0000000000000000e+00  1.1837027246539062e+00 1.2850645021189539e-02 0.0000000000000000e+00  1.4837039939982508e+00 5.3938035826007230e-02 0.0000000000000000e+00  0.0000000000000000e+00 0.0000000000000000e+00 0.0000000000000000e+00  0.0000000000000000e+00 0.0000000000000000e+00 0.0000000000000000e+00  0.0000000000000000e+00 0.0000000000000000e+00 0.0000000000000000e+00  0.0000000000000000e+00 0.0000000000000000e+00 0.0000000000000000e+00  0.0000000000000000e+00 0.0000000000000000e+00 0.0000000000000000e+00  0.0000000000000000e+00 0.0000000000000000e+00 0.0000000000000000e+00  0.0000000000000000e+00 0.0000000000000000e+00 0.0000000000000000e+00  0.0000000000000000e+00 0.0000000000000000e+00 0.0000000000000000e+00  0.0000000000000000e+00 0.0000000000000000e+00 0.0000000000000000e+00  0.0000000000000000e+00 0.0000000000000000e+00 0.0000000000000000e+00  0.0000000000000000e+00 0.0000000000000000e+00 0.0000000000000000e+00  0.0000000000000000e+00 0.0000000000000000e+00 0.0000000000000000e+00  0.0000000000000000e+00 0.0000000000000000e+00 0.0000000000000000e+00  0.0000000000000000e+00 0.0000000000000000e+00 0.0000000000000000e+00  0.0000000000000000e+00 0.0000000000000000e+00 0.0000000000000000e+00  0.0000000000000000e+00 0.0000000000000000e+00 0.0000000000000000e+00  0.0000000000000000e+00 0.0000000000000000e+00 0.0000000000000000e+00  0.0000000000000000e+00 0.0000000000000000e+00 0.0000000000000000e+00  0.0000000000000000e+00 0.0000000000000000e+00 0.0000000000000000e+00  0.0000000000000000e+00 0.0000000000000000e+00 0.0000000000000000e+00  0.0000000000000000e+00 0.0000000000000000e+00 0.0000000000000000e+00  0.0000000000000000e+00 0.0000000000000000e+00 0.0000000000000000e+00  0.0000000000000000e+00 0.0000000000000000e+00 0.0000000000000000e+00  0.0000000000000000e+00 0.0000000000000000e+00 0.0000000000000000e+00  0.0000000000000000e+00 0.0000000000000000e+00 0.0000000000000000e+00  0.0000000000000000e+00 0.0000000000000000e+00 0.0000000000000000e+00  0.0000000000000000e+00 0.0000000000000000e+00 0.0000000000000000e+00  0.0000000000000000e+00 0.0000000000000000e+00 0.0000000000000000e+00  0.0000000000000000e+00 0.0000000000000000e+00 0.0000000000000000e+00  0.0000000000000000e+00 0.0000000000000000e+00 0.0000000000000000e+00  0.0000000000000000e+00 0.0000000000000000e+00 0.0000000000000000e+00  0.0000000000000000e+00 0.0000000000000000e+00 0.0000000000000000e+00  0.0000000000000000e+00 0.0000000000000000e+00 0.0000000000000000e+00  0.0000000000000000e+00 0.0000000000000000e+00 0.0000000000000000e+00  0.0000000000000000e+00 0.0000000000000000e+00 0.0000000000000000e+00  0.0000000000000000e+00 0.0000000000000000e+00 0.0000000000000000e+00  0.0000000000000000e+00 0.0000000000000000e+00 0.0000000000000000e+00  0.0000000000000000e+00 0.0000000000000000e+00 0.0000000000000000e+00  0.0000000000000000e+00 0.0000000000000000e+00 0.0000000000000000e+00  0.0000000000000000e+00 0.0000000000000000e+00 0.0000000000000000e+00  0.0000000000000000e+00 0.0000000000000000e+00 0.0000000000000000e+00  0.0000000000000000e+00 0.0000000000000000e+00 0.0000000000000000e+00  0.0000000000000000e+00 0.0000000000000000e+00 0.0000000000000000e+00  0.0000000000000000e+00 0.0000000000000000e+00 0.0000000000000000e+00  0.0000000000000000e+00 0.0000000000000000e+00 0.0000000000000000e+00  0.0000000000000000e+00 0.0000000000000000e+00 0.0000000000000000e+00  0.0000000000000000e+00 0.0000000000000000e+00 0.0000000000000000e+00  0.0000000000000000e+00 0.0000000000000000e+00 0.0000000000000000e+00  0.0000000000000000e+00 0.0000000000000000e+00 0.0000000000000000e+00  0.0000000000000000e+00 0.0000000000000000e+00 0.0000000000000000e+00  0.0000000000000000e+00 0.0000000000000000e+00 0.0000000000000000e+00  0.0000000000000000e+00 0.0000000000000000e+00 0.0000000000000000e+00  0.0000000000000000e+00 0.0000000000000000e+00 0.0000000000000000e+00  0.0000000000000000e+00 0.0000000000000000e+00 0.0000000000000000e+00  0.0000000000000000e+00 0.0000000000000000e+00 0.0000000000000000e+00  0.0000000000000000e+00 0.0000000000000000e+00 0.0000000000000000e+00  0.0000000000000000e+00 0.0000000000000000e+00 0.0000000000000000e+00  0.0000000000000000e+00 0.0000000000000000e+00 0.0000000000000000e+00  0.0000000000000000e+00 0.0000000000000000e+00 0.0000000000000000e+00  0.0000000000000000e+00 0.0000000000000000e+00 0.0000000000000000e+00  0.0000000000000000e+00 0.0000000000000000e+00 0.0000000000000000e+00  0.0000000000000000e+00 0.0000000000000000e+00 0.0000000000000000e+00  0.0000000000000000e+00 0.0000000000000000e+00 0.0000000000000000e+00  0.0000000000000000e+00 0.0000000000000000e+00 0.0000000000000000e+00  0.0000000000000000e+00 0.0000000000000000e+00 0.0000000000000000e+00  0.0000000000000000e+00 0.0000000000000000e+00 0.0000000000000000e+00  0.0000000000000000e+00 0.0000000000000000e+00 0.0000000000000000e+00  0.0000000000000000e+00 0.0000000000000000e+00 0.0000000000000000e+00  0.0000000000000000e+00 0.0000000000000000e+00 0.0000000000000000e+00  0.0000000000000000e+00 0.0000000000000000e+00 0.0000000000000000e+00  0.0000000000000000e+00 0.0000000000000000e+00 0.0000000000000000e+00  0.0000000000000000e+00 0.0000000000000000e+00 0.0000000000000000e+00  0.0000000000000000e+00 0.0000000000000000e+00 0.0000000000000000e+00  0.0000000000000000e+00 0.0000000000000000e+00 0.0000000000000000e+00  0.0000000000000000e+00 0.0000000000000000e+00 0.0000000000000000e+00  0.0000000000000000e+00 0.0000000000000000e+00 0.0000000000000000e+00  0.0000000000000000e+00 0.0000000000000000e+00 0.0000000000000000e+00  0.0000000000000000e+00 0.0000000000000000e+00 0.0000000000000000e+00  -9.8500274830011490e-06 1.0927147139167142e-05 0.0000000000000000e+00  -2.0206037399947854e-05 2.0760933389987196e-05 0.0000000000000000e+00  -2.9252734408790096e-05 3.5037342675502594e-05 0.0000000000000000e+00  -3.8191644811040961e-05 5.4022536612487971e-05 0.0000000000000000e+00  -4.5612253792939670e-05 7.6188959639220718e-05 0.0000000000000000e+00  -5.2843606063584635e-05 1.0169933178422191e-04 0.0000000000000000e+00  -5.8746938146635676e-05 1.2914843346364935e-04 0.0000000000000000e+00  -6.3975227548804679e-05 1.5873460926533260e-04 0.0000000000000000e+00  -6.8886985760700556e-05 1.8954407509687768e-04 0.0000000000000000e+00  -7.2774866912356481e-05 2.2106487992452884e-04 0.0000000000000000e+00  -7.6156581339920532e-05 2.5308937980941912e-04 0.0000000000000000e+00  -7.8920374291076103e-05 2.8482204842624907e-04 0.0000000000000000e+00  -8.0925279687631930e-05 3.1608684502422061e-04 0.0000000000000000e+00  -8.2658648463212198e-05 3.4652551631450675e-04 0.0000000000000000e+00  -8.3884050462315843e-05 3.7554019098984335e-04 0.0000000000000000e+00  -8.4289692104474675e-05 4.0316269417853078e-04 0.0000000000000000e+00  -8.4781818737525707e-05 4.2882812500487962e-04 0.0000000000000000e+00  -8.4194547299749155e-05 4.5252461760705506e-04 0.0000000000000000e+00  -8.4019743980760702e-05 4.7373660335670275e-04 0.0000000000000000e+00  -8.2773110405331269e-05 4.9273187814688946e-04 0.0000000000000000e+00  -8.1891798719303796e-05 5.0887132921040594e-04 0.0000000000000000e+00  -8.0086234947254162e-05 5.2227562678977806e-04 0.0000000000000000e+00  -7.8833693972326215e-05 5.3333418560456091e-04 0.0000000000000000e+00  -7.7338519932107131e-05 5.4115555876163351e-04 0.0000000000000000e+00  -7.5123134363593757e-05 5.4668189821714284e-04 0.0000000000000000e+00  -7.3260570115963973e-05 5.4910084366141456e-04 0.0000000000000000e+00  -7.1060883188457170e-05 5.4897238902502357e-04 0.0000000000000000e+00  -6.9068974803022614e-05 5.4615196954724493e-04 0.0000000000000000e+00  -6.6818862678563929e-05 5.4085565802604926e-04 0.0000000000000000e+00  -6.4811065588355683e-05 5.3312685578992686e-04 0.0000000000000000e+00  -6.2613184179191123e-05 5.2313158830576882e-04 0.0000000000000000e+00  -6.0675571147112648e-05 5.1099569595119596e-04 0.0000000000000000e+00  -5.8625889674557138e-05 4.9687142659824975e-04 0.0000000000000000e+00  -5.6831504641822089e-05 4.8093280506338412e-04 0.0000000000000000e+00  -5.4987989803416272e-05 4.6333912830614295e-04 0.0000000000000000e+00  -5.3420779841090846e-05 4.4431278957494187e-04 0.0000000000000000e+00  -5.1863963302903294e-05 4.2396453998292565e-04 0.0000000000000000e+00  -5.0570038705375397e-05 4.0256065437662114e-04 0.0000000000000000e+00  -4.9325940057646017e-05 3.8018029557283637e-04 0.0000000000000000e+00  -4.8328034033893016e-05 3.5711427657654499e-04 0.0000000000000000e+00  -4.7392572025136930e-05 3.3335428487876007e-04 0.0000000000000000e+00  -4.6711682405503836e-05 3.0926338198739256e-04 0.0000000000000000e+00  -4.6157899334613811e-05 2.8479728261442925e-04 0.0000000000000000e+00  -4.5647541083844395e-05 2.6018297438262317e-04 0.0000000000000000e+00  -4.5311709992713242e-05 2.3546501494172800e-04 0.0000000000000000e+00  -4.5028467050292738e-05 2.1066485138438874e-04 0.0000000000000000e+00  -6.1631407791399735e-05 1.8584681517703100e-04 0.0000000000000000e+00  -9.4809805171216965e-05 1.8603742205683402e-04 0.0000000000000000e+00  -1.1134274981861401e-04 2.1083137189325984e-04 0.0000000000000000e+00  -1.1140904184831786e-04 2.3565147631534082e-04 0.0000000000000000e+00  -1.1141846597910075e-04 2.6040302815162912e-04 0.0000000000000000e+00  -1.1127673084879671e-04 2.8499485244233623e-04 0.0000000000000000e+00  -1.1107536653286134e-04 3.0939430842412001e-04 0.0000000000000000e+00  -1.1069336084565063e-04 3.3338970257912424e-04 0.0000000000000000e+00  -1.0999773084031788e-04 3.5697166264404232e-04 0.0000000000000000e+00  -1.0924053405915827e-04 3.7987396398310154e-04 0.0000000000000000e+00  -1.0795235073404345e-04 4.0206157100178589e-04 0.0000000000000000e+00  -1.0669801655187576e-04 4.2318685513054372e-04 0.0000000000000000e+00  -1.0475328054490606e-04 4.4328624635069954e-04 0.0000000000000000e+00  -1.0291479504987927e-04 4.6195383158335217e-04 0.0000000000000000e+00  -1.0023386652999495e-04 4.7926204443510229e-04 0.0000000000000000e+00  -9.7770629114662486e-05 4.9477216677756234e-04 0.0000000000000000e+00  -9.4345973009482927e-05 5.0857758699889629e-04 0.0000000000000000e+00  -9.1257539157238004e-05 5.2024936006727436e-04 0.0000000000000000e+00  -8.7109899491393691e-05 5.2990455859271341e-04 0.0000000000000000e+00  -8.3416747302941319e-05 5.3713511251288074e-04 0.0000000000000000e+00  -7.8593344746745621e-05 5.4209357849262197e-04 0.0000000000000000e+00  -7.4349441306333832e-05 5.4440898158562043e-04 0.0000000000000000e+00  -6.8928216212825938e-05 5.4421461726104209e-04 0.0000000000000000e+00  -6.4188794696046019e-05 5.4119880301902194e-04 0.0000000000000000e+00  -5.8361266056394132e-05 5.3546943426202110e-04 0.0000000000000000e+00  -5.3121993193323925e-05 5.2719217099870923e-04 0.0000000000000000e+00  -4.7777845897226031e-05 5.1574240770751339e-04 0.0000000000000000e+00  -4.1756721344532634e-05 5.0207994665773723e-04 0.0000000000000000e+00  -3.6179496575916529e-05 4.8544742596966684e-04 0.0000000000000000e+00  -3.0324671939713150e-05 4.6634836046495720e-04 0.0000000000000000e+00  -2.4827311060661405e-05 4.4476002559947625e-04 0.0000000000000000e+00  -1.9260126453441941e-05 4.2088212723161291e-04 0.0000000000000000e+00  -1.4088992601952341e-05 3.9501983941269580e-04 0.0000000000000000e+00  -8.9107504519797616e-06 3.6712997665421887e-04 0.0000000000000000e+00  -4.3675998226959569e-06 3.3797709001071117e-04 0.0000000000000000e+00  -1.7633009379848029e-07 3.0741116649993456e-04 0.0000000000000000e+00  3.8642302664068262e-06 2.7606986567988069e-04 0.0000000000000000e+00  7.2761920151928409e-06 2.4422939462130373e-04 0.0000000000000000e+00  1.0185598105431957e-05 2.1213000954456999e-04 0.0000000000000000e+00  1.2567294013832528e-05 1.8051882401223606e-04 0.0000000000000000e+00  1.4056461380431701e-05 1.4972965721870592e-04 0.0000000000000000e+00  1.5285959885265352e-05 1.2010765002449276e-04 0.0000000000000000e+00  1.5895294654075891e-05 9.2648176308851590e-05 0.0000000000000000e+00  1.5284601708628884e-05 6.7043032718580546e-05 0.0000000000000000e+00  1.4325131192181453e-05 4.4729289304389274e-05 0.0000000000000000e+00  1.1831397654131463e-05 2.5881282770888439e-05 0.0000000000000000e+00  9.2225076246028587e-06 1.1701450791796741e-05 0.0000000000000000e+00  4.6462223226297495e-06 2.4460097256547264e-06 0.0000000000000000e+00  -3.5027830168148863e-06 7.8784241208945338e-06 0.0000000000000000e+00  -7.7991734448440534e-05 2.2327298123177712e-04 0.0000000000000000e+00  -7.8000298457931301e-05 2.7063825948496397e-04 0.0000000000000000e+00  -7.8799471070406060e-05 3.4650884789056493e-04 0.0000000000000000e+00  -1.0225863956087887e-05 3.6785830868209467e-05 0.0000000000000000e+00  -7.9280257218396539e-05 3.9184741295890445e-04 0.0000000000000000e+00  -1.6145105018494821e-05 8.0029724680433801e-05 0.0000000000000000e+00  -7.9171948020663550e-05 4.3462771689505768e-04 0.0000000000000000e+00  -2.6113018679409855e-05 1.6998635797682148e-04 0.0000000000000000e+00  -3.2831030080465223e-05 2.3249341871267522e-04 0.0000000000000000e+00  -7.8703882879068744e-05 4.7258489840693052e-04 0.0000000000000000e+00  -4.7379854268717575e-05 3.8762278689093155e-04 0.0000000000000000e+00  -7.6362742649711216e-05 5.2830130118137206e-04 0.0000000000000000e+00  -3.8205340856842376e-05 2.9401412974059885e-04 0.0000000000000000e+00  -5.3157278583397751e-05 4.3837825269091459e-04 0.0000000000000000e+00  -7.4372382203699230e-05 5.4345163754445844e-04 0.0000000000000000e+00  -7.7790191244141982e-05 5.0427065656851117e-04 0.0000000000000000e+00  -5.8189024194436617e-05 4.8147465557483424e-04 0.0000000000000000e+00  -7.1803273873891600e-05 5.4869755537889165e-04 0.0000000000000000e+00  -6.2367231330292942e-05 5.1323571000132348e-04 0.0000000000000000e+00  -6.8798141566192174e-05 5.4353111226113765e-04 0.0000000000000000e+00  -6.5637472870749321e-05 5.3074544207915616e-04 0.0000000000000000e+00  -4.3239635043584230e-05 3.4016210883023093e-04 0.0000000000000000e+00  -7.8984965173577238e-05 3.0738108317584757e-04 0.0000000000000000e+00  -2.1400922587177964e-05 1.2133239467539429e-04 0.0000000000000000e+00  -8.9547236501126912e-05 2.4716913529501184e-04 0.0000000000000000e+00  -5.5995961872898163e-07 1.8554140742889228e-05 0.0000000000000000e+00  -8.7398068785736146e-05 4.1356243336971492e-04 0.0000000000000000e+00  -8.8042899473540729e-05 3.6899315930686807e-04 0.0000000000000000e+00  -2.3396074946528388e-05 5.9608478163511921e-05 0.0000000000000000e+00  -4.1601259153432929e-05 2.0170644322068521e-04 0.0000000000000000e+00  -8.1652603795231570e-05 5.1675463866075494e-04 0.0000000000000000e+00  -8.6178589821961997e-05 4.5399784436955516e-04 0.0000000000000000e+00  -6.0303591314480008e-05 4.1443834487724600e-04 0.0000000000000000e+00  -7.8250474154379948e-05 5.3634112368794863e-04 0.0000000000000000e+00  -4.7976272192707904e-05 2.6599774635424362e-04 0.0000000000000000e+00  -6.3937217790764963e-05 4.6202408275098782e-04 0.0000000000000000e+00  -7.4076350595553213e-05 5.4651802673644082e-04 0.0000000000000000e+00  -8.4284169217233441e-05 4.8887167890598177e-04 0.0000000000000000e+00  -6.8271549473431460e-05 5.0006870681142026e-04 0.0000000000000000e+00  -6.9213508990839158e-05 5.4637379260579801e-04 0.0000000000000000e+00  -2.3702828855301063e-06 3.1676958282854144e-06 0.0000000000000000e+00  -1.1274933317317868e-08 1.0177733601243749e-06 0.0000000000000000e+00  -7.0280140474605795e-05 2.0371021717839925e-04 0.0000000000000000e+00  -1.3853444420133643e-05 2.2202959176427383e-05 0.0000000000000000e+00  -6.36131353819179