<?xml version="1.0"?>
<VTKFile type="UnstructuredGrid"  version="0.1"  >
<UnstructuredGrid>
<Piece  NumberOfPoints="1419" NumberOfCells="2698">
<Points>
<DataArray  type="Float64"  NumberOfComponents="3"  format="ascii">0 0 0  0 0.41 0  2.5 0 0  2.5 0.41 0  0.6 0.19 0  0.6 0.21 0  0.25 0.2 0  0.15 0.2 0  0.2489897948556636 0.21 0  0.2489897948556636 0.19 0  0.6 0.2 0  0 0.3807142857143437 0  0 0.3514285714286952 0  0 0.3221428571430699 0  0 0.29285714285744 0  0 0.2635714285718054 0  0 0.2342857142861561 0  0 0.2050000000005308 0  0 0.175714285714732 0  0 0.1464285714289574 0  0 0.1171428571431897 0  0 0.08785714285737878 0  0 0.05857142857161107 0  0 0.02928571428580012 0  0.03015443760436003 0 0  0.06140001986583606 0 0  0.09377624077125973 0 0  0.1273239957535082 0 0  0.1620856860351972 0 0  0.1981052433264291 0 0  0.235428184091502 0 0  0.2741016576309132 0 0  0.3141745521465447 0 0  0.3556974926295285 0 0  0.3987229542472677 0 0  0.4433053055141081 0 0  0.4895008759286886 0 0  0.5373680609405097 0 0  0.5869673343216626 0 0  0.6383613676634521 0 0  0.6916151138468254 0 0  0.7467958595648856 0 0  0.8039733463919316 0 0  0.8632198139502143 0 0  0.9246101326867038 0 0  0.9882218810934433 0 0  1.054135445558498 0 0  1.122434100542598 0 0  1.193204177141305 0 0  1.266535089879536 0 0  1.342519516046404 0 0  1.421253448503939 0 0  1.502836389106271 0 0  1.587371439758838 0 0  1.674965418777374 0 0  1.765729001825544 0 0  1.859776908880082 0 0  1.957227977487062 0 0  2.058205329869943 0 0  2.162836591189951 0 0  2.271253957290865 0 0  2.383594446803425 0 0  2.5 0.1024999999997612 0  2.5 0.2049999999994743 0  2.5 0.3074999999997183 0  2.383594446803656 0.41 0  2.271253957291315 0.41 0  2.162836591190598 0.41 0  2.058205329870775 0.41 0  1.957227977488067 0.41 0  1.859776908881246 0.41 0  1.765729001826854 0.41 0  1.674965418778818 0.41 0  1.58737143976041 0.41 0  1.502836389107956 0.41 0  1.421253448505726 0.41 0  1.342519516048286 0.41 0  1.266535089881505 0.41 0  1.193204177143353 0.41 0  1.122434100544716 0.41 0  1.05413544556068 0.41 0  0.9882218810956305 0.41 0  0.9246101326886647 0.41 0  0.8632198139519631 0.41 0  0.8039733463934788 0.41 0  0.7467958595662458 0.41 0  0.6916151138480078 0.41 0  0.6383613676644679 0.41 0  0.5869673343225223 0.41 0  0.5373680609412221 0.41 0  0.4895008759292634 0.41 0  0.4433053055145528 0.41 0  0.3987229542475914 0.41 0  0.3556974926297398 0.41 0  0.3141745521466497 0.41 0  0.2741016576310038 0.41 0  0.2354281840915826 0.41 0  0.1981052433265003 0.41 0  0.1620856860352591 0.41 0  0.1273239957535623 0.41 0  0.09377624077128965 0.41 0  0.06140001986584975 0.41 0  0.03015443760436654 0.41 0  0.2497468076502589 0.2050254481002335 0  0.2497468076502614 0.1949745518997913 0  0.2469965252529372 0.1829317073451959 0  0.2439893735792749 0.1762316384219906 0  0.2400332147834255 0.1700443375285386 0  0.2352133972704371 0.1645032867342007 0  0.2296339016332438 0.1597280261969788 0  0.2234150974217223 0.1558215752574715 0  0.2166911463437691 0.1528682099456123 0  0.2096071079204251 0.1509316448471593 0  0.2023158100364996 0.1500536585536553 0  0.194974551899914 0.1502531923497262 0  0.1877417105387872 0.1515259415822739 0  0.1807733240461124 0.153844448527136 0  0.1742197252835808 0.15715869474974 0  0.1682222986673531 0.1613971801805478 0  0.162910430003803 0.1664684656256651 0  0.1583987151779087 0.1722631454351573 0  0.1547844879126891 0.178656207771761 0  0.1521457199348551 0.1855097315605723 0  0.1505393388476355 0.1926758619366523 0  0.1505393388476328 0.2073241380633295 0  0.1521457199348437 0.2144902684393899 0  0.1547844879126531 0.221343792228163 0  0.1583987151778488 0.2277368545647528 0  0.1629104300036858 0.2335315343742052 0  0.1682222986671726 0.2386028198193036 0  0.1742197252833576 0.2428413052501257 0  0.1807733240458683 0.2461555514727623 0  0.1877417105384929 0.2484740584176516 0  0.1949745518995776 0.2497468076502398 0  0.202315810036185 0.2499463414463592 0  0.2096071079201568 0.2490683551528932 0  0.2166911463435495 0.2471317900544655 0  0.2234150974215506 0.2441784247426195 0  0.2296339016331197 0.2402719738031125 0  0.2352133972703547 0.2354967132658811 0  0.2400332147833751 0.2299556624715287 0  0.2439893735792577 0.2237683615780412 0  0.246996525252926 0.2170682926548348 0  0.25645809709277 0.21 0  0.2639263993298655 0.21 0  0.271394701566961 0.21 0  0.2788630038040554 0.21 0  0.2863313060411479 0.21 0  0.2937996082782405 0.21 0  0.301267910515333 0.21 0  0.3087362127524279 0.21 0  0.3162045149895234 0.21 0  0.3236728172265972 0.21 0  0.3311411194636928 0.21 0  0.3386094217007701 0.21 0  0.3460777239378666 0.21 0  0.3535460261749672 0.21 0  0.3610143284120516 0.21 0  0.3684826306491596 0.21 0  0.3759509328862226 0.21 0  0.383419235123329 0.21 0  0.3908875373604028 0.21 0  0.3983558395975142 0.21 0  0.4058241418345938 0.21 0  0.4132924440716992 0.21 0  0.4207607463087888 0.21 0  0.4282290485459029 0.21 0  0.4356973507830418 0.21 0  0.4431656530201649 0.21 0  0.4506339552573136 0.21 0  0.4581022574944306 0.21 0  0.4655705597315852 0.21 0  0.4730388619686996 0.21 0  0.480507164205851 0.21 0  0.4879754664429498 0.21 0  0.4954437686800938 0.21 0  0.502912070917267 0.21 0  0.5103803731544119 0.21 0  0.5178486753915261 0.21 0  0.5253169776286404 0.21 0  0.5327852798657868 0.21 0  0.5402535821029386 0.21 0  0.54772188434007 0.21 0  0.5551901865771842 0.21 0  0.5626584888143201 0.21 0  0.5701267910514778 0.21 0  0.5775950932886138 0.21 0  0.5850633955257281 0.21 0  0.5925316977628483 0.21 0  0.6 0.2050000000000054 0  0.6 0.1950000000000217 0  0.5925316977628897 0.19 0  0.5850633955257988 0.19 0  0.5775950932887378 0.19 0  0.5701267910515998 0.19 0  0.5626584888145268 0.19 0  0.5551901865773963 0.19 0  0.547721884340339 0.19 0  0.5402535821032429 0.19 0  0.5327852798661811 0.19 0  0.5253169776290537 0.19 0  0.5178486753919799 0.19 0  0.5103803731549078 0.19 0  0.502912070917822 0.19 0  0.4954437686807294 0.19 0  0.4879754664436223 0.19 0  0.4805071642065402 0.19 0  0.4730388619694271 0.19 0  0.4655705597323621 0.19 0  0.4581022574952563 0.19 0  0.4506339552581777 0.19 0  0.4431656530210671 0.19 0  0.4356973507839815 0.19 0  0.4282290485468779 0.19 0  0.4207607463097617 0.19 0  0.4132924440726327 0.19 0  0.4058241418354857 0.19 0  0.3983558395983636 0.19 0  0.3908875373612097 0.19 0  0.3834192351240934 0.19 0  0.3759509328869369 0.19 0  0.3684826306498175 0.19 0  0.361014328412667 0.19 0  0.3535460261755617 0.19 0  0.3460777239384295 0.19 0  0.3386094217012945 0.19 0  0.3311411194641595 0.19 0  0.3236728172270245 0.19 0  0.3162045149898895 0.19 0  0.3087362127527544 0.19 0  0.3012679105156187 0.19 0  0.2937996082784807 0.19 0  0.2863313060413428 0.19 0  0.2788630038042048 0.19 0  0.2713947015670686 0.19 0  0.2639263993299336 0.19 0  0.2564580970927985 0.19 0  0.2607803159922026 0.2000727136295815 0  0.5887803774232762 0.2001272386983733 0  0.5745072403740523 0.2002044435018727 0  0.5511891430099709 0.2001122610077113 0  0.2751288526855082 0.20000000000002 0  0.5365194309847112 0.1999999999999436 0  0.2894621222999649 0.1998691686390484 0  0.5215828265105155 0.1999999999999228 0  0.3127789816668748 0.1998657885438805 0  0.3274069683451451 0.2000000000000796 0  0.5066462220363641 0.199999999999908 0  0.3650630746574081 0.199866017807523 0  0.476773013087985 0.1999999999998713 0  0.3417402379596385 0.1998691686391011 0  0.3796850840047755 0.200000000000134 0  0.4618364086138087 0.1999999999998546 0  0.4917096175621762 0.1999999999998808 0  0.3946216884789568 0.2000000000001512 0  0.446899804139621 0.1999999999998389 0  0.4089549580935208 0.1998691686391595 0  0.4322718174608562 0.200127451265745 0  0.4201487168029707 0.1999966199048527 0  0.3528922713220932 0.2000185703532356 0  0.5633122436674589 0.1999814296467508 0  0.3006558810093873 0.1999966199048318 0  0.5815926498168407 0.1966545283159175 0  0.2677053789419034 0.1964246479135325 0  0.5290511287476175 0.1970915826863981 0  0.5439877332217911 0.197091582686394 0  0.2825131256993216 0.2035478995978015 0  0.3199386661080599 0.202908417313604 0  0.4842413153250809 0.1970915826863873 0  0.5141145242734466 0.1970915826863843 0  0.3722167817676917 0.2029084173136195 0  0.4693047108508938 0.1970915826863783 0  0.3348752705822316 0.202908417313609 0  0.3871533862418661 0.2029084173136212 0  0.4543681063767183 0.1970915826863795 0  0.4991779197992749 0.1970915826863902 0  0.4020059614928624 0.203547899597858 0  0.4394315019025246 0.1970915826863714 0  0.2550657455369551 0.2034088125358657 0  0.2548908499171161 0.1966940311614271 0  0.5946539510196798 0.2024302972968126 0  0.267698176732111 0.2039977513680092 0  0.4261685417851465 0.196409292431739 0  0.3590076176283495 0.196411355804271 0  0.5571672426447437 0.2036011176410121 0  0.3066757059912147 0.1964092924317024 0  0.594380730180568 0.1966558399668133 0  0.4842413153245942 0.2040749161535287 0  0.4693047108503577 0.2040749161535231 0  0.3871533862424271 0.1959250838464788 0  0.372246743208829 0.1959123236376545 0  0.5141145242731028 0.2040749161535395 0  0.4543681063761134 0.2040749161535186 0  0.4019979587101454 0.1959834479682427 0  0.4394608940728603 0.2040870543693135 0  0.5439623148931173 0.2040856076781014 0  0.5290511287473298 0.2040749161535501 0  0.4991779197988497 0.2040749161535382 0  0.3347912413592433 0.1959225448935183 0  0.3199680582793816 0.1959123018030061 0  0.2825051229162361 0.1959834479681729 0  0.3590471196690275 0.2036304442587945 0  0.5571594006495384 0.1963685282145804 0  0.3067669986803285 0.203627750582736 0  0.4262598344738712 0.2036568242185335 0  0.5814408164431408 0.2041285596160068 0  0.5688286748170428 0.1961819304477386 0  0.4145905603063645 0.2038180695522843 0  0.3473758401724931 0.2038180695522752 0  0.2950977245128307 0.2038180695522663 0  0.5688286748170693 0.203818069552238 0  0.2950977245127906 0.1961819304477774 0  0.3473758401723931 0.1961819304478349 0  0.4145905603061963 0.1961819304479011 0  0.2601812407614425 0.2056861609747042
[...]
<PointData  Vectors="f_40-0"> 
<DataArray  type="Float64"  Name="f_40-0"  NumberOfComponents="3" format="ascii">0.0000000000000000e+00 0.0000000000000000e+00 0.0000000000000000e+00  0.0000000000000000e+00 0.0000000000000000e+00 0.0000000000000000e+00  0.0000000000000000e+00 0.0000000000000000e+00 0.0000000000000000e+00  0.0000000000000000e+00 0.0000000000000000e+00 0.0000000000000000e+00  -4.0932255699866317e-05 -3.6473565408075205e-05 0.0000000000000000e+00  -3.7498357824201109e-05 -4.2188306019314967e-05 0.0000000000000000e+00  0.0000000000000000e+00 0.0000000000000000e+00 0.0000000000000000e+00  0.0000000000000000e+00 0.0000000000000000e+00 0.0000000000000000e+00  0.0000000000000000e+00 0.0000000000000000e+00 0.0000000000000000e+00  0.0000000000000000e+00 0.0000000000000000e+00 0.0000000000000000e+00  -3.9438123725667479e-05 -3.9329565548210174e-05 0.0000000000000000e+00  5.7234240300380245e-03 0.0000000000000000e+00 0.0000000000000000e+00  1.0566321286224747e-02 0.0000000000000000e+00 0.0000000000000000e+00  1.4528691768559030e-02 0.0000000000000000e+00 0.0000000000000000e+00  1.7610535477045462e-02 0.0000000000000000e+00 0.0000000000000000e+00  1.9811852411683636e-02 0.0000000000000000e+00 0.0000000000000000e+00  2.1132642572473433e-02 0.0000000000000000e+00 0.0000000000000000e+00  2.1572905959413528e-02 0.0000000000000000e+00 0.0000000000000000e+00  2.1132642572500138e-02 0.0000000000000000e+00 0.0000000000000000e+00  1.9811852411729509e-02 0.0000000000000000e+00 0.0000000000000000e+00  1.7610535477102264e-02 0.0000000000000000e+00 0.0000000000000000e+00  1.4528691768612994e-02 0.0000000000000000e+00 0.0000000000000000e+00  1.0566321286270797e-02 0.0000000000000000e+00 0.0000000000000000e+00  5.7234240300639717e-03 0.0000000000000000e+00 0.0000000000000000e+00  0.0000000000000000e+00 0.0000000000000000e+00 0.0000000000000000e+00  0.0000000000000000e+00 0.0000000000000000e+00 0.0000000000000000e+00  0.0000000000000000e+00 0.0000000000000000e+00 0.0000000000000000e+00  0.0000000000000000e+00 0.0000000000000000e+00 0.0000000000000000e+00  0.0000000000000000e+00 0.0000000000000000e+00 0.0000000000000000e+00  0.0000000000000000e+00 0.0000000000000000e+00 0.0000000000000000e+00  0.0000000000000000e+00 0.0000000000000000e+00 0.0000000000000000e+00  0.0000000000000000e+00 0.0000000000000000e+00 0.0000000000000000e+00  0.0000000000000000e+00 0.0000000000000000e+00 0.0000000000000000e+00  0.0000000000000000e+00 0.0000000000000000e+00 0.0000000000000000e+00  0.0000000000000000e+00 0.0000000000000000e+00 0.0000000000000000e+00  0.0000000000000000e+00 0.0000000000000000e+00 0.0000000000000000e+00  0.0000000000000000e+00 0.0000000000000000e+00 0.0000000000000000e+00  0.0000000000000000e+00 0.0000000000000000e+00 0.0000000000000000e+00  0.0000000000000000e+00 0.0000000000000000e+00 0.0000000000000000e+00  0.0000000000000000e+00 0.0000000000000000e+00 0.0000000000000000e+00  0.0000000000000000e+00 0.0000000000000000e+00 0.0000000000000000e+00  0.0000000000000000e+00 0.0000000000000000e+00 0.0000000000000000e+00  0.0000000000000000e+00 0.0000000000000000e+00 0.0000000000000000e+00  0.0000000000000000e+00 0.0000000000000000e+00 0.0000000000000000e+00  0.0000000000000000e+00 0.0000000000000000e+00 0.0000000000000000e+00  0.0000000000000000e+00 0.0000000000000000e+00 0.0000000000000000e+00  0.0000000000000000e+00 0.0000000000000000e+00 0.0000000000000000e+00  0.0000000000000000e+00 0.0000000000000000e+00 0.0000000000000000e+00  0.0000000000000000e+00 0.0000000000000000e+00 0.0000000000000000e+00  0.0000000000000000e+00 0.0000000000000000e+00 0.0000000000000000e+00  0.0000000000000000e+00 0.0000000000000000e+00 0.0000000000000000e+00  0.0000000000000000e+00 0.0000000000000000e+00 0.0000000000000000e+00  0.0000000000000000e+00 0.0000000000000000e+00 0.0000000000000000e+00  0.0000000000000000e+00 0.0000000000000000e+00 0.0000000000000000e+00  0.0000000000000000e+00 0.0000000000000000e+00 0.0000000000000000e+00  0.0000000000000000e+00 0.0000000000000000e+00 0.0000000000000000e+00  0.0000000000000000e+00 0.0000000000000000e+00 0.0000000000000000e+00  0.0000000000000000e+00 0.0000000000000000e+00 0.0000000000000000e+00  0.0000000000000000e+00 0.0000000000000000e+00 0.0000000000000000e+00  0.0000000000000000e+00 0.0000000000000000e+00 0.0000000000000000e+00  0.0000000000000000e+00 0.0000000000000000e+00 0.0000000000000000e+00  0.0000000000000000e+00 0.0000000000000000e+00 0.0000000000000000e+00  1.4037318370186619e-02 1.8448993952834255e-04 0.0000000000000000e+00  1.2126886014459527e-02 -5.3646400741764846e-05 0.0000000000000000e+00  1.3831491791633229e-02 -1.7542456661405985e-04 0.0000000000000000e+00  0.0000000000000000e+00 0.0000000000000000e+00 0.0000000000000000e+00  0.0000000000000000e+00 0.0000000000000000e+00 0.0000000000000000e+00  0.0000000000000000e+00 0.0000000000000000e+00 0.0000000000000000e+00  0.0000000000000000e+00 0.0000000000000000e+00 0.0000000000000000e+00  0.0000000000000000e+00 0.0000000000000000e+00 0.0000000000000000e+00  0.0000000000000000e+00 0.0000000000000000e+00 0.0000000000000000e+00  0.0000000000000000e+00 0.0000000000000000e+00 0.0000000000000000e+00  0.0000000000000000e+00 0.0000000000000000e+00 0.0000000000000000e+00  0.0000000000000000e+00 0.0000000000000000e+00 0.0000000000000000e+00  0.0000000000000000e+00 0.0000000000000000e+00 0.0000000000000000e+00  0.0000000000000000e+00 0.0000000000000000e+00 0.0000000000000000e+00  0.0000000000000000e+00 0.0000000000000000e+00 0.0000000000000000e+00  0.0000000000000000e+00 0.0000000000000000e+00 0.0000000000000000e+00  0.0000000000000000e+00 0.0000000000000000e+00 0.0000000000000000e+00  0.0000000000000000e+00 0.0000000000000000e+00 0.0000000000000000e+00  0.0000000000000000e+00 0.0000000000000000e+00 0.0000000000000000e+00  0.0000000000000000e+00 0.0000000000000000e+00 0.0000000000000000e+00  0.0000000000000000e+00 0.0000000000000000e+00 0.0000000000000000e+00  0.0000000000000000e+00 0.0000000000000000e+00 0.0000000000000000e+00  0.0000000000000000e+00 0.0000000000000000e+00 0.0000000000000000e+00  0.0000000000000000e+00 0.0000000000000000e+00 0.0000000000000000e+00  0.0000000000000000e+00 0.0000000000000000e+00 0.0000000000000000e+00  0.0000000000000000e+00 0.0000000000000000e+00 0.0000000000000000e+00  0.0000000000000000e+00 0.0000000000000000e+00 0.0000000000000000e+00  0.0000000000000000e+00 0.0000000000000000e+00 0.0000000000000000e+00  0.0000000000000000e+00 0.0000000000000000e+00 0.0000000000000000e+00  0.0000000000000000e+00 0.0000000000000000e+00 0.0000000000000000e+00  0.0000000000000000e+00 0.0000000000000000e+00 0.0000000000000000e+00  0.0000000000000000e+00 0.0000000000000000e+00 0.0000000000000000e+00  0.0000000000000000e+00 0.0000000000000000e+00 0.0000000000000000e+00  0.0000000000000000e+00 0.0000000000000000e+00 0.0000000000000000e+00  0.0000000000000000e+00 0.0000000000000000e+00 0.0000000000000000e+00  0.0000000000000000e+00 0.0000000000000000e+00 0.0000000000000000e+00  0.0000000000000000e+00 0.0000000000000000e+00 0.0000000000000000e+00  0.0000000000000000e+00 0.0000000000000000e+00 0.0000000000000000e+00  0.0000000000000000e+00 0.0000000000000000e+00 0.0000000000000000e+00  0.0000000000000000e+00 0.0000000000000000e+00 0.0000000000000000e+00  0.0000000000000000e+00 0.0000000000000000e+00 0.0000000000000000e+00  0.0000000000000000e+00 0.0000000000000000e+00 0.0000000000000000e+00  0.0000000000000000e+00 0.0000000000000000e+00 0.0000000000000000e+00  0.0000000000000000e+00 0.0000000000000000e+00 0.0000000000000000e+00  0.0000000000000000e+00 0.0000000000000000e+00 0.0000000000000000e+00  0.0000000000000000e+00 0.0000000000000000e+00 0.0000000000000000e+00  0.0000000000000000e+00 0.0000000000000000e+00 0.0000000000000000e+00  0.0000000000000000e+00 0.0000000000000000e+00 0.0000000000000000e+00  0.0000000000000000e+00 0.0000000000000000e+00 0.0000000000000000e+00  0.0000000000000000e+00 0.0000000000000000e+00 0.0000000000000000e+00  0.0000000000000000e+00 0.0000000000000000e+00 0.0000000000000000e+00  0.0000000000000000e+00 0.0000000000000000e+00 0.0000000000000000e+00  0.0000000000000000e+00 0.0000000000000000e+00 0.0000000000000000e+00  0.0000000000000000e+00 0.0000000000000000e+00 0.0000000000000000e+00  0.0000000000000000e+00 0.0000000000000000e+00 0.0000000000000000e+00  0.0000000000000000e+00 0.0000000000000000e+00 0.0000000000000000e+00  0.0000000000000000e+00 0.0000000000000000e+00 0.0000000000000000e+00  0.0000000000000000e+00 0.0000000000000000e+00 0.0000000000000000e+00  0.0000000000000000e+00 0.0000000000000000e+00 0.0000000000000000e+00  0.0000000000000000e+00 0.0000000000000000e+00 0.0000000000000000e+00  0.0000000000000000e+00 0.0000000000000000e+00 0.0000000000000000e+00  0.0000000000000000e+00 0.0000000000000000e+00 0.0000000000000000e+00  0.0000000000000000e+00 0.0000000000000000e+00 0.0000000000000000e+00  0.0000000000000000e+00 0.0000000000000000e+00 0.0000000000000000e+00  0.0000000000000000e+00 0.0000000000000000e+00 0.0000000000000000e+00  0.0000000000000000e+00 0.0000000000000000e+00 0.0000000000000000e+00  0.0000000000000000e+00 0.0000000000000000e+00 0.0000000000000000e+00  0.0000000000000000e+00 0.0000000000000000e+00 0.0000000000000000e+00  0.0000000000000000e+00 0.0000000000000000e+00 0.0000000000000000e+00  0.0000000000000000e+00 0.0000000000000000e+00 0.0000000000000000e+00  0.0000000000000000e+00 0.0000000000000000e+00 0.0000000000000000e+00  0.0000000000000000e+00 0.0000000000000000e+00 0.0000000000000000e+00  0.0000000000000000e+00 0.0000000000000000e+00 0.0000000000000000e+00  0.0000000000000000e+00 0.0000000000000000e+00 0.0000000000000000e+00  0.0000000000000000e+00 0.0000000000000000e+00 0.0000000000000000e+00  0.0000000000000000e+00 0.0000000000000000e+00 0.0000000000000000e+00  0.0000000000000000e+00 0.0000000000000000e+00 0.0000000000000000e+00  0.0000000000000000e+00 0.0000000000000000e+00 0.0000000000000000e+00  0.0000000000000000e+00 0.0000000000000000e+00 0.0000000000000000e+00  0.0000000000000000e+00 0.0000000000000000e+00 0.0000000000000000e+00  0.0000000000000000e+00 0.0000000000000000e+00 0.0000000000000000e+00  -4.6555290807427166e-07 -4.7689453404071314e-06 0.0000000000000000e+00  -8.0784144696847547e-07 -5.1780327536056293e-06 0.0000000000000000e+00  -9.2561543513724608e-07 -5.3627591970277283e-06 0.0000000000000000e+00  -9.2964342720737785e-07 -5.4406496739565875e-06 0.0000000000000000e+00  -9.1562413954821070e-07 -5.5590154693729001e-06 0.0000000000000000e+00  -9.3444565073551238e-07 -5.7676250448873757e-06 0.0000000000000000e+00  -9.9096644475214234e-07 -6.0106459807443912e-06 0.0000000000000000e+00  -1.0929327913411175e-06 -6.3047930811538652e-06 0.0000000000000000e+00  -1.2115398258226425e-06 -6.6445918177192370e-06 0.0000000000000000e+00  -1.3885983933802466e-06 -7.0162924114913983e-06 0.0000000000000000e+00  -1.5887224716592123e-06 -7.4529581525998673e-06 0.0000000000000000e+00  -1.8448050415600381e-06 -7.9121651398052777e-06 0.0000000000000000e+00  -2.1334652265508427e-06 -8.4254241064511160e-06 0.0000000000000000e+00  -2.4656075244993580e-06 -8.9755274876120153e-06 0.0000000000000000e+00  -2.8481377731499655e-06 -9.5665308656918051e-06 0.0000000000000000e+00  -3.2522027590299493e-06 -1.0202562090295000e-05 0.0000000000000000e+00  -3.7165285862439828e-06 -1.0857777429848784e-05 0.0000000000000000e+00  -4.2109250748296026e-06 -1.1575610153389944e-05 0.0000000000000000e+00  -4.7604352883745634e-06 -1.2301228606411355e-05 0.0000000000000000e+00  -5.3409802060317364e-06 -1.3086769312818419e-05 0.0000000000000000e+00  -5.9739102374626378e-06 -1.3880273408042487e-05 0.0000000000000000e+00  -6.6488990637433719e-06 -1.4720203272415211e-05 0.0000000000000000e+00  -7.3626341167363199e-06 -1.5584746638261680e-05 0.0000000000000000e+00  -8.1279133495256125e-06 -1.6476219836713628e-05 0.0000000000000000e+00  -8.9188115327621026e-06 -1.7401679014482961e-05 0.0000000000000000e+00  -9.7655829719874620e-06 -1.8334557673604349e-05 0.0000000000000000e+00  -1.0654274151466468e-05 -1.9320197559416964e-05 0.0000000000000000e+00  -1.1587974646829606e-05 -2.0299550674497091e-05 0.0000000000000000e+00  -1.2563590455657714e-05 -2.1327592530928265e-05 0.0000000000000000e+00  -1.3583417886007943e-05 -2.2351077173878846e-05 0.0000000000000000e+00  -1.4645095751435165e-05 -2.3419132868294665e-05 0.0000000000000000e+00  -1.5752208494160424e-05 -2.4480251549532590e-05 0.0000000000000000e+00  -1.6899442547506591e-05 -2.5585160046384616e-05 0.0000000000000000e+00  -1.8093373305365872e-05 -2.6676914200080285e-05 0.0000000000000000e+00  -1.9331277314631834e-05 -2.7813264919737775e-05 0.0000000000000000e+00  -2.0612989171589790e-05 -2.8936294577556533e-05 0.0000000000000000e+00  -2.1936528915611014e-05 -3.0098739838934042e-05 0.0000000000000000e+00  -2.3304707898687645e-05 -3.1246815202728128e-05 0.0000000000000000e+00  -2.4717112028393571e-05 -3.2431388842797013e-05 0.0000000000000000e+00  -2.6176293725577387e-05 -3.3599712930972709e-05 0.0000000000000000e+00  -2.7685307915230429e-05 -3.4792777546886870e-05 0.0000000000000000e+00  -2.9229166514407251e-05 -3.5982636964417370e-05 0.0000000000000000e+00  -3.0828200455279637e-05 -3.7182599451072545e-05 0.0000000000000000e+00  -3.2453235901007749e-05 -3.8385520103836117e-05 0.0000000000000000e+00  -3.4130599181331938e-05 -3.9578373849582652e-05 0.0000000000000000e+00  -3.5828806220581740e-05 -4.0806409041711556e-05 0.0000000000000000e+00  -3.8551383641700158e-05 -4.0759193623066033e-05 0.0000000000000000e+00  -4.0256475019041146e-05 -3.7902613413060679e-05 0.0000000000000000e+00  -3.9250829282617340e-05 -3.5294823108991676e-05 0.0000000000000000e+00  -3.7535428715331883e-05 -3.3968482228491612e-05 0.0000000000000000e+00  -3.5844203724884907e-05 -3.2624554571498808e-05 0.0000000000000000e+00  -3.4200644542181994e-05 -3.1300301375542030e-05 0.0000000000000000e+00  -3.2585415307987152e-05 -2.9981066536017862e-05 0.0000000000000000e+00  -3.1025014347787046e-05 -2.8669417366476022e-05 0.0000000000000000e+00  -2.9494640801854456e-05 -2.7370772466406813e-05 0.0000000000000000e+00  -2.8014608283867771e-05 -2.6066976408430411e-05 0.0000000000000000e+00  -2.6572471091550981e-05 -2.4794832444007460e-05 0.0000000000000000e+00  -2.5175273016176915e-05 -2.3508508748359103e-05 0.0000000000000000e+00  -2.3815216076852494e-05 -2.2258752391730864e-05 0.0000000000000000e+00  -2.2501104412038572e-05 -2.0997893357791798e-05 0.0000000000000000e+00  -2.1222999045144712e-05 -1.9775894105975272e-05 0.0000000000000000e+00  -1.9990415430918249e-05 -1.8545073299255191e-05 0.0000000000000000e+00  -1.8792468281235629e-05 -1.7354783289288059e-05 0.0000000000000000e+00  -1.7641060832297830e-05 -1.6157518634803616e-05 0.0000000000000000e+00  -1.6524186184726585e-05 -1.5002808022510490e-05 0.0000000000000000e+00  -1.5454670758187347e-05 -1.3843655976619621e-05 0.0000000000000000e+00  -1.4418162509698501e-05 -1.2730267056064440e-05 0.0000000000000000e+00  -1.3429128834329818e-05 -1.1615114700252400e-05 0.0000000000000000e+00  -1.2471925222759696e-05 -1.0547094657008398e-05 0.0000000000000000e+00  -1.1562969986821811e-05 -9.4809295557478698e-06 0.0000000000000000e+00  -1.0691046143902730e-05 -8.4552949672205329e-06 0.0000000000000000e+00  -9.8566616564028207e-06 -7.4490222284545813e-06 0.0000000000000000e+00  -9.0724346434063769e-06 -6.4769284160606411e-06 0.0000000000000000e+00  -8.3071051917405638e-06 -5.5333285635245035e-06 0.0000000000000000e+00  -7.5944276463363282e-06 -4.6103662531387993e-06 0.0000000000000000e+00  -6.9162947533489506e-06 -3.7431116575755060e-06 0.0000000000000000e+00  -6.2822792630023131e-06 -2.8831966306971281e-06 0.0000000000000000e+00  -5.6848906525684743e-06 -2.0857384262678509e-06 0.0000000000000000e+00  -5.1303570537672856e-06 -1.2977411432222737e-06 0.0000000000000000e+00  -4.6134456555318053e-06 -5.7023546506428659e-07 0.0000000000000000e+00  -4.1329934955896873e-06 1.3397459521713586e-07 0.0000000000000000e+00  -3.7005009084043044e-06 7.8624100958110408e-07 0.0000000000000000e+00  -3.2850798857790610e-06 1.4043704628325396e-06 0.0000000000000000e+00  -2.9217325742357421e-06 1.9831206234141183e-06 0.0000000000000000e+00  -2.5927548099664831e-06 2.4974244045085959e-06 0.0000000000000000e+00  -2.3061800867816636e-06 2.9887627644271783e-06 0.0000000000000000e+00  -2.0537316471194173e-06 3.4160871747653278e-06 0.0000000000000000e+00  -1.8380263914080600e-06 3.8090240012770768e-06 0.0000000000000000e+00  -1.6675489578955797e-06 4.1454375299374285e-06 0.0000000000000000e+00  -1.5091290533486645e-06 4.4386994175132133e-06 0.0000000000000000e+00  -1.4050698383530344e-06 4.7219230319658571e-06 0.0000000000000000e+00  -1.2609849020634063e-06 4.9414032195455516e-06 0.0000000000000000e+00  -1.0347878376638052e-06 4.9624539604577775e-06 0.0000000000000000e+00  -5.8620580133641382e-07 4.6567461973341702e-06 0.0000000000000000e+00  -1.6587740599232385e-06 -7.5743797287267013e-08 0.0000000000000000e+00  -3.6745338573654506e-05 -3.7439024495820349e-05 0.0000000000000000e+00  -3.3455950085835381e-05 -3.5035912526459580e-05 0.0000000000000000e+00  -2.8538672319606610e-05 -3.1092168720217898e-05 0.0000000000000000e+00  -1.1694933406677931e-06 -2.5065843432325380e-07 0.0000000000000000e+00  -2.5676222070790647e-05 -2.8626790515880684e-05 0.0000000000000000e+00  -1.2605639203042879e-06 -5.6150017817871067e-07 0.0000000000000000e+00  -2.2908060743973079e-05 -2.6190809527960306e-05 0.0000000000000000e+00  -1.6954380725854016e-06 -1.5513871493793864e-06 0.0000000000000000e+00  -2.1444682380467526e-06 -2.4632932174475922e-06 0.0000000000000000e+00  -2.0310252937178649e-05 -2.3805136595009372e-05 0.0000000000000000e+00  -4.0079955041514666e-06 -5.3479800651633303e-06 0.0000000000000000e+00  -1.5621396254663398e-05 -1.9217779000694811e-05 0.0000000000000000e+00  -2.7361497456102003e-06 -3.3957474079869726e-06 0.0000000000000000e+00  -4.9960150672882824e-06 -6.8230929204715700e-06 0.0000000000000000e+00  -1.3528768575208952e-05 -1.7033938948632734e-05 0.0000000000000000e+00  -1.7881573744955995e-05 -2.1477761190339538e-05 0.0000000000000000e+00  -6.1741464200998399e-06 -8.4089424963985884e-06 0.0000000000000000e+00  -1.1603515265884866e-05 -1.4936135994429684e-05 0.0000000000000000e+00  -7.4717095764987736e-06 -1.0001039909538119e-05 0.0000000000000000e+00  -9.8586622018942810e-06 -1.3023642081101074e-05 0.0000000000000000e+00  -8.5817191937234568e-06 -1.1425556069544860e-05 0.0000000000000000e+00  -3.2965451760122435e-06 -4.3555960160260355e-06 0.0000000000000000e+00  -3.1086718081180550e-05 -3.3083202852636376e-05 0.0000000000000000e+00  -1.4341296364985010e-06 -1.0514803596033149e-06 0.0000000000000000e+00  -3.5658960278629336e-05 -3.5237036448447303e-05 0.0000000000000000e+00  -1.3354598139594884e-06 1.7973050206391308e-06 0.0000000000000000e+00  -2.4744531030661025e-05 -2.6455971109103915e-05 0.0000000000000000e+00  -2.7605473779695205e-05 -2.8945075839631868e-05 0.0000000000000000e+00  -1.1049421128722596e-06 -2.2125048767430134e-06 0.0000000000000000e+00  -1.7275810197802519e-06 -3.4049413561407344e-06 0.0000000000000000e+00  -1.7170190285795191e-05 -1.9294362623550835e-05 0.0000000000000000e+00  -2.2052129729515977e-05 -2.4011395148389203e-05 0.0000000000000000e+00  -4.1876733864369135e-06 -7.3706364545092071e-06 0.0000000000000000e+00  -1.4978916116561680e-05 -1.7039025350479634e-05 0.0000000000000000e+00  -2.2311083437606813e-06 -4.3288771923915711e-06 0.0000000000000000e+00  -5.2590272556518844e-06 -8.8567030602492834e-06 0.0000000000000000e+00  -1.2953601658670780e-05 -1.4865190575338380e-05 0.0000000000000000e+00  -1.9527867242622121e-05 -2.1621305726857464e-05 0.0000000000000000e+00  -6.4115203142233814e-06 -1.0740123333565134e-05 0.0000000000000000e+00  -1.1092597507647956e-05 -1.2782226953228025e-05 0.0000000000000000e+00  -1.3441891734601462e-06 -1.1411398347133629e-06 0.0000000000000000e+00  -1.3334189123394377e-06 1.0110914171700201e-06 0.0000000000000000e+00  -3.7748182975403416e-0