<?xml version="1.0"?>
<VTKFile type="UnstructuredGrid"  version="0.1"  >
<UnstructuredGrid>
<Piece  NumberOfPoints="1419" NumberOfCells="2698">
<Points>
<DataArray  type="Float64"  NumberOfComponents="3"  format="ascii">0 0 0  0 0.41 0  2.5 0 0  2.5 0.41 0  0.6 0.19 0  0.6 0.21 0  0.25 0.2 0  0.15 0.2 0  0.2489897948556636 0.21 0  0.2489897948556636 0.19 0  0.6 0.2 0  0 0.3807142857143437 0  0 0.3514285714286952 0  0 0.3221428571430699 0  0 0.29285714285744 0  0 0.2635714285718054 0  0 0.2342857142861561 0  0 0.2050000000005308 0  0 0.175714285714732 0  0 0.1464285714289574 0  0 0.1171428571431897 0  0 0.08785714285737878 0  0 0.05857142857161107 0  0 0.02928571428580012 0  0.03015443760436003 0 0  0.06140001986583606 0 0  0.09377624077125973 0 0  0.1273239957535082 0 0  0.1620856860351972 0 0  0.1981052433264291 0 0  0.235428184091502 0 0  0.2741016576309132 0 0  0.3141745521465447 0 0  0.3556974926295285 0 0  0.3987229542472677 0 0  0.4433053055141081 0 0  0.4895008759286886 0 0  0.5373680609405097 0 0  0.5869673343216626 0 0  0.6383613676634521 0 0  0.6916151138468254 0 0  0.7467958595648856 0 0  0.8039733463919316 0 0  0.8632198139502143 0 0  0.9246101326867038 0 0  0.9882218810934433 0 0  1.054135445558498 0 0  1.122434100542598 0 0  1.193204177141305 0 0  1.266535089879536 0 0  1.342519516046404 0 0  1.421253448503939 0 0  1.502836389106271 0 0  1.587371439758838 0 0  1.674965418777374 0 0  1.765729001825544 0 0  1.859776908880082 0 0  1.957227977487062 0 0  2.058205329869943 0 0  2.162836591189951 0 0  2.271253957290865 0 0  2.383594446803425 0 0  2.5 0.1024999999997612 0  2.5 0.2049999999994743 0  2.5 0.3074999999997183 0  2.383594446803656 0.41 0  2.271253957291315 0.41 0  2.162836591190598 0.41 0  2.058205329870775 0.41 0  1.957227977488067 0.41 0  1.859776908881246 0.41 0  1.765729001826854 0.41 0  1.674965418778818 0.41 0  1.58737143976041 0.41 0  1.502836389107956 0.41 0  1.421253448505726 0.41 0  1.342519516048286 0.41 0  1.266535089881505 0.41 0  1.193204177143353 0.41 0  1.122434100544716 0.41 0  1.05413544556068 0.41 0  0.9882218810956305 0.41 0  0.9246101326886647 0.41 0  0.8632198139519631 0.41 0  0.8039733463934788 0.41 0  0.7467958595662458 0.41 0  0.6916151138480078 0.41 0  0.6383613676644679 0.41 0  0.5869673343225223 0.41 0  0.5373680609412221 0.41 0  0.4895008759292634 0.41 0  0.4433053055145528 0.41 0  0.3987229542475914 0.41 0  0.3556974926297398 0.41 0  0.3141745521466497 0.41 0  0.2741016576310038 0.41 0  0.2354281840915826 0.41 0  0.1981052433265003 0.41 0  0.1620856860352591 0.41 0  0.1273239957535623 0.41 0  0.09377624077128965 0.41 0  0.06140001986584975 0.41 0  0.03015443760436654 0.41 0  0.2497468076502589 0.2050254481002335 0  0.2497468076502614 0.1949745518997913 0  0.2469965252529372 0.1829317073451959 0  0.2439893735792749 0.1762316384219906 0  0.2400332147834255 0.1700443375285386 0  0.2352133972704371 0.1645032867342007 0  0.2296339016332438 0.1597280261969788 0  0.2234150974217223 0.1558215752574715 0  0.2166911463437691 0.1528682099456123 0  0.2096071079204251 0.1509316448471593 0  0.2023158100364996 0.1500536585536553 0  0.194974551899914 0.1502531923497262 0  0.1877417105387872 0.1515259415822739 0  0.1807733240461124 0.153844448527136 0  0.1742197252835808 0.15715869474974 0  0.1682222986673531 0.1613971801805478 0  0.162910430003803 0.1664684656256651 0  0.1583987151779087 0.1722631454351573 0  0.1547844879126891 0.178656207771761 0  0.1521457199348551 0.1855097315605723 0  0.1505393388476355 0.1926758619366523 0  0.1505393388476328 0.2073241380633295 0  0.1521457199348437 0.2144902684393899 0  0.1547844879126531 0.221343792228163 0  0.1583987151778488 0.2277368545647528 0  0.1629104300036858 0.2335315343742052 0  0.1682222986671726 0.2386028198193036 0  0.1742197252833576 0.2428413052501257 0  0.1807733240458683 0.2461555514727623 0  0.1877417105384929 0.2484740584176516 0  0.1949745518995776 0.2497468076502398 0  0.202315810036185 0.2499463414463592 0  0.2096071079201568 0.2490683551528932 0  0.2166911463435495 0.2471317900544655 0  0.2234150974215506 0.2441784247426195 0  0.2296339016331197 0.2402719738031125 0  0.2352133972703547 0.2354967132658811 0  0.2400332147833751 0.2299556624715287 0  0.2439893735792577 0.2237683615780412 0  0.246996525252926 0.2170682926548348 0  0.25645809709277 0.21 0  0.2639263993298655 0.21 0  0.271394701566961 0.21 0  0.2788630038040554 0.21 0  0.2863313060411479 0.21 0  0.2937996082782405 0.21 0  0.301267910515333 0.21 0  0.3087362127524279 0.21 0  0.3162045149895234 0.21 0  0.3236728172265972 0.21 0  0.3311411194636928 0.21 0  0.3386094217007701 0.21 0  0.3460777239378666 0.21 0  0.3535460261749672 0.21 0  0.3610143284120516 0.21 0  0.3684826306491596 0.21 0  0.3759509328862226 0.21 0  0.383419235123329 0.21 0  0.3908875373604028 0.21 0  0.3983558395975142 0.21 0  0.4058241418345938 0.21 0  0.4132924440716992 0.21 0  0.4207607463087888 0.21 0  0.4282290485459029 0.21 0  0.4356973507830418 0.21 0  0.4431656530201649 0.21 0  0.4506339552573136 0.21 0  0.4581022574944306 0.21 0  0.4655705597315852 0.21 0  0.4730388619686996 0.21 0  0.480507164205851 0.21 0  0.4879754664429498 0.21 0  0.4954437686800938 0.21 0  0.502912070917267 0.21 0  0.5103803731544119 0.21 0  0.5178486753915261 0.21 0  0.5253169776286404 0.21 0  0.5327852798657868 0.21 0  0.5402535821029386 0.21 0  0.54772188434007 0.21 0  0.5551901865771842 0.21 0  0.5626584888143201 0.21 0  0.5701267910514778 0.21 0  0.5775950932886138 0.21 0  0.5850633955257281 0.21 0  0.5925316977628483 0.21 0  0.6 0.2050000000000054 0  0.6 0.1950000000000217 0  0.5925316977628897 0.19 0  0.5850633955257988 0.19 0  0.5775950932887378 0.19 0  0.5701267910515998 0.19 0  0.5626584888145268 0.19 0  0.5551901865773963 0.19 0  0.547721884340339 0.19 0  0.5402535821032429 0.19 0  0.5327852798661811 0.19 0  0.5253169776290537 0.19 0  0.5178486753919799 0.19 0  0.5103803731549078 0.19 0  0.502912070917822 0.19 0  0.4954437686807294 0.19 0  0.4879754664436223 0.19 0  0.4805071642065402 0.19 0  0.4730388619694271 0.19 0  0.4655705597323621 0.19 0  0.4581022574952563 0.19 0  0.4506339552581777 0.19 0  0.4431656530210671 0.19 0  0.4356973507839815 0.19 0  0.4282290485468779 0.19 0  0.4207607463097617 0.19 0  0.4132924440726327 0.19 0  0.4058241418354857 0.19 0  0.3983558395983636 0.19 0  0.3908875373612097 0.19 0  0.3834192351240934 0.19 0  0.3759509328869369 0.19 0  0.3684826306498175 0.19 0  0.361014328412667 0.19 0  0.3535460261755617 0.19 0  0.3460777239384295 0.19 0  0.3386094217012945 0.19 0  0.3311411194641595 0.19 0  0.3236728172270245 0.19 0  0.3162045149898895 0.19 0  0.3087362127527544 0.19 0  0.3012679105156187 0.19 0  0.2937996082784807 0.19 0  0.2863313060413428 0.19 0  0.2788630038042048 0.19 0  0.2713947015670686 0.19 0  0.2639263993299336 0.19 0  0.2564580970927985 0.19 0  0.2607803159922026 0.2000727136295815 0  0.5887803774232762 0.2001272386983733 0  0.5745072403740523 0.2002044435018727 0  0.5511891430099709 0.2001122610077113 0  0.2751288526855082 0.20000000000002 0  0.5365194309847112 0.1999999999999436 0  0.2894621222999649 0.1998691686390484 0  0.5215828265105155 0.1999999999999228 0  0.3127789816668748 0.1998657885438805 0  0.3274069683451451 0.2000000000000796 0  0.5066462220363641 0.199999999999908 0  0.3650630746574081 0.199866017807523 0  0.476773013087985 0.1999999999998713 0  0.3417402379596385 0.1998691686391011 0  0.3796850840047755 0.200000000000134 0  0.4618364086138087 0.1999999999998546 0  0.4917096175621762 0.1999999999998808 0  0.3946216884789568 0.2000000000001512 0  0.446899804139621 0.1999999999998389 0  0.4089549580935208 0.1998691686391595 0  0.4322718174608562 0.200127451265745 0  0.4201487168029707 0.1999966199048527 0  0.3528922713220932 0.2000185703532356 0  0.5633122436674589 0.1999814296467508 0  0.3006558810093873 0.1999966199048318 0  0.5815926498168407 0.1966545283159175 0  0.2677053789419034 0.1964246479135325 0  0.5290511287476175 0.1970915826863981 0  0.5439877332217911 0.197091582686394 0  0.2825131256993216 0.2035478995978015 0  0.3199386661080599 0.202908417313604 0  0.4842413153250809 0.1970915826863873 0  0.5141145242734466 0.1970915826863843 0  0.3722167817676917 0.2029084173136195 0  0.4693047108508938 0.1970915826863783 0  0.3348752705822316 0.202908417313609 0  0.3871533862418661 0.2029084173136212 0  0.4543681063767183 0.1970915826863795 0  0.4991779197992749 0.1970915826863902 0  0.4020059614928624 0.203547899597858 0  0.4394315019025246 0.1970915826863714 0  0.2550657455369551 0.2034088125358657 0  0.2548908499171161 0.1966940311614271 0  0.5946539510196798 0.2024302972968126 0  0.267698176732111 0.2039977513680092 0  0.4261685417851465 0.196409292431739 0  0.3590076176283495 0.196411355804271 0  0.5571672426447437 0.2036011176410121 0  0.3066757059912147 0.1964092924317024 0  0.594380730180568 0.1966558399668133 0  0.4842413153245942 0.2040749161535287 0  0.4693047108503577 0.2040749161535231 0  0.3871533862424271 0.1959250838464788 0  0.372246743208829 0.1959123236376545 0  0.5141145242731028 0.2040749161535395 0  0.4543681063761134 0.2040749161535186 0  0.4019979587101454 0.1959834479682427 0  0.4394608940728603 0.2040870543693135 0  0.5439623148931173 0.2040856076781014 0  0.5290511287473298 0.2040749161535501 0  0.4991779197988497 0.2040749161535382 0  0.3347912413592433 0.1959225448935183 0  0.3199680582793816 0.1959123018030061 0  0.2825051229162361 0.1959834479681729 0  0.3590471196690275 0.2036304442587945 0  0.5571594006495384 0.1963685282145804 0  0.3067669986803285 0.203627750582736 0  0.4262598344738712 0.2036568242185335 0  0.5814408164431408 0.2041285596160068 0  0.5688286748170428 0.1961819304477386 0  0.4145905603063645 0.2038180695522843 0  0.3473758401724931 0.2038180695522752 0  0.2950977245128307 0.2038180695522663 0  0.5688286748170693 0.203818069552238 0  0.2950977245127906 0.1961819304477774 0  0.3473758401723931 0.1961819304478349 0  0.4145905603061963 0.1961819304479011 0  0.2601812407614425 0.2056861609747042
[...]
<PointData  Vectors="f_40-0"> 
<DataArray  type="Float64"  Name="f_40-0"  NumberOfComponents="3" format="ascii">0.0000000000000000e+00 0.0000000000000000e+00 0.0000000000000000e+00  0.0000000000000000e+00 0.0000000000000000e+00 0.0000000000000000e+00  0.0000000000000000e+00 0.0000000000000000e+00 0.0000000000000000e+00  0.0000000000000000e+00 0.0000000000000000e+00 0.0000000000000000e+00  -2.7130371387394961e-05 -1.4074165262816288e-03 0.0000000000000000e+00  8.3723489187715128e-05 -1.4105993669583316e-03 0.0000000000000000e+00  0.0000000000000000e+00 0.0000000000000000e+00 0.0000000000000000e+00  0.0000000000000000e+00 0.0000000000000000e+00 0.0000000000000000e+00  0.0000000000000000e+00 0.0000000000000000e+00 0.0000000000000000e+00  0.0000000000000000e+00 0.0000000000000000e+00 0.0000000000000000e+00  2.7773705319836383e-05 -1.4089870867069058e-03 0.0000000000000000e+00  2.5326413407369874e-01 0.0000000000000000e+00 0.0000000000000000e+00  4.6756455521301338e-01 0.0000000000000000e+00 0.0000000000000000e+00  6.4290126341789344e-01 0.0000000000000000e+00 0.0000000000000000e+00  7.7927425868854205e-01 0.0000000000000000e+00 0.0000000000000000e+00  8.7668354102494150e-01 0.0000000000000000e+00 0.0000000000000000e+00  9.3512911042708591e-01 0.0000000000000000e+00 0.0000000000000000e+00  9.5461096689491698e-01 0.0000000000000000e+00 0.0000000000000000e+00  9.3512911042826763e-01 0.0000000000000000e+00 0.0000000000000000e+00  8.7668354102697121e-01 0.0000000000000000e+00 0.0000000000000000e+00  7.7927425869105571e-01 0.0000000000000000e+00 0.0000000000000000e+00  6.4290126342028131e-01 0.0000000000000000e+00 0.0000000000000000e+00  4.6756455521505103e-01 0.0000000000000000e+00 0.0000000000000000e+00  2.5326413407484683e-01 0.0000000000000000e+00 0.0000000000000000e+00  0.0000000000000000e+00 0.0000000000000000e+00 0.0000000000000000e+00  0.0000000000000000e+00 0.0000000000000000e+00 0.0000000000000000e+00  0.0000000000000000e+00 0.0000000000000000e+00 0.0000000000000000e+00  0.0000000000000000e+00 0.0000000000000000e+00 0.0000000000000000e+00  0.0000000000000000e+00 0.0000000000000000e+00 0.0000000000000000e+00  0.0000000000000000e+00 0.0000000000000000e+00 0.0000000000000000e+00  0.0000000000000000e+00 0.0000000000000000e+00 0.0000000000000000e+00  0.0000000000000000e+00 0.0000000000000000e+00 0.0000000000000000e+00  0.0000000000000000e+00 0.0000000000000000e+00 0.0000000000000000e+00  0.0000000000000000e+00 0.0000000000000000e+00 0.0000000000000000e+00  0.0000000000000000e+00 0.0000000000000000e+00 0.0000000000000000e+00  0.0000000000000000e+00 0.0000000000000000e+00 0.0000000000000000e+00  0.0000000000000000e+00 0.0000000000000000e+00 0.0000000000000000e+00  0.0000000000000000e+00 0.0000000000000000e+00 0.0000000000000000e+00  0.0000000000000000e+00 0.0000000000000000e+00 0.0000000000000000e+00  0.0000000000000000e+00 0.0000000000000000e+00 0.0000000000000000e+00  0.0000000000000000e+00 0.0000000000000000e+00 0.0000000000000000e+00  0.0000000000000000e+00 0.0000000000000000e+00 0.0000000000000000e+00  0.0000000000000000e+00 0.0000000000000000e+00 0.0000000000000000e+00  0.0000000000000000e+00 0.0000000000000000e+00 0.0000000000000000e+00  0.0000000000000000e+00 0.0000000000000000e+00 0.0000000000000000e+00  0.0000000000000000e+00 0.0000000000000000e+00 0.0000000000000000e+00  0.0000000000000000e+00 0.0000000000000000e+00 0.0000000000000000e+00  0.0000000000000000e+00 0.0000000000000000e+00 0.0000000000000000e+00  0.0000000000000000e+00 0.0000000000000000e+00 0.0000000000000000e+00  0.0000000000000000e+00 0.0000000000000000e+00 0.0000000000000000e+00  0.0000000000000000e+00 0.0000000000000000e+00 0.0000000000000000e+00  0.0000000000000000e+00 0.0000000000000000e+00 0.0000000000000000e+00  0.0000000000000000e+00 0.0000000000000000e+00 0.0000000000000000e+00  0.0000000000000000e+00 0.0000000000000000e+00 0.0000000000000000e+00  0.0000000000000000e+00 0.0000000000000000e+00 0.0000000000000000e+00  0.0000000000000000e+00 0.0000000000000000e+00 0.0000000000000000e+00  0.0000000000000000e+00 0.0000000000000000e+00 0.0000000000000000e+00  0.0000000000000000e+00 0.0000000000000000e+00 0.0000000000000000e+00  0.0000000000000000e+00 0.0000000000000000e+00 0.0000000000000000e+00  0.0000000000000000e+00 0.0000000000000000e+00 0.0000000000000000e+00  0.0000000000000000e+00 0.0000000000000000e+00 0.0000000000000000e+00  0.0000000000000000e+00 0.0000000000000000e+00 0.0000000000000000e+00  8.5890173078186416e-01 -2.4061421896396488e-02 0.0000000000000000e+00  6.3381114288274532e-01 8.1301004156803733e-03 0.0000000000000000e+00  8.6299906627036238e-01 2.8385706944083846e-02 0.0000000000000000e+00  0.0000000000000000e+00 0.0000000000000000e+00 0.0000000000000000e+00  0.0000000000000000e+00 0.0000000000000000e+00 0.0000000000000000e+00  0.0000000000000000e+00 0.0000000000000000e+00 0.0000000000000000e+00  0.0000000000000000e+00 0.0000000000000000e+00 0.0000000000000000e+00  0.0000000000000000e+00 0.0000000000000000e+00 0.0000000000000000e+00  0.0000000000000000e+00 0.0000000000000000e+00 0.0000000000000000e+00  0.0000000000000000e+00 0.0000000000000000e+00 0.0000000000000000e+00  0.0000000000000000e+00 0.0000000000000000e+00 0.0000000000000000e+00  0.0000000000000000e+00 0.0000000000000000e+00 0.0000000000000000e+00  0.0000000000000000e+00 0.0000000000000000e+00 0.0000000000000000e+00  0.0000000000000000e+00 0.0000000000000000e+00 0.0000000000000000e+00  0.0000000000000000e+00 0.0000000000000000e+00 0.0000000000000000e+00  0.0000000000000000e+00 0.0000000000000000e+00 0.0000000000000000e+00  0.0000000000000000e+00 0.0000000000000000e+00 0.0000000000000000e+00  0.0000000000000000e+00 0.0000000000000000e+00 0.0000000000000000e+00  0.0000000000000000e+00 0.0000000000000000e+00 0.0000000000000000e+00  0.0000000000000000e+00 0.0000000000000000e+00 0.0000000000000000e+00  0.0000000000000000e+00 0.0000000000000000e+00 0.0000000000000000e+00  0.0000000000000000e+00 0.0000000000000000e+00 0.0000000000000000e+00  0.0000000000000000e+00 0.0000000000000000e+00 0.0000000000000000e+00  0.0000000000000000e+00 0.0000000000000000e+00 0.0000000000000000e+00  0.0000000000000000e+00 0.0000000000000000e+00 0.0000000000000000e+00  0.0000000000000000e+00 0.0000000000000000e+00 0.0000000000000000e+00  0.0000000000000000e+00 0.0000000000000000e+00 0.0000000000000000e+00  0.0000000000000000e+00 0.0000000000000000e+00 0.0000000000000000e+00  0.0000000000000000e+00 0.0000000000000000e+00 0.0000000000000000e+00  0.0000000000000000e+00 0.0000000000000000e+00 0.0000000000000000e+00  0.0000000000000000e+00 0.0000000000000000e+00 0.0000000000000000e+00  0.0000000000000000e+00 0.0000000000000000e+00 0.0000000000000000e+00  0.0000000000000000e+00 0.0000000000000000e+00 0.0000000000000000e+00  0.0000000000000000e+00 0.0000000000000000e+00 0.0000000000000000e+00  0.0000000000000000e+00 0.0000000000000000e+00 0.0000000000000000e+00  0.0000000000000000e+00 0.0000000000000000e+00 0.0000000000000000e+00  0.0000000000000000e+00 0.0000000000000000e+00 0.0000000000000000e+00  0.0000000000000000e+00 0.0000000000000000e+00 0.0000000000000000e+00  0.0000000000000000e+00 0.0000000000000000e+00 0.0000000000000000e+00  0.0000000000000000e+00 0.0000000000000000e+00 0.0000000000000000e+00  0.0000000000000000e+00 0.0000000000000000e+00 0.0000000000000000e+00  0.0000000000000000e+00 0.0000000000000000e+00 0.0000000000000000e+00  0.0000000000000000e+00 0.0000000000000000e+00 0.0000000000000000e+00  0.0000000000000000e+00 0.0000000000000000e+00 0.0000000000000000e+00  0.0000000000000000e+00 0.0000000000000000e+00 0.0000000000000000e+00  0.0000000000000000e+00 0.0000000000000000e+00 0.0000000000000000e+00  0.0000000000000000e+00 0.0000000000000000e+00 0.0000000000000000e+00  0.0000000000000000e+00 0.0000000000000000e+00 0.0000000000000000e+00  0.0000000000000000e+00 0.0000000000000000e+00 0.0000000000000000e+00  0.0000000000000000e+00 0.0000000000000000e+00 0.0000000000000000e+00  0.0000000000000000e+00 0.0000000000000000e+00 0.0000000000000000e+00  0.0000000000000000e+00 0.0000000000000000e+00 0.0000000000000000e+00  0.0000000000000000e+00 0.0000000000000000e+00 0.0000000000000000e+00  0.0000000000000000e+00 0.0000000000000000e+00 0.0000000000000000e+00  0.0000000000000000e+00 0.0000000000000000e+00 0.0000000000000000e+00  0.0000000000000000e+00 0.0000000000000000e+00 0.0000000000000000e+00  0.0000000000000000e+00 0.0000000000000000e+00 0.0000000000000000e+00  0.0000000000000000e+00 0.0000000000000000e+00 0.0000000000000000e+00  0.0000000000000000e+00 0.0000000000000000e+00 0.0000000000000000e+00  0.0000000000000000e+00 0.0000000000000000e+00 0.0000000000000000e+00  0.0000000000000000e+00 0.0000000000000000e+00 0.0000000000000000e+00  0.0000000000000000e+00 0.0000000000000000e+00 0.0000000000000000e+00  0.0000000000000000e+00 0.0000000000000000e+00 0.0000000000000000e+00  0.0000000000000000e+00 0.0000000000000000e+00 0.0000000000000000e+00  0.0000000000000000e+00 0.0000000000000000e+00 0.0000000000000000e+00  0.0000000000000000e+00 0.0000000000000000e+00 0.0000000000000000e+00  0.0000000000000000e+00 0.0000000000000000e+00 0.0000000000000000e+00  0.0000000000000000e+00 0.0000000000000000e+00 0.0000000000000000e+00  0.0000000000000000e+00 0.0000000000000000e+00 0.0000000000000000e+00  0.0000000000000000e+00 0.0000000000000000e+00 0.0000000000000000e+00  0.0000000000000000e+00 0.0000000000000000e+00 0.0000000000000000e+00  0.0000000000000000e+00 0.0000000000000000e+00 0.0000000000000000e+00  0.0000000000000000e+00 0.0000000000000000e+00 0.0000000000000000e+00  0.0000000000000000e+00 0.0000000000000000e+00 0.0000000000000000e+00  0.0000000000000000e+00 0.0000000000000000e+00 0.0000000000000000e+00  0.0000000000000000e+00 0.0000000000000000e+00 0.0000000000000000e+00  0.0000000000000000e+00 0.0000000000000000e+00 0.0000000000000000e+00  0.0000000000000000e+00 0.0000000000000000e+00 0.0000000000000000e+00  0.0000000000000000e+00 0.0000000000000000e+00 0.0000000000000000e+00  0.0000000000000000e+00 0.0000000000000000e+00 0.0000000000000000e+00  0.0000000000000000e+00 0.0000000000000000e+00 0.0000000000000000e+00  1.7689299719893729e-06 -2.6480696344625726e-06 0.0000000000000000e+00  4.0352936912300671e-06 -5.0363834208984353e-06 0.0000000000000000e+00  6.2596964703907461e-06 -9.2593040578436874e-06 0.0000000000000000e+00  8.9300683038011858e-06 -1.5410883024257748e-05 0.0000000000000000e+00  1.1358374231762146e-05 -2.3494505907962477e-05 0.0000000000000000e+00  1.4381043125980004e-05 -3.3627419841953292e-05 0.0000000000000000e+00  1.6987783303731734e-05 -4.5414352858879183e-05 0.0000000000000000e+00  1.9770010863325527e-05 -5.9414246815843978e-05 0.0000000000000000e+00  2.3111169562649250e-05 -7.5128249792023847e-05 0.0000000000000000e+00  2.5964460852488567e-05 -9.2745249201765269e-05 0.0000000000000000e+00  2.9527270692418971e-05 -1.1213731280506604e-04 0.0000000000000000e+00  3.2526201072930401e-05 -1.3334670253474352e-04 0.0000000000000000e+00  3.6102286759842150e-05 -1.5621186594012818e-04 0.0000000000000000e+00  3.9214155038664538e-05 -1.8045550190077882e-04 0.0000000000000000e+00  4.2382862863513952e-05 -2.0642954309826970e-04 0.0000000000000000e+00  4.5873141458645456e-05 -2.3367623590517047e-04 0.0000000000000000e+00  4.8862091723713559e-05 -2.6226774533975899e-04 0.0000000000000000e+00  5.2220632817701233e-05 -2.9212809503923739e-04 0.0000000000000000e+00  5.5048070045660575e-05 -3.2313370131578954e-04 0.0000000000000000e+00  5.8133202372633199e-05 -3.5520630078803142e-04 0.0000000000000000e+00  6.0812063466235969e-05 -3.8827961327304324e-04 0.0000000000000000e+00  6.3578474648998782e-05 -4.2232579303498586e-04 0.0000000000000000e+00  6.5986990149994901e-05 -4.5706541850013281e-04 0.0000000000000000e+00  6.8268970232588123e-05 -4.9269267525765034e-04 0.0000000000000000e+00  7.0586500742137931e-05 -5.2892168469367569e-04 0.0000000000000000e+00  7.2597952993280965e-05 -5.6580633099863732e-04 0.0000000000000000e+00  7.4512034198803370e-05 -6.0332661665704135e-04 0.0000000000000000e+00  7.6218311215604985e-05 -6.4128087281702128e-04 0.0000000000000000e+00  7.7816448810251552e-05 -6.7978682515989358e-04 0.0000000000000000e+00  7.9224101687039728e-05 -7.1863050361705208e-04 0.0000000000000000e+00  8.0517302127115835e-05 -7.5793095163606235e-04 0.0000000000000000e+00  8.1633341121298129e-05 -7.9748227782438662e-04 0.0000000000000000e+00  8.2636739918298831e-05 -8.3740377136151776e-04 0.0000000000000000e+00  8.3473850184510770e-05 -8.7749671608527958e-04 0.0000000000000000e+00  8.4196292214722842e-05 -9.1789225509688037e-04 0.0000000000000000e+00  8.4771809580522431e-05 -9.5839908079830161e-04 0.0000000000000000e+00  8.5235895633923342e-05 -9.9913894263203395e-04 0.0000000000000000e+00  8.5564744047987769e-05 -1.0399383788678494e-03 0.0000000000000000e+00  8.5781946125441119e-05 -1.0809185398400509e-03 0.0000000000000000e+00  8.5872032458944258e-05 -1.1219180109294511e-03 0.0000000000000000e+00  8.5842856927971490e-05 -1.1630372771051650e-03 0.0000000000000000e+00  8.5712803698311592e-05 -1.2041739702681640e-03 0.0000000000000000e+00  8.5462180359505111e-05 -1.2453678343344620e-03 0.0000000000000000e+00  8.5147348952288956e-05 -1.2865831995928726e-03 0.0000000000000000e+00  8.4700108343109277e-05 -1.3277806971244077e-03 0.0000000000000000e+00  8.4186708516737952e-05 -1.3690543447136203e-03 0.0000000000000000e+00  5.5560203707051644e-05 -1.4097907627505246e-03 0.0000000000000000e+00  1.5963592480141856e-07 -1.4081950062752478e-03 0.0000000000000000e+00  -2.6621512512380298e-05 -1.3661487591840995e-03 0.0000000000000000e+00  -2.6046541972054374e-05 -1.3246797632928023e-03 0.0000000000000000e+00  -2.5533172608468454e-05 -1.2831792010156824e-03 0.0000000000000000e+00  -2.5113594478085487e-05 -1.2417452453446411e-03 0.0000000000000000e+00  -2.4756499433455324e-05 -1.2003377744452700e-03 0.0000000000000000e+00  -2.4494485884828970e-05 -1.1589815992505928e-03 0.0000000000000000e+00  -2.4270835019972888e-05 -1.1176901275869236e-03 0.0000000000000000e+00  -2.4153840248405170e-05 -1.0764359480263980e-03 0.0000000000000000e+00  -2.4067632805448025e-05 -1.0353227249111701e-03 0.0000000000000000e+00  -2.4083624351463419e-05 -9.9426421017419892e-04 0.0000000000000000e+00  -2.4106167622651503e-05 -9.5338956624762118e-04 0.0000000000000000e+00  -2.4242239202909443e-05 -9.1262212006924684e-04 0.0000000000000000e+00  -2.4359640718102233e-05 -8.7209711401074698e-04 0.0000000000000000e+00  -2.4601371197464419e-05 -8.3174241397003350e-04 0.0000000000000000e+00  -2.4792158452890216e-05 -7.9169040139512499e-04 0.0000000000000000e+00  -2.5125760182483352e-05 -7.5188370392957735e-04 0.0000000000000000e+00  -2.5373550969257759e-05 -7.1245538909041892e-04 0.0000000000000000e+00  -2.5784518417023698e-05 -6.7336077792253196e-04 0.0000000000000000e+00  -2.6069274137571446e-05 -6.3473759852165359e-04 0.0000000000000000e+00  -2.6535570354589298e-05 -5.9655043082762244e-04 0.0000000000000000e+00  -2.6819935818685793e-05 -5.5893251901050465e-04 0.0000000000000000e+00  -2.7305112190590260e-05 -5.2187478704063587e-04 0.0000000000000000e+00  -2.7573548685246375e-05 -4.8550003768282061e-04 0.0000000000000000e+00  -2.7993760279610536e-05 -4.4977415743475057e-04 0.0000000000000000e+00  -2.8394362844413149e-05 -4.1497039530800174e-04 0.0000000000000000e+00  -2.8539417528333348e-05 -3.8086120753549538e-04 0.0000000000000000e+00  -2.8770974443812106e-05 -3.4780631055289718e-04 0.0000000000000000e+00  -2.8796601932972149e-05 -3.1572335178019434e-04 0.0000000000000000e+00  -2.8832452129462783e-05 -2.8481702396257946e-04 0.0000000000000000e+00  -2.8627787991808064e-05 -2.5505425789699011e-04 0.0000000000000000e+00  -2.8395774657928460e-05 -2.2660067789111716e-04 0.0000000000000000e+00  -2.7721832357269909e-05 -1.9963768649220793e-04 0.0000000000000000e+00  -2.7241189575393600e-05 -1.7392139498867269e-04 0.0000000000000000e+00  -2.6565898209407094e-05 -1.4999427364935369e-04 0.0000000000000000e+00  -2.5373015800965197e-05 -1.2736209804546463e-04 0.0000000000000000e+00  -2.4183651687251819e-05 -1.0664727259764479e-04 0.0000000000000000e+00  -2.2613664363398302e-05 -8.7555320626102692e-05 0.0000000000000000e+00  -2.1014694429197013e-05 -7.0327283440858979e-05 0.0000000000000000e+00  -1.8857147480579296e-05 -5.5091850634178308e-05 0.0000000000000000e+00  -1.6997744968842918e-05 -4.1448283650975850e-05 0.0000000000000000e+00  -1.4986249586480098e-05 -3.0011796035100695e-05 0.0000000000000000e+00  -1.2427295197979427e-05 -2.0109272809791234e-05 0.0000000000000000e+00  -1.0110177836386149e-05 -1.2278742613928901e-05 0.0000000000000000e+00  -7.3949121261471782e-06 -6.3459528735327493e-06 0.0000000000000000e+00  -5.0133728260603338e-06 -2.2990927888392824e-06 0.0000000000000000e+00  -2.3009674774877014e-06 -1.2461673718464017e-07 0.0000000000000000e+00  -5.7178803419537554e-07 -1.2550122757572799e-06 0.0000000000000000e+00  2.9539881628935051e-05 -1.3468224601988024e-03 0.0000000000000000e+00  3.0996226951761284e-05 -1.2677996961508501e-03 0.0000000000000000e+00  3.1267400025192364e-05 -1.1389021929713852e-03 0.0000000000000000e+00  -5.5806389421381271e-07 -9.3576772759115625e-06 0.0000000000000000e+00  3.0669623044403112e-05 -1.0580711908947577e-03 0.0000000000000000e+00  -5.5105105376291729e-07 -2.4452626492096098e-05 0.0000000000000000e+00  3.0343816369612936e-05 -9.7617843494141737e-04 0.0000000000000000e+00  5.1127582339262132e-07 -6.4142016799225134e-05 0.0000000000000000e+00  2.2278313484029402e-06 -9.8420067123280631e-05 0.0000000000000000e+00  2.9656267259953740e-05 -8.9486377145310623e-04 0.0000000000000000e+00  7.5633335705248823e-06 -2.1658241907448862e-04 0.0000000000000000e+00  2.7199614044979399e-05 -7.3494355354691929e-04 0.0000000000000000e+00  3.7198879974854063e-06 -1.3854242860849626e-04 0.0000000000000000e+00  1.0871917125659909e-05 -2.7262022899342286e-04 0.0000000000000000e+00  2.5435388716488881e-05 -6.5693814898354005e-04 0.0000000000000000e+00  2.8608061339338957e-05 -8.1436071809576815e-04 0.0000000000000000e+00  1.3849521111395616e-05 -3.3463944319369324e-04 0.0000000000000000e+00  2.3325381978384755e-05 -5.8071961619709383e-04 0.0000000000000000e+00  1.6090536445277339e-05 -3.9807626300541007e-04 0.0000000000000000e+00  2.1583909858487479e-05 -5.0825368983101215e-04 0.0000000000000000e+00  1.8763951332092831e-05 -4.5015018645961789e-04 0.0000000000000000e+00  5.9685809639139930e-06 -1.7429146022770355e-04 0.0000000000000000e+00  3.0212685266472603e-05 -1.2058422744200303e-03 0.0000000000000000e+00  4.7988220737740501e-08 -4.1497656657908936e-05 0.0000000000000000e+00  1.0893425180067254e-05 -1.3064668398883638e-03 0.0000000000000000e+00  -2.6312591271606857e-06 -3.9823973581687909e-06 0.0000000000000000e+00  1.4636909090004938e-05 -1.0163880079577848e-03 0.0000000000000000e+00  1.4702088539393012e-05 -1.0985471057106792e-03 0.0000000000000000e+00  3.2557538588201150e-06 -1.7040111738471567e-05 0.0000000000000000e+00  8.2030327701833320e-06 -8.0934494249605051e-05 0.0000000000000000e+00  1.2536258031993009e-05 -7.7366638261550970e-04 0.0000000000000000e+00  1.4249738321450710e-05 -9.3470473548276580e-04 0.0000000000000000e+00  2.0461183333083452e-05 -2.4454543066620266e-04 0.0000000000000000e+00  1.1231428081682906e-05 -6.9486300822457184e-04 0.0000000000000000e+00  1.1227161517923166e-05 -1.1953984213454722e-04 0.0000000000000000e+00  2.4332995000300048e-05 -3.0423755690439256e-04 0.0000000000000000e+00  9.6469615987841441e-06 -6.1765807124568393e-04 0.0000000000000000e+00  1.3545692158073793e-05 -8.5371335007543975e-04 0.0000000000000000e+00  3.0918827333285998e-05 -3.6832435747638444e-04 0.0000000000000000e+00  7.8069495822079392e-06 -5.4245015783584908e-04 0.0000000000000000e+00  -5.9698312781145156e-08 -4.3061991329833462e-07 0.0000000000000000e+00  -7.5401956405303636e-07 1.7126688765612515e-07 0.0000000000000000e+00  4.1761175778093357e-05 -1.3797045263314327e-03 0.0000000000000000e+00  1.7426144952822574e-06 -