<?xml version="1.0"?>
<VTKFile type="UnstructuredGrid"  version="0.1"  >
<UnstructuredGrid>
<Piece  NumberOfPoints="1419" NumberOfCells="2698">
<Points>
<DataArray  type="Float64"  NumberOfComponents="3"  format="ascii">0 0 0  0 0.41 0  2.5 0 0  2.5 0.41 0  0.6 0.19 0  0.6 0.21 0  0.25 0.2 0  0.15 0.2 0  0.2489897948556636 0.21 0  0.2489897948556636 0.19 0  0.6 0.2 0  0 0.3807142857143437 0  0 0.3514285714286952 0  0 0.3221428571430699 0  0 0.29285714285744 0  0 0.2635714285718054 0  0 0.2342857142861561 0  0 0.2050000000005308 0  0 0.175714285714732 0  0 0.1464285714289574 0  0 0.1171428571431897 0  0 0.08785714285737878 0  0 0.05857142857161107 0  0 0.02928571428580012 0  0.03015443760436003 0 0  0.06140001986583606 0 0  0.09377624077125973 0 0  0.1273239957535082 0 0  0.1620856860351972 0 0  0.1981052433264291 0 0  0.235428184091502 0 0  0.2741016576309132 0 0  0.3141745521465447 0 0  0.3556974926295285 0 0  0.3987229542472677 0 0  0.4433053055141081 0 0  0.4895008759286886 0 0  0.5373680609405097 0 0  0.5869673343216626 0 0  0.6383613676634521 0 0  0.6916151138468254 0 0  0.7467958595648856 0 0  0.8039733463919316 0 0  0.8632198139502143 0 0  0.9246101326867038 0 0  0.9882218810934433 0 0  1.054135445558498 0 0  1.122434100542598 0 0  1.193204177141305 0 0  1.266535089879536 0 0  1.342519516046404 0 0  1.421253448503939 0 0  1.502836389106271 0 0  1.587371439758838 0 0  1.674965418777374 0 0  1.765729001825544 0 0  1.859776908880082 0 0  1.957227977487062 0 0  2.058205329869943 0 0  2.162836591189951 0 0  2.271253957290865 0 0  2.383594446803425 0 0  2.5 0.1024999999997612 0  2.5 0.2049999999994743 0  2.5 0.3074999999997183 0  2.383594446803656 0.41 0  2.271253957291315 0.41 0  2.162836591190598 0.41 0  2.058205329870775 0.41 0  1.957227977488067 0.41 0  1.859776908881246 0.41 0  1.765729001826854 0.41 0  1.674965418778818 0.41 0  1.58737143976041 0.41 0  1.502836389107956 0.41 0  1.421253448505726 0.41 0  1.342519516048286 0.41 0  1.266535089881505 0.41 0  1.193204177143353 0.41 0  1.122434100544716 0.41 0  1.05413544556068 0.41 0  0.9882218810956305 0.41 0  0.9246101326886647 0.41 0  0.8632198139519631 0.41 0  0.8039733463934788 0.41 0  0.7467958595662458 0.41 0  0.6916151138480078 0.41 0  0.6383613676644679 0.41 0  0.5869673343225223 0.41 0  0.5373680609412221 0.41 0  0.4895008759292634 0.41 0  0.4433053055145528 0.41 0  0.3987229542475914 0.41 0  0.3556974926297398 0.41 0  0.3141745521466497 0.41 0  0.2741016576310038 0.41 0  0.2354281840915826 0.41 0  0.1981052433265003 0.41 0  0.1620856860352591 0.41 0  0.1273239957535623 0.41 0  0.09377624077128965 0.41 0  0.06140001986584975 0.41 0  0.03015443760436654 0.41 0  0.2497468076502589 0.2050254481002335 0  0.2497468076502614 0.1949745518997913 0  0.2469965252529372 0.1829317073451959 0  0.2439893735792749 0.1762316384219906 0  0.2400332147834255 0.1700443375285386 0  0.2352133972704371 0.1645032867342007 0  0.2296339016332438 0.1597280261969788 0  0.2234150974217223 0.1558215752574715 0  0.2166911463437691 0.1528682099456123 0  0.2096071079204251 0.1509316448471593 0  0.2023158100364996 0.1500536585536553 0  0.194974551899914 0.1502531923497262 0  0.1877417105387872 0.1515259415822739 0  0.1807733240461124 0.153844448527136 0  0.1742197252835808 0.15715869474974 0  0.1682222986673531 0.1613971801805478 0  0.162910430003803 0.1664684656256651 0  0.1583987151779087 0.1722631454351573 0  0.1547844879126891 0.178656207771761 0  0.1521457199348551 0.1855097315605723 0  0.1505393388476355 0.1926758619366523 0  0.1505393388476328 0.2073241380633295 0  0.1521457199348437 0.2144902684393899 0  0.1547844879126531 0.221343792228163 0  0.1583987151778488 0.2277368545647528 0  0.1629104300036858 0.2335315343742052 0  0.1682222986671726 0.2386028198193036 0  0.1742197252833576 0.2428413052501257 0  0.1807733240458683 0.2461555514727623 0  0.1877417105384929 0.2484740584176516 0  0.1949745518995776 0.2497468076502398 0  0.202315810036185 0.2499463414463592 0  0.2096071079201568 0.2490683551528932 0  0.2166911463435495 0.2471317900544655 0  0.2234150974215506 0.2441784247426195 0  0.2296339016331197 0.2402719738031125 0  0.2352133972703547 0.2354967132658811 0  0.2400332147833751 0.2299556624715287 0  0.2439893735792577 0.2237683615780412 0  0.246996525252926 0.2170682926548348 0  0.25645809709277 0.21 0  0.2639263993298655 0.21 0  0.271394701566961 0.21 0  0.2788630038040554 0.21 0  0.2863313060411479 0.21 0  0.2937996082782405 0.21 0  0.301267910515333 0.21 0  0.3087362127524279 0.21 0  0.3162045149895234 0.21 0  0.3236728172265972 0.21 0  0.3311411194636928 0.21 0  0.3386094217007701 0.21 0  0.3460777239378666 0.21 0  0.3535460261749672 0.21 0  0.3610143284120516 0.21 0  0.3684826306491596 0.21 0  0.3759509328862226 0.21 0  0.383419235123329 0.21 0  0.3908875373604028 0.21 0  0.3983558395975142 0.21 0  0.4058241418345938 0.21 0  0.4132924440716992 0.21 0  0.4207607463087888 0.21 0  0.4282290485459029 0.21 0  0.4356973507830418 0.21 0  0.4431656530201649 0.21 0  0.4506339552573136 0.21 0  0.4581022574944306 0.21 0  0.4655705597315852 0.21 0  0.4730388619686996 0.21 0  0.480507164205851 0.21 0  0.4879754664429498 0.21 0  0.4954437686800938 0.21 0  0.502912070917267 0.21 0  0.5103803731544119 0.21 0  0.5178486753915261 0.21 0  0.5253169776286404 0.21 0  0.5327852798657868 0.21 0  0.5402535821029386 0.21 0  0.54772188434007 0.21 0  0.5551901865771842 0.21 0  0.5626584888143201 0.21 0  0.5701267910514778 0.21 0  0.5775950932886138 0.21 0  0.5850633955257281 0.21 0  0.5925316977628483 0.21 0  0.6 0.2050000000000054 0  0.6 0.1950000000000217 0  0.5925316977628897 0.19 0  0.5850633955257988 0.19 0  0.5775950932887378 0.19 0  0.5701267910515998 0.19 0  0.5626584888145268 0.19 0  0.5551901865773963 0.19 0  0.547721884340339 0.19 0  0.5402535821032429 0.19 0  0.5327852798661811 0.19 0  0.5253169776290537 0.19 0  0.5178486753919799 0.19 0  0.5103803731549078 0.19 0  0.502912070917822 0.19 0  0.4954437686807294 0.19 0  0.4879754664436223 0.19 0  0.4805071642065402 0.19 0  0.4730388619694271 0.19 0  0.4655705597323621 0.19 0  0.4581022574952563 0.19 0  0.4506339552581777 0.19 0  0.4431656530210671 0.19 0  0.4356973507839815 0.19 0  0.4282290485468779 0.19 0  0.4207607463097617 0.19 0  0.4132924440726327 0.19 0  0.4058241418354857 0.19 0  0.3983558395983636 0.19 0  0.3908875373612097 0.19 0  0.3834192351240934 0.19 0  0.3759509328869369 0.19 0  0.3684826306498175 0.19 0  0.361014328412667 0.19 0  0.3535460261755617 0.19 0  0.3460777239384295 0.19 0  0.3386094217012945 0.19 0  0.3311411194641595 0.19 0  0.3236728172270245 0.19 0  0.3162045149898895 0.19 0  0.3087362127527544 0.19 0  0.3012679105156187 0.19 0  0.2937996082784807 0.19 0  0.2863313060413428 0.19 0  0.2788630038042048 0.19 0  0.2713947015670686 0.19 0  0.2639263993299336 0.19 0  0.2564580970927985 0.19 0  0.2607803159922026 0.2000727136295815 0  0.5887803774232762 0.2001272386983733 0  0.5745072403740523 0.2002044435018727 0  0.5511891430099709 0.2001122610077113 0  0.2751288526855082 0.20000000000002 0  0.5365194309847112 0.1999999999999436 0  0.2894621222999649 0.1998691686390484 0  0.5215828265105155 0.1999999999999228 0  0.3127789816668748 0.1998657885438805 0  0.3274069683451451 0.2000000000000796 0  0.5066462220363641 0.199999999999908 0  0.3650630746574081 0.199866017807523 0  0.476773013087985 0.1999999999998713 0  0.3417402379596385 0.1998691686391011 0  0.3796850840047755 0.200000000000134 0  0.4618364086138087 0.1999999999998546 0  0.4917096175621762 0.1999999999998808 0  0.3946216884789568 0.2000000000001512 0  0.446899804139621 0.1999999999998389 0  0.4089549580935208 0.1998691686391595 0  0.4322718174608562 0.200127451265745 0  0.4201487168029707 0.1999966199048527 0  0.3528922713220932 0.2000185703532356 0  0.5633122436674589 0.1999814296467508 0  0.3006558810093873 0.1999966199048318 0  0.5815926498168407 0.1966545283159175 0  0.2677053789419034 0.1964246479135325 0  0.5290511287476175 0.1970915826863981 0  0.5439877332217911 0.197091582686394 0  0.2825131256993216 0.2035478995978015 0  0.3199386661080599 0.202908417313604 0  0.4842413153250809 0.1970915826863873 0  0.5141145242734466 0.1970915826863843 0  0.3722167817676917 0.2029084173136195 0  0.4693047108508938 0.1970915826863783 0  0.3348752705822316 0.202908417313609 0  0.3871533862418661 0.2029084173136212 0  0.4543681063767183 0.1970915826863795 0  0.4991779197992749 0.1970915826863902 0  0.4020059614928624 0.203547899597858 0  0.4394315019025246 0.1970915826863714 0  0.2550657455369551 0.2034088125358657 0  0.2548908499171161 0.1966940311614271 0  0.5946539510196798 0.2024302972968126 0  0.267698176732111 0.2039977513680092 0  0.4261685417851465 0.196409292431739 0  0.3590076176283495 0.196411355804271 0  0.5571672426447437 0.2036011176410121 0  0.3066757059912147 0.1964092924317024 0  0.594380730180568 0.1966558399668133 0  0.4842413153245942 0.2040749161535287 0  0.4693047108503577 0.2040749161535231 0  0.3871533862424271 0.1959250838464788 0  0.372246743208829 0.1959123236376545 0  0.5141145242731028 0.2040749161535395 0  0.4543681063761134 0.2040749161535186 0  0.4019979587101454 0.1959834479682427 0  0.4394608940728603 0.2040870543693135 0  0.5439623148931173 0.2040856076781014 0  0.5290511287473298 0.2040749161535501 0  0.4991779197988497 0.2040749161535382 0  0.3347912413592433 0.1959225448935183 0  0.3199680582793816 0.1959123018030061 0  0.2825051229162361 0.1959834479681729 0  0.3590471196690275 0.2036304442587945 0  0.5571594006495384 0.1963685282145804 0  0.3067669986803285 0.203627750582736 0  0.4262598344738712 0.2036568242185335 0  0.5814408164431408 0.2041285596160068 0  0.5688286748170428 0.1961819304477386 0  0.4145905603063645 0.2038180695522843 0  0.3473758401724931 0.2038180695522752 0  0.2950977245128307 0.2038180695522663 0  0.5688286748170693 0.203818069552238 0  0.2950977245127906 0.1961819304477774 0  0.3473758401723931 0.1961819304478349 0  0.4145905603061963 0.1961819304479011 0  0.2601812407614425 0.2056861609747042
[...]
<PointData  Vectors="f_40-0"> 
<DataArray  type="Float64"  Name="f_40-0"  NumberOfComponents="3" format="ascii">0.0000000000000000e+00 0.0000000000000000e+00 0.0000000000000000e+00  0.0000000000000000e+00 0.0000000000000000e+00 0.0000000000000000e+00  0.0000000000000000e+00 0.0000000000000000e+00 0.0000000000000000e+00  0.0000000000000000e+00 0.0000000000000000e+00 0.0000000000000000e+00  -5.4268270959217667e-06 -8.8234663007071815e-04 0.0000000000000000e+00  6.2393429807685384e-05 -8.8680569726899054e-04 0.0000000000000000e+00  0.0000000000000000e+00 0.0000000000000000e+00 0.0000000000000000e+00  0.0000000000000000e+00 0.0000000000000000e+00 0.0000000000000000e+00  0.0000000000000000e+00 0.0000000000000000e+00 0.0000000000000000e+00  0.0000000000000000e+00 0.0000000000000000e+00 0.0000000000000000e+00  2.7961472023292295e-05 -8.8456427643832461e-04 0.0000000000000000e+00  1.4627049670703166e-01 0.0000000000000000e+00 0.0000000000000000e+00  2.7003784007453790e-01 0.0000000000000000e+00 0.0000000000000000e+00  3.7130203010248969e-01 0.0000000000000000e+00 0.0000000000000000e+00  4.5006306679100422e-01 0.0000000000000000e+00 0.0000000000000000e+00  5.0632095014007128e-01 0.0000000000000000e+00 0.0000000000000000e+00  5.4007568014968765e-01 0.0000000000000000e+00 0.0000000000000000e+00  5.5132725681981931e-01 0.0000000000000000e+00 0.0000000000000000e+00  5.4007568015037000e-01 0.0000000000000000e+00 0.0000000000000000e+00  5.0632095014124356e-01 0.0000000000000000e+00 0.0000000000000000e+00  4.5006306679245589e-01 0.0000000000000000e+00 0.0000000000000000e+00  3.7130203010386881e-01 0.0000000000000000e+00 0.0000000000000000e+00  2.7003784007571474e-01 0.0000000000000000e+00 0.0000000000000000e+00  1.4627049670769476e-01 0.0000000000000000e+00 0.0000000000000000e+00  0.0000000000000000e+00 0.0000000000000000e+00 0.0000000000000000e+00  0.0000000000000000e+00 0.0000000000000000e+00 0.0000000000000000e+00  0.0000000000000000e+00 0.0000000000000000e+00 0.0000000000000000e+00  0.0000000000000000e+00 0.0000000000000000e+00 0.0000000000000000e+00  0.0000000000000000e+00 0.0000000000000000e+00 0.0000000000000000e+00  0.0000000000000000e+00 0.0000000000000000e+00 0.0000000000000000e+00  0.0000000000000000e+00 0.0000000000000000e+00 0.0000000000000000e+00  0.0000000000000000e+00 0.0000000000000000e+00 0.0000000000000000e+00  0.0000000000000000e+00 0.0000000000000000e+00 0.0000000000000000e+00  0.0000000000000000e+00 0.0000000000000000e+00 0.0000000000000000e+00  0.0000000000000000e+00 0.0000000000000000e+00 0.0000000000000000e+00  0.0000000000000000e+00 0.0000000000000000e+00 0.0000000000000000e+00  0.0000000000000000e+00 0.0000000000000000e+00 0.0000000000000000e+00  0.0000000000000000e+00 0.0000000000000000e+00 0.0000000000000000e+00  0.0000000000000000e+00 0.0000000000000000e+00 0.0000000000000000e+00  0.0000000000000000e+00 0.0000000000000000e+00 0.0000000000000000e+00  0.0000000000000000e+00 0.0000000000000000e+00 0.0000000000000000e+00  0.0000000000000000e+00 0.0000000000000000e+00 0.0000000000000000e+00  0.0000000000000000e+00 0.0000000000000000e+00 0.0000000000000000e+00  0.0000000000000000e+00 0.0000000000000000e+00 0.0000000000000000e+00  0.0000000000000000e+00 0.0000000000000000e+00 0.0000000000000000e+00  0.0000000000000000e+00 0.0000000000000000e+00 0.0000000000000000e+00  0.0000000000000000e+00 0.0000000000000000e+00 0.0000000000000000e+00  0.0000000000000000e+00 0.0000000000000000e+00 0.0000000000000000e+00  0.0000000000000000e+00 0.0000000000000000e+00 0.0000000000000000e+00  0.0000000000000000e+00 0.0000000000000000e+00 0.0000000000000000e+00  0.0000000000000000e+00 0.0000000000000000e+00 0.0000000000000000e+00  0.0000000000000000e+00 0.0000000000000000e+00 0.0000000000000000e+00  0.0000000000000000e+00 0.0000000000000000e+00 0.0000000000000000e+00  0.0000000000000000e+00 0.0000000000000000e+00 0.0000000000000000e+00  0.0000000000000000e+00 0.0000000000000000e+00 0.0000000000000000e+00  0.0000000000000000e+00 0.0000000000000000e+00 0.0000000000000000e+00  0.0000000000000000e+00 0.0000000000000000e+00 0.0000000000000000e+00  0.0000000000000000e+00 0.0000000000000000e+00 0.0000000000000000e+00  0.0000000000000000e+00 0.0000000000000000e+00 0.0000000000000000e+00  0.0000000000000000e+00 0.0000000000000000e+00 0.0000000000000000e+00  0.0000000000000000e+00 0.0000000000000000e+00 0.0000000000000000e+00  0.0000000000000000e+00 0.0000000000000000e+00 0.0000000000000000e+00  4.8477160383094053e-01 -3.6999974629170359e-03 0.0000000000000000e+00  3.5849371846622369e-01 8.7969486911932359e-04 0.0000000000000000e+00  4.8497195540593130e-01 3.6273643343354869e-03 0.0000000000000000e+00  0.0000000000000000e+00 0.0000000000000000e+00 0.0000000000000000e+00  0.0000000000000000e+00 0.0000000000000000e+00 0.0000000000000000e+00  0.0000000000000000e+00 0.0000000000000000e+00 0.0000000000000000e+00  0.0000000000000000e+00 0.0000000000000000e+00 0.0000000000000000e+00  0.0000000000000000e+00 0.0000000000000000e+00 0.0000000000000000e+00  0.0000000000000000e+00 0.0000000000000000e+00 0.0000000000000000e+00  0.0000000000000000e+00 0.0000000000000000e+00 0.0000000000000000e+00  0.0000000000000000e+00 0.0000000000000000e+00 0.0000000000000000e+00  0.0000000000000000e+00 0.0000000000000000e+00 0.0000000000000000e+00  0.0000000000000000e+00 0.0000000000000000e+00 0.0000000000000000e+00  0.0000000000000000e+00 0.0000000000000000e+00 0.0000000000000000e+00  0.0000000000000000e+00 0.0000000000000000e+00 0.0000000000000000e+00  0.0000000000000000e+00 0.0000000000000000e+00 0.0000000000000000e+00  0.0000000000000000e+00 0.0000000000000000e+00 0.0000000000000000e+00  0.0000000000000000e+00 0.0000000000000000e+00 0.0000000000000000e+00  0.0000000000000000e+00 0.0000000000000000e+00 0.0000000000000000e+00  0.0000000000000000e+00 0.0000000000000000e+00 0.0000000000000000e+00  0.0000000000000000e+00 0.0000000000000000e+00 0.0000000000000000e+00  0.0000000000000000e+00 0.0000000000000000e+00 0.0000000000000000e+00  0.0000000000000000e+00 0.0000000000000000e+00 0.0000000000000000e+00  0.0000000000000000e+00 0.0000000000000000e+00 0.0000000000000000e+00  0.0000000000000000e+00 0.0000000000000000e+00 0.0000000000000000e+00  0.0000000000000000e+00 0.0000000000000000e+00 0.0000000000000000e+00  0.0000000000000000e+00 0.0000000000000000e+00 0.0000000000000000e+00  0.0000000000000000e+00 0.0000000000000000e+00 0.0000000000000000e+00  0.0000000000000000e+00 0.0000000000000000e+00 0.0000000000000000e+00  0.0000000000000000e+00 0.0000000000000000e+00 0.0000000000000000e+00  0.0000000000000000e+00 0.0000000000000000e+00 0.0000000000000000e+00  0.0000000000000000e+00 0.0000000000000000e+00 0.0000000000000000e+00  0.0000000000000000e+00 0.0000000000000000e+00 0.0000000000000000e+00  0.0000000000000000e+00 0.0000000000000000e+00 0.0000000000000000e+00  0.0000000000000000e+00 0.0000000000000000e+00 0.0000000000000000e+00  0.0000000000000000e+00 0.0000000000000000e+00 0.0000000000000000e+00  0.0000000000000000e+00 0.0000000000000000e+00 0.0000000000000000e+00  0.0000000000000000e+00 0.0000000000000000e+00 0.0000000000000000e+00  0.0000000000000000e+00 0.0000000000000000e+00 0.0000000000000000e+00  0.0000000000000000e+00 0.0000000000000000e+00 0.0000000000000000e+00  0.0000000000000000e+00 0.0000000000000000e+00 0.0000000000000000e+00  0.0000000000000000e+00 0.0000000000000000e+00 0.0000000000000000e+00  0.0000000000000000e+00 0.0000000000000000e+00 0.0000000000000000e+00  0.0000000000000000e+00 0.0000000000000000e+00 0.0000000000000000e+00  0.0000000000000000e+00 0.0000000000000000e+00 0.0000000000000000e+00  0.0000000000000000e+00 0.0000000000000000e+00 0.0000000000000000e+00  0.0000000000000000e+00 0.0000000000000000e+00 0.0000000000000000e+00  0.0000000000000000e+00 0.0000000000000000e+00 0.0000000000000000e+00  0.0000000000000000e+00 0.0000000000000000e+00 0.0000000000000000e+00  0.0000000000000000e+00 0.0000000000000000e+00 0.0000000000000000e+00  0.0000000000000000e+00 0.0000000000000000e+00 0.0000000000000000e+00  0.0000000000000000e+00 0.0000000000000000e+00 0.0000000000000000e+00  0.0000000000000000e+00 0.0000000000000000e+00 0.0000000000000000e+00  0.0000000000000000e+00 0.0000000000000000e+00 0.0000000000000000e+00  0.0000000000000000e+00 0.0000000000000000e+00 0.0000000000000000e+00  0.0000000000000000e+00 0.0000000000000000e+00 0.0000000000000000e+00  0.0000000000000000e+00 0.0000000000000000e+00 0.0000000000000000e+00  0.0000000000000000e+00 0.0000000000000000e+00 0.0000000000000000e+00  0.0000000000000000e+00 0.0000000000000000e+00 0.0000000000000000e+00  0.0000000000000000e+00 0.0000000000000000e+00 0.0000000000000000e+00  0.0000000000000000e+00 0.0000000000000000e+00 0.0000000000000000e+00  0.0000000000000000e+00 0.0000000000000000e+00 0.0000000000000000e+00  0.0000000000000000e+00 0.0000000000000000e+00 0.0000000000000000e+00  0.0000000000000000e+00 0.0000000000000000e+00 0.0000000000000000e+00  0.0000000000000000e+00 0.0000000000000000e+00 0.0000000000000000e+00  0.0000000000000000e+00 0.0000000000000000e+00 0.0000000000000000e+00  0.0000000000000000e+00 0.0000000000000000e+00 0.0000000000000000e+00  0.0000000000000000e+00 0.0000000000000000e+00 0.0000000000000000e+00  0.0000000000000000e+00 0.0000000000000000e+00 0.0000000000000000e+00  0.0000000000000000e+00 0.0000000000000000e+00 0.0000000000000000e+00  0.0000000000000000e+00 0.0000000000000000e+00 0.0000000000000000e+00  0.0000000000000000e+00 0.0000000000000000e+00 0.0000000000000000e+00  0.0000000000000000e+00 0.0000000000000000e+00 0.0000000000000000e+00  0.0000000000000000e+00 0.0000000000000000e+00 0.0000000000000000e+00  0.0000000000000000e+00 0.0000000000000000e+00 0.0000000000000000e+00  0.0000000000000000e+00 0.0000000000000000e+00 0.0000000000000000e+00  0.0000000000000000e+00 0.0000000000000000e+00 0.0000000000000000e+00  0.0000000000000000e+00 0.0000000000000000e+00 0.0000000000000000e+00  0.0000000000000000e+00 0.0000000000000000e+00 0.0000000000000000e+00  0.0000000000000000e+00 0.0000000000000000e+00 0.0000000000000000e+00  0.0000000000000000e+00 0.0000000000000000e+00 0.0000000000000000e+00  2.6444280593311084e-06 -5.8516277417335591e-06 0.0000000000000000e+00  5.7376753726577966e-06 -8.3370890812168293e-06 0.0000000000000000e+00  8.9137149967211728e-06 -1.2010183487131283e-05 0.0000000000000000e+00  1.2426488877923703e-05 -1.6991602490905189e-05 0.0000000000000000e+00  1.5711409554686161e-05 -2.3252855028839231e-05 0.0000000000000000e+00  1.9281527154642513e-05 -3.0886829792064009e-05 0.0000000000000000e+00  2.2490465239829900e-05 -3.9522276599111534e-05 0.0000000000000000e+00  2.5672165251005023e-05 -4.9486159155403490e-05 0.0000000000000000e+00  2.9084226722973743e-05 -6.0458303215977428e-05 0.0000000000000000e+00  3.2042879716575271e-05 -7.2470012278379596e-05 0.0000000000000000e+00  3.5269922025829056e-05 -8.5546978922686954e-05 0.0000000000000000e+00  3.8029609820406159e-05 -9.9554869989529611e-05 0.0000000000000000e+00  4.0948077676197493e-05 -1.1451285280052374e-04 0.0000000000000000e+00  4.3507380110857952e-05 -1.3022522830170790e-04 0.0000000000000000e+00  4.5945096057434211e-05 -1.4686416626171839e-04 0.0000000000000000e+00  4.8466288581935976e-05 -1.6422155803830723e-04 0.0000000000000000e+00  5.0596177465655745e-05 -1.8226367538226194e-04 0.0000000000000000e+00  5.2823399877970260e-05 -2.0105758898268314e-04 0.0000000000000000e+00  5.4684317174128718e-05 -2.2041641922209055e-04 0.0000000000000000e+00  5.6604388832161383e-05 -2.4041039530374279e-04 0.0000000000000000e+00  5.8240858499352416e-05 -2.6090715204571819e-04 0.0000000000000000e+00  5.9853591662707595e-05 -2.8196491726394270e-04 0.0000000000000000e+00  6.1240102498138805e-05 -3.0340691322917635e-04 0.0000000000000000e+00  6.2502036991730973e-05 -3.2533764115373474e-04 0.0000000000000000e+00  6.3755645190941880e-05 -3.4761841475271568e-04 0.0000000000000000e+00  6.4797481068783330e-05 -3.7025321478107950e-04 0.0000000000000000e+00  6.5752984621951846e-05 -3.9327453376520515e-04 0.0000000000000000e+00  6.6562315514526497e-05 -4.1652522662334363e-04 0.0000000000000000e+00  6.7282537557260624e-05 -4.4011334154863584e-04 0.0000000000000000e+00  6.7868497759131460e-05 -4.6388136106985899e-04 0.0000000000000000e+00  6.8362915466778739e-05 -4.8793209464181566e-04 0.0000000000000000e+00  6.8729689366103276e-05 -5.1211304642933533e-04 0.0000000000000000e+00  6.9007033151225863e-05 -5.3652756075786047e-04 0.0000000000000000e+00  6.9161082668636392e-05 -5.6102582253994907e-04 0.0000000000000000e+00  6.9221742216112999e-05 -5.8572162164557680e-04 0.0000000000000000e+00  6.9169805513387831e-05 -6.1046637492461029e-04 0.0000000000000000e+00  6.9026185921005872e-05 -6.3536731006685811e-04 0.0000000000000000e+00  6.8774973898863250e-05 -6.6028694378318534e-04 0.0000000000000000e+00  6.8429543629429794e-05 -6.8533239823324074e-04 0.0000000000000000e+00  6.7977694416555457e-05 -7.1037104726260215e-04 0.0000000000000000e+00  6.7420336009479370e-05 -7.3549225764850011e-04 0.0000000000000000e+00  6.6779364357035380e-05 -7.6061719754770909e-04 0.0000000000000000e+00  6.6029672922617789e-05 -7.8577782941302392e-04 0.0000000000000000e+00  6.5221523924877364e-05 -8.1094943853531293e-04 0.0000000000000000e+00  6.4294684506453179e-05 -8.3609669479231606e-04 0.0000000000000000e+00  6.3313281258290009e-05 -8.6131430673776915e-04 0.0000000000000000e+00  4.4992471158807301e-05 -8.8568324419237472e-04 0.0000000000000000e+00  1.1103138126186670e-05 -8.8345444221652727e-04 0.0000000000000000e+00  -4.4762233553609213e-06 -8.5717551860679331e-04 0.0000000000000000e+00  -3.4516277549904456e-06 -8.3177282157476161e-04 0.0000000000000000e+00  -2.4826078416947565e-06 -8.0633442208447774e-04 0.0000000000000000e+00  -1.6085781897805897e-06 -7.8095173236002549e-04 0.0000000000000000e+00  -7.9298853014025846e-07 -7.5558637721716510e-04 0.0000000000000000e+00  -7.2338482352399505e-08 -7.3025343527124194e-04 0.0000000000000000e+00  6.0116112195490647e-07 -7.0496648235675145e-04 0.0000000000000000e+00  1.1772737408962267e-06 -6.7969217313002418e-04 0.0000000000000000e+00  1.7061278662649110e-06 -6.5452142685292814e-04 0.0000000000000000e+00  2.1461594122222619e-06 -6.2936626639703563e-04 0.0000000000000000e+00  2.5545004153920998e-06 -6.0434086364122427e-04 0.0000000000000000e+00  2.8681722946288449e-06 -5.7936227262092804e-04 0.0000000000000000e+00  3.1655047821719975e-06 -5.5454736739554158e-04 0.0000000000000000e+00  3.3630435112069837e-06 -5.2981715400696682e-04 0.0000000000000000e+00  3.5635021093065537e-06 -5.0528411341686568e-04 0.0000000000000000e+00  3.6534771498662202e-06 -4.8087677578986533e-04 0.0000000000000000e+00  3.7659090433332097e-06 -4.5670773242233718e-04 0.0000000000000000e+00  3.7549863202291169e-06 -4.3271183292854532e-04 0.0000000000000000e+00  3.7869488947295391e-06 -4.0900672263229792e-04 0.0000000000000000e+00  3.6821395092460359e-06 -3.8552933226432024e-04 0.0000000000000000e+00  3.6465743715032687e-06 -3.6239559053910145e-04 0.0000000000000000e+00  3.4579634756296880e-06 -3.3955099735460162e-04 0.0000000000000000e+00  3.3445147779609793e-06 -3.1709828989035318e-04 0.0000000000000000e+00  3.1066653418188511e-06 -2.9499084333409447e-04 0.0000000000000000e+00  2.8181478336129841e-06 -2.7338523968541871e-04 0.0000000000000000e+00  2.6283724269296079e-06 -2.5215541365276688e-04 0.0000000000000000e+00  2.3140843108279760e-06 -2.3146264437365883e-04 0.0000000000000000e+00  2.0423193661631835e-06 -2.1132707704442737e-04 0.0000000000000000e+00  1.6841366205718681e-06 -1.9175676286229719e-04 0.0000000000000000e+00  1.3672910520356461e-06 -1.7284595970096876e-04 0.0000000000000000e+00  9.6595881474115599e-07 -1.5456255698548734e-04 0.0000000000000000e+00  6.8599297551808739e-07 -1.3711561205342909e-04 0.0000000000000000e+00  2.2468859181255575e-07 -1.2030343157245033e-04 0.0000000000000000e+00  -2.6409253438320306e-07 -1.0446783898147017e-04 0.0000000000000000e+00  -5.4528965070181236e-07 -8.9331441729019264e-05 0.0000000000000000e+00  -9.6236938619533279e-07 -7.5227169731764467e-05 0.0000000000000000e+00  -1.2725131231941285e-06 -6.2096912964700296e-05 0.0000000000000000e+00  -1.6545722543483084e-06 -4.9978769163510703e-05 0.0000000000000000e+00  -1.7967199010506331e-06 -3.9072078735128289e-05 0.0000000000000000e+00  -2.1439362777656362e-06 -2.9127098370788143e-05 0.0000000000000000e+00  -2.4353602378176524e-06 -2.0572456748257152e-05 0.0000000000000000e+00  -2.3633681101511787e-06 -1.3020204450409360e-05 0.0000000000000000e+00  -2.4071069221335404e-06 -6.8427218470124597e-06 0.0000000000000000e+00  -2.0574129909795554e-06 -1.9813749363114057e-06 0.0000000000000000e+00  -1.7582101160115855e-06 1.3469620618101056e-06 0.0000000000000000e+00  -8.7119392005211676e-07 3.0691299660956394e-06 0.0000000000000000e+00  6.9290938006871777e-07 -1.4643563871993414e-06 0.0000000000000000e+00  3.0139936957211941e-05 -8.4654626283728318e-04 0.0000000000000000e+00  3.2325249324166150e-05 -7.9821855267767376e-04 0.0000000000000000e+00  3.4300806200143123e-05 -7.1936678926543939e-04 0.0000000000000000e+00  4.1715683200548880e-06 -8.4049559610776380e-06 0.0000000000000000e+00  3.4923648273324627e-05 -6.6990817413099606e-04 0.0000000000000000e+00  7.2707217373099777e-06 -2.0247416877367974e-05 0.0000000000000000e+00  3.5627872553604154e-05 -6.1981365375662553e-04 0.0000000000000000e+00  1.2637433740837292e-05 -4.9265826347729085e-05 0.0000000000000000e+00  1.6202602264356959e-05 -7.3066304970504926e-05 0.0000000000000000e+00  3.6008429203511414e-05 -5.7006777471089792e-04 0.0000000000000000e+00  2.3681855824420394e-05 -1.5076729601213348e-04 0.0000000000000000e+00  3.5818141417722647e-05 -4.7218611461987428e-04 0.0000000000000000e+00  1.9102268212500852e-05 -9.9958944596284825e-05 0.0000000000000000e+00  2.6531407142710083e-05 -1.8647272816055101e-04 0.0000000000000000e+00  3.5252732720603417e-05 -4.2438718142164683e-04 0.0000000000000000e+00  3.6070677134923320e-05 -5.2080684238682378e-04 0.0000000000000000e+00  2.8828004246998534e-05 -2.2545758672574617e-04 0.0000000000000000e+00  3.4372718451739367e-05 -3.7761853307642076e-04 0.0000000000000000e+00  3.0375410608201126e-05 -2.6494089476221882e-04 0.0000000000000000e+00  3.3600809835732189e-05 -3.3307804318157024e-04 0.0000000000000000e+00  3.1985740184808898e-05 -2.9720498043362439e-04 0.0000000000000000e+00  2.1670238520963479e-05 -1.2345906409319342e-04 0.0000000000000000e+00  3.2739552864005661e-05 -7.6029321551819887e-04 0.0000000000000000e+00  9.9796245776292250e-06 -3.3003138448090722e-05 0.0000000000000000e+00  1.9406179528827473e-05 -8.2143633719357421e-04 0.0000000000000000e+00  8.0031326987057585e-07 -2.4701347357675772e-06 0.0000000000000000e+00  2.5580513579086674e-05 -6.4397704960088840e-04 0.0000000000000000e+00  2.4665082407829213e-05 -6.9425085419729351e-04 0.0000000000000000e+00  8.7042527498179944e-06 -1.5891098983235736e-05 0.0000000000000000e+00  1.9168886332511651e-05 -6.2052501432595608e-05 0.0000000000000000e+00  2.6544730267763261e-05 -4.9541385063567170e-04 0.0000000000000000e+00  2.6193858990724560e-05 -5.9399150082122595e-04 0.0000000000000000e+00  3.2309487362924992e-05 -1.6938013341274408e-04 0.0000000000000000e+00  2.6299588628231467e-05 -4.4713293288326092e-04 0.0000000000000000e+00  2.3284022771200228e-05 -8.8257466925267946e-05 0.0000000000000000e+00  3.5255898596713681e-05 -2.0705647132329916e-04 0.0000000000000000e+00  2.5779679289381643e-05 -3.9977681506553402e-04 0.0000000000000000e+00  2.6511643811720597e-05 -5.4442183048485180e-04 0.0000000000000000e+00  3.9579879752712169e-05 -2.4722018619461759e-04 0.0000000000000000e+00  2.4987697225309873e-05 -3.5356145833683264e-04 0.0000000000000000e+00  1.0375129778634895e-07 -1.3771461240413716e-06 0.0000000000000000e+00  -4.8993048428301722e-07 7.2390000722869719e-07 0.0000000000000000e+00  3.7045828554542496e-05 -8.6693532283744958e-04 0.0000000000000000e+00  4.3422284422561988e-06 -6.3935573973508415e-06 0.000000000