<?xml version="1.0"?>
<VTKFile type="UnstructuredGrid"  version="0.1"  >
<UnstructuredGrid>
<Piece  NumberOfPoints="1419" NumberOfCells="2698">
<Points>
<DataArray  type="Float64"  NumberOfComponents="3"  format="ascii">0 0 0  0 0.41 0  2.5 0 0  2.5 0.41 0  0.6 0.19 0  0.6 0.21 0  0.25 0.2 0  0.15 0.2 0  0.2489897948556636 0.21 0  0.2489897948556636 0.19 0  0.6 0.2 0  0 0.3807142857143437 0  0 0.3514285714286952 0  0 0.3221428571430699 0  0 0.29285714285744 0  0 0.2635714285718054 0  0 0.2342857142861561 0  0 0.2050000000005308 0  0 0.175714285714732 0  0 0.1464285714289574 0  0 0.1171428571431897 0  0 0.08785714285737878 0  0 0.05857142857161107 0  0 0.02928571428580012 0  0.03015443760436003 0 0  0.06140001986583606 0 0  0.09377624077125973 0 0  0.1273239957535082 0 0  0.1620856860351972 0 0  0.1981052433264291 0 0  0.235428184091502 0 0  0.2741016576309132 0 0  0.3141745521465447 0 0  0.3556974926295285 0 0  0.3987229542472677 0 0  0.4433053055141081 0 0  0.4895008759286886 0 0  0.5373680609405097 0 0  0.5869673343216626 0 0  0.6383613676634521 0 0  0.6916151138468254 0 0  0.7467958595648856 0 0  0.8039733463919316 0 0  0.8632198139502143 0 0  0.9246101326867038 0 0  0.9882218810934433 0 0  1.054135445558498 0 0  1.122434100542598 0 0  1.193204177141305 0 0  1.266535089879536 0 0  1.342519516046404 0 0  1.421253448503939 0 0  1.502836389106271 0 0  1.587371439758838 0 0  1.674965418777374 0 0  1.765729001825544 0 0  1.859776908880082 0 0  1.957227977487062 0 0  2.058205329869943 0 0  2.162836591189951 0 0  2.271253957290865 0 0  2.383594446803425 0 0  2.5 0.1024999999997612 0  2.5 0.2049999999994743 0  2.5 0.3074999999997183 0  2.383594446803656 0.41 0  2.271253957291315 0.41 0  2.162836591190598 0.41 0  2.058205329870775 0.41 0  1.957227977488067 0.41 0  1.859776908881246 0.41 0  1.765729001826854 0.41 0  1.674965418778818 0.41 0  1.58737143976041 0.41 0  1.502836389107956 0.41 0  1.421253448505726 0.41 0  1.342519516048286 0.41 0  1.266535089881505 0.41 0  1.193204177143353 0.41 0  1.122434100544716 0.41 0  1.05413544556068 0.41 0  0.9882218810956305 0.41 0  0.9246101326886647 0.41 0  0.8632198139519631 0.41 0  0.8039733463934788 0.41 0  0.7467958595662458 0.41 0  0.6916151138480078 0.41 0  0.6383613676644679 0.41 0  0.5869673343225223 0.41 0  0.5373680609412221 0.41 0  0.4895008759292634 0.41 0  0.4433053055145528 0.41 0  0.3987229542475914 0.41 0  0.3556974926297398 0.41 0  0.3141745521466497 0.41 0  0.2741016576310038 0.41 0  0.2354281840915826 0.41 0  0.1981052433265003 0.41 0  0.1620856860352591 0.41 0  0.1273239957535623 0.41 0  0.09377624077128965 0.41 0  0.06140001986584975 0.41 0  0.03015443760436654 0.41 0  0.2497468076502589 0.2050254481002335 0  0.2497468076502614 0.1949745518997913 0  0.2469965252529372 0.1829317073451959 0  0.2439893735792749 0.1762316384219906 0  0.2400332147834255 0.1700443375285386 0  0.2352133972704371 0.1645032867342007 0  0.2296339016332438 0.1597280261969788 0  0.2234150974217223 0.1558215752574715 0  0.2166911463437691 0.1528682099456123 0  0.2096071079204251 0.1509316448471593 0  0.2023158100364996 0.1500536585536553 0  0.194974551899914 0.1502531923497262 0  0.1877417105387872 0.1515259415822739 0  0.1807733240461124 0.153844448527136 0  0.1742197252835808 0.15715869474974 0  0.1682222986673531 0.1613971801805478 0  0.162910430003803 0.1664684656256651 0  0.1583987151779087 0.1722631454351573 0  0.1547844879126891 0.178656207771761 0  0.1521457199348551 0.1855097315605723 0  0.1505393388476355 0.1926758619366523 0  0.1505393388476328 0.2073241380633295 0  0.1521457199348437 0.2144902684393899 0  0.1547844879126531 0.221343792228163 0  0.1583987151778488 0.2277368545647528 0  0.1629104300036858 0.2335315343742052 0  0.1682222986671726 0.2386028198193036 0  0.1742197252833576 0.2428413052501257 0  0.1807733240458683 0.2461555514727623 0  0.1877417105384929 0.2484740584176516 0  0.1949745518995776 0.2497468076502398 0  0.202315810036185 0.2499463414463592 0  0.2096071079201568 0.2490683551528932 0  0.2166911463435495 0.2471317900544655 0  0.2234150974215506 0.2441784247426195 0  0.2296339016331197 0.2402719738031125 0  0.2352133972703547 0.2354967132658811 0  0.2400332147833751 0.2299556624715287 0  0.2439893735792577 0.2237683615780412 0  0.246996525252926 0.2170682926548348 0  0.25645809709277 0.21 0  0.2639263993298655 0.21 0  0.271394701566961 0.21 0  0.2788630038040554 0.21 0  0.2863313060411479 0.21 0  0.2937996082782405 0.21 0  0.301267910515333 0.21 0  0.3087362127524279 0.21 0  0.3162045149895234 0.21 0  0.3236728172265972 0.21 0  0.3311411194636928 0.21 0  0.3386094217007701 0.21 0  0.3460777239378666 0.21 0  0.3535460261749672 0.21 0  0.3610143284120516 0.21 0  0.3684826306491596 0.21 0  0.3759509328862226 0.21 0  0.383419235123329 0.21 0  0.3908875373604028 0.21 0  0.3983558395975142 0.21 0  0.4058241418345938 0.21 0  0.4132924440716992 0.21 0  0.4207607463087888 0.21 0  0.4282290485459029 0.21 0  0.4356973507830418 0.21 0  0.4431656530201649 0.21 0  0.4506339552573136 0.21 0  0.4581022574944306 0.21 0  0.4655705597315852 0.21 0  0.4730388619686996 0.21 0  0.480507164205851 0.21 0  0.4879754664429498 0.21 0  0.4954437686800938 0.21 0  0.502912070917267 0.21 0  0.5103803731544119 0.21 0  0.5178486753915261 0.21 0  0.5253169776286404 0.21 0  0.5327852798657868 0.21 0  0.5402535821029386 0.21 0  0.54772188434007 0.21 0  0.5551901865771842 0.21 0  0.5626584888143201 0.21 0  0.5701267910514778 0.21 0  0.5775950932886138 0.21 0  0.5850633955257281 0.21 0  0.5925316977628483 0.21 0  0.6 0.2050000000000054 0  0.6 0.1950000000000217 0  0.5925316977628897 0.19 0  0.5850633955257988 0.19 0  0.5775950932887378 0.19 0  0.5701267910515998 0.19 0  0.5626584888145268 0.19 0  0.5551901865773963 0.19 0  0.547721884340339 0.19 0  0.5402535821032429 0.19 0  0.5327852798661811 0.19 0  0.5253169776290537 0.19 0  0.5178486753919799 0.19 0  0.5103803731549078 0.19 0  0.502912070917822 0.19 0  0.4954437686807294 0.19 0  0.4879754664436223 0.19 0  0.4805071642065402 0.19 0  0.4730388619694271 0.19 0  0.4655705597323621 0.19 0  0.4581022574952563 0.19 0  0.4506339552581777 0.19 0  0.4431656530210671 0.19 0  0.4356973507839815 0.19 0  0.4282290485468779 0.19 0  0.4207607463097617 0.19 0  0.4132924440726327 0.19 0  0.4058241418354857 0.19 0  0.3983558395983636 0.19 0  0.3908875373612097 0.19 0  0.3834192351240934 0.19 0  0.3759509328869369 0.19 0  0.3684826306498175 0.19 0  0.361014328412667 0.19 0  0.3535460261755617 0.19 0  0.3460777239384295 0.19 0  0.3386094217012945 0.19 0  0.3311411194641595 0.19 0  0.3236728172270245 0.19 0  0.3162045149898895 0.19 0  0.3087362127527544 0.19 0  0.3012679105156187 0.19 0  0.2937996082784807 0.19 0  0.2863313060413428 0.19 0  0.2788630038042048 0.19 0  0.2713947015670686 0.19 0  0.2639263993299336 0.19 0  0.2564580970927985 0.19 0  0.2607803159922026 0.2000727136295815 0  0.5887803774232762 0.2001272386983733 0  0.5745072403740523 0.2002044435018727 0  0.5511891430099709 0.2001122610077113 0  0.2751288526855082 0.20000000000002 0  0.5365194309847112 0.1999999999999436 0  0.2894621222999649 0.1998691686390484 0  0.5215828265105155 0.1999999999999228 0  0.3127789816668748 0.1998657885438805 0  0.3274069683451451 0.2000000000000796 0  0.5066462220363641 0.199999999999908 0  0.3650630746574081 0.199866017807523 0  0.476773013087985 0.1999999999998713 0  0.3417402379596385 0.1998691686391011 0  0.3796850840047755 0.200000000000134 0  0.4618364086138087 0.1999999999998546 0  0.4917096175621762 0.1999999999998808 0  0.3946216884789568 0.2000000000001512 0  0.446899804139621 0.1999999999998389 0  0.4089549580935208 0.1998691686391595 0  0.4322718174608562 0.200127451265745 0  0.4201487168029707 0.1999966199048527 0  0.3528922713220932 0.2000185703532356 0  0.5633122436674589 0.1999814296467508 0  0.3006558810093873 0.1999966199048318 0  0.5815926498168407 0.1966545283159175 0  0.2677053789419034 0.1964246479135325 0  0.5290511287476175 0.1970915826863981 0  0.5439877332217911 0.197091582686394 0  0.2825131256993216 0.2035478995978015 0  0.3199386661080599 0.202908417313604 0  0.4842413153250809 0.1970915826863873 0  0.5141145242734466 0.1970915826863843 0  0.3722167817676917 0.2029084173136195 0  0.4693047108508938 0.1970915826863783 0  0.3348752705822316 0.202908417313609 0  0.3871533862418661 0.2029084173136212 0  0.4543681063767183 0.1970915826863795 0  0.4991779197992749 0.1970915826863902 0  0.4020059614928624 0.203547899597858 0  0.4394315019025246 0.1970915826863714 0  0.2550657455369551 0.2034088125358657 0  0.2548908499171161 0.1966940311614271 0  0.5946539510196798 0.2024302972968126 0  0.267698176732111 0.2039977513680092 0  0.4261685417851465 0.196409292431739 0  0.3590076176283495 0.196411355804271 0  0.5571672426447437 0.2036011176410121 0  0.3066757059912147 0.1964092924317024 0  0.594380730180568 0.1966558399668133 0  0.4842413153245942 0.2040749161535287 0  0.4693047108503577 0.2040749161535231 0  0.3871533862424271 0.1959250838464788 0  0.372246743208829 0.1959123236376545 0  0.5141145242731028 0.2040749161535395 0  0.4543681063761134 0.2040749161535186 0  0.4019979587101454 0.1959834479682427 0  0.4394608940728603 0.2040870543693135 0  0.5439623148931173 0.2040856076781014 0  0.5290511287473298 0.2040749161535501 0  0.4991779197988497 0.2040749161535382 0  0.3347912413592433 0.1959225448935183 0  0.3199680582793816 0.1959123018030061 0  0.2825051229162361 0.1959834479681729 0  0.3590471196690275 0.2036304442587945 0  0.5571594006495384 0.1963685282145804 0  0.3067669986803285 0.203627750582736 0  0.4262598344738712 0.2036568242185335 0  0.5814408164431408 0.2041285596160068 0  0.5688286748170428 0.1961819304477386 0  0.4145905603063645 0.2038180695522843 0  0.3473758401724931 0.2038180695522752 0  0.2950977245128307 0.2038180695522663 0  0.5688286748170693 0.203818069552238 0  0.2950977245127906 0.1961819304477774 0  0.3473758401723931 0.1961819304478349 0  0.4145905603061963 0.1961819304479011 0  0.2601812407614425 0.2056861609747042
[...]
<PointData  Vectors="f_40-0"> 
<DataArray  type="Float64"  Name="f_40-0"  NumberOfComponents="3" format="ascii">0.0000000000000000e+00 0.0000000000000000e+00 0.0000000000000000e+00  0.0000000000000000e+00 0.0000000000000000e+00 0.0000000000000000e+00  0.0000000000000000e+00 0.0000000000000000e+00 0.0000000000000000e+00  0.0000000000000000e+00 0.0000000000000000e+00 0.0000000000000000e+00  -5.5670556843037437e-06 -9.2080775907586309e-04 0.0000000000000000e+00  6.5214964206264706e-05 -9.2517040994721550e-04 0.0000000000000000e+00  0.0000000000000000e+00 0.0000000000000000e+00 0.0000000000000000e+00  0.0000000000000000e+00 0.0000000000000000e+00 0.0000000000000000e+00  0.0000000000000000e+00 0.0000000000000000e+00 0.0000000000000000e+00  0.0000000000000000e+00 0.0000000000000000e+00 0.0000000000000000e+00  2.9301085759083807e-05 -9.2297650386832938e-04 0.0000000000000000e+00  1.5409658954576752e-01 0.0000000000000000e+00 0.0000000000000000e+00  2.8448601146912816e-01 0.0000000000000000e+00 0.0000000000000000e+00  3.9116826577005132e-01 0.0000000000000000e+00 0.0000000000000000e+00  4.7414335244866040e-01 0.0000000000000000e+00 0.0000000000000000e+00  5.3341127150494483e-01 0.0000000000000000e+00 0.0000000000000000e+00  5.6897202293890092e-01 0.0000000000000000e+00 0.0000000000000000e+00  5.8082560675049311e-01 0.0000000000000000e+00 0.0000000000000000e+00  5.6897202293961990e-01 0.0000000000000000e+00 0.0000000000000000e+00  5.3341127150617973e-01 0.0000000000000000e+00 0.0000000000000000e+00  4.7414335245018979e-01 0.0000000000000000e+00 0.0000000000000000e+00  3.9116826577150421e-01 0.0000000000000000e+00 0.0000000000000000e+00  2.8448601147036801e-01 0.0000000000000000e+00 0.0000000000000000e+00  1.5409658954646613e-01 0.0000000000000000e+00 0.0000000000000000e+00  0.0000000000000000e+00 0.0000000000000000e+00 0.0000000000000000e+00  0.0000000000000000e+00 0.0000000000000000e+00 0.0000000000000000e+00  0.0000000000000000e+00 0.0000000000000000e+00 0.0000000000000000e+00  0.0000000000000000e+00 0.0000000000000000e+00 0.0000000000000000e+00  0.0000000000000000e+00 0.0000000000000000e+00 0.0000000000000000e+00  0.0000000000000000e+00 0.0000000000000000e+00 0.0000000000000000e+00  0.0000000000000000e+00 0.0000000000000000e+00 0.0000000000000000e+00  0.0000000000000000e+00 0.0000000000000000e+00 0.0000000000000000e+00  0.0000000000000000e+00 0.0000000000000000e+00 0.0000000000000000e+00  0.0000000000000000e+00 0.0000000000000000e+00 0.0000000000000000e+00  0.0000000000000000e+00 0.0000000000000000e+00 0.0000000000000000e+00  0.0000000000000000e+00 0.0000000000000000e+00 0.0000000000000000e+00  0.0000000000000000e+00 0.0000000000000000e+00 0.0000000000000000e+00  0.0000000000000000e+00 0.0000000000000000e+00 0.0000000000000000e+00  0.0000000000000000e+00 0.0000000000000000e+00 0.0000000000000000e+00  0.0000000000000000e+00 0.0000000000000000e+00 0.0000000000000000e+00  0.0000000000000000e+00 0.0000000000000000e+00 0.0000000000000000e+00  0.0000000000000000e+00 0.0000000000000000e+00 0.0000000000000000e+00  0.0000000000000000e+00 0.0000000000000000e+00 0.0000000000000000e+00  0.0000000000000000e+00 0.0000000000000000e+00 0.0000000000000000e+00  0.0000000000000000e+00 0.0000000000000000e+00 0.0000000000000000e+00  0.0000000000000000e+00 0.0000000000000000e+00 0.0000000000000000e+00  0.0000000000000000e+00 0.0000000000000000e+00 0.0000000000000000e+00  0.0000000000000000e+00 0.0000000000000000e+00 0.0000000000000000e+00  0.0000000000000000e+00 0.0000000000000000e+00 0.0000000000000000e+00  0.0000000000000000e+00 0.0000000000000000e+00 0.0000000000000000e+00  0.0000000000000000e+00 0.0000000000000000e+00 0.0000000000000000e+00  0.0000000000000000e+00 0.0000000000000000e+00 0.0000000000000000e+00  0.0000000000000000e+00 0.0000000000000000e+00 0.0000000000000000e+00  0.0000000000000000e+00 0.0000000000000000e+00 0.0000000000000000e+00  0.0000000000000000e+00 0.0000000000000000e+00 0.0000000000000000e+00  0.0000000000000000e+00 0.0000000000000000e+00 0.0000000000000000e+00  0.0000000000000000e+00 0.0000000000000000e+00 0.0000000000000000e+00  0.0000000000000000e+00 0.0000000000000000e+00 0.0000000000000000e+00  0.0000000000000000e+00 0.0000000000000000e+00 0.0000000000000000e+00  0.0000000000000000e+00 0.0000000000000000e+00 0.0000000000000000e+00  0.0000000000000000e+00 0.0000000000000000e+00 0.0000000000000000e+00  0.0000000000000000e+00 0.0000000000000000e+00 0.0000000000000000e+00  5.1208866582857582e-01 -4.8333218269656832e-03 0.0000000000000000e+00  3.7784633676373880e-01 1.1655698226547449e-03 0.0000000000000000e+00  5.1260648570241119e-01 4.9311752515312137e-03 0.0000000000000000e+00  0.0000000000000000e+00 0.0000000000000000e+00 0.0000000000000000e+00  0.0000000000000000e+00 0.0000000000000000e+00 0.0000000000000000e+00  0.0000000000000000e+00 0.0000000000000000e+00 0.0000000000000000e+00  0.0000000000000000e+00 0.0000000000000000e+00 0.0000000000000000e+00  0.0000000000000000e+00 0.0000000000000000e+00 0.0000000000000000e+00  0.0000000000000000e+00 0.0000000000000000e+00 0.0000000000000000e+00  0.0000000000000000e+00 0.0000000000000000e+00 0.0000000000000000e+00  0.0000000000000000e+00 0.0000000000000000e+00 0.0000000000000000e+00  0.0000000000000000e+00 0.0000000000000000e+00 0.0000000000000000e+00  0.0000000000000000e+00 0.0000000000000000e+00 0.0000000000000000e+00  0.0000000000000000e+00 0.0000000000000000e+00 0.0000000000000000e+00  0.0000000000000000e+00 0.0000000000000000e+00 0.0000000000000000e+00  0.0000000000000000e+00 0.0000000000000000e+00 0.0000000000000000e+00  0.0000000000000000e+00 0.0000000000000000e+00 0.0000000000000000e+00  0.0000000000000000e+00 0.0000000000000000e+00 0.0000000000000000e+00  0.0000000000000000e+00 0.0000000000000000e+00 0.0000000000000000e+00  0.0000000000000000e+00 0.0000000000000000e+00 0.0000000000000000e+00  0.0000000000000000e+00 0.0000000000000000e+00 0.0000000000000000e+00  0.0000000000000000e+00 0.0000000000000000e+00 0.0000000000000000e+00  0.0000000000000000e+00 0.0000000000000000e+00 0.0000000000000000e+00  0.0000000000000000e+00 0.0000000000000000e+00 0.0000000000000000e+00  0.0000000000000000e+00 0.0000000000000000e+00 0.0000000000000000e+00  0.0000000000000000e+00 0.0000000000000000e+00 0.0000000000000000e+00  0.0000000000000000e+00 0.0000000000000000e+00 0.0000000000000000e+00  0.0000000000000000e+00 0.0000000000000000e+00 0.0000000000000000e+00  0.0000000000000000e+00 0.0000000000000000e+00 0.0000000000000000e+00  0.0000000000000000e+00 0.0000000000000000e+00 0.0000000000000000e+00  0.0000000000000000e+00 0.0000000000000000e+00 0.0000000000000000e+00  0.0000000000000000e+00 0.0000000000000000e+00 0.0000000000000000e+00  0.0000000000000000e+00 0.0000000000000000e+00 0.0000000000000000e+00  0.0000000000000000e+00 0.0000000000000000e+00 0.0000000000000000e+00  0.0000000000000000e+00 0.0000000000000000e+00 0.0000000000000000e+00  0.0000000000000000e+00 0.0000000000000000e+00 0.0000000000000000e+00  0.0000000000000000e+00 0.0000000000000000e+00 0.0000000000000000e+00  0.0000000000000000e+00 0.0000000000000000e+00 0.0000000000000000e+00  0.0000000000000000e+00 0.0000000000000000e+00 0.0000000000000000e+00  0.0000000000000000e+00 0.0000000000000000e+00 0.0000000000000000e+00  0.0000000000000000e+00 0.0000000000000000e+00 0.0000000000000000e+00  0.0000000000000000e+00 0.0000000000000000e+00 0.0000000000000000e+00  0.0000000000000000e+00 0.0000000000000000e+00 0.0000000000000000e+00  0.0000000000000000e+00 0.0000000000000000e+00 0.0000000000000000e+00  0.0000000000000000e+00 0.0000000000000000e+00 0.0000000000000000e+00  0.0000000000000000e+00 0.0000000000000000e+00 0.0000000000000000e+00  0.0000000000000000e+00 0.0000000000000000e+00 0.0000000000000000e+00  0.0000000000000000e+00 0.0000000000000000e+00 0.0000000000000000e+00  0.0000000000000000e+00 0.0000000000000000e+00 0.0000000000000000e+00  0.0000000000000000e+00 0.0000000000000000e+00 0.0000000000000000e+00  0.0000000000000000e+00 0.0000000000000000e+00 0.0000000000000000e+00  0.0000000000000000e+00 0.0000000000000000e+00 0.0000000000000000e+00  0.0000000000000000e+00 0.0000000000000000e+00 0.0000000000000000e+00  0.0000000000000000e+00 0.0000000000000000e+00 0.0000000000000000e+00  0.0000000000000000e+00 0.0000000000000000e+00 0.0000000000000000e+00  0.0000000000000000e+00 0.0000000000000000e+00 0.0000000000000000e+00  0.0000000000000000e+00 0.0000000000000000e+00 0.0000000000000000e+00  0.0000000000000000e+00 0.0000000000000000e+00 0.0000000000000000e+00  0.0000000000000000e+00 0.0000000000000000e+00 0.0000000000000000e+00  0.0000000000000000e+00 0.0000000000000000e+00 0.0000000000000000e+00  0.0000000000000000e+00 0.0000000000000000e+00 0.0000000000000000e+00  0.0000000000000000e+00 0.0000000000000000e+00 0.0000000000000000e+00  0.0000000000000000e+00 0.0000000000000000e+00 0.0000000000000000e+00  0.0000000000000000e+00 0.0000000000000000e+00 0.0000000000000000e+00  0.0000000000000000e+00 0.0000000000000000e+00 0.0000000000000000e+00  0.0000000000000000e+00 0.0000000000000000e+00 0.0000000000000000e+00  0.0000000000000000e+00 0.0000000000000000e+00 0.0000000000000000e+00  0.0000000000000000e+00 0.0000000000000000e+00 0.0000000000000000e+00  0.0000000000000000e+00 0.0000000000000000e+00 0.0000000000000000e+00  0.0000000000000000e+00 0.0000000000000000e+00 0.0000000000000000e+00  0.0000000000000000e+00 0.0000000000000000e+00 0.0000000000000000e+00  0.0000000000000000e+00 0.0000000000000000e+00 0.0000000000000000e+00  0.0000000000000000e+00 0.0000000000000000e+00 0.0000000000000000e+00  0.0000000000000000e+00 0.0000000000000000e+00 0.0000000000000000e+00  0.0000000000000000e+00 0.0000000000000000e+00 0.0000000000000000e+00  0.0000000000000000e+00 0.0000000000000000e+00 0.0000000000000000e+00  0.0000000000000000e+00 0.0000000000000000e+00 0.0000000000000000e+00  0.0000000000000000e+00 0.0000000000000000e+00 0.0000000000000000e+00  0.0000000000000000e+00 0.0000000000000000e+00 0.0000000000000000e+00  0.0000000000000000e+00 0.0000000000000000e+00 0.0000000000000000e+00  0.0000000000000000e+00 0.0000000000000000e+00 0.0000000000000000e+00  2.6733280908883681e-06 -5.7270674064781174e-06 0.0000000000000000e+00  5.8007921234321553e-06 -8.2803318693471417e-06 0.0000000000000000e+00  8.9973035039004569e-06 -1.2093912455134693e-05 0.0000000000000000e+00  1.2539461673948570e-05 -1.7283101822287232e-05 0.0000000000000000e+00  1.5849264714351164e-05 -2.3813762184934589e-05 0.0000000000000000e+00  1.9468705199149829e-05 -3.1774168118265068e-05 0.0000000000000000e+00  2.2720771960401861e-05 -4.0782946315811516e-05 0.0000000000000000e+00  2.5960749974853439e-05 -5.1180153129986604e-05 0.0000000000000000e+00  2.9452141325121417e-05 -6.2628539314651502e-05 0.0000000000000000e+00  3.2483903958299301e-05 -7.5166134079916337e-05 0.0000000000000000e+00  3.5808736905873832e-05 -8.8809435254646462e-05 0.0000000000000000e+00  3.8654769793216766e-05 -1.0343008868077063e-04 0.0000000000000000e+00  4.1677854653638348e-05 -1.1903894971097551e-04 0.0000000000000000e+00  4.4330451416412860e-05 -1.3543512036706735e-04 0.0000000000000000e+00  4.6863820207973455e-05 -1.5279963574943057e-04 0.0000000000000000e+00  4.9488501693374220e-05 -1.7091326665219966e-04 0.0000000000000000e+00  5.1708945684362349e-05 -1.8974429643531501e-04 0.0000000000000000e+00  5.4035197263477654e-05 -2.0935852182582117e-04 0.0000000000000000e+00  5.5981455912936599e-05 -2.2956569350094825e-04 0.0000000000000000e+00  5.7992569120119964e-05 -2.5043464016156878e-04 0.0000000000000000e+00  5.9709842061124273e-05 -2.7183104043069096e-04 0.0000000000000000e+00  6.1405299808267729e-05 -2.9381262966171189e-04 0.0000000000000000e+00  6.2866092968511284e-05 -3.1619566759999418e-04 0.0000000000000000e+00  6.4199566560269362e-05 -3.3908948494470683e-04 0.0000000000000000e+00  6.5526103599392705e-05 -3.6234798995053415e-04 0.0000000000000000e+00  6.6634448900045160e-05 -3.8597721838223810e-04 0.0000000000000000e+00  6.7655264274934119e-05 -4.1000789017054952e-04 0.0000000000000000e+00  6.8526118083933013e-05 -4.3427962374670054e-04 0.0000000000000000e+00  6.9306664388444966e-05 -4.5890161887075846e-04 0.0000000000000000e+00  6.9949827125151591e-05 -4.8371298723139957e-04 0.0000000000000000e+00  7.0500205894144161e-05 -5.0881765032443163e-04 0.0000000000000000e+00  7.0920243783022014e-05 -5.3405999585831229e-04 0.0000000000000000e+00  7.1249684402403384e-05 -5.5954423575353544e-04 0.0000000000000000e+00  7.1453455599688857e-05 -5.8511781403434852e-04 0.0000000000000000e+00  7.1562788449622177e-05 -6.1089544967435545e-04 0.0000000000000000e+00  7.1557520600800607e-05 -6.3672610315482800e-04 0.0000000000000000e+00  7.1459474857791795e-05 -6.6271786987473459e-04 0.0000000000000000e+00  7.1252115054279920e-05 -6.8873105468334091e-04 0.0000000000000000e+00  7.0949480489116323e-05 -7.1487372856946538e-04 0.0000000000000000e+00  7.0538990663085807e-05 -7.4101127315158357e-04 0.0000000000000000e+00  7.0021978769471612e-05 -7.6723388142319819e-04 0.0000000000000000e+00  6.9420063821370304e-05 -7.9346105553456336e-04 0.0000000000000000e+00  6.8708467795287160e-05 -8.1972530518877376e-04 0.0000000000000000e+00  6.7937833834348611e-05 -8.4600113973856976e-04 0.0000000000000000e+00  6.7047213866668838e-05 -8.7225276144198185e-04 0.0000000000000000e+00  6.6100826939830584e-05 -8.9857497395594700e-04 0.0000000000000000e+00  4.7072514502272281e-05 -9.2407172136904278e-04 0.0000000000000000e+00  1.1702602883588171e-05 -9.2189060343401789e-04 0.0000000000000000e+00  -4.6494874472797038e-06 -8.9452757223236251e-04 0.0000000000000000e+00  -3.6588579510275318e-06 -8.6801866093543954e-04 0.0000000000000000e+00  -2.7245860517290083e-06 -8.4147430258701310e-04 0.0000000000000000e+00  -1.8855560581742222e-06 -8.1498654435245511e-04 0.0000000000000000e+00  -1.1053853674507543e-06 -7.8851671754868980e-04 0.0000000000000000e+00  -4.2030651313102238e-07 -7.6208061820397526e-04 0.0000000000000000e+00  2.1809040169306903e-07 -7.3569188964402513e-04 0.0000000000000000e+00  7.5841354250402114e-07 -7.0931747187400807e-04 0.0000000000000000e+00  1.2525017881524344e-06 -6.8304931379517000e-04 0.0000000000000000e+00  1.6568772610575457e-06 -6.5679937859680409e-04 0.0000000000000000e+00  2.0311591510039373e-06 -6.3068292351979734e-04 0.0000000000000000e+00  2.3095989332187460e-06 -6.0461724977390219e-04 0.0000000000000000e+00  2.5739223244670325e-06 -5.7872043993382734e-04 0.0000000000000000e+00  2.7369640652343285e-06 -5.5291373326831915e-04 0.0000000000000000e+00  2.9059029415063791e-06 -5.2731078990013935e-04 0.0000000000000000e+00  2.9623654937961600e-06 -5.0184077366794973e-04 0.0000000000000000e+00  3.0450535131513429e-06 -4.7661752766084366e-04 0.0000000000000000e+00  3.0017603930846330e-06 -4.5157670654406856e-04 0.0000000000000000e+00  3.0059126867077277e-06 -4.2683738509625784e-04 0.0000000000000000e+00  2.8700172645386621e-06 -4.0233719599281958e-04 0.0000000000000000e+00  2.8090925423948628e-06 -3.7819363635384454e-04 0.0000000000000000e+00  2.5911333988256152e-06 -3.5435330391386550e-04 0.0000000000000000e+00  2.4547962731253635e-06 -3.3092076374854592e-04 0.0000000000000000e+00  2.1907855938240042e-06 -3.0784908278836222e-04 0.0000000000000000e+00  1.8771426209567796e-06 -2.8530142440868491e-04 0.0000000000000000e+00  1.6687078355052263e-06 -2.6314612729658345e-04 0.0000000000000000e+00  1.3337009471008723e-06 -2.4155337705603831e-04 0.0000000000000000e+00  1.0461334544904247e-06 -2.2054151655665074e-04 0.0000000000000000e+00  6.7147284054486453e-07 -2.0012345713556974e-04 0.0000000000000000e+00  3.4350344282024152e-07 -1.8039339046239177e-04 0.0000000000000000e+00  -6.8765792879372435e-08 -1.6132310667244982e-04 0.0000000000000000e+00  -3.4904092593150778e-07 -1.4312668883356699e-04 0.0000000000000000e+00  -8.1535141162559809e-07 -1.2559674340138037e-04 0.0000000000000000e+00  -1.3029824435135673e-06 -1.0908892541377027e-04 0.0000000000000000e+00  -1.5693747763446727e-06 -9.3313838734759873e-05 0.0000000000000000e+00  -1.9669140247463074e-06 -7.8622171936620642e-05 0.0000000000000000e+00  -2.2434798360040635e-06 -6.4944570782617047e-05 0.0000000000000000e+00  -2.5830647116600681e-06 -5.2332500790663963e-05 0.0000000000000000e+00  -2.6587741450395950e-06 -4.0982920700682918e-05 0.0000000000000000e+00  -2.9391190581704944e-06 -3.0639846328903717e-05 0.0000000000000000e+00  -3.1463026875906403e-06 -2.1746906780926688e-05 0.0000000000000000e+00  -2.9664810526319770e-06 -1.3897390554007680e-05 0.0000000000000000e+00  -2.8968686516099658e-06 -7.4835022754783274e-06 0.0000000000000000e+00  -2.4147837024095245e-06 -2.4353536995682179e-06 0.0000000000000000e+00  -1.9926060555463077e-06 1.0289728974327979e-06 0.0000000000000000e+00  -9.7831932698709157e-07 2.8447846711446764e-06 0.0000000000000000e+00  6.6474749176404063e-07 -1.5129960411399401e-06 0.0000000000000000e+00  3.1447558733730465e-05 -8.8329652519314537e-04 0.0000000000000000e+00  3.3576503074560225e-05 -8.3285600907305360e-04 0.0000000000000000e+00  3.5422712386630061e-05 -7.5055907153340510e-04 0.0000000000000000e+00  4.0144134267722944e-06 -8.7281663015783653e-06 0.0000000000000000e+00  3.5953419131043402e-05 -6.9894065168953773e-04 0.0000000000000000e+00  7.0248611251318608e-06 -2.1056065149961722e-05 0.0000000000000000e+00  3.6578573918498562e-05 -6.4665689861453457e-04 0.0000000000000000e+00  1.2348386142593404e-05 -5.1279790478095417e-05 0.0000000000000000e+00  1.5957404308105011e-05 -7.6081996430232195e-05 0.0000000000000000e+00  3.6877859952887437e-05 -5.9473701216945015e-04 0.0000000000000000e+00  2.3637217861726249e-05 -1.5712195545134616e-04 0.0000000000000000e+00  3.6518429514202103e-05 -4.9257679830714076e-04 0.0000000000000000e+00  1.8912095043229070e-05 -1.0412586021501898e-04 0.0000000000000000e+00  2.6602707449831237e-05 -1.9437328478317067e-04 0.0000000000000000e+00  3.5864767946262578e-05 -4.4268798153678738e-04 0.0000000000000000e+00  3.6856678005802991e-05 -5.4332300740223655e-04 0.0000000000000000e+00  2.9004258236223429e-05 -2.3505687716925160e-04 0.0000000000000000e+00  3.4893612451651039e-05 -3.9387369332646556e-04 0.0000000000000000e+00  3.0634283659377141e-05 -2.7626834961041904e-04 0.0000000000000000e+00  3.4046264846790013e-05 -3.4738140688491840e-04 0.0000000000000000e+00  3.2334808431773367e-05 -3.0994107940800843e-04 0.0000000000000000e+00  2.1560635391510962e-05 -1.2863139045217204e-04 0.0000000000000000e+00  3.3902660750840105e-05 -7.9327637623095610e-04 0.0000000000000000e+00  9.7078470537102447e-06 -3.4333699630274943e-05 0.0000000000000000e+00  2.0166173281418263e-05 -8.5713817003959191e-04 0.0000000000000000e+00  6.3578457347762744e-07 -2.7020799038539799e-06 0.0000000000000000e+00  2.6145559718959418e-05 -6.7192574526133515e-04 0.0000000000000000e+00  2.5305951283570907e-05 -7.2439462868557913e-04 0.0000000000000000e+00  8.6176923618985743e-06 -1.6384557280963808e-05 0.0000000000000000e+00  1.9098723427875244e-05 -6.4513129635760606e-05 0.0000000000000000e+00  2.6875611233920983e-05 -5.1687560303125728e-04 0.0000000000000000e+00  2.6681849068054632e-05 -6.1975781916973061e-04 0.0000000000000000e+00  3.2633481053823787e-05 -1.7646827205385209e-04 0.0000000000000000e+00  2.6550582193678238e-05 -4.6648587175552052e-04 0.0000000000000000e+00  2.3301263772422151e-05 -9.1839102424831040e-05 0.0000000000000000e+00  3.5707939874721191e-05 -2.1578548600603218e-04 0.0000000000000000e+00  2.5949786632154084e-05 -4.1706080604067992e-04 0.0000000000000000e+00  2.6921514658303779e-05 -5.6802382851591773e-04 0.0000000000000000e+00  4.0231920837930092e-05 -2.5768952724189122e-04 0.0000000000000000e+00  2.5075681734848068e-05 -3.6882530443223103e-04 0.0000000000000000e+00  1.2292595492028414e-07 -1.3427279549174075e-06 0.0000000000000000e+00  -4.9351986730028693e-07 6.7849935224704661e-07 0.0000000000000000e+00  3.8721378961768091e-05 -9.0454457194391797e-04 0.0000000000000000e+00  4.3181512717243863e-06 -6.4778647467522602e-06 0.000000