<?xml version="1.0"?>
<VTKFile type="UnstructuredGrid"  version="0.1"  >
<UnstructuredGrid>
<Piece  NumberOfPoints="1419" NumberOfCells="2698">
<Points>
<DataArray  type="Float64"  NumberOfComponents="3"  format="ascii">0 0 0  0 0.41 0  2.5 0 0  2.5 0.41 0  0.6 0.19 0  0.6 0.21 0  0.25 0.2 0  0.15 0.2 0  0.2489897948556636 0.21 0  0.2489897948556636 0.19 0  0.6 0.2 0  0 0.3807142857143437 0  0 0.3514285714286952 0  0 0.3221428571430699 0  0 0.29285714285744 0  0 0.2635714285718054 0  0 0.2342857142861561 0  0 0.2050000000005308 0  0 0.175714285714732 0  0 0.1464285714289574 0  0 0.1171428571431897 0  0 0.08785714285737878 0  0 0.05857142857161107 0  0 0.02928571428580012 0  0.03015443760436003 0 0  0.06140001986583606 0 0  0.09377624077125973 0 0  0.1273239957535082 0 0  0.1620856860351972 0 0  0.1981052433264291 0 0  0.235428184091502 0 0  0.2741016576309132 0 0  0.3141745521465447 0 0  0.3556974926295285 0 0  0.3987229542472677 0 0  0.4433053055141081 0 0  0.4895008759286886 0 0  0.5373680609405097 0 0  0.5869673343216626 0 0  0.6383613676634521 0 0  0.6916151138468254 0 0  0.7467958595648856 0 0  0.8039733463919316 0 0  0.8632198139502143 0 0  0.9246101326867038 0 0  0.9882218810934433 0 0  1.054135445558498 0 0  1.122434100542598 0 0  1.193204177141305 0 0  1.266535089879536 0 0  1.342519516046404 0 0  1.421253448503939 0 0  1.502836389106271 0 0  1.587371439758838 0 0  1.674965418777374 0 0  1.765729001825544 0 0  1.859776908880082 0 0  1.957227977487062 0 0  2.058205329869943 0 0  2.162836591189951 0 0  2.271253957290865 0 0  2.383594446803425 0 0  2.5 0.1024999999997612 0  2.5 0.2049999999994743 0  2.5 0.3074999999997183 0  2.383594446803656 0.41 0  2.271253957291315 0.41 0  2.162836591190598 0.41 0  2.058205329870775 0.41 0  1.957227977488067 0.41 0  1.859776908881246 0.41 0  1.765729001826854 0.41 0  1.674965418778818 0.41 0  1.58737143976041 0.41 0  1.502836389107956 0.41 0  1.421253448505726 0.41 0  1.342519516048286 0.41 0  1.266535089881505 0.41 0  1.193204177143353 0.41 0  1.122434100544716 0.41 0  1.05413544556068 0.41 0  0.9882218810956305 0.41 0  0.9246101326886647 0.41 0  0.8632198139519631 0.41 0  0.8039733463934788 0.41 0  0.7467958595662458 0.41 0  0.6916151138480078 0.41 0  0.6383613676644679 0.41 0  0.5869673343225223 0.41 0  0.5373680609412221 0.41 0  0.4895008759292634 0.41 0  0.4433053055145528 0.41 0  0.3987229542475914 0.41 0  0.3556974926297398 0.41 0  0.3141745521466497 0.41 0  0.2741016576310038 0.41 0  0.2354281840915826 0.41 0  0.1981052433265003 0.41 0  0.1620856860352591 0.41 0  0.1273239957535623 0.41 0  0.09377624077128965 0.41 0  0.06140001986584975 0.41 0  0.03015443760436654 0.41 0  0.2497468076502589 0.2050254481002335 0  0.2497468076502614 0.1949745518997913 0  0.2469965252529372 0.1829317073451959 0  0.2439893735792749 0.1762316384219906 0  0.2400332147834255 0.1700443375285386 0  0.2352133972704371 0.1645032867342007 0  0.2296339016332438 0.1597280261969788 0  0.2234150974217223 0.1558215752574715 0  0.2166911463437691 0.1528682099456123 0  0.2096071079204251 0.1509316448471593 0  0.2023158100364996 0.1500536585536553 0  0.194974551899914 0.1502531923497262 0  0.1877417105387872 0.1515259415822739 0  0.1807733240461124 0.153844448527136 0  0.1742197252835808 0.15715869474974 0  0.1682222986673531 0.1613971801805478 0  0.162910430003803 0.1664684656256651 0  0.1583987151779087 0.1722631454351573 0  0.1547844879126891 0.178656207771761 0  0.1521457199348551 0.1855097315605723 0  0.1505393388476355 0.1926758619366523 0  0.1505393388476328 0.2073241380633295 0  0.1521457199348437 0.2144902684393899 0  0.1547844879126531 0.221343792228163 0  0.1583987151778488 0.2277368545647528 0  0.1629104300036858 0.2335315343742052 0  0.1682222986671726 0.2386028198193036 0  0.1742197252833576 0.2428413052501257 0  0.1807733240458683 0.2461555514727623 0  0.1877417105384929 0.2484740584176516 0  0.1949745518995776 0.2497468076502398 0  0.202315810036185 0.2499463414463592 0  0.2096071079201568 0.2490683551528932 0  0.2166911463435495 0.2471317900544655 0  0.2234150974215506 0.2441784247426195 0  0.2296339016331197 0.2402719738031125 0  0.2352133972703547 0.2354967132658811 0  0.2400332147833751 0.2299556624715287 0  0.2439893735792577 0.2237683615780412 0  0.246996525252926 0.2170682926548348 0  0.25645809709277 0.21 0  0.2639263993298655 0.21 0  0.271394701566961 0.21 0  0.2788630038040554 0.21 0  0.2863313060411479 0.21 0  0.2937996082782405 0.21 0  0.301267910515333 0.21 0  0.3087362127524279 0.21 0  0.3162045149895234 0.21 0  0.3236728172265972 0.21 0  0.3311411194636928 0.21 0  0.3386094217007701 0.21 0  0.3460777239378666 0.21 0  0.3535460261749672 0.21 0  0.3610143284120516 0.21 0  0.3684826306491596 0.21 0  0.3759509328862226 0.21 0  0.383419235123329 0.21 0  0.3908875373604028 0.21 0  0.3983558395975142 0.21 0  0.4058241418345938 0.21 0  0.4132924440716992 0.21 0  0.4207607463087888 0.21 0  0.4282290485459029 0.21 0  0.4356973507830418 0.21 0  0.4431656530201649 0.21 0  0.4506339552573136 0.21 0  0.4581022574944306 0.21 0  0.4655705597315852 0.21 0  0.4730388619686996 0.21 0  0.480507164205851 0.21 0  0.4879754664429498 0.21 0  0.4954437686800938 0.21 0  0.502912070917267 0.21 0  0.5103803731544119 0.21 0  0.5178486753915261 0.21 0  0.5253169776286404 0.21 0  0.5327852798657868 0.21 0  0.5402535821029386 0.21 0  0.54772188434007 0.21 0  0.5551901865771842 0.21 0  0.5626584888143201 0.21 0  0.5701267910514778 0.21 0  0.5775950932886138 0.21 0  0.5850633955257281 0.21 0  0.5925316977628483 0.21 0  0.6 0.2050000000000054 0  0.6 0.1950000000000217 0  0.5925316977628897 0.19 0  0.5850633955257988 0.19 0  0.5775950932887378 0.19 0  0.5701267910515998 0.19 0  0.5626584888145268 0.19 0  0.5551901865773963 0.19 0  0.547721884340339 0.19 0  0.5402535821032429 0.19 0  0.5327852798661811 0.19 0  0.5253169776290537 0.19 0  0.5178486753919799 0.19 0  0.5103803731549078 0.19 0  0.502912070917822 0.19 0  0.4954437686807294 0.19 0  0.4879754664436223 0.19 0  0.4805071642065402 0.19 0  0.4730388619694271 0.19 0  0.4655705597323621 0.19 0  0.4581022574952563 0.19 0  0.4506339552581777 0.19 0  0.4431656530210671 0.19 0  0.4356973507839815 0.19 0  0.4282290485468779 0.19 0  0.4207607463097617 0.19 0  0.4132924440726327 0.19 0  0.4058241418354857 0.19 0  0.3983558395983636 0.19 0  0.3908875373612097 0.19 0  0.3834192351240934 0.19 0  0.3759509328869369 0.19 0  0.3684826306498175 0.19 0  0.361014328412667 0.19 0  0.3535460261755617 0.19 0  0.3460777239384295 0.19 0  0.3386094217012945 0.19 0  0.3311411194641595 0.19 0  0.3236728172270245 0.19 0  0.3162045149898895 0.19 0  0.3087362127527544 0.19 0  0.3012679105156187 0.19 0  0.2937996082784807 0.19 0  0.2863313060413428 0.19 0  0.2788630038042048 0.19 0  0.2713947015670686 0.19 0  0.2639263993299336 0.19 0  0.2564580970927985 0.19 0  0.2607803159922026 0.2000727136295815 0  0.5887803774232762 0.2001272386983733 0  0.5745072403740523 0.2002044435018727 0  0.5511891430099709 0.2001122610077113 0  0.2751288526855082 0.20000000000002 0  0.5365194309847112 0.1999999999999436 0  0.2894621222999649 0.1998691686390484 0  0.5215828265105155 0.1999999999999228 0  0.3127789816668748 0.1998657885438805 0  0.3274069683451451 0.2000000000000796 0  0.5066462220363641 0.199999999999908 0  0.3650630746574081 0.199866017807523 0  0.476773013087985 0.1999999999998713 0  0.3417402379596385 0.1998691686391011 0  0.3796850840047755 0.200000000000134 0  0.4618364086138087 0.1999999999998546 0  0.4917096175621762 0.1999999999998808 0  0.3946216884789568 0.2000000000001512 0  0.446899804139621 0.1999999999998389 0  0.4089549580935208 0.1998691686391595 0  0.4322718174608562 0.200127451265745 0  0.4201487168029707 0.1999966199048527 0  0.3528922713220932 0.2000185703532356 0  0.5633122436674589 0.1999814296467508 0  0.3006558810093873 0.1999966199048318 0  0.5815926498168407 0.1966545283159175 0  0.2677053789419034 0.1964246479135325 0  0.5290511287476175 0.1970915826863981 0  0.5439877332217911 0.197091582686394 0  0.2825131256993216 0.2035478995978015 0  0.3199386661080599 0.202908417313604 0  0.4842413153250809 0.1970915826863873 0  0.5141145242734466 0.1970915826863843 0  0.3722167817676917 0.2029084173136195 0  0.4693047108508938 0.1970915826863783 0  0.3348752705822316 0.202908417313609 0  0.3871533862418661 0.2029084173136212 0  0.4543681063767183 0.1970915826863795 0  0.4991779197992749 0.1970915826863902 0  0.4020059614928624 0.203547899597858 0  0.4394315019025246 0.1970915826863714 0  0.2550657455369551 0.2034088125358657 0  0.2548908499171161 0.1966940311614271 0  0.5946539510196798 0.2024302972968126 0  0.267698176732111 0.2039977513680092 0  0.4261685417851465 0.196409292431739 0  0.3590076176283495 0.196411355804271 0  0.5571672426447437 0.2036011176410121 0  0.3066757059912147 0.1964092924317024 0  0.594380730180568 0.1966558399668133 0  0.4842413153245942 0.2040749161535287 0  0.4693047108503577 0.2040749161535231 0  0.3871533862424271 0.1959250838464788 0  0.372246743208829 0.1959123236376545 0  0.5141145242731028 0.2040749161535395 0  0.4543681063761134 0.2040749161535186 0  0.4019979587101454 0.1959834479682427 0  0.4394608940728603 0.2040870543693135 0  0.5439623148931173 0.2040856076781014 0  0.5290511287473298 0.2040749161535501 0  0.4991779197988497 0.2040749161535382 0  0.3347912413592433 0.1959225448935183 0  0.3199680582793816 0.1959123018030061 0  0.2825051229162361 0.1959834479681729 0  0.3590471196690275 0.2036304442587945 0  0.5571594006495384 0.1963685282145804 0  0.3067669986803285 0.203627750582736 0  0.4262598344738712 0.2036568242185335 0  0.5814408164431408 0.2041285596160068 0  0.5688286748170428 0.1961819304477386 0  0.4145905603063645 0.2038180695522843 0  0.3473758401724931 0.2038180695522752 0  0.2950977245128307 0.2038180695522663 0  0.5688286748170693 0.203818069552238 0  0.2950977245127906 0.1961819304477774 0  0.3473758401723931 0.1961819304478349 0  0.4145905603061963 0.1961819304479011 0  0.2601812407614425 0.2056861609747042
[...]
<PointData  Vectors="f_40-0"> 
<DataArray  type="Float64"  Name="f_40-0"  NumberOfComponents="3" format="ascii">0.0000000000000000e+00 0.0000000000000000e+00 0.0000000000000000e+00  0.0000000000000000e+00 0.0000000000000000e+00 0.0000000000000000e+00  0.0000000000000000e+00 0.0000000000000000e+00 0.0000000000000000e+00  0.0000000000000000e+00 0.0000000000000000e+00 0.0000000000000000e+00  1.2794458444574449e-04 5.3817884795671336e-03 0.0000000000000000e+00  -2.6411555169562071e-04 5.3856114475143530e-03 0.0000000000000000e+00  0.0000000000000000e+00 0.0000000000000000e+00 0.0000000000000000e+00  0.0000000000000000e+00 0.0000000000000000e+00 0.0000000000000000e+00  0.0000000000000000e+00 0.0000000000000000e+00 0.0000000000000000e+00  0.0000000000000000e+00 0.0000000000000000e+00 0.0000000000000000e+00  -6.7687445309444542e-05 5.3836600265994945e-03 0.0000000000000000e+00  5.3927076751072645e-01 0.0000000000000000e+00 0.0000000000000000e+00  9.9557680155833039e-01 0.0000000000000000e+00 0.0000000000000000e+00  1.3689181021427044e+00 0.0000000000000000e+00 0.0000000000000000e+00  1.6592946692642809e+00 0.0000000000000000e+00 0.0000000000000000e+00  1.8667065029230221e+00 0.0000000000000000e+00 0.0000000000000000e+00  1.9911536031189163e+00 0.0000000000000000e+00 0.0000000000000000e+00  2.0326359698518379e+00 0.0000000000000000e+00 0.0000000000000000e+00  1.9911536031214323e+00 0.0000000000000000e+00 0.0000000000000000e+00  1.8667065029273437e+00 0.0000000000000000e+00 0.0000000000000000e+00  1.6592946692696333e+00 0.0000000000000000e+00 0.0000000000000000e+00  1.3689181021477890e+00 0.0000000000000000e+00 0.0000000000000000e+00  9.9557680156266903e-01 0.0000000000000000e+00 0.0000000000000000e+00  5.3927076751317116e-01 0.0000000000000000e+00 0.0000000000000000e+00  0.0000000000000000e+00 0.0000000000000000e+00 0.0000000000000000e+00  0.0000000000000000e+00 0.0000000000000000e+00 0.0000000000000000e+00  0.0000000000000000e+00 0.0000000000000000e+00 0.0000000000000000e+00  0.0000000000000000e+00 0.0000000000000000e+00 0.0000000000000000e+00  0.0000000000000000e+00 0.0000000000000000e+00 0.0000000000000000e+00  0.0000000000000000e+00 0.0000000000000000e+00 0.0000000000000000e+00  0.0000000000000000e+00 0.0000000000000000e+00 0.0000000000000000e+00  0.0000000000000000e+00 0.0000000000000000e+00 0.0000000000000000e+00  0.0000000000000000e+00 0.0000000000000000e+00 0.0000000000000000e+00  0.0000000000000000e+00 0.0000000000000000e+00 0.0000000000000000e+00  0.0000000000000000e+00 0.0000000000000000e+00 0.0000000000000000e+00  0.0000000000000000e+00 0.0000000000000000e+00 0.0000000000000000e+00  0.0000000000000000e+00 0.0000000000000000e+00 0.0000000000000000e+00  0.0000000000000000e+00 0.0000000000000000e+00 0.0000000000000000e+00  0.0000000000000000e+00 0.0000000000000000e+00 0.0000000000000000e+00  0.0000000000000000e+00 0.0000000000000000e+00 0.0000000000000000e+00  0.0000000000000000e+00 0.0000000000000000e+00 0.0000000000000000e+00  0.0000000000000000e+00 0.0000000000000000e+00 0.0000000000000000e+00  0.0000000000000000e+00 0.0000000000000000e+00 0.0000000000000000e+00  0.0000000000000000e+00 0.0000000000000000e+00 0.0000000000000000e+00  0.0000000000000000e+00 0.0000000000000000e+00 0.0000000000000000e+00  0.0000000000000000e+00 0.0000000000000000e+00 0.0000000000000000e+00  0.0000000000000000e+00 0.0000000000000000e+00 0.0000000000000000e+00  0.0000000000000000e+00 0.0000000000000000e+00 0.0000000000000000e+00  0.0000000000000000e+00 0.0000000000000000e+00 0.0000000000000000e+00  0.0000000000000000e+00 0.0000000000000000e+00 0.0000000000000000e+00  0.0000000000000000e+00 0.0000000000000000e+00 0.0000000000000000e+00  0.0000000000000000e+00 0.0000000000000000e+00 0.0000000000000000e+00  0.0000000000000000e+00 0.0000000000000000e+00 0.0000000000000000e+00  0.0000000000000000e+00 0.0000000000000000e+00 0.0000000000000000e+00  0.0000000000000000e+00 0.0000000000000000e+00 0.0000000000000000e+00  0.0000000000000000e+00 0.0000000000000000e+00 0.0000000000000000e+00  0.0000000000000000e+00 0.0000000000000000e+00 0.0000000000000000e+00  0.0000000000000000e+00 0.0000000000000000e+00 0.0000000000000000e+00  0.0000000000000000e+00 0.0000000000000000e+00 0.0000000000000000e+00  0.0000000000000000e+00 0.0000000000000000e+00 0.0000000000000000e+00  0.0000000000000000e+00 0.0000000000000000e+00 0.0000000000000000e+00  0.0000000000000000e+00 0.0000000000000000e+00 0.0000000000000000e+00  1.8506280861120319e+00 -2.8719328888071428e-02 0.0000000000000000e+00  1.5131825520468645e+00 1.6357973217697157e-02 0.0000000000000000e+00  1.8212888064926576e+00 6.5605104079795654e-02 0.0000000000000000e+00  0.0000000000000000e+00 0.0000000000000000e+00 0.0000000000000000e+00  0.0000000000000000e+00 0.0000000000000000e+00 0.0000000000000000e+00  0.0000000000000000e+00 0.0000000000000000e+00 0.0000000000000000e+00  0.0000000000000000e+00 0.0000000000000000e+00 0.0000000000000000e+00  0.0000000000000000e+00 0.0000000000000000e+00 0.0000000000000000e+00  0.0000000000000000e+00 0.0000000000000000e+00 0.0000000000000000e+00  0.0000000000000000e+00 0.0000000000000000e+00 0.0000000000000000e+00  0.0000000000000000e+00 0.0000000000000000e+00 0.0000000000000000e+00  0.0000000000000000e+00 0.0000000000000000e+00 0.0000000000000000e+00  0.0000000000000000e+00 0.0000000000000000e+00 0.0000000000000000e+00  0.0000000000000000e+00 0.0000000000000000e+00 0.0000000000000000e+00  0.0000000000000000e+00 0.0000000000000000e+00 0.0000000000000000e+00  0.0000000000000000e+00 0.0000000000000000e+00 0.0000000000000000e+00  0.0000000000000000e+00 0.0000000000000000e+00 0.0000000000000000e+00  0.0000000000000000e+00 0.0000000000000000e+00 0.0000000000000000e+00  0.0000000000000000e+00 0.0000000000000000e+00 0.0000000000000000e+00  0.0000000000000000e+00 0.0000000000000000e+00 0.0000000000000000e+00  0.0000000000000000e+00 0.0000000000000000e+00 0.0000000000000000e+00  0.0000000000000000e+00 0.0000000000000000e+00 0.0000000000000000e+00  0.0000000000000000e+00 0.0000000000000000e+00 0.0000000000000000e+00  0.0000000000000000e+00 0.0000000000000000e+00 0.0000000000000000e+00  0.0000000000000000e+00 0.0000000000000000e+00 0.0000000000000000e+00  0.0000000000000000e+00 0.0000000000000000e+00 0.0000000000000000e+00  0.0000000000000000e+00 0.0000000000000000e+00 0.0000000000000000e+00  0.0000000000000000e+00 0.0000000000000000e+00 0.0000000000000000e+00  0.0000000000000000e+00 0.0000000000000000e+00 0.0000000000000000e+00  0.0000000000000000e+00 0.0000000000000000e+00 0.0000000000000000e+00  0.0000000000000000e+00 0.0000000000000000e+00 0.0000000000000000e+00  0.0000000000000000e+00 0.0000000000000000e+00 0.0000000000000000e+00  0.0000000000000000e+00 0.0000000000000000e+00 0.0000000000000000e+00  0.0000000000000000e+00 0.0000000000000000e+00 0.0000000000000000e+00  0.0000000000000000e+00 0.0000000000000000e+00 0.0000000000000000e+00  0.0000000000000000e+00 0.0000000000000000e+00 0.0000000000000000e+00  0.0000000000000000e+00 0.0000000000000000e+00 0.0000000000000000e+00  0.0000000000000000e+00 0.0000000000000000e+00 0.0000000000000000e+00  0.0000000000000000e+00 0.0000000000000000e+00 0.0000000000000000e+00  0.0000000000000000e+00 0.0000000000000000e+00 0.0000000000000000e+00  0.0000000000000000e+00 0.0000000000000000e+00 0.0000000000000000e+00  0.0000000000000000e+00 0.0000000000000000e+00 0.0000000000000000e+00  0.0000000000000000e+00 0.0000000000000000e+00 0.0000000000000000e+00  0.0000000000000000e+00 0.0000000000000000e+00 0.0000000000000000e+00  0.0000000000000000e+00 0.0000000000000000e+00 0.0000000000000000e+00  0.0000000000000000e+00 0.0000000000000000e+00 0.0000000000000000e+00  0.0000000000000000e+00 0.0000000000000000e+00 0.0000000000000000e+00  0.0000000000000000e+00 0.0000000000000000e+00 0.0000000000000000e+00  0.0000000000000000e+00 0.0000000000000000e+00 0.0000000000000000e+00  0.0000000000000000e+00 0.0000000000000000e+00 0.0000000000000000e+00  0.0000000000000000e+00 0.0000000000000000e+00 0.0000000000000000e+00  0.0000000000000000e+00 0.0000000000000000e+00 0.0000000000000000e+00  0.0000000000000000e+00 0.0000000000000000e+00 0.0000000000000000e+00  0.0000000000000000e+00 0.0000000000000000e+00 0.0000000000000000e+00  0.0000000000000000e+00 0.0000000000000000e+00 0.0000000000000000e+00  0.0000000000000000e+00 0.0000000000000000e+00 0.0000000000000000e+00  0.0000000000000000e+00 0.0000000000000000e+00 0.0000000000000000e+00  0.0000000000000000e+00 0.0000000000000000e+00 0.0000000000000000e+00  0.0000000000000000e+00 0.0000000000000000e+00 0.0000000000000000e+00  0.0000000000000000e+00 0.0000000000000000e+00 0.0000000000000000e+00  0.0000000000000000e+00 0.0000000000000000e+00 0.0000000000000000e+00  0.0000000000000000e+00 0.0000000000000000e+00 0.0000000000000000e+00  0.0000000000000000e+00 0.0000000000000000e+00 0.0000000000000000e+00  0.0000000000000000e+00 0.0000000000000000e+00 0.0000000000000000e+00  0.0000000000000000e+00 0.0000000000000000e+00 0.0000000000000000e+00  0.0000000000000000e+00 0.0000000000000000e+00 0.0000000000000000e+00  0.0000000000000000e+00 0.0000000000000000e+00 0.0000000000000000e+00  0.0000000000000000e+00 0.0000000000000000e+00 0.0000000000000000e+00  0.0000000000000000e+00 0.0000000000000000e+00 0.0000000000000000e+00  0.0000000000000000e+00 0.0000000000000000e+00 0.0000000000000000e+00  0.0000000000000000e+00 0.0000000000000000e+00 0.0000000000000000e+00  0.0000000000000000e+00 0.0000000000000000e+00 0.0000000000000000e+00  0.0000000000000000e+00 0.0000000000000000e+00 0.0000000000000000e+00  0.0000000000000000e+00 0.0000000000000000e+00 0.0000000000000000e+00  0.0000000000000000e+00 0.0000000000000000e+00 0.0000000000000000e+00  0.0000000000000000e+00 0.0000000000000000e+00 0.0000000000000000e+00  0.0000000000000000e+00 0.0000000000000000e+00 0.0000000000000000e+00  0.0000000000000000e+00 0.0000000000000000e+00 0.0000000000000000e+00  0.0000000000000000e+00 0.0000000000000000e+00 0.0000000000000000e+00  0.0000000000000000e+00 0.0000000000000000e+00 0.0000000000000000e+00  0.0000000000000000e+00 0.0000000000000000e+00 0.0000000000000000e+00  -1.4528762389323471e-05 1.5184450037994259e-05 0.0000000000000000e+00  -3.0857113126973466e-05 3.0995040667975590e-05 0.0000000000000000e+00  -4.5550857364459934e-05 5.6224093623426383e-05 0.0000000000000000e+00  -6.1247892887607199e-05 9.1488288705509222e-05 0.0000000000000000e+00  -7.4570862044125128e-05 1.3509829821070873e-04 0.0000000000000000e+00  -8.9244206724589176e-05 1.8781758587303244e-04 0.0000000000000000e+00  -1.0128172983995623e-04 2.4715472699719093e-04 0.0000000000000000e+00  -1.1285629954697078e-04 3.1510596869727630e-04 0.0000000000000000e+00  -1.2570242980362891e-04 3.8948800212855998e-04 0.0000000000000000e+00  -1.3577340977367154e-04 4.7044438035939251e-04 0.0000000000000000e+00  -1.4746003666111333e-04 5.5780333378105287e-04 0.0000000000000000e+00  -1.5652734641955119e-04 6.5087434537628309e-04 0.0000000000000000e+00  -1.6669709958296204e-04 7.4941393344341121e-04 0.0000000000000000e+00  -1.7498205058670026e-04 8.5225954717809663e-04 0.0000000000000000e+00  -1.8286313632443141e-04 9.6032959226515933e-04 0.0000000000000000e+00  -1.9136034162455654e-04 1.0722403268277486e-03 0.0000000000000000e+00  -1.9805488511813276e-04 1.1879673484440794e-03 0.0000000000000000e+00  -2.0550257848102210e-04 1.3073853032133688e-03 0.0000000000000000e+00  -2.1131656999947838e-04 1.4298965765849447e-03 0.0000000000000000e+00  -2.1765625493543625e-04 1.5553348384189801e-03 0.0000000000000000e+00  -2.2284327285463661e-04 1.6833935571430154e-03 0.0000000000000000e+00  -2.2817821018228894e-04 1.8139681730618086e-03 0.0000000000000000e+00  -2.3260686970283978e-04 1.9462888728425227e-03 0.0000000000000000e+00  -2.3670940785174908e-04 2.0808083138426927e-03 0.0000000000000000e+00  -2.4090612032179207e-04 2.2167792814204359e-03 0.0000000000000000e+00  -2.4442239758311741e-04 2.3543362034033673e-03 0.0000000000000000e+00  -2.4775505764978447e-04 2.4933079720958666e-03 0.0000000000000000e+00  -2.5066414913057431e-04 2.6332992819763446e-03 0.0000000000000000e+00  -2.5337781258224693e-04 2.7744449776140596e-03 0.0000000000000000e+00  -2.5572508032388117e-04 2.9163430874402175e-03 0.0000000000000000e+00  -2.5787673283893248e-04 3.0591300748169293e-03 0.0000000000000000e+00  -2.5970535514910391e-04 3.2024413107611667e-03 0.0000000000000000e+00  -2.6134729724667312e-04 3.3464225301437040e-03 0.0000000000000000e+00  -2.6270191145453468e-04 3.4907369977761711e-03 0.0000000000000000e+00  -2.6386446525231258e-04 3.6355576201761034e-03 0.0000000000000000e+00  -2.6478669698826851e-04 3.7805750710959815e-03 0.0000000000000000e+00  -2.6553313043777113e-04 3.9259485462600262e-03 0.0000000000000000e+00  -2.6607100005807978e-04 4.0714181601147377e-03 0.0000000000000000e+00  -2.6643874801312055e-04 4.2171409444294438e-03 0.0000000000000000e+00  -2.6662294983612370e-04 4.3628954871420033e-03 0.0000000000000000e+00  -2.6664140219826343e-04 4.5088095529452182e-03 0.0000000000000000e+00  -2.6652403757385058e-04 4.6547477405571797e-03 0.0000000000000000e+00  -2.6623891103520568e-04 4.8007737422389226e-03 0.0000000000000000e+00  -2.6587782373103952e-04 4.9468405922605940e-03 0.0000000000000000e+00  -2.6535530155881334e-04 5.0929188056052094e-03 0.0000000000000000e+00  -2.6473419456529452e-04 5.2391071949480887e-03 0.0000000000000000e+00  -1.6573054032714371e-04 5.3846336261039116e-03 0.0000000000000000e+00  3.0241365436354853e-05 5.3827049664573676e-03 0.0000000000000000e+00  1.2721330376825053e-04 5.2354763347794145e-03 0.0000000000000000e+00  1.2645850218976834e-04 5.0890098938641158e-03 0.0000000000000000e+00  1.2579740484969313e-04 4.9425328435897149e-03 0.0000000000000000e+00  1.2524864195024646e-04 4.7961443623396379e-03 0.0000000000000000e+00  1.2478995336778648e-04 4.6497978006679623e-03 0.0000000000000000e+00  1.2447156303608178e-04 4.5035267976874767e-03 0.0000000000000000e+00  1.2420056284416874e-04 4.3573382139711139e-03 0.0000000000000000e+00  1.2407920368669785e-04 4.2112126717322061e-03 0.0000000000000000e+00  1.2398795735970862e-04 4.0652687394518907e-03 0.0000000000000000e+00  1.2403622382066760e-04 3.9194249525173527e-03 0.0000000000000000e+00  1.2406662595260519e-04 3.7738410633270658e-03 0.0000000000000000e+00  1.2424893615852614e-04 3.6284609311421885e-03 0.0000000000000000e+00  1.2435101062225419e-04 3.4834549721391717e-03 0.0000000000000000e+00  1.2461551263159566e-04 3.3387963695614632e-03 0.0000000000000000e+00  1.2471518594171235e-04 3.1946483151923874e-03 0.0000000000000000e+00  1.2500780660928048e-04 3.0510269752945332e-03 0.0000000000000000e+00  1.2503847880616670e-04 2.9080950388137117e-03 0.0000000000000000e+00  1.2530082224935032e-04 2.7659125718176515e-03 0.0000000000000000e+00  1.2518176144105439e-04 2.6246474184599138e-03 0.0000000000000000e+00  1.2534356546682962e-04 2.4844017795023843e-03 0.0000000000000000e+00  1.2497004258520797e-04 2.3453441126468459e-03 0.0000000000000000e+00  1.2493954479924141e-04 2.2076339297893233e-03 0.0000000000000000e+00  1.2425250704484918e-04 2.0714629040655733e-03 0.0000000000000000e+00  1.2383654264611202e-04 1.9368390343600290e-03 0.0000000000000000e+00  1.2327677071616983e-04 1.8044339391981752e-03 0.0000000000000000e+00  1.2199705735255861e-04 1.6737174950696512e-03 0.0000000000000000e+00  1.2084901072396415e-04 1.5456554351891722e-03 0.0000000000000000e+00  1.1909280899295856e-04 1.4200482878824979e-03 0.0000000000000000e+00  1.1733684132927281e-04 1.2975185251648325e-03 0.0000000000000000e+00  1.1491364207238044e-04 1.1780552054324667e-03 0.0000000000000000e+00  1.1247071903799669e-04 1.0621183279174002e-03 0.0000000000000000e+00  1.0881895484747787e-04 9.5043804737454912e-04 0.0000000000000000e+00  1.0579070101403178e-04 8.4227841468743415e-04 0.0000000000000000e+00  1.0241002901759607e-04 7.3948269832570539e-04 0.0000000000000000e+00  9.7468461909905042e-05 6.4058364128386511e-04 0.0000000000000000e+00  9.2794595550039588e-05 5.4769774620696393e-04 0.0000000000000000e+00  8.7023912806088674e-05 4.6027526251984647e-04 0.0000000000000000e+00  8.1365843694060881e-05 3.7902921658294908e-04 0.0000000000000000e+00  7.3820066961253147e-05 3.0502401615291455e-04 0.0000000000000000e+00  6.7425114707547930e-05 2.3692793789473868e-04 0.0000000000000000e+00  6.0613655767739288e-05 1.7757494519675870e-04 0.0000000000000000e+00  5.1373255507576838e-05 1.2457354141715715e-04 0.0000000000000000e+00  4.2967760957403017e-05 8.0731355033712400e-05 0.0000000000000000e+00  3.2343007663876456e-05 4.5840007185339639e-05 0.0000000000000000e+00  2.2819070838854805e-05 2.0628719108937256e-05 0.0000000000000000e+00  1.0799119988233875e-05 5.4053666464404710e-06 0.0000000000000000e+00  -2.3011820052547235e-06 1.1015295808678412e-05 0.0000000000000000e+00  -7.1436104861530563e-05 5.1637793347202770e-03 0.0000000000000000e+00  -7.4184455864689618e-05 4.8842190725005181e-03 0.0000000000000000e+00  -7.3284309783704682e-05 4.4278712646156149e-03 0.0000000000000000e+00  -7.7063908653174584e-06 6.1383473086407944e-05 0.0000000000000000e+00  -7.1021847223989474e-05 4.1411341710982930e-03 0.0000000000000000e+00  -1.1911473308156191e-05 1.4530040646913088e-04 0.0000000000000000e+00  -7.0463502565555204e-05 3.8497524758623492e-03 0.0000000000000000e+00  -1.9517357722560774e-05 3.4478031363191920e-04 0.0000000000000000e+00  -2.5852443889853045e-05 5.0444869643587545e-04 0.0000000000000000e+00  -6.9398634805705454e-05 3.5592648872318760e-03 0.0000000000000000e+00  -3.6260526998483591e-05 1.0127257875680207e-03 0.0000000000000000e+00  -6.5800288648763230e-05 2.9830759001348360e-03 0.0000000000000000e+00  -2.8982066265028937e-05 6.8287319357778625e-04 0.0000000000000000e+00  -4.2814970151157245e-05 1.2401049857862284e-03 0.0000000000000000e+00  -6.3306811990711750e-05 2.6988123896774623e-03 0.0000000000000000e+00  -6.7838708981027691e-05 3.2701602072202499e-03 0.0000000000000000e+00  -4.7244873604528795e-05 1.4855381866344054e-03 0.0000000000000000e+00  -6.0376194684384234e-05 2.4183585609929689e-03 0.0000000000000000e+00  -4.8974436763285223e-05 1.7314045839178175e-03 0.0000000000000000e+00  -5.9454485075293813e-05 2.1485711180587400e-03 0.0000000000000000e+00  -5.4093067968135201e-05 1.9296787248895971e-03 0.0000000000000000e+00  -3.4596492004175545e-05 8.3584617124570393e-04 0.0000000000000000e+00  -7.0362877239469449e-05 4.6650243319632080e-03 0.0000000000000000e+00  -1.6592696936799815e-05 2.3322311247359677e-04 0.0000000000000000e+00  -4.1001339898770673e-06 5.0222762479348090e-03 0.0000000000000000e+00  6.8657406419709154e-06 3.0061793262336934e-05 0.0000000000000000e+00  -1.4123193982181174e-05 3.9944553755157947e-03 0.0000000000000000e+00  -1.4304456244782631e-05 4.2862230159535115e-03 0.0000000000000000e+00  -3.0488887888896551e-05 1.0353075342791391e-04 0.0000000000000000e+00  -5.4624528787461508e-05 4.2195530109003784e-04 0.0000000000000000e+00  -1.1098473623185131e-05 3.1252239760622739e-03 0.0000000000000000e+00  -1.3506776630941925e-05 3.7033940958763334e-03 0.0000000000000000e+00  -8.5381592331301522e-05 1.1240202313119009e-03 0.0000000000000000e+00  -9.4046690522821381e-06 2.8393939448920005e-03 0.0000000000000000e+00  -6.4146841697734614e-05 5.9689246330415515e-04 0.0000000000000000e+00  -9.2501440277174718e-05 1.3630240146802486e-03 0.0000000000000000e+00  -7.4568639710611189e-06 2.5568672755513864e-03 0.0000000000000000e+00  -1.2482484033153019e-05 3.4134619332743771e-03 0.0000000000000000e+00  -1.0984470704218733e-04 1.6130993159144508e-03 0.0000000000000000e+00  -5.3028264288986588e-06 2.2787225668775891e-03 0.0000000000000000e+00  -2.6943466378317062e-06 3.5750838234884540e-06 0.0000000000000000e+00  1.5295302116789993e-06 1.0849094801415128e-06 0.0000000000000000e+00  -1.1592557316220303e-04 5.2793111436690776e-03 0.0000000000000000e+00  -1.8210858266462637e-05 3.4253856912922800e-05 0.0000000000000000e+00  8.9856766890283246e-06 2.0361638386391643e-03 0.0000000