<?xml version="1.0"?>
<VTKFile type="UnstructuredGrid"  version="0.1"  >
<UnstructuredGrid>
<Piece  NumberOfPoints="1419" NumberOfCells="2698">
<Points>
<DataArray  type="Float64"  NumberOfComponents="3"  format="ascii">0 0 0  0 0.41 0  2.5 0 0  2.5 0.41 0  0.6 0.19 0  0.6 0.21 0  0.25 0.2 0  0.15 0.2 0  0.2489897948556636 0.21 0  0.2489897948556636 0.19 0  0.6 0.2 0  0 0.3807142857143437 0  0 0.3514285714286952 0  0 0.3221428571430699 0  0 0.29285714285744 0  0 0.2635714285718054 0  0 0.2342857142861561 0  0 0.2050000000005308 0  0 0.175714285714732 0  0 0.1464285714289574 0  0 0.1171428571431897 0  0 0.08785714285737878 0  0 0.05857142857161107 0  0 0.02928571428580012 0  0.03015443760436003 0 0  0.06140001986583606 0 0  0.09377624077125973 0 0  0.1273239957535082 0 0  0.1620856860351972 0 0  0.1981052433264291 0 0  0.235428184091502 0 0  0.2741016576309132 0 0  0.3141745521465447 0 0  0.3556974926295285 0 0  0.3987229542472677 0 0  0.4433053055141081 0 0  0.4895008759286886 0 0  0.5373680609405097 0 0  0.5869673343216626 0 0  0.6383613676634521 0 0  0.6916151138468254 0 0  0.7467958595648856 0 0  0.8039733463919316 0 0  0.8632198139502143 0 0  0.9246101326867038 0 0  0.9882218810934433 0 0  1.054135445558498 0 0  1.122434100542598 0 0  1.193204177141305 0 0  1.266535089879536 0 0  1.342519516046404 0 0  1.421253448503939 0 0  1.502836389106271 0 0  1.587371439758838 0 0  1.674965418777374 0 0  1.765729001825544 0 0  1.859776908880082 0 0  1.957227977487062 0 0  2.058205329869943 0 0  2.162836591189951 0 0  2.271253957290865 0 0  2.383594446803425 0 0  2.5 0.1024999999997612 0  2.5 0.2049999999994743 0  2.5 0.3074999999997183 0  2.383594446803656 0.41 0  2.271253957291315 0.41 0  2.162836591190598 0.41 0  2.058205329870775 0.41 0  1.957227977488067 0.41 0  1.859776908881246 0.41 0  1.765729001826854 0.41 0  1.674965418778818 0.41 0  1.58737143976041 0.41 0  1.502836389107956 0.41 0  1.421253448505726 0.41 0  1.342519516048286 0.41 0  1.266535089881505 0.41 0  1.193204177143353 0.41 0  1.122434100544716 0.41 0  1.05413544556068 0.41 0  0.9882218810956305 0.41 0  0.9246101326886647 0.41 0  0.8632198139519631 0.41 0  0.8039733463934788 0.41 0  0.7467958595662458 0.41 0  0.6916151138480078 0.41 0  0.6383613676644679 0.41 0  0.5869673343225223 0.41 0  0.5373680609412221 0.41 0  0.4895008759292634 0.41 0  0.4433053055145528 0.41 0  0.3987229542475914 0.41 0  0.3556974926297398 0.41 0  0.3141745521466497 0.41 0  0.2741016576310038 0.41 0  0.2354281840915826 0.41 0  0.1981052433265003 0.41 0  0.1620856860352591 0.41 0  0.1273239957535623 0.41 0  0.09377624077128965 0.41 0  0.06140001986584975 0.41 0  0.03015443760436654 0.41 0  0.2497468076502589 0.2050254481002335 0  0.2497468076502614 0.1949745518997913 0  0.2469965252529372 0.1829317073451959 0  0.2439893735792749 0.1762316384219906 0  0.2400332147834255 0.1700443375285386 0  0.2352133972704371 0.1645032867342007 0  0.2296339016332438 0.1597280261969788 0  0.2234150974217223 0.1558215752574715 0  0.2166911463437691 0.1528682099456123 0  0.2096071079204251 0.1509316448471593 0  0.2023158100364996 0.1500536585536553 0  0.194974551899914 0.1502531923497262 0  0.1877417105387872 0.1515259415822739 0  0.1807733240461124 0.153844448527136 0  0.1742197252835808 0.15715869474974 0  0.1682222986673531 0.1613971801805478 0  0.162910430003803 0.1664684656256651 0  0.1583987151779087 0.1722631454351573 0  0.1547844879126891 0.178656207771761 0  0.1521457199348551 0.1855097315605723 0  0.1505393388476355 0.1926758619366523 0  0.1505393388476328 0.2073241380633295 0  0.1521457199348437 0.2144902684393899 0  0.1547844879126531 0.221343792228163 0  0.1583987151778488 0.2277368545647528 0  0.1629104300036858 0.2335315343742052 0  0.1682222986671726 0.2386028198193036 0  0.1742197252833576 0.2428413052501257 0  0.1807733240458683 0.2461555514727623 0  0.1877417105384929 0.2484740584176516 0  0.1949745518995776 0.2497468076502398 0  0.202315810036185 0.2499463414463592 0  0.2096071079201568 0.2490683551528932 0  0.2166911463435495 0.2471317900544655 0  0.2234150974215506 0.2441784247426195 0  0.2296339016331197 0.2402719738031125 0  0.2352133972703547 0.2354967132658811 0  0.2400332147833751 0.2299556624715287 0  0.2439893735792577 0.2237683615780412 0  0.246996525252926 0.2170682926548348 0  0.25645809709277 0.21 0  0.2639263993298655 0.21 0  0.271394701566961 0.21 0  0.2788630038040554 0.21 0  0.2863313060411479 0.21 0  0.2937996082782405 0.21 0  0.301267910515333 0.21 0  0.3087362127524279 0.21 0  0.3162045149895234 0.21 0  0.3236728172265972 0.21 0  0.3311411194636928 0.21 0  0.3386094217007701 0.21 0  0.3460777239378666 0.21 0  0.3535460261749672 0.21 0  0.3610143284120516 0.21 0  0.3684826306491596 0.21 0  0.3759509328862226 0.21 0  0.383419235123329 0.21 0  0.3908875373604028 0.21 0  0.3983558395975142 0.21 0  0.4058241418345938 0.21 0  0.4132924440716992 0.21 0  0.4207607463087888 0.21 0  0.4282290485459029 0.21 0  0.4356973507830418 0.21 0  0.4431656530201649 0.21 0  0.4506339552573136 0.21 0  0.4581022574944306 0.21 0  0.4655705597315852 0.21 0  0.4730388619686996 0.21 0  0.480507164205851 0.21 0  0.4879754664429498 0.21 0  0.4954437686800938 0.21 0  0.502912070917267 0.21 0  0.5103803731544119 0.21 0  0.5178486753915261 0.21 0  0.5253169776286404 0.21 0  0.5327852798657868 0.21 0  0.5402535821029386 0.21 0  0.54772188434007 0.21 0  0.5551901865771842 0.21 0  0.5626584888143201 0.21 0  0.5701267910514778 0.21 0  0.5775950932886138 0.21 0  0.5850633955257281 0.21 0  0.5925316977628483 0.21 0  0.6 0.2050000000000054 0  0.6 0.1950000000000217 0  0.5925316977628897 0.19 0  0.5850633955257988 0.19 0  0.5775950932887378 0.19 0  0.5701267910515998 0.19 0  0.5626584888145268 0.19 0  0.5551901865773963 0.19 0  0.547721884340339 0.19 0  0.5402535821032429 0.19 0  0.5327852798661811 0.19 0  0.5253169776290537 0.19 0  0.5178486753919799 0.19 0  0.5103803731549078 0.19 0  0.502912070917822 0.19 0  0.4954437686807294 0.19 0  0.4879754664436223 0.19 0  0.4805071642065402 0.19 0  0.4730388619694271 0.19 0  0.4655705597323621 0.19 0  0.4581022574952563 0.19 0  0.4506339552581777 0.19 0  0.4431656530210671 0.19 0  0.4356973507839815 0.19 0  0.4282290485468779 0.19 0  0.4207607463097617 0.19 0  0.4132924440726327 0.19 0  0.4058241418354857 0.19 0  0.3983558395983636 0.19 0  0.3908875373612097 0.19 0  0.3834192351240934 0.19 0  0.3759509328869369 0.19 0  0.3684826306498175 0.19 0  0.361014328412667 0.19 0  0.3535460261755617 0.19 0  0.3460777239384295 0.19 0  0.3386094217012945 0.19 0  0.3311411194641595 0.19 0  0.3236728172270245 0.19 0  0.3162045149898895 0.19 0  0.3087362127527544 0.19 0  0.3012679105156187 0.19 0  0.2937996082784807 0.19 0  0.2863313060413428 0.19 0  0.2788630038042048 0.19 0  0.2713947015670686 0.19 0  0.2639263993299336 0.19 0  0.2564580970927985 0.19 0  0.2607803159922026 0.2000727136295815 0  0.5887803774232762 0.2001272386983733 0  0.5745072403740523 0.2002044435018727 0  0.5511891430099709 0.2001122610077113 0  0.2751288526855082 0.20000000000002 0  0.5365194309847112 0.1999999999999436 0  0.2894621222999649 0.1998691686390484 0  0.5215828265105155 0.1999999999999228 0  0.3127789816668748 0.1998657885438805 0  0.3274069683451451 0.2000000000000796 0  0.5066462220363641 0.199999999999908 0  0.3650630746574081 0.199866017807523 0  0.476773013087985 0.1999999999998713 0  0.3417402379596385 0.1998691686391011 0  0.3796850840047755 0.200000000000134 0  0.4618364086138087 0.1999999999998546 0  0.4917096175621762 0.1999999999998808 0  0.3946216884789568 0.2000000000001512 0  0.446899804139621 0.1999999999998389 0  0.4089549580935208 0.1998691686391595 0  0.4322718174608562 0.200127451265745 0  0.4201487168029707 0.1999966199048527 0  0.3528922713220932 0.2000185703532356 0  0.5633122436674589 0.1999814296467508 0  0.3006558810093873 0.1999966199048318 0  0.5815926498168407 0.1966545283159175 0  0.2677053789419034 0.1964246479135325 0  0.5290511287476175 0.1970915826863981 0  0.5439877332217911 0.197091582686394 0  0.2825131256993216 0.2035478995978015 0  0.3199386661080599 0.202908417313604 0  0.4842413153250809 0.1970915826863873 0  0.5141145242734466 0.1970915826863843 0  0.3722167817676917 0.2029084173136195 0  0.4693047108508938 0.1970915826863783 0  0.3348752705822316 0.202908417313609 0  0.3871533862418661 0.2029084173136212 0  0.4543681063767183 0.1970915826863795 0  0.4991779197992749 0.1970915826863902 0  0.4020059614928624 0.203547899597858 0  0.4394315019025246 0.1970915826863714 0  0.2550657455369551 0.2034088125358657 0  0.2548908499171161 0.1966940311614271 0  0.5946539510196798 0.2024302972968126 0  0.267698176732111 0.2039977513680092 0  0.4261685417851465 0.196409292431739 0  0.3590076176283495 0.196411355804271 0  0.5571672426447437 0.2036011176410121 0  0.3066757059912147 0.1964092924317024 0  0.594380730180568 0.1966558399668133 0  0.4842413153245942 0.2040749161535287 0  0.4693047108503577 0.2040749161535231 0  0.3871533862424271 0.1959250838464788 0  0.372246743208829 0.1959123236376545 0  0.5141145242731028 0.2040749161535395 0  0.4543681063761134 0.2040749161535186 0  0.4019979587101454 0.1959834479682427 0  0.4394608940728603 0.2040870543693135 0  0.5439623148931173 0.2040856076781014 0  0.5290511287473298 0.2040749161535501 0  0.4991779197988497 0.2040749161535382 0  0.3347912413592433 0.1959225448935183 0  0.3199680582793816 0.1959123018030061 0  0.2825051229162361 0.1959834479681729 0  0.3590471196690275 0.2036304442587945 0  0.5571594006495384 0.1963685282145804 0  0.3067669986803285 0.203627750582736 0  0.4262598344738712 0.2036568242185335 0  0.5814408164431408 0.2041285596160068 0  0.5688286748170428 0.1961819304477386 0  0.4145905603063645 0.2038180695522843 0  0.3473758401724931 0.2038180695522752 0  0.2950977245128307 0.2038180695522663 0  0.5688286748170693 0.203818069552238 0  0.2950977245127906 0.1961819304477774 0  0.3473758401723931 0.1961819304478349 0  0.4145905603061963 0.1961819304479011 0  0.2601812407614425 0.2056861609747042
[...]
<PointData  Vectors="f_40-0"> 
<DataArray  type="Float64"  Name="f_40-0"  NumberOfComponents="3" format="ascii">0.0000000000000000e+00 0.0000000000000000e+00 0.0000000000000000e+00  0.0000000000000000e+00 0.0000000000000000e+00 0.0000000000000000e+00  0.0000000000000000e+00 0.0000000000000000e+00 0.0000000000000000e+00  0.0000000000000000e+00 0.0000000000000000e+00 0.0000000000000000e+00  1.6094406055107552e-04 4.7074952654099587e-03 0.0000000000000000e+00  -1.8224442694689499e-04 4.7118349705225137e-03 0.0000000000000000e+00  0.0000000000000000e+00 0.0000000000000000e+00 0.0000000000000000e+00  0.0000000000000000e+00 0.0000000000000000e+00 0.0000000000000000e+00  0.0000000000000000e+00 0.0000000000000000e+00 0.0000000000000000e+00  0.0000000000000000e+00 0.0000000000000000e+00 0.0000000000000000e+00  -1.0146368053278150e-05 4.7096373768016498e-03 0.0000000000000000e+00  6.7940301976300466e-01 0.0000000000000000e+00 0.0000000000000000e+00  1.2542824980240921e+00 0.0000000000000000e+00 0.0000000000000000e+00  1.7246384347831265e+00 0.0000000000000000e+00 0.0000000000000000e+00  2.0904708300406538e+00 0.0000000000000000e+00 0.0000000000000000e+00  2.3517796837966252e+00 0.0000000000000000e+00 0.0000000000000000e+00  2.5085649960510255e+00 0.0000000000000000e+00 0.0000000000000000e+00  2.5608267668036984e+00 0.0000000000000000e+00 0.0000000000000000e+00  2.5085649960541954e+00 0.0000000000000000e+00 0.0000000000000000e+00  2.3517796838020697e+00 0.0000000000000000e+00 0.0000000000000000e+00  2.0904708300473969e+00 0.0000000000000000e+00 0.0000000000000000e+00  1.7246384347895327e+00 0.0000000000000000e+00 0.0000000000000000e+00  1.2542824980295582e+00 0.0000000000000000e+00 0.0000000000000000e+00  6.7940301976608475e-01 0.0000000000000000e+00 0.0000000000000000e+00  0.0000000000000000e+00 0.0000000000000000e+00 0.0000000000000000e+00  0.0000000000000000e+00 0.0000000000000000e+00 0.0000000000000000e+00  0.0000000000000000e+00 0.0000000000000000e+00 0.0000000000000000e+00  0.0000000000000000e+00 0.0000000000000000e+00 0.0000000000000000e+00  0.0000000000000000e+00 0.0000000000000000e+00 0.0000000000000000e+00  0.0000000000000000e+00 0.0000000000000000e+00 0.0000000000000000e+00  0.0000000000000000e+00 0.0000000000000000e+00 0.0000000000000000e+00  0.0000000000000000e+00 0.0000000000000000e+00 0.0000000000000000e+00  0.0000000000000000e+00 0.0000000000000000e+00 0.0000000000000000e+00  0.0000000000000000e+00 0.0000000000000000e+00 0.0000000000000000e+00  0.0000000000000000e+00 0.0000000000000000e+00 0.0000000000000000e+00  0.0000000000000000e+00 0.0000000000000000e+00 0.0000000000000000e+00  0.0000000000000000e+00 0.0000000000000000e+00 0.0000000000000000e+00  0.0000000000000000e+00 0.0000000000000000e+00 0.0000000000000000e+00  0.0000000000000000e+00 0.0000000000000000e+00 0.0000000000000000e+00  0.0000000000000000e+00 0.0000000000000000e+00 0.0000000000000000e+00  0.0000000000000000e+00 0.0000000000000000e+00 0.0000000000000000e+00  0.0000000000000000e+00 0.0000000000000000e+00 0.0000000000000000e+00  0.0000000000000000e+00 0.0000000000000000e+00 0.0000000000000000e+00  0.0000000000000000e+00 0.0000000000000000e+00 0.0000000000000000e+00  0.0000000000000000e+00 0.0000000000000000e+00 0.0000000000000000e+00  0.0000000000000000e+00 0.0000000000000000e+00 0.0000000000000000e+00  0.0000000000000000e+00 0.0000000000000000e+00 0.0000000000000000e+00  0.0000000000000000e+00 0.0000000000000000e+00 0.0000000000000000e+00  0.0000000000000000e+00 0.0000000000000000e+00 0.0000000000000000e+00  0.0000000000000000e+00 0.0000000000000000e+00 0.0000000000000000e+00  0.0000000000000000e+00 0.0000000000000000e+00 0.0000000000000000e+00  0.0000000000000000e+00 0.0000000000000000e+00 0.0000000000000000e+00  0.0000000000000000e+00 0.0000000000000000e+00 0.0000000000000000e+00  0.0000000000000000e+00 0.0000000000000000e+00 0.0000000000000000e+00  0.0000000000000000e+00 0.0000000000000000e+00 0.0000000000000000e+00  0.0000000000000000e+00 0.0000000000000000e+00 0.0000000000000000e+00  0.0000000000000000e+00 0.0000000000000000e+00 0.0000000000000000e+00  0.0000000000000000e+00 0.0000000000000000e+00 0.0000000000000000e+00  0.0000000000000000e+00 0.0000000000000000e+00 0.0000000000000000e+00  0.0000000000000000e+00 0.0000000000000000e+00 0.0000000000000000e+00  0.0000000000000000e+00 0.0000000000000000e+00 0.0000000000000000e+00  0.0000000000000000e+00 0.0000000000000000e+00 0.0000000000000000e+00  2.3040413361249690e+00 -2.1347866910223671e-02 0.0000000000000000e+00  2.0284445332134240e+00 1.5322673973545550e-02 0.0000000000000000e+00  2.2740900829157700e+00 7.5629180974283172e-02 0.0000000000000000e+00  0.0000000000000000e+00 0.0000000000000000e+00 0.0000000000000000e+00  0.0000000000000000e+00 0.0000000000000000e+00 0.0000000000000000e+00  0.0000000000000000e+00 0.0000000000000000e+00 0.0000000000000000e+00  0.0000000000000000e+00 0.0000000000000000e+00 0.0000000000000000e+00  0.0000000000000000e+00 0.0000000000000000e+00 0.0000000000000000e+00  0.0000000000000000e+00 0.0000000000000000e+00 0.0000000000000000e+00  0.0000000000000000e+00 0.0000000000000000e+00 0.0000000000000000e+00  0.0000000000000000e+00 0.0000000000000000e+00 0.0000000000000000e+00  0.0000000000000000e+00 0.0000000000000000e+00 0.0000000000000000e+00  0.0000000000000000e+00 0.0000000000000000e+00 0.0000000000000000e+00  0.0000000000000000e+00 0.0000000000000000e+00 0.0000000000000000e+00  0.0000000000000000e+00 0.0000000000000000e+00 0.0000000000000000e+00  0.0000000000000000e+00 0.0000000000000000e+00 0.0000000000000000e+00  0.0000000000000000e+00 0.0000000000000000e+00 0.0000000000000000e+00  0.0000000000000000e+00 0.0000000000000000e+00 0.0000000000000000e+00  0.0000000000000000e+00 0.0000000000000000e+00 0.0000000000000000e+00  0.0000000000000000e+00 0.0000000000000000e+00 0.0000000000000000e+00  0.0000000000000000e+00 0.0000000000000000e+00 0.0000000000000000e+00  0.0000000000000000e+00 0.0000000000000000e+00 0.0000000000000000e+00  0.0000000000000000e+00 0.0000000000000000e+00 0.0000000000000000e+00  0.0000000000000000e+00 0.0000000000000000e+00 0.0000000000000000e+00  0.0000000000000000e+00 0.0000000000000000e+00 0.0000000000000000e+00  0.0000000000000000e+00 0.0000000000000000e+00 0.0000000000000000e+00  0.0000000000000000e+00 0.0000000000000000e+00 0.0000000000000000e+00  0.0000000000000000e+00 0.0000000000000000e+00 0.0000000000000000e+00  0.0000000000000000e+00 0.0000000000000000e+00 0.0000000000000000e+00  0.0000000000000000e+00 0.0000000000000000e+00 0.0000000000000000e+00  0.0000000000000000e+00 0.0000000000000000e+00 0.0000000000000000e+00  0.0000000000000000e+00 0.0000000000000000e+00 0.0000000000000000e+00  0.0000000000000000e+00 0.0000000000000000e+00 0.0000000000000000e+00  0.0000000000000000e+00 0.0000000000000000e+00 0.0000000000000000e+00  0.0000000000000000e+00 0.0000000000000000e+00 0.0000000000000000e+00  0.0000000000000000e+00 0.0000000000000000e+00 0.0000000000000000e+00  0.0000000000000000e+00 0.0000000000000000e+00 0.0000000000000000e+00  0.0000000000000000e+00 0.0000000000000000e+00 0.0000000000000000e+00  0.0000000000000000e+00 0.0000000000000000e+00 0.0000000000000000e+00  0.0000000000000000e+00 0.0000000000000000e+00 0.0000000000000000e+00  0.0000000000000000e+00 0.0000000000000000e+00 0.0000000000000000e+00  0.0000000000000000e+00 0.0000000000000000e+00 0.0000000000000000e+00  0.0000000000000000e+00 0.0000000000000000e+00 0.0000000000000000e+00  0.0000000000000000e+00 0.0000000000000000e+00 0.0000000000000000e+00  0.0000000000000000e+00 0.0000000000000000e+00 0.0000000000000000e+00  0.0000000000000000e+00 0.0000000000000000e+00 0.0000000000000000e+00  0.0000000000000000e+00 0.0000000000000000e+00 0.0000000000000000e+00  0.0000000000000000e+00 0.0000000000000000e+00 0.0000000000000000e+00  0.0000000000000000e+00 0.0000000000000000e+00 0.0000000000000000e+00  0.0000000000000000e+00 0.0000000000000000e+00 0.0000000000000000e+00  0.0000000000000000e+00 0.0000000000000000e+00 0.0000000000000000e+00  0.0000000000000000e+00 0.0000000000000000e+00 0.0000000000000000e+00  0.0000000000000000e+00 0.0000000000000000e+00 0.0000000000000000e+00  0.0000000000000000e+00 0.0000000000000000e+00 0.0000000000000000e+00  0.0000000000000000e+00 0.0000000000000000e+00 0.0000000000000000e+00  0.0000000000000000e+00 0.0000000000000000e+00 0.0000000000000000e+00  0.0000000000000000e+00 0.0000000000000000e+00 0.0000000000000000e+00  0.0000000000000000e+00 0.0000000000000000e+00 0.0000000000000000e+00  0.0000000000000000e+00 0.0000000000000000e+00 0.0000000000000000e+00  0.0000000000000000e+00 0.0000000000000000e+00 0.0000000000000000e+00  0.0000000000000000e+00 0.0000000000000000e+00 0.0000000000000000e+00  0.0000000000000000e+00 0.0000000000000000e+00 0.0000000000000000e+00  0.0000000000000000e+00 0.0000000000000000e+00 0.0000000000000000e+00  0.0000000000000000e+00 0.0000000000000000e+00 0.0000000000000000e+00  0.0000000000000000e+00 0.0000000000000000e+00 0.0000000000000000e+00  0.0000000000000000e+00 0.0000000000000000e+00 0.0000000000000000e+00  0.0000000000000000e+00 0.0000000000000000e+00 0.0000000000000000e+00  0.0000000000000000e+00 0.0000000000000000e+00 0.0000000000000000e+00  0.0000000000000000e+00 0.0000000000000000e+00 0.0000000000000000e+00  0.0000000000000000e+00 0.0000000000000000e+00 0.0000000000000000e+00  0.0000000000000000e+00 0.0000000000000000e+00 0.0000000000000000e+00  0.0000000000000000e+00 0.0000000000000000e+00 0.0000000000000000e+00  0.0000000000000000e+00 0.0000000000000000e+00 0.0000000000000000e+00  0.0000000000000000e+00 0.0000000000000000e+00 0.0000000000000000e+00  0.0000000000000000e+00 0.0000000000000000e+00 0.0000000000000000e+00  0.0000000000000000e+00 0.0000000000000000e+00 0.0000000000000000e+00  0.0000000000000000e+00 0.0000000000000000e+00 0.0000000000000000e+00  0.0000000000000000e+00 0.0000000000000000e+00 0.0000000000000000e+00  0.0000000000000000e+00 0.0000000000000000e+00 0.0000000000000000e+00  0.0000000000000000e+00 0.0000000000000000e+00 0.0000000000000000e+00  0.0000000000000000e+00 0.0000000000000000e+00 0.0000000000000000e+00  -1.0751957328878262e-05 1.3323379842882526e-05 0.0000000000000000e+00  -2.3016870276642263e-05 2.6801832550970415e-05 0.0000000000000000e+00  -3.3915746057899558e-05 4.8361165318078508e-05 0.0000000000000000e+00  -4.5744075488061739e-05 7.8516432672716332e-05 0.0000000000000000e+00  -5.5574838163873492e-05 1.1589289736380929e-04 0.0000000000000000e+00  -6.6639139400789682e-05 1.6115225635887254e-04 0.0000000000000000e+00  -7.5460117562554986e-05 2.1217529344855535e-04 0.0000000000000000e+00  -8.3937892671877558e-05 2.7071547082047884e-04 0.0000000000000000e+00  -9.3589177821592793e-05 3.3488396626447638e-04 0.0000000000000000e+00  -1.0086211212162131e-04 4.0485872076208675e-04 0.0000000000000000e+00  -1.0962706948850225e-04 4.8048073692243451e-04 0.0000000000000000e+00  -1.1612884039323150e-04 5.6120477229320903e-04 0.0000000000000000e+00  -1.2367488559260963e-04 6.4680272757076517e-04 0.0000000000000000e+00  -1.2958570132145925e-04 7.3628116204994994e-04 0.0000000000000000e+00  -1.3519032574682514e-04 8.3046741852883430e-04 0.0000000000000000e+00  -1.4139807930540495e-04 9.2812148987363684e-04 0.0000000000000000e+00  -1.4602798252208988e-04 1.0292566918871711e-03 0.0000000000000000e+00  -1.5138570687731233e-04 1.1337288860223725e-03 0.0000000000000000e+00  -1.5530546966071939e-04 1.2410404194999590e-03 0.0000000000000000e+00  -1.5973986322857656e-04 1.3509965930707164e-03 0.0000000000000000e+00  -1.6316808639811731e-04 1.4633554996449584e-03 0.0000000000000000e+00  -1.6676701489241820e-04 1.5779851856166616e-03 0.0000000000000000e+00  -1.6957472188996263e-04 1.6942009130099999e-03 0.0000000000000000e+00  -1.7212693775489667e-04 1.8124018793163870e-03 0.0000000000000000e+00  -1.7478703207106375e-04 1.9318948856086376e-03 0.0000000000000000e+00  -1.7687874187467237e-04 2.0528179953747464e-03 0.0000000000000000e+00  -1.7884035334493170e-04 2.1749707371708153e-03 0.0000000000000000e+00  -1.8046110427090770e-04 2.2980352147245857e-03 0.0000000000000000e+00  -1.8194426833724993e-04 2.4220796269995306e-03 0.0000000000000000e+00  -1.8314290802842338e-04 2.5467825167418343e-03 0.0000000000000000e+00  -1.8420860209293906e-04 2.6722152502501209e-03 0.0000000000000000e+00  -1.8503499706124698e-04 2.7980962258473238e-03 0.0000000000000000e+00  -1.8573782208782078e-04 2.9245007879995957e-03 0.0000000000000000e+00  -1.8624023535830265e-04 3.0511853047609457e-03 0.0000000000000000e+00  -1.8662010549569136e-04 3.1782412573285001e-03 0.0000000000000000e+00  -1.8683776885408955e-04 3.3054592906907156e-03 0.0000000000000000e+00  -1.8694799428934077e-04 3.4329280322865871e-03 0.0000000000000000e+00  -1.8692158642132249e-04 3.5604778372754537e-03 0.0000000000000000e+00  -1.8679341126162430e-04 3.6882011444751687e-03 0.0000000000000000e+00  -1.8654278362400452e-04 3.8159518101691286e-03 0.0000000000000000e+00  -1.8618708955209077e-04 3.9438115409953008e-03 0.0000000000000000e+00  -1.8573729862540842e-04 4.0716862338167842e-03 0.0000000000000000e+00  -1.8517071266500559e-04 4.1996141450385783e-03 0.0000000000000000e+00  -1.8454926272879521e-04 4.3275591317151032e-03 0.0000000000000000e+00  -1.8380265502034962e-04 4.4554915736486457e-03 0.0000000000000000e+00  -1.8299923473990052e-04 4.5835047988172723e-03 0.0000000000000000e+00  -9.6006019730158549e-05 4.7107302610097813e-03 0.0000000000000000e+00  7.5553258645142630e-05 4.7085570370698172e-03 0.0000000000000000e+00  1.6013328525176201e-04 4.5794981179200769e-03 0.0000000000000000e+00  1.5925839408629556e-04 4.4512705448037596e-03 0.0000000000000000e+00  1.5843860051136788e-04 4.3230256599682149e-03 0.0000000000000000e+00  1.5770765633605792e-04 4.1948498547699879e-03 0.0000000000000000e+00  1.5703316017948906e-04 4.0667052771945931e-03 0.0000000000000000e+00  1.5644914389272610e-04 3.9386176798866098e-03 0.0000000000000000e+00  1.5589455465745628e-04 3.8105924865066143e-03 0.0000000000000000e+00  1.5542699230826926e-04 3.6826201423961254e-03 0.0000000000000000e+00  1.5496751664802885e-04 3.5547764374097329e-03 0.0000000000000000e+00  1.5458430276979706e-04 3.4270193391842695e-03 0.0000000000000000e+00  1.5416403480728461e-04 3.2994427343559958e-03 0.0000000000000000e+00  1.5382188235352824e-04 3.1720333904798575e-03 0.0000000000000000e+00  1.5338230351339872e-04 3.0448856314889347e-03 0.0000000000000000e+00  1.5302662342838157e-04 2.9180254585525656e-03 0.0000000000000000e+00  1.5249404706914438e-04 2.7915419656946712e-03 0.0000000000000000e+00  1.5206614707237605e-04 2.6655045702248283e-03 0.0000000000000000e+00  1.5136727694748306e-04 2.5400029852273753e-03 0.0000000000000000e+00  1.5080561595421269e-04 2.4151529438278391e-03 0.0000000000000000e+00  1.4985970850855425e-04 2.2910454866393870e-03 0.0000000000000000e+00  1.4909857646078494e-04 2.1678396066582054e-03 0.0000000000000000e+00  1.4780965959341997e-04 2.0456334263069995e-03 0.0000000000000000e+00  1.4676556756775056e-04 1.9246355423666846e-03 0.0000000000000000e+00  1.4507403984897720e-04 1.8049784415382502e-03 0.0000000000000000e+00  1.4357767072555470e-04 1.6867078712234612e-03 0.0000000000000000e+00  1.4189266422196054e-04 1.5704244666333547e-03 0.0000000000000000e+00  1.3951875868052451e-04 1.4556521201152775e-03 0.0000000000000000e+00  1.3720636791725906e-04 1.3432890213272595e-03 0.0000000000000000e+00  1.3429772840183236e-04 1.2331324199051652e-03 0.0000000000000000e+00  1.3134535595785274e-04 1.1257820253649064e-03 0.0000000000000000e+00  1.2775038180385049e-04 1.0212025895803398e-03 0.0000000000000000e+00  1.2410480177975662e-04 9.1983075277494639e-04 0.0000000000000000e+00  1.1933728133669912e-04 8.2230045054960249e-04 0.0000000000000000e+00  1.1511443291394198e-04 7.2795865205534278e-04 0.0000000000000000e+00  1.1055382509172106e-04 6.3844227475865064e-04 0.0000000000000000e+00  1.0458590190313849e-04 5.5241773234996391e-04 0.0000000000000000e+00  9.8851609369423051e-05 4.7176279274596553e-04 0.0000000000000000e+00  9.2141860754202138e-05 3.9597351249971127e-04 0.0000000000000000e+00  8.5533457236856595e-05 3.2564499289745511e-04 0.0000000000000000e+00  7.7271534732434966e-05 2.6169513819868274e-04 0.0000000000000000e+00  7.0022825823131085e-05 2.0293433855722036e-04 0.0000000000000000e+00  6.2412214937530540e-05 1.5181087561004259e-04 0.0000000000000000e+00  5.2698215547500045e-05 1.0621481590078341e-04 0.0000000000000000e+00  4.3722874230888398e-05 6.8561746984848891e-05 0.0000000000000000e+00  3.2845361780698594e-05 3.8656239986031851e-05 0.0000000000000000e+00  2.2922245223868113e-05 1.7108966271316564e-05 0.0000000000000000e+00  1.0894748661506608e-05 4.1686480369075937e-06 0.0000000000000000e+00  7.5907318563070390e-07 9.3199872473879086e-06 0.0000000000000000e+00  -1.3838755372201641e-05 4.5171513492267548e-03 0.0000000000000000e+00  -1.6781610386878104e-05 4.2723582719157516e-03 0.0000000000000000e+00  -1.6982167827952657e-05 3.8726428515862888e-03 0.0000000000000000e+00  -6.1295611137176195e-07 5.2329848643250115e-05 0.0000000000000000e+00  -1.5766040926815174e-05 3.6214270990228667e-03 0.0000000000000000e+00  -9.9148762409461607e-07 1.2428465274388190e-04 0.0000000000000000e+00  -1.6200689265760818e-05 3.3660666025834523e-03 0.0000000000000000e+00  -2.4460119009813469e-06 2.9609765948282056e-04 0.0000000000000000e+00  -4.8537989925637146e-06 4.3418919917897727e-04 0.0000000000000000e+00  -1.6358989975047808e-05 3.1113625711279465e-03 0.0000000000000000e+00  -6.4961517136223136e-06 8.7634923347835948e-04 0.0000000000000000e+00  -1.5932613375981672e-05 2.6056489139202493e-03 0.0000000000000000e+00  -4.6582487786762129e-06 5.8900023835672325e-04 0.0000000000000000e+00  -9.5718280228843352e-06 1.0751121301258635e-03 0.0000000000000000e+00  -1.5391718355351473e-05 2.3559228835490133e-03 0.0000000000000000e+00  -1.6262313080587623e-05 2.8577057277697025e-03 0.0000000000000000e+00  -1.0882738505329921e-05 1.2901240391869405e-03 0.0000000000000000e+00  -1.4651200881303813e-05 2.1094480982882767e-03 0.0000000000000000e+00  -1.0071298880604935e-05 1.5058613499361331e-03 0.0000000000000000e+00  -1.5806469176547796e-05 1.8723242370691159e-03 0.0000000000000000e+00  -1.2863993844723109e-05 1.6799947475549803e-03 0.0000000000000000e+00  -7.3623865430894348e-06 7.2211142334523875e-04 0.0000000000000000e+00  -1.3885754373142509e-05 4.0803721771878266e-03 0.0000000000000000e+00  -2.5493775252812766e-06 1.9992031064408280e-04 0.0000000000000000e+00  4.4850007161102588e-05 4.3931172029280019e-03 0.0000000000000000e+00  1.0184214124900736e-05 2.5400911992475734e-05 0.0000000000000000e+00  3.3668851266795630e-05 3.4928544500583475e-03 0.0000000000000000e+00  3.4337989617980763e-05 3.7484820285806513e-03 0.0000000000000000e+00  -1.8515705875777156e-05 8.8569117990592610e-05 0.0000000000000000e+00  -3.1323023719209964e-05 3.6281758165940004e-04 0.0000000000000000e+00  3.2855940616890397e-05 2.7305211820879091e-03 0.0000000000000000e+00  3.3228994399381510e-05 3.2377460740900016e-03 0.0000000000000000e+00  -4.8129099018021273e-05 9.7349988500739458e-04 0.0000000000000000e+00  3.2814747270663074e-05 2.4795129117131144e-03 0.0000000000000000e+00  -3.6577524782648176e-05 5.1433376383614598e-04 0.0000000000000000e+00  -5.1799265060007204e-05 1.1826498928435758e-03 0.0000000000000000e+00  3.2798768917974451e-05 2.2312773944100838e-03 0.0000000000000000e+00  3.2975979359954830e-05 2.9834778363467943e-03 0.0000000000000000e+00  -6.4594184239872150e-05 1.4018850582334665e-03 0.0000000000000000e+00  3.2770072843160167e-05 1.9868266093435887e-03 0.0000000000000000e+00  -9.5164768898448078e-07 3.0871237658644579e-06 0.0000000000000000e+00  2.6205058053474931e-06 8.1792300616606743e-07 0.0000000000000000e+00  -5.2572120061308494e-05 4.6183901611338250e-03 0.0000000000000000e+00  -1.1307712404181186e-05 2.9316804165813358e-05 0.0000000000000000e+00  4.3462629053648796e-05 1.7736964808021723e-03 0.0000000000000000e