<?xml version="1.0"?>
<VTKFile type="UnstructuredGrid"  version="0.1"  >
<UnstructuredGrid>
<Piece  NumberOfPoints="1419" NumberOfCells="2698">
<Points>
<DataArray  type="Float64"  NumberOfComponents="3"  format="ascii">0 0 0  0 0.41 0  2.5 0 0  2.5 0.41 0  0.6 0.19 0  0.6 0.21 0  0.25 0.2 0  0.15 0.2 0  0.2489897948556636 0.21 0  0.2489897948556636 0.19 0  0.6 0.2 0  0 0.3807142857143437 0  0 0.3514285714286952 0  0 0.3221428571430699 0  0 0.29285714285744 0  0 0.2635714285718054 0  0 0.2342857142861561 0  0 0.2050000000005308 0  0 0.175714285714732 0  0 0.1464285714289574 0  0 0.1171428571431897 0  0 0.08785714285737878 0  0 0.05857142857161107 0  0 0.02928571428580012 0  0.03015443760436003 0 0  0.06140001986583606 0 0  0.09377624077125973 0 0  0.1273239957535082 0 0  0.1620856860351972 0 0  0.1981052433264291 0 0  0.235428184091502 0 0  0.2741016576309132 0 0  0.3141745521465447 0 0  0.3556974926295285 0 0  0.3987229542472677 0 0  0.4433053055141081 0 0  0.4895008759286886 0 0  0.5373680609405097 0 0  0.5869673343216626 0 0  0.6383613676634521 0 0  0.6916151138468254 0 0  0.7467958595648856 0 0  0.8039733463919316 0 0  0.8632198139502143 0 0  0.9246101326867038 0 0  0.9882218810934433 0 0  1.054135445558498 0 0  1.122434100542598 0 0  1.193204177141305 0 0  1.266535089879536 0 0  1.342519516046404 0 0  1.421253448503939 0 0  1.502836389106271 0 0  1.587371439758838 0 0  1.674965418777374 0 0  1.765729001825544 0 0  1.859776908880082 0 0  1.957227977487062 0 0  2.058205329869943 0 0  2.162836591189951 0 0  2.271253957290865 0 0  2.383594446803425 0 0  2.5 0.1024999999997612 0  2.5 0.2049999999994743 0  2.5 0.3074999999997183 0  2.383594446803656 0.41 0  2.271253957291315 0.41 0  2.162836591190598 0.41 0  2.058205329870775 0.41 0  1.957227977488067 0.41 0  1.859776908881246 0.41 0  1.765729001826854 0.41 0  1.674965418778818 0.41 0  1.58737143976041 0.41 0  1.502836389107956 0.41 0  1.421253448505726 0.41 0  1.342519516048286 0.41 0  1.266535089881505 0.41 0  1.193204177143353 0.41 0  1.122434100544716 0.41 0  1.05413544556068 0.41 0  0.9882218810956305 0.41 0  0.9246101326886647 0.41 0  0.8632198139519631 0.41 0  0.8039733463934788 0.41 0  0.7467958595662458 0.41 0  0.6916151138480078 0.41 0  0.6383613676644679 0.41 0  0.5869673343225223 0.41 0  0.5373680609412221 0.41 0  0.4895008759292634 0.41 0  0.4433053055145528 0.41 0  0.3987229542475914 0.41 0  0.3556974926297398 0.41 0  0.3141745521466497 0.41 0  0.2741016576310038 0.41 0  0.2354281840915826 0.41 0  0.1981052433265003 0.41 0  0.1620856860352591 0.41 0  0.1273239957535623 0.41 0  0.09377624077128965 0.41 0  0.06140001986584975 0.41 0  0.03015443760436654 0.41 0  0.2497468076502589 0.2050254481002335 0  0.2497468076502614 0.1949745518997913 0  0.2469965252529372 0.1829317073451959 0  0.2439893735792749 0.1762316384219906 0  0.2400332147834255 0.1700443375285386 0  0.2352133972704371 0.1645032867342007 0  0.2296339016332438 0.1597280261969788 0  0.2234150974217223 0.1558215752574715 0  0.2166911463437691 0.1528682099456123 0  0.2096071079204251 0.1509316448471593 0  0.2023158100364996 0.1500536585536553 0  0.194974551899914 0.1502531923497262 0  0.1877417105387872 0.1515259415822739 0  0.1807733240461124 0.153844448527136 0  0.1742197252835808 0.15715869474974 0  0.1682222986673531 0.1613971801805478 0  0.162910430003803 0.1664684656256651 0  0.1583987151779087 0.1722631454351573 0  0.1547844879126891 0.178656207771761 0  0.1521457199348551 0.1855097315605723 0  0.1505393388476355 0.1926758619366523 0  0.1505393388476328 0.2073241380633295 0  0.1521457199348437 0.2144902684393899 0  0.1547844879126531 0.221343792228163 0  0.1583987151778488 0.2277368545647528 0  0.1629104300036858 0.2335315343742052 0  0.1682222986671726 0.2386028198193036 0  0.1742197252833576 0.2428413052501257 0  0.1807733240458683 0.2461555514727623 0  0.1877417105384929 0.2484740584176516 0  0.1949745518995776 0.2497468076502398 0  0.202315810036185 0.2499463414463592 0  0.2096071079201568 0.2490683551528932 0  0.2166911463435495 0.2471317900544655 0  0.2234150974215506 0.2441784247426195 0  0.2296339016331197 0.2402719738031125 0  0.2352133972703547 0.2354967132658811 0  0.2400332147833751 0.2299556624715287 0  0.2439893735792577 0.2237683615780412 0  0.246996525252926 0.2170682926548348 0  0.25645809709277 0.21 0  0.2639263993298655 0.21 0  0.271394701566961 0.21 0  0.2788630038040554 0.21 0  0.2863313060411479 0.21 0  0.2937996082782405 0.21 0  0.301267910515333 0.21 0  0.3087362127524279 0.21 0  0.3162045149895234 0.21 0  0.3236728172265972 0.21 0  0.3311411194636928 0.21 0  0.3386094217007701 0.21 0  0.3460777239378666 0.21 0  0.3535460261749672 0.21 0  0.3610143284120516 0.21 0  0.3684826306491596 0.21 0  0.3759509328862226 0.21 0  0.383419235123329 0.21 0  0.3908875373604028 0.21 0  0.3983558395975142 0.21 0  0.4058241418345938 0.21 0  0.4132924440716992 0.21 0  0.4207607463087888 0.21 0  0.4282290485459029 0.21 0  0.4356973507830418 0.21 0  0.4431656530201649 0.21 0  0.4506339552573136 0.21 0  0.4581022574944306 0.21 0  0.4655705597315852 0.21 0  0.4730388619686996 0.21 0  0.480507164205851 0.21 0  0.4879754664429498 0.21 0  0.4954437686800938 0.21 0  0.502912070917267 0.21 0  0.5103803731544119 0.21 0  0.5178486753915261 0.21 0  0.5253169776286404 0.21 0  0.5327852798657868 0.21 0  0.5402535821029386 0.21 0  0.54772188434007 0.21 0  0.5551901865771842 0.21 0  0.5626584888143201 0.21 0  0.5701267910514778 0.21 0  0.5775950932886138 0.21 0  0.5850633955257281 0.21 0  0.5925316977628483 0.21 0  0.6 0.2050000000000054 0  0.6 0.1950000000000217 0  0.5925316977628897 0.19 0  0.5850633955257988 0.19 0  0.5775950932887378 0.19 0  0.5701267910515998 0.19 0  0.5626584888145268 0.19 0  0.5551901865773963 0.19 0  0.547721884340339 0.19 0  0.5402535821032429 0.19 0  0.5327852798661811 0.19 0  0.5253169776290537 0.19 0  0.5178486753919799 0.19 0  0.5103803731549078 0.19 0  0.502912070917822 0.19 0  0.4954437686807294 0.19 0  0.4879754664436223 0.19 0  0.4805071642065402 0.19 0  0.4730388619694271 0.19 0  0.4655705597323621 0.19 0  0.4581022574952563 0.19 0  0.4506339552581777 0.19 0  0.4431656530210671 0.19 0  0.4356973507839815 0.19 0  0.4282290485468779 0.19 0  0.4207607463097617 0.19 0  0.4132924440726327 0.19 0  0.4058241418354857 0.19 0  0.3983558395983636 0.19 0  0.3908875373612097 0.19 0  0.3834192351240934 0.19 0  0.3759509328869369 0.19 0  0.3684826306498175 0.19 0  0.361014328412667 0.19 0  0.3535460261755617 0.19 0  0.3460777239384295 0.19 0  0.3386094217012945 0.19 0  0.3311411194641595 0.19 0  0.3236728172270245 0.19 0  0.3162045149898895 0.19 0  0.3087362127527544 0.19 0  0.3012679105156187 0.19 0  0.2937996082784807 0.19 0  0.2863313060413428 0.19 0  0.2788630038042048 0.19 0  0.2713947015670686 0.19 0  0.2639263993299336 0.19 0  0.2564580970927985 0.19 0  0.2607803159922026 0.2000727136295815 0  0.5887803774232762 0.2001272386983733 0  0.5745072403740523 0.2002044435018727 0  0.5511891430099709 0.2001122610077113 0  0.2751288526855082 0.20000000000002 0  0.5365194309847112 0.1999999999999436 0  0.2894621222999649 0.1998691686390484 0  0.5215828265105155 0.1999999999999228 0  0.3127789816668748 0.1998657885438805 0  0.3274069683451451 0.2000000000000796 0  0.5066462220363641 0.199999999999908 0  0.3650630746574081 0.199866017807523 0  0.476773013087985 0.1999999999998713 0  0.3417402379596385 0.1998691686391011 0  0.3796850840047755 0.200000000000134 0  0.4618364086138087 0.1999999999998546 0  0.4917096175621762 0.1999999999998808 0  0.3946216884789568 0.2000000000001512 0  0.446899804139621 0.1999999999998389 0  0.4089549580935208 0.1998691686391595 0  0.4322718174608562 0.200127451265745 0  0.4201487168029707 0.1999966199048527 0  0.3528922713220932 0.2000185703532356 0  0.5633122436674589 0.1999814296467508 0  0.3006558810093873 0.1999966199048318 0  0.5815926498168407 0.1966545283159175 0  0.2677053789419034 0.1964246479135325 0  0.5290511287476175 0.1970915826863981 0  0.5439877332217911 0.197091582686394 0  0.2825131256993216 0.2035478995978015 0  0.3199386661080599 0.202908417313604 0  0.4842413153250809 0.1970915826863873 0  0.5141145242734466 0.1970915826863843 0  0.3722167817676917 0.2029084173136195 0  0.4693047108508938 0.1970915826863783 0  0.3348752705822316 0.202908417313609 0  0.3871533862418661 0.2029084173136212 0  0.4543681063767183 0.1970915826863795 0  0.4991779197992749 0.1970915826863902 0  0.4020059614928624 0.203547899597858 0  0.4394315019025246 0.1970915826863714 0  0.2550657455369551 0.2034088125358657 0  0.2548908499171161 0.1966940311614271 0  0.5946539510196798 0.2024302972968126 0  0.267698176732111 0.2039977513680092 0  0.4261685417851465 0.196409292431739 0  0.3590076176283495 0.196411355804271 0  0.5571672426447437 0.2036011176410121 0  0.3066757059912147 0.1964092924317024 0  0.594380730180568 0.1966558399668133 0  0.4842413153245942 0.2040749161535287 0  0.4693047108503577 0.2040749161535231 0  0.3871533862424271 0.1959250838464788 0  0.372246743208829 0.1959123236376545 0  0.5141145242731028 0.2040749161535395 0  0.4543681063761134 0.2040749161535186 0  0.4019979587101454 0.1959834479682427 0  0.4394608940728603 0.2040870543693135 0  0.5439623148931173 0.2040856076781014 0  0.5290511287473298 0.2040749161535501 0  0.4991779197988497 0.2040749161535382 0  0.3347912413592433 0.1959225448935183 0  0.3199680582793816 0.1959123018030061 0  0.2825051229162361 0.1959834479681729 0  0.3590471196690275 0.2036304442587945 0  0.5571594006495384 0.1963685282145804 0  0.3067669986803285 0.203627750582736 0  0.4262598344738712 0.2036568242185335 0  0.5814408164431408 0.2041285596160068 0  0.5688286748170428 0.1961819304477386 0  0.4145905603063645 0.2038180695522843 0  0.3473758401724931 0.2038180695522752 0  0.2950977245128307 0.2038180695522663 0  0.5688286748170693 0.203818069552238 0  0.2950977245127906 0.1961819304477774 0  0.3473758401723931 0.1961819304478349 0  0.4145905603061963 0.1961819304479011 0  0.2601812407614425 0.2056861609747042
[...]
<PointData  Vectors="f_40-0"> 
<DataArray  type="Float64"  Name="f_40-0"  NumberOfComponents="3" format="ascii">0.0000000000000000e+00 0.0000000000000000e+00 0.0000000000000000e+00  0.0000000000000000e+00 0.0000000000000000e+00 0.0000000000000000e+00  0.0000000000000000e+00 0.0000000000000000e+00 0.0000000000000000e+00  0.0000000000000000e+00 0.0000000000000000e+00 0.0000000000000000e+00  1.5256607350946184e-04 3.8328067123975674e-03 0.0000000000000000e+00  -1.3668577104513068e-04 3.8372507240152310e-03 0.0000000000000000e+00  0.0000000000000000e+00 0.0000000000000000e+00 0.0000000000000000e+00  0.0000000000000000e+00 0.0000000000000000e+00 0.0000000000000000e+00  0.0000000000000000e+00 0.0000000000000000e+00 0.0000000000000000e+00  0.0000000000000000e+00 0.0000000000000000e+00 0.0000000000000000e+00  8.3811579576520343e-06 3.8350056886595802e-03 0.0000000000000000e+00  7.3400072673219219e-01 0.0000000000000000e+00 0.0000000000000000e+00  1.3550782647364448e+00 0.0000000000000000e+00 0.0000000000000000e+00  1.8632326140126121e+00 0.0000000000000000e+00 0.0000000000000000e+00  2.2584637745612817e+00 0.0000000000000000e+00 0.0000000000000000e+00  2.5407717463824033e+00 0.0000000000000000e+00 0.0000000000000000e+00  2.7101565294759595e+00 0.0000000000000000e+00 0.0000000000000000e+00  2.7666181238417811e+00 0.0000000000000000e+00 0.0000000000000000e+00  2.7101565294793843e+00 0.0000000000000000e+00 0.0000000000000000e+00  2.5407717463882853e+00 0.0000000000000000e+00 0.0000000000000000e+00  2.2584637745685665e+00 0.0000000000000000e+00 0.0000000000000000e+00  1.8632326140195323e+00 0.0000000000000000e+00 0.0000000000000000e+00  1.3550782647423503e+00 0.0000000000000000e+00 0.0000000000000000e+00  7.3400072673551964e-01 0.0000000000000000e+00 0.0000000000000000e+00  0.0000000000000000e+00 0.0000000000000000e+00 0.0000000000000000e+00  0.0000000000000000e+00 0.0000000000000000e+00 0.0000000000000000e+00  0.0000000000000000e+00 0.0000000000000000e+00 0.0000000000000000e+00  0.0000000000000000e+00 0.0000000000000000e+00 0.0000000000000000e+00  0.0000000000000000e+00 0.0000000000000000e+00 0.0000000000000000e+00  0.0000000000000000e+00 0.0000000000000000e+00 0.0000000000000000e+00  0.0000000000000000e+00 0.0000000000000000e+00 0.0000000000000000e+00  0.0000000000000000e+00 0.0000000000000000e+00 0.0000000000000000e+00  0.0000000000000000e+00 0.0000000000000000e+00 0.0000000000000000e+00  0.0000000000000000e+00 0.0000000000000000e+00 0.0000000000000000e+00  0.0000000000000000e+00 0.0000000000000000e+00 0.0000000000000000e+00  0.0000000000000000e+00 0.0000000000000000e+00 0.0000000000000000e+00  0.0000000000000000e+00 0.0000000000000000e+00 0.0000000000000000e+00  0.0000000000000000e+00 0.0000000000000000e+00 0.0000000000000000e+00  0.0000000000000000e+00 0.0000000000000000e+00 0.0000000000000000e+00  0.0000000000000000e+00 0.0000000000000000e+00 0.0000000000000000e+00  0.0000000000000000e+00 0.0000000000000000e+00 0.0000000000000000e+00  0.0000000000000000e+00 0.0000000000000000e+00 0.0000000000000000e+00  0.0000000000000000e+00 0.0000000000000000e+00 0.0000000000000000e+00  0.0000000000000000e+00 0.0000000000000000e+00 0.0000000000000000e+00  0.0000000000000000e+00 0.0000000000000000e+00 0.0000000000000000e+00  0.0000000000000000e+00 0.0000000000000000e+00 0.0000000000000000e+00  0.0000000000000000e+00 0.0000000000000000e+00 0.0000000000000000e+00  0.0000000000000000e+00 0.0000000000000000e+00 0.0000000000000000e+00  0.0000000000000000e+00 0.0000000000000000e+00 0.0000000000000000e+00  0.0000000000000000e+00 0.0000000000000000e+00 0.0000000000000000e+00  0.0000000000000000e+00 0.0000000000000000e+00 0.0000000000000000e+00  0.0000000000000000e+00 0.0000000000000000e+00 0.0000000000000000e+00  0.0000000000000000e+00 0.0000000000000000e+00 0.0000000000000000e+00  0.0000000000000000e+00 0.0000000000000000e+00 0.0000000000000000e+00  0.0000000000000000e+00 0.0000000000000000e+00 0.0000000000000000e+00  0.0000000000000000e+00 0.0000000000000000e+00 0.0000000000000000e+00  0.0000000000000000e+00 0.0000000000000000e+00 0.0000000000000000e+00  0.0000000000000000e+00 0.0000000000000000e+00 0.0000000000000000e+00  0.0000000000000000e+00 0.0000000000000000e+00 0.0000000000000000e+00  0.0000000000000000e+00 0.0000000000000000e+00 0.0000000000000000e+00  0.0000000000000000e+00 0.0000000000000000e+00 0.0000000000000000e+00  0.0000000000000000e+00 0.0000000000000000e+00 0.0000000000000000e+00  2.4712679232648616e+00 -1.6394826721539031e-02 0.0000000000000000e+00  2.2585714661775720e+00 1.2889224218781343e-02 0.0000000000000000e+00  2.4406324822174232e+00 7.3284439420282607e-02 0.0000000000000000e+00  0.0000000000000000e+00 0.0000000000000000e+00 0.0000000000000000e+00  0.0000000000000000e+00 0.0000000000000000e+00 0.0000000000000000e+00  0.0000000000000000e+00 0.0000000000000000e+00 0.0000000000000000e+00  0.0000000000000000e+00 0.0000000000000000e+00 0.0000000000000000e+00  0.0000000000000000e+00 0.0000000000000000e+00 0.0000000000000000e+00  0.0000000000000000e+00 0.0000000000000000e+00 0.0000000000000000e+00  0.0000000000000000e+00 0.0000000000000000e+00 0.0000000000000000e+00  0.0000000000000000e+00 0.0000000000000000e+00 0.0000000000000000e+00  0.0000000000000000e+00 0.0000000000000000e+00 0.0000000000000000e+00  0.0000000000000000e+00 0.0000000000000000e+00 0.0000000000000000e+00  0.0000000000000000e+00 0.0000000000000000e+00 0.0000000000000000e+00  0.0000000000000000e+00 0.0000000000000000e+00 0.0000000000000000e+00  0.0000000000000000e+00 0.0000000000000000e+00 0.0000000000000000e+00  0.0000000000000000e+00 0.0000000000000000e+00 0.0000000000000000e+00  0.0000000000000000e+00 0.0000000000000000e+00 0.0000000000000000e+00  0.0000000000000000e+00 0.0000000000000000e+00 0.0000000000000000e+00  0.0000000000000000e+00 0.0000000000000000e+00 0.0000000000000000e+00  0.0000000000000000e+00 0.0000000000000000e+00 0.0000000000000000e+00  0.0000000000000000e+00 0.0000000000000000e+00 0.0000000000000000e+00  0.0000000000000000e+00 0.0000000000000000e+00 0.0000000000000000e+00  0.0000000000000000e+00 0.0000000000000000e+00 0.0000000000000000e+00  0.0000000000000000e+00 0.0000000000000000e+00 0.0000000000000000e+00  0.0000000000000000e+00 0.0000000000000000e+00 0.0000000000000000e+00  0.0000000000000000e+00 0.0000000000000000e+00 0.0000000000000000e+00  0.0000000000000000e+00 0.0000000000000000e+00 0.0000000000000000e+00  0.0000000000000000e+00 0.0000000000000000e+00 0.0000000000000000e+00  0.0000000000000000e+00 0.0000000000000000e+00 0.0000000000000000e+00  0.0000000000000000e+00 0.0000000000000000e+00 0.0000000000000000e+00  0.0000000000000000e+00 0.0000000000000000e+00 0.0000000000000000e+00  0.0000000000000000e+00 0.0000000000000000e+00 0.0000000000000000e+00  0.0000000000000000e+00 0.0000000000000000e+00 0.0000000000000000e+00  0.0000000000000000e+00 0.0000000000000000e+00 0.0000000000000000e+00  0.0000000000000000e+00 0.0000000000000000e+00 0.0000000000000000e+00  0.0000000000000000e+00 0.0000000000000000e+00 0.0000000000000000e+00  0.0000000000000000e+00 0.0000000000000000e+00 0.0000000000000000e+00  0.0000000000000000e+00 0.0000000000000000e+00 0.0000000000000000e+00  0.0000000000000000e+00 0.0000000000000000e+00 0.0000000000000000e+00  0.0000000000000000e+00 0.0000000000000000e+00 0.0000000000000000e+00  0.0000000000000000e+00 0.0000000000000000e+00 0.0000000000000000e+00  0.0000000000000000e+00 0.0000000000000000e+00 0.0000000000000000e+00  0.0000000000000000e+00 0.0000000000000000e+00 0.0000000000000000e+00  0.0000000000000000e+00 0.0000000000000000e+00 0.0000000000000000e+00  0.0000000000000000e+00 0.0000000000000000e+00 0.0000000000000000e+00  0.0000000000000000e+00 0.0000000000000000e+00 0.0000000000000000e+00  0.0000000000000000e+00 0.0000000000000000e+00 0.0000000000000000e+00  0.0000000000000000e+00 0.0000000000000000e+00 0.0000000000000000e+00  0.0000000000000000e+00 0.0000000000000000e+00 0.0000000000000000e+00  0.0000000000000000e+00 0.0000000000000000e+00 0.0000000000000000e+00  0.0000000000000000e+00 0.0000000000000000e+00 0.0000000000000000e+00  0.0000000000000000e+00 0.0000000000000000e+00 0.0000000000000000e+00  0.0000000000000000e+00 0.0000000000000000e+00 0.0000000000000000e+00  0.0000000000000000e+00 0.0000000000000000e+00 0.0000000000000000e+00  0.0000000000000000e+00 0.0000000000000000e+00 0.0000000000000000e+00  0.0000000000000000e+00 0.0000000000000000e+00 0.0000000000000000e+00  0.0000000000000000e+00 0.0000000000000000e+00 0.0000000000000000e+00  0.0000000000000000e+00 0.0000000000000000e+00 0.0000000000000000e+00  0.0000000000000000e+00 0.0000000000000000e+00 0.0000000000000000e+00  0.0000000000000000e+00 0.0000000000000000e+00 0.0000000000000000e+00  0.0000000000000000e+00 0.0000000000000000e+00 0.0000000000000000e+00  0.0000000000000000e+00 0.0000000000000000e+00 0.0000000000000000e+00  0.0000000000000000e+00 0.0000000000000000e+00 0.0000000000000000e+00  0.0000000000000000e+00 0.0000000000000000e+00 0.0000000000000000e+00  0.0000000000000000e+00 0.0000000000000000e+00 0.0000000000000000e+00  0.0000000000000000e+00 0.0000000000000000e+00 0.0000000000000000e+00  0.0000000000000000e+00 0.0000000000000000e+00 0.0000000000000000e+00  0.0000000000000000e+00 0.0000000000000000e+00 0.0000000000000000e+00  0.0000000000000000e+00 0.0000000000000000e+00 0.0000000000000000e+00  0.0000000000000000e+00 0.0000000000000000e+00 0.0000000000000000e+00  0.0000000000000000e+00 0.0000000000000000e+00 0.0000000000000000e+00  0.0000000000000000e+00 0.0000000000000000e+00 0.0000000000000000e+00  0.0000000000000000e+00 0.0000000000000000e+00 0.0000000000000000e+00  0.0000000000000000e+00 0.0000000000000000e+00 0.0000000000000000e+00  0.0000000000000000e+00 0.0000000000000000e+00 0.0000000000000000e+00  0.0000000000000000e+00 0.0000000000000000e+00 0.0000000000000000e+00  0.0000000000000000e+00 0.0000000000000000e+00 0.0000000000000000e+00  0.0000000000000000e+00 0.0000000000000000e+00 0.0000000000000000e+00  0.0000000000000000e+00 0.0000000000000000e+00 0.0000000000000000e+00  0.0000000000000000e+00 0.0000000000000000e+00 0.0000000000000000e+00  -7.0567456048276820e-06 1.0555734829907250e-05 0.0000000000000000e+00  -1.5343306201755813e-05 2.0000177834532482e-05 0.0000000000000000e+00  -2.2843899812776964e-05 3.5270477006871678e-05 0.0000000000000000e+00  -3.1199588338596175e-05 5.6781871377013064e-05 0.0000000000000000e+00  -3.8200046447073306e-05 8.3748221348963733e-05 0.0000000000000000e+00  -4.6275554064653234e-05 1.1669997465234622e-04 0.0000000000000000e+00  -5.2724859641310134e-05 1.5412343303197355e-04 0.0000000000000000e+00  -5.9015047494317341e-05 1.9744936767429730e-04 0.0000000000000000e+00  -6.6348603827699941e-05 2.4526629790198651e-04 0.0000000000000000e+00  -7.1874275863261945e-05 2.9781451329185268e-04 0.0000000000000000e+00  -7.8736887354574991e-05 3.5500241320338230e-04 0.0000000000000000e+00  -8.3809943140169299e-05 4.1650526423704561e-04 0.0000000000000000e+00  -8.9878668704649917e-05 4.8216414793693255e-04 0.0000000000000000e+00  -9.4619034022971245e-05 5.5120945060258529e-04 0.0000000000000000e+00  -9.9176641020432888e-05 6.2442104103101247e-04 0.0000000000000000e+00  -1.0436069238455548e-04 7.0075760083910827e-04 0.0000000000000000e+00  -1.0819612966268897e-04 7.8030466103924049e-04 0.0000000000000000e+00  -1.1279063318744236e-04 8.6295426311934563e-04 0.0000000000000000e+00  -1.1610371797217784e-04 9.4833789065821216e-04 0.0000000000000000e+00  -1.1998725184422042e-04 1.0362710421859109e-03 0.0000000000000000e+00  -1.2295592926496435e-04 1.1266100396995849e-03 0.0000000000000000e+00  -1.2617249752759548e-04 1.2192389596193394e-03 0.0000000000000000e+00  -1.2863392991956492e-04 1.3135208176357806e-03 0.0000000000000000e+00  -1.3088917046271729e-04 1.4098980167270468e-03 0.0000000000000000e+00  -1.3331147540478691e-04 1.5076670164271035e-03 0.0000000000000000e+00  -1.3518127556076491e-04 1.6070246160612321e-03 0.0000000000000000e+00  -1.3695860211105553e-04 1.7077535843207014e-03 0.0000000000000000e+00  -1.3839798554560217e-04 1.8095605217635471e-03 0.0000000000000000e+00  -1.3972525656376827e-04 1.9125039935635744e-03 0.0000000000000000e+00  -1.4075974456189487e-04 2.0162663967834933e-03 0.0000000000000000e+00  -1.4167565987780579e-04 2.1209095570072270e-03 0.0000000000000000e+00  -1.4233677134188027e-04 2.2261402420918662e-03 0.0000000000000000e+00  -1.4287910898742965e-04 2.3320234836793218e-03 0.0000000000000000e+00  -1.4320292518824426e-04 2.4382964138744191e-03 0.0000000000000000e+00  -1.4340449983622829e-04 2.5450376765234236e-03 0.0000000000000000e+00  -1.4342681823389475e-04 2.6520167710325370e-03 0.0000000000000000e+00  -1.4333891185486119e-04 2.7593099658098164e-03 0.0000000000000000e+00  -1.4310257454092063e-04 2.8667289354572462e-03 0.0000000000000000e+00  -1.4276322330589405e-04 2.9743529218243204e-03 0.0000000000000000e+00  -1.4229804950448448e-04 3.0820240885915669e-03 0.0000000000000000e+00  -1.4173139047876586e-04 3.1898118383034083e-03 0.0000000000000000e+00  -1.4107193118205062e-04 3.2976146880180708e-03 0.0000000000000000e+00  -1.4030742661908985e-04 3.4054662409141231e-03 0.0000000000000000e+00  -1.3949262533996144e-04 3.5133260302311251e-03 0.0000000000000000e+00  -1.3857035442006122e-04 3.6211684907345451e-03 0.0000000000000000e+00  -1.3760343209667808e-04 3.7290742355388221e-03 0.0000000000000000e+00  -6.3990942689322235e-05 3.8361217129895962e-03 0.0000000000000000e+00  8.0611636280289529e-05 3.8338980942168597e-03 0.0000000000000000e+00  1.5161329459782651e-04 3.7249332476799219e-03 0.0000000000000000e+00  1.5060298647143075e-04 3.6168534324502325e-03 0.0000000000000000e+00  1.4963458355281325e-04 3.5087537133869492e-03 0.0000000000000000e+00  1.4873611475674854e-04 3.4007037332615497e-03 0.0000000000000000e+00  1.4787826098051459e-04 3.2926728793822601e-03 0.0000000000000000e+00  1.4708684670357953e-04 3.1846906444233164e-03 0.0000000000000000e+00  1.4630472997233845e-04 3.0767658035666394e-03 0.0000000000000000e+00  1.4558489650541687e-04 2.9689070129890541e-03 0.0000000000000000e+00  1.4483714470928170e-04 2.8611814170985267e-03 0.0000000000000000e+00  1.4414811187069687e-04 2.7535838027444672e-03 0.0000000000000000e+00  1.4337391324951762e-04 2.6461973909316238e-03 0.0000000000000000e+00  1.4266685644881113e-04 2.5390504217916630e-03 0.0000000000000000e+00  1.4180189903922893e-04 2.4322263884615190e-03 0.0000000000000000e+00  1.4102161503769687e-04 2.3257946806031584e-03 0.0000000000000000e+00  1.3999599636501381e-04 2.2198364798695974e-03 0.0000000000000000e+00  1.3908845745355466e-04 2.1144602543581525e-03 0.0000000000000000e+00  1.3783781450343164e-04 2.0097470188589627e-03 0.0000000000000000e+00  1.3675223628227095e-04 1.9058426394418931e-03 0.0000000000000000e+00  1.3521444501037009e-04 1.8028282658046754e-03 0.0000000000000000e+00  1.3390269156936119e-04 1.7008790078697734e-03 0.0000000000000000e+00  1.3200645059887483e-04 1.6000828134106158e-03 0.0000000000000000e+00  1.3040530420768299e-04 1.5006482129909723e-03 0.0000000000000000e+00  1.2812767880491935e-04 1.4026914508831047e-03 0.0000000000000000e+00  1.2609178152544668e-04 1.3062334477396162e-03 0.0000000000000000e+00  1.2389174892278498e-04 1.2118698921136655e-03 0.0000000000000000e+00  1.2102104619221990e-04 1.1190771687441929e-03 0.0000000000000000e+00  1.1826755846232856e-04 1.0287148342083220e-03 0.0000000000000000e+00  1.1497733223770536e-04 9.4056317672788694e-04 0.0000000000000000e+00  1.1170250869394086e-04 8.5511642743444315e-04 0.0000000000000000e+00  1.0787979998978859e-04 7.7234141326072963e-04 0.0000000000000000e+00  1.0407365154228916e-04 6.9254742977211347e-04 0.0000000000000000e+00  9.9327718562127788e-05 6.1629015624309563e-04 0.0000000000000000e+00  9.5134612101910513e-05 5.4290601937391502e-04 0.0000000000000000e+00  9.0715691527196388e-05 4.7379289552191461e-04 0.0000000000000000e+00  8.5144417397510377e-05 4.0773319462821423e-04 0.0000000000000000e+00  7.9873210250380554e-05 3.4625257168563006e-04 0.0000000000000000e+00  7.3874674954774815e-05 2.8889760307074084e-04 0.0000000000000000e+00  6.8052466404807725e-05 2.3602771534947956e-04 0.0000000000000000e+00  6.1009692539738038e-05 1.8835549314940214e-04 0.0000000000000000e+00  5.4861850285532042e-05 1.4482358212348207e-04 0.0000000000000000e+00  4.8528547255792590e-05 1.0729458366933568e-04 0.0000000000000000e+00  4.0665463113136806e-05 7.4058568393649829e-05 0.0000000000000000e+00  3.3497696148001835e-05 4.6849433163474143e-05 0.0000000000000000e+00  2.5019887735541509e-05 2.5481241167406587e-05 0.0000000000000000e+00  1.7337603856195973e-05 1.0268461699454419e-05 0.0000000000000000e+00  8.2097397079570715e-06 1.4052910024933244e-06 0.0000000000000000e+00  1.6050998636613973e-06 6.2167809149912330e-06 0.0000000000000000e+00  4.8422113015005501e-06 3.6727718276013534e-03 0.0000000000000000e+00  1.8134046317993815e-06 3.4664258270467631e-03 0.0000000000000000e+00  7.4157975361282458e-07 3.1294341096472118e-03 0.0000000000000000e+00  1.2476838372227566e-06 3.6510472461638200e-05 0.0000000000000000e+00  1.1931503304508795e-06 2.9176798093979231e-03 0.0000000000000000e+00  1.7276438990157420e-06 8.8319600234282287e-05 0.0000000000000000e+00  2.3898405460187083e-07 2.7025893592878621e-03 0.0000000000000000e+00  1.8798008041775497e-06 2.1488972501077603e-04 0.0000000000000000e+00  8.1335328551268317e-07 3.1860486296497823e-04 0.0000000000000000e+00  -4.8740695957166341e-07 2.4883629181935486e-03 0.0000000000000000e+00  1.3999869904293423e-06 6.5904745141402168e-04 0.0000000000000000e+00  -1.3352395227942708e-06 2.0647617754749681e-03 0.0000000000000000e+00  1.6789830299416163e-06 4.3647234497831136e-04 0.0000000000000000e+00  -3.3583250870906039e-07 8.1544327847399647e-04 0.0000000000000000e+00  -1.4990949614572036e-06 1.8569130730472022e-03 0.0000000000000000e+00  -1.0051726941916549e-06 2.2755248505879162e-03 0.0000000000000000e+00  -7.0398507828377121e-07 9.8652994577031047e-04 0.0000000000000000e+00  -1.5070016017524297e-06 1.6529567798706736e-03 0.0000000000000000e+00  5.9029178296777043e-07 1.1599603118062243e-03 0.0000000000000000e+00  -3.0687722276931820e-06 1.4580805691404798e-03 0.0000000000000000e+00  -1.1832666332209106e-06 1.3011761408168734e-03 0.0000000000000000e+00  1.4008987100956593e-07 5.3910250782442212e-04 0.0000000000000000e+00  3.8219829820053121e-06 3.3045627817577389e-03 0.0000000000000000e+00  1.1736772208722087e-06 1.4370835823628451e-04 0.0000000000000000e+00  5.4037475042606520e-05 3.5680897149966951e-03 0.0000000000000000e+00  8.6238749243982239e-06 1.6903802507502593e-05 0.0000000000000000e+00  4.2520176057727316e-05 2.8092522682537651e-03 0.0000000000000000e+00  4.3705425235488100e-05 3.0246592762858421e-03 0.0000000000000000e+00  -1.1369773081953492e-05 6.2999477471412923e-05 0.0000000000000000e+00  -1.9501952749358288e-05 2.6518264297558075e-04 0.0000000000000000e+00  3.9737287982347058e-05 2.1689681333542706e-03 0.0000000000000000e+00  4.1494008133163698e-05 2.5945102632671112e-03 0.0000000000000000e+00  -3.1039954819705572e-05 7.3554829485016342e-04 0.0000000000000000e+00  3.8907065982578409e-05 1.9595368084780523e-03 0.0000000000000000e+00  -2.3022100653100171e-05 3.7977322216315601e-04 0.0000000000000000e+00  -3.3606552656811905e-05 9.0103604822457182e-04 0.0000000000000000e+00  3.8048828403059019e-05 1.7534951511444859e-03 0.0000000000000000e+00  4.0583250032604668e-05 2.3808797034326531e-03 0.0000000000000000e+00  -4.3558237125422107e-05 1.0764573248604244e-03 0.0000000000000000e+00  3.7140022247910200e-05 1.5518799564739429e-03 0.0000000000000000e+00  -9.8959296542828944e-09 2.3201262487437944e-06 0.0000000000000000e+00  2.5137673944970886e-06 1.1924855479299239e-07 0.0000000000000000e+00  -2.7581711481995077e-05 3.7581905443205810e-03 0.0000000000000000e+00  -6.7758657976184392e-06 2.0829139687840152e-05 0.0000000000000000e+00  4.5039506638427270e-05 1.3772952159345009e-03 0.0000000000000000e+00  3.555249103