<?xml version="1.0"?>
<VTKFile type="UnstructuredGrid"  version="0.1"  >
<UnstructuredGrid>
<Piece  NumberOfPoints="1419" NumberOfCells="2698">
<Points>
<DataArray  type="Float64"  NumberOfComponents="3"  format="ascii">0 0 0  0 0.41 0  2.5 0 0  2.5 0.41 0  0.6 0.19 0  0.6 0.21 0  0.25 0.2 0  0.15 0.2 0  0.2489897948556636 0.21 0  0.2489897948556636 0.19 0  0.6 0.2 0  0 0.3807142857143437 0  0 0.3514285714286952 0  0 0.3221428571430699 0  0 0.29285714285744 0  0 0.2635714285718054 0  0 0.2342857142861561 0  0 0.2050000000005308 0  0 0.175714285714732 0  0 0.1464285714289574 0  0 0.1171428571431897 0  0 0.08785714285737878 0  0 0.05857142857161107 0  0 0.02928571428580012 0  0.03015443760436003 0 0  0.06140001986583606 0 0  0.09377624077125973 0 0  0.1273239957535082 0 0  0.1620856860351972 0 0  0.1981052433264291 0 0  0.235428184091502 0 0  0.2741016576309132 0 0  0.3141745521465447 0 0  0.3556974926295285 0 0  0.3987229542472677 0 0  0.4433053055141081 0 0  0.4895008759286886 0 0  0.5373680609405097 0 0  0.5869673343216626 0 0  0.6383613676634521 0 0  0.6916151138468254 0 0  0.7467958595648856 0 0  0.8039733463919316 0 0  0.8632198139502143 0 0  0.9246101326867038 0 0  0.9882218810934433 0 0  1.054135445558498 0 0  1.122434100542598 0 0  1.193204177141305 0 0  1.266535089879536 0 0  1.342519516046404 0 0  1.421253448503939 0 0  1.502836389106271 0 0  1.587371439758838 0 0  1.674965418777374 0 0  1.765729001825544 0 0  1.859776908880082 0 0  1.957227977487062 0 0  2.058205329869943 0 0  2.162836591189951 0 0  2.271253957290865 0 0  2.383594446803425 0 0  2.5 0.1024999999997612 0  2.5 0.2049999999994743 0  2.5 0.3074999999997183 0  2.383594446803656 0.41 0  2.271253957291315 0.41 0  2.162836591190598 0.41 0  2.058205329870775 0.41 0  1.957227977488067 0.41 0  1.859776908881246 0.41 0  1.765729001826854 0.41 0  1.674965418778818 0.41 0  1.58737143976041 0.41 0  1.502836389107956 0.41 0  1.421253448505726 0.41 0  1.342519516048286 0.41 0  1.266535089881505 0.41 0  1.193204177143353 0.41 0  1.122434100544716 0.41 0  1.05413544556068 0.41 0  0.9882218810956305 0.41 0  0.9246101326886647 0.41 0  0.8632198139519631 0.41 0  0.8039733463934788 0.41 0  0.7467958595662458 0.41 0  0.6916151138480078 0.41 0  0.6383613676644679 0.41 0  0.5869673343225223 0.41 0  0.5373680609412221 0.41 0  0.4895008759292634 0.41 0  0.4433053055145528 0.41 0  0.3987229542475914 0.41 0  0.3556974926297398 0.41 0  0.3141745521466497 0.41 0  0.2741016576310038 0.41 0  0.2354281840915826 0.41 0  0.1981052433265003 0.41 0  0.1620856860352591 0.41 0  0.1273239957535623 0.41 0  0.09377624077128965 0.41 0  0.06140001986584975 0.41 0  0.03015443760436654 0.41 0  0.2497468076502589 0.2050254481002335 0  0.2497468076502614 0.1949745518997913 0  0.2469965252529372 0.1829317073451959 0  0.2439893735792749 0.1762316384219906 0  0.2400332147834255 0.1700443375285386 0  0.2352133972704371 0.1645032867342007 0  0.2296339016332438 0.1597280261969788 0  0.2234150974217223 0.1558215752574715 0  0.2166911463437691 0.1528682099456123 0  0.2096071079204251 0.1509316448471593 0  0.2023158100364996 0.1500536585536553 0  0.194974551899914 0.1502531923497262 0  0.1877417105387872 0.1515259415822739 0  0.1807733240461124 0.153844448527136 0  0.1742197252835808 0.15715869474974 0  0.1682222986673531 0.1613971801805478 0  0.162910430003803 0.1664684656256651 0  0.1583987151779087 0.1722631454351573 0  0.1547844879126891 0.178656207771761 0  0.1521457199348551 0.1855097315605723 0  0.1505393388476355 0.1926758619366523 0  0.1505393388476328 0.2073241380633295 0  0.1521457199348437 0.2144902684393899 0  0.1547844879126531 0.221343792228163 0  0.1583987151778488 0.2277368545647528 0  0.1629104300036858 0.2335315343742052 0  0.1682222986671726 0.2386028198193036 0  0.1742197252833576 0.2428413052501257 0  0.1807733240458683 0.2461555514727623 0  0.1877417105384929 0.2484740584176516 0  0.1949745518995776 0.2497468076502398 0  0.202315810036185 0.2499463414463592 0  0.2096071079201568 0.2490683551528932 0  0.2166911463435495 0.2471317900544655 0  0.2234150974215506 0.2441784247426195 0  0.2296339016331197 0.2402719738031125 0  0.2352133972703547 0.2354967132658811 0  0.2400332147833751 0.2299556624715287 0  0.2439893735792577 0.2237683615780412 0  0.246996525252926 0.2170682926548348 0  0.25645809709277 0.21 0  0.2639263993298655 0.21 0  0.271394701566961 0.21 0  0.2788630038040554 0.21 0  0.2863313060411479 0.21 0  0.2937996082782405 0.21 0  0.301267910515333 0.21 0  0.3087362127524279 0.21 0  0.3162045149895234 0.21 0  0.3236728172265972 0.21 0  0.3311411194636928 0.21 0  0.3386094217007701 0.21 0  0.3460777239378666 0.21 0  0.3535460261749672 0.21 0  0.3610143284120516 0.21 0  0.3684826306491596 0.21 0  0.3759509328862226 0.21 0  0.383419235123329 0.21 0  0.3908875373604028 0.21 0  0.3983558395975142 0.21 0  0.4058241418345938 0.21 0  0.4132924440716992 0.21 0  0.4207607463087888 0.21 0  0.4282290485459029 0.21 0  0.4356973507830418 0.21 0  0.4431656530201649 0.21 0  0.4506339552573136 0.21 0  0.4581022574944306 0.21 0  0.4655705597315852 0.21 0  0.4730388619686996 0.21 0  0.480507164205851 0.21 0  0.4879754664429498 0.21 0  0.4954437686800938 0.21 0  0.502912070917267 0.21 0  0.5103803731544119 0.21 0  0.5178486753915261 0.21 0  0.5253169776286404 0.21 0  0.5327852798657868 0.21 0  0.5402535821029386 0.21 0  0.54772188434007 0.21 0  0.5551901865771842 0.21 0  0.5626584888143201 0.21 0  0.5701267910514778 0.21 0  0.5775950932886138 0.21 0  0.5850633955257281 0.21 0  0.5925316977628483 0.21 0  0.6 0.2050000000000054 0  0.6 0.1950000000000217 0  0.5925316977628897 0.19 0  0.5850633955257988 0.19 0  0.5775950932887378 0.19 0  0.5701267910515998 0.19 0  0.5626584888145268 0.19 0  0.5551901865773963 0.19 0  0.547721884340339 0.19 0  0.5402535821032429 0.19 0  0.5327852798661811 0.19 0  0.5253169776290537 0.19 0  0.5178486753919799 0.19 0  0.5103803731549078 0.19 0  0.502912070917822 0.19 0  0.4954437686807294 0.19 0  0.4879754664436223 0.19 0  0.4805071642065402 0.19 0  0.4730388619694271 0.19 0  0.4655705597323621 0.19 0  0.4581022574952563 0.19 0  0.4506339552581777 0.19 0  0.4431656530210671 0.19 0  0.4356973507839815 0.19 0  0.4282290485468779 0.19 0  0.4207607463097617 0.19 0  0.4132924440726327 0.19 0  0.4058241418354857 0.19 0  0.3983558395983636 0.19 0  0.3908875373612097 0.19 0  0.3834192351240934 0.19 0  0.3759509328869369 0.19 0  0.3684826306498175 0.19 0  0.361014328412667 0.19 0  0.3535460261755617 0.19 0  0.3460777239384295 0.19 0  0.3386094217012945 0.19 0  0.3311411194641595 0.19 0  0.3236728172270245 0.19 0  0.3162045149898895 0.19 0  0.3087362127527544 0.19 0  0.3012679105156187 0.19 0  0.2937996082784807 0.19 0  0.2863313060413428 0.19 0  0.2788630038042048 0.19 0  0.2713947015670686 0.19 0  0.2639263993299336 0.19 0  0.2564580970927985 0.19 0  0.2607803159922026 0.2000727136295815 0  0.5887803774232762 0.2001272386983733 0  0.5745072403740523 0.2002044435018727 0  0.5511891430099709 0.2001122610077113 0  0.2751288526855082 0.20000000000002 0  0.5365194309847112 0.1999999999999436 0  0.2894621222999649 0.1998691686390484 0  0.5215828265105155 0.1999999999999228 0  0.3127789816668748 0.1998657885438805 0  0.3274069683451451 0.2000000000000796 0  0.5066462220363641 0.199999999999908 0  0.3650630746574081 0.199866017807523 0  0.476773013087985 0.1999999999998713 0  0.3417402379596385 0.1998691686391011 0  0.3796850840047755 0.200000000000134 0  0.4618364086138087 0.1999999999998546 0  0.4917096175621762 0.1999999999998808 0  0.3946216884789568 0.2000000000001512 0  0.446899804139621 0.1999999999998389 0  0.4089549580935208 0.1998691686391595 0  0.4322718174608562 0.200127451265745 0  0.4201487168029707 0.1999966199048527 0  0.3528922713220932 0.2000185703532356 0  0.5633122436674589 0.1999814296467508 0  0.3006558810093873 0.1999966199048318 0  0.5815926498168407 0.1966545283159175 0  0.2677053789419034 0.1964246479135325 0  0.5290511287476175 0.1970915826863981 0  0.5439877332217911 0.197091582686394 0  0.2825131256993216 0.2035478995978015 0  0.3199386661080599 0.202908417313604 0  0.4842413153250809 0.1970915826863873 0  0.5141145242734466 0.1970915826863843 0  0.3722167817676917 0.2029084173136195 0  0.4693047108508938 0.1970915826863783 0  0.3348752705822316 0.202908417313609 0  0.3871533862418661 0.2029084173136212 0  0.4543681063767183 0.1970915826863795 0  0.4991779197992749 0.1970915826863902 0  0.4020059614928624 0.203547899597858 0  0.4394315019025246 0.1970915826863714 0  0.2550657455369551 0.2034088125358657 0  0.2548908499171161 0.1966940311614271 0  0.5946539510196798 0.2024302972968126 0  0.267698176732111 0.2039977513680092 0  0.4261685417851465 0.196409292431739 0  0.3590076176283495 0.196411355804271 0  0.5571672426447437 0.2036011176410121 0  0.3066757059912147 0.1964092924317024 0  0.594380730180568 0.1966558399668133 0  0.4842413153245942 0.2040749161535287 0  0.4693047108503577 0.2040749161535231 0  0.3871533862424271 0.1959250838464788 0  0.372246743208829 0.1959123236376545 0  0.5141145242731028 0.2040749161535395 0  0.4543681063761134 0.2040749161535186 0  0.4019979587101454 0.1959834479682427 0  0.4394608940728603 0.2040870543693135 0  0.5439623148931173 0.2040856076781014 0  0.5290511287473298 0.2040749161535501 0  0.4991779197988497 0.2040749161535382 0  0.3347912413592433 0.1959225448935183 0  0.3199680582793816 0.1959123018030061 0  0.2825051229162361 0.1959834479681729 0  0.3590471196690275 0.2036304442587945 0  0.5571594006495384 0.1963685282145804 0  0.3067669986803285 0.203627750582736 0  0.4262598344738712 0.2036568242185335 0  0.5814408164431408 0.2041285596160068 0  0.5688286748170428 0.1961819304477386 0  0.4145905603063645 0.2038180695522843 0  0.3473758401724931 0.2038180695522752 0  0.2950977245128307 0.2038180695522663 0  0.5688286748170693 0.203818069552238 0  0.2950977245127906 0.1961819304477774 0  0.3473758401723931 0.1961819304478349 0  0.4145905603061963 0.1961819304479011 0  0.2601812407614425 0.2056861609747042
[...]
<PointData  Vectors="f_40-0"> 
<DataArray  type="Float64"  Name="f_40-0"  NumberOfComponents="3" format="ascii">0.0000000000000000e+00 0.0000000000000000e+00 0.0000000000000000e+00  0.0000000000000000e+00 0.0000000000000000e+00 0.0000000000000000e+00  0.0000000000000000e+00 0.0000000000000000e+00 0.0000000000000000e+00  0.0000000000000000e+00 0.0000000000000000e+00 0.0000000000000000e+00  1.3190235553752979e-04 2.7568600288222166e-03 0.0000000000000000e+00  -8.6216448814122981e-05 2.7615069421677630e-03 0.0000000000000000e+00  0.0000000000000000e+00 0.0000000000000000e+00 0.0000000000000000e+00  0.0000000000000000e+00 0.0000000000000000e+00 0.0000000000000000e+00  0.0000000000000000e+00 0.0000000000000000e+00 0.0000000000000000e+00  0.0000000000000000e+00 0.0000000000000000e+00 0.0000000000000000e+00  2.3228231871516252e-05 2.7591576471409020e-03 0.0000000000000000e+00  7.8013431028785629e-01 0.0000000000000000e+00 0.0000000000000000e+00  1.4402479574545994e+00 0.0000000000000000e+00 0.0000000000000000e+00  1.9803409415000746e+00 0.0000000000000000e+00 0.0000000000000000e+00  2.4004132624249066e+00 0.0000000000000000e+00 0.0000000000000000e+00  2.7004649202290421e+00 0.0000000000000000e+00 0.0000000000000000e+00  2.8804959149124620e+00 0.0000000000000000e+00 0.0000000000000000e+00  2.9405062464749867e+00 0.0000000000000000e+00 0.0000000000000000e+00  2.8804959149161022e+00 0.0000000000000000e+00 0.0000000000000000e+00  2.7004649202352944e+00 0.0000000000000000e+00 0.0000000000000000e+00  2.4004132624326497e+00 0.0000000000000000e+00 0.0000000000000000e+00  1.9803409415074300e+00 0.0000000000000000e+00 0.0000000000000000e+00  1.4402479574608762e+00 0.0000000000000000e+00 0.0000000000000000e+00  7.8013431029139291e-01 0.0000000000000000e+00 0.0000000000000000e+00  0.0000000000000000e+00 0.0000000000000000e+00 0.0000000000000000e+00  0.0000000000000000e+00 0.0000000000000000e+00 0.0000000000000000e+00  0.0000000000000000e+00 0.0000000000000000e+00 0.0000000000000000e+00  0.0000000000000000e+00 0.0000000000000000e+00 0.0000000000000000e+00  0.0000000000000000e+00 0.0000000000000000e+00 0.0000000000000000e+00  0.0000000000000000e+00 0.0000000000000000e+00 0.0000000000000000e+00  0.0000000000000000e+00 0.0000000000000000e+00 0.0000000000000000e+00  0.0000000000000000e+00 0.0000000000000000e+00 0.0000000000000000e+00  0.0000000000000000e+00 0.0000000000000000e+00 0.0000000000000000e+00  0.0000000000000000e+00 0.0000000000000000e+00 0.0000000000000000e+00  0.0000000000000000e+00 0.0000000000000000e+00 0.0000000000000000e+00  0.0000000000000000e+00 0.0000000000000000e+00 0.0000000000000000e+00  0.0000000000000000e+00 0.0000000000000000e+00 0.0000000000000000e+00  0.0000000000000000e+00 0.0000000000000000e+00 0.0000000000000000e+00  0.0000000000000000e+00 0.0000000000000000e+00 0.0000000000000000e+00  0.0000000000000000e+00 0.0000000000000000e+00 0.0000000000000000e+00  0.0000000000000000e+00 0.0000000000000000e+00 0.0000000000000000e+00  0.0000000000000000e+00 0.0000000000000000e+00 0.0000000000000000e+00  0.0000000000000000e+00 0.0000000000000000e+00 0.0000000000000000e+00  0.0000000000000000e+00 0.0000000000000000e+00 0.0000000000000000e+00  0.0000000000000000e+00 0.0000000000000000e+00 0.0000000000000000e+00  0.0000000000000000e+00 0.0000000000000000e+00 0.0000000000000000e+00  0.0000000000000000e+00 0.0000000000000000e+00 0.0000000000000000e+00  0.0000000000000000e+00 0.0000000000000000e+00 0.0000000000000000e+00  0.0000000000000000e+00 0.0000000000000000e+00 0.0000000000000000e+00  0.0000000000000000e+00 0.0000000000000000e+00 0.0000000000000000e+00  0.0000000000000000e+00 0.0000000000000000e+00 0.0000000000000000e+00  0.0000000000000000e+00 0.0000000000000000e+00 0.0000000000000000e+00  0.0000000000000000e+00 0.0000000000000000e+00 0.0000000000000000e+00  0.0000000000000000e+00 0.0000000000000000e+00 0.0000000000000000e+00  0.0000000000000000e+00 0.0000000000000000e+00 0.0000000000000000e+00  0.0000000000000000e+00 0.0000000000000000e+00 0.0000000000000000e+00  0.0000000000000000e+00 0.0000000000000000e+00 0.0000000000000000e+00  0.0000000000000000e+00 0.0000000000000000e+00 0.0000000000000000e+00  0.0000000000000000e+00 0.0000000000000000e+00 0.0000000000000000e+00  0.0000000000000000e+00 0.0000000000000000e+00 0.0000000000000000e+00  0.0000000000000000e+00 0.0000000000000000e+00 0.0000000000000000e+00  0.0000000000000000e+00 0.0000000000000000e+00 0.0000000000000000e+00  2.6010039203412476e+00 -1.1667865263711273e-02 0.0000000000000000e+00  2.4761931360669398e+00 1.1427929324716250e-02 0.0000000000000000e+00  2.5819310144128136e+00 6.9509539368343032e-02 0.0000000000000000e+00  0.0000000000000000e+00 0.0000000000000000e+00 0.0000000000000000e+00  0.0000000000000000e+00 0.0000000000000000e+00 0.0000000000000000e+00  0.0000000000000000e+00 0.0000000000000000e+00 0.0000000000000000e+00  0.0000000000000000e+00 0.0000000000000000e+00 0.0000000000000000e+00  0.0000000000000000e+00 0.0000000000000000e+00 0.0000000000000000e+00  0.0000000000000000e+00 0.0000000000000000e+00 0.0000000000000000e+00  0.0000000000000000e+00 0.0000000000000000e+00 0.0000000000000000e+00  0.0000000000000000e+00 0.0000000000000000e+00 0.0000000000000000e+00  0.0000000000000000e+00 0.0000000000000000e+00 0.0000000000000000e+00  0.0000000000000000e+00 0.0000000000000000e+00 0.0000000000000000e+00  0.0000000000000000e+00 0.0000000000000000e+00 0.0000000000000000e+00  0.0000000000000000e+00 0.0000000000000000e+00 0.0000000000000000e+00  0.0000000000000000e+00 0.0000000000000000e+00 0.0000000000000000e+00  0.0000000000000000e+00 0.0000000000000000e+00 0.0000000000000000e+00  0.0000000000000000e+00 0.0000000000000000e+00 0.0000000000000000e+00  0.0000000000000000e+00 0.0000000000000000e+00 0.0000000000000000e+00  0.0000000000000000e+00 0.0000000000000000e+00 0.0000000000000000e+00  0.0000000000000000e+00 0.0000000000000000e+00 0.0000000000000000e+00  0.0000000000000000e+00 0.0000000000000000e+00 0.0000000000000000e+00  0.0000000000000000e+00 0.0000000000000000e+00 0.0000000000000000e+00  0.0000000000000000e+00 0.0000000000000000e+00 0.0000000000000000e+00  0.0000000000000000e+00 0.0000000000000000e+00 0.0000000000000000e+00  0.0000000000000000e+00 0.0000000000000000e+00 0.0000000000000000e+00  0.0000000000000000e+00 0.0000000000000000e+00 0.0000000000000000e+00  0.0000000000000000e+00 0.0000000000000000e+00 0.0000000000000000e+00  0.0000000000000000e+00 0.0000000000000000e+00 0.0000000000000000e+00  0.0000000000000000e+00 0.0000000000000000e+00 0.0000000000000000e+00  0.0000000000000000e+00 0.0000000000000000e+00 0.0000000000000000e+00  0.0000000000000000e+00 0.0000000000000000e+00 0.0000000000000000e+00  0.0000000000000000e+00 0.0000000000000000e+00 0.0000000000000000e+00  0.0000000000000000e+00 0.0000000000000000e+00 0.0000000000000000e+00  0.0000000000000000e+00 0.0000000000000000e+00 0.0000000000000000e+00  0.0000000000000000e+00 0.0000000000000000e+00 0.0000000000000000e+00  0.0000000000000000e+00 0.0000000000000000e+00 0.0000000000000000e+00  0.0000000000000000e+00 0.0000000000000000e+00 0.0000000000000000e+00  0.0000000000000000e+00 0.0000000000000000e+00 0.0000000000000000e+00  0.0000000000000000e+00 0.0000000000000000e+00 0.0000000000000000e+00  0.0000000000000000e+00 0.0000000000000000e+00 0.0000000000000000e+00  0.0000000000000000e+00 0.0000000000000000e+00 0.0000000000000000e+00  0.0000000000000000e+00 0.0000000000000000e+00 0.0000000000000000e+00  0.0000000000000000e+00 0.0000000000000000e+00 0.0000000000000000e+00  0.0000000000000000e+00 0.0000000000000000e+00 0.0000000000000000e+00  0.0000000000000000e+00 0.0000000000000000e+00 0.0000000000000000e+00  0.0000000000000000e+00 0.0000000000000000e+00 0.0000000000000000e+00  0.0000000000000000e+00 0.0000000000000000e+00 0.0000000000000000e+00  0.0000000000000000e+00 0.0000000000000000e+00 0.0000000000000000e+00  0.0000000000000000e+00 0.0000000000000000e+00 0.0000000000000000e+00  0.0000000000000000e+00 0.0000000000000000e+00 0.0000000000000000e+00  0.0000000000000000e+00 0.0000000000000000e+00 0.0000000000000000e+00  0.0000000000000000e+00 0.0000000000000000e+00 0.0000000000000000e+00  0.0000000000000000e+00 0.0000000000000000e+00 0.0000000000000000e+00  0.0000000000000000e+00 0.0000000000000000e+00 0.0000000000000000e+00  0.0000000000000000e+00 0.0000000000000000e+00 0.0000000000000000e+00  0.0000000000000000e+00 0.0000000000000000e+00 0.0000000000000000e+00  0.0000000000000000e+00 0.0000000000000000e+00 0.0000000000000000e+00  0.0000000000000000e+00 0.0000000000000000e+00 0.0000000000000000e+00  0.0000000000000000e+00 0.0000000000000000e+00 0.0000000000000000e+00  0.0000000000000000e+00 0.0000000000000000e+00 0.0000000000000000e+00  0.0000000000000000e+00 0.0000000000000000e+00 0.0000000000000000e+00  0.0000000000000000e+00 0.0000000000000000e+00 0.0000000000000000e+00  0.0000000000000000e+00 0.0000000000000000e+00 0.0000000000000000e+00  0.0000000000000000e+00 0.0000000000000000e+00 0.0000000000000000e+00  0.0000000000000000e+00 0.0000000000000000e+00 0.0000000000000000e+00  0.0000000000000000e+00 0.0000000000000000e+00 0.0000000000000000e+00  0.0000000000000000e+00 0.0000000000000000e+00 0.0000000000000000e+00  0.0000000000000000e+00 0.0000000000000000e+00 0.0000000000000000e+00  0.0000000000000000e+00 0.0000000000000000e+00 0.0000000000000000e+00  0.0000000000000000e+00 0.0000000000000000e+00 0.0000000000000000e+00  0.0000000000000000e+00 0.0000000000000000e+00 0.0000000000000000e+00  0.0000000000000000e+00 0.0000000000000000e+00 0.0000000000000000e+00  0.0000000000000000e+00 0.0000000000000000e+00 0.0000000000000000e+00  0.0000000000000000e+00 0.0000000000000000e+00 0.0000000000000000e+00  0.0000000000000000e+00 0.0000000000000000e+00 0.0000000000000000e+00  0.0000000000000000e+00 0.0000000000000000e+00 0.0000000000000000e+00  0.0000000000000000e+00 0.0000000000000000e+00 0.0000000000000000e+00  0.0000000000000000e+00 0.0000000000000000e+00 0.0000000000000000e+00  0.0000000000000000e+00 0.0000000000000000e+00 0.0000000000000000e+00  0.0000000000000000e+00 0.0000000000000000e+00 0.0000000000000000e+00  -3.5658698998382782e-06 7.8209289319427231e-06 0.0000000000000000e+00  -8.0178707948382904e-06 1.3333425079040725e-05 0.0000000000000000e+00  -1.2208067339584168e-05 2.2347823440968865e-05 0.0000000000000000e+00  -1.7102634234181487e-05 3.5166743607364949e-05 0.0000000000000000e+00  -2.1261028891014359e-05 5.1526214610892630e-05 0.0000000000000000e+00  -2.6242004033587345e-05 7.1800278962696080e-05 0.0000000000000000e+00  -3.0227575174022292e-05 9.5080594737016435e-05 0.0000000000000000e+00  -3.4197175132607260e-05 1.2239023045032747e-04 0.0000000000000000e+00  -3.8981469378678610e-05 1.5282788738642857e-04 0.0000000000000000e+00  -4.2580558604798494e-05 1.8664133591843042e-04 0.0000000000000000e+00  -4.7232693729218694e-05 2.2379897621645136e-04 0.0000000000000000e+00  -5.0650870631697424e-05 2.6416548745289089e-04 0.0000000000000000e+00  -5.4900282962668270e-05 3.0765267120919386e-04 0.0000000000000000e+00  -5.8203990906739269e-05 3.5374372592067622e-04 0.0000000000000000e+00  -6.1433763557097547e-05 4.0308745746703533e-04 0.0000000000000000e+00  -6.5227397904749125e-05 4.5491640558186034e-04 0.0000000000000000e+00  -6.8004852470999832e-05 5.0935764561438009e-04 0.0000000000000000e+00  -7.1471979208276347e-05 5.6634750565220688e-04 0.0000000000000000e+00  -7.3929578137084216e-05 6.2565881761176959e-04 0.0000000000000000e+00  -7.6933683817032584e-05 6.8714342671309658e-04 0.0000000000000000e+00  -7.9202196320845775e-05 7.5075251512657446e-04 0.0000000000000000e+00  -8.1753702749747380e-05 8.1640376442788617e-04 0.0000000000000000e+00  -8.3666756494934764e-05 8.8357418201394746e-04 0.0000000000000000e+00  -8.5438920522739771e-05 9.5269634695059353e-04 0.0000000000000000e+00  -8.7411822255595799e-05 1.0231411824590589e-03 0.0000000000000000e+00  -8.8907567698422960e-05 1.0951372182364109e-03 0.0000000000000000e+00  -9.0354833167133981e-05 1.1684844615006342e-03 0.0000000000000000e+00  -9.1503581993829453e-05 1.2429446257706989e-03 0.0000000000000000e+00  -9.2576489688013408e-05 1.3185696875926318e-03 0.0000000000000000e+00  -9.3379120333168914e-05 1.3950806606584801e-03 0.0000000000000000e+00  -9.4089937845641953e-05 1.4725326325444414e-03 0.0000000000000000e+00  -9.4554793163846820e-05 1.5506532249060590e-03 0.0000000000000000e+00  -9.4917495946981195e-05 1.6295023501738599e-03 0.0000000000000000e+00  -9.5061614751981149e-05 1.7088234063616170e-03 0.0000000000000000e+00  -9.5093655125885404e-05 1.7886867503938894e-03 0.0000000000000000e+00  -9.4939563130414363e-05 1.8688577782231071e-03 0.0000000000000000e+00  -9.4678743622595755e-05 1.9494062691550354e-03 0.0000000000000000e+00  -9.4261358185971047e-05 2.0301340274861916e-03 0.0000000000000000e+00  -9.3742165385942827e-05 2.1111118645946478e-03 0.0000000000000000e+00  -9.3090909478578363e-05 2.1921708391244663e-03 0.0000000000000000e+00  -9.2340681792764024e-05 2.2733759682557748e-03 0.0000000000000000e+00  -9.1492066320135457e-05 2.3546126843865035e-03 0.0000000000000000e+00  -9.0542778915710023e-05 2.4359128895141205e-03 0.0000000000000000e+00  -8.9545860466585473e-05 2.5172271335793502e-03 0.0000000000000000e+00  -8.8447626867810822e-05 2.5985335098756670e-03 0.0000000000000000e+00  -8.7308894865497646e-05 2.6799001336825089e-03 0.0000000000000000e+00  -3.1353659607943267e-05 2.7603236867111461e-03 0.0000000000000000e+00  7.7685037473764623e-05 2.7579993921621410e-03 0.0000000000000000e+00  1.3077488636838939e-04 2.6755270428325531e-03 0.0000000000000000e+00  1.2959497067248954e-04 2.5940167329191726e-03 0.0000000000000000e+00  1.2844708269126363e-04 2.5124924425561366e-03 0.0000000000000000e+00  1.2734953729160231e-04 2.4310165113612457e-03 0.0000000000000000e+00  1.2628197966765335e-04 2.3495622971208547e-03 0.0000000000000000e+00  1.2526111488292370e-04 2.2681676181836434e-03 0.0000000000000000e+00  1.2422898225109591e-04 2.1868432216639085e-03 0.0000000000000000e+00  1.2324767218677160e-04 2.1056147333220394e-03 0.0000000000000000e+00  1.2220648992014550e-04 2.0245452149644304e-03 0.0000000000000000e+00  1.2122069871233150e-04 1.9436532016413343e-03 0.0000000000000000e+00  1.2011339350902050e-04 1.8630170901183520e-03 0.0000000000000000e+00  1.1907662369732276e-04 1.7826878729971306e-03 0.0000000000000000e+00  1.1784387629590416e-04 1.7027426065222651e-03 0.0000000000000000e+00  1.1670825258066119e-04 1.6232678540357382e-03 0.0000000000000000e+00  1.1529427756147966e-04 1.5443399883488349e-03 0.0000000000000000e+00  1.1401838737510768e-04 1.4660743934789648e-03 0.0000000000000000e+00  1.1237700315476672e-04 1.3885450552011483e-03 0.0000000000000000e+00  1.1092611877199632e-04 1.3118911772796713e-03 0.0000000000000000e+00  1.0901878649708686e-04 1.2361846612371358e-03 0.0000000000000000e+00  1.0736501237448150e-04 1.1615789834481132e-03 0.0000000000000000e+00  1.0514985455547786e-04 1.0881507268814582e-03 0.0000000000000000e+00  1.0325401086942717e-04 1.0160693796273670e-03 0.0000000000000000e+00  1.0074247282268428e-04 9.4542857972453563e-04 0.0000000000000000e+00  9.8494474852356447e-05 8.7621601542678873e-04 0.0000000000000000e+00  9.6130938247747469e-05 8.0895392557955316e-04 0.0000000000000000e+00  9.3195152314597205e-05 7.4313434138802343e-04 0.0000000000000000e+00  9.0418664348438187e-05 6.7948078631094246e-04 0.0000000000000000e+00  8.7223206925074082e-05 6.1778642436403832e-04 0.0000000000000000e+00  8.4095221333618453e-05 5.5839384477078004e-04 0.0000000000000000e+00  8.0563902632292892e-05 5.0127953843161026e-04 0.0000000000000000e+00  7.7103306038216697e-05 4.4661047164426494e-04 0.0000000000000000e+00  7.2957906711943686e-05 3.9481997101404351e-04 0.0000000000000000e+00  6.9305567146076943e-05 3.4531433766500516e-04 0.0000000000000000e+00  6.5538882346849415e-05 2.9914544903339197e-04 0.0000000000000000e+00  6.0948555990521526e-05 2.5533176373720220e-04 0.0000000000000000e+00  5.6668465731657965e-05 2.1495686493756648e-04 0.0000000000000000e+00  5.1928469124130277e-05 1.7766183999161440e-04 0.0000000000000000e+00  4.7394814118101459e-05 1.4359714085738717e-04 0.0000000000000000e+00  4.2097926880672210e-05 1.1324393308644891e-04 0.0000000000000000e+00  3.7499170498222868e-05 8.5773601066949692e-05 0.0000000000000000e+00  3.2861223285577462e-05 6.2406757629040476e-05 0.0000000000000000e+00  2.7285669161360204e-05 4.1931590378301919e-05 0.0000000000000000e+00  2.2286839005488738e-05 2.5385715479169284e-05 0.0000000000000000e+00  1.6546203667624751e-05 1.2617497208887853e-05 0.0000000000000000e+00  1.1376709691538056e-05 3.7166945286347491e-06 0.0000000000000000e+00  5.3714251612811404e-06 -1.1734533858692261e-06 0.0000000000000000e+00  2.1526713197003387e-06 3.3046375266496887e-06 0.0000000000000000e+00  1.9917019047340652e-05 2.6368219621757867e-03 0.0000000000000000e+00  1.6837513643671417e-05 2.4812245111228235e-03 0.0000000000000000e+00  1.4805191421476763e-05 2.2271824808317566e-03 0.0000000000000000e+00  2.4740999548914147e-06 2.0989710420524202e-05 0.0000000000000000e+00  1.4413004651824481e-05 2.0677084414528701e-03 0.0000000000000000e+00  3.4754791567491691e-06 5.2312908654385272e-05 0.0000000000000000e+00  1.2976669098874887e-05 1.9060034857701228e-03 0.0000000000000000e+00  4.7193717635291095e-06 1.3154258056433089e-04 0.0000000000000000e+00  4.7288757626310511e-06 1.9829494278584140e-04 0.0000000000000000e+00  1.1737431551784963e-05 1.7453930302789634e-03 0.0000000000000000e+00  6.8587431854513080e-06 4.2489082680447241e-04 0.0000000000000000e+00  9.7748768907417493e-06 1.4299258664038862e-03 0.0000000000000000e+00  5.9688591219094737e-06 2.7557013818098807e-04 0.0000000000000000e+00  6.3195177074219353e-06 5.3198730399116702e-04 0.0000000000000000e+00  9.0084263277614838e-06 1.2765976319779266e-03 0.0000000000000000e+00  1.0677060180123224e-05 1.5864622302325774e-03 0.0000000000000000e+00  6.7105790499423541e-06 6.5084166213306353e-04 0.0000000000000000e+00  8.3661317912354608e-06 1.1273641457250900e-03 0.0000000000000000e+00  8.2435710998775537e-06 7.7292629877986658e-04 0.0000000000000000e+00  6.6176151675230882e-06 9.8611415705166590e-04 0.0000000000000000e+00  7.4629015565729850e-06 8.7349218923829010e-04 0.0000000000000000e+00  5.4567076508137431e-06 3.4401353142669605e-04 0.0000000000000000e+00  1.7757235289227893e-05 2.3591740904732633e-03 0.0000000000000000e+00  3.6838189662984251e-06 8.6689202884447303e-05 0.0000000000000000e+00  5.6603719267966815e-05 2.5576616156802539e-03 0.0000000000000000e+00  6.5748369689560711e-06 8.7093422479187201e-06 0.0000000000000000e+00  4.5099430787313105e-05 1.9859484974450257e-03 0.0000000000000000e+00  4.6781643830979170e-05 2.1480519391085676e-03 0.0000000000000000e+00  -4.8991579135246714e-06 3.7588707584804578e-05 0.0000000000000000e+00  -8.7521983688559520e-06 1.6425751513001502e-04 0.0000000000000000e+00  4.0583971848027131e-05 1.5069829247339058e-03 0.0000000000000000e+00  4.3532976025551398e-05 1.8247020295697051e-03 0.0000000000000000e+00  -1.5057192934015581e-05 4.7750574462744648e-04 0.0000000000000000e+00  3.9118355339929966e-05 1.3519297148929304e-03 0.0000000000000000e+00  -1.0601116786877687e-05 2.3871373767103620e-04 0.0000000000000000e+00  -1.6485716121993613e-05 5.9163727994496207e-04 0.0000000000000000e+00  3.7612679663725194e-05 1.2005205861504568e-03 0.0000000000000000e+00  4.2042093589856793e-05 1.6648287152953567e-03 0.0000000000000000e+00  -2.3154857529895362e-05 7.1441868241333892e-04 0.0000000000000000e+00  3.6057846609461969e-05 1.0536645891706076e-03 0.0000000000000000e+00  7.8046682756921835e-07 1.6241562743698542e-06 0.0000000000000000e+00  2.2585328184769087e-06 -4.8089692629281939e-07 0.0000000000000000e+00  -4.1962865356162706e-06 2.7013825226366614e-03 0.0000000000000000e+00  -2.6708752816226608e-06 1.2583620348026508e-05 0.0000000000000000e+00  4.0911521818475137e-05 9.2763709185544408e-04 0.0000000000000000e+00  2.9678869128001044e