<?xml version="1.0"?>
<VTKFile type="UnstructuredGrid"  version="0.1"  >
<UnstructuredGrid>
<Piece  NumberOfPoints="1419" NumberOfCells="2698">
<Points>
<DataArray  type="Float64"  NumberOfComponents="3"  format="ascii">0 0 0  0 0.41 0  2.5 0 0  2.5 0.41 0  0.6 0.19 0  0.6 0.21 0  0.25 0.2 0  0.15 0.2 0  0.2489897948556636 0.21 0  0.2489897948556636 0.19 0  0.6 0.2 0  0 0.3807142857143437 0  0 0.3514285714286952 0  0 0.3221428571430699 0  0 0.29285714285744 0  0 0.2635714285718054 0  0 0.2342857142861561 0  0 0.2050000000005308 0  0 0.175714285714732 0  0 0.1464285714289574 0  0 0.1171428571431897 0  0 0.08785714285737878 0  0 0.05857142857161107 0  0 0.02928571428580012 0  0.03015443760436003 0 0  0.06140001986583606 0 0  0.09377624077125973 0 0  0.1273239957535082 0 0  0.1620856860351972 0 0  0.1981052433264291 0 0  0.235428184091502 0 0  0.2741016576309132 0 0  0.3141745521465447 0 0  0.3556974926295285 0 0  0.3987229542472677 0 0  0.4433053055141081 0 0  0.4895008759286886 0 0  0.5373680609405097 0 0  0.5869673343216626 0 0  0.6383613676634521 0 0  0.6916151138468254 0 0  0.7467958595648856 0 0  0.8039733463919316 0 0  0.8632198139502143 0 0  0.9246101326867038 0 0  0.9882218810934433 0 0  1.054135445558498 0 0  1.122434100542598 0 0  1.193204177141305 0 0  1.266535089879536 0 0  1.342519516046404 0 0  1.421253448503939 0 0  1.502836389106271 0 0  1.587371439758838 0 0  1.674965418777374 0 0  1.765729001825544 0 0  1.859776908880082 0 0  1.957227977487062 0 0  2.058205329869943 0 0  2.162836591189951 0 0  2.271253957290865 0 0  2.383594446803425 0 0  2.5 0.1024999999997612 0  2.5 0.2049999999994743 0  2.5 0.3074999999997183 0  2.383594446803656 0.41 0  2.271253957291315 0.41 0  2.162836591190598 0.41 0  2.058205329870775 0.41 0  1.957227977488067 0.41 0  1.859776908881246 0.41 0  1.765729001826854 0.41 0  1.674965418778818 0.41 0  1.58737143976041 0.41 0  1.502836389107956 0.41 0  1.421253448505726 0.41 0  1.342519516048286 0.41 0  1.266535089881505 0.41 0  1.193204177143353 0.41 0  1.122434100544716 0.41 0  1.05413544556068 0.41 0  0.9882218810956305 0.41 0  0.9246101326886647 0.41 0  0.8632198139519631 0.41 0  0.8039733463934788 0.41 0  0.7467958595662458 0.41 0  0.6916151138480078 0.41 0  0.6383613676644679 0.41 0  0.5869673343225223 0.41 0  0.5373680609412221 0.41 0  0.4895008759292634 0.41 0  0.4433053055145528 0.41 0  0.3987229542475914 0.41 0  0.3556974926297398 0.41 0  0.3141745521466497 0.41 0  0.2741016576310038 0.41 0  0.2354281840915826 0.41 0  0.1981052433265003 0.41 0  0.1620856860352591 0.41 0  0.1273239957535623 0.41 0  0.09377624077128965 0.41 0  0.06140001986584975 0.41 0  0.03015443760436654 0.41 0  0.2497468076502589 0.2050254481002335 0  0.2497468076502614 0.1949745518997913 0  0.2469965252529372 0.1829317073451959 0  0.2439893735792749 0.1762316384219906 0  0.2400332147834255 0.1700443375285386 0  0.2352133972704371 0.1645032867342007 0  0.2296339016332438 0.1597280261969788 0  0.2234150974217223 0.1558215752574715 0  0.2166911463437691 0.1528682099456123 0  0.2096071079204251 0.1509316448471593 0  0.2023158100364996 0.1500536585536553 0  0.194974551899914 0.1502531923497262 0  0.1877417105387872 0.1515259415822739 0  0.1807733240461124 0.153844448527136 0  0.1742197252835808 0.15715869474974 0  0.1682222986673531 0.1613971801805478 0  0.162910430003803 0.1664684656256651 0  0.1583987151779087 0.1722631454351573 0  0.1547844879126891 0.178656207771761 0  0.1521457199348551 0.1855097315605723 0  0.1505393388476355 0.1926758619366523 0  0.1505393388476328 0.2073241380633295 0  0.1521457199348437 0.2144902684393899 0  0.1547844879126531 0.221343792228163 0  0.1583987151778488 0.2277368545647528 0  0.1629104300036858 0.2335315343742052 0  0.1682222986671726 0.2386028198193036 0  0.1742197252833576 0.2428413052501257 0  0.1807733240458683 0.2461555514727623 0  0.1877417105384929 0.2484740584176516 0  0.1949745518995776 0.2497468076502398 0  0.202315810036185 0.2499463414463592 0  0.2096071079201568 0.2490683551528932 0  0.2166911463435495 0.2471317900544655 0  0.2234150974215506 0.2441784247426195 0  0.2296339016331197 0.2402719738031125 0  0.2352133972703547 0.2354967132658811 0  0.2400332147833751 0.2299556624715287 0  0.2439893735792577 0.2237683615780412 0  0.246996525252926 0.2170682926548348 0  0.25645809709277 0.21 0  0.2639263993298655 0.21 0  0.271394701566961 0.21 0  0.2788630038040554 0.21 0  0.2863313060411479 0.21 0  0.2937996082782405 0.21 0  0.301267910515333 0.21 0  0.3087362127524279 0.21 0  0.3162045149895234 0.21 0  0.3236728172265972 0.21 0  0.3311411194636928 0.21 0  0.3386094217007701 0.21 0  0.3460777239378666 0.21 0  0.3535460261749672 0.21 0  0.3610143284120516 0.21 0  0.3684826306491596 0.21 0  0.3759509328862226 0.21 0  0.383419235123329 0.21 0  0.3908875373604028 0.21 0  0.3983558395975142 0.21 0  0.4058241418345938 0.21 0  0.4132924440716992 0.21 0  0.4207607463087888 0.21 0  0.4282290485459029 0.21 0  0.4356973507830418 0.21 0  0.4431656530201649 0.21 0  0.4506339552573136 0.21 0  0.4581022574944306 0.21 0  0.4655705597315852 0.21 0  0.4730388619686996 0.21 0  0.480507164205851 0.21 0  0.4879754664429498 0.21 0  0.4954437686800938 0.21 0  0.502912070917267 0.21 0  0.5103803731544119 0.21 0  0.5178486753915261 0.21 0  0.5253169776286404 0.21 0  0.5327852798657868 0.21 0  0.5402535821029386 0.21 0  0.54772188434007 0.21 0  0.5551901865771842 0.21 0  0.5626584888143201 0.21 0  0.5701267910514778 0.21 0  0.5775950932886138 0.21 0  0.5850633955257281 0.21 0  0.5925316977628483 0.21 0  0.6 0.2050000000000054 0  0.6 0.1950000000000217 0  0.5925316977628897 0.19 0  0.5850633955257988 0.19 0  0.5775950932887378 0.19 0  0.5701267910515998 0.19 0  0.5626584888145268 0.19 0  0.5551901865773963 0.19 0  0.547721884340339 0.19 0  0.5402535821032429 0.19 0  0.5327852798661811 0.19 0  0.5253169776290537 0.19 0  0.5178486753919799 0.19 0  0.5103803731549078 0.19 0  0.502912070917822 0.19 0  0.4954437686807294 0.19 0  0.4879754664436223 0.19 0  0.4805071642065402 0.19 0  0.4730388619694271 0.19 0  0.4655705597323621 0.19 0  0.4581022574952563 0.19 0  0.4506339552581777 0.19 0  0.4431656530210671 0.19 0  0.4356973507839815 0.19 0  0.4282290485468779 0.19 0  0.4207607463097617 0.19 0  0.4132924440726327 0.19 0  0.4058241418354857 0.19 0  0.3983558395983636 0.19 0  0.3908875373612097 0.19 0  0.3834192351240934 0.19 0  0.3759509328869369 0.19 0  0.3684826306498175 0.19 0  0.361014328412667 0.19 0  0.3535460261755617 0.19 0  0.3460777239384295 0.19 0  0.3386094217012945 0.19 0  0.3311411194641595 0.19 0  0.3236728172270245 0.19 0  0.3162045149898895 0.19 0  0.3087362127527544 0.19 0  0.3012679105156187 0.19 0  0.2937996082784807 0.19 0  0.2863313060413428 0.19 0  0.2788630038042048 0.19 0  0.2713947015670686 0.19 0  0.2639263993299336 0.19 0  0.2564580970927985 0.19 0  0.2607803159922026 0.2000727136295815 0  0.5887803774232762 0.2001272386983733 0  0.5745072403740523 0.2002044435018727 0  0.5511891430099709 0.2001122610077113 0  0.2751288526855082 0.20000000000002 0  0.5365194309847112 0.1999999999999436 0  0.2894621222999649 0.1998691686390484 0  0.5215828265105155 0.1999999999999228 0  0.3127789816668748 0.1998657885438805 0  0.3274069683451451 0.2000000000000796 0  0.5066462220363641 0.199999999999908 0  0.3650630746574081 0.199866017807523 0  0.476773013087985 0.1999999999998713 0  0.3417402379596385 0.1998691686391011 0  0.3796850840047755 0.200000000000134 0  0.4618364086138087 0.1999999999998546 0  0.4917096175621762 0.1999999999998808 0  0.3946216884789568 0.2000000000001512 0  0.446899804139621 0.1999999999998389 0  0.4089549580935208 0.1998691686391595 0  0.4322718174608562 0.200127451265745 0  0.4201487168029707 0.1999966199048527 0  0.3528922713220932 0.2000185703532356 0  0.5633122436674589 0.1999814296467508 0  0.3006558810093873 0.1999966199048318 0  0.5815926498168407 0.1966545283159175 0  0.2677053789419034 0.1964246479135325 0  0.5290511287476175 0.1970915826863981 0  0.5439877332217911 0.197091582686394 0  0.2825131256993216 0.2035478995978015 0  0.3199386661080599 0.202908417313604 0  0.4842413153250809 0.1970915826863873 0  0.5141145242734466 0.1970915826863843 0  0.3722167817676917 0.2029084173136195 0  0.4693047108508938 0.1970915826863783 0  0.3348752705822316 0.202908417313609 0  0.3871533862418661 0.2029084173136212 0  0.4543681063767183 0.1970915826863795 0  0.4991779197992749 0.1970915826863902 0  0.4020059614928624 0.203547899597858 0  0.4394315019025246 0.1970915826863714 0  0.2550657455369551 0.2034088125358657 0  0.2548908499171161 0.1966940311614271 0  0.5946539510196798 0.2024302972968126 0  0.267698176732111 0.2039977513680092 0  0.4261685417851465 0.196409292431739 0  0.3590076176283495 0.196411355804271 0  0.5571672426447437 0.2036011176410121 0  0.3066757059912147 0.1964092924317024 0  0.594380730180568 0.1966558399668133 0  0.4842413153245942 0.2040749161535287 0  0.4693047108503577 0.2040749161535231 0  0.3871533862424271 0.1959250838464788 0  0.372246743208829 0.1959123236376545 0  0.5141145242731028 0.2040749161535395 0  0.4543681063761134 0.2040749161535186 0  0.4019979587101454 0.1959834479682427 0  0.4394608940728603 0.2040870543693135 0  0.5439623148931173 0.2040856076781014 0  0.5290511287473298 0.2040749161535501 0  0.4991779197988497 0.2040749161535382 0  0.3347912413592433 0.1959225448935183 0  0.3199680582793816 0.1959123018030061 0  0.2825051229162361 0.1959834479681729 0  0.3590471196690275 0.2036304442587945 0  0.5571594006495384 0.1963685282145804 0  0.3067669986803285 0.203627750582736 0  0.4262598344738712 0.2036568242185335 0  0.5814408164431408 0.2041285596160068 0  0.5688286748170428 0.1961819304477386 0  0.4145905603063645 0.2038180695522843 0  0.3473758401724931 0.2038180695522752 0  0.2950977245128307 0.2038180695522663 0  0.5688286748170693 0.203818069552238 0  0.2950977245127906 0.1961819304477774 0  0.3473758401723931 0.1961819304478349 0  0.4145905603061963 0.1961819304479011 0  0.2601812407614425 0.2056861609747042
[...]
<PointData  Vectors="f_40-0"> 
<DataArray  type="Float64"  Name="f_40-0"  NumberOfComponents="3" format="ascii">0.0000000000000000e+00 0.0000000000000000e+00 0.0000000000000000e+00  0.0000000000000000e+00 0.0000000000000000e+00 0.0000000000000000e+00  0.0000000000000000e+00 0.0000000000000000e+00 0.0000000000000000e+00  0.0000000000000000e+00 0.0000000000000000e+00 0.0000000000000000e+00  -3.1725215362255575e-05 -8.2553558014407977e-05 0.0000000000000000e+00  -2.4593876279028556e-05 -8.8398184738746087e-05 0.0000000000000000e+00  0.0000000000000000e+00 0.0000000000000000e+00 0.0000000000000000e+00  0.0000000000000000e+00 0.0000000000000000e+00 0.0000000000000000e+00  0.0000000000000000e+00 0.0000000000000000e+00 0.0000000000000000e+00  0.0000000000000000e+00 0.0000000000000000e+00 0.0000000000000000e+00  -2.8466686688611570e-05 -8.5475017462154190e-05 0.0000000000000000e+00  1.2363091469245590e-02 0.0000000000000000e+00 0.0000000000000000e+00  2.2824168866301064e-02 0.0000000000000000e+00 0.0000000000000000e+00  3.1383232191163964e-02 0.0000000000000000e+00 0.0000000000000000e+00  3.8040281443844207e-02 0.0000000000000000e+00 0.0000000000000000e+00  4.2795316624340926e-02 0.0000000000000000e+00 0.0000000000000000e+00  4.5648337732653831e-02 0.0000000000000000e+00 0.0000000000000000e+00  4.6599344768780089e-02 0.0000000000000000e+00 0.0000000000000000e+00  4.5648337732711514e-02 0.0000000000000000e+00 0.0000000000000000e+00  4.2795316624440007e-02 0.0000000000000000e+00 0.0000000000000000e+00  3.8040281443966914e-02 0.0000000000000000e+00 0.0000000000000000e+00  3.1383232191280530e-02 0.0000000000000000e+00 0.0000000000000000e+00  2.2824168866400530e-02 0.0000000000000000e+00 0.0000000000000000e+00  1.2363091469301635e-02 0.0000000000000000e+00 0.0000000000000000e+00  0.0000000000000000e+00 0.0000000000000000e+00 0.0000000000000000e+00  0.0000000000000000e+00 0.0000000000000000e+00 0.0000000000000000e+00  0.0000000000000000e+00 0.0000000000000000e+00 0.0000000000000000e+00  0.0000000000000000e+00 0.0000000000000000e+00 0.0000000000000000e+00  0.0000000000000000e+00 0.0000000000000000e+00 0.0000000000000000e+00  0.0000000000000000e+00 0.0000000000000000e+00 0.0000000000000000e+00  0.0000000000000000e+00 0.0000000000000000e+00 0.0000000000000000e+00  0.0000000000000000e+00 0.0000000000000000e+00 0.0000000000000000e+00  0.0000000000000000e+00 0.0000000000000000e+00 0.0000000000000000e+00  0.0000000000000000e+00 0.0000000000000000e+00 0.0000000000000000e+00  0.0000000000000000e+00 0.0000000000000000e+00 0.0000000000000000e+00  0.0000000000000000e+00 0.0000000000000000e+00 0.0000000000000000e+00  0.0000000000000000e+00 0.0000000000000000e+00 0.0000000000000000e+00  0.0000000000000000e+00 0.0000000000000000e+00 0.0000000000000000e+00  0.0000000000000000e+00 0.0000000000000000e+00 0.0000000000000000e+00  0.0000000000000000e+00 0.0000000000000000e+00 0.0000000000000000e+00  0.0000000000000000e+00 0.0000000000000000e+00 0.0000000000000000e+00  0.0000000000000000e+00 0.0000000000000000e+00 0.0000000000000000e+00  0.0000000000000000e+00 0.0000000000000000e+00 0.0000000000000000e+00  0.0000000000000000e+00 0.0000000000000000e+00 0.0000000000000000e+00  0.0000000000000000e+00 0.0000000000000000e+00 0.0000000000000000e+00  0.0000000000000000e+00 0.0000000000000000e+00 0.0000000000000000e+00  0.0000000000000000e+00 0.0000000000000000e+00 0.0000000000000000e+00  0.0000000000000000e+00 0.0000000000000000e+00 0.0000000000000000e+00  0.0000000000000000e+00 0.0000000000000000e+00 0.0000000000000000e+00  0.0000000000000000e+00 0.0000000000000000e+00 0.0000000000000000e+00  0.0000000000000000e+00 0.0000000000000000e+00 0.0000000000000000e+00  0.0000000000000000e+00 0.0000000000000000e+00 0.0000000000000000e+00  0.0000000000000000e+00 0.0000000000000000e+00 0.0000000000000000e+00  0.0000000000000000e+00 0.0000000000000000e+00 0.0000000000000000e+00  0.0000000000000000e+00 0.0000000000000000e+00 0.0000000000000000e+00  0.0000000000000000e+00 0.0000000000000000e+00 0.0000000000000000e+00  0.0000000000000000e+00 0.0000000000000000e+00 0.0000000000000000e+00  0.0000000000000000e+00 0.0000000000000000e+00 0.0000000000000000e+00  0.0000000000000000e+00 0.0000000000000000e+00 0.0000000000000000e+00  0.0000000000000000e+00 0.0000000000000000e+00 0.0000000000000000e+00  0.0000000000000000e+00 0.0000000000000000e+00 0.0000000000000000e+00  0.0000000000000000e+00 0.0000000000000000e+00 0.0000000000000000e+00  3.3550632560619173e-02 4.9546158393569254e-04 0.0000000000000000e+00  2.8201111361462260e-02 -1.2289301265956914e-04 0.0000000000000000e+00  3.3157318477651930e-02 -5.2639680765178946e-04 0.0000000000000000e+00  0.0000000000000000e+00 0.0000000000000000e+00 0.0000000000000000e+00  0.0000000000000000e+00 0.0000000000000000e+00 0.0000000000000000e+00  0.0000000000000000e+00 0.0000000000000000e+00 0.0000000000000000e+00  0.0000000000000000e+00 0.0000000000000000e+00 0.0000000000000000e+00  0.0000000000000000e+00 0.0000000000000000e+00 0.0000000000000000e+00  0.0000000000000000e+00 0.0000000000000000e+00 0.0000000000000000e+00  0.0000000000000000e+00 0.0000000000000000e+00 0.0000000000000000e+00  0.0000000000000000e+00 0.0000000000000000e+00 0.0000000000000000e+00  0.0000000000000000e+00 0.0000000000000000e+00 0.0000000000000000e+00  0.0000000000000000e+00 0.0000000000000000e+00 0.0000000000000000e+00  0.0000000000000000e+00 0.0000000000000000e+00 0.0000000000000000e+00  0.0000000000000000e+00 0.0000000000000000e+00 0.0000000000000000e+00  0.0000000000000000e+00 0.0000000000000000e+00 0.0000000000000000e+00  0.0000000000000000e+00 0.0000000000000000e+00 0.0000000000000000e+00  0.0000000000000000e+00 0.0000000000000000e+00 0.0000000000000000e+00  0.0000000000000000e+00 0.0000000000000000e+00 0.0000000000000000e+00  0.0000000000000000e+00 0.0000000000000000e+00 0.0000000000000000e+00  0.0000000000000000e+00 0.0000000000000000e+00 0.0000000000000000e+00  0.0000000000000000e+00 0.0000000000000000e+00 0.0000000000000000e+00  0.0000000000000000e+00 0.0000000000000000e+00 0.0000000000000000e+00  0.0000000000000000e+00 0.0000000000000000e+00 0.0000000000000000e+00  0.0000000000000000e+00 0.0000000000000000e+00 0.0000000000000000e+00  0.0000000000000000e+00 0.0000000000000000e+00 0.0000000000000000e+00  0.0000000000000000e+00 0.0000000000000000e+00 0.0000000000000000e+00  0.0000000000000000e+00 0.0000000000000000e+00 0.0000000000000000e+00  0.0000000000000000e+00 0.0000000000000000e+00 0.0000000000000000e+00  0.0000000000000000e+00 0.0000000000000000e+00 0.0000000000000000e+00  0.0000000000000000e+00 0.0000000000000000e+00 0.0000000000000000e+00  0.0000000000000000e+00 0.0000000000000000e+00 0.0000000000000000e+00  0.0000000000000000e+00 0.0000000000000000e+00 0.0000000000000000e+00  0.0000000000000000e+00 0.0000000000000000e+00 0.0000000000000000e+00  0.0000000000000000e+00 0.0000000000000000e+00 0.0000000000000000e+00  0.0000000000000000e+00 0.0000000000000000e+00 0.0000000000000000e+00  0.0000000000000000e+00 0.0000000000000000e+00 0.0000000000000000e+00  0.0000000000000000e+00 0.0000000000000000e+00 0.0000000000000000e+00  0.0000000000000000e+00 0.0000000000000000e+00 0.0000000000000000e+00  0.0000000000000000e+00 0.0000000000000000e+00 0.0000000000000000e+00  0.0000000000000000e+00 0.0000000000000000e+00 0.0000000000000000e+00  0.0000000000000000e+00 0.0000000000000000e+00 0.0000000000000000e+00  0.0000000000000000e+00 0.0000000000000000e+00 0.0000000000000000e+00  0.0000000000000000e+00 0.0000000000000000e+00 0.0000000000000000e+00  0.0000000000000000e+00 0.0000000000000000e+00 0.0000000000000000e+00  0.0000000000000000e+00 0.0000000000000000e+00 0.0000000000000000e+00  0.0000000000000000e+00 0.0000000000000000e+00 0.0000000000000000e+00  0.0000000000000000e+00 0.0000000000000000e+00 0.0000000000000000e+00  0.0000000000000000e+00 0.0000000000000000e+00 0.0000000000000000e+00  0.0000000000000000e+00 0.0000000000000000e+00 0.0000000000000000e+00  0.0000000000000000e+00 0.0000000000000000e+00 0.0000000000000000e+00  0.0000000000000000e+00 0.0000000000000000e+00 0.0000000000000000e+00  0.0000000000000000e+00 0.0000000000000000e+00 0.0000000000000000e+00  0.0000000000000000e+00 0.0000000000000000e+00 0.0000000000000000e+00  0.0000000000000000e+00 0.0000000000000000e+00 0.0000000000000000e+00  0.0000000000000000e+00 0.0000000000000000e+00 0.0000000000000000e+00  0.0000000000000000e+00 0.0000000000000000e+00 0.0000000000000000e+00  0.0000000000000000e+00 0.0000000000000000e+00 0.0000000000000000e+00  0.0000000000000000e+00 0.0000000000000000e+00 0.0000000000000000e+00  0.0000000000000000e+00 0.0000000000000000e+00 0.0000000000000000e+00  0.0000000000000000e+00 0.0000000000000000e+00 0.0000000000000000e+00  0.0000000000000000e+00 0.0000000000000000e+00 0.0000000000000000e+00  0.0000000000000000e+00 0.0000000000000000e+00 0.0000000000000000e+00  0.0000000000000000e+00 0.0000000000000000e+00 0.0000000000000000e+00  0.0000000000000000e+00 0.0000000000000000e+00 0.0000000000000000e+00  0.0000000000000000e+00 0.0000000000000000e+00 0.0000000000000000e+00  0.0000000000000000e+00 0.0000000000000000e+00 0.0000000000000000e+00  0.0000000000000000e+00 0.0000000000000000e+00 0.0000000000000000e+00  0.0000000000000000e+00 0.0000000000000000e+00 0.0000000000000000e+00  0.0000000000000000e+00 0.0000000000000000e+00 0.0000000000000000e+00  0.0000000000000000e+00 0.0000000000000000e+00 0.0000000000000000e+00  0.0000000000000000e+00 0.0000000000000000e+00 0.0000000000000000e+00  0.0000000000000000e+00 0.0000000000000000e+00 0.0000000000000000e+00  0.0000000000000000e+00 0.0000000000000000e+00 0.0000000000000000e+00  0.0000000000000000e+00 0.0000000000000000e+00 0.0000000000000000e+00  0.0000000000000000e+00 0.0000000000000000e+00 0.0000000000000000e+00  0.0000000000000000e+00 0.0000000000000000e+00 0.0000000000000000e+00  0.0000000000000000e+00 0.0000000000000000e+00 0.0000000000000000e+00  0.0000000000000000e+00 0.0000000000000000e+00 0.0000000000000000e+00  0.0000000000000000e+00 0.0000000000000000e+00 0.0000000000000000e+00  0.0000000000000000e+00 0.0000000000000000e+00 0.0000000000000000e+00  -5.5661177874656523e-08 -5.1414669918018616e-06 0.0000000000000000e+00  4.9249153889070735e-08 -5.6734930376891054e-06 0.0000000000000000e+00  3.8872934535722362e-07 -6.0260074731987341e-06 0.0000000000000000e+00  8.5559380283906488e-07 -6.3339803822204217e-06 0.0000000000000000e+00  1.3236570380384514e-06 -6.7393472186753614e-06 0.0000000000000000e+00  1.7646894713199653e-06 -7.3045634279356181e-06 0.0000000000000000e+00  2.1453421478706259e-06 -7.9529241568746543e-06 0.0000000000000000e+00  2.4722181980877666e-06 -8.7178324964307949e-06 0.0000000000000000e+00  2.7893029418684185e-06 -9.5800106191306051e-06 0.0000000000000000e+00  3.0199623765284149e-06 -1.0524394241451276e-05 0.0000000000000000e+00  3.2365314479953697e-06 -1.1591332140697891e-05 0.0000000000000000e+00  3.3697635158782650e-06 -1.2725689384989176e-05 0.0000000000000000e+00  3.4746985637828473e-06 -1.3965715104652444e-05 0.0000000000000000e+00  3.5151985973247161e-06 -1.5282211475105802e-05 0.0000000000000000e+00  3.4961093825578714e-06 -1.6688800880483066e-05 0.0000000000000000e+00  3.4581975723685744e-06 -1.8180360016440750e-05 0.0000000000000000e+00  3.3357282669477235e-06 -1.9727321834712075e-05 0.0000000000000000e+00  3.1865742559148782e-06 -2.1381652917418659e-05 0.0000000000000000e+00  2.9592575448989450e-06 -2.3074271902816136e-05 0.0000000000000000e+00  2.7025961068415825e-06 -2.4866582753622372e-05 0.0000000000000000e+00  2.3744979646256932e-06 -2.6695454323579887e-05 0.0000000000000000e+00  2.0006792536838429e-06 -2.8607010832205608e-05 0.0000000000000000e+00  1.5723104249890409e-06 -3.0567697194279069e-05 0.0000000000000000e+00  1.0827109601024590e-06 -3.2586947183245705e-05 0.0000000000000000e+00  5.6543146276858638e-07 -3.4664271511927753e-05 0.0000000000000000e+00  -2.4261794899416432e-08 -3.6772087481315580e-05 0.0000000000000000e+00  -6.6388551598430828e-07 -3.8961093402523761e-05 0.0000000000000000e+00  -1.3607623552278592e-06 -4.1158646602814811e-05 0.0000000000000000e+00  -2.1079415395797451e-06 -4.3430453150097208e-05 0.0000000000000000e+00  -2.9110769379140807e-06 -4.5709492813996329e-05 0.0000000000000000e+00  -3.7647057365528895e-06 -4.8055339399803455e-05 0.0000000000000000e+00  -4.6752714284716458e-06 -5.0402625011135318e-05 0.0000000000000000e+00  -5.6346511911084034e-06 -5.2812885318109725e-05 0.0000000000000000e+00  -6.6521488486897597e-06 -5.5215285820132318e-05 0.0000000000000000e+00  -7.7228228691538668e-06 -5.7678901733463099e-05 0.0000000000000000e+00  -8.8479441953082445e-06 -6.0131774481663403e-05 0.0000000000000000e+00  -1.0023863181288452e-05 -6.2637719391106449e-05 0.0000000000000000e+00  -1.1254791692870723e-05 -6.5129849665219007e-05 0.0000000000000000e+00  -1.2539320406119405e-05 -6.7670080377155880e-05 0.0000000000000000e+00  -1.3881113938315334e-05 -7.0192527450791805e-05 0.0000000000000000e+00  -1.5283324966358760e-05 -7.2747442158320930e-05 0.0000000000000000e+00  -1.6728679547560519e-05 -7.5299411306419925e-05 0.0000000000000000e+00  -1.8239390091753817e-05 -7.7864694252590744e-05 0.0000000000000000e+00  -1.9781496452327533e-05 -8.0433865820428842e-05 0.0000000000000000e+00  -2.1386966018922249e-05 -8.2990399276925287e-05 0.0000000000000000e+00  -2.3013273194790149e-05 -8.5592988444786500e-05 0.0000000000000000e+00  -2.6642689025406189e-05 -8.6936018827339003e-05 0.0000000000000000e+00  -3.0193237114709703e-05 -8.4017707616912282e-05 0.0000000000000000e+00  -3.0129894910257409e-05 -8.0039768384760506e-05 0.0000000000000000e+00  -2.8480829846304864e-05 -7.7328000884666041e-05 0.0000000000000000e+00  -2.6857218049652404e-05 -7.4593915269574062e-05 0.0000000000000000e+00  -2.5290470650904710e-05 -7.1885387319566238e-05 0.0000000000000000e+00  -2.3757606550259437e-05 -6.9183540546963030e-05 0.0000000000000000e+00  -2.2288800904999351e-05 -6.6492058883629946e-05 0.0000000000000000e+00  -2.0855394999683840e-05 -6.3817887308011858e-05 0.0000000000000000e+00  -1.9482375930146832e-05 -6.1138690539173622e-05 0.0000000000000000e+00  -1.8152925115192299e-05 -5.8501163872841682e-05 0.0000000000000000e+00  -1.6877567829748453e-05 -5.5849416580395905e-05 0.0000000000000000e+00  -1.5643883287010129e-05 -5.3246465484592892e-05 0.0000000000000000e+00  -1.4465702636954685e-05 -5.0634477950638943e-05 0.0000000000000000e+00  -1.3326996583598168e-05 -4.8075756227352938e-05 0.0000000000000000e+00  -1.2243752557501045e-05 -4.5513152408996606e-05 0.0000000000000000e+00  -1.1197242307119098e-05 -4.3008077452738530e-05 0.0000000000000000e+00  -1.0208065359718566e-05 -4.0503902737260936e-05 0.0000000000000000e+00  -9.2542879085404869e-06 -3.8062202996520989e-05 0.0000000000000000e+00  -8.3594635081667396e-06 -3.5626931683727957e-05 0.0000000000000000e+00  -7.4972392147420383e-06 -3.3260545112822126e-05 0.0000000000000000e+00  -6.6950163393555534e-06 -3.0906841578348010e-05 0.0000000000000000e+00  -5.9227345648354571e-06 -2.8626751223110055e-05 0.0000000000000000e+00  -5.2123101549049110e-06 -2.6366714887981008e-05 0.0000000000000000e+00  -4.5375114496309588e-06 -2.4175688852563266e-05 0.0000000000000000e+00  -3.9113873606711519e-06 -2.2026568949450705e-05 0.0000000000000000e+00  -3.3420516115242749e-06 -1.9944689475235179e-05 0.0000000000000000e+00  -2.7882486921035950e-06 -1.7915759235023179e-05 0.0000000000000000e+00  -2.2993987271212457e-06 -1.5939781290342394e-05 0.0000000000000000e+00  -1.8465286707858823e-06 -1.4055770881870170e-05 0.0000000000000000e+00  -1.4470098403669984e-06 -1.2210262710279861e-05 0.0000000000000000e+00  -1.0859395004822609e-06 -1.0467890043176388e-05 0.0000000000000000e+00  -7.7684835353670155e-07 -8.7677251165877163e-06 0.0000000000000000e+00  -5.0381646039006570e-07 -7.1759860242477738e-06 0.0000000000000000e+00  -2.8059175818444537e-07 -5.6409227974003502e-06 0.0000000000000000e+00  -1.1119427479489100e-07 -4.2100470853370572e-06 0.0000000000000000e+00  4.8536884899157835e-08 -2.8500539227769935e-06 0.0000000000000000e+00  1.4299232951955229e-07 -1.5806814692407606e-06 0.0000000000000000e+00  2.0323145557641581e-07 -4.2811223697264047e-07 0.0000000000000000e+00  2.1119047246043183e-07 6.5472507604714349e-07 0.0000000000000000e+00  1.8996179850620579e-07 1.6116438105875540e-06 0.0000000000000000e+00  1.1634858223751672e-07 2.4887226546482015e-06 0.0000000000000000e+00  -7.7372454836301839e-09 3.2415141452935522e-06 0.0000000000000000e+00  -1.3198623602354843e-07 3.9024936369846535e-06 0.0000000000000000e+00  -3.2565467036560606e-07 4.4898676588679167e-06 0.0000000000000000e+00  -4.6729511192280095e-07 4.9455925544630666e-06 0.0000000000000000e+00  -5.3251314493396417e-07 5.1295235220561271e-06 0.0000000000000000e+00  -3.4273325202146624e-07 4.8985535143354908e-06 0.0000000000000000e+00  -1.1932600553920758e-06 -1.4457947034664590e-07 0.0000000000000000e+00  -2.5821651595980499e-05 -8.1510250247496943e-05 0.0000000000000000e+00  -2.2633502885682439e-05 -7.6475080474790245e-05 0.0000000000000000e+00  -1.8014416376815226e-05 -6.8245549689109736e-05 0.0000000000000000e+00  6.4110208967079006e-08 -6.4651077937269450e-07 0.0000000000000000e+00  -1.5394048094498414e-05 -6.3097605795062926e-05 0.0000000000000000e+00  6.9037482649269147e-07 -1.5184881030433589e-06 0.0000000000000000e+00  -1.2883840864871808e-05 -5.7950861476505236e-05 0.0000000000000000e+00  1.3814818222247870e-06 -3.8978899620342153e-06 0.0000000000000000e+00  1.6178306667406698e-06 -5.9582590433896173e-06 0.0000000000000000e+00  -1.0577392077451583e-05 -5.2882750362019135e-05 0.0000000000000000e+00  1.3582972537313823e-06 -1.2642355506755873e-05 0.0000000000000000e+00  -6.5698009097760914e-06 -4.3055800776930890e-05 0.0000000000000000e+00  1.6522510465736687e-06 -8.1960974295012555e-06 0.0000000000000000e+00  9.6313094722343698e-07 -1.5890318710321337e-05 0.0000000000000000e+00  -4.8662902055406859e-06 -3.8338293175963152e-05 0.0000000000000000e+00  -8.4730352909522335e-06 -4.7910867923120127e-05 0.0000000000000000e+00  3.4637366329497964e-07 -1.9431009318342539e-05 0.0000000000000000e+00  -3.3622321970924706e-06 -3.3781575605550949e-05 0.0000000000000000e+00  -4.5910037279318309e-07 -2.3024272436628550e-05 0.0000000000000000e+00  -2.0395478691685922e-06 -2.9548740978278229e-05 0.0000000000000000e+00  -1.1762861275168814e-06 -2.6100652214306133e-05 0.0000000000000000e+00  1.5807600244076867e-06 -1.0306234476037586e-05 0.0000000000000000e+00  -2.0433552672755877e-05 -7.2461632263144627e-05 0.0000000000000000e+00  1.0688848076050692e-06 -2.6189053082414749e-06 0.0000000000000000e+00  -2.5426633804294899e-05 -7.7972993966085157e-05 0.0000000000000000e+00  -5.6868081524919606e-07 1.7194434130364682e-06 0.0000000000000000e+00  -1.5113449514087498e-05 -5.9541751048054794e-05 0.0000000000000000e+00  -1.7737164704268280e-05 -6.4756836892638998e-05 0.0000000000000000e+00  6.4129939232786340e-07 -2.9934384961819993e-06 0.0000000000000000e+00  1.9187404012048294e-06 -6.3808767020208723e-06 0.0000000000000000e+00  -8.4393514163418777e-06 -4.4383686295395126e-05 0.0000000000000000e+00  -1.2690036776218956e-05 -5.4395192813038827e-05 0.0000000000000000e+00  1.8303312654649591e-06 -1.5590981636503493e-05 0.0000000000000000e+00  -6.6090272163376386e-06 -3.9558296719310380e-05 0.0000000000000000e+00  2.1307165761755253e-06 -8.5705360809606192e-06 0.0000000000000000e+00  1.3633808977017170e-06 -1.8955243848310980e-05 0.0000000000000000e+00  -4.9743057179064729e-06 -3.4882414855239173e-05 0.0000000000000000e+00  -1.0466102115876826e-05 -4.9336011230804545e-05 0.0000000000000000e+00  8.6972822633495634e-07 -2.2862036186619994e-05 0.0000000000000000e+00  -3.5332751838023651e-06 -3.0379153020309685e-05 0.0000000000000000e+00  -1.1433338269362107e-06 -1.2322278598664713e-06 0.0000000000000000e+00  -1.1677290247434284e-06 1.0700752003837787e-06 0.0000000000000000e+00  -2.6361684707546982e-05 -8.4246337354518377e-05 0.0000000000000