<?xml version="1.0"?>
<VTKFile type="UnstructuredGrid"  version="0.1"  >
<UnstructuredGrid>
<Piece  NumberOfPoints="1419" NumberOfCells="2698">
<Points>
<DataArray  type="Float64"  NumberOfComponents="3"  format="ascii">0 0 0  0 0.41 0  2.5 0 0  2.5 0.41 0  0.6 0.19 0  0.6 0.21 0  0.25 0.2 0  0.15 0.2 0  0.2489897948556636 0.21 0  0.2489897948556636 0.19 0  0.6 0.2 0  0 0.3807142857143437 0  0 0.3514285714286952 0  0 0.3221428571430699 0  0 0.29285714285744 0  0 0.2635714285718054 0  0 0.2342857142861561 0  0 0.2050000000005308 0  0 0.175714285714732 0  0 0.1464285714289574 0  0 0.1171428571431897 0  0 0.08785714285737878 0  0 0.05857142857161107 0  0 0.02928571428580012 0  0.03015443760436003 0 0  0.06140001986583606 0 0  0.09377624077125973 0 0  0.1273239957535082 0 0  0.1620856860351972 0 0  0.1981052433264291 0 0  0.235428184091502 0 0  0.2741016576309132 0 0  0.3141745521465447 0 0  0.3556974926295285 0 0  0.3987229542472677 0 0  0.4433053055141081 0 0  0.4895008759286886 0 0  0.5373680609405097 0 0  0.5869673343216626 0 0  0.6383613676634521 0 0  0.6916151138468254 0 0  0.7467958595648856 0 0  0.8039733463919316 0 0  0.8632198139502143 0 0  0.9246101326867038 0 0  0.9882218810934433 0 0  1.054135445558498 0 0  1.122434100542598 0 0  1.193204177141305 0 0  1.266535089879536 0 0  1.342519516046404 0 0  1.421253448503939 0 0  1.502836389106271 0 0  1.587371439758838 0 0  1.674965418777374 0 0  1.765729001825544 0 0  1.859776908880082 0 0  1.957227977487062 0 0  2.058205329869943 0 0  2.162836591189951 0 0  2.271253957290865 0 0  2.383594446803425 0 0  2.5 0.1024999999997612 0  2.5 0.2049999999994743 0  2.5 0.3074999999997183 0  2.383594446803656 0.41 0  2.271253957291315 0.41 0  2.162836591190598 0.41 0  2.058205329870775 0.41 0  1.957227977488067 0.41 0  1.859776908881246 0.41 0  1.765729001826854 0.41 0  1.674965418778818 0.41 0  1.58737143976041 0.41 0  1.502836389107956 0.41 0  1.421253448505726 0.41 0  1.342519516048286 0.41 0  1.266535089881505 0.41 0  1.193204177143353 0.41 0  1.122434100544716 0.41 0  1.05413544556068 0.41 0  0.9882218810956305 0.41 0  0.9246101326886647 0.41 0  0.8632198139519631 0.41 0  0.8039733463934788 0.41 0  0.7467958595662458 0.41 0  0.6916151138480078 0.41 0  0.6383613676644679 0.41 0  0.5869673343225223 0.41 0  0.5373680609412221 0.41 0  0.4895008759292634 0.41 0  0.4433053055145528 0.41 0  0.3987229542475914 0.41 0  0.3556974926297398 0.41 0  0.3141745521466497 0.41 0  0.2741016576310038 0.41 0  0.2354281840915826 0.41 0  0.1981052433265003 0.41 0  0.1620856860352591 0.41 0  0.1273239957535623 0.41 0  0.09377624077128965 0.41 0  0.06140001986584975 0.41 0  0.03015443760436654 0.41 0  0.2497468076502589 0.2050254481002335 0  0.2497468076502614 0.1949745518997913 0  0.2469965252529372 0.1829317073451959 0  0.2439893735792749 0.1762316384219906 0  0.2400332147834255 0.1700443375285386 0  0.2352133972704371 0.1645032867342007 0  0.2296339016332438 0.1597280261969788 0  0.2234150974217223 0.1558215752574715 0  0.2166911463437691 0.1528682099456123 0  0.2096071079204251 0.1509316448471593 0  0.2023158100364996 0.1500536585536553 0  0.194974551899914 0.1502531923497262 0  0.1877417105387872 0.1515259415822739 0  0.1807733240461124 0.153844448527136 0  0.1742197252835808 0.15715869474974 0  0.1682222986673531 0.1613971801805478 0  0.162910430003803 0.1664684656256651 0  0.1583987151779087 0.1722631454351573 0  0.1547844879126891 0.178656207771761 0  0.1521457199348551 0.1855097315605723 0  0.1505393388476355 0.1926758619366523 0  0.1505393388476328 0.2073241380633295 0  0.1521457199348437 0.2144902684393899 0  0.1547844879126531 0.221343792228163 0  0.1583987151778488 0.2277368545647528 0  0.1629104300036858 0.2335315343742052 0  0.1682222986671726 0.2386028198193036 0  0.1742197252833576 0.2428413052501257 0  0.1807733240458683 0.2461555514727623 0  0.1877417105384929 0.2484740584176516 0  0.1949745518995776 0.2497468076502398 0  0.202315810036185 0.2499463414463592 0  0.2096071079201568 0.2490683551528932 0  0.2166911463435495 0.2471317900544655 0  0.2234150974215506 0.2441784247426195 0  0.2296339016331197 0.2402719738031125 0  0.2352133972703547 0.2354967132658811 0  0.2400332147833751 0.2299556624715287 0  0.2439893735792577 0.2237683615780412 0  0.246996525252926 0.2170682926548348 0  0.25645809709277 0.21 0  0.2639263993298655 0.21 0  0.271394701566961 0.21 0  0.2788630038040554 0.21 0  0.2863313060411479 0.21 0  0.2937996082782405 0.21 0  0.301267910515333 0.21 0  0.3087362127524279 0.21 0  0.3162045149895234 0.21 0  0.3236728172265972 0.21 0  0.3311411194636928 0.21 0  0.3386094217007701 0.21 0  0.3460777239378666 0.21 0  0.3535460261749672 0.21 0  0.3610143284120516 0.21 0  0.3684826306491596 0.21 0  0.3759509328862226 0.21 0  0.383419235123329 0.21 0  0.3908875373604028 0.21 0  0.3983558395975142 0.21 0  0.4058241418345938 0.21 0  0.4132924440716992 0.21 0  0.4207607463087888 0.21 0  0.4282290485459029 0.21 0  0.4356973507830418 0.21 0  0.4431656530201649 0.21 0  0.4506339552573136 0.21 0  0.4581022574944306 0.21 0  0.4655705597315852 0.21 0  0.4730388619686996 0.21 0  0.480507164205851 0.21 0  0.4879754664429498 0.21 0  0.4954437686800938 0.21 0  0.502912070917267 0.21 0  0.5103803731544119 0.21 0  0.5178486753915261 0.21 0  0.5253169776286404 0.21 0  0.5327852798657868 0.21 0  0.5402535821029386 0.21 0  0.54772188434007 0.21 0  0.5551901865771842 0.21 0  0.5626584888143201 0.21 0  0.5701267910514778 0.21 0  0.5775950932886138 0.21 0  0.5850633955257281 0.21 0  0.5925316977628483 0.21 0  0.6 0.2050000000000054 0  0.6 0.1950000000000217 0  0.5925316977628897 0.19 0  0.5850633955257988 0.19 0  0.5775950932887378 0.19 0  0.5701267910515998 0.19 0  0.5626584888145268 0.19 0  0.5551901865773963 0.19 0  0.547721884340339 0.19 0  0.5402535821032429 0.19 0  0.5327852798661811 0.19 0  0.5253169776290537 0.19 0  0.5178486753919799 0.19 0  0.5103803731549078 0.19 0  0.502912070917822 0.19 0  0.4954437686807294 0.19 0  0.4879754664436223 0.19 0  0.4805071642065402 0.19 0  0.4730388619694271 0.19 0  0.4655705597323621 0.19 0  0.4581022574952563 0.19 0  0.4506339552581777 0.19 0  0.4431656530210671 0.19 0  0.4356973507839815 0.19 0  0.4282290485468779 0.19 0  0.4207607463097617 0.19 0  0.4132924440726327 0.19 0  0.4058241418354857 0.19 0  0.3983558395983636 0.19 0  0.3908875373612097 0.19 0  0.3834192351240934 0.19 0  0.3759509328869369 0.19 0  0.3684826306498175 0.19 0  0.361014328412667 0.19 0  0.3535460261755617 0.19 0  0.3460777239384295 0.19 0  0.3386094217012945 0.19 0  0.3311411194641595 0.19 0  0.3236728172270245 0.19 0  0.3162045149898895 0.19 0  0.3087362127527544 0.19 0  0.3012679105156187 0.19 0  0.2937996082784807 0.19 0  0.2863313060413428 0.19 0  0.2788630038042048 0.19 0  0.2713947015670686 0.19 0  0.2639263993299336 0.19 0  0.2564580970927985 0.19 0  0.2607803159922026 0.2000727136295815 0  0.5887803774232762 0.2001272386983733 0  0.5745072403740523 0.2002044435018727 0  0.5511891430099709 0.2001122610077113 0  0.2751288526855082 0.20000000000002 0  0.5365194309847112 0.1999999999999436 0  0.2894621222999649 0.1998691686390484 0  0.5215828265105155 0.1999999999999228 0  0.3127789816668748 0.1998657885438805 0  0.3274069683451451 0.2000000000000796 0  0.5066462220363641 0.199999999999908 0  0.3650630746574081 0.199866017807523 0  0.476773013087985 0.1999999999998713 0  0.3417402379596385 0.1998691686391011 0  0.3796850840047755 0.200000000000134 0  0.4618364086138087 0.1999999999998546 0  0.4917096175621762 0.1999999999998808 0  0.3946216884789568 0.2000000000001512 0  0.446899804139621 0.1999999999998389 0  0.4089549580935208 0.1998691686391595 0  0.4322718174608562 0.200127451265745 0  0.4201487168029707 0.1999966199048527 0  0.3528922713220932 0.2000185703532356 0  0.5633122436674589 0.1999814296467508 0  0.3006558810093873 0.1999966199048318 0  0.5815926498168407 0.1966545283159175 0  0.2677053789419034 0.1964246479135325 0  0.5290511287476175 0.1970915826863981 0  0.5439877332217911 0.197091582686394 0  0.2825131256993216 0.2035478995978015 0  0.3199386661080599 0.202908417313604 0  0.4842413153250809 0.1970915826863873 0  0.5141145242734466 0.1970915826863843 0  0.3722167817676917 0.2029084173136195 0  0.4693047108508938 0.1970915826863783 0  0.3348752705822316 0.202908417313609 0  0.3871533862418661 0.2029084173136212 0  0.4543681063767183 0.1970915826863795 0  0.4991779197992749 0.1970915826863902 0  0.4020059614928624 0.203547899597858 0  0.4394315019025246 0.1970915826863714 0  0.2550657455369551 0.2034088125358657 0  0.2548908499171161 0.1966940311614271 0  0.5946539510196798 0.2024302972968126 0  0.267698176732111 0.2039977513680092 0  0.4261685417851465 0.196409292431739 0  0.3590076176283495 0.196411355804271 0  0.5571672426447437 0.2036011176410121 0  0.3066757059912147 0.1964092924317024 0  0.594380730180568 0.1966558399668133 0  0.4842413153245942 0.2040749161535287 0  0.4693047108503577 0.2040749161535231 0  0.3871533862424271 0.1959250838464788 0  0.372246743208829 0.1959123236376545 0  0.5141145242731028 0.2040749161535395 0  0.4543681063761134 0.2040749161535186 0  0.4019979587101454 0.1959834479682427 0  0.4394608940728603 0.2040870543693135 0  0.5439623148931173 0.2040856076781014 0  0.5290511287473298 0.2040749161535501 0  0.4991779197988497 0.2040749161535382 0  0.3347912413592433 0.1959225448935183 0  0.3199680582793816 0.1959123018030061 0  0.2825051229162361 0.1959834479681729 0  0.3590471196690275 0.2036304442587945 0  0.5571594006495384 0.1963685282145804 0  0.3067669986803285 0.203627750582736 0  0.4262598344738712 0.2036568242185335 0  0.5814408164431408 0.2041285596160068 0  0.5688286748170428 0.1961819304477386 0  0.4145905603063645 0.2038180695522843 0  0.3473758401724931 0.2038180695522752 0  0.2950977245128307 0.2038180695522663 0  0.5688286748170693 0.203818069552238 0  0.2950977245127906 0.1961819304477774 0  0.3473758401723931 0.1961819304478349 0  0.4145905603061963 0.1961819304479011 0  0.2601812407614425 0.2056861609747042
[...]
<PointData  Vectors="f_40-0"> 
<DataArray  type="Float64"  Name="f_40-0"  NumberOfComponents="3" format="ascii">0.0000000000000000e+00 0.0000000000000000e+00 0.0000000000000000e+00  0.0000000000000000e+00 0.0000000000000000e+00 0.0000000000000000e+00  0.0000000000000000e+00 0.0000000000000000e+00 0.0000000000000000e+00  0.0000000000000000e+00 0.0000000000000000e+00 0.0000000000000000e+00  -3.4833203733489406e-05 -6.1027661326078355e-05 0.0000000000000000e+00  -2.9349063967271170e-05 -6.6828136053533868e-05 0.0000000000000000e+00  0.0000000000000000e+00 0.0000000000000000e+00 0.0000000000000000e+00  0.0000000000000000e+00 0.0000000000000000e+00 0.0000000000000000e+00  0.0000000000000000e+00 0.0000000000000000e+00 0.0000000000000000e+00  0.0000000000000000e+00 0.0000000000000000e+00 0.0000000000000000e+00  -3.2363726507177045e-05 -6.3926771449050634e-05 0.0000000000000000e+00  9.1927206753397456e-03 0.0000000000000000e+00 0.0000000000000000e+00  1.6971176631397578e-02 0.0000000000000000e+00 0.0000000000000000e+00  2.3335367868171673e-02 0.0000000000000000e+00 0.0000000000000000e+00  2.8285294385669402e-02 0.0000000000000000e+00 0.0000000000000000e+00  3.1820956183890123e-02 0.0000000000000000e+00 0.0000000000000000e+00  3.3942353262833611e-02 0.0000000000000000e+00 0.0000000000000000e+00  3.4649485622497755e-02 0.0000000000000000e+00 0.0000000000000000e+00  3.3942353262876500e-02 0.0000000000000000e+00 0.0000000000000000e+00  3.1820956183963786e-02 0.0000000000000000e+00 0.0000000000000000e+00  2.8285294385760638e-02 0.0000000000000000e+00 0.0000000000000000e+00  2.3335367868258346e-02 0.0000000000000000e+00 0.0000000000000000e+00  1.6971176631471539e-02 0.0000000000000000e+00 0.0000000000000000e+00  9.1927206753814189e-03 0.0000000000000000e+00 0.0000000000000000e+00  0.0000000000000000e+00 0.0000000000000000e+00 0.0000000000000000e+00  0.0000000000000000e+00 0.0000000000000000e+00 0.0000000000000000e+00  0.0000000000000000e+00 0.0000000000000000e+00 0.0000000000000000e+00  0.0000000000000000e+00 0.0000000000000000e+00 0.0000000000000000e+00  0.0000000000000000e+00 0.0000000000000000e+00 0.0000000000000000e+00  0.0000000000000000e+00 0.0000000000000000e+00 0.0000000000000000e+00  0.0000000000000000e+00 0.0000000000000000e+00 0.0000000000000000e+00  0.0000000000000000e+00 0.0000000000000000e+00 0.0000000000000000e+00  0.0000000000000000e+00 0.0000000000000000e+00 0.0000000000000000e+00  0.0000000000000000e+00 0.0000000000000000e+00 0.0000000000000000e+00  0.0000000000000000e+00 0.0000000000000000e+00 0.0000000000000000e+00  0.0000000000000000e+00 0.0000000000000000e+00 0.0000000000000000e+00  0.0000000000000000e+00 0.0000000000000000e+00 0.0000000000000000e+00  0.0000000000000000e+00 0.0000000000000000e+00 0.0000000000000000e+00  0.0000000000000000e+00 0.0000000000000000e+00 0.0000000000000000e+00  0.0000000000000000e+00 0.0000000000000000e+00 0.0000000000000000e+00  0.0000000000000000e+00 0.0000000000000000e+00 0.0000000000000000e+00  0.0000000000000000e+00 0.0000000000000000e+00 0.0000000000000000e+00  0.0000000000000000e+00 0.0000000000000000e+00 0.0000000000000000e+00  0.0000000000000000e+00 0.0000000000000000e+00 0.0000000000000000e+00  0.0000000000000000e+00 0.0000000000000000e+00 0.0000000000000000e+00  0.0000000000000000e+00 0.0000000000000000e+00 0.0000000000000000e+00  0.0000000000000000e+00 0.0000000000000000e+00 0.0000000000000000e+00  0.0000000000000000e+00 0.0000000000000000e+00 0.0000000000000000e+00  0.0000000000000000e+00 0.0000000000000000e+00 0.0000000000000000e+00  0.0000000000000000e+00 0.0000000000000000e+00 0.0000000000000000e+00  0.0000000000000000e+00 0.0000000000000000e+00 0.0000000000000000e+00  0.0000000000000000e+00 0.0000000000000000e+00 0.0000000000000000e+00  0.0000000000000000e+00 0.0000000000000000e+00 0.0000000000000000e+00  0.0000000000000000e+00 0.0000000000000000e+00 0.0000000000000000e+00  0.0000000000000000e+00 0.0000000000000000e+00 0.0000000000000000e+00  0.0000000000000000e+00 0.0000000000000000e+00 0.0000000000000000e+00  0.0000000000000000e+00 0.0000000000000000e+00 0.0000000000000000e+00  0.0000000000000000e+00 0.0000000000000000e+00 0.0000000000000000e+00  0.0000000000000000e+00 0.0000000000000000e+00 0.0000000000000000e+00  0.0000000000000000e+00 0.0000000000000000e+00 0.0000000000000000e+00  0.0000000000000000e+00 0.0000000000000000e+00 0.0000000000000000e+00  0.0000000000000000e+00 0.0000000000000000e+00 0.0000000000000000e+00  2.4072080579522193e-02 3.4451873838454170e-04 0.0000000000000000e+00  2.0464288564057756e-02 -9.1225021074319679e-05 0.0000000000000000e+00  2.3764216426280300e-02 -3.5002560893847062e-04 0.0000000000000000e+00  0.0000000000000000e+00 0.0000000000000000e+00 0.0000000000000000e+00  0.0000000000000000e+00 0.0000000000000000e+00 0.0000000000000000e+00  0.0000000000000000e+00 0.0000000000000000e+00 0.0000000000000000e+00  0.0000000000000000e+00 0.0000000000000000e+00 0.0000000000000000e+00  0.0000000000000000e+00 0.0000000000000000e+00 0.0000000000000000e+00  0.0000000000000000e+00 0.0000000000000000e+00 0.0000000000000000e+00  0.0000000000000000e+00 0.0000000000000000e+00 0.0000000000000000e+00  0.0000000000000000e+00 0.0000000000000000e+00 0.0000000000000000e+00  0.0000000000000000e+00 0.0000000000000000e+00 0.0000000000000000e+00  0.0000000000000000e+00 0.0000000000000000e+00 0.0000000000000000e+00  0.0000000000000000e+00 0.0000000000000000e+00 0.0000000000000000e+00  0.0000000000000000e+00 0.0000000000000000e+00 0.0000000000000000e+00  0.0000000000000000e+00 0.0000000000000000e+00 0.0000000000000000e+00  0.0000000000000000e+00 0.0000000000000000e+00 0.0000000000000000e+00  0.0000000000000000e+00 0.0000000000000000e+00 0.0000000000000000e+00  0.0000000000000000e+00 0.0000000000000000e+00 0.0000000000000000e+00  0.0000000000000000e+00 0.0000000000000000e+00 0.0000000000000000e+00  0.0000000000000000e+00 0.0000000000000000e+00 0.0000000000000000e+00  0.0000000000000000e+00 0.0000000000000000e+00 0.0000000000000000e+00  0.0000000000000000e+00 0.0000000000000000e+00 0.0000000000000000e+00  0.0000000000000000e+00 0.0000000000000000e+00 0.0000000000000000e+00  0.0000000000000000e+00 0.0000000000000000e+00 0.0000000000000000e+00  0.0000000000000000e+00 0.0000000000000000e+00 0.0000000000000000e+00  0.0000000000000000e+00 0.0000000000000000e+00 0.0000000000000000e+00  0.0000000000000000e+00 0.0000000000000000e+00 0.0000000000000000e+00  0.0000000000000000e+00 0.0000000000000000e+00 0.0000000000000000e+00  0.0000000000000000e+00 0.0000000000000000e+00 0.0000000000000000e+00  0.0000000000000000e+00 0.0000000000000000e+00 0.0000000000000000e+00  0.0000000000000000e+00 0.0000000000000000e+00 0.0000000000000000e+00  0.0000000000000000e+00 0.0000000000000000e+00 0.0000000000000000e+00  0.0000000000000000e+00 0.0000000000000000e+00 0.0000000000000000e+00  0.0000000000000000e+00 0.0000000000000000e+00 0.0000000000000000e+00  0.0000000000000000e+00 0.0000000000000000e+00 0.0000000000000000e+00  0.0000000000000000e+00 0.0000000000000000e+00 0.0000000000000000e+00  0.0000000000000000e+00 0.0000000000000000e+00 0.0000000000000000e+00  0.0000000000000000e+00 0.0000000000000000e+00 0.0000000000000000e+00  0.0000000000000000e+00 0.0000000000000000e+00 0.0000000000000000e+00  0.0000000000000000e+00 0.0000000000000000e+00 0.0000000000000000e+00  0.0000000000000000e+00 0.0000000000000000e+00 0.0000000000000000e+00  0.0000000000000000e+00 0.0000000000000000e+00 0.0000000000000000e+00  0.0000000000000000e+00 0.0000000000000000e+00 0.0000000000000000e+00  0.0000000000000000e+00 0.0000000000000000e+00 0.0000000000000000e+00  0.0000000000000000e+00 0.0000000000000000e+00 0.0000000000000000e+00  0.0000000000000000e+00 0.0000000000000000e+00 0.0000000000000000e+00  0.0000000000000000e+00 0.0000000000000000e+00 0.0000000000000000e+00  0.0000000000000000e+00 0.0000000000000000e+00 0.0000000000000000e+00  0.0000000000000000e+00 0.0000000000000000e+00 0.0000000000000000e+00  0.0000000000000000e+00 0.0000000000000000e+00 0.0000000000000000e+00  0.0000000000000000e+00 0.0000000000000000e+00 0.0000000000000000e+00  0.0000000000000000e+00 0.0000000000000000e+00 0.0000000000000000e+00  0.0000000000000000e+00 0.0000000000000000e+00 0.0000000000000000e+00  0.0000000000000000e+00 0.0000000000000000e+00 0.0000000000000000e+00  0.0000000000000000e+00 0.0000000000000000e+00 0.0000000000000000e+00  0.0000000000000000e+00 0.0000000000000000e+00 0.0000000000000000e+00  0.0000000000000000e+00 0.0000000000000000e+00 0.0000000000000000e+00  0.0000000000000000e+00 0.0000000000000000e+00 0.0000000000000000e+00  0.0000000000000000e+00 0.0000000000000000e+00 0.0000000000000000e+00  0.0000000000000000e+00 0.0000000000000000e+00 0.0000000000000000e+00  0.0000000000000000e+00 0.0000000000000000e+00 0.0000000000000000e+00  0.0000000000000000e+00 0.0000000000000000e+00 0.0000000000000000e+00  0.0000000000000000e+00 0.0000000000000000e+00 0.0000000000000000e+00  0.0000000000000000e+00 0.0000000000000000e+00 0.0000000000000000e+00  0.0000000000000000e+00 0.0000000000000000e+00 0.0000000000000000e+00  0.0000000000000000e+00 0.0000000000000000e+00 0.0000000000000000e+00  0.0000000000000000e+00 0.0000000000000000e+00 0.0000000000000000e+00  0.0000000000000000e+00 0.0000000000000000e+00 0.0000000000000000e+00  0.0000000000000000e+00 0.0000000000000000e+00 0.0000000000000000e+00  0.0000000000000000e+00 0.0000000000000000e+00 0.0000000000000000e+00  0.0000000000000000e+00 0.0000000000000000e+00 0.0000000000000000e+00  0.0000000000000000e+00 0.0000000000000000e+00 0.0000000000000000e+00  0.0000000000000000e+00 0.0000000000000000e+00 0.0000000000000000e+00  0.0000000000000000e+00 0.0000000000000000e+00 0.0000000000000000e+00  0.0000000000000000e+00 0.0000000000000000e+00 0.0000000000000000e+00  0.0000000000000000e+00 0.0000000000000000e+00 0.0000000000000000e+00  0.0000000000000000e+00 0.0000000000000000e+00 0.0000000000000000e+00  0.0000000000000000e+00 0.0000000000000000e+00 0.0000000000000000e+00  0.0000000000000000e+00 0.0000000000000000e+00 0.0000000000000000e+00  0.0000000000000000e+00 0.0000000000000000e+00 0.0000000000000000e+00  -2.1703816987159554e-07 -5.0031514603878423e-06 0.0000000000000000e+00  -2.8832120283051321e-07 -5.4722828220269025e-06 0.0000000000000000e+00  -1.2564042914694545e-07 -5.7339473053833115e-06 0.0000000000000000e+00  1.5899943253594616e-07 -5.9165838311757641e-06 0.0000000000000000e+00  4.5418737476931240e-07 -6.1669902664625601e-06 0.0000000000000000e+00  7.1919010494655490e-07 -6.5421679154200923e-06 0.0000000000000000e+00  9.3520163956446559e-07 -6.9758939518807510e-06 0.0000000000000000e+00  1.1012960907414447e-06 -7.4936157629419353e-06 0.0000000000000000e+00  1.2542226894164882e-06 -8.0834698805943696e-06 0.0000000000000000e+00  1.3339874270090782e-06 -8.7311503778017567e-06 0.0000000000000000e+00  1.3953052784022317e-06 -9.4744195181262767e-06 0.0000000000000000e+00  1.3858830003741875e-06 -1.0264065513516133e-05 0.0000000000000000e+00  1.3460665647583966e-06 -1.1135992035738476e-05 0.0000000000000000e+00  1.2511848258850180e-06 -1.2066688305370622e-05 0.0000000000000000e+00  1.1005256032565478e-06 -1.3065844359337256e-05 0.0000000000000000e+00  9.2991383134230229e-07 -1.4132893484855221e-05 0.0000000000000000e+00  6.8496702401009719e-07 -1.5240019889582175e-05 0.0000000000000000e+00  4.1192243718374177e-07 -1.6436132655562055e-05 0.0000000000000000e+00  7.0078505356762912e-08 -1.7658258782678676e-05 0.0000000000000000e+00  -3.0175004425134576e-07 -1.8964384331391639e-05 0.0000000000000000e+00  -7.3756667457633780e-07 -2.0296128837351659e-05 0.0000000000000000e+00  -1.2176467657872215e-06 -2.1696830019391675e-05 0.0000000000000000e+00  -1.7463215789174816e-06 -2.3137654961214667e-05 0.0000000000000000e+00  -2.3327770335994634e-06 -2.4625576070648576e-05 0.0000000000000000e+00  -2.9460887157338739e-06 -2.6163007085155643e-05 0.0000000000000000e+00  -3.6258500160402957e-06 -2.7722985998102345e-05 0.0000000000000000e+00  -4.3526957270288560e-06 -2.9354278062229547e-05 0.0000000000000000e+00  -5.1325422902170457e-06 -3.0989335524552468e-05 0.0000000000000000e+00  -5.9598225709143183e-06 -3.2689982436567081e-05 0.0000000000000000e+00  -6.8390878449708105e-06 -3.4394249020659450e-05 0.0000000000000000e+00  -7.7659393819264610e-06 -3.6157939599135089e-05 0.0000000000000000e+00  -8.7459453202898696e-06 -3.7920679345357762e-05 0.0000000000000000e+00  -9.7718783755626438e-06 -3.9740123763051506e-05 0.0000000000000000e+00  -1.0852269315414730e-05 -4.1550293704259230e-05 0.0000000000000000e+00  -1.1982919888495182e-05 -4.3416211914897745e-05 0.0000000000000000e+00  -1.3164578652042018e-05 -4.5270825705211723e-05 0.0000000000000000e+00  -1.4394134250761566e-05 -4.7174003293268239e-05 0.0000000000000000e+00  -1.5675363821863517e-05 -4.9063444205786182e-05 0.0000000000000000e+00  -1.7007204659933235e-05 -5.0997110306695018e-05 0.0000000000000000e+00  -1.8392960767398137e-05 -5.2913711080939783e-05 0.0000000000000000e+00  -1.9835679447170495e-05 -5.4860160842690796e-05 0.0000000000000000e+00  -2.1318886639277109e-05 -5.6803628717813269e-05 0.0000000000000000e+00  -2.2864311145345992e-05 -5.8759290108492721e-05 0.0000000000000000e+00  -2.4439470752766210e-05 -6.0718556607006380e-05 0.0000000000000000e+00  -2.6074310431252872e-05 -6.2666196318311081e-05 0.0000000000000000e+00  -2.7730734109145127e-05 -6.4655617628127485e-05 0.0000000000000000e+00  -3.0956923510477373e-05 -6.5377239748565098e-05 0.0000000000000000e+00  -3.3685139546065106e-05 -6.2479586852424399e-05 0.0000000000000000e+00  -3.3201224895202629e-05 -5.9110000432664072e-05 0.0000000000000000e+00  -3.1524216016656790e-05 -5.7014741924331778e-05 0.0000000000000000e+00  -2.9872836041977948e-05 -5.4898974023140316e-05 0.0000000000000000e+00  -2.8275258133223255e-05 -5.2806462691964186e-05 0.0000000000000000e+00  -2.6709802426951119e-05 -5.0719981843420166e-05 0.0000000000000000e+00  -2.5205491878317289e-05 -4.8642867406675640e-05 0.0000000000000000e+00  -2.3734810392709244e-05 -4.6581542901684126e-05 0.0000000000000000e+00  -2.2321163380841596e-05 -4.4515345223746247e-05 0.0000000000000000e+00  -2.0949180243011318e-05 -4.2487296732120654e-05 0.0000000000000000e+00  -1.9628336518340777e-05 -4.0445376192310454e-05 0.0000000000000000e+00  -1.8347697162659883e-05 -3.8448100216833382e-05 0.0000000000000000e+00  -1.7119503858139297e-05 -3.6441496305041734e-05 0.0000000000000000e+00  -1.5929632309852402e-05 -3.4483307480485783e-05 0.0000000000000000e+00  -1.4792014362596615e-05 -3.2520016203339716e-05 0.0000000000000000e+00  -1.3690401552017087e-05 -3.0608613014695343e-05 0.0000000000000000e+00  -1.2642682904525345e-05 -2.8695956796540318e-05 0.0000000000000000e+00  -1.1630129503680615e-05 -2.6839185831802171e-05 0.0000000000000000e+00  -1.0672852154078543e-05 -2.4985653535681768e-05 0.0000000000000000e+00  -9.7484252205507757e-06 -2.3193256034550762e-05 0.0000000000000000e+00  -8.8799660272881100e-06 -2.1408986313893215e-05 0.0000000000000000e+00  -8.0422823565988057e-06 -1.9689284407192727e-05 0.0000000000000000e+00  -7.2620451055864226e-06 -1.7983588423596846e-05 0.0000000000000000e+00  -6.5182693546453581e-06 -1.6336938951424083e-05 0.0000000000000000e+00  -5.8195618356791399e-06 -1.4724255466873042e-05 0.0000000000000000e+00  -5.1758165397729121e-06 -1.3166843805167937e-05 0.0000000000000000e+00  -4.5492664287713493e-06 -1.1653437783361805e-05 0.0000000000000000e+00  -3.9836693064922675e-06 -1.0180766021818565e-05 0.0000000000000000e+00  -3.4541580651604638e-06 -8.7863160501571522e-06 0.0000000000000000e+00  -2.9751396870051980e-06 -7.4178719850809053e-06 0.0000000000000000e+00  -2.5346916722499098e-06 -6.1365572122446994e-06 0.0000000000000000e+00  -2.1433489375081129e-06 -4.8836824974089245e-06 0.0000000000000000e+00  -1.7898311741737559e-06 -3.7193314560951509e-06 0.0000000000000000e+00  -1.4812100993772001e-06 -2.5972091484994437e-06 0.0000000000000000e+00  -1.2250035453706834e-06 -1.5564536904970061e-06 0.0000000000000000e+00  -9.8267633796472178e-07 -5.7029055457783614e-07 0.0000000000000000e+00  -8.0098088344045072e-07 3.4876583400575426e-07 0.0000000000000000e+00  -6.5481257237097527e-07 1.1747417504074646e-06 0.0000000000000000e+00  -5.5751071462492975e-07 1.9535593700027859e-06 0.0000000000000000e+00  -4.9327830919179885e-07 2.6358068484949998e-06 0.0000000000000000e+00  -4.7484992804336586e-07 3.2605455969245112e-06 0.0000000000000000e+00  -5.0566380989653015e-07 3.7945173375171750e-06 0.0000000000000000e+00  -5.4370059307246146e-07 4.2610107361264149e-06 0.0000000000000000e+00  -6.4508546773751803e-07 4.6870378786841423e-06 0.0000000000000000e+00  -7.0127162178583750e-07 5.0160407429663008e-06 0.0000000000000000e+00  -6.7774223706949894e-07 5.1106357113342861e-06 0.0000000000000000e+00  -4.1346941396450307e-07 4.8329774075398209e-06 0.0000000000000000e+00  -1.3600222731458351e-06 -1.0576537064072224e-07 0.0000000000000000e+00  -2.9698100946968980e-05 -6.0886105257978623e-05 0.0000000000000000e+00  -2.6468748851350458e-05 -5.7023873728665969e-05 0.0000000000000000e+00  -2.1732470863923174e-05 -5.0705155830640692e-05 0.0000000000000000e+00  -3.7309885394487149e-07 -4.2857264337719080e-07 0.0000000000000000e+00  -1.9019400773106832e-05 -4.6754764229429489e-05 0.0000000000000000e+00  8.2599497423236770e-10 -9.9869891278357063e-07 0.0000000000000000e+00  -1.6413783801371063e-05 -4.2820896060218694e-05 0.0000000000000000e+00  2.9598944718530894e-07 -2.6477770787039457e-06 0.0000000000000000e+00  2.9023799707689007e-07 -4.1159217503595911e-06 0.0000000000000000e+00  -1.4001169586675835e-05 -3.8956843459709694e-05 0.0000000000000000e+00  -5.2814031706809891e-07 -8.8865201592566954e-06 0.0000000000000000e+00  -9.7494112988623417e-06 -3.1498789004492623e-05 0.0000000000000000e+00  1.0728000695325901e-07 -5.6881748464223387e-06 0.0000000000000000e+00  -1.1324258150376022e-06 -1.1263025281058097e-05 0.0000000000000000e+00  -7.9080544072232449e-06 -2.7938509525442105e-05 0.0000000000000000e+00  -1.1780011169700702e-05 -3.5177120225046781e-05 0.0000000000000000e+00  -1.9450659780115593e-06 -1.3854768125114909e-05 0.0000000000000000e+00  -6.2556083639012683e-06 -2.4514557408848187e-05 0.0000000000000000e+00  -2.9199837650909759e-06 -1.6488542331075162e-05 0.0000000000000000e+00  -4.7871433403282358e-06 -2.1361537450949560e-05 0.0000000000000000e+00  -3.7765924095327628e-06 -1.8782659356398576e-05 0.0000000000000000e+00  -1.3726783970641008e-07 -7.2205707554253103e-06 0.0000000000000000e+00  -2.4199841284640686e-05 -5.3928848568708609e-05 0.0000000000000000e+00  1.8390311456330144e-07 -1.7772678082353670e-06 0.0000000000000000e+00  -2.8996393131422098e-05 -5.7941600836444101e-05 0.0000000000000000e+00  -8.2648437486834950e-07 1.7908391710559327e-06 0.0000000000000000e+00  -1.8456826512031779e-05 -4.3814244146039924e-05 0.0000000000000000e+00  -2.1169314887210619e-05 -4.7811667226337779e-05 0.0000000000000000e+00  -1.6625450799306817e-09 -2.5920156771972438e-06 0.0000000000000000e+00  5.9479337923966535e-07 -4.8219011604542734e-06 0.0000000000000000e+00  -1.1455600847864416e-05 -3.2252550648218614e-05 0.0000000000000000e+00  -1.5934412021282029e-05 -3.9877894626143943e-05 0.0000000000000000e+00  -3.3562965327856733e-07 -1.1391434599040822e-05 0.0000000000000000e+00  -9.4965735082845521e-06 -2.8596038018183452e-05 0.0000000000000000e+00  5.5146039641070430e-07 -6.3620988601437357e-06 0.0000000000000000e+00  -1.0151713554734656e-06 -1.3837388848973001e-05 0.0000000000000000e+00  -7.7235620265380346e-06 -2.5067119279876031e-05 0.0000000000000000e+00  -1.3601364389542243e-05 -3.6018627331328621e-05 0.0000000000000000e+00  -1.7514788523373745e-06 -1.6770286365928370e-05 0.0000000000000000e+00  -6.1347214284518922e-06 -2.1683663219725696e-05 0.0000000000000000e+00  -1.2188890963849878e-06 -1.1983134777066894e-06 0.0000000000000000e+00  -1.2255876875384047e-06 1.0537397188509526e-06 0.0000000000000000e+00  -3.0443867276565498e-05 -6.313726735764287