<?xml version="1.0"?>
<VTKFile type="UnstructuredGrid"  version="0.1"  >
<UnstructuredGrid>
<Piece  NumberOfPoints="1419" NumberOfCells="2698">
<Points>
<DataArray  type="Float64"  NumberOfComponents="3"  format="ascii">0 0 0  0 0.41 0  2.5 0 0  2.5 0.41 0  0.6 0.19 0  0.6 0.21 0  0.25 0.2 0  0.15 0.2 0  0.2489897948556636 0.21 0  0.2489897948556636 0.19 0  0.6 0.2 0  0 0.3807142857143437 0  0 0.3514285714286952 0  0 0.3221428571430699 0  0 0.29285714285744 0  0 0.2635714285718054 0  0 0.2342857142861561 0  0 0.2050000000005308 0  0 0.175714285714732 0  0 0.1464285714289574 0  0 0.1171428571431897 0  0 0.08785714285737878 0  0 0.05857142857161107 0  0 0.02928571428580012 0  0.03015443760436003 0 0  0.06140001986583606 0 0  0.09377624077125973 0 0  0.1273239957535082 0 0  0.1620856860351972 0 0  0.1981052433264291 0 0  0.235428184091502 0 0  0.2741016576309132 0 0  0.3141745521465447 0 0  0.3556974926295285 0 0  0.3987229542472677 0 0  0.4433053055141081 0 0  0.4895008759286886 0 0  0.5373680609405097 0 0  0.5869673343216626 0 0  0.6383613676634521 0 0  0.6916151138468254 0 0  0.7467958595648856 0 0  0.8039733463919316 0 0  0.8632198139502143 0 0  0.9246101326867038 0 0  0.9882218810934433 0 0  1.054135445558498 0 0  1.122434100542598 0 0  1.193204177141305 0 0  1.266535089879536 0 0  1.342519516046404 0 0  1.421253448503939 0 0  1.502836389106271 0 0  1.587371439758838 0 0  1.674965418777374 0 0  1.765729001825544 0 0  1.859776908880082 0 0  1.957227977487062 0 0  2.058205329869943 0 0  2.162836591189951 0 0  2.271253957290865 0 0  2.383594446803425 0 0  2.5 0.1024999999997612 0  2.5 0.2049999999994743 0  2.5 0.3074999999997183 0  2.383594446803656 0.41 0  2.271253957291315 0.41 0  2.162836591190598 0.41 0  2.058205329870775 0.41 0  1.957227977488067 0.41 0  1.859776908881246 0.41 0  1.765729001826854 0.41 0  1.674965418778818 0.41 0  1.58737143976041 0.41 0  1.502836389107956 0.41 0  1.421253448505726 0.41 0  1.342519516048286 0.41 0  1.266535089881505 0.41 0  1.193204177143353 0.41 0  1.122434100544716 0.41 0  1.05413544556068 0.41 0  0.9882218810956305 0.41 0  0.9246101326886647 0.41 0  0.8632198139519631 0.41 0  0.8039733463934788 0.41 0  0.7467958595662458 0.41 0  0.6916151138480078 0.41 0  0.6383613676644679 0.41 0  0.5869673343225223 0.41 0  0.5373680609412221 0.41 0  0.4895008759292634 0.41 0  0.4433053055145528 0.41 0  0.3987229542475914 0.41 0  0.3556974926297398 0.41 0  0.3141745521466497 0.41 0  0.2741016576310038 0.41 0  0.2354281840915826 0.41 0  0.1981052433265003 0.41 0  0.1620856860352591 0.41 0  0.1273239957535623 0.41 0  0.09377624077128965 0.41 0  0.06140001986584975 0.41 0  0.03015443760436654 0.41 0  0.2497468076502589 0.2050254481002335 0  0.2497468076502614 0.1949745518997913 0  0.2469965252529372 0.1829317073451959 0  0.2439893735792749 0.1762316384219906 0  0.2400332147834255 0.1700443375285386 0  0.2352133972704371 0.1645032867342007 0  0.2296339016332438 0.1597280261969788 0  0.2234150974217223 0.1558215752574715 0  0.2166911463437691 0.1528682099456123 0  0.2096071079204251 0.1509316448471593 0  0.2023158100364996 0.1500536585536553 0  0.194974551899914 0.1502531923497262 0  0.1877417105387872 0.1515259415822739 0  0.1807733240461124 0.153844448527136 0  0.1742197252835808 0.15715869474974 0  0.1682222986673531 0.1613971801805478 0  0.162910430003803 0.1664684656256651 0  0.1583987151779087 0.1722631454351573 0  0.1547844879126891 0.178656207771761 0  0.1521457199348551 0.1855097315605723 0  0.1505393388476355 0.1926758619366523 0  0.1505393388476328 0.2073241380633295 0  0.1521457199348437 0.2144902684393899 0  0.1547844879126531 0.221343792228163 0  0.1583987151778488 0.2277368545647528 0  0.1629104300036858 0.2335315343742052 0  0.1682222986671726 0.2386028198193036 0  0.1742197252833576 0.2428413052501257 0  0.1807733240458683 0.2461555514727623 0  0.1877417105384929 0.2484740584176516 0  0.1949745518995776 0.2497468076502398 0  0.202315810036185 0.2499463414463592 0  0.2096071079201568 0.2490683551528932 0  0.2166911463435495 0.2471317900544655 0  0.2234150974215506 0.2441784247426195 0  0.2296339016331197 0.2402719738031125 0  0.2352133972703547 0.2354967132658811 0  0.2400332147833751 0.2299556624715287 0  0.2439893735792577 0.2237683615780412 0  0.246996525252926 0.2170682926548348 0  0.25645809709277 0.21 0  0.2639263993298655 0.21 0  0.271394701566961 0.21 0  0.2788630038040554 0.21 0  0.2863313060411479 0.21 0  0.2937996082782405 0.21 0  0.301267910515333 0.21 0  0.3087362127524279 0.21 0  0.3162045149895234 0.21 0  0.3236728172265972 0.21 0  0.3311411194636928 0.21 0  0.3386094217007701 0.21 0  0.3460777239378666 0.21 0  0.3535460261749672 0.21 0  0.3610143284120516 0.21 0  0.3684826306491596 0.21 0  0.3759509328862226 0.21 0  0.383419235123329 0.21 0  0.3908875373604028 0.21 0  0.3983558395975142 0.21 0  0.4058241418345938 0.21 0  0.4132924440716992 0.21 0  0.4207607463087888 0.21 0  0.4282290485459029 0.21 0  0.4356973507830418 0.21 0  0.4431656530201649 0.21 0  0.4506339552573136 0.21 0  0.4581022574944306 0.21 0  0.4655705597315852 0.21 0  0.4730388619686996 0.21 0  0.480507164205851 0.21 0  0.4879754664429498 0.21 0  0.4954437686800938 0.21 0  0.502912070917267 0.21 0  0.5103803731544119 0.21 0  0.5178486753915261 0.21 0  0.5253169776286404 0.21 0  0.5327852798657868 0.21 0  0.5402535821029386 0.21 0  0.54772188434007 0.21 0  0.5551901865771842 0.21 0  0.5626584888143201 0.21 0  0.5701267910514778 0.21 0  0.5775950932886138 0.21 0  0.5850633955257281 0.21 0  0.5925316977628483 0.21 0  0.6 0.2050000000000054 0  0.6 0.1950000000000217 0  0.5925316977628897 0.19 0  0.5850633955257988 0.19 0  0.5775950932887378 0.19 0  0.5701267910515998 0.19 0  0.5626584888145268 0.19 0  0.5551901865773963 0.19 0  0.547721884340339 0.19 0  0.5402535821032429 0.19 0  0.5327852798661811 0.19 0  0.5253169776290537 0.19 0  0.5178486753919799 0.19 0  0.5103803731549078 0.19 0  0.502912070917822 0.19 0  0.4954437686807294 0.19 0  0.4879754664436223 0.19 0  0.4805071642065402 0.19 0  0.4730388619694271 0.19 0  0.4655705597323621 0.19 0  0.4581022574952563 0.19 0  0.4506339552581777 0.19 0  0.4431656530210671 0.19 0  0.4356973507839815 0.19 0  0.4282290485468779 0.19 0  0.4207607463097617 0.19 0  0.4132924440726327 0.19 0  0.4058241418354857 0.19 0  0.3983558395983636 0.19 0  0.3908875373612097 0.19 0  0.3834192351240934 0.19 0  0.3759509328869369 0.19 0  0.3684826306498175 0.19 0  0.361014328412667 0.19 0  0.3535460261755617 0.19 0  0.3460777239384295 0.19 0  0.3386094217012945 0.19 0  0.3311411194641595 0.19 0  0.3236728172270245 0.19 0  0.3162045149898895 0.19 0  0.3087362127527544 0.19 0  0.3012679105156187 0.19 0  0.2937996082784807 0.19 0  0.2863313060413428 0.19 0  0.2788630038042048 0.19 0  0.2713947015670686 0.19 0  0.2639263993299336 0.19 0  0.2564580970927985 0.19 0  0.2607803159922026 0.2000727136295815 0  0.5887803774232762 0.2001272386983733 0  0.5745072403740523 0.2002044435018727 0  0.5511891430099709 0.2001122610077113 0  0.2751288526855082 0.20000000000002 0  0.5365194309847112 0.1999999999999436 0  0.2894621222999649 0.1998691686390484 0  0.5215828265105155 0.1999999999999228 0  0.3127789816668748 0.1998657885438805 0  0.3274069683451451 0.2000000000000796 0  0.5066462220363641 0.199999999999908 0  0.3650630746574081 0.199866017807523 0  0.476773013087985 0.1999999999998713 0  0.3417402379596385 0.1998691686391011 0  0.3796850840047755 0.200000000000134 0  0.4618364086138087 0.1999999999998546 0  0.4917096175621762 0.1999999999998808 0  0.3946216884789568 0.2000000000001512 0  0.446899804139621 0.1999999999998389 0  0.4089549580935208 0.1998691686391595 0  0.4322718174608562 0.200127451265745 0  0.4201487168029707 0.1999966199048527 0  0.3528922713220932 0.2000185703532356 0  0.5633122436674589 0.1999814296467508 0  0.3006558810093873 0.1999966199048318 0  0.5815926498168407 0.1966545283159175 0  0.2677053789419034 0.1964246479135325 0  0.5290511287476175 0.1970915826863981 0  0.5439877332217911 0.197091582686394 0  0.2825131256993216 0.2035478995978015 0  0.3199386661080599 0.202908417313604 0  0.4842413153250809 0.1970915826863873 0  0.5141145242734466 0.1970915826863843 0  0.3722167817676917 0.2029084173136195 0  0.4693047108508938 0.1970915826863783 0  0.3348752705822316 0.202908417313609 0  0.3871533862418661 0.2029084173136212 0  0.4543681063767183 0.1970915826863795 0  0.4991779197992749 0.1970915826863902 0  0.4020059614928624 0.203547899597858 0  0.4394315019025246 0.1970915826863714 0  0.2550657455369551 0.2034088125358657 0  0.2548908499171161 0.1966940311614271 0  0.5946539510196798 0.2024302972968126 0  0.267698176732111 0.2039977513680092 0  0.4261685417851465 0.196409292431739 0  0.3590076176283495 0.196411355804271 0  0.5571672426447437 0.2036011176410121 0  0.3066757059912147 0.1964092924317024 0  0.594380730180568 0.1966558399668133 0  0.4842413153245942 0.2040749161535287 0  0.4693047108503577 0.2040749161535231 0  0.3871533862424271 0.1959250838464788 0  0.372246743208829 0.1959123236376545 0  0.5141145242731028 0.2040749161535395 0  0.4543681063761134 0.2040749161535186 0  0.4019979587101454 0.1959834479682427 0  0.4394608940728603 0.2040870543693135 0  0.5439623148931173 0.2040856076781014 0  0.5290511287473298 0.2040749161535501 0  0.4991779197988497 0.2040749161535382 0  0.3347912413592433 0.1959225448935183 0  0.3199680582793816 0.1959123018030061 0  0.2825051229162361 0.1959834479681729 0  0.3590471196690275 0.2036304442587945 0  0.5571594006495384 0.1963685282145804 0  0.3067669986803285 0.203627750582736 0  0.4262598344738712 0.2036568242185335 0  0.5814408164431408 0.2041285596160068 0  0.5688286748170428 0.1961819304477386 0  0.4145905603063645 0.2038180695522843 0  0.3473758401724931 0.2038180695522752 0  0.2950977245128307 0.2038180695522663 0  0.5688286748170693 0.203818069552238 0  0.2950977245127906 0.1961819304477774 0  0.3473758401723931 0.1961819304478349 0  0.4145905603061963 0.1961819304479011 0  0.2601812407614425 0.2056861609747042
[...]
<PointData  Vectors="f_40-0"> 
<DataArray  type="Float64"  Name="f_40-0"  NumberOfComponents="3" format="ascii">0.0000000000000000e+00 0.0000000000000000e+00 0.0000000000000000e+00  0.0000000000000000e+00 0.0000000000000000e+00 0.0000000000000000e+00  0.0000000000000000e+00 0.0000000000000000e+00 0.0000000000000000e+00  0.0000000000000000e+00 0.0000000000000000e+00 0.0000000000000000e+00  -1.2245038018381431e-05 -4.2242302428517842e-04 0.0000000000000000e+00  2.0387036739261149e-05 -4.2797409699356673e-04 0.0000000000000000e+00  0.0000000000000000e+00 0.0000000000000000e+00 0.0000000000000000e+00  0.0000000000000000e+00 0.0000000000000000e+00 0.0000000000000000e+00  0.0000000000000000e+00 0.0000000000000000e+00 0.0000000000000000e+00  0.0000000000000000e+00 0.0000000000000000e+00 0.0000000000000000e+00  3.5758879211423384e-06 -4.2519604797691012e-04 0.0000000000000000e+00  6.3331394499323138e-02 0.0000000000000000e+00 0.0000000000000000e+00  1.1691949753721970e-01 0.0000000000000000e+00 0.0000000000000000e+00  1.6076430911367712e-01 0.0000000000000000e+00 0.0000000000000000e+00  1.9486582922874615e-01 0.0000000000000000e+00 0.0000000000000000e+00  2.1922405788242236e-01 0.0000000000000000e+00 0.0000000000000000e+00  2.3383899507470429e-01 0.0000000000000000e+00 0.0000000000000000e+00  2.3871064080557736e-01 0.0000000000000000e+00 0.0000000000000000e+00  2.3383899507499981e-01 0.0000000000000000e+00 0.0000000000000000e+00  2.1922405788292990e-01 0.0000000000000000e+00 0.0000000000000000e+00  1.9486582922937468e-01 0.0000000000000000e+00 0.0000000000000000e+00  1.6076430911427425e-01 0.0000000000000000e+00 0.0000000000000000e+00  1.1691949753772923e-01 0.0000000000000000e+00 0.0000000000000000e+00  6.3331394499610241e-02 0.0000000000000000e+00 0.0000000000000000e+00  0.0000000000000000e+00 0.0000000000000000e+00 0.0000000000000000e+00  0.0000000000000000e+00 0.0000000000000000e+00 0.0000000000000000e+00  0.0000000000000000e+00 0.0000000000000000e+00 0.0000000000000000e+00  0.0000000000000000e+00 0.0000000000000000e+00 0.0000000000000000e+00  0.0000000000000000e+00 0.0000000000000000e+00 0.0000000000000000e+00  0.0000000000000000e+00 0.0000000000000000e+00 0.0000000000000000e+00  0.0000000000000000e+00 0.0000000000000000e+00 0.0000000000000000e+00  0.0000000000000000e+00 0.0000000000000000e+00 0.0000000000000000e+00  0.0000000000000000e+00 0.0000000000000000e+00 0.0000000000000000e+00  0.0000000000000000e+00 0.0000000000000000e+00 0.0000000000000000e+00  0.0000000000000000e+00 0.0000000000000000e+00 0.0000000000000000e+00  0.0000000000000000e+00 0.0000000000000000e+00 0.0000000000000000e+00  0.0000000000000000e+00 0.0000000000000000e+00 0.0000000000000000e+00  0.0000000000000000e+00 0.0000000000000000e+00 0.0000000000000000e+00  0.0000000000000000e+00 0.0000000000000000e+00 0.0000000000000000e+00  0.0000000000000000e+00 0.0000000000000000e+00 0.0000000000000000e+00  0.0000000000000000e+00 0.0000000000000000e+00 0.0000000000000000e+00  0.0000000000000000e+00 0.0000000000000000e+00 0.0000000000000000e+00  0.0000000000000000e+00 0.0000000000000000e+00 0.0000000000000000e+00  0.0000000000000000e+00 0.0000000000000000e+00 0.0000000000000000e+00  0.0000000000000000e+00 0.0000000000000000e+00 0.0000000000000000e+00  0.0000000000000000e+00 0.0000000000000000e+00 0.0000000000000000e+00  0.0000000000000000e+00 0.0000000000000000e+00 0.0000000000000000e+00  0.0000000000000000e+00 0.0000000000000000e+00 0.0000000000000000e+00  0.0000000000000000e+00 0.0000000000000000e+00 0.0000000000000000e+00  0.0000000000000000e+00 0.0000000000000000e+00 0.0000000000000000e+00  0.0000000000000000e+00 0.0000000000000000e+00 0.0000000000000000e+00  0.0000000000000000e+00 0.0000000000000000e+00 0.0000000000000000e+00  0.0000000000000000e+00 0.0000000000000000e+00 0.0000000000000000e+00  0.0000000000000000e+00 0.0000000000000000e+00 0.0000000000000000e+00  0.0000000000000000e+00 0.0000000000000000e+00 0.0000000000000000e+00  0.0000000000000000e+00 0.0000000000000000e+00 0.0000000000000000e+00  0.0000000000000000e+00 0.0000000000000000e+00 0.0000000000000000e+00  0.0000000000000000e+00 0.0000000000000000e+00 0.0000000000000000e+00  0.0000000000000000e+00 0.0000000000000000e+00 0.0000000000000000e+00  0.0000000000000000e+00 0.0000000000000000e+00 0.0000000000000000e+00  0.0000000000000000e+00 0.0000000000000000e+00 0.0000000000000000e+00  0.0000000000000000e+00 0.0000000000000000e+00 0.0000000000000000e+00  1.9907548689862681e-01 1.8608834233734804e-03 0.0000000000000000e+00  1.5451559476962820e-01 -3.4720650266393101e-04 0.0000000000000000e+00  1.9791012852990583e-01 -2.5654482539837842e-03 0.0000000000000000e+00  0.0000000000000000e+00 0.0000000000000000e+00 0.0000000000000000e+00  0.0000000000000000e+00 0.0000000000000000e+00 0.0000000000000000e+00  0.0000000000000000e+00 0.0000000000000000e+00 0.0000000000000000e+00  0.0000000000000000e+00 0.0000000000000000e+00 0.0000000000000000e+00  0.0000000000000000e+00 0.0000000000000000e+00 0.0000000000000000e+00  0.0000000000000000e+00 0.0000000000000000e+00 0.0000000000000000e+00  0.0000000000000000e+00 0.0000000000000000e+00 0.0000000000000000e+00  0.0000000000000000e+00 0.0000000000000000e+00 0.0000000000000000e+00  0.0000000000000000e+00 0.0000000000000000e+00 0.0000000000000000e+00  0.0000000000000000e+00 0.0000000000000000e+00 0.0000000000000000e+00  0.0000000000000000e+00 0.0000000000000000e+00 0.0000000000000000e+00  0.0000000000000000e+00 0.0000000000000000e+00 0.0000000000000000e+00  0.0000000000000000e+00 0.0000000000000000e+00 0.0000000000000000e+00  0.0000000000000000e+00 0.0000000000000000e+00 0.0000000000000000e+00  0.0000000000000000e+00 0.0000000000000000e+00 0.0000000000000000e+00  0.0000000000000000e+00 0.0000000000000000e+00 0.0000000000000000e+00  0.0000000000000000e+00 0.0000000000000000e+00 0.0000000000000000e+00  0.0000000000000000e+00 0.0000000000000000e+00 0.0000000000000000e+00  0.0000000000000000e+00 0.0000000000000000e+00 0.0000000000000000e+00  0.0000000000000000e+00 0.0000000000000000e+00 0.0000000000000000e+00  0.0000000000000000e+00 0.0000000000000000e+00 0.0000000000000000e+00  0.0000000000000000e+00 0.0000000000000000e+00 0.0000000000000000e+00  0.0000000000000000e+00 0.0000000000000000e+00 0.0000000000000000e+00  0.0000000000000000e+00 0.0000000000000000e+00 0.0000000000000000e+00  0.0000000000000000e+00 0.0000000000000000e+00 0.0000000000000000e+00  0.0000000000000000e+00 0.0000000000000000e+00 0.0000000000000000e+00  0.0000000000000000e+00 0.0000000000000000e+00 0.0000000000000000e+00  0.0000000000000000e+00 0.0000000000000000e+00 0.0000000000000000e+00  0.0000000000000000e+00 0.0000000000000000e+00 0.0000000000000000e+00  0.0000000000000000e+00 0.0000000000000000e+00 0.0000000000000000e+00  0.0000000000000000e+00 0.0000000000000000e+00 0.0000000000000000e+00  0.0000000000000000e+00 0.0000000000000000e+00 0.0000000000000000e+00  0.0000000000000000e+00 0.0000000000000000e+00 0.0000000000000000e+00  0.0000000000000000e+00 0.0000000000000000e+00 0.0000000000000000e+00  0.0000000000000000e+00 0.0000000000000000e+00 0.0000000000000000e+00  0.0000000000000000e+00 0.0000000000000000e+00 0.0000000000000000e+00  0.0000000000000000e+00 0.0000000000000000e+00 0.0000000000000000e+00  0.0000000000000000e+00 0.0000000000000000e+00 0.0000000000000000e+00  0.0000000000000000e+00 0.0000000000000000e+00 0.0000000000000000e+00  0.0000000000000000e+00 0.0000000000000000e+00 0.0000000000000000e+00  0.0000000000000000e+00 0.0000000000000000e+00 0.0000000000000000e+00  0.0000000000000000e+00 0.0000000000000000e+00 0.0000000000000000e+00  0.0000000000000000e+00 0.0000000000000000e+00 0.0000000000000000e+00  0.0000000000000000e+00 0.0000000000000000e+00 0.0000000000000000e+00  0.0000000000000000e+00 0.0000000000000000e+00 0.0000000000000000e+00  0.0000000000000000e+00 0.0000000000000000e+00 0.0000000000000000e+00  0.0000000000000000e+00 0.0000000000000000e+00 0.0000000000000000e+00  0.0000000000000000e+00 0.0000000000000000e+00 0.0000000000000000e+00  0.0000000000000000e+00 0.0000000000000000e+00 0.0000000000000000e+00  0.0000000000000000e+00 0.0000000000000000e+00 0.0000000000000000e+00  0.0000000000000000e+00 0.0000000000000000e+00 0.0000000000000000e+00  0.0000000000000000e+00 0.0000000000000000e+00 0.0000000000000000e+00  0.0000000000000000e+00 0.0000000000000000e+00 0.0000000000000000e+00  0.0000000000000000e+00 0.0000000000000000e+00 0.0000000000000000e+00  0.0000000000000000e+00 0.0000000000000000e+00 0.0000000000000000e+00  0.0000000000000000e+00 0.0000000000000000e+00 0.0000000000000000e+00  0.0000000000000000e+00 0.0000000000000000e+00 0.0000000000000000e+00  0.0000000000000000e+00 0.0000000000000000e+00 0.0000000000000000e+00  0.0000000000000000e+00 0.0000000000000000e+00 0.0000000000000000e+00  0.0000000000000000e+00 0.0000000000000000e+00 0.0000000000000000e+00  0.0000000000000000e+00 0.0000000000000000e+00 0.0000000000000000e+00  0.0000000000000000e+00 0.0000000000000000e+00 0.0000000000000000e+00  0.0000000000000000e+00 0.0000000000000000e+00 0.0000000000000000e+00  0.0000000000000000e+00 0.0000000000000000e+00 0.0000000000000000e+00  0.0000000000000000e+00 0.0000000000000000e+00 0.0000000000000000e+00  0.0000000000000000e+00 0.0000000000000000e+00 0.0000000000000000e+00  0.0000000000000000e+00 0.0000000000000000e+00 0.0000000000000000e+00  0.0000000000000000e+00 0.0000000000000000e+00 0.0000000000000000e+00  0.0000000000000000e+00 0.0000000000000000e+00 0.0000000000000000e+00  0.0000000000000000e+00 0.0000000000000000e+00 0.0000000000000000e+00  0.0000000000000000e+00 0.0000000000000000e+00 0.0000000000000000e+00  0.0000000000000000e+00 0.0000000000000000e+00 0.0000000000000000e+00  0.0000000000000000e+00 0.0000000000000000e+00 0.0000000000000000e+00  0.0000000000000000e+00 0.0000000000000000e+00 0.0000000000000000e+00  0.0000000000000000e+00 0.0000000000000000e+00 0.0000000000000000e+00  0.0000000000000000e+00 0.0000000000000000e+00 0.0000000000000000e+00  0.0000000000000000e+00 0.0000000000000000e+00 0.0000000000000000e+00  0.0000000000000000e+00 0.0000000000000000e+00 0.0000000000000000e+00  1.5517149996576806e-06 -6.1339003750608145e-06 0.0000000000000000e+00  3.4236720770239890e-06 -7.5908640132034228e-06 0.0000000000000000e+00  5.4783411695950655e-06 -9.4108510942284183e-06 0.0000000000000000e+00  7.7391997348285689e-06 -1.1766009999268964e-05 0.0000000000000000e+00  9.8655100199298311e-06 -1.4708752603161553e-05 0.0000000000000000e+00  1.2049220634271579e-05 -1.8352917760803230e-05 0.0000000000000000e+00  1.4009628626794151e-05 -2.2475613702570344e-05 0.0000000000000000e+00  1.5880331368184205e-05 -2.7237489909441763e-05 0.0000000000000000e+00  1.7813830569552974e-05 -3.2494659299918280e-05 0.0000000000000000e+00  1.9474616872212461e-05 -3.8235758677113302e-05 0.0000000000000000e+00  2.1212753385129668e-05 -4.4513961958129126e-05 0.0000000000000000e+00  2.2688803508112490e-05 -5.1212679240443564e-05 0.0000000000000000e+00  2.4194215136416791e-05 -5.8378622309053195e-05 0.0000000000000000e+00  2.5503838785999699e-05 -6.5903189125566115e-05 0.0000000000000000e+00  2.6715612178983827e-05 -7.3862921862966909e-05 0.0000000000000000e+00  2.7942639077198118e-05 -8.2170443617727616e-05 0.0000000000000000e+00  2.8949762522899589e-05 -9.0786646132653601e-05 0.0000000000000000e+00  2.9972614011489531e-05 -9.9778249096434403e-05 0.0000000000000000e+00  3.0792994666458667e-05 -1.0901601677029944e-04 0.0000000000000000e+00  3.1613011024327878e-05 -1.1857572442201391e-04 0.0000000000000000e+00  3.2268760185037101e-05 -1.2835513507786870e-04 0.0000000000000000e+00  3.2879581553090814e-05 -1.3841323645523676e-04 0.0000000000000000e+00  3.3361340194712733e-05 -1.4865502133918168e-04 0.0000000000000000e+00  3.3749359990149708e-05 -1.5912742397475481e-04 0.0000000000000000e+00  3.4111806954935841e-05 -1.6977681770850920e-04 0.0000000000000000e+00  3.4337335766668917e-05 -1.8058230448475134e-04 0.0000000000000000e+00  3.4490606809050853e-05 -1.9159554398534958e-04 0.0000000000000000e+00  3.4543509173723981e-05 -2.0269888637422309e-04 0.0000000000000000e+00  3.4522753298342418e-05 -2.1398471666221925e-04 0.0000000000000000e+00  3.4407317650464544e-05 -2.2533899139900049e-04 0.0000000000000000e+00  3.4217307683999645e-05 -2.3684829231768471e-04 0.0000000000000000e+00  3.3934902039073296e-05 -2.4840193247196497e-04 0.0000000000000000e+00  3.3579937718442715e-05 -2.6008864790559344e-04 0.0000000000000000e+00  3.3133584644225037e-05 -2.7179584787813296e-04 0.0000000000000000e+00  3.2610304735973693e-05 -2.8362108027448065e-04 0.0000000000000000e+00  3.2002440940483598e-05 -2.9545106511297194e-04 0.0000000000000000e+00  3.1320186813683011e-05 -3.0737733511742731e-04 0.0000000000000000e+00  3.0555029442603454e-05 -3.1929495137619931e-04 0.0000000000000000e+00  2.9712572446142947e-05 -3.3129435174853209e-04 0.0000000000000000e+00  2.8785667940065057e-05 -3.4327299818786650e-04 0.0000000000000000e+00  2.7771219719215446e-05 -3.5530544103054421e-04 0.0000000000000000e+00  2.6691950359035875e-05 -3.6733478372195488e-04 0.0000000000000000e+00  2.5521610683592398e-05 -3.7938550586427580e-04 0.0000000000000000e+00  2.4304550481803393e-05 -3.9144181814301289e-04 0.0000000000000000e+00  2.2993020774819380e-05 -4.0347692156018157e-04 0.0000000000000000e+00  2.1651171158852170e-05 -4.1558071852251918e-04 0.0000000000000000e+00  1.1806117305912104e-05 -4.2658259629284285e-04 0.0000000000000000e+00  -4.4903474175698732e-06 -4.2381609168425549e-04 0.0000000000000000e+00  -1.0960102811537348e-05 -4.1045222634758532e-04 0.0000000000000000e+00  -9.5841087109909590e-06 -3.9820284498549505e-04 0.0000000000000000e+00  -8.2444459381628740e-06 -3.8591812597200281e-04 0.0000000000000000e+00  -6.9870424635097222e-06 -3.7367527931566122e-04 0.0000000000000000e+00  -5.7784873505479031e-06 -3.6144326817898041e-04 0.0000000000000000e+00  -4.6561458157326581e-06 -3.4922960810856096e-04 0.0000000000000000e+00  -3.5813435990074859e-06 -3.3704557208150501e-04 0.0000000000000000e+00  -2.5908871764857358e-06 -3.2485824713949824e-04 0.0000000000000000e+00  -1.6545436118497296e-06 -3.1274128932517098e-04 0.0000000000000000e+00  -7.9330388647736956e-07 -3.0061380478203390e-04 0.0000000000000000e+00  2.1593609384550357e-08 -2.8857078249373781e-04 0.0000000000000000e+00  7.5865763628314490e-07 -2.7653189849168502e-04 0.0000000000000000e+00  1.4568519520011676e-06 -2.6459301893614620e-04 0.0000000000000000e+00  2.0754910298715124e-06 -2.5267701261481808e-04 0.0000000000000000e+00  2.6647880617815349e-06 -2.4087716813637295e-04 0.0000000000000000e+00  3.1694194333746560e-06 -2.2911944936371509e-04 0.0000000000000000e+00  3.6538433932474135e-06 -2.1749698332281477e-04 0.0000000000000000e+00  4.0478559223036891e-06 -2.0593881141012165e-04 0.0000000000000000e+00  4.4321347016627998e-06 -1.9454095675293194e-04 0.0000000000000000e+00  4.7200984616983890e-06 -1.8323468540775274e-04 0.0000000000000000e+00  5.0110106848541389e-06 -1.7211410092602016e-04 0.0000000000000000e+00  5.1978819601372842e-06 -1.6111566283298691e-04 0.0000000000000000e+00  5.3862463058065794e-06 -1.5031885306943172e-04 0.0000000000000000e+00  5.4908863276786702e-06 -1.3968408391269225e-04 0.0000000000000000e+00  5.5348482114291878e-06 -1.2929179705489148e-04 0.0000000000000000e+00  5.6049436551944194e-06 -1.1908305324680062e-04 0.0000000000000000e+00  5.5787382336539498e-06 -1.0912010294618658e-04 0.0000000000000000e+00  5.5423560792227562e-06 -9.9441254916216091e-05 0.0000000000000000e+00  5.4334171820523697e-06 -9.0009280544747886e-05 0.0000000000000000e+00  5.3126627033397660e-06 -8.0909822413438411e-05 0.0000000000000000e+00  5.1204714234596853e-06 -7.2084557759785023e-05 0.0000000000000000e+00  4.9494017607353026e-06 -6.3667133095931424e-05 0.0000000000000000e+00  4.6699350017935743e-06 -5.5539516285623897e-05 0.0000000000000000e+00  4.3386537439892278e-06 -4.7873840837430255e-05 0.0000000000000000e+00  4.0828176026587572e-06 -4.0535791347667805e-05 0.0000000000000000e+00  3.7169227255122484e-06 -3.3670545880956636e-05 0.0000000000000000e+00  3.3630440998696744e-06 -2.7285128967856221e-05 0.0000000000000000e+00  2.9269190125709343e-06 -2.1347060618000739e-05 0.0000000000000000e+00  2.5521573408631835e-06 -1.5995938422931460e-05 0.0000000000000000e+00  2.0379139972614353e-06 -1.1088647293749496e-05 0.0000000000000000e+00  1.4797108651772100e-06 -6.8442949978731624e-06 0.0000000000000000e+00  1.0541506979850267e-06 -3.0833860368009062e-06 0.0000000000000000e+00  4.9692514135236252e-07 5.0242126079157268e-08 0.0000000000000000e+00  1.1513420291451698e-07 2.5107312085358856e-06 0.0000000000000000e+00  -2.4946233240229147e-07 4.1236961717459351e-06 0.0000000000000000e+00  -1.8712959811575614e-07 4.7310423012870850e-06 0.0000000000000000e+00  1.5266871340622858e-07 -7.5729633491950263e-07 0.0000000000000000e+00  6.0405501749931793e-06 -4.0692300792537125e-04 0.0000000000000000e+00  8.8105821922472012e-06 -3.8370079500388998e-04 0.0000000000000000e+00  1.2238770442565274e-05 -3.4579789541038718e-04 0.0000000000000000e+00  3.3849001618155208e-06 -4.1452820204207343e-06 0.0000000000000000e+00  1.3930788775082324e-05 -3.2202147917350586e-04 0.0000000000000000e+00  5.9171744997803729e-06 -9.8861966192153548e-06 0.0000000000000000e+00  1.5564812296231721e-05 -2.9796746043375541e-04 0.0000000000000000e+00  9.6892033320775291e-06 -2.4000660233316421e-05 0.0000000000000000e+00  1.1877457826928458e-05 -3.5561408963682879e-05 0.0000000000000000e+00  1.6917286255986021e-05 -2.7408830685422565e-04 0.0000000000000000e+00  1.6002692951784380e-05 -7.2951720046012737e-05 0.0000000000000000e+00  1.8790092682307854e-05 -2.2712164987979540e-04 0.0000000000000000e+00  1.3583370792870341e-05 -4.8501135047159126e-05 0.0000000000000000e+00  1.7349284174332370e-05 -9.0130910487198567e-05 0.0000000000000000e+00  1.9315164630423738e-05 -2.0419321525858724e-04 0.0000000000000000e+00  1.7991578070939767e-05 -2.5044822695027049e-04 0.0000000000000000e+00  1.8316536057406653e-05 -1.0882604338789074e-04 0.0000000000000000e+00  1.9566652075612756e-05 -1.8176373285537436e-04 0.0000000000000000e+00  1.8821592766193486e-05 -1.2771679564240287e-04 0.0000000000000000e+00  1.9741796950056779e-05 -1.6043911896511360e-04 0.0000000000000000e+00  1.9317806119747395e-05 -1.4321328936086857e-04 0.0000000000000000e+00  1.4949900000424701e-05 -5.9861467736792306e-05 0.0000000000000000e+00  1.0227351445684353e-05 -3.6543787585710850e-04 0.0000000000000000e+00  7.8435478371406923e-06 -1.6142448023186369e-05 0.0000000000000000e+00  1.7681792286979860e-06 -3.9429274201266510e-04 0.0000000000000000e+00  1.0503500442522748e-06 8.2331649668165075e-08 0.0000000000000000e+00  1.0107914466415862e-05 -3.0901181375801132e-04 0.0000000000000000e+00  8.3080505048417137e-06 -3.3317786152709796e-04 0.0000000000000000e+00  6.1480611273465912e-06 -8.9990021346130783e-06 0.0000000000000000e+00  1.3096881358091145e-05 -3.1107099362476423e-05 0.0000000000000000e+00  1.3895990682722960e-05 -2.3764026593783944e-04 0.0000000000000000e+00  1.1636451346173487e-05 -2.8499170616555762e-04 0.0000000000000000e+00  2.0149066839686204e-05 -8.2712369467140547e-05 0.0000000000000000e+00  1.4637265456032202e-05 -2.1445678637954776e-04 0.0000000000000000e+00  1.5471425503512116e-05 -4.3740350076032166e-05 0.0000000000000000e+00  2.1482150967202103e-05 -1.0076905397279860e-04 0.0000000000000000e+00  1.5123501574402335e-05 -1.9172101876283767e-04 0.0000000000000000e+00  1.2897076960225512e-05 -2.6117772427557189e-04 0.0000000000000000e+00  2.3363426894104454e-05 -1.2016707998599473e-04 0.0000000000000000e+00  1.5357917815941709e-05 -1.6953863334053421e-04 0.0000000000000000e+00  -4.2320062008604600e-07 -1.4692538639466522e-06 0.0000000000000000e+00  -7.1039013740160089e-07 1.0558086360323358e-06 0.0000000000000000e+00  8.6201106404134761e-06 -4.1709763988726661e-04 0.0000000000000000e+00  2.7975116031569583e-06 -4.6194634009235960e-06 0.0000000000000000