<?xml version="1.0"?>
<VTKFile type="UnstructuredGrid"  version="0.1"  >
<UnstructuredGrid>
<Piece  NumberOfPoints="1419" NumberOfCells="2698">
<Points>
<DataArray  type="Float64"  NumberOfComponents="3"  format="ascii">0 0 0  0 0.41 0  2.5 0 0  2.5 0.41 0  0.6 0.19 0  0.6 0.21 0  0.25 0.2 0  0.15 0.2 0  0.2489897948556636 0.21 0  0.2489897948556636 0.19 0  0.6 0.2 0  0 0.3807142857143437 0  0 0.3514285714286952 0  0 0.3221428571430699 0  0 0.29285714285744 0  0 0.2635714285718054 0  0 0.2342857142861561 0  0 0.2050000000005308 0  0 0.175714285714732 0  0 0.1464285714289574 0  0 0.1171428571431897 0  0 0.08785714285737878 0  0 0.05857142857161107 0  0 0.02928571428580012 0  0.03015443760436003 0 0  0.06140001986583606 0 0  0.09377624077125973 0 0  0.1273239957535082 0 0  0.1620856860351972 0 0  0.1981052433264291 0 0  0.235428184091502 0 0  0.2741016576309132 0 0  0.3141745521465447 0 0  0.3556974926295285 0 0  0.3987229542472677 0 0  0.4433053055141081 0 0  0.4895008759286886 0 0  0.5373680609405097 0 0  0.5869673343216626 0 0  0.6383613676634521 0 0  0.6916151138468254 0 0  0.7467958595648856 0 0  0.8039733463919316 0 0  0.8632198139502143 0 0  0.9246101326867038 0 0  0.9882218810934433 0 0  1.054135445558498 0 0  1.122434100542598 0 0  1.193204177141305 0 0  1.266535089879536 0 0  1.342519516046404 0 0  1.421253448503939 0 0  1.502836389106271 0 0  1.587371439758838 0 0  1.674965418777374 0 0  1.765729001825544 0 0  1.859776908880082 0 0  1.957227977487062 0 0  2.058205329869943 0 0  2.162836591189951 0 0  2.271253957290865 0 0  2.383594446803425 0 0  2.5 0.1024999999997612 0  2.5 0.2049999999994743 0  2.5 0.3074999999997183 0  2.383594446803656 0.41 0  2.271253957291315 0.41 0  2.162836591190598 0.41 0  2.058205329870775 0.41 0  1.957227977488067 0.41 0  1.859776908881246 0.41 0  1.765729001826854 0.41 0  1.674965418778818 0.41 0  1.58737143976041 0.41 0  1.502836389107956 0.41 0  1.421253448505726 0.41 0  1.342519516048286 0.41 0  1.266535089881505 0.41 0  1.193204177143353 0.41 0  1.122434100544716 0.41 0  1.05413544556068 0.41 0  0.9882218810956305 0.41 0  0.9246101326886647 0.41 0  0.8632198139519631 0.41 0  0.8039733463934788 0.41 0  0.7467958595662458 0.41 0  0.6916151138480078 0.41 0  0.6383613676644679 0.41 0  0.5869673343225223 0.41 0  0.5373680609412221 0.41 0  0.4895008759292634 0.41 0  0.4433053055145528 0.41 0  0.3987229542475914 0.41 0  0.3556974926297398 0.41 0  0.3141745521466497 0.41 0  0.2741016576310038 0.41 0  0.2354281840915826 0.41 0  0.1981052433265003 0.41 0  0.1620856860352591 0.41 0  0.1273239957535623 0.41 0  0.09377624077128965 0.41 0  0.06140001986584975 0.41 0  0.03015443760436654 0.41 0  0.2497468076502589 0.2050254481002335 0  0.2497468076502614 0.1949745518997913 0  0.2469965252529372 0.1829317073451959 0  0.2439893735792749 0.1762316384219906 0  0.2400332147834255 0.1700443375285386 0  0.2352133972704371 0.1645032867342007 0  0.2296339016332438 0.1597280261969788 0  0.2234150974217223 0.1558215752574715 0  0.2166911463437691 0.1528682099456123 0  0.2096071079204251 0.1509316448471593 0  0.2023158100364996 0.1500536585536553 0  0.194974551899914 0.1502531923497262 0  0.1877417105387872 0.1515259415822739 0  0.1807733240461124 0.153844448527136 0  0.1742197252835808 0.15715869474974 0  0.1682222986673531 0.1613971801805478 0  0.162910430003803 0.1664684656256651 0  0.1583987151779087 0.1722631454351573 0  0.1547844879126891 0.178656207771761 0  0.1521457199348551 0.1855097315605723 0  0.1505393388476355 0.1926758619366523 0  0.1505393388476328 0.2073241380633295 0  0.1521457199348437 0.2144902684393899 0  0.1547844879126531 0.221343792228163 0  0.1583987151778488 0.2277368545647528 0  0.1629104300036858 0.2335315343742052 0  0.1682222986671726 0.2386028198193036 0  0.1742197252833576 0.2428413052501257 0  0.1807733240458683 0.2461555514727623 0  0.1877417105384929 0.2484740584176516 0  0.1949745518995776 0.2497468076502398 0  0.202315810036185 0.2499463414463592 0  0.2096071079201568 0.2490683551528932 0  0.2166911463435495 0.2471317900544655 0  0.2234150974215506 0.2441784247426195 0  0.2296339016331197 0.2402719738031125 0  0.2352133972703547 0.2354967132658811 0  0.2400332147833751 0.2299556624715287 0  0.2439893735792577 0.2237683615780412 0  0.246996525252926 0.2170682926548348 0  0.25645809709277 0.21 0  0.2639263993298655 0.21 0  0.271394701566961 0.21 0  0.2788630038040554 0.21 0  0.2863313060411479 0.21 0  0.2937996082782405 0.21 0  0.301267910515333 0.21 0  0.3087362127524279 0.21 0  0.3162045149895234 0.21 0  0.3236728172265972 0.21 0  0.3311411194636928 0.21 0  0.3386094217007701 0.21 0  0.3460777239378666 0.21 0  0.3535460261749672 0.21 0  0.3610143284120516 0.21 0  0.3684826306491596 0.21 0  0.3759509328862226 0.21 0  0.383419235123329 0.21 0  0.3908875373604028 0.21 0  0.3983558395975142 0.21 0  0.4058241418345938 0.21 0  0.4132924440716992 0.21 0  0.4207607463087888 0.21 0  0.4282290485459029 0.21 0  0.4356973507830418 0.21 0  0.4431656530201649 0.21 0  0.4506339552573136 0.21 0  0.4581022574944306 0.21 0  0.4655705597315852 0.21 0  0.4730388619686996 0.21 0  0.480507164205851 0.21 0  0.4879754664429498 0.21 0  0.4954437686800938 0.21 0  0.502912070917267 0.21 0  0.5103803731544119 0.21 0  0.5178486753915261 0.21 0  0.5253169776286404 0.21 0  0.5327852798657868 0.21 0  0.5402535821029386 0.21 0  0.54772188434007 0.21 0  0.5551901865771842 0.21 0  0.5626584888143201 0.21 0  0.5701267910514778 0.21 0  0.5775950932886138 0.21 0  0.5850633955257281 0.21 0  0.5925316977628483 0.21 0  0.6 0.2050000000000054 0  0.6 0.1950000000000217 0  0.5925316977628897 0.19 0  0.5850633955257988 0.19 0  0.5775950932887378 0.19 0  0.5701267910515998 0.19 0  0.5626584888145268 0.19 0  0.5551901865773963 0.19 0  0.547721884340339 0.19 0  0.5402535821032429 0.19 0  0.5327852798661811 0.19 0  0.5253169776290537 0.19 0  0.5178486753919799 0.19 0  0.5103803731549078 0.19 0  0.502912070917822 0.19 0  0.4954437686807294 0.19 0  0.4879754664436223 0.19 0  0.4805071642065402 0.19 0  0.4730388619694271 0.19 0  0.4655705597323621 0.19 0  0.4581022574952563 0.19 0  0.4506339552581777 0.19 0  0.4431656530210671 0.19 0  0.4356973507839815 0.19 0  0.4282290485468779 0.19 0  0.4207607463097617 0.19 0  0.4132924440726327 0.19 0  0.4058241418354857 0.19 0  0.3983558395983636 0.19 0  0.3908875373612097 0.19 0  0.3834192351240934 0.19 0  0.3759509328869369 0.19 0  0.3684826306498175 0.19 0  0.361014328412667 0.19 0  0.3535460261755617 0.19 0  0.3460777239384295 0.19 0  0.3386094217012945 0.19 0  0.3311411194641595 0.19 0  0.3236728172270245 0.19 0  0.3162045149898895 0.19 0  0.3087362127527544 0.19 0  0.3012679105156187 0.19 0  0.2937996082784807 0.19 0  0.2863313060413428 0.19 0  0.2788630038042048 0.19 0  0.2713947015670686 0.19 0  0.2639263993299336 0.19 0  0.2564580970927985 0.19 0  0.2607803159922026 0.2000727136295815 0  0.5887803774232762 0.2001272386983733 0  0.5745072403740523 0.2002044435018727 0  0.5511891430099709 0.2001122610077113 0  0.2751288526855082 0.20000000000002 0  0.5365194309847112 0.1999999999999436 0  0.2894621222999649 0.1998691686390484 0  0.5215828265105155 0.1999999999999228 0  0.3127789816668748 0.1998657885438805 0  0.3274069683451451 0.2000000000000796 0  0.5066462220363641 0.199999999999908 0  0.3650630746574081 0.199866017807523 0  0.476773013087985 0.1999999999998713 0  0.3417402379596385 0.1998691686391011 0  0.3796850840047755 0.200000000000134 0  0.4618364086138087 0.1999999999998546 0  0.4917096175621762 0.1999999999998808 0  0.3946216884789568 0.2000000000001512 0  0.446899804139621 0.1999999999998389 0  0.4089549580935208 0.1998691686391595 0  0.4322718174608562 0.200127451265745 0  0.4201487168029707 0.1999966199048527 0  0.3528922713220932 0.2000185703532356 0  0.5633122436674589 0.1999814296467508 0  0.3006558810093873 0.1999966199048318 0  0.5815926498168407 0.1966545283159175 0  0.2677053789419034 0.1964246479135325 0  0.5290511287476175 0.1970915826863981 0  0.5439877332217911 0.197091582686394 0  0.2825131256993216 0.2035478995978015 0  0.3199386661080599 0.202908417313604 0  0.4842413153250809 0.1970915826863873 0  0.5141145242734466 0.1970915826863843 0  0.3722167817676917 0.2029084173136195 0  0.4693047108508938 0.1970915826863783 0  0.3348752705822316 0.202908417313609 0  0.3871533862418661 0.2029084173136212 0  0.4543681063767183 0.1970915826863795 0  0.4991779197992749 0.1970915826863902 0  0.4020059614928624 0.203547899597858 0  0.4394315019025246 0.1970915826863714 0  0.2550657455369551 0.2034088125358657 0  0.2548908499171161 0.1966940311614271 0  0.5946539510196798 0.2024302972968126 0  0.267698176732111 0.2039977513680092 0  0.4261685417851465 0.196409292431739 0  0.3590076176283495 0.196411355804271 0  0.5571672426447437 0.2036011176410121 0  0.3066757059912147 0.1964092924317024 0  0.594380730180568 0.1966558399668133 0  0.4842413153245942 0.2040749161535287 0  0.4693047108503577 0.2040749161535231 0  0.3871533862424271 0.1959250838464788 0  0.372246743208829 0.1959123236376545 0  0.5141145242731028 0.2040749161535395 0  0.4543681063761134 0.2040749161535186 0  0.4019979587101454 0.1959834479682427 0  0.4394608940728603 0.2040870543693135 0  0.5439623148931173 0.2040856076781014 0  0.5290511287473298 0.2040749161535501 0  0.4991779197988497 0.2040749161535382 0  0.3347912413592433 0.1959225448935183 0  0.3199680582793816 0.1959123018030061 0  0.2825051229162361 0.1959834479681729 0  0.3590471196690275 0.2036304442587945 0  0.5571594006495384 0.1963685282145804 0  0.3067669986803285 0.203627750582736 0  0.4262598344738712 0.2036568242185335 0  0.5814408164431408 0.2041285596160068 0  0.5688286748170428 0.1961819304477386 0  0.4145905603063645 0.2038180695522843 0  0.3473758401724931 0.2038180695522752 0  0.2950977245128307 0.2038180695522663 0  0.5688286748170693 0.203818069552238 0  0.2950977245127906 0.1961819304477774 0  0.3473758401723931 0.1961819304478349 0  0.4145905603061963 0.1961819304479011 0  0.2601812407614425 0.2056861609747042
[...]
<PointData  Vectors="f_40-0"> 
<DataArray  type="Float64"  Name="f_40-0"  NumberOfComponents="3" format="ascii">0.0000000000000000e+00 0.0000000000000000e+00 0.0000000000000000e+00  0.0000000000000000e+00 0.0000000000000000e+00 0.0000000000000000e+00  0.0000000000000000e+00 0.0000000000000000e+00 0.0000000000000000e+00  0.0000000000000000e+00 0.0000000000000000e+00 0.0000000000000000e+00  1.1322600271877333e-04 5.0538955786388106e-03 0.0000000000000000e+00  -2.5756607425423019e-04 5.0575226747567609e-03 0.0000000000000000e+00  0.0000000000000000e+00 0.0000000000000000e+00 0.0000000000000000e+00  0.0000000000000000e+00 0.0000000000000000e+00 0.0000000000000000e+00  0.0000000000000000e+00 0.0000000000000000e+00 0.0000000000000000e+00  0.0000000000000000e+00 0.0000000000000000e+00 0.0000000000000000e+00  -7.1819439997272596e-05 5.0556711349701430e-03 0.0000000000000000e+00  5.2869693074311985e-01 0.0000000000000000e+00 0.0000000000000000e+00  9.7605587214120926e-01 0.0000000000000000e+00 0.0000000000000000e+00  1.3420768241941627e+00 0.0000000000000000e+00 0.0000000000000000e+00  1.6267597869024044e+00 0.0000000000000000e+00 0.0000000000000000e+00  1.8301047602658975e+00 0.0000000000000000e+00 0.0000000000000000e+00  1.9521117442846296e+00 0.0000000000000000e+00 0.0000000000000000e+00  1.9927807389584786e+00 0.0000000000000000e+00 0.0000000000000000e+00  1.9521117442870963e+00 0.0000000000000000e+00 0.0000000000000000e+00  1.8301047602701344e+00 0.0000000000000000e+00 0.0000000000000000e+00  1.6267597869076518e+00 0.0000000000000000e+00 0.0000000000000000e+00  1.3420768241991474e+00 0.0000000000000000e+00 0.0000000000000000e+00  9.7605587214546274e-01 0.0000000000000000e+00 0.0000000000000000e+00  5.2869693074551660e-01 0.0000000000000000e+00 0.0000000000000000e+00  0.0000000000000000e+00 0.0000000000000000e+00 0.0000000000000000e+00  0.0000000000000000e+00 0.0000000000000000e+00 0.0000000000000000e+00  0.0000000000000000e+00 0.0000000000000000e+00 0.0000000000000000e+00  0.0000000000000000e+00 0.0000000000000000e+00 0.0000000000000000e+00  0.0000000000000000e+00 0.0000000000000000e+00 0.0000000000000000e+00  0.0000000000000000e+00 0.0000000000000000e+00 0.0000000000000000e+00  0.0000000000000000e+00 0.0000000000000000e+00 0.0000000000000000e+00  0.0000000000000000e+00 0.0000000000000000e+00 0.0000000000000000e+00  0.0000000000000000e+00 0.0000000000000000e+00 0.0000000000000000e+00  0.0000000000000000e+00 0.0000000000000000e+00 0.0000000000000000e+00  0.0000000000000000e+00 0.0000000000000000e+00 0.0000000000000000e+00  0.0000000000000000e+00 0.0000000000000000e+00 0.0000000000000000e+00  0.0000000000000000e+00 0.0000000000000000e+00 0.0000000000000000e+00  0.0000000000000000e+00 0.0000000000000000e+00 0.0000000000000000e+00  0.0000000000000000e+00 0.0000000000000000e+00 0.0000000000000000e+00  0.0000000000000000e+00 0.0000000000000000e+00 0.0000000000000000e+00  0.0000000000000000e+00 0.0000000000000000e+00 0.0000000000000000e+00  0.0000000000000000e+00 0.0000000000000000e+00 0.0000000000000000e+00  0.0000000000000000e+00 0.0000000000000000e+00 0.0000000000000000e+00  0.0000000000000000e+00 0.0000000000000000e+00 0.0000000000000000e+00  0.0000000000000000e+00 0.0000000000000000e+00 0.0000000000000000e+00  0.0000000000000000e+00 0.0000000000000000e+00 0.0000000000000000e+00  0.0000000000000000e+00 0.0000000000000000e+00 0.0000000000000000e+00  0.0000000000000000e+00 0.0000000000000000e+00 0.0000000000000000e+00  0.0000000000000000e+00 0.0000000000000000e+00 0.0000000000000000e+00  0.0000000000000000e+00 0.0000000000000000e+00 0.0000000000000000e+00  0.0000000000000000e+00 0.0000000000000000e+00 0.0000000000000000e+00  0.0000000000000000e+00 0.0000000000000000e+00 0.0000000000000000e+00  0.0000000000000000e+00 0.0000000000000000e+00 0.0000000000000000e+00  0.0000000000000000e+00 0.0000000000000000e+00 0.0000000000000000e+00  0.0000000000000000e+00 0.0000000000000000e+00 0.0000000000000000e+00  0.0000000000000000e+00 0.0000000000000000e+00 0.0000000000000000e+00  0.0000000000000000e+00 0.0000000000000000e+00 0.0000000000000000e+00  0.0000000000000000e+00 0.0000000000000000e+00 0.0000000000000000e+00  0.0000000000000000e+00 0.0000000000000000e+00 0.0000000000000000e+00  0.0000000000000000e+00 0.0000000000000000e+00 0.0000000000000000e+00  0.0000000000000000e+00 0.0000000000000000e+00 0.0000000000000000e+00  0.0000000000000000e+00 0.0000000000000000e+00 0.0000000000000000e+00  1.8143657040584609e+00 -2.9097741484114002e-02 0.0000000000000000e+00  1.4779621071674773e+00 1.6790719025410409e-02 0.0000000000000000e+00  1.7867076550670420e+00 6.4647746081366989e-02 0.0000000000000000e+00  0.0000000000000000e+00 0.0000000000000000e+00 0.0000000000000000e+00  0.0000000000000000e+00 0.0000000000000000e+00 0.0000000000000000e+00  0.0000000000000000e+00 0.0000000000000000e+00 0.0000000000000000e+00  0.0000000000000000e+00 0.0000000000000000e+00 0.0000000000000000e+00  0.0000000000000000e+00 0.0000000000000000e+00 0.0000000000000000e+00  0.0000000000000000e+00 0.0000000000000000e+00 0.0000000000000000e+00  0.0000000000000000e+00 0.0000000000000000e+00 0.0000000000000000e+00  0.0000000000000000e+00 0.0000000000000000e+00 0.0000000000000000e+00  0.0000000000000000e+00 0.0000000000000000e+00 0.0000000000000000e+00  0.0000000000000000e+00 0.0000000000000000e+00 0.0000000000000000e+00  0.0000000000000000e+00 0.0000000000000000e+00 0.0000000000000000e+00  0.0000000000000000e+00 0.0000000000000000e+00 0.0000000000000000e+00  0.0000000000000000e+00 0.0000000000000000e+00 0.0000000000000000e+00  0.0000000000000000e+00 0.0000000000000000e+00 0.0000000000000000e+00  0.0000000000000000e+00 0.0000000000000000e+00 0.0000000000000000e+00  0.0000000000000000e+00 0.0000000000000000e+00 0.0000000000000000e+00  0.0000000000000000e+00 0.0000000000000000e+00 0.0000000000000000e+00  0.0000000000000000e+00 0.0000000000000000e+00 0.0000000000000000e+00  0.0000000000000000e+00 0.0000000000000000e+00 0.0000000000000000e+00  0.0000000000000000e+00 0.0000000000000000e+00 0.0000000000000000e+00  0.0000000000000000e+00 0.0000000000000000e+00 0.0000000000000000e+00  0.0000000000000000e+00 0.0000000000000000e+00 0.0000000000000000e+00  0.0000000000000000e+00 0.0000000000000000e+00 0.0000000000000000e+00  0.0000000000000000e+00 0.0000000000000000e+00 0.0000000000000000e+00  0.0000000000000000e+00 0.0000000000000000e+00 0.0000000000000000e+00  0.0000000000000000e+00 0.0000000000000000e+00 0.0000000000000000e+00  0.0000000000000000e+00 0.0000000000000000e+00 0.0000000000000000e+00  0.0000000000000000e+00 0.0000000000000000e+00 0.0000000000000000e+00  0.0000000000000000e+00 0.0000000000000000e+00 0.0000000000000000e+00  0.0000000000000000e+00 0.0000000000000000e+00 0.0000000000000000e+00  0.0000000000000000e+00 0.0000000000000000e+00 0.0000000000000000e+00  0.0000000000000000e+00 0.0000000000000000e+00 0.0000000000000000e+00  0.0000000000000000e+00 0.0000000000000000e+00 0.0000000000000000e+00  0.0000000000000000e+00 0.0000000000000000e+00 0.0000000000000000e+00  0.0000000000000000e+00 0.0000000000000000e+00 0.0000000000000000e+00  0.0000000000000000e+00 0.0000000000000000e+00 0.0000000000000000e+00  0.0000000000000000e+00 0.0000000000000000e+00 0.0000000000000000e+00  0.0000000000000000e+00 0.0000000000000000e+00 0.0000000000000000e+00  0.0000000000000000e+00 0.0000000000000000e+00 0.0000000000000000e+00  0.0000000000000000e+00 0.0000000000000000e+00 0.0000000000000000e+00  0.0000000000000000e+00 0.0000000000000000e+00 0.0000000000000000e+00  0.0000000000000000e+00 0.0000000000000000e+00 0.0000000000000000e+00  0.0000000000000000e+00 0.0000000000000000e+00 0.0000000000000000e+00  0.0000000000000000e+00 0.0000000000000000e+00 0.0000000000000000e+00  0.0000000000000000e+00 0.0000000000000000e+00 0.0000000000000000e+00  0.0000000000000000e+00 0.0000000000000000e+00 0.0000000000000000e+00  0.0000000000000000e+00 0.0000000000000000e+00 0.0000000000000000e+00  0.0000000000000000e+00 0.0000000000000000e+00 0.0000000000000000e+00  0.0000000000000000e+00 0.0000000000000000e+00 0.0000000000000000e+00  0.0000000000000000e+00 0.0000000000000000e+00 0.0000000000000000e+00  0.0000000000000000e+00 0.0000000000000000e+00 0.0000000000000000e+00  0.0000000000000000e+00 0.0000000000000000e+00 0.0000000000000000e+00  0.0000000000000000e+00 0.0000000000000000e+00 0.0000000000000000e+00  0.0000000000000000e+00 0.0000000000000000e+00 0.0000000000000000e+00  0.0000000000000000e+00 0.0000000000000000e+00 0.0000000000000000e+00  0.0000000000000000e+00 0.0000000000000000e+00 0.0000000000000000e+00  0.0000000000000000e+00 0.0000000000000000e+00 0.0000000000000000e+00  0.0000000000000000e+00 0.0000000000000000e+00 0.0000000000000000e+00  0.0000000000000000e+00 0.0000000000000000e+00 0.0000000000000000e+00  0.0000000000000000e+00 0.0000000000000000e+00 0.0000000000000000e+00  0.0000000000000000e+00 0.0000000000000000e+00 0.0000000000000000e+00  0.0000000000000000e+00 0.0000000000000000e+00 0.0000000000000000e+00  0.0000000000000000e+00 0.0000000000000000e+00 0.0000000000000000e+00  0.0000000000000000e+00 0.0000000000000000e+00 0.0000000000000000e+00  0.0000000000000000e+00 0.0000000000000000e+00 0.0000000000000000e+00  0.0000000000000000e+00 0.0000000000000000e+00 0.0000000000000000e+00  0.0000000000000000e+00 0.0000000000000000e+00 0.0000000000000000e+00  0.0000000000000000e+00 0.0000000000000000e+00 0.0000000000000000e+00  0.0000000000000000e+00 0.0000000000000000e+00 0.0000000000000000e+00  0.0000000000000000e+00 0.0000000000000000e+00 0.0000000000000000e+00  0.0000000000000000e+00 0.0000000000000000e+00 0.0000000000000000e+00  0.0000000000000000e+00 0.0000000000000000e+00 0.0000000000000000e+00  0.0000000000000000e+00 0.0000000000000000e+00 0.0000000000000000e+00  0.0000000000000000e+00 0.0000000000000000e+00 0.0000000000000000e+00  0.0000000000000000e+00 0.0000000000000000e+00 0.0000000000000000e+00  0.0000000000000000e+00 0.0000000000000000e+00 0.0000000000000000e+00  0.0000000000000000e+00 0.0000000000000000e+00 0.0000000000000000e+00  0.0000000000000000e+00 0.0000000000000000e+00 0.0000000000000000e+00  -1.3763470638207698e-05 1.4455599542783839e-05 0.0000000000000000e+00  -2.9223063893698429e-05 2.9139238601871361e-05 0.0000000000000000e+00  -4.3196016766636546e-05 5.2536201219941988e-05 0.0000000000000000e+00  -5.8113994527718470e-05 8.5232010234107547e-05 0.0000000000000000e+00  -7.0837042847819341e-05 1.2567790696367388e-04 0.0000000000000000e+00  -8.4820663653270784e-05 1.7458873924638952e-04 0.0000000000000000e+00  -9.6359334841343837e-05 2.2965218515340566e-04 0.0000000000000000e+00  -1.0747323080551263e-04 2.9273296850956023e-04 0.0000000000000000e+00  -1.1978008128686283e-04 3.6180601151137009e-04 0.0000000000000000e+00  -1.2950639788254336e-04 4.3701381861249218e-04 0.0000000000000000e+00  -1.4075250280564419e-04 5.1820423020237276e-04 0.0000000000000000e+00  -1.4955574515461260e-04 6.0474403332915123e-04 0.0000000000000000e+00  -1.5940477091506524e-04 6.9641482927223814e-04 0.0000000000000000e+00  -1.6749115052233293e-04 7.9213481685631317e-04 0.0000000000000000e+00  -1.7520583031264861e-04 8.9278068882177417e-04 0.0000000000000000e+00  -1.8351470528232927e-04 9.9705990885421304e-04 0.0000000000000000e+00  -1.9012516565448053e-04 1.1049604030601162e-03 0.0000000000000000e+00  -1.9746495301075652e-04 1.2163772523410301e-03 0.0000000000000000e+00  -2.0325408891479002e-04 1.3307555864246984e-03 0.0000000000000000e+00  -2.0956064928597475e-04 1.4479481377629741e-03 0.0000000000000000e+00  -2.1476602531161516e-04 1.5676762978397056e-03 0.0000000000000000e+00  -2.2012906439992163e-04 1.6898538350281257e-03 0.0000000000000000e+00  -2.2461631506069215e-04 1.8137453869188783e-03 0.0000000000000000e+00  -2.2879190563074636e-04 1.9398068179220863e-03 0.0000000000000000e+00  -2.3307232652979200e-04 2.0673148202977557e-03 0.0000000000000000e+00  -2.3668505800290658e-04 2.1964154371445842e-03 0.0000000000000000e+00  -2.4012283437663688e-04 2.3269504788858957e-03 0.0000000000000000e+00  -2.4313945037707956e-04 2.4585341844539431e-03 0.0000000000000000e+00  -2.4596499833990927e-04 2.5913095620344281e-03 0.0000000000000000e+00  -2.4841992484694034e-04 2.7248776350728811e-03 0.0000000000000000e+00  -2.5067892119276508e-04 2.8593820466496604e-03 0.0000000000000000e+00  -2.5260547712247557e-04 2.9944534405041217e-03 0.0000000000000000e+00  -2.5434171741651871e-04 3.1302445824879866e-03 0.0000000000000000e+00  -2.5577744869734908e-04 3.2664076309716289e-03 0.0000000000000000e+00  -2.5701470040660610e-04 3.4031233851131381e-03 0.0000000000000000e+00  -2.5799872625710470e-04 3.5400680447875677e-03 0.0000000000000000e+00  -2.5879914253994023e-04 3.6774063656375309e-03 0.0000000000000000e+00  -2.5937919716064513e-04 3.8148640493341469e-03 0.0000000000000000e+00  -2.5978115979826159e-04 3.9526020610975753e-03 0.0000000000000000e+00  -2.5999114035469027e-04 4.0903871719424542e-03 0.0000000000000000e+00  -2.6002991912178167e-04 4.2283490355592701e-03 0.0000000000000000e+00  -2.5992703269429234e-04 4.3663427380186918e-03 0.0000000000000000e+00  -2.5965349187722703e-04 4.5044323762236131e-03 0.0000000000000000e+00  -2.5930289897500202e-04 4.6425671804130979e-03 0.0000000000000000e+00  -2.5879244163278897e-04 4.7807180100314563e-03 0.0000000000000000e+00  -2.5818196570545892e-04 4.9189753674182234e-03 0.0000000000000000e+00  -1.6453887075643141e-04 5.0565954930183784e-03 0.0000000000000000e+00  2.0801923242985615e-05 5.0547642532349727e-03 0.0000000000000000e+00  1.1250244862940672e-04 4.9155065898537527e-03 0.0000000000000000e+00  1.1176182237676826e-04 4.7769816120837071e-03 0.0000000000000000e+00  1.1111216505070497e-04 4.6384465298065728e-03 0.0000000000000000e+00  1.1056629932872284e-04 4.4999959829288699e-03 0.0000000000000000e+00  1.1010741978274267e-04 4.3615879860212014e-03 0.0000000000000000e+00  1.0978383605881151e-04 4.2232603278591144e-03 0.0000000000000000e+00  1.0949949666986926e-04 4.0850212494535822e-03 0.0000000000000000e+00  1.0936529207340682e-04 3.9468580304137038e-03 0.0000000000000000e+00  1.0924998212342077e-04 3.8088916990688714e-03 0.0000000000000000e+00  1.0927970356414204e-04 3.6710471831377625e-03 0.0000000000000000e+00  1.0927870739333771e-04 3.5334884189552815e-03 0.0000000000000000e+00  1.0944048655672518e-04 3.3961640234558459e-03 0.0000000000000000e+00  1.0950924917973366e-04 3.2592512402966384e-03 0.0000000000000000e+00  1.0975612916766907e-04 3.1227238849459867e-03 0.0000000000000000e+00  1.0982664457688141e-04 2.9867526350189971e-03 0.0000000000000000e+00  1.1011072233154689e-04 2.8513501322426148e-03 0.0000000000000000e+00  1.1012538653808377e-04 2.7166866551291201e-03 0.0000000000000000e+00  1.1039649112892364e-04 2.5828125853769594e-03 0.0000000000000000e+00  1.1028599138717779e-04 2.4499039087824029e-03 0.0000000000000000e+00  1.1048290404576967e-04 2.3180454133218428e-03 0.0000000000000000e+00  1.1015431759384246e-04 2.1874119041843825e-03 0.0000000000000000e+00  1.1019470077057565e-04 2.0581389924772958e-03 0.0000000000000000e+00  1.0960397231100997e-04 1.9304180722173941e-03 0.0000000000000000e+00  1.0930571980235914e-04 1.8042375633518790e-03 0.0000000000000000e+00  1.0889208233747984e-04 1.6802491624473004e-03 0.0000000000000000e+00  1.0779516402875127e-04 1.5579213770813970e-03 0.0000000000000000e+00  1.0685804006210336e-04 1.4381734391736675e-03 0.0000000000000000e+00  1.0535962867958509e-04 1.3208129709073352e-03 0.0000000000000000e+00  1.0388859218913590e-04 1.2064026140724494e-03 0.0000000000000000e+00  1.0180540419146103e-04 1.0949405015129273e-03 0.0000000000000000e+00  9.9727923619127241e-05 9.8683084848676778e-04 0.0000000000000000e+00  9.6531812844002232e-05 8.8276838649924421e-04 0.0000000000000000e+00  9.3944602282084740e-05 7.8203394642021576e-04 0.0000000000000000e+00  9.1046348769601180e-05 6.8635923618952615e-04 0.0000000000000000e+00  8.6697249542449909e-05 5.9435279541209950e-04 0.0000000000000000e+00  8.2621734392593728e-05 5.0798648564188411e-04 0.0000000000000000e+00  7.7537542401132919e-05 4.2674235361668495e-04 0.0000000000000000e+00  7.2575136453138626e-05 3.5126597824710606e-04 0.0000000000000000e+00  6.5869752942491141e-05 2.8254973751444513e-04 0.0000000000000000e+00  6.0248927163748449e-05 2.1933738796722814e-04 0.0000000000000000e+00  5.4253243686801089e-05 1.6426259544552669e-04 0.0000000000000000e+00  4.6008840170170439e-05 1.1509414238696940e-04 0.0000000000000000e+00  3.8552845326508038e-05 7.4429809726472899e-05 0.0000000000000000e+00  2.9040135759398769e-05 4.2076157112640628e-05 0.0000000000000000e+00  2.0547329294407881e-05 1.8710422602890980e-05 0.0000000000000000e+00  9.7197140849476022e-06 4.6309975427459548e-06 0.0000000000000000e+00  -2.5350025393460810e-06 1.0208020246321300e-05 0.0000000000000000e+00  -7.5392612485513858e-05 4.8477147856885606e-03 0.0000000000000000e+00  -7.8026003717662938e-05 4.5833164822126782e-03 0.0000000000000000e+00  -7.7204123950664553e-05 4.1517568612801621e-03 0.0000000000000000e+00  -8.2737922801849126e-06 5.6897341544766516e-05 0.0000000000000000e+00  -7.5049549734370499e-05 3.8806624416761418e-03 0.0000000000000000e+00  -1.2850987213053485e-05 1.3471603111928998e-04 0.0000000000000000e+00  -7.4469308632711559e-05 3.6052848285783590e-03 0.0000000000000000e+00  -2.0983353859651547e-05 3.1985009335616188e-04 0.0000000000000000e+00  -2.7521344506523135e-05 4.6817748413699673e-04 0.0000000000000000e+00  -7.3366237204296111e-05 3.3309201369748835e-03 0.0000000000000000e+00  -3.8784036189832008e-05 9.4115002449962496e-04 0.0000000000000000e+00  -6.9623423384481737e-05 2.7874685956676480e-03 0.0000000000000000e+00  -3.1051492610867609e-05 6.3406087963496186e-04 0.0000000000000000e+00  -4.5456869054206955e-05 1.1531626460423835e-03 0.0000000000000000e+00  -6.7018166495598586e-05 2.5198492194318778e-03 0.0000000000000000e+00  -7.1746580379407362e-05 3.0580939938340745e-03 0.0000000000000000e+00  -5.0130880994475183e-05 1.3823061279529722e-03 0.0000000000000000e+00  -6.3948158041880667e-05 2.2562012387905834e-03 0.0000000000000000e+00  -5.2223240919099325e-05 1.6121748320498082e-03 0.0000000000000000e+00  -6.2721216294522642e-05 2.0029726017468377e-03 0.0000000000000000e+00  -5.7352222497561149e-05 1.7978128207527613e-03 0.0000000000000000e+00  -3.6741026499450549e-05 7.7642498339327507e-04 0.0000000000000000e+00  -7.4431706631027922e-05 4.3760191221248390e-03 0.0000000000000000e+00  -1.7713729956890067e-05 2.1630102867582052e-04 0.0000000000000000e+00  -1.1728035976498824e-05 4.7138780000244270e-03 0.0000000000000000e+00  5.6041484309577715e-06 2.7705102425740872e-05 0.0000000000000000e+00  -2.1262730845256812e-05 3.7420004300238521e-03 0.0000000000000000e+00  -2.1444462316551456e-05 4.0178098128246433e-03 0.0000000000000000e+00  -2.9758633091980311e-05 9.6127123971508660e-05 0.0000000000000000e+00  -5.3924333995565065e-05 3.9165397654552549e-04 0.0000000000000000e+00  -1.8172484794053017e-05 2.9213792223600995e-03 0.0000000000000000e+00  -2.0639818300140657e-05 3.4669946494742970e-03 0.0000000000000000e+00  -8.4869181306403434e-05 1.0450125231351794e-03 0.0000000000000000e+00  -1.6413088129196774e-05 2.6520960725070291e-03 0.0000000000000000e+00  -6.3458309381068996e-05 5.5423042935931368e-04 0.0000000000000000e+00  -9.2124758547674977e-05 1.2680004201564466e-03 0.0000000000000000e+00  -1.4366585464337507e-05 2.3862934142205687e-03 0.0000000000000000e+00  -1.9595818334568580e-05 3.1932553337626771e-03 0.0000000000000000e+00  -1.0891479485349863e-04 1.5016652239343920e-03 0.0000000000000000e+00  -1.2075243518398502e-05 2.1250094410087800e-03 0.0000000000000000e+00  -2.6454954154861795e-06 3.4068851257340736e-06 0.0000000000000000e+00  1.2771614125969501e-06 9.1682435047353481e-07 0.0000000000000000e+00  -1.1745376053665925e-04 4.9569858250416233e-03 0.0000000000000000e+00  -1.7652325658928545e-05 3.1919791826796254e-05 0.0000000000000000e+00  1.6001320869759680e-06 1.8974733706674314e-03 0.0000000