<?xml version="1.0"?>
<VTKFile type="UnstructuredGrid"  version="0.1"  >
<UnstructuredGrid>
<Piece  NumberOfPoints="1419" NumberOfCells="2698">
<Points>
<DataArray  type="Float64"  NumberOfComponents="3"  format="ascii">0 0 0  0 0.41 0  2.5 0 0  2.5 0.41 0  0.6 0.19 0  0.6 0.21 0  0.25 0.2 0  0.15 0.2 0  0.2489897948556636 0.21 0  0.2489897948556636 0.19 0  0.6 0.2 0  0 0.3807142857143437 0  0 0.3514285714286952 0  0 0.3221428571430699 0  0 0.29285714285744 0  0 0.2635714285718054 0  0 0.2342857142861561 0  0 0.2050000000005308 0  0 0.175714285714732 0  0 0.1464285714289574 0  0 0.1171428571431897 0  0 0.08785714285737878 0  0 0.05857142857161107 0  0 0.02928571428580012 0  0.03015443760436003 0 0  0.06140001986583606 0 0  0.09377624077125973 0 0  0.1273239957535082 0 0  0.1620856860351972 0 0  0.1981052433264291 0 0  0.235428184091502 0 0  0.2741016576309132 0 0  0.3141745521465447 0 0  0.3556974926295285 0 0  0.3987229542472677 0 0  0.4433053055141081 0 0  0.4895008759286886 0 0  0.5373680609405097 0 0  0.5869673343216626 0 0  0.6383613676634521 0 0  0.6916151138468254 0 0  0.7467958595648856 0 0  0.8039733463919316 0 0  0.8632198139502143 0 0  0.9246101326867038 0 0  0.9882218810934433 0 0  1.054135445558498 0 0  1.122434100542598 0 0  1.193204177141305 0 0  1.266535089879536 0 0  1.342519516046404 0 0  1.421253448503939 0 0  1.502836389106271 0 0  1.587371439758838 0 0  1.674965418777374 0 0  1.765729001825544 0 0  1.859776908880082 0 0  1.957227977487062 0 0  2.058205329869943 0 0  2.162836591189951 0 0  2.271253957290865 0 0  2.383594446803425 0 0  2.5 0.1024999999997612 0  2.5 0.2049999999994743 0  2.5 0.3074999999997183 0  2.383594446803656 0.41 0  2.271253957291315 0.41 0  2.162836591190598 0.41 0  2.058205329870775 0.41 0  1.957227977488067 0.41 0  1.859776908881246 0.41 0  1.765729001826854 0.41 0  1.674965418778818 0.41 0  1.58737143976041 0.41 0  1.502836389107956 0.41 0  1.421253448505726 0.41 0  1.342519516048286 0.41 0  1.266535089881505 0.41 0  1.193204177143353 0.41 0  1.122434100544716 0.41 0  1.05413544556068 0.41 0  0.9882218810956305 0.41 0  0.9246101326886647 0.41 0  0.8632198139519631 0.41 0  0.8039733463934788 0.41 0  0.7467958595662458 0.41 0  0.6916151138480078 0.41 0  0.6383613676644679 0.41 0  0.5869673343225223 0.41 0  0.5373680609412221 0.41 0  0.4895008759292634 0.41 0  0.4433053055145528 0.41 0  0.3987229542475914 0.41 0  0.3556974926297398 0.41 0  0.3141745521466497 0.41 0  0.2741016576310038 0.41 0  0.2354281840915826 0.41 0  0.1981052433265003 0.41 0  0.1620856860352591 0.41 0  0.1273239957535623 0.41 0  0.09377624077128965 0.41 0  0.06140001986584975 0.41 0  0.03015443760436654 0.41 0  0.2497468076502589 0.2050254481002335 0  0.2497468076502614 0.1949745518997913 0  0.2469965252529372 0.1829317073451959 0  0.2439893735792749 0.1762316384219906 0  0.2400332147834255 0.1700443375285386 0  0.2352133972704371 0.1645032867342007 0  0.2296339016332438 0.1597280261969788 0  0.2234150974217223 0.1558215752574715 0  0.2166911463437691 0.1528682099456123 0  0.2096071079204251 0.1509316448471593 0  0.2023158100364996 0.1500536585536553 0  0.194974551899914 0.1502531923497262 0  0.1877417105387872 0.1515259415822739 0  0.1807733240461124 0.153844448527136 0  0.1742197252835808 0.15715869474974 0  0.1682222986673531 0.1613971801805478 0  0.162910430003803 0.1664684656256651 0  0.1583987151779087 0.1722631454351573 0  0.1547844879126891 0.178656207771761 0  0.1521457199348551 0.1855097315605723 0  0.1505393388476355 0.1926758619366523 0  0.1505393388476328 0.2073241380633295 0  0.1521457199348437 0.2144902684393899 0  0.1547844879126531 0.221343792228163 0  0.1583987151778488 0.2277368545647528 0  0.1629104300036858 0.2335315343742052 0  0.1682222986671726 0.2386028198193036 0  0.1742197252833576 0.2428413052501257 0  0.1807733240458683 0.2461555514727623 0  0.1877417105384929 0.2484740584176516 0  0.1949745518995776 0.2497468076502398 0  0.202315810036185 0.2499463414463592 0  0.2096071079201568 0.2490683551528932 0  0.2166911463435495 0.2471317900544655 0  0.2234150974215506 0.2441784247426195 0  0.2296339016331197 0.2402719738031125 0  0.2352133972703547 0.2354967132658811 0  0.2400332147833751 0.2299556624715287 0  0.2439893735792577 0.2237683615780412 0  0.246996525252926 0.2170682926548348 0  0.25645809709277 0.21 0  0.2639263993298655 0.21 0  0.271394701566961 0.21 0  0.2788630038040554 0.21 0  0.2863313060411479 0.21 0  0.2937996082782405 0.21 0  0.301267910515333 0.21 0  0.3087362127524279 0.21 0  0.3162045149895234 0.21 0  0.3236728172265972 0.21 0  0.3311411194636928 0.21 0  0.3386094217007701 0.21 0  0.3460777239378666 0.21 0  0.3535460261749672 0.21 0  0.3610143284120516 0.21 0  0.3684826306491596 0.21 0  0.3759509328862226 0.21 0  0.383419235123329 0.21 0  0.3908875373604028 0.21 0  0.3983558395975142 0.21 0  0.4058241418345938 0.21 0  0.4132924440716992 0.21 0  0.4207607463087888 0.21 0  0.4282290485459029 0.21 0  0.4356973507830418 0.21 0  0.4431656530201649 0.21 0  0.4506339552573136 0.21 0  0.4581022574944306 0.21 0  0.4655705597315852 0.21 0  0.4730388619686996 0.21 0  0.480507164205851 0.21 0  0.4879754664429498 0.21 0  0.4954437686800938 0.21 0  0.502912070917267 0.21 0  0.5103803731544119 0.21 0  0.5178486753915261 0.21 0  0.5253169776286404 0.21 0  0.5327852798657868 0.21 0  0.5402535821029386 0.21 0  0.54772188434007 0.21 0  0.5551901865771842 0.21 0  0.5626584888143201 0.21 0  0.5701267910514778 0.21 0  0.5775950932886138 0.21 0  0.5850633955257281 0.21 0  0.5925316977628483 0.21 0  0.6 0.2050000000000054 0  0.6 0.1950000000000217 0  0.5925316977628897 0.19 0  0.5850633955257988 0.19 0  0.5775950932887378 0.19 0  0.5701267910515998 0.19 0  0.5626584888145268 0.19 0  0.5551901865773963 0.19 0  0.547721884340339 0.19 0  0.5402535821032429 0.19 0  0.5327852798661811 0.19 0  0.5253169776290537 0.19 0  0.5178486753919799 0.19 0  0.5103803731549078 0.19 0  0.502912070917822 0.19 0  0.4954437686807294 0.19 0  0.4879754664436223 0.19 0  0.4805071642065402 0.19 0  0.4730388619694271 0.19 0  0.4655705597323621 0.19 0  0.4581022574952563 0.19 0  0.4506339552581777 0.19 0  0.4431656530210671 0.19 0  0.4356973507839815 0.19 0  0.4282290485468779 0.19 0  0.4207607463097617 0.19 0  0.4132924440726327 0.19 0  0.4058241418354857 0.19 0  0.3983558395983636 0.19 0  0.3908875373612097 0.19 0  0.3834192351240934 0.19 0  0.3759509328869369 0.19 0  0.3684826306498175 0.19 0  0.361014328412667 0.19 0  0.3535460261755617 0.19 0  0.3460777239384295 0.19 0  0.3386094217012945 0.19 0  0.3311411194641595 0.19 0  0.3236728172270245 0.19 0  0.3162045149898895 0.19 0  0.3087362127527544 0.19 0  0.3012679105156187 0.19 0  0.2937996082784807 0.19 0  0.2863313060413428 0.19 0  0.2788630038042048 0.19 0  0.2713947015670686 0.19 0  0.2639263993299336 0.19 0  0.2564580970927985 0.19 0  0.2607803159922026 0.2000727136295815 0  0.5887803774232762 0.2001272386983733 0  0.5745072403740523 0.2002044435018727 0  0.5511891430099709 0.2001122610077113 0  0.2751288526855082 0.20000000000002 0  0.5365194309847112 0.1999999999999436 0  0.2894621222999649 0.1998691686390484 0  0.5215828265105155 0.1999999999999228 0  0.3127789816668748 0.1998657885438805 0  0.3274069683451451 0.2000000000000796 0  0.5066462220363641 0.199999999999908 0  0.3650630746574081 0.199866017807523 0  0.476773013087985 0.1999999999998713 0  0.3417402379596385 0.1998691686391011 0  0.3796850840047755 0.200000000000134 0  0.4618364086138087 0.1999999999998546 0  0.4917096175621762 0.1999999999998808 0  0.3946216884789568 0.2000000000001512 0  0.446899804139621 0.1999999999998389 0  0.4089549580935208 0.1998691686391595 0  0.4322718174608562 0.200127451265745 0  0.4201487168029707 0.1999966199048527 0  0.3528922713220932 0.2000185703532356 0  0.5633122436674589 0.1999814296467508 0  0.3006558810093873 0.1999966199048318 0  0.5815926498168407 0.1966545283159175 0  0.2677053789419034 0.1964246479135325 0  0.5290511287476175 0.1970915826863981 0  0.5439877332217911 0.197091582686394 0  0.2825131256993216 0.2035478995978015 0  0.3199386661080599 0.202908417313604 0  0.4842413153250809 0.1970915826863873 0  0.5141145242734466 0.1970915826863843 0  0.3722167817676917 0.2029084173136195 0  0.4693047108508938 0.1970915826863783 0  0.3348752705822316 0.202908417313609 0  0.3871533862418661 0.2029084173136212 0  0.4543681063767183 0.1970915826863795 0  0.4991779197992749 0.1970915826863902 0  0.4020059614928624 0.203547899597858 0  0.4394315019025246 0.1970915826863714 0  0.2550657455369551 0.2034088125358657 0  0.2548908499171161 0.1966940311614271 0  0.5946539510196798 0.2024302972968126 0  0.267698176732111 0.2039977513680092 0  0.4261685417851465 0.196409292431739 0  0.3590076176283495 0.196411355804271 0  0.5571672426447437 0.2036011176410121 0  0.3066757059912147 0.1964092924317024 0  0.594380730180568 0.1966558399668133 0  0.4842413153245942 0.2040749161535287 0  0.4693047108503577 0.2040749161535231 0  0.3871533862424271 0.1959250838464788 0  0.372246743208829 0.1959123236376545 0  0.5141145242731028 0.2040749161535395 0  0.4543681063761134 0.2040749161535186 0  0.4019979587101454 0.1959834479682427 0  0.4394608940728603 0.2040870543693135 0  0.5439623148931173 0.2040856076781014 0  0.5290511287473298 0.2040749161535501 0  0.4991779197988497 0.2040749161535382 0  0.3347912413592433 0.1959225448935183 0  0.3199680582793816 0.1959123018030061 0  0.2825051229162361 0.1959834479681729 0  0.3590471196690275 0.2036304442587945 0  0.5571594006495384 0.1963685282145804 0  0.3067669986803285 0.203627750582736 0  0.4262598344738712 0.2036568242185335 0  0.5814408164431408 0.2041285596160068 0  0.5688286748170428 0.1961819304477386 0  0.4145905603063645 0.2038180695522843 0  0.3473758401724931 0.2038180695522752 0  0.2950977245128307 0.2038180695522663 0  0.5688286748170693 0.203818069552238 0  0.2950977245127906 0.1961819304477774 0  0.3473758401723931 0.1961819304478349 0  0.4145905603061963 0.1961819304479011 0  0.2601812407614425 0.2056861609747042
[...]
<PointData  Vectors="f_40-0"> 
<DataArray  type="Float64"  Name="f_40-0"  NumberOfComponents="3" format="ascii">0.0000000000000000e+00 0.0000000000000000e+00 0.0000000000000000e+00  0.0000000000000000e+00 0.0000000000000000e+00 0.0000000000000000e+00  0.0000000000000000e+00 0.0000000000000000e+00 0.0000000000000000e+00  0.0000000000000000e+00 0.0000000000000000e+00 0.0000000000000000e+00  -3.4095132647168848e-05 -7.0509328028722307e-05 0.0000000000000000e+00  -2.7869913685380542e-05 -7.6330814708044283e-05 0.0000000000000000e+00  0.0000000000000000e+00 0.0000000000000000e+00 0.0000000000000000e+00  0.0000000000000000e+00 0.0000000000000000e+00 0.0000000000000000e+00  0.0000000000000000e+00 0.0000000000000000e+00 0.0000000000000000e+00  0.0000000000000000e+00 0.0000000000000000e+00 0.0000000000000000e+00  -3.1271105203527997e-05 -7.3419140027249706e-05 0.0000000000000000e+00  1.0576464187066068e-02 0.0000000000000000e+00 0.0000000000000000e+00  1.9525780037661731e-02 0.0000000000000000e+00 0.0000000000000000e+00  2.6847947551784882e-02 0.0000000000000000e+00 0.0000000000000000e+00  3.2542966729444005e-02 0.0000000000000000e+00 0.0000000000000000e+00  3.6610837570638356e-02 0.0000000000000000e+00 0.0000000000000000e+00  3.9051560075367704e-02 0.0000000000000000e+00 0.0000000000000000e+00  3.9865134243629592e-02 0.0000000000000000e+00 0.0000000000000000e+00  3.9051560075417047e-02 0.0000000000000000e+00 0.0000000000000000e+00  3.6610837570723122e-02 0.0000000000000000e+00 0.0000000000000000e+00  3.2542966729548976e-02 0.0000000000000000e+00 0.0000000000000000e+00  2.6847947551884601e-02 0.0000000000000000e+00 0.0000000000000000e+00  1.9525780037746823e-02 0.0000000000000000e+00 0.0000000000000000e+00  1.0576464187114016e-02 0.0000000000000000e+00 0.0000000000000000e+00  0.0000000000000000e+00 0.0000000000000000e+00 0.0000000000000000e+00  0.0000000000000000e+00 0.0000000000000000e+00 0.0000000000000000e+00  0.0000000000000000e+00 0.0000000000000000e+00 0.0000000000000000e+00  0.0000000000000000e+00 0.0000000000000000e+00 0.0000000000000000e+00  0.0000000000000000e+00 0.0000000000000000e+00 0.0000000000000000e+00  0.0000000000000000e+00 0.0000000000000000e+00 0.0000000000000000e+00  0.0000000000000000e+00 0.0000000000000000e+00 0.0000000000000000e+00  0.0000000000000000e+00 0.0000000000000000e+00 0.0000000000000000e+00  0.0000000000000000e+00 0.0000000000000000e+00 0.0000000000000000e+00  0.0000000000000000e+00 0.0000000000000000e+00 0.0000000000000000e+00  0.0000000000000000e+00 0.0000000000000000e+00 0.0000000000000000e+00  0.0000000000000000e+00 0.0000000000000000e+00 0.0000000000000000e+00  0.0000000000000000e+00 0.0000000000000000e+00 0.0000000000000000e+00  0.0000000000000000e+00 0.0000000000000000e+00 0.0000000000000000e+00  0.0000000000000000e+00 0.0000000000000000e+00 0.0000000000000000e+00  0.0000000000000000e+00 0.0000000000000000e+00 0.0000000000000000e+00  0.0000000000000000e+00 0.0000000000000000e+00 0.0000000000000000e+00  0.0000000000000000e+00 0.0000000000000000e+00 0.0000000000000000e+00  0.0000000000000000e+00 0.0000000000000000e+00 0.0000000000000000e+00  0.0000000000000000e+00 0.0000000000000000e+00 0.0000000000000000e+00  0.0000000000000000e+00 0.0000000000000000e+00 0.0000000000000000e+00  0.0000000000000000e+00 0.0000000000000000e+00 0.0000000000000000e+00  0.0000000000000000e+00 0.0000000000000000e+00 0.0000000000000000e+00  0.0000000000000000e+00 0.0000000000000000e+00 0.0000000000000000e+00  0.0000000000000000e+00 0.0000000000000000e+00 0.0000000000000000e+00  0.0000000000000000e+00 0.0000000000000000e+00 0.0000000000000000e+00  0.0000000000000000e+00 0.0000000000000000e+00 0.0000000000000000e+00  0.0000000000000000e+00 0.0000000000000000e+00 0.0000000000000000e+00  0.0000000000000000e+00 0.0000000000000000e+00 0.0000000000000000e+00  0.0000000000000000e+00 0.0000000000000000e+00 0.0000000000000000e+00  0.0000000000000000e+00 0.0000000000000000e+00 0.0000000000000000e+00  0.0000000000000000e+00 0.0000000000000000e+00 0.0000000000000000e+00  0.0000000000000000e+00 0.0000000000000000e+00 0.0000000000000000e+00  0.0000000000000000e+00 0.0000000000000000e+00 0.0000000000000000e+00  0.0000000000000000e+00 0.0000000000000000e+00 0.0000000000000000e+00  0.0000000000000000e+00 0.0000000000000000e+00 0.0000000000000000e+00  0.0000000000000000e+00 0.0000000000000000e+00 0.0000000000000000e+00  0.0000000000000000e+00 0.0000000000000000e+00 0.0000000000000000e+00  2.8180327656232098e-02 4.1029490968432164e-04 0.0000000000000000e+00  2.3831639171535253e-02 -1.0539128795246551e-04 0.0000000000000000e+00  2.7834420565539329e-02 -4.2565553969716369e-04 0.0000000000000000e+00  0.0000000000000000e+00 0.0000000000000000e+00 0.0000000000000000e+00  0.0000000000000000e+00 0.0000000000000000e+00 0.0000000000000000e+00  0.0000000000000000e+00 0.0000000000000000e+00 0.0000000000000000e+00  0.0000000000000000e+00 0.0000000000000000e+00 0.0000000000000000e+00  0.0000000000000000e+00 0.0000000000000000e+00 0.0000000000000000e+00  0.0000000000000000e+00 0.0000000000000000e+00 0.0000000000000000e+00  0.0000000000000000e+00 0.0000000000000000e+00 0.0000000000000000e+00  0.0000000000000000e+00 0.0000000000000000e+00 0.0000000000000000e+00  0.0000000000000000e+00 0.0000000000000000e+00 0.0000000000000000e+00  0.0000000000000000e+00 0.0000000000000000e+00 0.0000000000000000e+00  0.0000000000000000e+00 0.0000000000000000e+00 0.0000000000000000e+00  0.0000000000000000e+00 0.0000000000000000e+00 0.0000000000000000e+00  0.0000000000000000e+00 0.0000000000000000e+00 0.0000000000000000e+00  0.0000000000000000e+00 0.0000000000000000e+00 0.0000000000000000e+00  0.0000000000000000e+00 0.0000000000000000e+00 0.0000000000000000e+00  0.0000000000000000e+00 0.0000000000000000e+00 0.0000000000000000e+00  0.0000000000000000e+00 0.0000000000000000e+00 0.0000000000000000e+00  0.0000000000000000e+00 0.0000000000000000e+00 0.0000000000000000e+00  0.0000000000000000e+00 0.0000000000000000e+00 0.0000000000000000e+00  0.0000000000000000e+00 0.0000000000000000e+00 0.0000000000000000e+00  0.0000000000000000e+00 0.0000000000000000e+00 0.0000000000000000e+00  0.0000000000000000e+00 0.0000000000000000e+00 0.0000000000000000e+00  0.0000000000000000e+00 0.0000000000000000e+00 0.0000000000000000e+00  0.0000000000000000e+00 0.0000000000000000e+00 0.0000000000000000e+00  0.0000000000000000e+00 0.0000000000000000e+00 0.0000000000000000e+00  0.0000000000000000e+00 0.0000000000000000e+00 0.0000000000000000e+00  0.0000000000000000e+00 0.0000000000000000e+00 0.0000000000000000e+00  0.0000000000000000e+00 0.0000000000000000e+00 0.0000000000000000e+00  0.0000000000000000e+00 0.0000000000000000e+00 0.0000000000000000e+00  0.0000000000000000e+00 0.0000000000000000e+00 0.0000000000000000e+00  0.0000000000000000e+00 0.0000000000000000e+00 0.0000000000000000e+00  0.0000000000000000e+00 0.0000000000000000e+00 0.0000000000000000e+00  0.0000000000000000e+00 0.0000000000000000e+00 0.0000000000000000e+00  0.0000000000000000e+00 0.0000000000000000e+00 0.0000000000000000e+00  0.0000000000000000e+00 0.0000000000000000e+00 0.0000000000000000e+00  0.0000000000000000e+00 0.0000000000000000e+00 0.0000000000000000e+00  0.0000000000000000e+00 0.0000000000000000e+00 0.0000000000000000e+00  0.0000000000000000e+00 0.0000000000000000e+00 0.0000000000000000e+00  0.0000000000000000e+00 0.0000000000000000e+00 0.0000000000000000e+00  0.0000000000000000e+00 0.0000000000000000e+00 0.0000000000000000e+00  0.0000000000000000e+00 0.0000000000000000e+00 0.0000000000000000e+00  0.0000000000000000e+00 0.0000000000000000e+00 0.0000000000000000e+00  0.0000000000000000e+00 0.0000000000000000e+00 0.0000000000000000e+00  0.0000000000000000e+00 0.0000000000000000e+00 0.0000000000000000e+00  0.0000000000000000e+00 0.0000000000000000e+00 0.0000000000000000e+00  0.0000000000000000e+00 0.0000000000000000e+00 0.0000000000000000e+00  0.0000000000000000e+00 0.0000000000000000e+00 0.0000000000000000e+00  0.0000000000000000e+00 0.0000000000000000e+00 0.0000000000000000e+00  0.0000000000000000e+00 0.0000000000000000e+00 0.0000000000000000e+00  0.0000000000000000e+00 0.0000000000000000e+00 0.0000000000000000e+00  0.0000000000000000e+00 0.0000000000000000e+00 0.0000000000000000e+00  0.0000000000000000e+00 0.0000000000000000e+00 0.0000000000000000e+00  0.0000000000000000e+00 0.0000000000000000e+00 0.0000000000000000e+00  0.0000000000000000e+00 0.0000000000000000e+00 0.0000000000000000e+00  0.0000000000000000e+00 0.0000000000000000e+00 0.0000000000000000e+00  0.0000000000000000e+00 0.0000000000000000e+00 0.0000000000000000e+00  0.0000000000000000e+00 0.0000000000000000e+00 0.0000000000000000e+00  0.0000000000000000e+00 0.0000000000000000e+00 0.0000000000000000e+00  0.0000000000000000e+00 0.0000000000000000e+00 0.0000000000000000e+00  0.0000000000000000e+00 0.0000000000000000e+00 0.0000000000000000e+00  0.0000000000000000e+00 0.0000000000000000e+00 0.0000000000000000e+00  0.0000000000000000e+00 0.0000000000000000e+00 0.0000000000000000e+00  0.0000000000000000e+00 0.0000000000000000e+00 0.0000000000000000e+00  0.0000000000000000e+00 0.0000000000000000e+00 0.0000000000000000e+00  0.0000000000000000e+00 0.0000000000000000e+00 0.0000000000000000e+00  0.0000000000000000e+00 0.0000000000000000e+00 0.0000000000000000e+00  0.0000000000000000e+00 0.0000000000000000e+00 0.0000000000000000e+00  0.0000000000000000e+00 0.0000000000000000e+00 0.0000000000000000e+00  0.0000000000000000e+00 0.0000000000000000e+00 0.0000000000000000e+00  0.0000000000000000e+00 0.0000000000000000e+00 0.0000000000000000e+00  0.0000000000000000e+00 0.0000000000000000e+00 0.0000000000000000e+00  0.0000000000000000e+00 0.0000000000000000e+00 0.0000000000000000e+00  0.0000000000000000e+00 0.0000000000000000e+00 0.0000000000000000e+00  0.0000000000000000e+00 0.0000000000000000e+00 0.0000000000000000e+00  0.0000000000000000e+00 0.0000000000000000e+00 0.0000000000000000e+00  0.0000000000000000e+00 0.0000000000000000e+00 0.0000000000000000e+00  0.0000000000000000e+00 0.0000000000000000e+00 0.0000000000000000e+00  0.0000000000000000e+00 0.0000000000000000e+00 0.0000000000000000e+00  -1.6450951246154215e-07 -5.0466902459176319e-06 0.0000000000000000e+00  -1.7801927525335806e-07 -5.5406595594897804e-06 0.0000000000000000e+00  4.1771278294179261e-08 -5.8396763438231835e-06 0.0000000000000000e+00  3.8557512155095467e-07 -6.0744587760611418e-06 0.0000000000000000e+00  7.3590974161970994e-07 -6.3895081649866104e-06 0.0000000000000000e+00  1.0576010826339188e-06 -6.8441683695180796e-06 0.0000000000000000e+00  1.3255787232532919e-06 -7.3679495698695707e-06 0.0000000000000000e+00  1.5422286080175902e-06 -7.9898040631273770e-06 0.0000000000000000e+00  1.7473900730243773e-06 -8.6947304088321939e-06 0.0000000000000000e+00  1.8738604863372525e-06 -9.4682132121962367e-06 0.0000000000000000e+00  1.9840916014544566e-06 -1.0349152120797648e-05 0.0000000000000000e+00  2.0183108696205327e-06 -1.1285915674943878e-05 0.0000000000000000e+00  2.0234522074620312e-06 -1.2315428330988082e-05 0.0000000000000000e+00  1.9696147068781084e-06 -1.3411718923165856e-05 0.0000000000000000e+00  1.8587593637171959e-06 -1.4586334554151625e-05 0.0000000000000000e+00  1.7288157633474014e-06 -1.5836625787578463e-05 0.0000000000000000e+00  1.5203140149444378e-06 -1.7134169119934009e-05 0.0000000000000000e+00  1.2848394476890878e-06 -1.8529095102476023e-05 0.0000000000000000e+00  9.7668911831177316e-07 -1.9955954616278361e-05 0.0000000000000000e+00  6.3935483089219252e-07 -2.1474002673997296e-05 0.0000000000000000e+00  2.3506796736638660e-07 -2.3023036373104784e-05 0.0000000000000000e+00  -2.1352896519393951e-07 -2.4647465432965023e-05 0.0000000000000000e+00  -7.1310495648418910e-07 -2.6316364651806756e-05 0.0000000000000000e+00  -1.2713487709268742e-06 -2.8037945195509991e-05 0.0000000000000000e+00  -1.8563311878742399e-06 -2.9813123248752113e-05 0.0000000000000000e+00  -2.5099105512397630e-06 -3.1614962840790102e-05 0.0000000000000000e+00  -3.2112482784596004e-06 -3.3492706240565389e-05 0.0000000000000000e+00  -3.9669567553838849e-06 -3.5376986750442079e-05 0.0000000000000000e+00  -4.7707419240616572e-06 -3.7330921357395316e-05 0.0000000000000000e+00  -5.6277461060361172e-06 -3.9290728682124445e-05 0.0000000000000000e+00  -6.5329911973821348e-06 -4.1313457486175911e-05 0.0000000000000000e+00  -7.4924998557017954e-06 -4.3336925809423651e-05 0.0000000000000000e+00  -8.4986011707422872e-06 -4.5420064121247349e-05 0.0000000000000000e+00  -9.5601488503381086e-06 -4.7495205091691722e-05 0.0000000000000000e+00  -1.0672532540715739e-05 -4.9628670322264614e-05 0.0000000000000000e+00  -1.1836889812053248e-05 -5.1751678591033381e-05 0.0000000000000000e+00  -1.3049805439896699e-05 -5.3925369360490513e-05 0.0000000000000000e+00  -1.4315300545327138e-05 -5.6085809401027677e-05 0.0000000000000000e+00  -1.5632059677645403e-05 -5.8292228282106133e-05 0.0000000000000000e+00  -1.7003578172008530e-05 -6.0481683956528735e-05 0.0000000000000000e+00  -1.8432878140402803e-05 -6.2702204347181887e-05 0.0000000000000000e+00  -1.9903360557907484e-05 -6.4919942970732226e-05 0.0000000000000000e+00  -2.1436584382365191e-05 -6.7150470861106838e-05 0.0000000000000000e+00  -2.2999787494867650e-05 -6.9384741547726082e-05 0.0000000000000000e+00  -2.4623603167817512e-05 -7.1607057967999020e-05 0.0000000000000000e+00  -2.6267884302503871e-05 -7.3873000455989415e-05 0.0000000000000000e+00  -2.9676457056272734e-05 -7.4874578182353830e-05 0.0000000000000000e+00  -3.2774641742502795e-05 -7.1967165334696519e-05 0.0000000000000000e+00  -3.2479013058059834e-05 -6.8324284901098757e-05 0.0000000000000000e+00  -3.0813143512337828e-05 -6.5952165546167576e-05 0.0000000000000000e+00  -2.9172016014546610e-05 -6.3558869297099748e-05 0.0000000000000000e+00  -2.7585240678654772e-05 -6.1189831646553692e-05 0.0000000000000000e+00  -2.6030820000263193e-05 -5.8827195921160586e-05 0.0000000000000000e+00  -2.4537881916508422e-05 -5.6474493219314594e-05 0.0000000000000000e+00  -2.3078713956177281e-05 -5.4138316877524392e-05 0.0000000000000000e+00  -2.1677336212074273e-05 -5.1797484245957215e-05 0.0000000000000000e+00  -2.0317681728088690e-05 -4.9496388423891042e-05 0.0000000000000000e+00  -1.9009821472031390e-05 -4.7181730746099706e-05 0.0000000000000000e+00  -1.7741969956997034e-05 -4.4913627389929398e-05 0.0000000000000000e+00  -1.6527304017933799e-05 -4.2636860963575745e-05 0.0000000000000000e+00  -1.5350650734418875e-05 -4.0410812975254215e-05 0.0000000000000000e+00  -1.4227152323205530e-05 -3.8180780739265085e-05 0.0000000000000000e+00  -1.3139213424335573e-05 -3.6005326516770224e-05 0.0000000000000000e+00  -1.2106188679328567e-05 -3.3830154643235330e-05 0.0000000000000000e+00  -1.1107655256672105e-05 -3.1714004097497117e-05 0.0000000000000000e+00  -1.0165546746052043e-05 -2.9603090348244549e-05 0.0000000000000000e+00  -9.2554395384226944e-06 -2.7556980206850419e-05 0.0000000000000000e+00  -8.4026856351228703e-06 -2.5521587594086904e-05 0.0000000000000000e+00  -7.5796592925525100e-06 -2.3555019383163759e-05 0.0000000000000000e+00  -6.8156464362991728e-06 -2.1605673680012590e-05 0.0000000000000000e+00  -6.0870411763803150e-06 -1.9720097637803053e-05 0.0000000000000000e+00  -5.4047972394126772e-06 -1.7872404552801460e-05 0.0000000000000000e+00  -4.7777126808002287e-06 -1.6085709403167807e-05 0.0000000000000000e+00  -4.1666713260538093e-06 -1.4347260694875567e-05 0.0000000000000000e+00  -3.6179696504059432e-06 -1.2655424844662732e-05 0.0000000000000000e+00  -3.1048758286888001e-06 -1.1048122876911560e-05 0.0000000000000000e+00  -2.6431900537231414e-06 -9.4728447144146255e-06 0.0000000000000000e+00  -2.2196208637041892e-06 -7.9919845547420893e-06 0.0000000000000000e+00  -1.8461471207182840e-06 -6.5460697100223247e-06 0.0000000000000000e+00  -1.5093722101830225e-06 -5.1977329128057191e-06 0.0000000000000000e+00  -1.2195343757529884e-06 -3.8982622417234840e-06 0.0000000000000000e+00  -9.8241718464579315e-07 -2.6904849307205100e-06 0.0000000000000000e+00  -7.5713244650942053e-07 -1.5446434602353270e-06 0.0000000000000000e+00  -5.9438252944030956e-07 -4.7643110731617705e-07 0.0000000000000000e+00  -4.6645711751434808e-07 4.8820107619860363e-07 0.0000000000000000e+00  -3.8882233198173453e-07 1.3957079670851082e-06 0.0000000000000000e+00  -3.4253256168740827e-07 2.1938185159913737e-06 0.0000000000000000e+00  -3.4490023380073801e-07 2.9247227938153015e-06 0.0000000000000000e+00  -3.9700790472606590e-07 3.5504133914699410e-06 0.0000000000000000e+00  -4.5337056085313959e-07 4.0981983760955072e-06 0.0000000000000000e+00  -5.7574937247289860e-07 4.5913367264236478e-06 0.0000000000000000e+00  -6.5038910597124432e-07 4.9727583565138680e-06 0.0000000000000000e+00  -6.4712814147236437e-07 5.1044819506676093e-06 0.0000000000000000e+00  -3.9830383288836052e-07 4.8469277737333238e-06 0.0000000000000000e+00  -1.3113772413275859e-06 -1.2132178762781746e-07 0.0000000000000000e+00  -2.8613319850283299e-05 -6.9962676009232335e-05 0.0000000000000000e+00  -2.5398400046318849e-05 -6.5572610612515779e-05 0.0000000000000000e+00  -2.0702414282609722e-05 -5.8394477294954709e-05 0.0000000000000000e+00  -2.4629139718069294e-07 -5.1813116144391760e-07 0.0000000000000000e+00  -1.8019625288953517e-05 -5.3906194824411800e-05 0.0000000000000000e+00  1.9983420921613010e-07 -1.2140738347768388e-06 0.0000000000000000e+00  -1.5442538432358306e-05 -4.9428383979432724e-05 0.0000000000000000e+00  6.0668871658493024e-07 -3.1699406439224113e-06 0.0000000000000000e+00  6.6884968213076936e-07 -4.8887202106888975e-06 0.0000000000000000e+00  -1.3060529790810108e-05 -4.5025551710714369e-05 0.0000000000000000e+00  1.2035872861238305e-09 -1.0478908309550421e-05 0.0000000000000000e+00  -8.8763185749340223e-06 -3.6512001392308664e-05 0.0000000000000000e+00  5.4460485738487195e-07 -6.7447980603298392e-06 0.0000000000000000e+00  -5.4610169573160285e-07 -1.3231901971722552e-05 0.0000000000000000e+00  -7.0720228605902055e-06 -3.2438488466096120e-05 0.0000000000000000e+00  -1.0872072427134409e-05 -4.0713877033541597e-05 0.0000000000000000e+00  -1.3068671848570880e-06 -1.6235821321532875e-05 0.0000000000000000e+00  -5.4590002247654515e-06 -2.8513860728335082e-05 0.0000000000000000e+00  -2.2386375335648868e-06 -1.9288317056807453e-05 0.0000000000000000e+00  -4.0272801323109584e-06 -2.4885042416939793e-05 0.0000000000000000e+00  -3.0573095532512916e-06 -2.1924754941937657e-05 0.0000000000000000e+00  3.4795125408881552e-07 -8.5244972479866318e-06 0.0000000000000000e+00  -2.3155336276249645e-05 -6.2064456226978228e-05 0.0000000000000000e+00  4.3867142230727806e-07 -2.1272920627937098e-06 0.0000000000000000e+00  -2.8047781045044769e-05 -6.6751777732447018e-05 0.0000000000000000e+00  -7.5690940148948035e-07 1.7563945121746570e-06 0.0000000000000000e+00  -1.7576645408064706e-05 -5.0691211956034538e-05 0.0000000000000000e+00  -2.0262353351958367e-05 -5.5234832760546448e-05 0.0000000000000000e+00  1.9398256991487292e-07 -2.7526433524724532e-06 0.0000000000000000e+00  9.8956023014127976e-07 -5.4701164234861100e-06 0.0000000000000000e+00  -1.0666354182257911e-05 -3.7523627308265262e-05 0.0000000000000000e+00  -1.5082760658058329e-05 -4.6213034486893660e-05 0.0000000000000000e+00  2.9809482752748053e-07 -1.3171002779054964e-05 0.0000000000000000e+00  -8.7412212753640510e-06 -3.3348189939702482e-05 0.0000000000000000e+00  1.0196315714092819e-06 -7.2863455836352543e-06 0.0000000000000000e+00  -3.2266509095557471e-07 -1.6015049190762522e-05 0.0000000000000000e+00  -7.0039707428410852e-06 -2.9311745852940496e-05 0.0000000000000000e+00  -1.2780014915551910e-05 -4.1817926929380585e-05 0.0000000000000000e+00  -9.8540421574349022e-07 -1.9371240382785195e-05 0.0000000000000000e+00  -5.4528870129840226e-06 -2.5434467340429668e-05 0.0000000000000000e+00  -1.1957731312664297e-06 -1.2087262699922744e-06 0.0000000000000000e+00  -1.2094752418547688e-06 1.0575590770795471e-06 0.0000000000000000e+00  -2.9267425892652328e-05 -7.2432031655736775e-05 