<?xml version="1.0"?>
<VTKFile type="UnstructuredGrid"  version="0.1"  >
<UnstructuredGrid>
<Piece  NumberOfPoints="1419" NumberOfCells="2698">
<Points>
<DataArray  type="Float64"  NumberOfComponents="3"  format="ascii">0 0 0  0 0.41 0  2.5 0 0  2.5 0.41 0  0.6 0.19 0  0.6 0.21 0  0.25 0.2 0  0.15 0.2 0  0.2489897948556636 0.21 0  0.2489897948556636 0.19 0  0.6 0.2 0  0 0.3807142857143437 0  0 0.3514285714286952 0  0 0.3221428571430699 0  0 0.29285714285744 0  0 0.2635714285718054 0  0 0.2342857142861561 0  0 0.2050000000005308 0  0 0.175714285714732 0  0 0.1464285714289574 0  0 0.1171428571431897 0  0 0.08785714285737878 0  0 0.05857142857161107 0  0 0.02928571428580012 0  0.03015443760436003 0 0  0.06140001986583606 0 0  0.09377624077125973 0 0  0.1273239957535082 0 0  0.1620856860351972 0 0  0.1981052433264291 0 0  0.235428184091502 0 0  0.2741016576309132 0 0  0.3141745521465447 0 0  0.3556974926295285 0 0  0.3987229542472677 0 0  0.4433053055141081 0 0  0.4895008759286886 0 0  0.5373680609405097 0 0  0.5869673343216626 0 0  0.6383613676634521 0 0  0.6916151138468254 0 0  0.7467958595648856 0 0  0.8039733463919316 0 0  0.8632198139502143 0 0  0.9246101326867038 0 0  0.9882218810934433 0 0  1.054135445558498 0 0  1.122434100542598 0 0  1.193204177141305 0 0  1.266535089879536 0 0  1.342519516046404 0 0  1.421253448503939 0 0  1.502836389106271 0 0  1.587371439758838 0 0  1.674965418777374 0 0  1.765729001825544 0 0  1.859776908880082 0 0  1.957227977487062 0 0  2.058205329869943 0 0  2.162836591189951 0 0  2.271253957290865 0 0  2.383594446803425 0 0  2.5 0.1024999999997612 0  2.5 0.2049999999994743 0  2.5 0.3074999999997183 0  2.383594446803656 0.41 0  2.271253957291315 0.41 0  2.162836591190598 0.41 0  2.058205329870775 0.41 0  1.957227977488067 0.41 0  1.859776908881246 0.41 0  1.765729001826854 0.41 0  1.674965418778818 0.41 0  1.58737143976041 0.41 0  1.502836389107956 0.41 0  1.421253448505726 0.41 0  1.342519516048286 0.41 0  1.266535089881505 0.41 0  1.193204177143353 0.41 0  1.122434100544716 0.41 0  1.05413544556068 0.41 0  0.9882218810956305 0.41 0  0.9246101326886647 0.41 0  0.8632198139519631 0.41 0  0.8039733463934788 0.41 0  0.7467958595662458 0.41 0  0.6916151138480078 0.41 0  0.6383613676644679 0.41 0  0.5869673343225223 0.41 0  0.5373680609412221 0.41 0  0.4895008759292634 0.41 0  0.4433053055145528 0.41 0  0.3987229542475914 0.41 0  0.3556974926297398 0.41 0  0.3141745521466497 0.41 0  0.2741016576310038 0.41 0  0.2354281840915826 0.41 0  0.1981052433265003 0.41 0  0.1620856860352591 0.41 0  0.1273239957535623 0.41 0  0.09377624077128965 0.41 0  0.06140001986584975 0.41 0  0.03015443760436654 0.41 0  0.2497468076502589 0.2050254481002335 0  0.2497468076502614 0.1949745518997913 0  0.2469965252529372 0.1829317073451959 0  0.2439893735792749 0.1762316384219906 0  0.2400332147834255 0.1700443375285386 0  0.2352133972704371 0.1645032867342007 0  0.2296339016332438 0.1597280261969788 0  0.2234150974217223 0.1558215752574715 0  0.2166911463437691 0.1528682099456123 0  0.2096071079204251 0.1509316448471593 0  0.2023158100364996 0.1500536585536553 0  0.194974551899914 0.1502531923497262 0  0.1877417105387872 0.1515259415822739 0  0.1807733240461124 0.153844448527136 0  0.1742197252835808 0.15715869474974 0  0.1682222986673531 0.1613971801805478 0  0.162910430003803 0.1664684656256651 0  0.1583987151779087 0.1722631454351573 0  0.1547844879126891 0.178656207771761 0  0.1521457199348551 0.1855097315605723 0  0.1505393388476355 0.1926758619366523 0  0.1505393388476328 0.2073241380633295 0  0.1521457199348437 0.2144902684393899 0  0.1547844879126531 0.221343792228163 0  0.1583987151778488 0.2277368545647528 0  0.1629104300036858 0.2335315343742052 0  0.1682222986671726 0.2386028198193036 0  0.1742197252833576 0.2428413052501257 0  0.1807733240458683 0.2461555514727623 0  0.1877417105384929 0.2484740584176516 0  0.1949745518995776 0.2497468076502398 0  0.202315810036185 0.2499463414463592 0  0.2096071079201568 0.2490683551528932 0  0.2166911463435495 0.2471317900544655 0  0.2234150974215506 0.2441784247426195 0  0.2296339016331197 0.2402719738031125 0  0.2352133972703547 0.2354967132658811 0  0.2400332147833751 0.2299556624715287 0  0.2439893735792577 0.2237683615780412 0  0.246996525252926 0.2170682926548348 0  0.25645809709277 0.21 0  0.2639263993298655 0.21 0  0.271394701566961 0.21 0  0.2788630038040554 0.21 0  0.2863313060411479 0.21 0  0.2937996082782405 0.21 0  0.301267910515333 0.21 0  0.3087362127524279 0.21 0  0.3162045149895234 0.21 0  0.3236728172265972 0.21 0  0.3311411194636928 0.21 0  0.3386094217007701 0.21 0  0.3460777239378666 0.21 0  0.3535460261749672 0.21 0  0.3610143284120516 0.21 0  0.3684826306491596 0.21 0  0.3759509328862226 0.21 0  0.383419235123329 0.21 0  0.3908875373604028 0.21 0  0.3983558395975142 0.21 0  0.4058241418345938 0.21 0  0.4132924440716992 0.21 0  0.4207607463087888 0.21 0  0.4282290485459029 0.21 0  0.4356973507830418 0.21 0  0.4431656530201649 0.21 0  0.4506339552573136 0.21 0  0.4581022574944306 0.21 0  0.4655705597315852 0.21 0  0.4730388619686996 0.21 0  0.480507164205851 0.21 0  0.4879754664429498 0.21 0  0.4954437686800938 0.21 0  0.502912070917267 0.21 0  0.5103803731544119 0.21 0  0.5178486753915261 0.21 0  0.5253169776286404 0.21 0  0.5327852798657868 0.21 0  0.5402535821029386 0.21 0  0.54772188434007 0.21 0  0.5551901865771842 0.21 0  0.5626584888143201 0.21 0  0.5701267910514778 0.21 0  0.5775950932886138 0.21 0  0.5850633955257281 0.21 0  0.5925316977628483 0.21 0  0.6 0.2050000000000054 0  0.6 0.1950000000000217 0  0.5925316977628897 0.19 0  0.5850633955257988 0.19 0  0.5775950932887378 0.19 0  0.5701267910515998 0.19 0  0.5626584888145268 0.19 0  0.5551901865773963 0.19 0  0.547721884340339 0.19 0  0.5402535821032429 0.19 0  0.5327852798661811 0.19 0  0.5253169776290537 0.19 0  0.5178486753919799 0.19 0  0.5103803731549078 0.19 0  0.502912070917822 0.19 0  0.4954437686807294 0.19 0  0.4879754664436223 0.19 0  0.4805071642065402 0.19 0  0.4730388619694271 0.19 0  0.4655705597323621 0.19 0  0.4581022574952563 0.19 0  0.4506339552581777 0.19 0  0.4431656530210671 0.19 0  0.4356973507839815 0.19 0  0.4282290485468779 0.19 0  0.4207607463097617 0.19 0  0.4132924440726327 0.19 0  0.4058241418354857 0.19 0  0.3983558395983636 0.19 0  0.3908875373612097 0.19 0  0.3834192351240934 0.19 0  0.3759509328869369 0.19 0  0.3684826306498175 0.19 0  0.361014328412667 0.19 0  0.3535460261755617 0.19 0  0.3460777239384295 0.19 0  0.3386094217012945 0.19 0  0.3311411194641595 0.19 0  0.3236728172270245 0.19 0  0.3162045149898895 0.19 0  0.3087362127527544 0.19 0  0.3012679105156187 0.19 0  0.2937996082784807 0.19 0  0.2863313060413428 0.19 0  0.2788630038042048 0.19 0  0.2713947015670686 0.19 0  0.2639263993299336 0.19 0  0.2564580970927985 0.19 0  0.2607803159922026 0.2000727136295815 0  0.5887803774232762 0.2001272386983733 0  0.5745072403740523 0.2002044435018727 0  0.5511891430099709 0.2001122610077113 0  0.2751288526855082 0.20000000000002 0  0.5365194309847112 0.1999999999999436 0  0.2894621222999649 0.1998691686390484 0  0.5215828265105155 0.1999999999999228 0  0.3127789816668748 0.1998657885438805 0  0.3274069683451451 0.2000000000000796 0  0.5066462220363641 0.199999999999908 0  0.3650630746574081 0.199866017807523 0  0.476773013087985 0.1999999999998713 0  0.3417402379596385 0.1998691686391011 0  0.3796850840047755 0.200000000000134 0  0.4618364086138087 0.1999999999998546 0  0.4917096175621762 0.1999999999998808 0  0.3946216884789568 0.2000000000001512 0  0.446899804139621 0.1999999999998389 0  0.4089549580935208 0.1998691686391595 0  0.4322718174608562 0.200127451265745 0  0.4201487168029707 0.1999966199048527 0  0.3528922713220932 0.2000185703532356 0  0.5633122436674589 0.1999814296467508 0  0.3006558810093873 0.1999966199048318 0  0.5815926498168407 0.1966545283159175 0  0.2677053789419034 0.1964246479135325 0  0.5290511287476175 0.1970915826863981 0  0.5439877332217911 0.197091582686394 0  0.2825131256993216 0.2035478995978015 0  0.3199386661080599 0.202908417313604 0  0.4842413153250809 0.1970915826863873 0  0.5141145242734466 0.1970915826863843 0  0.3722167817676917 0.2029084173136195 0  0.4693047108508938 0.1970915826863783 0  0.3348752705822316 0.202908417313609 0  0.3871533862418661 0.2029084173136212 0  0.4543681063767183 0.1970915826863795 0  0.4991779197992749 0.1970915826863902 0  0.4020059614928624 0.203547899597858 0  0.4394315019025246 0.1970915826863714 0  0.2550657455369551 0.2034088125358657 0  0.2548908499171161 0.1966940311614271 0  0.5946539510196798 0.2024302972968126 0  0.267698176732111 0.2039977513680092 0  0.4261685417851465 0.196409292431739 0  0.3590076176283495 0.196411355804271 0  0.5571672426447437 0.2036011176410121 0  0.3066757059912147 0.1964092924317024 0  0.594380730180568 0.1966558399668133 0  0.4842413153245942 0.2040749161535287 0  0.4693047108503577 0.2040749161535231 0  0.3871533862424271 0.1959250838464788 0  0.372246743208829 0.1959123236376545 0  0.5141145242731028 0.2040749161535395 0  0.4543681063761134 0.2040749161535186 0  0.4019979587101454 0.1959834479682427 0  0.4394608940728603 0.2040870543693135 0  0.5439623148931173 0.2040856076781014 0  0.5290511287473298 0.2040749161535501 0  0.4991779197988497 0.2040749161535382 0  0.3347912413592433 0.1959225448935183 0  0.3199680582793816 0.1959123018030061 0  0.2825051229162361 0.1959834479681729 0  0.3590471196690275 0.2036304442587945 0  0.5571594006495384 0.1963685282145804 0  0.3067669986803285 0.203627750582736 0  0.4262598344738712 0.2036568242185335 0  0.5814408164431408 0.2041285596160068 0  0.5688286748170428 0.1961819304477386 0  0.4145905603063645 0.2038180695522843 0  0.3473758401724931 0.2038180695522752 0  0.2950977245128307 0.2038180695522663 0  0.5688286748170693 0.203818069552238 0  0.2950977245127906 0.1961819304477774 0  0.3473758401723931 0.1961819304478349 0  0.4145905603061963 0.1961819304479011 0  0.2601812407614425 0.2056861609747042
[...]
<PointData  Vectors="f_40-0"> 
<DataArray  type="Float64"  Name="f_40-0"  NumberOfComponents="3" format="ascii">0.0000000000000000e+00 0.0000000000000000e+00 0.0000000000000000e+00  0.0000000000000000e+00 0.0000000000000000e+00 0.0000000000000000e+00  0.0000000000000000e+00 0.0000000000000000e+00 0.0000000000000000e+00  0.0000000000000000e+00 0.0000000000000000e+00 0.0000000000000000e+00  -2.5254234234440291e-05 -1.4154988458189486e-04 0.0000000000000000e+00  -1.3913583687820811e-05 -1.4743916256234791e-04 0.0000000000000000e+00  0.0000000000000000e+00 0.0000000000000000e+00 0.0000000000000000e+00  0.0000000000000000e+00 0.0000000000000000e+00 0.0000000000000000e+00  0.0000000000000000e+00 0.0000000000000000e+00 0.0000000000000000e+00  0.0000000000000000e+00 0.0000000000000000e+00 0.0000000000000000e+00  -1.9958992897705543e-05 -1.4449417738884851e-04 0.0000000000000000e+00  2.1273966449672447e-02 0.0000000000000000e+00 0.0000000000000000e+00  3.9275014984013285e-02 0.0000000000000000e+00 0.0000000000000000e+00  5.4003145603018270e-02 0.0000000000000000e+00 0.0000000000000000e+00  6.5458358306704462e-02 0.0000000000000000e+00 0.0000000000000000e+00  7.3640653095070396e-02 0.0000000000000000e+00 0.0000000000000000e+00  7.8550029968115553e-02 0.0000000000000000e+00 0.0000000000000000e+00  8.0186488925835034e-02 0.0000000000000000e+00 0.0000000000000000e+00  7.8550029968214807e-02 0.0000000000000000e+00 0.0000000000000000e+00  7.3640653095240885e-02 0.0000000000000000e+00 0.0000000000000000e+00  6.5458358306915612e-02 0.0000000000000000e+00 0.0000000000000000e+00  5.4003145603218852e-02 0.0000000000000000e+00 0.0000000000000000e+00  3.9275014984184439e-02 0.0000000000000000e+00 0.0000000000000000e+00  2.1273966449768891e-02 0.0000000000000000e+00 0.0000000000000000e+00  0.0000000000000000e+00 0.0000000000000000e+00 0.0000000000000000e+00  0.0000000000000000e+00 0.0000000000000000e+00 0.0000000000000000e+00  0.0000000000000000e+00 0.0000000000000000e+00 0.0000000000000000e+00  0.0000000000000000e+00 0.0000000000000000e+00 0.0000000000000000e+00  0.0000000000000000e+00 0.0000000000000000e+00 0.0000000000000000e+00  0.0000000000000000e+00 0.0000000000000000e+00 0.0000000000000000e+00  0.0000000000000000e+00 0.0000000000000000e+00 0.0000000000000000e+00  0.0000000000000000e+00 0.0000000000000000e+00 0.0000000000000000e+00  0.0000000000000000e+00 0.0000000000000000e+00 0.0000000000000000e+00  0.0000000000000000e+00 0.0000000000000000e+00 0.0000000000000000e+00  0.0000000000000000e+00 0.0000000000000000e+00 0.0000000000000000e+00  0.0000000000000000e+00 0.0000000000000000e+00 0.0000000000000000e+00  0.0000000000000000e+00 0.0000000000000000e+00 0.0000000000000000e+00  0.0000000000000000e+00 0.0000000000000000e+00 0.0000000000000000e+00  0.0000000000000000e+00 0.0000000000000000e+00 0.0000000000000000e+00  0.0000000000000000e+00 0.0000000000000000e+00 0.0000000000000000e+00  0.0000000000000000e+00 0.0000000000000000e+00 0.0000000000000000e+00  0.0000000000000000e+00 0.0000000000000000e+00 0.0000000000000000e+00  0.0000000000000000e+00 0.0000000000000000e+00 0.0000000000000000e+00  0.0000000000000000e+00 0.0000000000000000e+00 0.0000000000000000e+00  0.0000000000000000e+00 0.0000000000000000e+00 0.0000000000000000e+00  0.0000000000000000e+00 0.0000000000000000e+00 0.0000000000000000e+00  0.0000000000000000e+00 0.0000000000000000e+00 0.0000000000000000e+00  0.0000000000000000e+00 0.0000000000000000e+00 0.0000000000000000e+00  0.0000000000000000e+00 0.0000000000000000e+00 0.0000000000000000e+00  0.0000000000000000e+00 0.0000000000000000e+00 0.0000000000000000e+00  0.0000000000000000e+00 0.0000000000000000e+00 0.0000000000000000e+00  0.0000000000000000e+00 0.0000000000000000e+00 0.0000000000000000e+00  0.0000000000000000e+00 0.0000000000000000e+00 0.0000000000000000e+00  0.0000000000000000e+00 0.0000000000000000e+00 0.0000000000000000e+00  0.0000000000000000e+00 0.0000000000000000e+00 0.0000000000000000e+00  0.0000000000000000e+00 0.0000000000000000e+00 0.0000000000000000e+00  0.0000000000000000e+00 0.0000000000000000e+00 0.0000000000000000e+00  0.0000000000000000e+00 0.0000000000000000e+00 0.0000000000000000e+00  0.0000000000000000e+00 0.0000000000000000e+00 0.0000000000000000e+00  0.0000000000000000e+00 0.0000000000000000e+00 0.0000000000000000e+00  0.0000000000000000e+00 0.0000000000000000e+00 0.0000000000000000e+00  0.0000000000000000e+00 0.0000000000000000e+00 0.0000000000000000e+00  6.1110506016272492e-02 9.0370350953320963e-04 0.0000000000000000e+00  5.0189712001612950e-02 -1.9764260885317194e-04 0.0000000000000000e+00  6.0504012876040611e-02 -1.0458663930071697e-03 0.0000000000000000e+00  0.0000000000000000e+00 0.0000000000000000e+00 0.0000000000000000e+00  0.0000000000000000e+00 0.0000000000000000e+00 0.0000000000000000e+00  0.0000000000000000e+00 0.0000000000000000e+00 0.0000000000000000e+00  0.0000000000000000e+00 0.0000000000000000e+00 0.0000000000000000e+00  0.0000000000000000e+00 0.0000000000000000e+00 0.0000000000000000e+00  0.0000000000000000e+00 0.0000000000000000e+00 0.0000000000000000e+00  0.0000000000000000e+00 0.0000000000000000e+00 0.0000000000000000e+00  0.0000000000000000e+00 0.0000000000000000e+00 0.0000000000000000e+00  0.0000000000000000e+00 0.0000000000000000e+00 0.0000000000000000e+00  0.0000000000000000e+00 0.0000000000000000e+00 0.0000000000000000e+00  0.0000000000000000e+00 0.0000000000000000e+00 0.0000000000000000e+00  0.0000000000000000e+00 0.0000000000000000e+00 0.0000000000000000e+00  0.0000000000000000e+00 0.0000000000000000e+00 0.0000000000000000e+00  0.0000000000000000e+00 0.0000000000000000e+00 0.0000000000000000e+00  0.0000000000000000e+00 0.0000000000000000e+00 0.0000000000000000e+00  0.0000000000000000e+00 0.0000000000000000e+00 0.0000000000000000e+00  0.0000000000000000e+00 0.0000000000000000e+00 0.0000000000000000e+00  0.0000000000000000e+00 0.0000000000000000e+00 0.0000000000000000e+00  0.0000000000000000e+00 0.0000000000000000e+00 0.0000000000000000e+00  0.0000000000000000e+00 0.0000000000000000e+00 0.0000000000000000e+00  0.0000000000000000e+00 0.0000000000000000e+00 0.0000000000000000e+00  0.0000000000000000e+00 0.0000000000000000e+00 0.0000000000000000e+00  0.0000000000000000e+00 0.0000000000000000e+00 0.0000000000000000e+00  0.0000000000000000e+00 0.0000000000000000e+00 0.0000000000000000e+00  0.0000000000000000e+00 0.0000000000000000e+00 0.0000000000000000e+00  0.0000000000000000e+00 0.0000000000000000e+00 0.0000000000000000e+00  0.0000000000000000e+00 0.0000000000000000e+00 0.0000000000000000e+00  0.0000000000000000e+00 0.0000000000000000e+00 0.0000000000000000e+00  0.0000000000000000e+00 0.0000000000000000e+00 0.0000000000000000e+00  0.0000000000000000e+00 0.0000000000000000e+00 0.0000000000000000e+00  0.0000000000000000e+00 0.0000000000000000e+00 0.0000000000000000e+00  0.0000000000000000e+00 0.0000000000000000e+00 0.0000000000000000e+00  0.0000000000000000e+00 0.0000000000000000e+00 0.0000000000000000e+00  0.0000000000000000e+00 0.0000000000000000e+00 0.0000000000000000e+00  0.0000000000000000e+00 0.0000000000000000e+00 0.0000000000000000e+00  0.0000000000000000e+00 0.0000000000000000e+00 0.0000000000000000e+00  0.0000000000000000e+00 0.0000000000000000e+00 0.0000000000000000e+00  0.0000000000000000e+00 0.0000000000000000e+00 0.0000000000000000e+00  0.0000000000000000e+00 0.0000000000000000e+00 0.0000000000000000e+00  0.0000000000000000e+00 0.0000000000000000e+00 0.0000000000000000e+00  0.0000000000000000e+00 0.0000000000000000e+00 0.0000000000000000e+00  0.0000000000000000e+00 0.0000000000000000e+00 0.0000000000000000e+00  0.0000000000000000e+00 0.0000000000000000e+00 0.0000000000000000e+00  0.0000000000000000e+00 0.0000000000000000e+00 0.0000000000000000e+00  0.0000000000000000e+00 0.0000000000000000e+00 0.0000000000000000e+00  0.0000000000000000e+00 0.0000000000000000e+00 0.0000000000000000e+00  0.0000000000000000e+00 0.0000000000000000e+00 0.0000000000000000e+00  0.0000000000000000e+00 0.0000000000000000e+00 0.0000000000000000e+00  0.0000000000000000e+00 0.0000000000000000e+00 0.0000000000000000e+00  0.0000000000000000e+00 0.0000000000000000e+00 0.0000000000000000e+00  0.0000000000000000e+00 0.0000000000000000e+00 0.0000000000000000e+00  0.0000000000000000e+00 0.0000000000000000e+00 0.0000000000000000e+00  0.0000000000000000e+00 0.0000000000000000e+00 0.0000000000000000e+00  0.0000000000000000e+00 0.0000000000000000e+00 0.0000000000000000e+00  0.0000000000000000e+00 0.0000000000000000e+00 0.0000000000000000e+00  0.0000000000000000e+00 0.0000000000000000e+00 0.0000000000000000e+00  0.0000000000000000e+00 0.0000000000000000e+00 0.0000000000000000e+00  0.0000000000000000e+00 0.0000000000000000e+00 0.0000000000000000e+00  0.0000000000000000e+00 0.0000000000000000e+00 0.0000000000000000e+00  0.0000000000000000e+00 0.0000000000000000e+00 0.0000000000000000e+00  0.0000000000000000e+00 0.0000000000000000e+00 0.0000000000000000e+00  0.0000000000000000e+00 0.0000000000000000e+00 0.0000000000000000e+00  0.0000000000000000e+00 0.0000000000000000e+00 0.0000000000000000e+00  0.0000000000000000e+00 0.0000000000000000e+00 0.0000000000000000e+00  0.0000000000000000e+00 0.0000000000000000e+00 0.0000000000000000e+00  0.0000000000000000e+00 0.0000000000000000e+00 0.0000000000000000e+00  0.0000000000000000e+00 0.0000000000000000e+00 0.0000000000000000e+00  0.0000000000000000e+00 0.0000000000000000e+00 0.0000000000000000e+00  0.0000000000000000e+00 0.0000000000000000e+00 0.0000000000000000e+00  0.0000000000000000e+00 0.0000000000000000e+00 0.0000000000000000e+00  0.0000000000000000e+00 0.0000000000000000e+00 0.0000000000000000e+00  0.0000000000000000e+00 0.0000000000000000e+00 0.0000000000000000e+00  0.0000000000000000e+00 0.0000000000000000e+00 0.0000000000000000e+00  0.0000000000000000e+00 0.0000000000000000e+00 0.0000000000000000e+00  0.0000000000000000e+00 0.0000000000000000e+00 0.0000000000000000e+00  0.0000000000000000e+00 0.0000000000000000e+00 0.0000000000000000e+00  0.0000000000000000e+00 0.0000000000000000e+00 0.0000000000000000e+00  0.0000000000000000e+00 0.0000000000000000e+00 0.0000000000000000e+00  3.4083609839307152e-07 -5.4526212375516683e-06 0.0000000000000000e+00  8.7809203228287460e-07 -6.1810742003040175e-06 0.0000000000000000e+00  1.6416884529261455e-06 -6.8282543160348726e-06 0.0000000000000000e+00  2.5458407579396452e-06 -7.5430275845809102e-06 0.0000000000000000e+00  3.4211985543902857e-06 -8.4475708482190151e-06 0.0000000000000000e+00  4.2796363663381335e-06 -9.6174226310285298e-06 0.0000000000000000e+00  5.0435000367362942e-06 -1.0944257917660582e-05 0.0000000000000000e+00  5.7425748522055187e-06 -1.2483798207909741e-05 0.0000000000000000e+00  6.4413601924267219e-06 -1.4193047007538854e-05 0.0000000000000000e+00  7.0161844904192755e-06 -1.6054370104496396e-05 0.0000000000000000e+00  7.5888251471341200e-06 -1.8112215001826739e-05 0.0000000000000000e+00  8.0435938771459947e-06 -2.0295324553498759e-05 0.0000000000000000e+00  8.4752630763679218e-06 -2.2645438836797634e-05 0.0000000000000000e+00  8.8176143754264136e-06 -2.5117583203618096e-05 0.0000000000000000e+00  9.0902437781161536e-06 -2.7734213565131402e-05 0.0000000000000000e+00  9.3458415453974234e-06 -3.0477039565715145e-05 0.0000000000000000e+00  9.4917024125132952e-06 -3.3311546136219419e-05 0.0000000000000000e+00  9.6129720277409518e-06 -3.6294991461696971e-05 0.0000000000000000e+00  9.6341098747366059e-06 -3.9343316349187039e-05 0.0000000000000000e+00  9.6258599447719960e-06 -4.2524531035306211e-05 0.0000000000000000e+00  9.5293713418862123e-06 -4.5763803797506171e-05 0.0000000000000000e+00  9.3823489484955965e-06 -4.9112393673168290e-05 0.0000000000000000e+00  9.1681525644637946e-06 -5.2526294013026400e-05 0.0000000000000000e+00  8.8846118025672036e-06 -5.6018696306777866e-05 0.0000000000000000e+00  8.5701844964251709e-06 -5.9583473564314006e-05 0.0000000000000000e+00  8.1710265720729842e-06 -6.3190332909440856e-05 0.0000000000000000e+00  7.7151843481116286e-06 -6.6894153411441686e-05 0.0000000000000000e+00  7.1934061582237566e-06 -7.0611330570850944e-05 0.0000000000000000e+00  6.6147058389080157e-06 -7.4415516503541093e-05 0.0000000000000000e+00  5.9722337761211078e-06 -7.8229113138994131e-05 0.0000000000000000e+00  5.2727898002915716e-06 -8.2119522953907979e-05 0.0000000000000000e+00  4.5091824940601844e-06 -8.6011288865664529e-05 0.0000000000000000e+00  3.6905481426540801e-06 -8.9973945077366830e-05 0.0000000000000000e+00  2.8068739805932113e-06 -9.3927237426484110e-05 0.0000000000000000e+00  1.8638930996246653e-06 -9.7948499385665935e-05 0.0000000000000000e+00  8.6009532719340104e-07 -1.0195638599308022e-04 0.0000000000000000e+00  -2.0041650290339958e-07 -1.0602280932145570e-04 0.0000000000000000e+00  -1.3220860251606544e-06 -1.1007225474795614e-04 0.0000000000000000e+00  -2.5033616838849437e-06 -1.1417483418366096e-04 0.0000000000000000e+00  -3.7482224259019269e-06 -1.1825603576283426e-04 0.0000000000000000e+00  -5.0605416279739350e-06 -1.2237290551648443e-04 0.0000000000000000e+00  -6.4208889607787803e-06 -1.2648572751414454e-04 0.0000000000000000e+00  -7.8529744623196439e-06 -1.3061282515516553e-04 0.0000000000000000e+00  -9.3200150829798181e-06 -1.3474380809293932e-04 0.0000000000000000e+00  -1.0857906282767788e-05 -1.3885952073431566e-04 0.0000000000000000e+00  -1.2415855971920015e-05 -1.4302951158752552e-04 0.0000000000000000e+00  -1.7071835259070750e-05 -1.4596534951400909e-04 0.0000000000000000e+00  -2.2724880617110965e-05 -1.4302747483266123e-04 0.0000000000000000e+00  -2.3740110613848894e-05 -1.3749940960689196e-04 0.0000000000000000e+00  -2.2155820910290445e-05 -1.3321264298317640e-04 0.0000000000000000e+00  -2.0597637276667288e-05 -1.2889948616606349e-04 0.0000000000000000e+00  -1.9103560781476909e-05 -1.2461615779649657e-04 0.0000000000000000e+00  -1.7647410312093610e-05 -1.2034019503838199e-04 0.0000000000000000e+00  -1.6262099007445872e-05 -1.1607542505960034e-04 0.0000000000000000e+00  -1.4916902651239181e-05 -1.1182988508092293e-04 0.0000000000000000e+00  -1.3639132895555906e-05 -1.0757702490842849e-04 0.0000000000000000e+00  -1.2410360661013981e-05 -1.0337099605989069e-04 0.0000000000000000e+00  -1.1241524183195952e-05 -9.9147132321885374e-05 0.0000000000000000e+00  -1.0119173001148046e-05 -9.4977597798244766e-05 0.0000000000000000e+00  -9.0580684512504106e-06 -9.0795855290633280e-05 0.0000000000000000e+00  -8.0407711538330434e-06 -8.6673568096539959e-05 0.0000000000000000e+00  -7.0845896250125232e-06 -8.2545486374427187e-05 0.0000000000000000e+00  -6.1686435383746247e-06 -7.8482082161089887e-05 0.0000000000000000e+00  -5.3158534632300851e-06 -7.4419099399347850e-05 0.0000000000000000e+00  -4.5009051920537101e-06 -7.0427141181834325e-05 0.0000000000000000e+00  -3.7509595017751636e-06 -6.6442961860910485e-05 0.0000000000000000e+00  -3.0348992621086040e-06 -6.2538414961084974e-05 0.0000000000000000e+00  -2.3853384790067091e-06 -5.8650867911032921e-05 0.0000000000000000e+00  -1.7654417536077701e-06 -5.4850499738727645e-05 0.0000000000000000e+00  -1.2145909791215985e-06 -5.1078019044306423e-05 0.0000000000000000e+00  -6.9838324671686162e-07 -4.7390568134804188e-05 0.0000000000000000e+00  -2.3670672353415992e-07 -4.3757794688070674e-05 0.0000000000000000e+00  1.6523738306777756e-07 -4.0213248360886445e-05 0.0000000000000000e+00  5.5537415299611430e-07 -3.6737771273032471e-05 0.0000000000000000e+00  8.7403438887227700e-07 -3.3338842495282988e-05 0.0000000000000000e+00  1.1582755659020712e-06 -3.0058960378436166e-05 0.0000000000000000e+00  1.3848603781015050e-06 -2.6844474801978037e-05 0.0000000000000000e+00  1.5752639791599646e-06 -2.3767036466437073e-05 0.0000000000000000e+00  1.7094031203926921e-06 -2.0763995047730946e-05 0.0000000000000000e+00  1.8147654770163971e-06 -1.7915450193662531e-05 0.0000000000000000e+00  1.8606574805702280e-06 -1.5159085998864165e-05 0.0000000000000000e+00  1.8520786871045820e-06 -1.2563946018558513e-05 0.0000000000000000e+00  1.8473134445696436e-06 -1.0081275786839872e-05 0.0000000000000000e+00  1.7690476683602139e-06 -7.7522008856020623e-06 0.0000000000000000e+00  1.6638623023830900e-06 -5.6024615054411252e-06 0.0000000000000000e+00  1.5007210115976982e-06 -3.5868867718392033e-06 0.0000000000000000e+00  1.3241638121733544e-06 -1.7792974992408303e-06 0.0000000000000000e+00  1.0794197560335343e-06 -1.1670842690398681e-07 0.0000000000000000e+00  7.8466765213808707e-07 1.3229423849361650e-06 0.0000000000000000e+00  5.1435634069649965e-07 2.5982427065335576e-06 0.0000000000000000e+00  1.6136338390550027e-07 3.6970164398310316e-06 0.0000000000000000e+00  -1.1547451499929336e-07 4.5589580147338273e-06 0.0000000000000000e+00  -3.2571755396761454e-07 5.0338359783781704e-06 0.0000000000000000e+00  -2.4092189979001638e-07 4.9682984473592583e-06 0.0000000000000000e+00  -8.2888410458701581e-07 -2.7522942098482490e-07 0.0000000000000000e+00  -1.7361806826829758e-05 -1.3816793549559334e-04 0.0000000000000000e+00  -1.4270776396836115e-05 -1.3013360335590077e-04 0.0000000000000000e+00  -9.9233671526613633e-06 -1.1701039349735859e-04 0.0000000000000000e+00  1.0016355067472422e-06 -1.3618537774645399e-06 0.0000000000000000e+00  -7.5164644344484221e-06 -1.0878569247234440e-04 0.0000000000000000e+00  2.1650546990086507e-06 -3.2023018605374761e-06 0.0000000000000000e+00  -5.2216114601643114e-06 -1.0050937343079816e-04 0.0000000000000000e+00  3.7051394625271998e-06 -7.8737071924130356e-06 0.0000000000000000e+00  4.4672440674190459e-06 -1.1757140130118234e-05 0.0000000000000000e+00  -3.1532457096445966e-06 -9.2316218017959983e-05 0.0000000000000000e+00  5.4081025167390508e-06 -2.4179527229610302e-05 0.0000000000000000e+00  3.1116728751057638e-07 -7.6267610546218949e-05 0.0000000000000000e+00  4.9647808270959327e-06 -1.6017483453857238e-05 0.0000000000000000e+00  5.4719682234985940e-06 -2.9971484507787411e-05 0.0000000000000000e+00  1.7100281954894807e-06 -6.8465181217543131e-05 0.0000000000000000e+00  -1.3093832210614445e-06 -8.4227124914644700e-05 0.0000000000000000e+00  5.2806112221782006e-06 -3.6241673523968823e-05 0.0000000000000000e+00  2.8874101185067812e-06 -6.0853003102004088e-05 0.0000000000000000e+00  4.8383804918964232e-06 -4.2554489243983630e-05 0.0000000000000000e+00  3.8952987117064694e-06 -5.3669503904082812e-05 0.0000000000000000e+00  4.4311946222679845e-06 -4.7816469354382445e-05 0.0000000000000000e+00  5.2733150368315669e-06 -1.9856061502051313e-05 0.0000000000000000e+00  -1.2234430347523115e-05 -1.2376997045515474e-04 0.0000000000000000e+00  2.9661853003870006e-06 -5.3168412175435118e-06 0.0000000000000000e+00  -1.7748442916469943e-05 -1.3312271689601836e-04 0.0000000000000000e+00  -5.9421312757525149e-08 1.4229269145535836e-06 0.0000000000000000e+00  -7.9494124101946918e-06 -1.0365312281307184e-04 0.0000000000000000e+00  -1.0369815486498069e-05 -1.1200229337635412e-04 0.0000000000000000e+00  2.0949908377418331e-06 -4.2474223957201553e-06 0.0000000000000000e+00  4.8668149182010338e-06 -1.1275448093193157e-05 0.0000000000000000e+00  -2.0173913048820194e-06 -7.9125592623072169e-05 0.0000000000000000e+00  -5.7516342899649030e-06 -9.5375997967013336e-05 0.0000000000000000e+00  6.6204423819736903e-06 -2.8401636778412099e-05 0.0000000000000000e+00  -4.7653223865846119e-07 -7.1201735113257997e-05 0.0000000000000000e+00  5.6393125625472231e-06 -1.5452522054476709e-05 0.0000000000000000e+00  6.6155018170732960e-06 -3.4428704011838819e-05 0.0000000000000000e+00  8.4859071437250688e-07 -6.3451567462450781e-05 0.0000000000000000e+00  -3.7752803748853136e-06 -8.7192228695601344e-05 0.0000000000000000e+00  6.6765239501369815e-06 -4.1111469133077885e-05 0.0000000000000000e+00  1.9604419447494001e-06 -5.5909570526060351e-05 0.0000000000000000e+00  -9.6626568631484152e-07 -1.3095409066605153e-06 0.0000000000000000e+00  -1.0450974604778924e-06 1.0885341812228311e-06 0.0000000000000000e+00  -1.7378074618378630e-05 -1.4213777542588631e-04 0.0000000000000000e+00  5.2818661543343388e-0