<?xml version="1.0"?>
<VTKFile type="UnstructuredGrid"  version="0.1"  >
<UnstructuredGrid>
<Piece  NumberOfPoints="1419" NumberOfCells="2698">
<Points>
<DataArray  type="Float64"  NumberOfComponents="3"  format="ascii">0 0 0  0 0.41 0  2.5 0 0  2.5 0.41 0  0.6 0.19 0  0.6 0.21 0  0.25 0.2 0  0.15 0.2 0  0.2489897948556636 0.21 0  0.2489897948556636 0.19 0  0.6 0.2 0  0 0.3807142857143437 0  0 0.3514285714286952 0  0 0.3221428571430699 0  0 0.29285714285744 0  0 0.2635714285718054 0  0 0.2342857142861561 0  0 0.2050000000005308 0  0 0.175714285714732 0  0 0.1464285714289574 0  0 0.1171428571431897 0  0 0.08785714285737878 0  0 0.05857142857161107 0  0 0.02928571428580012 0  0.03015443760436003 0 0  0.06140001986583606 0 0  0.09377624077125973 0 0  0.1273239957535082 0 0  0.1620856860351972 0 0  0.1981052433264291 0 0  0.235428184091502 0 0  0.2741016576309132 0 0  0.3141745521465447 0 0  0.3556974926295285 0 0  0.3987229542472677 0 0  0.4433053055141081 0 0  0.4895008759286886 0 0  0.5373680609405097 0 0  0.5869673343216626 0 0  0.6383613676634521 0 0  0.6916151138468254 0 0  0.7467958595648856 0 0  0.8039733463919316 0 0  0.8632198139502143 0 0  0.9246101326867038 0 0  0.9882218810934433 0 0  1.054135445558498 0 0  1.122434100542598 0 0  1.193204177141305 0 0  1.266535089879536 0 0  1.342519516046404 0 0  1.421253448503939 0 0  1.502836389106271 0 0  1.587371439758838 0 0  1.674965418777374 0 0  1.765729001825544 0 0  1.859776908880082 0 0  1.957227977487062 0 0  2.058205329869943 0 0  2.162836591189951 0 0  2.271253957290865 0 0  2.383594446803425 0 0  2.5 0.1024999999997612 0  2.5 0.2049999999994743 0  2.5 0.3074999999997183 0  2.383594446803656 0.41 0  2.271253957291315 0.41 0  2.162836591190598 0.41 0  2.058205329870775 0.41 0  1.957227977488067 0.41 0  1.859776908881246 0.41 0  1.765729001826854 0.41 0  1.674965418778818 0.41 0  1.58737143976041 0.41 0  1.502836389107956 0.41 0  1.421253448505726 0.41 0  1.342519516048286 0.41 0  1.266535089881505 0.41 0  1.193204177143353 0.41 0  1.122434100544716 0.41 0  1.05413544556068 0.41 0  0.9882218810956305 0.41 0  0.9246101326886647 0.41 0  0.8632198139519631 0.41 0  0.8039733463934788 0.41 0  0.7467958595662458 0.41 0  0.6916151138480078 0.41 0  0.6383613676644679 0.41 0  0.5869673343225223 0.41 0  0.5373680609412221 0.41 0  0.4895008759292634 0.41 0  0.4433053055145528 0.41 0  0.3987229542475914 0.41 0  0.3556974926297398 0.41 0  0.3141745521466497 0.41 0  0.2741016576310038 0.41 0  0.2354281840915826 0.41 0  0.1981052433265003 0.41 0  0.1620856860352591 0.41 0  0.1273239957535623 0.41 0  0.09377624077128965 0.41 0  0.06140001986584975 0.41 0  0.03015443760436654 0.41 0  0.2497468076502589 0.2050254481002335 0  0.2497468076502614 0.1949745518997913 0  0.2469965252529372 0.1829317073451959 0  0.2439893735792749 0.1762316384219906 0  0.2400332147834255 0.1700443375285386 0  0.2352133972704371 0.1645032867342007 0  0.2296339016332438 0.1597280261969788 0  0.2234150974217223 0.1558215752574715 0  0.2166911463437691 0.1528682099456123 0  0.2096071079204251 0.1509316448471593 0  0.2023158100364996 0.1500536585536553 0  0.194974551899914 0.1502531923497262 0  0.1877417105387872 0.1515259415822739 0  0.1807733240461124 0.153844448527136 0  0.1742197252835808 0.15715869474974 0  0.1682222986673531 0.1613971801805478 0  0.162910430003803 0.1664684656256651 0  0.1583987151779087 0.1722631454351573 0  0.1547844879126891 0.178656207771761 0  0.1521457199348551 0.1855097315605723 0  0.1505393388476355 0.1926758619366523 0  0.1505393388476328 0.2073241380633295 0  0.1521457199348437 0.2144902684393899 0  0.1547844879126531 0.221343792228163 0  0.1583987151778488 0.2277368545647528 0  0.1629104300036858 0.2335315343742052 0  0.1682222986671726 0.2386028198193036 0  0.1742197252833576 0.2428413052501257 0  0.1807733240458683 0.2461555514727623 0  0.1877417105384929 0.2484740584176516 0  0.1949745518995776 0.2497468076502398 0  0.202315810036185 0.2499463414463592 0  0.2096071079201568 0.2490683551528932 0  0.2166911463435495 0.2471317900544655 0  0.2234150974215506 0.2441784247426195 0  0.2296339016331197 0.2402719738031125 0  0.2352133972703547 0.2354967132658811 0  0.2400332147833751 0.2299556624715287 0  0.2439893735792577 0.2237683615780412 0  0.246996525252926 0.2170682926548348 0  0.25645809709277 0.21 0  0.2639263993298655 0.21 0  0.271394701566961 0.21 0  0.2788630038040554 0.21 0  0.2863313060411479 0.21 0  0.2937996082782405 0.21 0  0.301267910515333 0.21 0  0.3087362127524279 0.21 0  0.3162045149895234 0.21 0  0.3236728172265972 0.21 0  0.3311411194636928 0.21 0  0.3386094217007701 0.21 0  0.3460777239378666 0.21 0  0.3535460261749672 0.21 0  0.3610143284120516 0.21 0  0.3684826306491596 0.21 0  0.3759509328862226 0.21 0  0.383419235123329 0.21 0  0.3908875373604028 0.21 0  0.3983558395975142 0.21 0  0.4058241418345938 0.21 0  0.4132924440716992 0.21 0  0.4207607463087888 0.21 0  0.4282290485459029 0.21 0  0.4356973507830418 0.21 0  0.4431656530201649 0.21 0  0.4506339552573136 0.21 0  0.4581022574944306 0.21 0  0.4655705597315852 0.21 0  0.4730388619686996 0.21 0  0.480507164205851 0.21 0  0.4879754664429498 0.21 0  0.4954437686800938 0.21 0  0.502912070917267 0.21 0  0.5103803731544119 0.21 0  0.5178486753915261 0.21 0  0.5253169776286404 0.21 0  0.5327852798657868 0.21 0  0.5402535821029386 0.21 0  0.54772188434007 0.21 0  0.5551901865771842 0.21 0  0.5626584888143201 0.21 0  0.5701267910514778 0.21 0  0.5775950932886138 0.21 0  0.5850633955257281 0.21 0  0.5925316977628483 0.21 0  0.6 0.2050000000000054 0  0.6 0.1950000000000217 0  0.5925316977628897 0.19 0  0.5850633955257988 0.19 0  0.5775950932887378 0.19 0  0.5701267910515998 0.19 0  0.5626584888145268 0.19 0  0.5551901865773963 0.19 0  0.547721884340339 0.19 0  0.5402535821032429 0.19 0  0.5327852798661811 0.19 0  0.5253169776290537 0.19 0  0.5178486753919799 0.19 0  0.5103803731549078 0.19 0  0.502912070917822 0.19 0  0.4954437686807294 0.19 0  0.4879754664436223 0.19 0  0.4805071642065402 0.19 0  0.4730388619694271 0.19 0  0.4655705597323621 0.19 0  0.4581022574952563 0.19 0  0.4506339552581777 0.19 0  0.4431656530210671 0.19 0  0.4356973507839815 0.19 0  0.4282290485468779 0.19 0  0.4207607463097617 0.19 0  0.4132924440726327 0.19 0  0.4058241418354857 0.19 0  0.3983558395983636 0.19 0  0.3908875373612097 0.19 0  0.3834192351240934 0.19 0  0.3759509328869369 0.19 0  0.3684826306498175 0.19 0  0.361014328412667 0.19 0  0.3535460261755617 0.19 0  0.3460777239384295 0.19 0  0.3386094217012945 0.19 0  0.3311411194641595 0.19 0  0.3236728172270245 0.19 0  0.3162045149898895 0.19 0  0.3087362127527544 0.19 0  0.3012679105156187 0.19 0  0.2937996082784807 0.19 0  0.2863313060413428 0.19 0  0.2788630038042048 0.19 0  0.2713947015670686 0.19 0  0.2639263993299336 0.19 0  0.2564580970927985 0.19 0  0.2607803159922026 0.2000727136295815 0  0.5887803774232762 0.2001272386983733 0  0.5745072403740523 0.2002044435018727 0  0.5511891430099709 0.2001122610077113 0  0.2751288526855082 0.20000000000002 0  0.5365194309847112 0.1999999999999436 0  0.2894621222999649 0.1998691686390484 0  0.5215828265105155 0.1999999999999228 0  0.3127789816668748 0.1998657885438805 0  0.3274069683451451 0.2000000000000796 0  0.5066462220363641 0.199999999999908 0  0.3650630746574081 0.199866017807523 0  0.476773013087985 0.1999999999998713 0  0.3417402379596385 0.1998691686391011 0  0.3796850840047755 0.200000000000134 0  0.4618364086138087 0.1999999999998546 0  0.4917096175621762 0.1999999999998808 0  0.3946216884789568 0.2000000000001512 0  0.446899804139621 0.1999999999998389 0  0.4089549580935208 0.1998691686391595 0  0.4322718174608562 0.200127451265745 0  0.4201487168029707 0.1999966199048527 0  0.3528922713220932 0.2000185703532356 0  0.5633122436674589 0.1999814296467508 0  0.3006558810093873 0.1999966199048318 0  0.5815926498168407 0.1966545283159175 0  0.2677053789419034 0.1964246479135325 0  0.5290511287476175 0.1970915826863981 0  0.5439877332217911 0.197091582686394 0  0.2825131256993216 0.2035478995978015 0  0.3199386661080599 0.202908417313604 0  0.4842413153250809 0.1970915826863873 0  0.5141145242734466 0.1970915826863843 0  0.3722167817676917 0.2029084173136195 0  0.4693047108508938 0.1970915826863783 0  0.3348752705822316 0.202908417313609 0  0.3871533862418661 0.2029084173136212 0  0.4543681063767183 0.1970915826863795 0  0.4991779197992749 0.1970915826863902 0  0.4020059614928624 0.203547899597858 0  0.4394315019025246 0.1970915826863714 0  0.2550657455369551 0.2034088125358657 0  0.2548908499171161 0.1966940311614271 0  0.5946539510196798 0.2024302972968126 0  0.267698176732111 0.2039977513680092 0  0.4261685417851465 0.196409292431739 0  0.3590076176283495 0.196411355804271 0  0.5571672426447437 0.2036011176410121 0  0.3066757059912147 0.1964092924317024 0  0.594380730180568 0.1966558399668133 0  0.4842413153245942 0.2040749161535287 0  0.4693047108503577 0.2040749161535231 0  0.3871533862424271 0.1959250838464788 0  0.372246743208829 0.1959123236376545 0  0.5141145242731028 0.2040749161535395 0  0.4543681063761134 0.2040749161535186 0  0.4019979587101454 0.1959834479682427 0  0.4394608940728603 0.2040870543693135 0  0.5439623148931173 0.2040856076781014 0  0.5290511287473298 0.2040749161535501 0  0.4991779197988497 0.2040749161535382 0  0.3347912413592433 0.1959225448935183 0  0.3199680582793816 0.1959123018030061 0  0.2825051229162361 0.1959834479681729 0  0.3590471196690275 0.2036304442587945 0  0.5571594006495384 0.1963685282145804 0  0.3067669986803285 0.203627750582736 0  0.4262598344738712 0.2036568242185335 0  0.5814408164431408 0.2041285596160068 0  0.5688286748170428 0.1961819304477386 0  0.4145905603063645 0.2038180695522843 0  0.3473758401724931 0.2038180695522752 0  0.2950977245128307 0.2038180695522663 0  0.5688286748170693 0.203818069552238 0  0.2950977245127906 0.1961819304477774 0  0.3473758401723931 0.1961819304478349 0  0.4145905603061963 0.1961819304479011 0  0.2601812407614425 0.2056861609747042
[...]
<PointData  Vectors="f_40-0"> 
<DataArray  type="Float64"  Name="f_40-0"  NumberOfComponents="3" format="ascii">0.0000000000000000e+00 0.0000000000000000e+00 0.0000000000000000e+00  0.0000000000000000e+00 0.0000000000000000e+00 0.0000000000000000e+00  0.0000000000000000e+00 0.0000000000000000e+00 0.0000000000000000e+00  0.0000000000000000e+00 0.0000000000000000e+00 0.0000000000000000e+00  -6.0825636022267608e-06 -7.4465284492437509e-04 0.0000000000000000e+00  5.1139286930172031e-05 -7.4945431793849789e-04 0.0000000000000000e+00  0.0000000000000000e+00 0.0000000000000000e+00 0.0000000000000000e+00  0.0000000000000000e+00 0.0000000000000000e+00 0.0000000000000000e+00  0.0000000000000000e+00 0.0000000000000000e+00 0.0000000000000000e+00  0.0000000000000000e+00 0.0000000000000000e+00 0.0000000000000000e+00  2.2010686328229456e-05 -7.4704438941224278e-04 0.0000000000000000e+00  1.1926875408792015e-01 0.0000000000000000e+00 0.0000000000000000e+00  2.2018846908540565e-01 0.0000000000000000e+00 0.0000000000000000e+00  3.0275914499243278e-01 0.0000000000000000e+00 0.0000000000000000e+00  3.6698078180909721e-01 0.0000000000000000e+00 0.0000000000000000e+00  4.1285337953539064e-01 0.0000000000000000e+00 0.0000000000000000e+00  4.4037693817131018e-01 0.0000000000000000e+00 0.0000000000000000e+00  4.4955145771682831e-01 0.0000000000000000e+00 0.0000000000000000e+00  4.4037693817186663e-01 0.0000000000000000e+00 0.0000000000000000e+00  4.1285337953634643e-01 0.0000000000000000e+00 0.0000000000000000e+00  3.6698078181028099e-01 0.0000000000000000e+00 0.0000000000000000e+00  3.0275914499355733e-01 0.0000000000000000e+00 0.0000000000000000e+00  2.2018846908636525e-01 0.0000000000000000e+00 0.0000000000000000e+00  1.1926875408846081e-01 0.0000000000000000e+00 0.0000000000000000e+00  0.0000000000000000e+00 0.0000000000000000e+00 0.0000000000000000e+00  0.0000000000000000e+00 0.0000000000000000e+00 0.0000000000000000e+00  0.0000000000000000e+00 0.0000000000000000e+00 0.0000000000000000e+00  0.0000000000000000e+00 0.0000000000000000e+00 0.0000000000000000e+00  0.0000000000000000e+00 0.0000000000000000e+00 0.0000000000000000e+00  0.0000000000000000e+00 0.0000000000000000e+00 0.0000000000000000e+00  0.0000000000000000e+00 0.0000000000000000e+00 0.0000000000000000e+00  0.0000000000000000e+00 0.0000000000000000e+00 0.0000000000000000e+00  0.0000000000000000e+00 0.0000000000000000e+00 0.0000000000000000e+00  0.0000000000000000e+00 0.0000000000000000e+00 0.0000000000000000e+00  0.0000000000000000e+00 0.0000000000000000e+00 0.0000000000000000e+00  0.0000000000000000e+00 0.0000000000000000e+00 0.0000000000000000e+00  0.0000000000000000e+00 0.0000000000000000e+00 0.0000000000000000e+00  0.0000000000000000e+00 0.0000000000000000e+00 0.0000000000000000e+00  0.0000000000000000e+00 0.0000000000000000e+00 0.0000000000000000e+00  0.0000000000000000e+00 0.0000000000000000e+00 0.0000000000000000e+00  0.0000000000000000e+00 0.0000000000000000e+00 0.0000000000000000e+00  0.0000000000000000e+00 0.0000000000000000e+00 0.0000000000000000e+00  0.0000000000000000e+00 0.0000000000000000e+00 0.0000000000000000e+00  0.0000000000000000e+00 0.0000000000000000e+00 0.0000000000000000e+00  0.0000000000000000e+00 0.0000000000000000e+00 0.0000000000000000e+00  0.0000000000000000e+00 0.0000000000000000e+00 0.0000000000000000e+00  0.0000000000000000e+00 0.0000000000000000e+00 0.0000000000000000e+00  0.0000000000000000e+00 0.0000000000000000e+00 0.0000000000000000e+00  0.0000000000000000e+00 0.0000000000000000e+00 0.0000000000000000e+00  0.0000000000000000e+00 0.0000000000000000e+00 0.0000000000000000e+00  0.0000000000000000e+00 0.0000000000000000e+00 0.0000000000000000e+00  0.0000000000000000e+00 0.0000000000000000e+00 0.0000000000000000e+00  0.0000000000000000e+00 0.0000000000000000e+00 0.0000000000000000e+00  0.0000000000000000e+00 0.0000000000000000e+00 0.0000000000000000e+00  0.0000000000000000e+00 0.0000000000000000e+00 0.0000000000000000e+00  0.0000000000000000e+00 0.0000000000000000e+00 0.0000000000000000e+00  0.0000000000000000e+00 0.0000000000000000e+00 0.0000000000000000e+00  0.0000000000000000e+00 0.0000000000000000e+00 0.0000000000000000e+00  0.0000000000000000e+00 0.0000000000000000e+00 0.0000000000000000e+00  0.0000000000000000e+00 0.0000000000000000e+00 0.0000000000000000e+00  0.0000000000000000e+00 0.0000000000000000e+00 0.0000000000000000e+00  0.0000000000000000e+00 0.0000000000000000e+00 0.0000000000000000e+00  3.9079936916110913e-01 -6.0085758206369412e-04 0.0000000000000000e+00  2.9207037887884779e-01 1.5467879094211549e-04 0.0000000000000000e+00  3.9014502690630737e-01 7.1535987391606830e-05 0.0000000000000000e+00  0.0000000000000000e+00 0.0000000000000000e+00 0.0000000000000000e+00  0.0000000000000000e+00 0.0000000000000000e+00 0.0000000000000000e+00  0.0000000000000000e+00 0.0000000000000000e+00 0.0000000000000000e+00  0.0000000000000000e+00 0.0000000000000000e+00 0.0000000000000000e+00  0.0000000000000000e+00 0.0000000000000000e+00 0.0000000000000000e+00  0.0000000000000000e+00 0.0000000000000000e+00 0.0000000000000000e+00  0.0000000000000000e+00 0.0000000000000000e+00 0.0000000000000000e+00  0.0000000000000000e+00 0.0000000000000000e+00 0.0000000000000000e+00  0.0000000000000000e+00 0.0000000000000000e+00 0.0000000000000000e+00  0.0000000000000000e+00 0.0000000000000000e+00 0.0000000000000000e+00  0.0000000000000000e+00 0.0000000000000000e+00 0.0000000000000000e+00  0.0000000000000000e+00 0.0000000000000000e+00 0.0000000000000000e+00  0.0000000000000000e+00 0.0000000000000000e+00 0.0000000000000000e+00  0.0000000000000000e+00 0.0000000000000000e+00 0.0000000000000000e+00  0.0000000000000000e+00 0.0000000000000000e+00 0.0000000000000000e+00  0.0000000000000000e+00 0.0000000000000000e+00 0.0000000000000000e+00  0.0000000000000000e+00 0.0000000000000000e+00 0.0000000000000000e+00  0.0000000000000000e+00 0.0000000000000000e+00 0.0000000000000000e+00  0.0000000000000000e+00 0.0000000000000000e+00 0.0000000000000000e+00  0.0000000000000000e+00 0.0000000000000000e+00 0.0000000000000000e+00  0.0000000000000000e+00 0.0000000000000000e+00 0.0000000000000000e+00  0.0000000000000000e+00 0.0000000000000000e+00 0.0000000000000000e+00  0.0000000000000000e+00 0.0000000000000000e+00 0.0000000000000000e+00  0.0000000000000000e+00 0.0000000000000000e+00 0.0000000000000000e+00  0.0000000000000000e+00 0.0000000000000000e+00 0.0000000000000000e+00  0.0000000000000000e+00 0.0000000000000000e+00 0.0000000000000000e+00  0.0000000000000000e+00 0.0000000000000000e+00 0.0000000000000000e+00  0.0000000000000000e+00 0.0000000000000000e+00 0.0000000000000000e+00  0.0000000000000000e+00 0.0000000000000000e+00 0.0000000000000000e+00  0.0000000000000000e+00 0.0000000000000000e+00 0.0000000000000000e+00  0.0000000000000000e+00 0.0000000000000000e+00 0.0000000000000000e+00  0.0000000000000000e+00 0.0000000000000000e+00 0.0000000000000000e+00  0.0000000000000000e+00 0.0000000000000000e+00 0.0000000000000000e+00  0.0000000000000000e+00 0.0000000000000000e+00 0.0000000000000000e+00  0.0000000000000000e+00 0.0000000000000000e+00 0.0000000000000000e+00  0.0000000000000000e+00 0.0000000000000000e+00 0.0000000000000000e+00  0.0000000000000000e+00 0.0000000000000000e+00 0.0000000000000000e+00  0.0000000000000000e+00 0.0000000000000000e+00 0.0000000000000000e+00  0.0000000000000000e+00 0.0000000000000000e+00 0.0000000000000000e+00  0.0000000000000000e+00 0.0000000000000000e+00 0.0000000000000000e+00  0.0000000000000000e+00 0.0000000000000000e+00 0.0000000000000000e+00  0.0000000000000000e+00 0.0000000000000000e+00 0.0000000000000000e+00  0.0000000000000000e+00 0.0000000000000000e+00 0.0000000000000000e+00  0.0000000000000000e+00 0.0000000000000000e+00 0.0000000000000000e+00  0.0000000000000000e+00 0.0000000000000000e+00 0.0000000000000000e+00  0.0000000000000000e+00 0.0000000000000000e+00 0.0000000000000000e+00  0.0000000000000000e+00 0.0000000000000000e+00 0.0000000000000000e+00  0.0000000000000000e+00 0.0000000000000000e+00 0.0000000000000000e+00  0.0000000000000000e+00 0.0000000000000000e+00 0.0000000000000000e+00  0.0000000000000000e+00 0.0000000000000000e+00 0.0000000000000000e+00  0.0000000000000000e+00 0.0000000000000000e+00 0.0000000000000000e+00  0.0000000000000000e+00 0.0000000000000000e+00 0.0000000000000000e+00  0.0000000000000000e+00 0.0000000000000000e+00 0.0000000000000000e+00  0.0000000000000000e+00 0.0000000000000000e+00 0.0000000000000000e+00  0.0000000000000000e+00 0.0000000000000000e+00 0.0000000000000000e+00  0.0000000000000000e+00 0.0000000000000000e+00 0.0000000000000000e+00  0.0000000000000000e+00 0.0000000000000000e+00 0.0000000000000000e+00  0.0000000000000000e+00 0.0000000000000000e+00 0.0000000000000000e+00  0.0000000000000000e+00 0.0000000000000000e+00 0.0000000000000000e+00  0.0000000000000000e+00 0.0000000000000000e+00 0.0000000000000000e+00  0.0000000000000000e+00 0.0000000000000000e+00 0.0000000000000000e+00  0.0000000000000000e+00 0.0000000000000000e+00 0.0000000000000000e+00  0.0000000000000000e+00 0.0000000000000000e+00 0.0000000000000000e+00  0.0000000000000000e+00 0.0000000000000000e+00 0.0000000000000000e+00  0.0000000000000000e+00 0.0000000000000000e+00 0.0000000000000000e+00  0.0000000000000000e+00 0.0000000000000000e+00 0.0000000000000000e+00  0.0000000000000000e+00 0.0000000000000000e+00 0.0000000000000000e+00  0.0000000000000000e+00 0.0000000000000000e+00 0.0000000000000000e+00  0.0000000000000000e+00 0.0000000000000000e+00 0.0000000000000000e+00  0.0000000000000000e+00 0.0000000000000000e+00 0.0000000000000000e+00  0.0000000000000000e+00 0.0000000000000000e+00 0.0000000000000000e+00  0.0000000000000000e+00 0.0000000000000000e+00 0.0000000000000000e+00  0.0000000000000000e+00 0.0000000000000000e+00 0.0000000000000000e+00  0.0000000000000000e+00 0.0000000000000000e+00 0.0000000000000000e+00  0.0000000000000000e+00 0.0000000000000000e+00 0.0000000000000000e+00  0.0000000000000000e+00 0.0000000000000000e+00 0.0000000000000000e+00  0.0000000000000000e+00 0.0000000000000000e+00 0.0000000000000000e+00  0.0000000000000000e+00 0.0000000000000000e+00 0.0000000000000000e+00  2.4514852885536776e-06 -6.1565065174357096e-06 0.0000000000000000e+00  5.3257033879132813e-06 -8.3695984292536411e-06 0.0000000000000000e+00  8.3217812325616661e-06 -1.1512956424589450e-05 0.0000000000000000e+00  1.1616782720322950e-05 -1.5729218932645750e-05 0.0000000000000000e+00  1.4700420397189602e-05 -2.1009559743478647e-05 0.0000000000000000e+00  1.7984864797417287e-05 -2.7463736608667967e-05 0.0000000000000000e+00  2.0935301096779710e-05 -3.4759376835572502e-05 0.0000000000000000e+00  2.3816563780262862e-05 -4.3175808725481594e-05 0.0000000000000000e+00  2.6862643250701746e-05 -5.2449826986783482e-05 0.0000000000000000e+00  2.9491992844349455e-05 -6.2593179334485415e-05 0.0000000000000000e+00  3.2315833001643396e-05 -7.3651863874587455e-05 0.0000000000000000e+00  3.4724266650042143e-05 -8.5482555107001821e-05 0.0000000000000000e+00  3.7240154871023702e-05 -9.8122648583206205e-05 0.0000000000000000e+00  3.9442686760945278e-05 -1.1139822423526647e-04 0.0000000000000000e+00  4.1524468074060276e-05 -1.2545101034343859e-04 0.0000000000000000e+00  4.3665997772156580e-05 -1.4011044000726924e-04 0.0000000000000000e+00  4.5466276521064409e-05 -1.5533869151030402e-04 0.0000000000000000e+00  4.7336865390770608e-05 -1.7120439010237973e-04 0.0000000000000000e+00  4.8890855037074293e-05 -1.8753595956701614e-04 0.0000000000000000e+00  5.0484871559358308e-05 -2.0440677638883812e-04 0.0000000000000000e+00  5.1831779178014657e-05 -2.2169263779110235e-04 0.0000000000000000e+00  5.3148085000886192e-05 -2.3945282903856132e-04 0.0000000000000000e+00  5.4267939454757498e-05 -2.5753555560505034e-04 0.0000000000000000e+00  5.5272545448814705e-05 -2.7602775718412365e-04 0.0000000000000000e+00  5.6263372861594756e-05 -2.9481718385095573e-04 0.0000000000000000e+00  5.7064990140629041e-05 -3.1389996826418229e-04 0.0000000000000000e+00  5.7784156925747984e-05 -3.3331509312661839e-04 0.0000000000000000e+00  5.8370598875087899e-05 -3.5291670057159178e-04 0.0000000000000000e+00  5.8872027815219422e-05 -3.7280880544852973e-04 0.0000000000000000e+00  5.9250534232689625e-05 -3.9284607112455750e-04 0.0000000000000000e+00  5.9541944495638998e-05 -4.1312724244311995e-04 0.0000000000000000e+00  5.9715676500953583e-05 -4.3351137900045513e-04 0.0000000000000000e+00  5.9804325917749757e-05 -4.5409848658061716e-04 0.0000000000000000e+00  5.9778581491793575e-05 -4.7474900751978905e-04 0.0000000000000000e+00  5.9663543502735176e-05 -4.9557301853286136e-04 0.0000000000000000e+00  5.9443586674177080e-05 -5.1643138097636388e-04 0.0000000000000000e+00  5.9136305551273578e-05 -5.3742775089035471e-04 0.0000000000000000e+00  5.8728105183801885e-05 -5.5843328731873835e-04 0.0000000000000000e+00  5.8229929447567489e-05 -5.7955125155313540e-04 0.0000000000000000e+00  5.7631024206973907e-05 -6.0065691313641195e-04 0.0000000000000000e+00  5.6930839667746390e-05 -6.2183624196163526e-04 0.0000000000000000e+00  5.6152021591585047e-05 -6.4301665131894078e-04 0.0000000000000000e+00  5.5268514178642433e-05 -6.6422804242220258e-04 0.0000000000000000e+00  5.4329105702880918e-05 -6.8544845487022749e-04 0.0000000000000000e+00  5.3276500188130602e-05 -7.0664457294309052e-04 0.0000000000000000e+00  5.2174813447602292e-05 -7.2791063337165755e-04 0.0000000000000000e+00  3.6391951037129614e-05 -7.4824745632735910e-04 0.0000000000000000e+00  7.8009901066162417e-06 -7.4584976409405857e-04 0.0000000000000000e+00  -5.0195804522147118e-06 -7.2345432151890764e-04 0.0000000000000000e+00  -3.8779451565722949e-06 -7.0201138493827440e-04 0.0000000000000000e+00  -2.7879575205278619e-06 -6.8053197832256213e-04 0.0000000000000000e+00  -1.7911145601960337e-06 -6.5910476800706429e-04 0.0000000000000000e+00  -8.5080723015407417e-07 -6.3769287195660559e-04 0.0000000000000000e+00  -4.3129890403964804e-09 -6.1630889564305406e-04 0.0000000000000000e+00  7.9376916312627427e-07 -5.9496600963356526e-04 0.0000000000000000e+00  1.4972902728594118e-06 -5.7363012630342030e-04 0.0000000000000000e+00  2.1502119703948230e-06 -5.5238799448751132e-04 0.0000000000000000e+00  2.7177257929073013e-06 -5.3115226182463783e-04 0.0000000000000000e+00  3.2479970766206423e-06 -5.1003261633305458e-04 0.0000000000000000e+00  3.6880346294833092e-06 -4.8894552102062450e-04 0.0000000000000000e+00  4.1038187789830162e-06 -4.6800292175441354e-04 0.0000000000000000e+00  4.4253598655031939e-06 -4.4712521562029195e-04 0.0000000000000000e+00  4.7390495453086989e-06 -4.2642027360404572e-04 0.0000000000000000e+00  4.9496048509952218e-06 -4.0581457735514194e-04 0.0000000000000000e+00  5.1688622256591486e-06 -3.8541592030683222e-04 0.0000000000000000e+00  5.2743713398959272e-06 -3.6515634452717697e-04 0.0000000000000000e+00  5.4061087779400513e-06 -3.4514811567989853e-04 0.0000000000000000e+00  5.4130199945433030e-06 -3.2532568556135720e-04 0.0000000000000000e+00  5.4683939884130673e-06 -3.0579931192734386e-04 0.0000000000000000e+00  5.3852574432416668e-06 -2.8651081039558134e-04 0.0000000000000000e+00  5.3540910127982491e-06 -2.6755646651912445e-04 0.0000000000000000e+00  5.2105236920255248e-06 -2.4889119621648300e-04 0.0000000000000000e+00  5.0127085355418093e-06 -2.3064826730354661e-04 0.0000000000000000e+00  4.8908285902102772e-06 -2.1272202534916758e-04 0.0000000000000000e+00  4.6523896054452945e-06 -1.9524270034515138e-04 0.0000000000000000e+00  4.4396253606478721e-06 -1.7823650528158382e-04 0.0000000000000000e+00  4.1440108714377379e-06 -1.6169612547622586e-04 0.0000000000000000e+00  3.8724577267136235e-06 -1.4571427123160553e-04 0.0000000000000000e+00  3.5188727656996362e-06 -1.3024860277957172e-04 0.0000000000000000e+00  3.2535341828433928e-06 -1.1548703322744524e-04 0.0000000000000000e+00  2.8273350894872749e-06 -1.0125148990832784e-04 0.0000000000000000e+00  2.3608311950064884e-06 -8.7832855582419672e-05 0.0000000000000000e+00  2.0587712317432647e-06 -7.4996993855286803e-05 0.0000000000000000e+00  1.6179642091520978e-06 -6.3016627853412823e-05 0.0000000000000000e+00  1.2461875367526624e-06 -5.1863032927453564e-05 0.0000000000000000e+00  7.8474073582153190e-07 -4.1539901345766257e-05 0.0000000000000000e+00  4.9336707015063495e-07 -3.2242380920377388e-05 0.0000000000000000e+00  3.6714027907339695e-09 -2.3747205331360335e-05 0.0000000000000000e+00  -4.8094256457789612e-07 -1.6426225447195277e-05 0.0000000000000000e+00  -6.8197464019876741e-07 -9.9568731477898892e-06 0.0000000000000000e+00  -1.0178316614604755e-06 -4.6420423121630343e-06 0.0000000000000000e+00  -1.0318904703033223e-06 -4.6395744024824864e-07 0.0000000000000000e+00  -1.0724233171950436e-06 2.3713029913446878e-06 0.0000000000000000e+00  -5.5759937084876387e-07 3.7582563745997853e-06 0.0000000000000000e+00  6.8755012126713736e-07 -1.2715616090480177e-06 0.0000000000000000e+00  2.4295255170163516e-05 -7.1497354571475749e-04 0.0000000000000000e+00  2.6675461095767546e-05 -6.7420683892001755e-04 0.0000000000000000e+00  2.9107606664845361e-05 -6.0768569198570057e-04 0.0000000000000000e+00  4.4091280759517467e-06 -7.1948018300266199e-06 0.0000000000000000e+00  3.0058666291817790e-05 -5.6595838879842594e-04 0.0000000000000000e+00  7.6109806121279757e-06 -1.7268225008240502e-05 0.0000000000000000e+00  3.1045744663706950e-05 -5.2370075268453502e-04 0.0000000000000000e+00  1.2822799776704622e-05 -4.1933830652984777e-05 0.0000000000000000e+00  1.6095065198356941e-05 -6.2134703859584615e-05 0.0000000000000000e+00  3.1718379900539809e-05 -4.8173656444057227e-04 0.0000000000000000e+00  2.2701925960326516e-05 -1.2788218364606548e-04 0.0000000000000000e+00  3.2138662404469691e-05 -3.9916346530441518e-04 0.0000000000000000e+00  1.8709477205127861e-05 -8.4902342061350756e-05 0.0000000000000000e+00  2.5122484028841375e-05 -1.5806288507408929e-04 0.0000000000000000e+00  3.1892287014443440e-05 -3.5883740492632693e-04 0.0000000000000000e+00  3.2081502102532213e-05 -4.4018057436419962e-04 0.0000000000000000e+00  2.7037727287123628e-05 -1.9098130269739274e-04 0.0000000000000000e+00  3.1341491881890176e-05 -3.1937913868019646e-04 0.0000000000000000e+00  2.8287078067684738e-05 -2.2429570968618125e-04 0.0000000000000000e+00  3.0842138531134366e-05 -2.8180938297941733e-04 0.0000000000000000e+00  2.9573532689479600e-05 -2.5153157784436517e-04 0.0000000000000000e+00  2.0950832654724779e-05 -1.0480247294813807e-04 0.0000000000000000e+00  2.7401792326356445e-05 -6.4220229588912562e-04 0.0000000000000000e+00  1.0256205215559045e-05 -2.8132900562192101e-05 0.0000000000000000e+00  1.5517576086274608e-05 -6.9361780865763380e-04 0.0000000000000000e+00  1.1816322707470869e-06 -1.6601295252291807e-06 0.0000000000000000e+00  2.2378736778831150e-05 -5.4390991798209103e-04 0.0000000000000000e+00  2.1192784969582454e-05 -5.8632577999662844e-04 0.0000000000000000e+00  8.5708618595292696e-06 -1.3998147091311344e-05 0.0000000000000000e+00  1.8495869068177159e-05 -5.3083314015907298e-05 0.0000000000000000e+00  2.4185088869191472e-05 -4.1856326373265155e-04 0.0000000000000000e+00  2.3268279859378752e-05 -5.0173669286043506e-04 0.0000000000000000e+00  3.0003519852768919e-05 -1.4386763034077016e-04 0.0000000000000000e+00  2.4228330722484123e-05 -3.7782474153336750e-04 0.0000000000000000e+00  2.2184936244880976e-05 -7.5276215307066096e-05 0.0000000000000000e+00  3.2483066278100162e-05 -1.7568404762727423e-04 0.0000000000000000e+00  2.4000376762363990e-05 -3.3786449353462447e-04 0.0000000000000000e+00  2.3867133979250753e-05 -4.5991338404976952e-04 0.0000000000000000e+00  3.6088896374738870e-05 -2.0963431968895713e-04 0.0000000000000000e+00  2.3504493238868993e-05 -2.9886603421724103e-04 0.0000000000000000e+00  -1.7453158466914470e-09 -1.4617157435364170e-06 0.0000000000000000e+00  -5.0978613631685679e-07 8.6402793443487287e-07 0.0000000000000000e+00  2.9888431656932121e-05 -7.3228795307488375e-04 0.0000000000000000e+00  4.2073483509174457e-06 -5.9954842748468364e-06 0.000000000000000