<?xml version="1.0"?>
<VTKFile type="UnstructuredGrid"  version="0.1"  >
<UnstructuredGrid>
<Piece  NumberOfPoints="1419" NumberOfCells="2698">
<Points>
<DataArray  type="Float64"  NumberOfComponents="3"  format="ascii">0 0 0  0 0.41 0  2.5 0 0  2.5 0.41 0  0.6 0.19 0  0.6 0.21 0  0.25 0.2 0  0.15 0.2 0  0.2489897948556636 0.21 0  0.2489897948556636 0.19 0  0.6 0.2 0  0 0.3807142857143437 0  0 0.3514285714286952 0  0 0.3221428571430699 0  0 0.29285714285744 0  0 0.2635714285718054 0  0 0.2342857142861561 0  0 0.2050000000005308 0  0 0.175714285714732 0  0 0.1464285714289574 0  0 0.1171428571431897 0  0 0.08785714285737878 0  0 0.05857142857161107 0  0 0.02928571428580012 0  0.03015443760436003 0 0  0.06140001986583606 0 0  0.09377624077125973 0 0  0.1273239957535082 0 0  0.1620856860351972 0 0  0.1981052433264291 0 0  0.235428184091502 0 0  0.2741016576309132 0 0  0.3141745521465447 0 0  0.3556974926295285 0 0  0.3987229542472677 0 0  0.4433053055141081 0 0  0.4895008759286886 0 0  0.5373680609405097 0 0  0.5869673343216626 0 0  0.6383613676634521 0 0  0.6916151138468254 0 0  0.7467958595648856 0 0  0.8039733463919316 0 0  0.8632198139502143 0 0  0.9246101326867038 0 0  0.9882218810934433 0 0  1.054135445558498 0 0  1.122434100542598 0 0  1.193204177141305 0 0  1.266535089879536 0 0  1.342519516046404 0 0  1.421253448503939 0 0  1.502836389106271 0 0  1.587371439758838 0 0  1.674965418777374 0 0  1.765729001825544 0 0  1.859776908880082 0 0  1.957227977487062 0 0  2.058205329869943 0 0  2.162836591189951 0 0  2.271253957290865 0 0  2.383594446803425 0 0  2.5 0.1024999999997612 0  2.5 0.2049999999994743 0  2.5 0.3074999999997183 0  2.383594446803656 0.41 0  2.271253957291315 0.41 0  2.162836591190598 0.41 0  2.058205329870775 0.41 0  1.957227977488067 0.41 0  1.859776908881246 0.41 0  1.765729001826854 0.41 0  1.674965418778818 0.41 0  1.58737143976041 0.41 0  1.502836389107956 0.41 0  1.421253448505726 0.41 0  1.342519516048286 0.41 0  1.266535089881505 0.41 0  1.193204177143353 0.41 0  1.122434100544716 0.41 0  1.05413544556068 0.41 0  0.9882218810956305 0.41 0  0.9246101326886647 0.41 0  0.8632198139519631 0.41 0  0.8039733463934788 0.41 0  0.7467958595662458 0.41 0  0.6916151138480078 0.41 0  0.6383613676644679 0.41 0  0.5869673343225223 0.41 0  0.5373680609412221 0.41 0  0.4895008759292634 0.41 0  0.4433053055145528 0.41 0  0.3987229542475914 0.41 0  0.3556974926297398 0.41 0  0.3141745521466497 0.41 0  0.2741016576310038 0.41 0  0.2354281840915826 0.41 0  0.1981052433265003 0.41 0  0.1620856860352591 0.41 0  0.1273239957535623 0.41 0  0.09377624077128965 0.41 0  0.06140001986584975 0.41 0  0.03015443760436654 0.41 0  0.2497468076502589 0.2050254481002335 0  0.2497468076502614 0.1949745518997913 0  0.2469965252529372 0.1829317073451959 0  0.2439893735792749 0.1762316384219906 0  0.2400332147834255 0.1700443375285386 0  0.2352133972704371 0.1645032867342007 0  0.2296339016332438 0.1597280261969788 0  0.2234150974217223 0.1558215752574715 0  0.2166911463437691 0.1528682099456123 0  0.2096071079204251 0.1509316448471593 0  0.2023158100364996 0.1500536585536553 0  0.194974551899914 0.1502531923497262 0  0.1877417105387872 0.1515259415822739 0  0.1807733240461124 0.153844448527136 0  0.1742197252835808 0.15715869474974 0  0.1682222986673531 0.1613971801805478 0  0.162910430003803 0.1664684656256651 0  0.1583987151779087 0.1722631454351573 0  0.1547844879126891 0.178656207771761 0  0.1521457199348551 0.1855097315605723 0  0.1505393388476355 0.1926758619366523 0  0.1505393388476328 0.2073241380633295 0  0.1521457199348437 0.2144902684393899 0  0.1547844879126531 0.221343792228163 0  0.1583987151778488 0.2277368545647528 0  0.1629104300036858 0.2335315343742052 0  0.1682222986671726 0.2386028198193036 0  0.1742197252833576 0.2428413052501257 0  0.1807733240458683 0.2461555514727623 0  0.1877417105384929 0.2484740584176516 0  0.1949745518995776 0.2497468076502398 0  0.202315810036185 0.2499463414463592 0  0.2096071079201568 0.2490683551528932 0  0.2166911463435495 0.2471317900544655 0  0.2234150974215506 0.2441784247426195 0  0.2296339016331197 0.2402719738031125 0  0.2352133972703547 0.2354967132658811 0  0.2400332147833751 0.2299556624715287 0  0.2439893735792577 0.2237683615780412 0  0.246996525252926 0.2170682926548348 0  0.25645809709277 0.21 0  0.2639263993298655 0.21 0  0.271394701566961 0.21 0  0.2788630038040554 0.21 0  0.2863313060411479 0.21 0  0.2937996082782405 0.21 0  0.301267910515333 0.21 0  0.3087362127524279 0.21 0  0.3162045149895234 0.21 0  0.3236728172265972 0.21 0  0.3311411194636928 0.21 0  0.3386094217007701 0.21 0  0.3460777239378666 0.21 0  0.3535460261749672 0.21 0  0.3610143284120516 0.21 0  0.3684826306491596 0.21 0  0.3759509328862226 0.21 0  0.383419235123329 0.21 0  0.3908875373604028 0.21 0  0.3983558395975142 0.21 0  0.4058241418345938 0.21 0  0.4132924440716992 0.21 0  0.4207607463087888 0.21 0  0.4282290485459029 0.21 0  0.4356973507830418 0.21 0  0.4431656530201649 0.21 0  0.4506339552573136 0.21 0  0.4581022574944306 0.21 0  0.4655705597315852 0.21 0  0.4730388619686996 0.21 0  0.480507164205851 0.21 0  0.4879754664429498 0.21 0  0.4954437686800938 0.21 0  0.502912070917267 0.21 0  0.5103803731544119 0.21 0  0.5178486753915261 0.21 0  0.5253169776286404 0.21 0  0.5327852798657868 0.21 0  0.5402535821029386 0.21 0  0.54772188434007 0.21 0  0.5551901865771842 0.21 0  0.5626584888143201 0.21 0  0.5701267910514778 0.21 0  0.5775950932886138 0.21 0  0.5850633955257281 0.21 0  0.5925316977628483 0.21 0  0.6 0.2050000000000054 0  0.6 0.1950000000000217 0  0.5925316977628897 0.19 0  0.5850633955257988 0.19 0  0.5775950932887378 0.19 0  0.5701267910515998 0.19 0  0.5626584888145268 0.19 0  0.5551901865773963 0.19 0  0.547721884340339 0.19 0  0.5402535821032429 0.19 0  0.5327852798661811 0.19 0  0.5253169776290537 0.19 0  0.5178486753919799 0.19 0  0.5103803731549078 0.19 0  0.502912070917822 0.19 0  0.4954437686807294 0.19 0  0.4879754664436223 0.19 0  0.4805071642065402 0.19 0  0.4730388619694271 0.19 0  0.4655705597323621 0.19 0  0.4581022574952563 0.19 0  0.4506339552581777 0.19 0  0.4431656530210671 0.19 0  0.4356973507839815 0.19 0  0.4282290485468779 0.19 0  0.4207607463097617 0.19 0  0.4132924440726327 0.19 0  0.4058241418354857 0.19 0  0.3983558395983636 0.19 0  0.3908875373612097 0.19 0  0.3834192351240934 0.19 0  0.3759509328869369 0.19 0  0.3684826306498175 0.19 0  0.361014328412667 0.19 0  0.3535460261755617 0.19 0  0.3460777239384295 0.19 0  0.3386094217012945 0.19 0  0.3311411194641595 0.19 0  0.3236728172270245 0.19 0  0.3162045149898895 0.19 0  0.3087362127527544 0.19 0  0.3012679105156187 0.19 0  0.2937996082784807 0.19 0  0.2863313060413428 0.19 0  0.2788630038042048 0.19 0  0.2713947015670686 0.19 0  0.2639263993299336 0.19 0  0.2564580970927985 0.19 0  0.2607803159922026 0.2000727136295815 0  0.5887803774232762 0.2001272386983733 0  0.5745072403740523 0.2002044435018727 0  0.5511891430099709 0.2001122610077113 0  0.2751288526855082 0.20000000000002 0  0.5365194309847112 0.1999999999999436 0  0.2894621222999649 0.1998691686390484 0  0.5215828265105155 0.1999999999999228 0  0.3127789816668748 0.1998657885438805 0  0.3274069683451451 0.2000000000000796 0  0.5066462220363641 0.199999999999908 0  0.3650630746574081 0.199866017807523 0  0.476773013087985 0.1999999999998713 0  0.3417402379596385 0.1998691686391011 0  0.3796850840047755 0.200000000000134 0  0.4618364086138087 0.1999999999998546 0  0.4917096175621762 0.1999999999998808 0  0.3946216884789568 0.2000000000001512 0  0.446899804139621 0.1999999999998389 0  0.4089549580935208 0.1998691686391595 0  0.4322718174608562 0.200127451265745 0  0.4201487168029707 0.1999966199048527 0  0.3528922713220932 0.2000185703532356 0  0.5633122436674589 0.1999814296467508 0  0.3006558810093873 0.1999966199048318 0  0.5815926498168407 0.1966545283159175 0  0.2677053789419034 0.1964246479135325 0  0.5290511287476175 0.1970915826863981 0  0.5439877332217911 0.197091582686394 0  0.2825131256993216 0.2035478995978015 0  0.3199386661080599 0.202908417313604 0  0.4842413153250809 0.1970915826863873 0  0.5141145242734466 0.1970915826863843 0  0.3722167817676917 0.2029084173136195 0  0.4693047108508938 0.1970915826863783 0  0.3348752705822316 0.202908417313609 0  0.3871533862418661 0.2029084173136212 0  0.4543681063767183 0.1970915826863795 0  0.4991779197992749 0.1970915826863902 0  0.4020059614928624 0.203547899597858 0  0.4394315019025246 0.1970915826863714 0  0.2550657455369551 0.2034088125358657 0  0.2548908499171161 0.1966940311614271 0  0.5946539510196798 0.2024302972968126 0  0.267698176732111 0.2039977513680092 0  0.4261685417851465 0.196409292431739 0  0.3590076176283495 0.196411355804271 0  0.5571672426447437 0.2036011176410121 0  0.3066757059912147 0.1964092924317024 0  0.594380730180568 0.1966558399668133 0  0.4842413153245942 0.2040749161535287 0  0.4693047108503577 0.2040749161535231 0  0.3871533862424271 0.1959250838464788 0  0.372246743208829 0.1959123236376545 0  0.5141145242731028 0.2040749161535395 0  0.4543681063761134 0.2040749161535186 0  0.4019979587101454 0.1959834479682427 0  0.4394608940728603 0.2040870543693135 0  0.5439623148931173 0.2040856076781014 0  0.5290511287473298 0.2040749161535501 0  0.4991779197988497 0.2040749161535382 0  0.3347912413592433 0.1959225448935183 0  0.3199680582793816 0.1959123018030061 0  0.2825051229162361 0.1959834479681729 0  0.3590471196690275 0.2036304442587945 0  0.5571594006495384 0.1963685282145804 0  0.3067669986803285 0.203627750582736 0  0.4262598344738712 0.2036568242185335 0  0.5814408164431408 0.2041285596160068 0  0.5688286748170428 0.1961819304477386 0  0.4145905603063645 0.2038180695522843 0  0.3473758401724931 0.2038180695522752 0  0.2950977245128307 0.2038180695522663 0  0.5688286748170693 0.203818069552238 0  0.2950977245127906 0.1961819304477774 0  0.3473758401723931 0.1961819304478349 0  0.4145905603061963 0.1961819304479011 0  0.2601812407614425 0.2056861609747042
[...]
<PointData  Vectors="f_40-0"> 
<DataArray  type="Float64"  Name="f_40-0"  NumberOfComponents="3" format="ascii">0.0000000000000000e+00 0.0000000000000000e+00 0.0000000000000000e+00  0.0000000000000000e+00 0.0000000000000000e+00 0.0000000000000000e+00  0.0000000000000000e+00 0.0000000000000000e+00 0.0000000000000000e+00  0.0000000000000000e+00 0.0000000000000000e+00 0.0000000000000000e+00  1.2885527168327620e-04 2.6385382987287945e-03 0.0000000000000000e+00  -8.0980170570224869e-05 2.6432029949062220e-03 0.0000000000000000e+00  0.0000000000000000e+00 0.0000000000000000e+00 0.0000000000000000e+00  0.0000000000000000e+00 0.0000000000000000e+00 0.0000000000000000e+00  0.0000000000000000e+00 0.0000000000000000e+00 0.0000000000000000e+00  0.0000000000000000e+00 0.0000000000000000e+00 0.0000000000000000e+00  2.4318247647253121e-05 2.6408438258588114e-03 0.0000000000000000e+00  7.8358617747014203e-01 0.0000000000000000e+00 0.0000000000000000e+00  1.4466206353295890e+00 0.0000000000000000e+00 0.0000000000000000e+00  1.9891033735781851e+00 0.0000000000000000e+00 0.0000000000000000e+00  2.4110343922165582e+00 0.0000000000000000e+00 0.0000000000000000e+00  2.7124136912446550e+00 0.0000000000000000e+00 0.0000000000000000e+00  2.8932412706624557e+00 0.0000000000000000e+00 0.0000000000000000e+00  2.9535171304697796e+00 0.0000000000000000e+00 0.0000000000000000e+00  2.8932412706661110e+00 0.0000000000000000e+00 0.0000000000000000e+00  2.7124136912509345e+00 0.0000000000000000e+00 0.0000000000000000e+00  2.4110343922243356e+00 0.0000000000000000e+00 0.0000000000000000e+00  1.9891033735855730e+00 0.0000000000000000e+00 0.0000000000000000e+00  1.4466206353358932e+00 0.0000000000000000e+00 0.0000000000000000e+00  7.8358617747369430e-01 0.0000000000000000e+00 0.0000000000000000e+00  0.0000000000000000e+00 0.0000000000000000e+00 0.0000000000000000e+00  0.0000000000000000e+00 0.0000000000000000e+00 0.0000000000000000e+00  0.0000000000000000e+00 0.0000000000000000e+00 0.0000000000000000e+00  0.0000000000000000e+00 0.0000000000000000e+00 0.0000000000000000e+00  0.0000000000000000e+00 0.0000000000000000e+00 0.0000000000000000e+00  0.0000000000000000e+00 0.0000000000000000e+00 0.0000000000000000e+00  0.0000000000000000e+00 0.0000000000000000e+00 0.0000000000000000e+00  0.0000000000000000e+00 0.0000000000000000e+00 0.0000000000000000e+00  0.0000000000000000e+00 0.0000000000000000e+00 0.0000000000000000e+00  0.0000000000000000e+00 0.0000000000000000e+00 0.0000000000000000e+00  0.0000000000000000e+00 0.0000000000000000e+00 0.0000000000000000e+00  0.0000000000000000e+00 0.0000000000000000e+00 0.0000000000000000e+00  0.0000000000000000e+00 0.0000000000000000e+00 0.0000000000000000e+00  0.0000000000000000e+00 0.0000000000000000e+00 0.0000000000000000e+00  0.0000000000000000e+00 0.0000000000000000e+00 0.0000000000000000e+00  0.0000000000000000e+00 0.0000000000000000e+00 0.0000000000000000e+00  0.0000000000000000e+00 0.0000000000000000e+00 0.0000000000000000e+00  0.0000000000000000e+00 0.0000000000000000e+00 0.0000000000000000e+00  0.0000000000000000e+00 0.0000000000000000e+00 0.0000000000000000e+00  0.0000000000000000e+00 0.0000000000000000e+00 0.0000000000000000e+00  0.0000000000000000e+00 0.0000000000000000e+00 0.0000000000000000e+00  0.0000000000000000e+00 0.0000000000000000e+00 0.0000000000000000e+00  0.0000000000000000e+00 0.0000000000000000e+00 0.0000000000000000e+00  0.0000000000000000e+00 0.0000000000000000e+00 0.0000000000000000e+00  0.0000000000000000e+00 0.0000000000000000e+00 0.0000000000000000e+00  0.0000000000000000e+00 0.0000000000000000e+00 0.0000000000000000e+00  0.0000000000000000e+00 0.0000000000000000e+00 0.0000000000000000e+00  0.0000000000000000e+00 0.0000000000000000e+00 0.0000000000000000e+00  0.0000000000000000e+00 0.0000000000000000e+00 0.0000000000000000e+00  0.0000000000000000e+00 0.0000000000000000e+00 0.0000000000000000e+00  0.0000000000000000e+00 0.0000000000000000e+00 0.0000000000000000e+00  0.0000000000000000e+00 0.0000000000000000e+00 0.0000000000000000e+00  0.0000000000000000e+00 0.0000000000000000e+00 0.0000000000000000e+00  0.0000000000000000e+00 0.0000000000000000e+00 0.0000000000000000e+00  0.0000000000000000e+00 0.0000000000000000e+00 0.0000000000000000e+00  0.0000000000000000e+00 0.0000000000000000e+00 0.0000000000000000e+00  0.0000000000000000e+00 0.0000000000000000e+00 0.0000000000000000e+00  0.0000000000000000e+00 0.0000000000000000e+00 0.0000000000000000e+00  2.6092595342853255e+00 -1.1655015247007322e-02 0.0000000000000000e+00  2.4958482429984192e+00 1.0862807988016414e-02 0.0000000000000000e+00  2.5922774593303650e+00 6.9028985513085492e-02 0.0000000000000000e+00  0.0000000000000000e+00 0.0000000000000000e+00 0.0000000000000000e+00  0.0000000000000000e+00 0.0000000000000000e+00 0.0000000000000000e+00  0.0000000000000000e+00 0.0000000000000000e+00 0.0000000000000000e+00  0.0000000000000000e+00 0.0000000000000000e+00 0.0000000000000000e+00  0.0000000000000000e+00 0.0000000000000000e+00 0.0000000000000000e+00  0.0000000000000000e+00 0.0000000000000000e+00 0.0000000000000000e+00  0.0000000000000000e+00 0.0000000000000000e+00 0.0000000000000000e+00  0.0000000000000000e+00 0.0000000000000000e+00 0.0000000000000000e+00  0.0000000000000000e+00 0.0000000000000000e+00 0.0000000000000000e+00  0.0000000000000000e+00 0.0000000000000000e+00 0.0000000000000000e+00  0.0000000000000000e+00 0.0000000000000000e+00 0.0000000000000000e+00  0.0000000000000000e+00 0.0000000000000000e+00 0.0000000000000000e+00  0.0000000000000000e+00 0.0000000000000000e+00 0.0000000000000000e+00  0.0000000000000000e+00 0.0000000000000000e+00 0.0000000000000000e+00  0.0000000000000000e+00 0.0000000000000000e+00 0.0000000000000000e+00  0.0000000000000000e+00 0.0000000000000000e+00 0.0000000000000000e+00  0.0000000000000000e+00 0.0000000000000000e+00 0.0000000000000000e+00  0.0000000000000000e+00 0.0000000000000000e+00 0.0000000000000000e+00  0.0000000000000000e+00 0.0000000000000000e+00 0.0000000000000000e+00  0.0000000000000000e+00 0.0000000000000000e+00 0.0000000000000000e+00  0.0000000000000000e+00 0.0000000000000000e+00 0.0000000000000000e+00  0.0000000000000000e+00 0.0000000000000000e+00 0.0000000000000000e+00  0.0000000000000000e+00 0.0000000000000000e+00 0.0000000000000000e+00  0.0000000000000000e+00 0.0000000000000000e+00 0.0000000000000000e+00  0.0000000000000000e+00 0.0000000000000000e+00 0.0000000000000000e+00  0.0000000000000000e+00 0.0000000000000000e+00 0.0000000000000000e+00  0.0000000000000000e+00 0.0000000000000000e+00 0.0000000000000000e+00  0.0000000000000000e+00 0.0000000000000000e+00 0.0000000000000000e+00  0.0000000000000000e+00 0.0000000000000000e+00 0.0000000000000000e+00  0.0000000000000000e+00 0.0000000000000000e+00 0.0000000000000000e+00  0.0000000000000000e+00 0.0000000000000000e+00 0.0000000000000000e+00  0.0000000000000000e+00 0.0000000000000000e+00 0.0000000000000000e+00  0.0000000000000000e+00 0.0000000000000000e+00 0.0000000000000000e+00  0.0000000000000000e+00 0.0000000000000000e+00 0.0000000000000000e+00  0.0000000000000000e+00 0.0000000000000000e+00 0.0000000000000000e+00  0.0000000000000000e+00 0.0000000000000000e+00 0.0000000000000000e+00  0.0000000000000000e+00 0.0000000000000000e+00 0.0000000000000000e+00  0.0000000000000000e+00 0.0000000000000000e+00 0.0000000000000000e+00  0.0000000000000000e+00 0.0000000000000000e+00 0.0000000000000000e+00  0.0000000000000000e+00 0.0000000000000000e+00 0.0000000000000000e+00  0.0000000000000000e+00 0.0000000000000000e+00 0.0000000000000000e+00  0.0000000000000000e+00 0.0000000000000000e+00 0.0000000000000000e+00  0.0000000000000000e+00 0.0000000000000000e+00 0.0000000000000000e+00  0.0000000000000000e+00 0.0000000000000000e+00 0.0000000000000000e+00  0.0000000000000000e+00 0.0000000000000000e+00 0.0000000000000000e+00  0.0000000000000000e+00 0.0000000000000000e+00 0.0000000000000000e+00  0.0000000000000000e+00 0.0000000000000000e+00 0.0000000000000000e+00  0.0000000000000000e+00 0.0000000000000000e+00 0.0000000000000000e+00  0.0000000000000000e+00 0.0000000000000000e+00 0.0000000000000000e+00  0.0000000000000000e+00 0.0000000000000000e+00 0.0000000000000000e+00  0.0000000000000000e+00 0.0000000000000000e+00 0.0000000000000000e+00  0.0000000000000000e+00 0.0000000000000000e+00 0.0000000000000000e+00  0.0000000000000000e+00 0.0000000000000000e+00 0.0000000000000000e+00  0.0000000000000000e+00 0.0000000000000000e+00 0.0000000000000000e+00  0.0000000000000000e+00 0.0000000000000000e+00 0.0000000000000000e+00  0.0000000000000000e+00 0.0000000000000000e+00 0.0000000000000000e+00  0.0000000000000000e+00 0.0000000000000000e+00 0.0000000000000000e+00  0.0000000000000000e+00 0.0000000000000000e+00 0.0000000000000000e+00  0.0000000000000000e+00 0.0000000000000000e+00 0.0000000000000000e+00  0.0000000000000000e+00 0.0000000000000000e+00 0.0000000000000000e+00  0.0000000000000000e+00 0.0000000000000000e+00 0.0000000000000000e+00  0.0000000000000000e+00 0.0000000000000000e+00 0.0000000000000000e+00  0.0000000000000000e+00 0.0000000000000000e+00 0.0000000000000000e+00  0.0000000000000000e+00 0.0000000000000000e+00 0.0000000000000000e+00  0.0000000000000000e+00 0.0000000000000000e+00 0.0000000000000000e+00  0.0000000000000000e+00 0.0000000000000000e+00 0.0000000000000000e+00  0.0000000000000000e+00 0.0000000000000000e+00 0.0000000000000000e+00  0.0000000000000000e+00 0.0000000000000000e+00 0.0000000000000000e+00  0.0000000000000000e+00 0.0000000000000000e+00 0.0000000000000000e+00  0.0000000000000000e+00 0.0000000000000000e+00 0.0000000000000000e+00  0.0000000000000000e+00 0.0000000000000000e+00 0.0000000000000000e+00  0.0000000000000000e+00 0.0000000000000000e+00 0.0000000000000000e+00  0.0000000000000000e+00 0.0000000000000000e+00 0.0000000000000000e+00  0.0000000000000000e+00 0.0000000000000000e+00 0.0000000000000000e+00  0.0000000000000000e+00 0.0000000000000000e+00 0.0000000000000000e+00  0.0000000000000000e+00 0.0000000000000000e+00 0.0000000000000000e+00  0.0000000000000000e+00 0.0000000000000000e+00 0.0000000000000000e+00  0.0000000000000000e+00 0.0000000000000000e+00 0.0000000000000000e+00  -3.2495808284520502e-06 7.5517961532800640e-06 0.0000000000000000e+00  -7.3491349228914716e-06 1.2696541894475557e-05 0.0000000000000000e+00  -1.1232795236891314e-05 2.1119648981889010e-05 0.0000000000000000e+00  -1.5801755083633250e-05 3.3112089301515798e-05 0.0000000000000000e+00  -1.9691657710160377e-05 4.8454930951923122e-05 0.0000000000000000e+00  -2.4374458473269963e-05 6.7505674946452676e-05 0.0000000000000000e+00  -2.8122332023937311e-05 8.9413320849042870e-05 0.0000000000000000e+00  -3.1865099677873642e-05 1.1515677740661779e-04 0.0000000000000000e+00  -3.6394341863290657e-05 1.4388493273418212e-04 0.0000000000000000e+00  -3.9800399254816787e-05 1.7584235163379627e-04 0.0000000000000000e+00  -4.4223593756638447e-05 2.1100240587561497e-04 0.0000000000000000e+00  -4.7470510250830863e-05 2.4924495076213317e-04 0.0000000000000000e+00  -5.1524366776853169e-05 2.9048821101720017e-04 0.0000000000000000e+00  -5.4673532416713476e-05 3.3424081884109944e-04 0.0000000000000000e+00  -5.7757351349058953e-05 3.8113250155343025e-04 0.0000000000000000e+00  -6.1391870612053813e-05 4.3042664428048836e-04 0.0000000000000000e+00  -6.4048747758467566e-05 4.8225106039102210e-04 0.0000000000000000e+00  -6.7379756340517187e-05 5.3654645114747327e-04 0.0000000000000000e+00  -6.9735413015375097e-05 5.9309871397046469e-04 0.0000000000000000e+00  -7.2627411980039528e-05 6.5176507386789802e-04 0.0000000000000000e+00  -7.4807303101996617e-05 7.1250386654976767e-04 0.0000000000000000e+00  -7.7268130965297736e-05 7.7523685396478582e-04 0.0000000000000000e+00  -7.9108119151995361e-05 8.3945685121755795e-04 0.0000000000000000e+00  -8.0813661943155332e-05 9.0558921508730955e-04 0.0000000000000000e+00  -8.2719067256941314e-05 9.7301965337963457e-04 0.0000000000000000e+00  -8.4159386075322663e-05 1.0419751794851521e-03 0.0000000000000000e+00  -8.5554693682673492e-05 1.1122605098176049e-03 0.0000000000000000e+00  -8.6658414319003621e-05 1.1836442164475417e-03 0.0000000000000000e+00  -8.7689743236171372e-05 1.2561776420613134e-03 0.0000000000000000e+00  -8.8456132529065896e-05 1.3295882127442890e-03 0.0000000000000000e+00  -8.9133872295118016e-05 1.4039303845631702e-03 0.0000000000000000e+00  -8.9569642384724999e-05 1.4789371643651047e-03 0.0000000000000000e+00  -8.9905917164239847e-05 1.5546681994716227e-03 0.0000000000000000e+00  -9.0026552615445938e-05 1.6308710404531576e-03 0.0000000000000000e+00  -9.0037439349672940e-05 1.7076154288570974e-03 0.0000000000000000e+00  -8.9864004231220048e-05 1.7846696458996914e-03 0.0000000000000000e+00  -8.9585528275304554e-05 1.8621029405015118e-03 0.0000000000000000e+00  -8.9151496095039723e-05 1.9397187571999826e-03 0.0000000000000000e+00  -8.8616891881727848e-05 2.0175871887064770e-03 0.0000000000000000e+00  -8.7950647463781465e-05 2.0955400453220867e-03 0.0000000000000000e+00  -8.7186486535073435e-05 2.1736423155589014e-03 0.0000000000000000e+00  -8.6323639679579685e-05 2.2517788890745339e-03 0.0000000000000000e+00  -8.5360594021322822e-05 2.3299818323673843e-03 0.0000000000000000e+00  -8.4350379408818277e-05 2.4082008061627690e-03 0.0000000000000000e+00  -8.3238766774172766e-05 2.4864143473467158e-03 0.0000000000000000e+00  -8.2086599016761378e-05 2.5646893256024423e-03 0.0000000000000000e+00  -2.8191871197492797e-05 2.6420144412441018e-03 0.0000000000000000e+00  7.6704603141589600e-05 2.6396812920784084e-03 0.0000000000000000e+00  1.2771175009830232e-04 2.5602959065889751e-03 0.0000000000000000e+00  1.2651597434151286e-04 2.4818796257608847e-03 0.0000000000000000e+00  1.2535143771533148e-04 2.4034509768681355e-03 0.0000000000000000e+00  1.2423532358207928e-04 2.3250724019235037e-03 0.0000000000000000e+00  1.2314872124544196e-04 2.2467173696316847e-03 0.0000000000000000e+00  1.2210742854173751e-04 2.1684244656430081e-03 0.0000000000000000e+00  1.2105346103799644e-04 2.0902042207991936e-03 0.0000000000000000e+00  1.2005043181755177e-04 2.0120830639341843e-03 0.0000000000000000e+00  1.1898610921147487e-04 1.9341236523808265e-03 0.0000000000000000e+00  1.1797783293680999e-04 1.8563447048811734e-03 0.0000000000000000e+00  1.1684739754900763e-04 1.7788241412345256e-03 0.0000000000000000e+00  1.1578841750856538e-04 1.7016124863023885e-03 0.0000000000000000e+00  1.1453408251485054e-04 1.6247861118085603e-03 0.0000000000000000e+00  1.1337793267711446e-04 1.5484299605780319e-03 0.0000000000000000e+00  1.1194591226189176e-04 1.4726197508426416e-03 0.0000000000000000e+00  1.1065272066584958e-04 1.3974680292642453e-03 0.0000000000000000e+00  1.0899867176230476e-04 1.3230479538413650e-03 0.0000000000000000e+00  1.0753501059365613e-04 1.2494947920455835e-03 0.0000000000000000e+00  1.0562203581393237e-04 1.1768794165440074e-03 0.0000000000000000e+00  1.0396135044018161e-04 1.1053505860243850e-03 0.0000000000000000e+00  1.0174980211068047e-04 1.0349836462543243e-03 0.0000000000000000e+00  9.9854854528926118e-05 9.6594211587309748e-04 0.0000000000000000e+00  9.7358166782329753e-05 8.9831716234396242e-04 0.0000000000000000e+00  9.5122830769529547e-05 8.3209406678016009e-04 0.0000000000000000e+00  9.2777491521349524e-05 7.6778215706021298e-04 0.0000000000000000e+00  8.9875698687317328e-05 7.0488220245201565e-04 0.0000000000000000e+00  8.7134257909655773e-05 6.4409705077947388e-04 0.0000000000000000e+00  8.3988877066277389e-05 5.8522418188521942e-04 0.0000000000000000e+00  8.0914022402244995e-05 5.2858970717052796e-04 0.0000000000000000e+00  7.7452459416358407e-05 4.7417154951492115e-04 0.0000000000000000e+00  7.4064622860955657e-05 4.2212362853971832e-04 0.0000000000000000e+00  7.0020545457781004e-05 3.7286439946859935e-04 0.0000000000000000e+00  6.6457934571535263e-05 3.2581399944692918e-04 0.0000000000000000e+00  6.2790627447410110e-05 2.8198411318750531e-04 0.0000000000000000e+00  5.8335359839479655e-05 2.4042478786014015e-04 0.0000000000000000e+00  5.4186449238516855e-05 2.0217208517737324e-04 0.0000000000000000e+00  4.9603581036998150e-05 1.6687933711776229e-04 0.0000000000000000e+00  4.5226261902601796e-05 1.3467986490521113e-04 0.0000000000000000e+00  4.0129979174342670e-05 1.0603125319987779e-04 0.0000000000000000e+00  3.5707746724046483e-05 8.0133351006663893e-05 0.0000000000000000e+00  3.1257829631915788e-05 5.8142514566727525e-05 0.0000000000000000e+00  2.5927239135837398e-05 3.8900419514926680e-05 0.0000000000000000e+00  2.1157180402277217e-05 2.3378080612521868e-05 0.0000000000000000e+00  1.5697654226279385e-05 1.1428596038619791e-05 0.0000000000000000e+00  1.0784265594009154e-05 3.1244689081536617e-06 0.0000000000000000e+00  5.0905079728022032e-06 -1.3959727639882571e-06 0.0000000000000000e+00  2.1807290436891118e-06 3.0392763816476961e-06 0.0000000000000000e+00  2.1040470661876472e-05 2.5231540691126541e-03 0.0000000000000000e+00  1.7965527433297837e-05 2.3734696488464358e-03 0.0000000000000000e+00  1.5842584252432714e-05 2.1291047307201829e-03 0.0000000000000000e+00  2.5449210139600283e-06 1.9535689512279828e-05 0.0000000000000000e+00  1.5367389929820075e-05 1.9757331675139289e-03 0.0000000000000000e+00  3.5725113201037019e-06 4.8897872535636119e-05 0.0000000000000000e+00  1.3891772544022643e-05 1.8202539031943953e-03 0.0000000000000000e+00  4.8830727098161254e-06 1.2351575359651620e-04 0.0000000000000000e+00  4.9745033043907140e-06 1.8660617677227230e-04 0.0000000000000000e+00  1.2610938079073021e-05 1.6658791533094681e-03 0.0000000000000000e+00  7.1976490969714516e-06 4.0163081238580586e-04 0.0000000000000000e+00  1.0558996104903671e-05 1.3628819226054827e-03 0.0000000000000000e+00  6.2277768318731879e-06 2.5980504233749001e-04 0.0000000000000000e+00  6.7592465072149285e-06 5.0358717554122381e-04 0.0000000000000000e+00  9.7448359357727226e-06 1.2157588826407519e-03 0.0000000000000000e+00  1.1506848578077026e-05 1.5131875258918583e-03 0.0000000000000000e+00  7.2069659043202299e-06 6.1691462573122853e-04 0.0000000000000000e+00  9.0524770825973884e-06 1.0726836767452567e-03 0.0000000000000000e+00  8.7430053983166686e-06 7.3348751195299129e-04 0.0000000000000000e+00  7.3042822921377049e-06 9.3739430192237309e-04 0.0000000000000000e+00  8.0532246275260717e-06 8.2963316307612398e-04 0.0000000000000000e+00  5.8013969466151236e-06 3.2476944685629858e-04 0.0000000000000000e+00  1.8768233211588381e-05 2.2560623502256914e-03 0.0000000000000000e+00  3.8358927018914307e-06 8.1237303191556966e-05 0.0000000000000000e+00  5.6274436207303653e-05 2.4469677016030647e-03 0.0000000000000000e+00  6.3450212036582667e-06 7.9545492783454862e-06 0.0000000000000000e+00  4.4822650523429136e-05 1.8970839118311014e-03 0.0000000000000000e+00  4.6544948562379740e-05 2.0529674639741874e-03 0.0000000000000000e+00  -4.3353089759764688e-06 3.5184899614806979e-05 0.0000000000000000e+00  -7.8146639721720181e-06 1.5449078590507200e-04 0.0000000000000000e+00  4.0180382902712824e-05 1.4368244709681535e-03 0.0000000000000000e+00  4.3214375876210335e-05 1.7420687064138227e-03 0.0000000000000000e+00  -1.3631810477370288e-05 4.5176140342017375e-04 0.0000000000000000e+00  3.8673698256549207e-05 1.2879912075805867e-03 0.0000000000000000e+00  -9.5118092467840510e-06 2.2494400359812772e-04 0.0000000000000000e+00  -1.4950002734595410e-05 5.6049925858492106e-04 0.0000000000000000e+00  3.7128943814148771e-05 1.1427661695386511e-03 0.0000000000000000e+00  4.1680838384964623e-05 1.5884338219897809e-03 0.0000000000000000e+00  -2.1275415734081613e-05 6.7766936552220896e-04 0.0000000000000000e+00  3.5537622572135211e-05 1.0020349947743401e-03 0.0000000000000000e+00  8.4212327234050702e-07 1.5593663794445720e-06 0.0000000000000000e+00  2.2213413197262468e-06 -5.2978987372100069e-07 0.0000000000000000e+00  -2.1084575361675697e-06 2.5852849673044199e-03 0.0000000000000000e+00  -2.3136482817064067e-06 1.1810491347712316e-05 0.0000000000000000e+00  4.0089461605252376e-05 8.8137207575906867e-04 0.0000000000000000e+00  2.8860066251903735e