<?xml version="1.0"?>
<VTKFile type="UnstructuredGrid"  version="0.1"  >
<UnstructuredGrid>
<Piece  NumberOfPoints="1419" NumberOfCells="2698">
<Points>
<DataArray  type="Float64"  NumberOfComponents="3"  format="ascii">0 0 0  0 0.41 0  2.5 0 0  2.5 0.41 0  0.6 0.19 0  0.6 0.21 0  0.25 0.2 0  0.15 0.2 0  0.2489897948556636 0.21 0  0.2489897948556636 0.19 0  0.6 0.2 0  0 0.3807142857143437 0  0 0.3514285714286952 0  0 0.3221428571430699 0  0 0.29285714285744 0  0 0.2635714285718054 0  0 0.2342857142861561 0  0 0.2050000000005308 0  0 0.175714285714732 0  0 0.1464285714289574 0  0 0.1171428571431897 0  0 0.08785714285737878 0  0 0.05857142857161107 0  0 0.02928571428580012 0  0.03015443760436003 0 0  0.06140001986583606 0 0  0.09377624077125973 0 0  0.1273239957535082 0 0  0.1620856860351972 0 0  0.1981052433264291 0 0  0.235428184091502 0 0  0.2741016576309132 0 0  0.3141745521465447 0 0  0.3556974926295285 0 0  0.3987229542472677 0 0  0.4433053055141081 0 0  0.4895008759286886 0 0  0.5373680609405097 0 0  0.5869673343216626 0 0  0.6383613676634521 0 0  0.6916151138468254 0 0  0.7467958595648856 0 0  0.8039733463919316 0 0  0.8632198139502143 0 0  0.9246101326867038 0 0  0.9882218810934433 0 0  1.054135445558498 0 0  1.122434100542598 0 0  1.193204177141305 0 0  1.266535089879536 0 0  1.342519516046404 0 0  1.421253448503939 0 0  1.502836389106271 0 0  1.587371439758838 0 0  1.674965418777374 0 0  1.765729001825544 0 0  1.859776908880082 0 0  1.957227977487062 0 0  2.058205329869943 0 0  2.162836591189951 0 0  2.271253957290865 0 0  2.383594446803425 0 0  2.5 0.1024999999997612 0  2.5 0.2049999999994743 0  2.5 0.3074999999997183 0  2.383594446803656 0.41 0  2.271253957291315 0.41 0  2.162836591190598 0.41 0  2.058205329870775 0.41 0  1.957227977488067 0.41 0  1.859776908881246 0.41 0  1.765729001826854 0.41 0  1.674965418778818 0.41 0  1.58737143976041 0.41 0  1.502836389107956 0.41 0  1.421253448505726 0.41 0  1.342519516048286 0.41 0  1.266535089881505 0.41 0  1.193204177143353 0.41 0  1.122434100544716 0.41 0  1.05413544556068 0.41 0  0.9882218810956305 0.41 0  0.9246101326886647 0.41 0  0.8632198139519631 0.41 0  0.8039733463934788 0.41 0  0.7467958595662458 0.41 0  0.6916151138480078 0.41 0  0.6383613676644679 0.41 0  0.5869673343225223 0.41 0  0.5373680609412221 0.41 0  0.4895008759292634 0.41 0  0.4433053055145528 0.41 0  0.3987229542475914 0.41 0  0.3556974926297398 0.41 0  0.3141745521466497 0.41 0  0.2741016576310038 0.41 0  0.2354281840915826 0.41 0  0.1981052433265003 0.41 0  0.1620856860352591 0.41 0  0.1273239957535623 0.41 0  0.09377624077128965 0.41 0  0.06140001986584975 0.41 0  0.03015443760436654 0.41 0  0.2497468076502589 0.2050254481002335 0  0.2497468076502614 0.1949745518997913 0  0.2469965252529372 0.1829317073451959 0  0.2439893735792749 0.1762316384219906 0  0.2400332147834255 0.1700443375285386 0  0.2352133972704371 0.1645032867342007 0  0.2296339016332438 0.1597280261969788 0  0.2234150974217223 0.1558215752574715 0  0.2166911463437691 0.1528682099456123 0  0.2096071079204251 0.1509316448471593 0  0.2023158100364996 0.1500536585536553 0  0.194974551899914 0.1502531923497262 0  0.1877417105387872 0.1515259415822739 0  0.1807733240461124 0.153844448527136 0  0.1742197252835808 0.15715869474974 0  0.1682222986673531 0.1613971801805478 0  0.162910430003803 0.1664684656256651 0  0.1583987151779087 0.1722631454351573 0  0.1547844879126891 0.178656207771761 0  0.1521457199348551 0.1855097315605723 0  0.1505393388476355 0.1926758619366523 0  0.1505393388476328 0.2073241380633295 0  0.1521457199348437 0.2144902684393899 0  0.1547844879126531 0.221343792228163 0  0.1583987151778488 0.2277368545647528 0  0.1629104300036858 0.2335315343742052 0  0.1682222986671726 0.2386028198193036 0  0.1742197252833576 0.2428413052501257 0  0.1807733240458683 0.2461555514727623 0  0.1877417105384929 0.2484740584176516 0  0.1949745518995776 0.2497468076502398 0  0.202315810036185 0.2499463414463592 0  0.2096071079201568 0.2490683551528932 0  0.2166911463435495 0.2471317900544655 0  0.2234150974215506 0.2441784247426195 0  0.2296339016331197 0.2402719738031125 0  0.2352133972703547 0.2354967132658811 0  0.2400332147833751 0.2299556624715287 0  0.2439893735792577 0.2237683615780412 0  0.246996525252926 0.2170682926548348 0  0.25645809709277 0.21 0  0.2639263993298655 0.21 0  0.271394701566961 0.21 0  0.2788630038040554 0.21 0  0.2863313060411479 0.21 0  0.2937996082782405 0.21 0  0.301267910515333 0.21 0  0.3087362127524279 0.21 0  0.3162045149895234 0.21 0  0.3236728172265972 0.21 0  0.3311411194636928 0.21 0  0.3386094217007701 0.21 0  0.3460777239378666 0.21 0  0.3535460261749672 0.21 0  0.3610143284120516 0.21 0  0.3684826306491596 0.21 0  0.3759509328862226 0.21 0  0.383419235123329 0.21 0  0.3908875373604028 0.21 0  0.3983558395975142 0.21 0  0.4058241418345938 0.21 0  0.4132924440716992 0.21 0  0.4207607463087888 0.21 0  0.4282290485459029 0.21 0  0.4356973507830418 0.21 0  0.4431656530201649 0.21 0  0.4506339552573136 0.21 0  0.4581022574944306 0.21 0  0.4655705597315852 0.21 0  0.4730388619686996 0.21 0  0.480507164205851 0.21 0  0.4879754664429498 0.21 0  0.4954437686800938 0.21 0  0.502912070917267 0.21 0  0.5103803731544119 0.21 0  0.5178486753915261 0.21 0  0.5253169776286404 0.21 0  0.5327852798657868 0.21 0  0.5402535821029386 0.21 0  0.54772188434007 0.21 0  0.5551901865771842 0.21 0  0.5626584888143201 0.21 0  0.5701267910514778 0.21 0  0.5775950932886138 0.21 0  0.5850633955257281 0.21 0  0.5925316977628483 0.21 0  0.6 0.2050000000000054 0  0.6 0.1950000000000217 0  0.5925316977628897 0.19 0  0.5850633955257988 0.19 0  0.5775950932887378 0.19 0  0.5701267910515998 0.19 0  0.5626584888145268 0.19 0  0.5551901865773963 0.19 0  0.547721884340339 0.19 0  0.5402535821032429 0.19 0  0.5327852798661811 0.19 0  0.5253169776290537 0.19 0  0.5178486753919799 0.19 0  0.5103803731549078 0.19 0  0.502912070917822 0.19 0  0.4954437686807294 0.19 0  0.4879754664436223 0.19 0  0.4805071642065402 0.19 0  0.4730388619694271 0.19 0  0.4655705597323621 0.19 0  0.4581022574952563 0.19 0  0.4506339552581777 0.19 0  0.4431656530210671 0.19 0  0.4356973507839815 0.19 0  0.4282290485468779 0.19 0  0.4207607463097617 0.19 0  0.4132924440726327 0.19 0  0.4058241418354857 0.19 0  0.3983558395983636 0.19 0  0.3908875373612097 0.19 0  0.3834192351240934 0.19 0  0.3759509328869369 0.19 0  0.3684826306498175 0.19 0  0.361014328412667 0.19 0  0.3535460261755617 0.19 0  0.3460777239384295 0.19 0  0.3386094217012945 0.19 0  0.3311411194641595 0.19 0  0.3236728172270245 0.19 0  0.3162045149898895 0.19 0  0.3087362127527544 0.19 0  0.3012679105156187 0.19 0  0.2937996082784807 0.19 0  0.2863313060413428 0.19 0  0.2788630038042048 0.19 0  0.2713947015670686 0.19 0  0.2639263993299336 0.19 0  0.2564580970927985 0.19 0  0.2607803159922026 0.2000727136295815 0  0.5887803774232762 0.2001272386983733 0  0.5745072403740523 0.2002044435018727 0  0.5511891430099709 0.2001122610077113 0  0.2751288526855082 0.20000000000002 0  0.5365194309847112 0.1999999999999436 0  0.2894621222999649 0.1998691686390484 0  0.5215828265105155 0.1999999999999228 0  0.3127789816668748 0.1998657885438805 0  0.3274069683451451 0.2000000000000796 0  0.5066462220363641 0.199999999999908 0  0.3650630746574081 0.199866017807523 0  0.476773013087985 0.1999999999998713 0  0.3417402379596385 0.1998691686391011 0  0.3796850840047755 0.200000000000134 0  0.4618364086138087 0.1999999999998546 0  0.4917096175621762 0.1999999999998808 0  0.3946216884789568 0.2000000000001512 0  0.446899804139621 0.1999999999998389 0  0.4089549580935208 0.1998691686391595 0  0.4322718174608562 0.200127451265745 0  0.4201487168029707 0.1999966199048527 0  0.3528922713220932 0.2000185703532356 0  0.5633122436674589 0.1999814296467508 0  0.3006558810093873 0.1999966199048318 0  0.5815926498168407 0.1966545283159175 0  0.2677053789419034 0.1964246479135325 0  0.5290511287476175 0.1970915826863981 0  0.5439877332217911 0.197091582686394 0  0.2825131256993216 0.2035478995978015 0  0.3199386661080599 0.202908417313604 0  0.4842413153250809 0.1970915826863873 0  0.5141145242734466 0.1970915826863843 0  0.3722167817676917 0.2029084173136195 0  0.4693047108508938 0.1970915826863783 0  0.3348752705822316 0.202908417313609 0  0.3871533862418661 0.2029084173136212 0  0.4543681063767183 0.1970915826863795 0  0.4991779197992749 0.1970915826863902 0  0.4020059614928624 0.203547899597858 0  0.4394315019025246 0.1970915826863714 0  0.2550657455369551 0.2034088125358657 0  0.2548908499171161 0.1966940311614271 0  0.5946539510196798 0.2024302972968126 0  0.267698176732111 0.2039977513680092 0  0.4261685417851465 0.196409292431739 0  0.3590076176283495 0.196411355804271 0  0.5571672426447437 0.2036011176410121 0  0.3066757059912147 0.1964092924317024 0  0.594380730180568 0.1966558399668133 0  0.4842413153245942 0.2040749161535287 0  0.4693047108503577 0.2040749161535231 0  0.3871533862424271 0.1959250838464788 0  0.372246743208829 0.1959123236376545 0  0.5141145242731028 0.2040749161535395 0  0.4543681063761134 0.2040749161535186 0  0.4019979587101454 0.1959834479682427 0  0.4394608940728603 0.2040870543693135 0  0.5439623148931173 0.2040856076781014 0  0.5290511287473298 0.2040749161535501 0  0.4991779197988497 0.2040749161535382 0  0.3347912413592433 0.1959225448935183 0  0.3199680582793816 0.1959123018030061 0  0.2825051229162361 0.1959834479681729 0  0.3590471196690275 0.2036304442587945 0  0.5571594006495384 0.1963685282145804 0  0.3067669986803285 0.203627750582736 0  0.4262598344738712 0.2036568242185335 0  0.5814408164431408 0.2041285596160068 0  0.5688286748170428 0.1961819304477386 0  0.4145905603063645 0.2038180695522843 0  0.3473758401724931 0.2038180695522752 0  0.2950977245128307 0.2038180695522663 0  0.5688286748170693 0.203818069552238 0  0.2950977245127906 0.1961819304477774 0  0.3473758401723931 0.1961819304478349 0  0.4145905603061963 0.1961819304479011 0  0.2601812407614425 0.2056861609747042
[...]
<PointData  Vectors="f_40-0"> 
<DataArray  type="Float64"  Name="f_40-0"  NumberOfComponents="3" format="ascii">0.0000000000000000e+00 0.0000000000000000e+00 0.0000000000000000e+00  0.0000000000000000e+00 0.0000000000000000e+00 0.0000000000000000e+00  0.0000000000000000e+00 0.0000000000000000e+00 0.0000000000000000e+00  0.0000000000000000e+00 0.0000000000000000e+00 0.0000000000000000e+00  1.5826993392182003e-04 5.9363727199861121e-03 0.0000000000000000e+00  -2.7190341015058021e-04 5.9405139736382314e-03 0.0000000000000000e+00  0.0000000000000000e+00 0.0000000000000000e+00 0.0000000000000000e+00  0.0000000000000000e+00 0.0000000000000000e+00 0.0000000000000000e+00  0.0000000000000000e+00 0.0000000000000000e+00 0.0000000000000000e+00  0.0000000000000000e+00 0.0000000000000000e+00 0.0000000000000000e+00  -5.6331642440612895e-05 5.9384001724460183e-03 0.0000000000000000e+00  5.6632653383581022e-01 0.0000000000000000e+00 0.0000000000000000e+00  1.0455259086200266e+00 0.0000000000000000e+00 0.0000000000000000e+00  1.4375981243525369e+00 0.0000000000000000e+00 0.0000000000000000e+00  1.7425431810337944e+00 0.0000000000000000e+00 0.0000000000000000e+00  1.9603610786637606e+00 0.0000000000000000e+00 0.0000000000000000e+00  2.0910518172424215e+00 0.0000000000000000e+00 0.0000000000000000e+00  2.1346153967696475e+00 0.0000000000000000e+00 0.0000000000000000e+00  2.0910518172450643e+00 0.0000000000000000e+00 0.0000000000000000e+00  1.9603610786682992e+00 0.0000000000000000e+00 0.0000000000000000e+00  1.7425431810394156e+00 0.0000000000000000e+00 0.0000000000000000e+00  1.4375981243578764e+00 0.0000000000000000e+00 0.0000000000000000e+00  1.0455259086245829e+00 0.0000000000000000e+00 0.0000000000000000e+00  5.6632653383837750e-01 0.0000000000000000e+00 0.0000000000000000e+00  0.0000000000000000e+00 0.0000000000000000e+00 0.0000000000000000e+00  0.0000000000000000e+00 0.0000000000000000e+00 0.0000000000000000e+00  0.0000000000000000e+00 0.0000000000000000e+00 0.0000000000000000e+00  0.0000000000000000e+00 0.0000000000000000e+00 0.0000000000000000e+00  0.0000000000000000e+00 0.0000000000000000e+00 0.0000000000000000e+00  0.0000000000000000e+00 0.0000000000000000e+00 0.0000000000000000e+00  0.0000000000000000e+00 0.0000000000000000e+00 0.0000000000000000e+00  0.0000000000000000e+00 0.0000000000000000e+00 0.0000000000000000e+00  0.0000000000000000e+00 0.0000000000000000e+00 0.0000000000000000e+00  0.0000000000000000e+00 0.0000000000000000e+00 0.0000000000000000e+00  0.0000000000000000e+00 0.0000000000000000e+00 0.0000000000000000e+00  0.0000000000000000e+00 0.0000000000000000e+00 0.0000000000000000e+00  0.0000000000000000e+00 0.0000000000000000e+00 0.0000000000000000e+00  0.0000000000000000e+00 0.0000000000000000e+00 0.0000000000000000e+00  0.0000000000000000e+00 0.0000000000000000e+00 0.0000000000000000e+00  0.0000000000000000e+00 0.0000000000000000e+00 0.0000000000000000e+00  0.0000000000000000e+00 0.0000000000000000e+00 0.0000000000000000e+00  0.0000000000000000e+00 0.0000000000000000e+00 0.0000000000000000e+00  0.0000000000000000e+00 0.0000000000000000e+00 0.0000000000000000e+00  0.0000000000000000e+00 0.0000000000000000e+00 0.0000000000000000e+00  0.0000000000000000e+00 0.0000000000000000e+00 0.0000000000000000e+00  0.0000000000000000e+00 0.0000000000000000e+00 0.0000000000000000e+00  0.0000000000000000e+00 0.0000000000000000e+00 0.0000000000000000e+00  0.0000000000000000e+00 0.0000000000000000e+00 0.0000000000000000e+00  0.0000000000000000e+00 0.0000000000000000e+00 0.0000000000000000e+00  0.0000000000000000e+00 0.0000000000000000e+00 0.0000000000000000e+00  0.0000000000000000e+00 0.0000000000000000e+00 0.0000000000000000e+00  0.0000000000000000e+00 0.0000000000000000e+00 0.0000000000000000e+00  0.0000000000000000e+00 0.0000000000000000e+00 0.0000000000000000e+00  0.0000000000000000e+00 0.0000000000000000e+00 0.0000000000000000e+00  0.0000000000000000e+00 0.0000000000000000e+00 0.0000000000000000e+00  0.0000000000000000e+00 0.0000000000000000e+00 0.0000000000000000e+00  0.0000000000000000e+00 0.0000000000000000e+00 0.0000000000000000e+00  0.0000000000000000e+00 0.0000000000000000e+00 0.0000000000000000e+00  0.0000000000000000e+00 0.0000000000000000e+00 0.0000000000000000e+00  0.0000000000000000e+00 0.0000000000000000e+00 0.0000000000000000e+00  0.0000000000000000e+00 0.0000000000000000e+00 0.0000000000000000e+00  0.0000000000000000e+00 0.0000000000000000e+00 0.0000000000000000e+00  1.9420728579877524e+00 -2.8419992841137411e-02 0.0000000000000000e+00  1.6049821854354647e+00 1.4088997721912015e-02 0.0000000000000000e+00  1.9101047907353113e+00 6.7679644145120038e-02 0.0000000000000000e+00  0.0000000000000000e+00 0.0000000000000000e+00 0.0000000000000000e+00  0.0000000000000000e+00 0.0000000000000000e+00 0.0000000000000000e+00  0.0000000000000000e+00 0.0000000000000000e+00 0.0000000000000000e+00  0.0000000000000000e+00 0.0000000000000000e+00 0.0000000000000000e+00  0.0000000000000000e+00 0.0000000000000000e+00 0.0000000000000000e+00  0.0000000000000000e+00 0.0000000000000000e+00 0.0000000000000000e+00  0.0000000000000000e+00 0.0000000000000000e+00 0.0000000000000000e+00  0.0000000000000000e+00 0.0000000000000000e+00 0.0000000000000000e+00  0.0000000000000000e+00 0.0000000000000000e+00 0.0000000000000000e+00  0.0000000000000000e+00 0.0000000000000000e+00 0.0000000000000000e+00  0.0000000000000000e+00 0.0000000000000000e+00 0.0000000000000000e+00  0.0000000000000000e+00 0.0000000000000000e+00 0.0000000000000000e+00  0.0000000000000000e+00 0.0000000000000000e+00 0.0000000000000000e+00  0.0000000000000000e+00 0.0000000000000000e+00 0.0000000000000000e+00  0.0000000000000000e+00 0.0000000000000000e+00 0.0000000000000000e+00  0.0000000000000000e+00 0.0000000000000000e+00 0.0000000000000000e+00  0.0000000000000000e+00 0.0000000000000000e+00 0.0000000000000000e+00  0.0000000000000000e+00 0.0000000000000000e+00 0.0000000000000000e+00  0.0000000000000000e+00 0.0000000000000000e+00 0.0000000000000000e+00  0.0000000000000000e+00 0.0000000000000000e+00 0.0000000000000000e+00  0.0000000000000000e+00 0.0000000000000000e+00 0.0000000000000000e+00  0.0000000000000000e+00 0.0000000000000000e+00 0.0000000000000000e+00  0.0000000000000000e+00 0.0000000000000000e+00 0.0000000000000000e+00  0.0000000000000000e+00 0.0000000000000000e+00 0.0000000000000000e+00  0.0000000000000000e+00 0.0000000000000000e+00 0.0000000000000000e+00  0.0000000000000000e+00 0.0000000000000000e+00 0.0000000000000000e+00  0.0000000000000000e+00 0.0000000000000000e+00 0.0000000000000000e+00  0.0000000000000000e+00 0.0000000000000000e+00 0.0000000000000000e+00  0.0000000000000000e+00 0.0000000000000000e+00 0.0000000000000000e+00  0.0000000000000000e+00 0.0000000000000000e+00 0.0000000000000000e+00  0.0000000000000000e+00 0.0000000000000000e+00 0.0000000000000000e+00  0.0000000000000000e+00 0.0000000000000000e+00 0.0000000000000000e+00  0.0000000000000000e+00 0.0000000000000000e+00 0.0000000000000000e+00  0.0000000000000000e+00 0.0000000000000000e+00 0.0000000000000000e+00  0.0000000000000000e+00 0.0000000000000000e+00 0.0000000000000000e+00  0.0000000000000000e+00 0.0000000000000000e+00 0.0000000000000000e+00  0.0000000000000000e+00 0.0000000000000000e+00 0.0000000000000000e+00  0.0000000000000000e+00 0.0000000000000000e+00 0.0000000000000000e+00  0.0000000000000000e+00 0.0000000000000000e+00 0.0000000000000000e+00  0.0000000000000000e+00 0.0000000000000000e+00 0.0000000000000000e+00  0.0000000000000000e+00 0.0000000000000000e+00 0.0000000000000000e+00  0.0000000000000000e+00 0.0000000000000000e+00 0.0000000000000000e+00  0.0000000000000000e+00 0.0000000000000000e+00 0.0000000000000000e+00  0.0000000000000000e+00 0.0000000000000000e+00 0.0000000000000000e+00  0.0000000000000000e+00 0.0000000000000000e+00 0.0000000000000000e+00  0.0000000000000000e+00 0.0000000000000000e+00 0.0000000000000000e+00  0.0000000000000000e+00 0.0000000000000000e+00 0.0000000000000000e+00  0.0000000000000000e+00 0.0000000000000000e+00 0.0000000000000000e+00  0.0000000000000000e+00 0.0000000000000000e+00 0.0000000000000000e+00  0.0000000000000000e+00 0.0000000000000000e+00 0.0000000000000000e+00  0.0000000000000000e+00 0.0000000000000000e+00 0.0000000000000000e+00  0.0000000000000000e+00 0.0000000000000000e+00 0.0000000000000000e+00  0.0000000000000000e+00 0.0000000000000000e+00 0.0000000000000000e+00  0.0000000000000000e+00 0.0000000000000000e+00 0.0000000000000000e+00  0.0000000000000000e+00 0.0000000000000000e+00 0.0000000000000000e+00  0.0000000000000000e+00 0.0000000000000000e+00 0.0000000000000000e+00  0.0000000000000000e+00 0.0000000000000000e+00 0.0000000000000000e+00  0.0000000000000000e+00 0.0000000000000000e+00 0.0000000000000000e+00  0.0000000000000000e+00 0.0000000000000000e+00 0.0000000000000000e+00  0.0000000000000000e+00 0.0000000000000000e+00 0.0000000000000000e+00  0.0000000000000000e+00 0.0000000000000000e+00 0.0000000000000000e+00  0.0000000000000000e+00 0.0000000000000000e+00 0.0000000000000000e+00  0.0000000000000000e+00 0.0000000000000000e+00 0.0000000000000000e+00  0.0000000000000000e+00 0.0000000000000000e+00 0.0000000000000000e+00  0.0000000000000000e+00 0.0000000000000000e+00 0.0000000000000000e+00  0.0000000000000000e+00 0.0000000000000000e+00 0.0000000000000000e+00  0.0000000000000000e+00 0.0000000000000000e+00 0.0000000000000000e+00  0.0000000000000000e+00 0.0000000000000000e+00 0.0000000000000000e+00  0.0000000000000000e+00 0.0000000000000000e+00 0.0000000000000000e+00  0.0000000000000000e+00 0.0000000000000000e+00 0.0000000000000000e+00  0.0000000000000000e+00 0.0000000000000000e+00 0.0000000000000000e+00  0.0000000000000000e+00 0.0000000000000000e+00 0.0000000000000000e+00  0.0000000000000000e+00 0.0000000000000000e+00 0.0000000000000000e+00  0.0000000000000000e+00 0.0000000000000000e+00 0.0000000000000000e+00  0.0000000000000000e+00 0.0000000000000000e+00 0.0000000000000000e+00  0.0000000000000000e+00 0.0000000000000000e+00 0.0000000000000000e+00  0.0000000000000000e+00 0.0000000000000000e+00 0.0000000000000000e+00  0.0000000000000000e+00 0.0000000000000000e+00 0.0000000000000000e+00  -1.5523878203307195e-05 1.6256387585285381e-05 0.0000000000000000e+00  -3.3003253644008732e-05 3.3787350431538788e-05 0.0000000000000000e+00  -4.8621458929195191e-05 6.1831530428710515e-05 0.0000000000000000e+00  -6.5342875362873874e-05 1.0105094567808768e-04 0.0000000000000000e+00  -7.9419772370783114e-05 1.4954933468595981e-04 0.0000000000000000e+00  -9.5002508304415549e-05 2.0816808661058939e-04 0.0000000000000000e+00  -1.0765793822643170e-04 2.7414360407168831e-04 0.0000000000000000e+00  -1.1980317498212625e-04 3.4968807446960254e-04 0.0000000000000000e+00  -1.3336158586184729e-04 4.3237130546567936e-04 0.0000000000000000e+00  -1.4384283939389815e-04 5.2235219272665767e-04 0.0000000000000000e+00  -1.5611575421339141e-04 6.1942916782534098e-04 0.0000000000000000e+00  -1.6548932036555125e-04 7.2283566726631806e-04 0.0000000000000000e+00  -1.7608125755634273e-04 8.3228888481814848e-04 0.0000000000000000e+00  -1.8459146635302592e-04 9.4650099238313711e-04 0.0000000000000000e+00  -1.9265826704068745e-04 1.0664736858863478e-03 0.0000000000000000e+00  -2.0140001631043067e-04 1.1906689881039858e-03 0.0000000000000000e+00  -2.0816319289843749e-04 1.3190565289744678e-03 0.0000000000000000e+00  -2.1574767883475812e-04 1.4514764430650887e-03 0.0000000000000000e+00  -2.2155007501429127e-04 1.5872722641560491e-03 0.0000000000000000e+00  -2.2791975614101475e-04 1.7262391672799955e-03 0.0000000000000000e+00  -2.3304238022592470e-04 1.8680395715251850e-03 0.0000000000000000e+00  -2.3832051409499003e-04 2.0125356862991379e-03 0.0000000000000000e+00  -2.4262849366238863e-04 2.1588911375537267e-03 0.0000000000000000e+00  -2.4659288913909136e-04 2.3075753280487128e-03 0.0000000000000000e+00  -2.5065283774533260e-04 2.4577776533044244e-03 0.0000000000000000e+00  -2.5400294888617794e-04 2.6096345639156464e-03 0.0000000000000000e+00  -2.5716471151259206e-04 2.7629395974217053e-03 0.0000000000000000e+00  -2.5989459856996995e-04 2.9172856901725237e-03 0.0000000000000000e+00  -2.6242982154901589e-04 3.0727885613956911e-03 0.0000000000000000e+00  -2.6460114561790277e-04 3.2290417198000154e-03 0.0000000000000000e+00  -2.6658429332202394e-04 3.3861645959145027e-03 0.0000000000000000e+00  -2.6825579325966749e-04 3.5437998334910468e-03 0.0000000000000000e+00  -2.6975255918331516e-04 3.7020756822441284e-03 0.0000000000000000e+00  -2.7098030530540860e-04 3.8606735516267545e-03 0.0000000000000000e+00  -2.7203221826752554e-04 4.0197462990921159e-03 0.0000000000000000e+00  -2.7286190781056967e-04 4.1790090244499473e-03 0.0000000000000000e+00  -2.7353343089493455e-04 4.3386051434932890e-03 0.0000000000000000e+00  -2.7401274489064718e-04 4.4982978176263547e-03 0.0000000000000000e+00  -2.7433901070385373e-04 4.6582315586022266e-03 0.0000000000000000e+00  -2.7449234955589355e-04 4.8182016156356790e-03 0.0000000000000000e+00  -2.7449233326107812e-04 4.9783305649838388e-03 0.0000000000000000e+00  -2.7435974099350636e-04 5.1384883872107080e-03 0.0000000000000000e+00  -2.7406297753451524e-04 5.2987365638302942e-03 0.0000000000000000e+00  -2.7369218643001077e-04 5.4590262709683073e-03 0.0000000000000000e+00  -2.7315374849732260e-04 5.6193252964884212e-03 0.0000000000000000e+00  -2.7252000702239596e-04 5.7797410130184523e-03 0.0000000000000000e+00  -1.6391665736190927e-04 5.9394530937638846e-03 0.0000000000000000e+00  5.1108190218967984e-05 5.9373678187458236e-03 0.0000000000000000e+00  1.5753603702185694e-04 5.7758623485718412e-03 0.0000000000000000e+00  1.5676080320962363e-04 5.6151589776017707e-03 0.0000000000000000e+00  1.5607608912254273e-04 5.4544478920367755e-03 0.0000000000000000e+00  1.5550606623790576e-04 5.2938367821593968e-03 0.0000000000000000e+00  1.5502517337251918e-04 5.1332758705790425e-03 0.0000000000000000e+00  1.5468071007056780e-04 4.9728003048741401e-03 0.0000000000000000e+00  1.5438256723067844e-04 4.8124152152868669e-03 0.0000000000000000e+00  1.5422832459132446e-04 4.6521007515174361e-03 0.0000000000000000e+00  1.5410240671789524e-04 4.4919690901312195e-03 0.0000000000000000e+00  1.5410726039707728e-04 4.3319403443427534e-03 0.0000000000000000e+00  1.5409233004314620e-04 4.1721614462496412e-03 0.0000000000000000e+00  1.5421466188909568e-04 4.0125808834178406e-03 0.0000000000000000e+00  1.5425256265166418e-04 3.8533517103971245e-03 0.0000000000000000e+00  1.5443358975519066e-04 3.6944585166452555e-03 0.0000000000000000e+00  1.5444160788748883e-04 3.5360464043385376e-03 0.0000000000000000e+00  1.5461782622133859e-04 3.3781492403090114e-03 0.0000000000000000e+00  1.5451545620711577e-04 3.2209118839210318e-03 0.0000000000000000e+00  1.5461602224332190e-04 3.0644214980473472e-03 0.0000000000000000e+00  1.5430555671065279e-04 2.9088270202252756e-03 0.0000000000000000e+00  1.5424730493805033e-04 2.7542692481924550e-03 0.0000000000000000e+00  1.5360674550113232e-04 2.6009018844137845e-03 0.0000000000000000e+00  1.5328386280973120e-04 2.4489320868225054e-03 0.0000000000000000e+00  1.5223422837964512e-04 2.2985484228029689e-03 0.0000000000000000e+00  1.5143500590878063e-04 2.1497875340334397e-03 0.0000000000000000e+00  1.5044190302551175e-04 2.0033696336345321e-03 0.0000000000000000e+00  1.4865020992559092e-04 1.8587419358701192e-03 0.0000000000000000e+00  1.4695389929874885e-04 1.7169668560168781e-03 0.0000000000000000e+00  1.4456352941871205e-04 1.5778211634123189e-03 0.0000000000000000e+00  1.4213580495250970e-04 1.4420265393037335e-03 0.0000000000000000e+00  1.3894578816576341e-04 1.3095535897516206e-03 0.0000000000000000e+00  1.3570169054058121e-04 1.1809468538595451e-03 0.0000000000000000e+00  1.3109529794149799e-04 1.0569979157121832e-03 0.0000000000000000e+00  1.2715064206827905e-04 9.3692431438636330e-04 0.0000000000000000e+00  1.2279022026819334e-04 8.2276038503527977e-04 0.0000000000000000e+00  1.1668558859433333e-04 7.1289492987727863e-04 0.0000000000000000e+00  1.1085115928932012e-04 6.0968226117805808e-04 0.0000000000000000e+00  1.0378118682207635e-04 5.1251336688615820e-04 0.0000000000000000e+00  9.6817903766615099e-05 4.2219669108657019e-04 0.0000000000000000e+00  8.7740666516717344e-05 3.3991010720910993e-04 0.0000000000000000e+00  7.9928462241130637e-05 2.6418826877556750e-04 0.0000000000000000e+00  7.1639271102374785e-05 1.9817952368755040e-04 0.0000000000000000e+00  6.0641171331160187e-05 1.3922913116246608e-04 0.0000000000000000e+00  5.0558576671950785e-05 9.0469447800472922e-05 0.0000000000000000e+00  3.8009473994230538e-05 5.1663656180644485e-05 0.0000000000000000e+00  2.6692934235894162e-05 2.3611524135042200e-05 0.0000000000000000e+00  1.2641812410063623e-05 6.6316639207070268e-06 0.0000000000000000e+00  -1.6579632340414662e-06 1.2241865779097547e-05 0.0000000000000000e+00  -6.0384759032382679e-05 5.6971396883131525e-03 0.0000000000000000e+00  -6.3336684018247579e-05 5.3903881933917812e-03 0.0000000000000000e+00  -6.2326701178736613e-05 4.8896573270311708e-03 0.0000000000000000e+00  -6.1659613258741949e-06 6.8261837467695929e-05 0.0000000000000000e+00  -5.9916125989635581e-05 4.5750257932305350e-03 0.0000000000000000e+00  -9.4284187838491601e-06 1.6160003335461212e-04 0.0000000000000000e+00  -5.9461465007639252e-05 4.2552417609556100e-03 0.0000000000000000e+00  -1.5647424758969230e-05 3.8341448325679217e-04 0.0000000000000000e+00  -2.1331313038740006e-05 5.6089081490169471e-04 0.0000000000000000e+00  -5.8549708063830764e-05 3.9363123544856700e-03 0.0000000000000000e+00  -2.9606151028963371e-05 1.1254223410101234e-03 0.0000000000000000e+00  -5.5434599331330141e-05 3.3030027482496248e-03 0.0000000000000000e+00  -2.3518308786918568e-05 7.5915961345399856e-04 0.0000000000000000e+00  -3.5704568588745852e-05 1.3776615892944143e-03 0.0000000000000000e+00  -5.3278511167671817e-05 2.9900626895768209e-03 0.0000000000000000e+00  -5.7200224431857133e-05 3.6186918572453835e-03 0.0000000000000000e+00  -3.9485680549014521e-05 1.6496989652818813e-03 0.0000000000000000e+00  -5.0749283234077520e-05 2.6809212058891536e-03 0.0000000000000000e+00  -4.0393461505345113e-05 1.9219459628200299e-03 0.0000000000000000e+00  -5.0521129656666235e-05 2.3831360255940973e-03 0.0000000000000000e+00  -4.5334941696354010e-05 2.1412420588923127e-03 0.0000000000000000e+00  -2.8786756373114151e-05 9.2904549646960315e-04 0.0000000000000000e+00  -5.9118707932144992e-05 5.1498758652140965e-03 0.0000000000000000e+00  -1.3551245608515587e-05 2.5936495906674003e-04 0.0000000000000000e+00  1.3532299708962345e-05 5.5418977196752166e-03 0.0000000000000000e+00  9.2824172500610236e-06 3.3683993886204913e-05 0.0000000000000000e+00  2.4716127104009536e-06 4.4141243676577334e-03 0.0000000000000000e+00  2.3713076629614376e-06 4.7342817574179668e-03 0.0000000000000000e+00  -3.0771029957340943e-05 1.1489194519048334e-04 0.0000000000000000e+00  -5.4000165980223812e-05 4.6898566750724219e-04 0.0000000000000000e+00  4.9802429428386603e-06 3.4594725225737043e-03 0.0000000000000000e+00  2.9686223607699123e-06 4.0946555970723959e-03 0.0000000000000000e+00  -8.3513628720407589e-05 1.2486823640061300e-03 0.0000000000000000e+00  6.3776959003444950e-06 3.1450098560444149e-03 0.0000000000000000e+00  -6.3201571174566865e-05 6.6340353051491392e-04 0.0000000000000000e+00  -9.0198622013628680e-05 1.5137171238403754e-03 0.0000000000000000e+00  7.9511062016073590e-06 2.8338027124780577e-03 0.0000000000000000e+00  3.8240041434969530e-06 3.7762587909115557e-03 0.0000000000000000e+00  -1.0826576415524404e-04 1.7907162042769007e-03 0.0000000000000000e+00  9.6470432394402885e-06 2.5270161547510527e-03 0.0000000000000000e+00  -2.6389249417505076e-06 3.8149395673818871e-06 0.0000000000000000e+00  2.0445869510894319e-06 1.3486384735621569e-06 0.0000000000000000e+00  -1.0923091534525370e-04 5.8238933100604089e-03 0.0000000000000000e+00  -1.8604540381434122e-05 3.7803092524771574e-05 0.0000000000000000e+00  2.4745301449822733e-05 2.2591841092386403e-03 0.0000000000000000