<?xml version="1.0"?>
<VTKFile type="UnstructuredGrid"  version="0.1"  >
<UnstructuredGrid>
<Piece  NumberOfPoints="1419" NumberOfCells="2698">
<Points>
<DataArray  type="Float64"  NumberOfComponents="3"  format="ascii">0 0 0  0 0.41 0  2.5 0 0  2.5 0.41 0  0.6 0.19 0  0.6 0.21 0  0.25 0.2 0  0.15 0.2 0  0.2489897948556636 0.21 0  0.2489897948556636 0.19 0  0.6 0.2 0  0 0.3807142857143437 0  0 0.3514285714286952 0  0 0.3221428571430699 0  0 0.29285714285744 0  0 0.2635714285718054 0  0 0.2342857142861561 0  0 0.2050000000005308 0  0 0.175714285714732 0  0 0.1464285714289574 0  0 0.1171428571431897 0  0 0.08785714285737878 0  0 0.05857142857161107 0  0 0.02928571428580012 0  0.03015443760436003 0 0  0.06140001986583606 0 0  0.09377624077125973 0 0  0.1273239957535082 0 0  0.1620856860351972 0 0  0.1981052433264291 0 0  0.235428184091502 0 0  0.2741016576309132 0 0  0.3141745521465447 0 0  0.3556974926295285 0 0  0.3987229542472677 0 0  0.4433053055141081 0 0  0.4895008759286886 0 0  0.5373680609405097 0 0  0.5869673343216626 0 0  0.6383613676634521 0 0  0.6916151138468254 0 0  0.7467958595648856 0 0  0.8039733463919316 0 0  0.8632198139502143 0 0  0.9246101326867038 0 0  0.9882218810934433 0 0  1.054135445558498 0 0  1.122434100542598 0 0  1.193204177141305 0 0  1.266535089879536 0 0  1.342519516046404 0 0  1.421253448503939 0 0  1.502836389106271 0 0  1.587371439758838 0 0  1.674965418777374 0 0  1.765729001825544 0 0  1.859776908880082 0 0  1.957227977487062 0 0  2.058205329869943 0 0  2.162836591189951 0 0  2.271253957290865 0 0  2.383594446803425 0 0  2.5 0.1024999999997612 0  2.5 0.2049999999994743 0  2.5 0.3074999999997183 0  2.383594446803656 0.41 0  2.271253957291315 0.41 0  2.162836591190598 0.41 0  2.058205329870775 0.41 0  1.957227977488067 0.41 0  1.859776908881246 0.41 0  1.765729001826854 0.41 0  1.674965418778818 0.41 0  1.58737143976041 0.41 0  1.502836389107956 0.41 0  1.421253448505726 0.41 0  1.342519516048286 0.41 0  1.266535089881505 0.41 0  1.193204177143353 0.41 0  1.122434100544716 0.41 0  1.05413544556068 0.41 0  0.9882218810956305 0.41 0  0.9246101326886647 0.41 0  0.8632198139519631 0.41 0  0.8039733463934788 0.41 0  0.7467958595662458 0.41 0  0.6916151138480078 0.41 0  0.6383613676644679 0.41 0  0.5869673343225223 0.41 0  0.5373680609412221 0.41 0  0.4895008759292634 0.41 0  0.4433053055145528 0.41 0  0.3987229542475914 0.41 0  0.3556974926297398 0.41 0  0.3141745521466497 0.41 0  0.2741016576310038 0.41 0  0.2354281840915826 0.41 0  0.1981052433265003 0.41 0  0.1620856860352591 0.41 0  0.1273239957535623 0.41 0  0.09377624077128965 0.41 0  0.06140001986584975 0.41 0  0.03015443760436654 0.41 0  0.2497468076502589 0.2050254481002335 0  0.2497468076502614 0.1949745518997913 0  0.2469965252529372 0.1829317073451959 0  0.2439893735792749 0.1762316384219906 0  0.2400332147834255 0.1700443375285386 0  0.2352133972704371 0.1645032867342007 0  0.2296339016332438 0.1597280261969788 0  0.2234150974217223 0.1558215752574715 0  0.2166911463437691 0.1528682099456123 0  0.2096071079204251 0.1509316448471593 0  0.2023158100364996 0.1500536585536553 0  0.194974551899914 0.1502531923497262 0  0.1877417105387872 0.1515259415822739 0  0.1807733240461124 0.153844448527136 0  0.1742197252835808 0.15715869474974 0  0.1682222986673531 0.1613971801805478 0  0.162910430003803 0.1664684656256651 0  0.1583987151779087 0.1722631454351573 0  0.1547844879126891 0.178656207771761 0  0.1521457199348551 0.1855097315605723 0  0.1505393388476355 0.1926758619366523 0  0.1505393388476328 0.2073241380633295 0  0.1521457199348437 0.2144902684393899 0  0.1547844879126531 0.221343792228163 0  0.1583987151778488 0.2277368545647528 0  0.1629104300036858 0.2335315343742052 0  0.1682222986671726 0.2386028198193036 0  0.1742197252833576 0.2428413052501257 0  0.1807733240458683 0.2461555514727623 0  0.1877417105384929 0.2484740584176516 0  0.1949745518995776 0.2497468076502398 0  0.202315810036185 0.2499463414463592 0  0.2096071079201568 0.2490683551528932 0  0.2166911463435495 0.2471317900544655 0  0.2234150974215506 0.2441784247426195 0  0.2296339016331197 0.2402719738031125 0  0.2352133972703547 0.2354967132658811 0  0.2400332147833751 0.2299556624715287 0  0.2439893735792577 0.2237683615780412 0  0.246996525252926 0.2170682926548348 0  0.25645809709277 0.21 0  0.2639263993298655 0.21 0  0.271394701566961 0.21 0  0.2788630038040554 0.21 0  0.2863313060411479 0.21 0  0.2937996082782405 0.21 0  0.301267910515333 0.21 0  0.3087362127524279 0.21 0  0.3162045149895234 0.21 0  0.3236728172265972 0.21 0  0.3311411194636928 0.21 0  0.3386094217007701 0.21 0  0.3460777239378666 0.21 0  0.3535460261749672 0.21 0  0.3610143284120516 0.21 0  0.3684826306491596 0.21 0  0.3759509328862226 0.21 0  0.383419235123329 0.21 0  0.3908875373604028 0.21 0  0.3983558395975142 0.21 0  0.4058241418345938 0.21 0  0.4132924440716992 0.21 0  0.4207607463087888 0.21 0  0.4282290485459029 0.21 0  0.4356973507830418 0.21 0  0.4431656530201649 0.21 0  0.4506339552573136 0.21 0  0.4581022574944306 0.21 0  0.4655705597315852 0.21 0  0.4730388619686996 0.21 0  0.480507164205851 0.21 0  0.4879754664429498 0.21 0  0.4954437686800938 0.21 0  0.502912070917267 0.21 0  0.5103803731544119 0.21 0  0.5178486753915261 0.21 0  0.5253169776286404 0.21 0  0.5327852798657868 0.21 0  0.5402535821029386 0.21 0  0.54772188434007 0.21 0  0.5551901865771842 0.21 0  0.5626584888143201 0.21 0  0.5701267910514778 0.21 0  0.5775950932886138 0.21 0  0.5850633955257281 0.21 0  0.5925316977628483 0.21 0  0.6 0.2050000000000054 0  0.6 0.1950000000000217 0  0.5925316977628897 0.19 0  0.5850633955257988 0.19 0  0.5775950932887378 0.19 0  0.5701267910515998 0.19 0  0.5626584888145268 0.19 0  0.5551901865773963 0.19 0  0.547721884340339 0.19 0  0.5402535821032429 0.19 0  0.5327852798661811 0.19 0  0.5253169776290537 0.19 0  0.5178486753919799 0.19 0  0.5103803731549078 0.19 0  0.502912070917822 0.19 0  0.4954437686807294 0.19 0  0.4879754664436223 0.19 0  0.4805071642065402 0.19 0  0.4730388619694271 0.19 0  0.4655705597323621 0.19 0  0.4581022574952563 0.19 0  0.4506339552581777 0.19 0  0.4431656530210671 0.19 0  0.4356973507839815 0.19 0  0.4282290485468779 0.19 0  0.4207607463097617 0.19 0  0.4132924440726327 0.19 0  0.4058241418354857 0.19 0  0.3983558395983636 0.19 0  0.3908875373612097 0.19 0  0.3834192351240934 0.19 0  0.3759509328869369 0.19 0  0.3684826306498175 0.19 0  0.361014328412667 0.19 0  0.3535460261755617 0.19 0  0.3460777239384295 0.19 0  0.3386094217012945 0.19 0  0.3311411194641595 0.19 0  0.3236728172270245 0.19 0  0.3162045149898895 0.19 0  0.3087362127527544 0.19 0  0.3012679105156187 0.19 0  0.2937996082784807 0.19 0  0.2863313060413428 0.19 0  0.2788630038042048 0.19 0  0.2713947015670686 0.19 0  0.2639263993299336 0.19 0  0.2564580970927985 0.19 0  0.2607803159922026 0.2000727136295815 0  0.5887803774232762 0.2001272386983733 0  0.5745072403740523 0.2002044435018727 0  0.5511891430099709 0.2001122610077113 0  0.2751288526855082 0.20000000000002 0  0.5365194309847112 0.1999999999999436 0  0.2894621222999649 0.1998691686390484 0  0.5215828265105155 0.1999999999999228 0  0.3127789816668748 0.1998657885438805 0  0.3274069683451451 0.2000000000000796 0  0.5066462220363641 0.199999999999908 0  0.3650630746574081 0.199866017807523 0  0.476773013087985 0.1999999999998713 0  0.3417402379596385 0.1998691686391011 0  0.3796850840047755 0.200000000000134 0  0.4618364086138087 0.1999999999998546 0  0.4917096175621762 0.1999999999998808 0  0.3946216884789568 0.2000000000001512 0  0.446899804139621 0.1999999999998389 0  0.4089549580935208 0.1998691686391595 0  0.4322718174608562 0.200127451265745 0  0.4201487168029707 0.1999966199048527 0  0.3528922713220932 0.2000185703532356 0  0.5633122436674589 0.1999814296467508 0  0.3006558810093873 0.1999966199048318 0  0.5815926498168407 0.1966545283159175 0  0.2677053789419034 0.1964246479135325 0  0.5290511287476175 0.1970915826863981 0  0.5439877332217911 0.197091582686394 0  0.2825131256993216 0.2035478995978015 0  0.3199386661080599 0.202908417313604 0  0.4842413153250809 0.1970915826863873 0  0.5141145242734466 0.1970915826863843 0  0.3722167817676917 0.2029084173136195 0  0.4693047108508938 0.1970915826863783 0  0.3348752705822316 0.202908417313609 0  0.3871533862418661 0.2029084173136212 0  0.4543681063767183 0.1970915826863795 0  0.4991779197992749 0.1970915826863902 0  0.4020059614928624 0.203547899597858 0  0.4394315019025246 0.1970915826863714 0  0.2550657455369551 0.2034088125358657 0  0.2548908499171161 0.1966940311614271 0  0.5946539510196798 0.2024302972968126 0  0.267698176732111 0.2039977513680092 0  0.4261685417851465 0.196409292431739 0  0.3590076176283495 0.196411355804271 0  0.5571672426447437 0.2036011176410121 0  0.3066757059912147 0.1964092924317024 0  0.594380730180568 0.1966558399668133 0  0.4842413153245942 0.2040749161535287 0  0.4693047108503577 0.2040749161535231 0  0.3871533862424271 0.1959250838464788 0  0.372246743208829 0.1959123236376545 0  0.5141145242731028 0.2040749161535395 0  0.4543681063761134 0.2040749161535186 0  0.4019979587101454 0.1959834479682427 0  0.4394608940728603 0.2040870543693135 0  0.5439623148931173 0.2040856076781014 0  0.5290511287473298 0.2040749161535501 0  0.4991779197988497 0.2040749161535382 0  0.3347912413592433 0.1959225448935183 0  0.3199680582793816 0.1959123018030061 0  0.2825051229162361 0.1959834479681729 0  0.3590471196690275 0.2036304442587945 0  0.5571594006495384 0.1963685282145804 0  0.3067669986803285 0.203627750582736 0  0.4262598344738712 0.2036568242185335 0  0.5814408164431408 0.2041285596160068 0  0.5688286748170428 0.1961819304477386 0  0.4145905603063645 0.2038180695522843 0  0.3473758401724931 0.2038180695522752 0  0.2950977245128307 0.2038180695522663 0  0.5688286748170693 0.203818069552238 0  0.2950977245127906 0.1961819304477774 0  0.3473758401723931 0.1961819304478349 0  0.4145905603061963 0.1961819304479011 0  0.2601812407614425 0.2056861609747042
[...]
<PointData  Vectors="f_40-0"> 
<DataArray  type="Float64"  Name="f_40-0"  NumberOfComponents="3" format="ascii">0.0000000000000000e+00 0.0000000000000000e+00 0.0000000000000000e+00  0.0000000000000000e+00 0.0000000000000000e+00 0.0000000000000000e+00  0.0000000000000000e+00 0.0000000000000000e+00 0.0000000000000000e+00  0.0000000000000000e+00 0.0000000000000000e+00 0.0000000000000000e+00  1.6913684006081514e-04 6.0536911680421079e-03 0.0000000000000000e+00  -2.7086170937775983e-04 6.0579066299704006e-03 0.0000000000000000e+00  0.0000000000000000e+00 0.0000000000000000e+00 0.0000000000000000e+00  0.0000000000000000e+00 0.0000000000000000e+00 0.0000000000000000e+00  0.0000000000000000e+00 0.0000000000000000e+00 0.0000000000000000e+00  0.0000000000000000e+00 0.0000000000000000e+00 0.0000000000000000e+00  -5.0350299289695956e-05 6.0557554429611212e-03 0.0000000000000000e+00  5.8035336030377160e-01 0.0000000000000000e+00 0.0000000000000000e+00  1.0714215882531879e+00 0.0000000000000000e+00 0.0000000000000000e+00  1.4732046838481336e+00 0.0000000000000000e+00 0.0000000000000000e+00  1.7857026470890740e+00 0.0000000000000000e+00 0.0000000000000000e+00  2.0089154779759681e+00 0.0000000000000000e+00 0.0000000000000000e+00  2.1428431765088032e+00 0.0000000000000000e+00 0.0000000000000000e+00  2.1874857426874450e+00 0.0000000000000000e+00 0.0000000000000000e+00  2.1428431765115108e+00 0.0000000000000000e+00 0.0000000000000000e+00  2.0089154779806195e+00 0.0000000000000000e+00 0.0000000000000000e+00  1.7857026470948336e+00 0.0000000000000000e+00 0.0000000000000000e+00  1.4732046838536055e+00 0.0000000000000000e+00 0.0000000000000000e+00  1.0714215882578573e+00 0.0000000000000000e+00 0.0000000000000000e+00  5.8035336030640250e-01 0.0000000000000000e+00 0.0000000000000000e+00  0.0000000000000000e+00 0.0000000000000000e+00 0.0000000000000000e+00  0.0000000000000000e+00 0.0000000000000000e+00 0.0000000000000000e+00  0.0000000000000000e+00 0.0000000000000000e+00 0.0000000000000000e+00  0.0000000000000000e+00 0.0000000000000000e+00 0.0000000000000000e+00  0.0000000000000000e+00 0.0000000000000000e+00 0.0000000000000000e+00  0.0000000000000000e+00 0.0000000000000000e+00 0.0000000000000000e+00  0.0000000000000000e+00 0.0000000000000000e+00 0.0000000000000000e+00  0.0000000000000000e+00 0.0000000000000000e+00 0.0000000000000000e+00  0.0000000000000000e+00 0.0000000000000000e+00 0.0000000000000000e+00  0.0000000000000000e+00 0.0000000000000000e+00 0.0000000000000000e+00  0.0000000000000000e+00 0.0000000000000000e+00 0.0000000000000000e+00  0.0000000000000000e+00 0.0000000000000000e+00 0.0000000000000000e+00  0.0000000000000000e+00 0.0000000000000000e+00 0.0000000000000000e+00  0.0000000000000000e+00 0.0000000000000000e+00 0.0000000000000000e+00  0.0000000000000000e+00 0.0000000000000000e+00 0.0000000000000000e+00  0.0000000000000000e+00 0.0000000000000000e+00 0.0000000000000000e+00  0.0000000000000000e+00 0.0000000000000000e+00 0.0000000000000000e+00  0.0000000000000000e+00 0.0000000000000000e+00 0.0000000000000000e+00  0.0000000000000000e+00 0.0000000000000000e+00 0.0000000000000000e+00  0.0000000000000000e+00 0.0000000000000000e+00 0.0000000000000000e+00  0.0000000000000000e+00 0.0000000000000000e+00 0.0000000000000000e+00  0.0000000000000000e+00 0.0000000000000000e+00 0.0000000000000000e+00  0.0000000000000000e+00 0.0000000000000000e+00 0.0000000000000000e+00  0.0000000000000000e+00 0.0000000000000000e+00 0.0000000000000000e+00  0.0000000000000000e+00 0.0000000000000000e+00 0.0000000000000000e+00  0.0000000000000000e+00 0.0000000000000000e+00 0.0000000000000000e+00  0.0000000000000000e+00 0.0000000000000000e+00 0.0000000000000000e+00  0.0000000000000000e+00 0.0000000000000000e+00 0.0000000000000000e+00  0.0000000000000000e+00 0.0000000000000000e+00 0.0000000000000000e+00  0.0000000000000000e+00 0.0000000000000000e+00 0.0000000000000000e+00  0.0000000000000000e+00 0.0000000000000000e+00 0.0000000000000000e+00  0.0000000000000000e+00 0.0000000000000000e+00 0.0000000000000000e+00  0.0000000000000000e+00 0.0000000000000000e+00 0.0000000000000000e+00  0.0000000000000000e+00 0.0000000000000000e+00 0.0000000000000000e+00  0.0000000000000000e+00 0.0000000000000000e+00 0.0000000000000000e+00  0.0000000000000000e+00 0.0000000000000000e+00 0.0000000000000000e+00  0.0000000000000000e+00 0.0000000000000000e+00 0.0000000000000000e+00  0.0000000000000000e+00 0.0000000000000000e+00 0.0000000000000000e+00  1.9884475274433309e+00 -2.8354800959993768e-02 0.0000000000000000e+00  1.6537181953232658e+00 1.2881654345003194e-02 0.0000000000000000e+00  1.9564354423636825e+00 6.8745991167619966e-02 0.0000000000000000e+00  0.0000000000000000e+00 0.0000000000000000e+00 0.0000000000000000e+00  0.0000000000000000e+00 0.0000000000000000e+00 0.0000000000000000e+00  0.0000000000000000e+00 0.0000000000000000e+00 0.0000000000000000e+00  0.0000000000000000e+00 0.0000000000000000e+00 0.0000000000000000e+00  0.0000000000000000e+00 0.0000000000000000e+00 0.0000000000000000e+00  0.0000000000000000e+00 0.0000000000000000e+00 0.0000000000000000e+00  0.0000000000000000e+00 0.0000000000000000e+00 0.0000000000000000e+00  0.0000000000000000e+00 0.0000000000000000e+00 0.0000000000000000e+00  0.0000000000000000e+00 0.0000000000000000e+00 0.0000000000000000e+00  0.0000000000000000e+00 0.0000000000000000e+00 0.0000000000000000e+00  0.0000000000000000e+00 0.0000000000000000e+00 0.0000000000000000e+00  0.0000000000000000e+00 0.0000000000000000e+00 0.0000000000000000e+00  0.0000000000000000e+00 0.0000000000000000e+00 0.0000000000000000e+00  0.0000000000000000e+00 0.0000000000000000e+00 0.0000000000000000e+00  0.0000000000000000e+00 0.0000000000000000e+00 0.0000000000000000e+00  0.0000000000000000e+00 0.0000000000000000e+00 0.0000000000000000e+00  0.0000000000000000e+00 0.0000000000000000e+00 0.0000000000000000e+00  0.0000000000000000e+00 0.0000000000000000e+00 0.0000000000000000e+00  0.0000000000000000e+00 0.0000000000000000e+00 0.0000000000000000e+00  0.0000000000000000e+00 0.0000000000000000e+00 0.0000000000000000e+00  0.0000000000000000e+00 0.0000000000000000e+00 0.0000000000000000e+00  0.0000000000000000e+00 0.0000000000000000e+00 0.0000000000000000e+00  0.0000000000000000e+00 0.0000000000000000e+00 0.0000000000000000e+00  0.0000000000000000e+00 0.0000000000000000e+00 0.0000000000000000e+00  0.0000000000000000e+00 0.0000000000000000e+00 0.0000000000000000e+00  0.0000000000000000e+00 0.0000000000000000e+00 0.0000000000000000e+00  0.0000000000000000e+00 0.0000000000000000e+00 0.0000000000000000e+00  0.0000000000000000e+00 0.0000000000000000e+00 0.0000000000000000e+00  0.0000000000000000e+00 0.0000000000000000e+00 0.0000000000000000e+00  0.0000000000000000e+00 0.0000000000000000e+00 0.0000000000000000e+00  0.0000000000000000e+00 0.0000000000000000e+00 0.0000000000000000e+00  0.0000000000000000e+00 0.0000000000000000e+00 0.0000000000000000e+00  0.0000000000000000e+00 0.0000000000000000e+00 0.0000000000000000e+00  0.0000000000000000e+00 0.0000000000000000e+00 0.0000000000000000e+00  0.0000000000000000e+00 0.0000000000000000e+00 0.0000000000000000e+00  0.0000000000000000e+00 0.0000000000000000e+00 0.0000000000000000e+00  0.0000000000000000e+00 0.0000000000000000e+00 0.0000000000000000e+00  0.0000000000000000e+00 0.0000000000000000e+00 0.0000000000000000e+00  0.0000000000000000e+00 0.0000000000000000e+00 0.0000000000000000e+00  0.0000000000000000e+00 0.0000000000000000e+00 0.0000000000000000e+00  0.0000000000000000e+00 0.0000000000000000e+00 0.0000000000000000e+00  0.0000000000000000e+00 0.0000000000000000e+00 0.0000000000000000e+00  0.0000000000000000e+00 0.0000000000000000e+00 0.0000000000000000e+00  0.0000000000000000e+00 0.0000000000000000e+00 0.0000000000000000e+00  0.0000000000000000e+00 0.0000000000000000e+00 0.0000000000000000e+00  0.0000000000000000e+00 0.0000000000000000e+00 0.0000000000000000e+00  0.0000000000000000e+00 0.0000000000000000e+00 0.0000000000000000e+00  0.0000000000000000e+00 0.0000000000000000e+00 0.0000000000000000e+00  0.0000000000000000e+00 0.0000000000000000e+00 0.0000000000000000e+00  0.0000000000000000e+00 0.0000000000000000e+00 0.0000000000000000e+00  0.0000000000000000e+00 0.0000000000000000e+00 0.0000000000000000e+00  0.0000000000000000e+00 0.0000000000000000e+00 0.0000000000000000e+00  0.0000000000000000e+00 0.0000000000000000e+00 0.0000000000000000e+00  0.0000000000000000e+00 0.0000000000000000e+00 0.0000000000000000e+00  0.0000000000000000e+00 0.0000000000000000e+00 0.0000000000000000e+00  0.0000000000000000e+00 0.0000000000000000e+00 0.0000000000000000e+00  0.0000000000000000e+00 0.0000000000000000e+00 0.0000000000000000e+00  0.0000000000000000e+00 0.0000000000000000e+00 0.0000000000000000e+00  0.0000000000000000e+00 0.0000000000000000e+00 0.0000000000000000e+00  0.0000000000000000e+00 0.0000000000000000e+00 0.0000000000000000e+00  0.0000000000000000e+00 0.0000000000000000e+00 0.0000000000000000e+00  0.0000000000000000e+00 0.0000000000000000e+00 0.0000000000000000e+00  0.0000000000000000e+00 0.0000000000000000e+00 0.0000000000000000e+00  0.0000000000000000e+00 0.0000000000000000e+00 0.0000000000000000e+00  0.0000000000000000e+00 0.0000000000000000e+00 0.0000000000000000e+00  0.0000000000000000e+00 0.0000000000000000e+00 0.0000000000000000e+00  0.0000000000000000e+00 0.0000000000000000e+00 0.0000000000000000e+00  0.0000000000000000e+00 0.0000000000000000e+00 0.0000000000000000e+00  0.0000000000000000e+00 0.0000000000000000e+00 0.0000000000000000e+00  0.0000000000000000e+00 0.0000000000000000e+00 0.0000000000000000e+00  0.0000000000000000e+00 0.0000000000000000e+00 0.0000000000000000e+00  0.0000000000000000e+00 0.0000000000000000e+00 0.0000000000000000e+00  0.0000000000000000e+00 0.0000000000000000e+00 0.0000000000000000e+00  0.0000000000000000e+00 0.0000000000000000e+00 0.0000000000000000e+00  0.0000000000000000e+00 0.0000000000000000e+00 0.0000000000000000e+00  0.0000000000000000e+00 0.0000000000000000e+00 0.0000000000000000e+00  0.0000000000000000e+00 0.0000000000000000e+00 0.0000000000000000e+00  0.0000000000000000e+00 0.0000000000000000e+00 0.0000000000000000e+00  -1.5446644523266962e-05 1.6315367556053006e-05 0.0000000000000000e+00  -3.2867142616335315e-05 3.4002176240517518e-05 0.0000000000000000e+00  -4.8408797783048412e-05 6.2330087787917080e-05 0.0000000000000000e+00  -6.5079374384827859e-05 1.0196456138735072e-04 0.0000000000000000e+00  -7.9083899898161876e-05 1.5100207649257948e-04 0.0000000000000000e+00  -9.4633464504227847e-05 2.1029713450900208e-04 0.0000000000000000e+00  -1.0722604684158873e-04 2.7706093762185188e-04 0.0000000000000000e+00  -1.1931684199661748e-04 3.5354765767085789e-04 0.0000000000000000e+00  -1.3286193030388199e-04 4.3729584865483947e-04 0.0000000000000000e+00  -1.4329144194554847e-04 5.2848266285593967e-04 0.0000000000000000e+00  -1.5556694237898924e-04 6.2690469291979876e-04 0.0000000000000000e+00  -1.6489909548554789e-04 7.3180082215477851e-04 0.0000000000000000e+00  -1.7549703430080584e-04 8.4288358080653156e-04 0.0000000000000000e+00  -1.8397806234478478e-04 9.5884846172144937e-04 0.0000000000000000e+00  -1.9202158048466282e-04 1.0807303920273592e-03 0.0000000000000000e+00  -2.0077577459646432e-04 1.2069564243115893e-03 0.0000000000000000e+00  -2.0751041187648832e-04 1.3375097832349907e-03 0.0000000000000000e+00  -2.1511005451343326e-04 1.4722233028234971e-03 0.0000000000000000e+00  -2.2088391444883938e-04 1.6104396601466767e-03 0.0000000000000000e+00  -2.2726166507873276e-04 1.7519391495885704e-03 0.0000000000000000e+00  -2.3236153962151346e-04 1.8963918397533052e-03 0.0000000000000000e+00  -2.3764093582961330e-04 2.0436497388110820e-03 0.0000000000000000e+00  -2.4192164317162859e-04 2.1928516150020532e-03 0.0000000000000000e+00  -2.4585977406075892e-04 2.3444913728555409e-03 0.0000000000000000e+00  -2.4991063256005446e-04 2.4977208225817255e-03 0.0000000000000000e+00  -2.5323515995545094e-04 2.6526951567281310e-03 0.0000000000000000e+00  -2.5637728367084350e-04 2.8091869899440364e-03 0.0000000000000000e+00  -2.5907971148140510e-04 2.9667872955463728e-03 0.0000000000000000e+00  -2.6159258830018781e-04 3.1256029420858675e-03 0.0000000000000000e+00  -2.6373591976990159e-04 3.2852231639492672e-03 0.0000000000000000e+00  -2.6569619063969636e-04 3.4457595990355916e-03 0.0000000000000000e+00  -2.6734147375235802e-04 3.6068519436866396e-03 0.0000000000000000e+00  -2.6881682297738352e-04 3.7686201307942377e-03 0.0000000000000000e+00  -2.7002224055036080e-04 3.9307452002880407e-03 0.0000000000000000e+00  -2.7105709882611407e-04 4.0933704985813852e-03 0.0000000000000000e+00  -2.7186940183834330e-04 4.2562128507200054e-03 0.0000000000000000e+00  -2.7252861661903200e-04 4.4194075794407976e-03 0.0000000000000000e+00  -2.7299601590016108e-04 4.5827191816671838e-03 0.0000000000000000e+00  -2.7331527545857500e-04 4.7462851643106938e-03 0.0000000000000000e+00  -2.7346188875637694e-04 4.9099015211966895e-03 0.0000000000000000e+00  -2.7345958229632990e-04 5.0736873755282842e-03 0.0000000000000000e+00  -2.7332277178988422e-04 5.2375089397900627e-03 0.0000000000000000e+00  -2.7302346155231476e-04 5.4014276258877534e-03 0.0000000000000000e+00  -2.7265114743375087e-04 5.5653895283978285e-03 0.0000000000000000e+00  -2.7210905882967717e-04 5.7293610767064004e-03 0.0000000000000000e+00  -2.7147398960554594e-04 5.8934502956665916e-03 0.0000000000000000e+00  -1.6039693741334564e-04 6.0568262547667975e-03 0.0000000000000000e+00  5.9540951306169943e-05 6.0547055352587129e-03 0.0000000000000000e+00  1.6840852891084857e-04 5.8895235351936609e-03 0.0000000000000000e+00  1.6763077249591662e-04 5.7251490914101066e-03 0.0000000000000000e+00  1.6693892472750458e-04 5.5607684930752965e-03 0.0000000000000000e+00  1.6635726583700931e-04 5.3964916479505715e-03 0.0000000000000000e+00  1.6586107040744808e-04 5.2322698885654212e-03 0.0000000000000000e+00  1.6549377936015818e-04 5.0681421909299666e-03 0.0000000000000000e+00  1.6516507625523769e-04 4.9041130698916531e-03 0.0000000000000000e+00  1.6497415419633246e-04 4.7401682916921551e-03 0.0000000000000000e+00  1.6479889302140139e-04 4.5764169732932418e-03 0.0000000000000000e+00  1.6474975334288856e-04 4.4127892163519453e-03 0.0000000000000000e+00  1.6466444227895206e-04 4.2494256091730300e-03 0.0000000000000000e+00  1.6471188702573493e-04 4.0862870489149824e-03 0.0000000000000000e+00  1.6465433374666957e-04 3.9235187381093861e-03 0.0000000000000000e+00  1.6473714941536873e-04 3.7611203591980022e-03 0.0000000000000000e+00  1.6462230194749480e-04 3.5992292451893231e-03 0.0000000000000000e+00  1.6467456842739713e-04 3.4378958064215600e-03 0.0000000000000000e+00  1.6441876185824844e-04 3.2772572999545686e-03 0.0000000000000000e+00  1.6436735912589510e-04 3.1174191606080522e-03 0.0000000000000000e+00  1.6387047842264158e-04 2.9585221791865709e-03 0.0000000000000000e+00  1.6363105284101555e-04 2.8007267862024468e-03 0.0000000000000000e+00  1.6276935683988056e-04 2.6441802778144736e-03 0.0000000000000000e+00  1.6223458170942862e-04 2.4891097302181227e-03 0.0000000000000000e+00  1.6092972908502773e-04 2.3357006240772083e-03 0.0000000000000000e+00  1.5988394906302163e-04 2.1839935619520742e-03 0.0000000000000000e+00  1.5862977104551655e-04 2.0347356000695958e-03 0.0000000000000000e+00  1.5654152617355213e-04 1.8873454019474611e-03 0.0000000000000000e+00  1.5455076681073244e-04 1.7429266342370098e-03 0.0000000000000000e+00  1.5183892360057851e-04 1.6012394405421752e-03 0.0000000000000000e+00  1.4908943354768862e-04 1.4630274440028078e-03 0.0000000000000000e+00  1.4555379065254214e-04 1.3282539319583540e-03 0.0000000000000000e+00  1.4196560331630561e-04 1.1974733331647593e-03 0.0000000000000000e+00  1.3697968000488952e-04 1.0714931035227526e-03 0.0000000000000000e+00  1.3267947234771036e-04 9.4950078286805948e-04 0.0000000000000000e+00  1.2795739069343341e-04 8.3357696697879547e-04 0.0000000000000000e+00  1.2145343575495521e-04 7.2206095111794163e-04 0.0000000000000000e+00  1.1523550512298310e-04 6.1735286334527520e-04 0.0000000000000000e+00  1.0776355005175751e-04 5.1882440063912179e-04 0.0000000000000000e+00  1.0040939507448866e-04 4.2728424928855068e-04 0.0000000000000000e+00  9.0913131739405316e-05 3.4392663221361581e-04 0.0000000000000000e+00  8.2712010859233438e-05 2.6724814429515068e-04 0.0000000000000000e+00  7.4034151186927496e-05 2.0044019252858436e-04 0.0000000000000000e+00  6.2614940344686538e-05 1.4079756169891483e-04 0.0000000000000000e+00  5.2134795177283644e-05 9.1488761012123126e-05 0.0000000000000000e+00  3.9167782010905331e-05 5.2266962617049769e-05 0.0000000000000000e+00  2.7459692173701692e-05 2.3924162436743831e-05 0.0000000000000000e+00  1.3005636408475049e-05 6.7763066357764059e-06 0.0000000000000000e+00  -1.3155330889833302e-06 1.2336914777280542e-05 0.0000000000000000e+00  -5.4478938736233199e-05 5.8089800333565589e-03 0.0000000000000000e+00  -5.7484398923614506e-05 5.4952107697339306e-03 0.0000000000000000e+00  -5.6466959880871813e-05 4.9830431319562215e-03 0.0000000000000000e+00  -5.3598279070651144e-06 6.8920856203618486e-05 0.0000000000000000e+00  -5.4047219723905106e-05 4.6612619893845811e-03 0.0000000000000000e+00  -8.1651515219762631e-06 1.6329251049362995e-04 0.0000000000000000e+00  -5.3661468644354673e-05 4.3342558483044366e-03 0.0000000000000000e+00  -1.3677086179684045e-05 3.8782411884990631e-04 0.0000000000000000e+00  -1.8962813914829701e-05 5.6768150318313503e-04 0.0000000000000000e+00  -5.2845711212715789e-05 4.0081834058664119e-03 0.0000000000000000e+00  -2.6207695118927291e-05 1.1407973592896564e-03 0.0000000000000000e+00  -5.0011312217551684e-05 3.3609347041742895e-03 0.0000000000000000e+00  -2.0728710336507458e-05 7.6880364792625299e-04 0.0000000000000000e+00  -3.1993800279718724e-05 1.3972912585931471e-03 0.0000000000000000e+00  -4.8041460347820535e-05 3.0412707682195531e-03 0.0000000000000000e+00  -5.1621379376282375e-05 3.6835247500741656e-03 0.0000000000000000e+00  -3.5440135206648333e-05 1.6741713267846149e-03 0.0000000000000000e+00  -4.5728204551453067e-05 2.7256285677965111e-03 0.0000000000000000e+00  -3.6000151542002553e-05 1.9515008029546690e-03 0.0000000000000000e+00  -4.5791036029532177e-05 2.4217419651164965e-03 0.0000000000000000e+00  -4.0773420945602388e-05 2.1750435123160969e-03 0.0000000000000000e+00  -2.5737779034004756e-05 9.4128321831467255e-04 0.0000000000000000e+00  -5.3171774645086463e-05 5.2492008238113584e-03 0.0000000000000000e+00  -1.1958729908063630e-05 2.6221888835720300e-04 0.0000000000000000e+00  2.1134986455256687e-05 5.6501966445902463e-03 0.0000000000000000e+00  9.9950270469962684e-06 3.4027264433951527e-05 0.0000000000000000e+00  9.7133145974766366e-06 4.4967479580897522e-03 0.0000000000000000e+00  9.6811323630982831e-06 4.8241539750100218e-03 0.0000000000000000e+00  -2.9993495769822160e-05 1.1601829963915635e-04 0.0000000000000000e+00  -5.2320024247048719e-05 4.7448031016828320e-04 0.0000000000000000e+00  1.1824812502538132e-05 3.5208597134766834e-03 0.0000000000000000e+00  1.0112492318877798e-05 4.1700993600189661e-03 0.0000000000000000e+00  -8.0823433291216459e-05 1.2660516363352853e-03 0.0000000000000000e+00  1.3016194348089502e-05 3.1995849922046883e-03 0.0000000000000000e+00  -6.1206197233643368e-05 6.7159956700631586e-04 0.0000000000000000e+00  -8.7256261383160931e-05 1.5356820215137632e-03 0.0000000000000000e+00  1.4344095734562114e-05 2.8817643961169086e-03 0.0000000000000000e+00  1.0836328357948780e-05 3.8446141851656802e-03 0.0000000000000000e+00  -1.0531436023001008e-04 1.8177223339271916e-03 0.0000000000000000e+00  1.5756665363670833e-05 2.5686123057389091e-03 0.0000000000000000e+00  -2.5052732880867328e-06 3.8153080867168021e-06 0.0000000000000000e+00  2.2218469864594650e-06 1.3723046503034251e-06 0.0000000000000000e+00  -1.0444987747644960e-04 5.9386268630730599e-03 0.0000000000000000e+00  -1.8195118524616961e-05 3.8107290738525980e-05 0.0000000000000000e+00  3.0841211832994374e-05 2.2953907640660778e-03 0.0000000000000000