<?xml version="1.0"?>
<VTKFile type="UnstructuredGrid"  version="0.1"  >
<UnstructuredGrid>
<Piece  NumberOfPoints="196" NumberOfCells="338">
<Points>
<DataArray  type="Float64"  NumberOfComponents="3"  format="ascii">0.4917096175621762 0.1999999999998808 0  0.4842413153250809 0.1970915826863873 0  0.4842413153245942 0.2040749161535287 0  0.5066462220363641 0.199999999999908 0  0.4991779197992749 0.1970915826863902 0  0.4991779197988497 0.2040749161535382 0  0.5215828265105155 0.1999999999999228 0  0.5141145242734466 0.1970915826863843 0  0.5141145242731028 0.2040749161535395 0  0.5365194309847112 0.1999999999999436 0  0.5290511287476175 0.1970915826863981 0  0.5290511287473298 0.2040749161535501 0  0.5439877332217911 0.197091582686394 0  0.5439623148931173 0.2040856076781014 0  0.476773013087985 0.1999999999998713 0  0.5327852798661811 0.19 0  0.5253169776290537 0.19 0  0.547721884340339 0.19 0  0.5402535821032429 0.19 0  0.5178486753919799 0.19 0  0.5103803731549078 0.19 0  0.502912070917822 0.19 0  0.4954437686807294 0.19 0  0.4693047108503577 0.2040749161535231 0  0.4767730130872753 0.2056971942287455 0  0.4917096175615203 0.2056971942287492 0  0.5066462220358396 0.2056971942287649 0  0.5215828265100828 0.2056971942287677 0  0.5365194309843644 0.2056971942287865 0  0.5365194309847112 0.1943028057711659 0  0.5215828265105155 0.1943028057711514 0  0.4879754664436223 0.19 0  0.4917096175621761 0.1943028057711214 0  0.5066462220363641 0.1943028057711422 0  0.480507164205851 0.21 0  0.4879754664429498 0.21 0  0.4655705597315852 0.21 0  0.4730388619686996 0.21 0  0.5103803731544119 0.21 0  0.5178486753915261 0.21 0  0.5402535821029386 0.21 0  0.54772188434007 0.21 0  0.4954437686800938 0.21 0  0.502912070917267 0.21 0  0.5253169776286404 0.21 0  0.5327852798657868 0.21 0  0.5022733717445609 0.2484520140959261 0  0.5039200503329727 0.2634569969024956 0  0.4870587955368383 0.2511092200731516 0  0.4619845553363554 0.2471559623297018 0  0.4744155700740079 0.2566595549135983 0  0.4718174066442032 0.2448602332187449 0  0.4319631996644723 0.2259854221051505 0  0.4420138570927455 0.2303582032589531 0  0.4274409436629797 0.2358490737568498 0  0.5209814004512184 0.2362962593649592 0  0.5347760817351684 0.2414500964404198 0  0.5183393333239584 0.2464065549333135 0  0.5166834276845828 0.2571581640138182 0  0.4421897352483806 0.3061937447056332 0  0.418091171977014 0.3243162836372635 0  0.412607471649106 0.2990503898016255 0  0.4787056372270673 0.2371901345199761 0  0.4898985359610427 0.2395108277223441 0  0.4302139512950107 0.2879708289588951 0  0.5380469068795991 0.270190988877121 0  0.5593867837568711 0.2625481287604455 0  0.5487739828661812 0.2837987172973246 0  0.4852224147682477 0.2693506158480865 0  0.537795959080102 0.3217164911732622 0  0.5084674509460629 0.3444400826937225 0  0.512571303534115 0.315294881441146 0  0.4679743527986476 0.2938700081288894 0  0.4504932786869968 0.2799586344600427 0  0.499237761463083 0.2192785032300353 0  0.4333214399877798 0.2707568063501644 0  0.4117097904773068 0.2792362674983541 0  0.4219952157594144 0.2615029378934271 0  0.4687683012296924 0.2234572950360006 0  0.4652183412607249 0.234253800772318 0  0.4767526104577227 0.2273866629412239 0  0.4707920865830447 0.3486070579413962 0  0.4787676469414335 0.3785383868246253 0  0.4356973507830418 0.21 0  0.4431656530201649 0.21 0  0.4391642236404037 0.2185040792853546 0  0.4993542269391089 0.2308107468212473 0  0.5064903940750056 0.2246838314870058 0  0.5123638022628456 0.2310955071885417 0  0.4626056464247933 0.2175583716511612 0  0.4543958902951323 0.217783002687627 0  0.4618276563023947 0.226295708468006 0  0.544963993717515 0.2555062458890662 0  0.536567636007916 0.2275987754591341 0  0.5283542774025207 0.2302880001042248 0  0.5455709551586724 0.2324144452751203 0  0.546982877175164 0.2233942294772845 0  0.5365194309843644 0.2180863504285254 0  0.5444469726554123 0.2157339702670886 0  0.5588244563271773 0.225349035787779 0  0.5519051872593019 0.2166420053265535 0  0.4601355054144107 0.2625386919569297 0  0.4713424846317688 0.2745508899070743 0  0.4166532952113353 0.2316189381631693 0  0.4140433986437475 0.2417572010675891 0  0.4537654266604936 0.2283937178128906 0  0.4470337295051696 0.2214450572771946 0  0.5084573036363184 0.2395108277223441 0  0.5299710643811397 0.2566376774421922 0  0.4091898654769304 0.2539103800220315 0  0.4020607667170538 0.2413000663289324 0  0.3933451459320382 0.2499378971246431 0  0.4468857282753376 0.2152350613820568 0  0.541625169083316 0.3526746646055688 0  0.4386378054355863 0.2427664002734886 0  0.4895894057788134 0.3280526958589806 0  0.398571556794488 0.2667712515333163 0  0.5216178319364539 0.1813492122870838 0  0.3871533862418662 0.2377916209307866 0  0.3951819405974831 0.2310626528016624 0  0.5265047000024197 0.2223941974774756 0  0.5173146390988945 0.3796900489573174 0  0.424428444001246 0.2176032464898874 0  0.4319631996644723 0.2156279113565238 0  0.5292128724209423 0.2936972872082567 0  0.5209430201332119 0.2710369260536757 0  0.507058739830649 0.2805607505285516 0  0.398267784857306 0.2897726550924405 0  0.5286910337265995 0.2154702409242758 0  0.4581022574944306 0.21 0  0.5150278681324471 0.2228450308306156 0  0.5214285426002536 0.2161011329323836 0  0.4767730130872752 0.2184019876485795 0  0.4904006859619667 0.3067892894525832 0  0.4892189727163938 0.2873772533228455 0  0.4192410422903348 0.3546402176185522 0  0.4444416418673275 0.3371826323410143 0  0.4460062899873121 0.3720706817615101 0  0.4676405937283705 0.3189200602945363 0  0.4510553949639345 0.2400598894424664 0  0.4244157537195716 0.2482530512201678 0  0.5504647692515866 0.2417078359721865 0  0.4105467584982695 0.2658772111092724 0  0.553378981997341 0.2322691570724318 0  0.5869673343225223 0.41 0  0.5770529515268702 0.3629450529032476 0  0.5527077665762991 0.3828459005111343 0  0.448875629425473 0.2527683700708778 0  0.4910031975930484 0.2171006717137592 0  0.5075668509025225 0.2171084086245455 0  0.5683897549737816 0.3290580395153129 0  0.401463131821351 0.2240614152536154 0  0.4065987454210035 0.2329337197796252 0  0.3909674209965625 0.2226356941037057 0  0.4207607463087888 0.21 0  0.4282290485459029 0.21 0  0.4357040734592776 0.2558482019948566 0  0.5143590539697885 0.2155988592715468 0  0.4095582929531458 0.2174316143878764 0  0.4102372344314323 0.2256491670083618 0  0.5561563723763112 0.3041501920577169 0  0.5066462220363641 0.1826726487251085 0  0.4236090047368721 0.2262216159300549 0  0.5208355992062484 0.2285465546466679 0  0.5631143150331265 0.2366473934541688 0  0.556227780909367 0.2515606281824664 0  0.5366299525895074 0.1825690825227473 0  0.4869999746943883 0.2308048359320609 0  0.4169851174148118 0.2217509578443784 0  0.5141191916635692 0.1837683957184422 0  0.5290511287476175 0.1834818376483974 0  0.5114371803269665 0.2974349400710795 0  0.4693357546089872 0.2160476853278769 0  0.4841984187204001 0.2159109988582109 0  0.4895008759292634 0.41 0  0.4433053055145528 0.41 0  0.4506339552573136 0.21 0  0.5294745265341012 0.1761054820336709 0  0.4923756029794709 0.2245693836696246 0  0.5141145242734466 0.1755365127551412 0  0.4846260107628763 0.2228898464509046 0  0.5373680609412221 0.41 0  0.4997232129797319 0.2393335372925151 0  0.5215828265105156 0.1622083790703317 0  0.5349004284018322 0.1565876018036672 0  0.5316967135713353 0.1673421178078786 0  0.4460825720969575 0.2652057710885948 0  0.4170265951902442 0.2149173540338034 0  0.5216289307659581 0.1713997813123399 0  0.506016929739597 0.1741809711526895 0  0.5371890579013414 0.1744210598886847 0  0.4991779197992735 0.1849089375109228 0  0.5439877332217911 0.1852618121745313 0  0.5115929969788211 0.1672556638427288 0  0.5439877332217904 0.1783210023422619 0  0.3862411203249935 0.2293080201888169 0  </DataArray>
</Points>
<Cells>
<DataArray  type="UInt32"  Name="connectivity"  format="ascii">0 1 2  3 4 5  6 7 8  9 10 11  9 12 13  6 10 11  3 7 8  0 4 5  14 1 2  15 16 10  17 18 12  19 20 7  21 22 4  14 23 24  0 2 25  3 5 26  6 8 27  9 11 28  9 13 28  6 11 27  3 8 26  0 5 25  14 2 24  15 10 29  16 10 30  6 10 30  18 12 29  9 10 29  9 12 29  31 1 32  20 7 33  21 4 33  22 4 32  19 7 30  3 4 33  3 7 33  0 1 32  0 4 32  6 7 30  34 35 2  36 37 23  38 39 8  40 41 13  42 43 5  44 45 11  34 2 24  37 23 24  35 2 25  42 5 25  38 8 26  43 5 26  44 11 27  45 11 28  40 13 28  39 8 27  37 34 24  35 42 25  43 38 26  45 40 28  39 44 27  22 31 32  18 15 29  20 21 33  16 19 30  46 47 48  49 50 51  52 53 54  55 56 57  46 58 57  59 60 61  62 63 48  59 64 61  65 66 67  68 47 48  69 70 71  59 72 73  42 43 74  75 76 77  78 79 80  62 48 51  81 70 82  83 84 85  86 87 88  89 90 91  65 66 92  59 64 73  93 56 94  93 56 95  75 76 64  96 97 98  99 96 100  101 50 102  103 54 104  105 106 90  101 49 50  46 107 57  56 108 57  109 110 111  84 85 112  93 96 97  69 70 113  114 53 54  81 70 115  106 85 53  109 116 111  46 58 47  105 90 91  16 19 117  118 110 119  105 106 53  93 120 97  70 121 82  52 122 123  68 50 102  65 124 125  126 68 47  76 116 127  120 97 128  62 79 80  129 36 89  130 120 131  37 34 132  55 56 94  133 72 134  135 136 137  133 72 138  105 79 139  114 140 54  52 85 53  75 64 73  59 72 138  126 124 125  141 56 92  105 53 139  45 40 97  76 77 142  86 107 88  99 96 143  144 145 146  141 56 95  101 49 147  81 136 137  140 54 104  42 74 148  43 74 149  65 124 67  126 68 134  69 113 150  118 110 111  59 60 136  151 119 152  50 48 51  151 153 119  93 96 95  154 155 122  114 147 139  135 60 136  110 119 152  114 140 156  130 157 131  151 158 159  124 67 160  20 21 161  68 50 48  52 122 162  130 120 163  141 164 165  18 15 166  58 125 108  49 147 139  86 63 167  109 140 104  49 79 139  103 168 159  103 168 162  133 71 115  19 117 169  16 117 170  96 95 143  129 89 90  126 124 171  106 85 112  59 138 136  81 138 136  36 89 172  37 132 172  34 132 173  103 54 162  35 42 148  72 134 102  52 85 123  43 38 149  52 54 162  109 140 77  101 73 102  68 134 102  69 124 160  174 175 82  114 53 139  176 129 90  177 166 170  93 120 94  70 113 121  86 178 167  109 110 104  175 137 82  114 147 156  65 125 108  55 107 88  81 138 115  179 161 169  40 97 98  45 97 128  83 85 123  180 148 173  130 149 157  76 116 142  62 63 167  181 174 121  19 20 169  70 71 115  15 16 170  86 63 182  62 80 167  36 37 172  34 35 173  86 107 182  38 39 157  145 113 150  140 77 156  103 104 152  76 64 61  62 79 51  69 124 71  58 108 57  180 80 167  183 184 185  144 181 146  147 156 186  155 122 123  154 122 187  177 117 188  20 161 169  179 117 188  180 148 178  39 44 131  15 166 170  69 150 160  58 47 125  130 149 87  126 134 171  75 77 156  179 161 189  101 73 186  177 166 190  40 41 98  75 156 186  35 148 173  75 73 186  38 149 157  21 161 191  18 166 192  78 79 91  44 45 128  177 117 170  177 185 188  56 92 108  55 107 57  155 83 123  179 117 169  174 121 82  179 193 188  72 73 102  86 74 178  133 138 115  133 134 171  86 74 87  78 89 172  78 132 172  180 132 173  39 157 131  176 90 112  141 92 165  103 159 152  113 121 146  105 79 91  74 148 178  74 149 87  49 79 51  101 147 186  110 104 152  41 100 98  44 131 128  183 185 188  168 158 159  168 122 162  81 137 82  99 164 143  168 158 187  168 122 187  106 90 112  46 63 182  21 22 191  183 193 188  130 87 88  46 107 182  84 176 112  17 18 192  126 47 125  78 89 91  78 132 80  180 132 80  179 189 193  133 71 171  124 71 171  46 63 48  145 113 146  109 116 142  76 61 127  141 164 143  194 166 190  177 190 185  65 92 108  194 166 192  66 92 165  153 119 195  151 159 152  181 121 146  118 119 195  96 100 98  120 131 128  109 77 142  180 178 167  120 94 163  130 163 88  141 95 143  55 163 88  55 94 163  </DataArray>
<DataArray  type="UInt32"  Name="offsets"  format="ascii">3 6 9 12 15 18 21 24 27 30 33 36 39 42 45 48 51 54 57 60 63 66 69 72 75 78 81 84 87 90 93 96 99 102 105 108 111 114 117 120 123 126 129 132 135 138 141 144 147 150 153 156 159 162 165 168 171 174 177 180 183 186 189 192 195 198 201 204 207 210 213 216 219 222 225 228 231 234 237 240 243 246 249 252 255 258 261 264 267 270 273 276 279 282 285 288 291 294 297 300 303 306 309 312 315 318 321 324 327 330 333 336 339 342 345 348 351 354 357 360 363 366 369 372 375 378 381 384 387 390 393 396 399 402 405 408 411 414 417 420 423 426 429 432 435 438 441 444 447 450 453 456 459 462 465 468 471 474 477 480 483 486 489 492 495 498 501 504 507 510 513 516 519 522 525 528 531 534 537 540 543 546 549 552 555 558 561 564 567 570 573 576 579 582 585 588 591 594 597 600 603 606 609 612 615 618 621 624 627 630 633 636 639 642 645 648 651 654 657 660 663 666 669 672 675 678 681 684 687 690 693 696 699 702 705 708 711 714 717 720 723 726 729 732 735 738 741 744 747 750 753 756 759 762 765 768 771 774 777 780 783 786 789 792 795 798 801 804 807 810 813 816 819 822 825 828 831 834 837 840 843 846 849 852 855 858 861 864 867 870 873 876 879 882 885 888 891 894 897 900 903 906 909 912 915 918 921 924 927 930 933 936 939 942 945 948 951 954 957 960 963 966 969 972 975 978 981 984 987 990 993 996 999 1002 1005 1008 1011 1014 </DataArray>
<DataArray  type="UInt8"  Name="types"  format="ascii">5 5 5 5 5 5 5 5 5 5 5 5 5 5 5 5 5 5 5 5 5 5 5 5 5 5 5 5 5 5 5 5 5 5 5 5 5 5 5 5 5 5 5 5 5 5 5 5 5 5 5 5 5 5 5 5 5 5 5 5 5 5 5 5 5 5 5 5 5 5 5 5 5 5 5 5 5 5 5 5 5 5 5 5 5 5 5 5 5 5 5 5 5 5 5 5 5 5 5 5 5 5 5 5 5 5 5 5 5 5 5 5 5 5 5 5 5 5 5 5 5 5 5 5 5 5 5 5 5 5 5 5 5 5 5 5 5 5 5 5 5 5 5 5 5 5 5 5 5 5 5 5 5 5 5 5 5 5 5 5 5 5 5 5 5 5 5 5 5 5 5 5 5 5 5 5 5 5 5 5 5 5 5 5 5 5 5 5 5 5 5 5 5 5 5 5 5 5 5 5 5 5 5 5 5 5 5 5 5 5 5 5 5 5 5 5 5 5 5 5 5 5 5 5 5 5 5 5 5 5 5 5 5 5 5 5 5 5 5 5 5 5 5 5 5 5 5 5 5 5 5 5 5 5 5 5 5 5 5 5 5 5 5 5 5 5 5 5 5 5 5 5 5 5 5 5 5 5 5 5 5 5 5 5 5 5 5 5 5 5 5 5 5 5 5 5 5 5 5 5 5 5 5 5 5 5 5 5 5 5 5 5 5 5 5 5 5 5 5 5 5 5 5 5 5 5 5 5 5 5 5 5 5 5 5 5 5 5 </DataArray>
</Cells>
<PointData  Vectors="f_41-1"> 
<DataArray  type="Float64"  Name="f_41-1"  NumberOfComponents="3" format="ascii">-9.3597816301715125e-05 8.6797533646043460e-04 0.0000000000000000e+00  -6.2106768167792387e-05 7.9000432758370199e-04 0.0000000000000000e+00  -1.3291246394654107e-04 7.9187192877938281e-04 0.0000000000000000e+00  -9.7319417224258175e-05 1.0273509432904141e-03 0.0000000000000000e+00  -6.4735716468622098e-05 9.4640307677715306e-04 0.0000000000000000e+00  -1.3869334217157908e-04 9.4798819140055391e-04 0.0000000000000000e+00  -1.0055986327948656e-04 1.1914180731350044e-03 0.0000000000000000e+00  -6.7271062505469943e-05 1.1084427227647633e-03 0.0000000000000000e+00  -1.4350949775075790e-04 1.1097348519650992e-03 0.0000000000000000e+00  -1.0328010182275413e-04 1.3585293949121299e-03 0.0000000000000000e+00  -6.9613347227758508e-05 1.2743140953643236e-03 0.0000000000000000e+00  -1.4738606828138009e-04 1.2753085958352305e-03 0.0000000000000000e+00  -7.1668744065509732e-05 1.4425498531830271e-03 0.0000000000000000e+00  -1.5050360855892609e-04 1.4429649356553708e-03 0.0000000000000000e+00  -8.9448739936522686e-05 7.1523216360326039e-04 0.0000000000000000e+00  9.1415197153696165e-06 1.3156147842750946e-03 0.0000000000000000e+00  9.6440814644935418e-06 1.2319345538475287e-03 0.0000000000000000e+00  7.9829154516432314e-06 1.4844074688449840e-03 0.0000000000000000e+00  8.5748402316911657e-06 1.3998215391129146e-03 0.0000000000000000e+00  1.0057355538672329e-05 1.1489269524008656e-03 0.0000000000000000e+00  1.0340069927344066e-05 1.0667922803503066e-03 0.0000000000000000e+00  1.0467852369996069e-05 9.8571940409447742e-04 0.0000000000000000e+00  1.0404657656389557e-05 9.0595439785491844e-04 0.0000000000000000e+00  -1.2618089728887326e-04 6.4342339895897876e-04 0.0000000000000000e+00  -1.4570844124106572e-04 7.1720425919795979e-04 0.0000000000000000e+00  -1.5280811823617082e-04 8.6964478592747190e-04 0.0000000000000000e+00  -1.5873058871064284e-04 1.0287136780820498e-03 0.0000000000000000e+00  -1.6350487124336396e-04 1.1924778114564215e-03 0.0000000000000000e+00  -1.6720999700050345e-04 1.3592984973696915e-03 0.0000000000000000e+00  -3.9420839436609462e-05 1.3579594382578638e-03 0.0000000000000000e+00  -3.7696332194771121e-05 1.1906791315832628e-03 0.0000000000000000e+00  1.0130612811975015e-05 8.2771923136945298e-04 0.0000000000000000e+00  -3.4480322137184564e-05 8.6696016767631170e-04 0.0000000000000000e+00  -3.5997041797620569e-05 1.0264629765178136e-03 0.0000000000000000e+00  -1.9094663131207624e-04 7.5654090620131298e-04 0.0000000000000000e+00  -1.9560590078151455e-04 8.3261440090621488e-04 0.0000000000000000e+00  -1.8030203865101506e-04 6.1080162291559563e-04 0.0000000000000000e+00  -1.8584346751094070e-04 6.8251389413914352e-04 0.0000000000000000e+00  -2.0695525557639779e-04 1.0705399174327135e-03 0.0000000000000000e+00  -2.0990271930423966e-04 1.1522815547561254e-03 0.0000000000000000e+00  -2.1653150382971987e-04 1.4019640305911382e-03 0.0000000000000000e+00  -2.1810256057595197e-04 1.4861556503627828e-03 0.0000000000000000e+00  -1.9982138250001602e-04 9.1047303398177277e-04 0.0000000000000000e+00  -2.0360169051645636e-04 9.8986169733697471e-04 0.0000000000000000e+00  -2.1246199981256767e-04 1.2348831886390276e-03 0.0000000000000000e+00  -2.1466337202601357e-04 1.3181627044665939e-03 0.0000000000000000e+00  -1.4805145774122238e-04 7.7011749538909201e-04 0.0000000000000000e+00  -1.2976190535028459e-04 6.9547059134344742e-04 0.0000000000000000e+00  -1.3973879035302937e-04 6.5742557230364014e-04 0.0000000000000000e+00  -1.3283049389611356e-04 5.1040817864937064e-04 0.0000000000000000e+00  -1.2831805123730960e-04 5.5821131381822626e-04 0.0000000000000000e+00  -1.4051728124702282e-04 5.8052328167967980e-04 0.0000000000000000e+00  -1.3410110255940408e-04 3.3736708473102269e-04 0.0000000000000000e+00  -1.3780254038302640e-04 4.0393205429945845e-04 0.0000000000000000e+00  -1.2120851508013548e-04 3.1229399104826624e-04 0.0000000000000000e+00  -1.6939497870369549e-04 9.8395152534045652e-04 0.0000000000000000e+00  -1.6342096010600306e-04 1.0404077842932765e-03 0.0000000000000000e+00  -1.5445169339874102e-04 8.9031833756775800e-04 0.0000000000000000e+00  -1.3983866499889648e-04 8.0528576610735495e-04 0.0000000000000000e+00  -7.0859712024908184e-05 2.7950651218093249e-04 0.0000000000000000e+00  -5.1104965472603866e-05 1.8155194186612360e-04 0.0000000000000000e+00  -6.5305469672672837e-05 2.0811124289650621e-04 0.0000000000000000e+00  -1.5319756222432042e-04 6.5415656061755783e-04 0.0000000000000000e+00  -1.5534801480387926e-04 7.2816586932534437e-04 0.0000000000000000e+00  -8.0292019376031537e-05 2.7857482254937396e-04 0.0000000000000000e+00  -1.2406689988938145e-04 8.1105494034625168e-04 0.0000000000000000e+00  -1.3017089206453792e-04 9.5290600069219034e-04 0.0000000000000000e+00  -1.0678357008736715e-04 7.3692094970856750e-04 0.0000000000000000e+00  -1.1823417419140420e-04 5.6810443334915945e-04 0.0000000000000000e+00  -6.9998794704761324e-05 4.5799027920832706e-04 0.0000000000000000e+00  -5.0503998023593700e-05 2.9173281848708090e-04 0.0000000000000000e+00  -7.6116352950682028e-05 4.4354590001193704e-04 0.0000000000000000e+00  -8.8852596173555221e-05 3.9992476174929571e-04 0.0000000000000000e+00  -9.5306373498116860e-05 3.7191792417212781e-04 0.0000000000000000e+00  -1.8759906764492451e-04 9.0403394931866789e-04 0.0000000000000000e+00  -9.5219740926300793e-05 3.1710503319462520e-04 0.0000000000000000e+00  -7.7806348821103221e-05 2.2622394493231873e-04 0.0000000000000000e+00  -9.6218615797502677e-05 2.7810560743638072e-04 0.0000000000000000e+00  -1.6485897192558367e-04 6.1488634523575170e-04 0.0000000000000000e+00  -1.4933810965046078e-04 5.6274627320075329e-04 0.0000000000000000e+00  -1.6466608064684098e-04 6.7082831939555476e-04 0.0000000000000000e+00  -4.4277090953869527e-05 2.1546373196869648e-04 0.0000000000000000e+00  -2.2656456966382365e-05 1.1606488447432992e-04 0.0000000000000000e+00  -1.5402653144313500e-04 3.5233760639685600e-04 0.0000000000000000e+00  -1.6116984766368538e-04 4.1219023453768105e-04 0.0000000000000000e+00  -1.4800304540267501e-04 3.8466769797441345e-04 0.0000000000000000e+00  -1.7091324217972822e-04 8.4493483354402784e-04 0.0000000000000000e+00  -1.8252380657602700e-04 9.4157240545003499e-04 0.0000000000000000e+00  -1.7496094518486060e-04 9.5200164327635054e-04 0.0000000000000000e+00  -1.6812286136458793e-04 5.7339531398895830e-04 0.0000000000000000e+00  -1.6157025249399808e-04 5.0394375856408424e-04 0.0000000000000000e+00  -1.5670388639421108e-04 5.5303558060332161e-04 0.0000000000000000e+00  -1.4266656276072247e-04 9.6730928964334974e-04 0.0000000000000000e+00  -1.8539073081064701e-04 1.1850732640733919e-03 0.0000000000000000e+00  -1.7989854275000084e-04 1.0915223530960486e-03 0.0000000000000000e+00  -1.7789235155929220e-04 1.2064094890696991e-03 0.0000000000000000e+00  -1.9343907234927000e-04 1.3197908355562489e-03 0.0000000000000000e+00  -2.0144398866261528e-04 1.2790286314739402e-03 0.0000000000000000e+00  -2.0693828216803835e-04 1.3839098295861838e-03 0.0000000000000000e+00  -1.8959221232780221e-04 1.3932885000489824e-03 0.0000000000000000e+00  -2.0614166932401008e-04 1.4481280828591784e-03 0.0000000000000000e+00  -1.1583648284151607e-04 4.6089907845750267e-04 0.0000000000000000e+00  -1.0830015854224088e-04 4.8013617019678482e-04 0.0000000000000000e+00  -1.1595327487430851e-04 2.4988320319616411e-04 0.0000000000000000e+00  -1.0585150661296634e-04 2.4357519610147533e-04 0.0000000000000000e+00  -1.4862503885294299e-04 4.8854009198695547e-04 0.0000000000000000e+00  -1.5139512395687555e-04 4.4361371191675594e-04 0.0000000000000000e+00  -1.6178921312379004e-04 8.6670595539056023e-04 0.0000000000000000e+00  -1.4168864148909926e-04 8.8248669414428917e-04 0.0000000000000000e+00  -9.3475821275330575e-05 2.2571285643092521e-04 0.0000000000000000e+00  -9.6664486943005782e-05 1.8876215438257029e-04 0.0000000000000000e+00  -8.4597220167905557e-05 1.6237523425653263e-04 0.0000000000000000e+00  -1.5839617803627698e-04 4.4379617167424062e-04 0.0000000000000000e+00  -4.3484472505845024e-05 2.8882487622152559e-04 0.0000000000000000e+00  -1.2302569069232283e-04 3.7499904164787199e-04 0.0000000000000000e+00  -6.2904965532161730e-05 3.3047522035591884e-04 0.0000000000000000e+00  -7.8296430608011078e-05 1.8722107177279127e-04 0.0000000000000000e+00  7.7795327710967551e-06 1.1215731714958597e-03 0.0000000000000000e+00  -8.6316305742288303e-05 1.2557227018870619e-04 0.0000000000000000e+00  -9.7229306697888779e-05 1.4566096312547175e-04 0.0000000000000000e+00  -1.9213954696346790e-04 1.1428496919730243e-03 0.0000000000000000e+00  -2.2772160412325748e-05 1.3739508142001630e-04 0.0000000000000000e+00  -1.3531198029789748e-04 2.8080040761450204e-04 0.0000000000000000e+00  -1.4445801390817803e-04 3.3030270265656340e-04 0.0000000000000000e+00  -9.7716878414091490e-05 6.1298897023692484e-04 0.0000000000000000e+00  -1.2302443731567774e-04 7.3305056676975131e-04 0.0000000000000000e+00  -1.1067711344150970e-04 6.1422903936759641e-04 0.0000000000000000e+00  -6.4707587265226021e-05 1.7821160262424803e-04 0.0000000000000000e+00  -2.0415325809419979e-04 1.2242931524325828e-03 0.0000000000000000e+00  -1.7433084106624884e-04 5.4166951441994983e-04 0.0000000000000000e+00  -1.8826522608569453e-04 1.0320217363777337e-03 0.0000000000000000e+00  -2.0103469861849422e-04 1.1443831977931444e-03 0.0000000000000000e+00  -1.7668050882890210e-04 6.9722061431967588e-04 0.0000000000000000e+00  -8.1830553486779908e-05 4.2453860523486572e-04 0.0000000000000000e+00  -1.0036114770789647e-04 5.0689761786171423e-04 0.0000000000000000e+00  -3.2652651185478686e-05 1.2314066972873199e-04 0.0000000000000000e+00  -4.8660941868574417e-05 2.0501740966108860e-04 0.0000000000000000e+00  -2.4941953252430090e-05 1.0944482388552396e-04 0.0000000000000000e+00  -6.7188305953419197e-05 3.1297274149983924e-04 0.0000000000000000e+00  -1.3398948043540827e-04 4.5432729188767384e-04 0.0000000000000000e+00  -1.0833518774820545e-04 2.9533534849293121e-04 0.0000000000000000e+00  -1.6243075552993351e-04 1.1359410501325634e-03 0.0000000000000000e+00  -8.6137587261999167e-05 2.2978768390204243e-04 0.0000000000000000e+00  -1.7768974333510351e-04 1.2638290715961027e-03 0.0000000000000000e+00  0.0000000000000000e+00 0.0000000000000000e+00 0.0000000000000000e+00  -3.2847578062798637e-05 2.4899402221538437e-04 0.0000000000000000e+00  -1.9844223204430618e-05 1.3727644184788359e-04 0.0000000000000000e+00  -1.1974915885226336e-04 4.2100002894875197e-04 0.0000000000000000e+00  -1.8676854523865866e-04 8.3502834292735050e-04 0.0000000000000000e+00  -1.9448851344398642e-04 9.9746798721503556e-04 0.0000000000000000e+00  -6.0021379822829025e-05 4.4511477321219510e-04 0.0000000000000000e+00  -1.0768009320025142e-04 1.6098065335442950e-04 0.0000000000000000e+00  -1.0621800297624245e-04 2.0000417496087613e-04 0.0000000000000000e+00  -9.8163871062582458e-05 1.1048319714952819e-04 0.0000000000000000e+00  -1.3875098433108773e-04 2.4352448049831085e-04 0.0000000000000000e+00  -1.4654211859191349e-04 2.9604554470760952e-04 0.0000000000000000e+00  -1.0916770794204519e-04 3.4682210436140054e-04 0.0000000000000000e+00  -1.9947754139433948e-04 1.0757518316080374e-03 0.0000000000000000e+00  -1.2064987321324126e-04 1.8968931661276001e-04 0.0000000000000000e+00  -1.1491838597468135e-04 2.0824679452095167e-04 0.0000000000000000e+00  -8.4355826116234002e-05 5.9950889915588311e-04 0.0000000000000000e+00  8.6090347962882416e-06 9.8180682075914272e-04 0.0000000000000000e+00  -1.2663284076090765e-04 2.8496365206426354e-04 0.0000000000000000e+00  -1.8106488118495753e-04 1.0421849025765125e-03 0.0000000000000000e+00  -1.6812988510535599e-04 1.2665921149147880e-03 0.0000000000000000e+00  -1.4631205534341407e-04 1.0563299863943481e-03 0.0000000000000000e+00  7.0218554718506273e-06 1.2828179465198101e-03 0.0000000000000000e+00  -1.6553239207569653e-04 7.4286828402918585e-04 0.0000000000000000e+00  -1.2445467880435604e-04 2.4018128518697244e-04 0.0000000000000000e+00  8.6814300388345209e-06 1.0643009212299938e-03 0.0000000000000000e+00  7.8180203186953943e-06 1.2146813551261763e-03 0.0000000000000000e+00  -9.3351261343320921e-05 5.3641846076892311e-04 0.0000000000000000e+00  -1.7492939196203948e-04 6.3540770448321595e-04 0.0000000000000000e+00  -1.8469050615247941e-04 7.7419635527453418e-04 0.0000000000000000e+00  0.0000000000000000e+00 0.0000000000000000e+00 0.0000000000000000e+00  0.0000000000000000e+00 0.0000000000000000e+00 0.0000000000000000e+00  -1.6794748131686548e-04 4.7538143721118580e-04 0.0000000000000000e+00  6.0991708633097717e-06 1.1517956489041838e-03 0.0000000000000000e+00  -1.7670036350875675e-04 8.1535711801691108e-04 0.0000000000000000e+00  6.8201221513440086e-06 1.0061911987535345e-03 0.0000000000000000e+00  -1.7510059842832783e-04 7.5334111112513409e-04 0.0000000000000000e+00  0.0000000000000000e+00 0.0000000000000000e+00 0.0000000000000000e+00  -1.5930277863965818e-04 8.0231907223828134e-04 0.0000000000000000e+00  3.8557957727021047e-06 9.6866831729842690e-04 0.0000000000000000e+00  1.8336928574560370e-06 1.0141929301984861e-03 0.0000000000000000e+00  4.0869386436849628e-06 1.0904872980818895e-03 0.0000000000000000e+00  -1.0650980287939121e-04 3.8398126140183262e-04 0.0000000000000000e+00  -1.3039623953540073e-04 2.2895320677255779e-04 0.0000000000000000e+00  5.6121719855556152e-06 1.0419201279664974e-03 0.0000000000000000e+00  6.7238397268410845e-06 9.2383375411684047e-04 0.0000000000000000e+00  5.0784685803309727e-06 1.2048538994708573e-03 0.0000000000000000e+00  9.1654186253683734e-06 9.1953692152942545e-04 0.0000000000000000e+00  7.0497009057934097e-06 1.3874901152190582e-03 0.0000000000000000e+00  5.2250182479915009e-06 9.2693655657950325e-04 0.0000000000000000e+00  5.3060647322940486e-06 1.3079717923698277e-03 0.0000000000000000e+00  -8.9923750529287061e-05 1.0671588677058707e-04 0.0000000000000000e+00  </DataArray> 
</PointData> 
</Piece>
</UnstructuredGrid>
</VTKFile>