<?xml version="1.0"?>
<VTKFile type="UnstructuredGrid"  version="0.1"  >
<UnstructuredGrid>
<Piece  NumberOfPoints="194" NumberOfCells="338">
<Points>
<DataArray  type="Float64"  NumberOfComponents="3"  format="ascii">0.4207607463097617 0.19 0  0.4201487168029707 0.1999966199048527 0  0.4261685417851465 0.196409292431739 0  0.4145905603061963 0.1961819304479011 0  0.4207607463087888 0.21 0  0.4145905603063645 0.2038180695522843 0  0.4262598344738712 0.2036568242185335 0  0.446899804139621 0.1999999999998389 0  0.4394315019025246 0.1970915826863714 0  0.4394608940728603 0.2040870543693135 0  0.3946216884789568 0.2000000000001512 0  0.4020059614928624 0.203547899597858 0  0.4019979587101454 0.1959834479682427 0  0.4618364086138087 0.1999999999998546 0  0.4543681063767183 0.1970915826863795 0  0.4543681063761134 0.2040749161535186 0  0.476773013087985 0.1999999999998713 0  0.4693047108508938 0.1970915826863783 0  0.4693047108503577 0.2040749161535231 0  0.3871533862418661 0.2029084173136212 0  0.3871533862424271 0.1959250838464788 0  0.4089549580935208 0.1998691686391595 0  0.4322718174608562 0.200127451265745 0  0.4730388619694271 0.19 0  0.4655705597323621 0.19 0  0.4879754664436223 0.19 0  0.4805071642065402 0.19 0  0.4842413153250809 0.1970915826863873 0  0.4581022574952563 0.19 0  0.4506339552581777 0.19 0  0.3983558395975142 0.21 0  0.4058241418345938 0.21 0  0.4431656530210671 0.19 0  0.4356973507839815 0.19 0  0.4132924440726327 0.19 0  0.4132924440716992 0.21 0  0.4282290485468779 0.19 0  0.4468998041387391 0.2056971942287257 0  0.3946216884797873 0.1943028057712679 0  0.4618364086130068 0.2056971942287359 0  0.4319631996644724 0.205697194228716 0  0.4282290485459029 0.21 0  0.4090477820585017 0.1944069323162114 0  0.4767730130879849 0.1943028057711153 0  0.4618364086138088 0.1943028057711072 0  0.3908875373604028 0.21 0  0.3946216884789569 0.2056971942288966 0  0.446899804139621 0.194302805771098 0  0.4322275012857285 0.1945847121082109 0  0.409279320968396 0.2055930218740123 0  0.3908875373612097 0.19 0  0.3834192351240934 0.19 0  0.4506339552573136 0.21 0  0.4581022574944306 0.21 0  0.4058241418354857 0.19 0  0.3983558395983636 0.19 0  0.4356973507830418 0.21 0  0.4431656530201649 0.21 0  0.4655705597315852 0.21 0  0.3655464778159961 0.1466879707354811 0  0.3738358170836363 0.1565872175614931 0  0.383930166391577 0.149077512173999 0  0.4543681063767173 0.1676928600783137 0  0.4456512193123995 0.1563006663224736 0  0.4634554111966759 0.156587601803556 0  0.401463131821351 0.2240614152536154 0  0.4020899907160548 0.2165302463955136 0  0.3946216884789568 0.2158195727016258 0  0.5019588293971892 0.1448324961346233 0  0.5202014138752529 0.1378594850692911 0  0.5186581766834214 0.1505504706653799 0  0.4991779197992711 0.167693385507626 0  0.4900906149793102 0.1565876018036352 0  0.5082652246192162 0.1565876018036352 0  0.5461387848636305 0.1174764669537213 0  0.5361687701469152 0.1326608756097835 0  0.5197325460646487 0.1214075108099659 0  0.4953767731769588 0.1188694761679334 0  0.506255180108809 0.1312411055441881 0  0.3909674209965625 0.2226356941037057 0  0.4143465137990051 0.05322961011747924 0  0.3866266297147894 0.03466711669742863 0  0.3886771468199661 0.07134613381357163 0  0.3750556316230105 0.1339831864103567 0  0.4552963513014363 0.145444894720247 0  0.4735622322288027 0.1489594066447112 0  0.430606184336534 0.1007106891413896 0  0.4121197549442807 0.08306196356607598 0  0.4341927647953854 0.06945916972568383 0  0.5257318662464058 0.1055286630332995 0  0.4474989647342493 0.1297107067022473 0  0.4322147276797816 0.1208036360979848 0  0.4500639844785546 0.1038268107662773 0  0.4538259418580106 0.08513891830322172 0  0.4582183089687113 0.05889916916817712 0  0.4771650921173667 0.0345682490428623 0  0.4786311469264966 0.07193451402067624 0  0.3871183818181629 0.1813492091082587 0  0.3871533862426517 0.1622083790690482 0  0.4004709881341373 0.156587601801244 0  0.4319982050913569 0.1813492122870563 0  0.464700493006123 0.1337957577261608 0  0.4767380076620556 0.1813492122870721 0  0.5081447438790341 0.05715290841304708 0  0.4614662289214904 0.1185262515411474 0  0.505337249077668 0.1024328896935337 0  0.431963199665431 0.1622083790702696 0  0.4308549333301598 0.1502035540486048 0  0.4116738586544235 0.1041859387663523 0  0.4095582929531458 0.2174316143878764 0  0.4767730130879849 0.1622083790703084 0  0.5443827500055026 0.09366669778791233 0  0.3881774741414789 0.1375237980955535 0  0.3871533862426518 0.1004535961197204 0  0.4048211958526272 0.1196730942586016 0  0.387533158164613 0.1229770158841918 0  0.5390824052225628 0.06744833187951048 0  0.5212239823753633 0.08492404393226735 0  0.5215828265105156 0.1622083790703317 0  0.5349004284018322 0.1565876018036672 0  0.3556974926295285 0 0  0.3987229542472677 0 0  0.4433053055141081 0 0  0.4410855102972552 0.03751680874040594 0  0.3969581968524311 0.1447077887708589 0  0.5584639495217296 0.03508113340585634 0  0.5666194772443838 0.07265723178580256 0  0.4767730130879849 0.1004582016456482 0  0.4895008759286886 0 0  0.4095582929540822 0.1690366057399949 0  0.3975186920292402 0.1660535232065472 0  0.4096953638692593 0.1593611747926069 0  0.4020899907169248 0.1826726487248222 0  0.4215978938789503 0.1660535232066034 0  0.4170265951911974 0.1826726487248186 0  0.4777970859082697 0.1375242924454789 0  0.4470091562036288 0.18256890171664 0  0.4617258870090093 0.1826555625495994 0  0.4423561517299195 0.1449296933988149 0  0.4954437686807294 0.19 0  0.4917096175621761 0.1826726487251064 0  0.3796850840055151 0.1834818329761566 0  0.3946170212231889 0.1837683952945248 0  0.4244995648184416 0.1837683957183748 0  0.4394315019025247 0.1834818376483804 0  0.442117717086971 0.1672874945454806 0  0.477253129614999 0.1229170029909243 0  0.4990943684003321 0.08379643703559929 0  0.4693047108508937 0.1834818376483876 0  0.3758459195692864 0.1665688727818971 0  0.4842366479349569 0.1837683957184343 0  0.4666592720111949 0.1673206601298049 0  0.4867628426197099 0.1672556638427207 0  0.4870209690086496 0.1445552225959656 0  0.5115929969788211 0.1672556638427288 0  0.5691769360607744 0.103623921999164 0  0.4398548996890094 0.1761054820336394 0  0.3946216884797873 0.1755365127550408 0  0.4200158654557485 0.1549967047228304 0  0.4688813130644119 0.1761054820336536 0  0.4244948974283196 0.1755365127551117 0  0.5312943323845036 0.1447479119997123 0  0.4842413153250809 0.1755365127551258 0  0.4095582929540587 0.1783322890925096 0  0.402719283013572 0.174362078603009 0  0.3792616967340072 0.1761054533295981 0  0.3870163828938027 0.1711802904735331 0  0.4163973028945601 0.1743620786030245 0  0.5312379346123596 0.03921294785544463 0  0.3646043070190422 0.1595814785132252 0  0.4319720988215174 0.1712601408791398 0  0.416528437774832 0.02576952322240761 0  0.454355826198406 0.1783191038782875 0  0.4476321386943704 0.1742462878721009 0  0.4611006434060722 0.1742578426498367 0  0.4007921484923099 0.1334520017217418 0  0.4767269250530047 0.1713973971258736 0  0.4991779197992725 0.1783172034453956 0  0.4923389098589435 0.1741809711526818 0  0.506016929739597 0.1741809711526895 0  0.5373680609405097 0 0  0.4170265951902442 0.2149173540338034 0  0.4094216635085727 0.1459162970206419 0  0.4171240435965357 0.130709948522703 0  0.4095582929540592 0.1849109489303113 0  0.510662702819522 0.02256181955995177 0  0.4543663130808365 0.1848930798107721 0  0.4991779197992735 0.1849089375109228 0  0.4214619365707062 0.1433505759463181 0  0.4908029823839455 0.1335072113564198 0  0.4315229872852132 0.1375769537565516 0  0.3868315570898186 0.2161590584307608 0  0.5066462220363641 0.1826726487251085 0  0.4191531770983273 0.1155832460350826 0  </DataArray>
</Points>
<Cells>
<DataArray  type="UInt32"  Name="connectivity"  format="ascii">0 1 2  0 1 3  4 1 5  4 1 6  7 8 9  10 11 12  13 14 15  16 17 18  13 17 18  10 19 20  7 14 15  21 11 12  22 8 9  23 24 17  25 26 27  28 29 14  30 31 11  32 33 8  0 34 3  35 4 5  36 0 2  7 9 37  10 12 38  13 15 39  13 18 39  10 20 38  7 15 37  22 9 40  4 41 6  21 12 42  23 17 43  16 27 43  26 27 43  16 17 43  24 17 44  45 19 46  29 14 47  28 14 44  30 11 46  10 11 46  13 14 44  13 17 44  10 19 46  7 14 47  32 8 47  7 8 47  33 8 48  22 8 48  31 11 49  21 11 49  50 51 20  52 53 15  54 55 12  56 57 9  22 2 6  1 2 6  58 18 39  50 20 38  53 15 39  55 12 38  52 15 37  57 9 37  56 9 40  1 5 3  21 5 3  54 12 42  22 6 40  34 54 42  31 35 49  53 58 39  55 50 38  57 52 37  41 56 40  26 23 43  24 28 44  45 30 46  29 32 47  33 36 48  41 6 40  36 2 48  22 2 48  34 3 42  35 5 49  21 5 49  21 3 42  59 60 61  62 63 64  65 66 67  68 69 70  71 72 73  74 75 76  77 78 76  65 79 67  80 81 82  59 61 83  84 64 85  86 87 88  89 74 76  68 73 70  90 91 92  86 93 88  94 95 96  50 51 97  98 99 61  68 69 78  33 36 100  84 85 101  26 23 102  103 95 96  104 90 92  77 76 105  106 63 107  84 63 64  86 87 108  65 109 66  68 72 73  110 72 85  89 74 111  112 61 83  113 114 108  80 87 82  113 87 108  113 114 115  103 116 117  118 119 70  120 121 81  122 123 95  99 61 124  116 125 126  127 104 92  31 35 109  113 87 82  94 123 88  122 128 95  129 130 131  54 55 132  129 133 131  0 34 134  86 93 92  135 85 101  29 32 136  24 28 137  63 107 138  139 25 140  51 97 141  50 97 142  86 91 92  89 76 105  127 77 105  36 100 143  33 100 144  62 63 145  127 104 146  103 147 117  80 123 88  23 102 148  98 60 149  26 102 150  62 64 151  127 77 146  71 72 152  98 99 130  72 85 153  127 147 105  127 93 92  71 73 154  155 111 126  103 147 96  156 136 144  157 132 142  106 158 133  159 137 148  127 93 96  160 134 143  106 63 145  119 70 161  162 140 150  129 163 164  98 60 61  165 97 166  94 123 95  129 163 167  30 31 66  129 164 130  157 97 166  110 64 151  55 50 142  99 130 131  36 0 143  129 167 133  127 147 96  103 116 168  32 33 144  110 72 152  155 74 111  23 24 148  25 26 150  158 133 131  60 149 169  116 125 168  165 149 166  156 100 170  160 100 170  31 109 66  121 122 171  118 73 154  112 115 83  62 172 173  157 132 164  62 172 174  106 158 107  112 115 175  159 102 176  55 132 142  71 177 178  160 134 167  116 111 126  162 102 176  71 177 179  0 134 143  156 136 173  180 125 168  157 130 166  32 136 144  165 97 141  35 109 181  71 178 152  159 137 174  24 137 148  156 145 170  25 140 150  182 183 175  71 179 154  62 173 145  62 174 151  162 140 178  160 133 170  110 64 85  54 132 184  156 100 144  157 97 142  34 134 184  159 151 176  94 93 88  98 149 166  128 180 185  29 136 186  180 168 185  28 137 186  45 30 67  159 102 148  59 60 169  139 140 187  160 100 143  118 73 70  162 152 176  162 102 150  182 99 131  182 158 131  84 90 101  30 66 67  106 145 170  98 130 166  182 158 188  135 146 101  94 93 96  135 146 189  80 87 88  110 151 176  106 133 170  68 78 189  190 90 91  45 191 67  89 105 117  114 115 175  157 164 130  190 183 91  160 167 133  35 4 181  84 90 138  163 132 164  110 152 176  163 134 167  182 99 124  158 107 188  34 54 184  28 29 186  156 173 145  172 136 173  162 178 152  182 183 188  172 137 174  163 132 184  190 90 138  163 134 184  177 140 178  159 174 151  114 183 175  177 192 179  172 136 186  172 137 186  84 63 138  177 140 187  104 146 101  177 192 187  122 123 171  112 61 124  89 111 117  69 75 76  147 105 117  69 78 76  77 146 189  190 183 188  68 72 153  104 90 101  103 95 185  79 191 67  69 75 161  190 107 138  77 78 189  80 81 171  135 85 153  182 175 124  116 111 117  80 123 171  121 81 171  112 175 124  103 168 185  69 70 161  114 108 193  114 183 193  68 189 153  86 108 193  128 95 185  183 91 193  135 189 153  86 91 193  190 107 188  </DataArray>
<DataArray  type="UInt32"  Name="offsets"  format="ascii">3 6 9 12 15 18 21 24 27 30 33 36 39 42 45 48 51 54 57 60 63 66 69 72 75 78 81 84 87 90 93 96 99 102 105 108 111 114 117 120 123 126 129 132 135 138 141 144 147 150 153 156 159 162 165 168 171 174 177 180 183 186 189 192 195 198 201 204 207 210 213 216 219 222 225 228 231 234 237 240 243 246 249 252 255 258 261 264 267 270 273 276 279 282 285 288 291 294 297 300 303 306 309 312 315 318 321 324 327 330 333 336 339 342 345 348 351 354 357 360 363 366 369 372 375 378 381 384 387 390 393 396 399 402 405 408 411 414 417 420 423 426 429 432 435 438 441 444 447 450 453 456 459 462 465 468 471 474 477 480 483 486 489 492 495 498 501 504 507 510 513 516 519 522 525 528 531 534 537 540 543 546 549 552 555 558 561 564 567 570 573 576 579 582 585 588 591 594 597 600 603 606 609 612 615 618 621 624 627 630 633 636 639 642 645 648 651 654 657 660 663 666 669 672 675 678 681 684 687 690 693 696 699 702 705 708 711 714 717 720 723 726 729 732 735 738 741 744 747 750 753 756 759 762 765 768 771 774 777 780 783 786 789 792 795 798 801 804 807 810 813 816 819 822 825 828 831 834 837 840 843 846 849 852 855 858 861 864 867 870 873 876 879 882 885 888 891 894 897 900 903 906 909 912 915 918 921 924 927 930 933 936 939 942 945 948 951 954 957 960 963 966 969 972 975 978 981 984 987 990 993 996 999 1002 1005 1008 1011 1014 </DataArray>
<DataArray  type="UInt8"  Name="types"  format="ascii">5 5 5 5 5 5 5 5 5 5 5 5 5 5 5 5 5 5 5 5 5 5 5 5 5 5 5 5 5 5 5 5 5 5 5 5 5 5 5 5 5 5 5 5 5 5 5 5 5 5 5 5 5 5 5 5 5 5 5 5 5 5 5 5 5 5 5 5 5 5 5 5 5 5 5 5 5 5 5 5 5 5 5 5 5 5 5 5 5 5 5 5 5 5 5 5 5 5 5 5 5 5 5 5 5 5 5 5 5 5 5 5 5 5 5 5 5 5 5 5 5 5 5 5 5 5 5 5 5 5 5 5 5 5 5 5 5 5 5 5 5 5 5 5 5 5 5 5 5 5 5 5 5 5 5 5 5 5 5 5 5 5 5 5 5 5 5 5 5 5 5 5 5 5 5 5 5 5 5 5 5 5 5 5 5 5 5 5 5 5 5 5 5 5 5 5 5 5 5 5 5 5 5 5 5 5 5 5 5 5 5 5 5 5 5 5 5 5 5 5 5 5 5 5 5 5 5 5 5 5 5 5 5 5 5 5 5 5 5 5 5 5 5 5 5 5 5 5 5 5 5 5 5 5 5 5 5 5 5 5 5 5 5 5 5 5 5 5 5 5 5 5 5 5 5 5 5 5 5 5 5 5 5 5 5 5 5 5 5 5 5 5 5 5 5 5 5 5 5 5 5 5 5 5 5 5 5 5 5 5 5 5 5 5 5 5 5 5 5 5 5 5 5 5 5 5 5 5 5 5 5 5 5 5 5 5 5 5 </DataArray>
</Cells>
<PointData  Vectors="f_41-1"> 
<DataArray  type="Float64"  Name="f_41-1"  NumberOfComponents="3" format="ascii">-9.3058811753709620e-07 5.0948933770718287e-04 0.0000000000000000e+00  -3.5580714644598315e-05 5.0676277766072467e-04 0.0000000000000000e+00  -2.3989698621230684e-05 5.2798067707580248e-04 0.0000000000000000e+00  -2.1441126814082815e-05 4.8726174848704937e-04 0.0000000000000000e+00  -7.0517658783486885e-05 5.0726304171826717e-04 0.0000000000000000e+00  -4.8671188639025836e-05 4.8650523520567067e-04 0.0000000000000000e+00  -4.8486961698748756e-05 5.2740611978869070e-04 0.0000000000000000e+00  -3.7378255187157979e-05 5.9413728436244712e-04 0.0000000000000000e+00  -2.7897927035429569e-05 5.7154050676704298e-04 0.0000000000000000e+00  -4.9851474255220328e-05 5.7054836657845763e-04 0.0000000000000000e+00  -3.2578947966520683e-05 4.1216704404019013e-04 0.0000000000000000e+00  -4.6816655816237505e-05 4.4008426380578146e-04 0.0000000000000000e+00  -1.8614766963029227e-05 4.4061091533291832e-04 0.0000000000000000e+00  -3.7807403000873509e-05 6.3660428671351440e-04 0.0000000000000000e+00  -2.9366832001313307e-05 6.1640512522790421e-04 0.0000000000000000e+00  -4.9237486265997760e-05 6.1513059764846303e-04 0.0000000000000000e+00  -3.7909321260493935e-05 6.7450587706989918e-04 0.0000000000000000e+00  -3.0467302454610861e-05 6.5663297029129250e-04 0.0000000000000000e+00  -4.8298885762688447e-05 6.5519781906589990e-04 0.0000000000000000e+00  -4.2670796928718718e-05 3.8295545835251510e-04 0.0000000000000000e+00  -1.5784182847504966e-05 3.8328616702451541e-04 0.0000000000000000e+00  -3.3949767300285582e-05 4.6639040491033108e-04 0.0000000000000000e+00  -3.6991106413338921e-05 5.4806350883845141e-04 0.0000000000000000e+00  -1.3127602588979384e-05 6.6686101123460606e-04 0.0000000000000000e+00  -1.1655064801531851e-05 6.4778893139334217e-04 0.0000000000000000e+00  -1.5676367992573930e-05 7.0178919868145396e-04 0.0000000000000000e+00  -1.4470665076679954e-05 6.8484000839663987e-04 0.0000000000000000e+00  -3.1225116438458674e-05 6.9242488302261095e-04 0.0000000000000000e+00  -1.0060849446523883e-05 6.2758435763086507e-04 0.0000000000000000e+00  -8.3635855380065523e-06 6.0622261674353158e-04 0.0000000000000000e+00  -7.0984318590469229e-05 4.2550736072730408e-04 0.0000000000000000e+00  -7.1108507343227540e-05 4.5352274084023409e-04 0.0000000000000000e+00  -6.5767635640982158e-06 5.8370064907318695e-04 0.0000000000000000e+00  -4.7272119463546613e-06 5.6003999340803912e-04 0.0000000000000000e+00  9.6816326601318475e-07 4.8275248055208568e-04 0.0000000000000000e+00  -7.0945195679645670e-05 4.8081773822355837e-04 0.0000000000000000e+00  -2.8337275768919741e-06 5.3527897455976972e-04 0.0000000000000000e+00  -5.4444250587950288e-05 5.9300501495803651e-04 0.0000000000000000e+00  -1.0941883520967880e-05 4.1243238004302777e-04 0.0000000000000000e+00  -5.3181067262610186e-05 6.3532712503202205e-04 0.0000000000000000e+00  -5.5252733257442007e-05 5.4610908401032650e-04 0.0000000000000000e+00  -6.9860884953749412e-05 5.3275760178697693e-04 0.0000000000000000e+00  -1.4072200176020276e-05 4.6707988341367237e-04 0.0000000000000000e+00  -2.4159774659645242e-05 6.7549453816214409e-04 0.0000000000000000e+00  -2.2446868461712763e-05 6.3746087722124211e-04 0.0000000000000000e+00  -7.0559232742449784e-05 3.9690705040203899e-04 0.0000000000000000e+00  -5.4271774400442937e-05 4.1172511473967354e-04 0.0000000000000000e+00  -2.0341220600342020e-05 5.9484787548857304e-04 0.0000000000000000e+00  -1.8862177119993782e-05 5.4848197978552406e-04 0.0000000000000000e+00  -5.4862656707670249e-05 4.6694152569038317e-04 0.0000000000000000e+00  6.3108478071924663e-06 3.9802373813348143e-04 0.0000000000000000e+00  7.8881267636071504e-06 3.6875638715362289e-04 0.0000000000000000e+00  -6.6754903869180990e-05 6.0284808386846665e-04 0.0000000000000000e+00  -6.5460966900873454e-05 6.2395374435930445e-04 0.0000000000000000e+00  2.8259038495626685e-06 4.5517350195187526e-04 0.0000000000000000e+00  4.6141183041894414e-06 4.2688280413073732e-04 0.0000000000000000e+00  -6.8989894213713574e-05 5.5722558347048542e-04 0.0000000000000000e+00  -6.7944830290118626e-05 5.8060033306543701e-04 0.0000000000000000e+00  -6.4093624609258369e-05 6.4392479289101482e-04 0.0000000000000000e+00  4.8267122084832858e-06 2.3633849802993240e-04 0.0000000000000000e+00  5.0555456535329400e-06 2.7392400306906631e-04 0.0000000000000000e+00  3.2976929875046236e-06 2.8683411642503766e-04 0.0000000000000000e+00  -7.3412109203819186e-06 5.2314457882970738e-04 0.0000000000000000e+00  -5.2714432823402346e-06 4.5958226775272992e-04 0.0000000000000000e+00  -7.9157965307690869e-06 4.9854691005597285e-04 0.0000000000000000e+00  -6.2769335533371102e-05 4.0002213327744392e-04 0.0000000000000000e+00  -6.7107756850490666e-05 4.2189956258692349e-04 0.0000000000000000e+00  -6.7205440081572601e-05 3.9707737468554688e-04 0.0000000000000000e+00  -1.1122701014920596e-05 5.1059044672170553e-04 0.0000000000000000e+00  -1.1710049222276081e-05 4.9720890067588095e-04 0.0000000000000000e+00  -1.3174689833923050e-05 5.5581845828561749e-04 0.0000000000000000e+00  -1.3701954843641496e-05 6.1302483937690272e-04 0.0000000000000000e+00  -1.1289579225347302e-05 5.4655305826540354e-04 0.0000000000000000e+00  -1.3109980963473428e-05 5.7291205901473935e-04 0.0000000000000000e+00  -1.0645954279921872e-05 4.1535597522346878e-04 0.0000000000000000e+00  -1.2016366740899322e-05 4.8237171558482636e-04 0.0000000000000000e+00  -9.8359612628268327e-06 4.2400117470207721e-04 0.0000000000000000e+00  -8.0126730104684614e-06 3.9470216810214953e-04 0.0000000000000000e+00  -9.9921502453565310e-06 4.5574207334986294e-04 0.0000000000000000e+00  -6.2938294631809306e-05 3.6846017175591974e-04 0.0000000000000000e+00  -6.8215307311646039e-07 1.2152858257310593e-04 0.0000000000000000e+00  2.1401306379350825e-08 6.6648685915887554e-05 0.0000000000000000e+00  1.8321806828053832e-07 1.3980142938034700e-04 0.0000000000000000e+00  3.0499875982984916e-06 2.3760353026530619e-04 0.0000000000000000e+00  -6.0665547786146187e-06 4.3988722824228989e-04 0.0000000000000000e+00  -8.5968398355374299e-06 4.8654989342327933e-04 0.0000000000000000e+00  -2.1157890895568889e-06 2.5749490491187290e-04 0.0000000000000000e+00  -8.0063519790924063e-07 1.8970757583431321e-04 0.0000000000000000e+00  -1.6892988636117872e-06 1.7667749530491655e-04 0.0000000000000000e+00  -8.5123794906757976e-06 3.6105397607553362e-04 0.0000000000000000e+00  -4.4014488267219073e-06 3.7088618639409218e-04 0.0000000000000000e+00  -2.5936425212691409e-06 3.1731971259116201e-04 0.0000000000000000e+00  -3.6401461286265966e-06 2.9140820541656272e-04 0.0000000000000000e+00  -3.1662609782601397e-06 2.3828943024514714e-04 0.0000000000000000e+00  -2.3192031676623017e-06 1.6422326630618071e-04 0.0000000000000000e+00  -1.7208965173666955e-06 1.0089366636969991e-04 0.0000000000000000e+00  -3.7560703498033996e-06 2.1607116084815074e-04 0.0000000000000000e+00  5.9791867357672299e-06 3.6401173170234246e-04 0.0000000000000000e+00  3.9691391566012240e-06 3.2272409036951453e-04 0.0000000000000000e+00  1.6862712238292467e-06 3.4728977302617191e-04 0.0000000000000000e+00  -3.5988050882275033e-06 5.1525626746517898e-04 0.0000000000000000e+00  -6.4551491111434978e-06 4.1328254731697137e-04 0.0000000000000000e+00  -1.2558368447706361e-05 6.3448305479895382e-04 0.0000000000000000e+00  -3.8180061179048054e-06 1.8038908784340826e-04 0.0000000000000000e+00  -5.2436613080746601e-06 3.5420749405503949e-04 0.0000000000000000e+00  -7.2141053076862246e-06 3.3892482167829430e-04 0.0000000000000000e+00  -3.2394877095054888e-06 4.4745082327597621e-04 0.0000000000000000e+00  -2.8847962900555283e-06 4.0511538313875911e-04 0.0000000000000000e+00  -7.6891960403990195e-07 2.4026852722356160e-04 0.0000000000000000e+00  -6.6646990777722803e-05 4.4522784932927263e-04 0.0000000000000000e+00  -1.0276234605740489e-05 5.4805485732050275e-04 0.0000000000000000e+00  -8.0086808788486961e-06 3.1712970914864289e-04 0.0000000000000000e+00  2.1132254819244089e-06 2.7340248734325116e-04 0.0000000000000000e+00  7.5749077208694257e-07 1.9595900598784433e-04 0.0000000000000000e+00  -6.0758197475281311e-08 2.6678495319949243e-04 0.0000000000000000e+00  1.4746684662748279e-06 2.4205931752805954e-04 0.0000000000000000e+00  -5.4060612059943112e-06 2.2043795583100709e-04 0.0000000000000000e+00  -6.4157447102531790e-06 2.8058001923533235e-04 0.0000000000000000e+00  -1.4983240801760434e-05 6.1727434029357816e-04 0.0000000000000000e+00  -1.5096367803357653e-05 6.0102371802374984e-04 0.0000000000000000e+00  0.0000000000000000e+00 0.0000000000000000e+00 0.0000000000000000e+00  0.0000000000000000e+00 0.0000000000000000e+00 0.0000000000000000e+00  0.0000000000000000e+00 0.0000000000000000e+00 0.0000000000000000e+00  -1.0844621255624321e-06 9.6879077274086210e-05 0.0000000000000000e+00  1.5412119672992782e-06 3.0968174018710520e-04 0.0000000000000000e+00  -2.8959325288349008e-06 1.1079578195238719e-04 0.0000000000000000e+00  -6.3775775710700663e-06 2.3538125370738049e-04 0.0000000000000000e+00  -5.3526994898566762e-06 3.0927853469193153e-04 0.0000000000000000e+00  0.0000000000000000e+00 0.0000000000000000e+00 0.0000000000000000e+00  8.1931579904992684e-07 4.0649872250317506e-04 0.0000000000000000e+00  2.7194233470466057e-06 3.6234145019134782e-04 0.0000000000000000e+00  4.1943339287791806e-07 3.7963893251563471e-04 0.0000000000000000e+00  3.1124357270196458e-06 4.2057208958532605e-04 0.0000000000000000e+00  -1.4373454495676184e-06 4.3235796724845431e-04 0.0000000000000000e+00  -2.0287804698161267e-07 4.7187660838378138e-04 0.0000000000000000e+00  -8.0945323481087110e-06 4.4738534499637317e-04 0.0000000000000000e+00  -6.9674574164178900e-06 5.6433445308152867e-04 0.0000000000000000e+00  -1.0011715581786271e-05 6.0436205176762534e-04 0.0000000000000000e+00  -4.3507048937945351e-06 4.1253798549733585e-04 0.0000000000000000e+00  -1.6743649858803606e-05 7.1777620524824770e-04 0.0000000000000000e+00  -1.5007068235945769e-05 6.7288336119272340e-04 0.0000000000000000e+00  7.6038906895694939e-06 3.4139233464259568e-04 0.0000000000000000e+00  4.7870317607751496e-06 3.9674426356318401e-04 0.0000000000000000e+00  -1.9071787844046997e-06 5.0026138006316345e-04 0.0000000000000000e+00  -5.3430056361987165e-06 5.4593035565212778e-04 0.0000000000000000e+00  -5.1689339434994570e-06 4.9146781200068673e-04 0.0000000000000000e+00  -6.9073228282185516e-06 3.9045309296388878e-04 0.0000000000000000e+00  -5.4244237173819979e-06 2.6742648840244227e-04 0.0000000000000000e+00  -1.1544087185919817e-05 6.2699743968955225e-04 0.0000000000000000e+00  5.9263495082367838e-06 2.9720207308466559e-04 0.0000000000000000e+00  -1.4099192627665529e-05 6.6264534774733679e-04 0.0000000000000000e+00  -9.3222487423808797e-06 5.4945647196800475e-04 0.0000000000000000e+00  -1.2174498510680365e-05 5.8935705425200706e-04 0.0000000000000000e+00  -9.6763299863280187e-06 4.8953596304383232e-04 0.0000000000000000e+00  -1.4879211505254094e-05 6.2998637326851432e-04 0.0000000000000000e+00  -9.6792502105655472e-06 3.5108441619282997e-04 0.0000000000000000e+00  -5.1105176320288847e-06 5.1859928497703124e-04 0.0000000000000000e+00  3.9799640037946888e-06 3.7643809122663328e-04 0.0000000000000000e+00  -1.2819453725375438e-06 3.9402797314716916e-04 0.0000000000000000e+00  -1.0593474515128999e-05 5.9259919829690404e-04 0.0000000000000000e+00  -1.9342828398055656e-06 4.7184457379553199e-04 0.0000000000000000e+00  -1.3270216752137872e-05 5.3800264592022626e-04 0.0000000000000000e+00  -1.2916750003038259e-05 6.2314400075108361e-04 0.0000000000000000e+00  1.2521553205733051e-06 4.3357324515288235e-04 0.0000000000000000e+00  2.3797553170700290e-06 4.0000634012951977e-04 0.0000000000000000e+00  6.6415133479928743e-06 3.2577598332469315e-04 0.0000000000000000e+00  4.8484824458684908e-06 3.4150543185122522e-04 0.0000000000000000e+00  -3.0081338687725631e-07 4.4328435647310657e-04 0.0000000000000000e+00  -2.9421499123288419e-06 1.2482014895883606e-04 0.0000000000000000e+00  6.3085053222757654e-06 2.5273595555517153e-04 0.0000000000000000e+00  -3.3978967159710654e-06 4.7878025183887321e-04 0.0000000000000000e+00  -3.8437061719241651e-07 5.9091793950399803e-05 0.0000000000000000e+00  -8.1565249753399391e-06 5.6663121412260512e-04 0.0000000000000000e+00  -6.5560608696226226e-06 5.3244809009367897e-04 0.0000000000000000e+00  -9.0536713288296065e-06 5.6629704051462746e-04 0.0000000000000000e+00  6.6749499239031364e-07 2.9182848295787746e-04 0.0000000000000000e+00  -1.1296442553358741e-05 5.8864124772648276e-04 0.0000000000000000e+00  -1.5263601224321796e-05 6.6545795168658690e-04 0.0000000000000000e+00  -1.3812085488810168e-05 6.3240983607687126e-04 0.0000000000000000e+00  -1.5373711396676353e-05 6.5646011770287055e-04 0.0000000000000000e+00  0.0000000000000000e+00 0.0000000000000000e+00 0.0000000000000000e+00  -6.7893819071705068e-05 4.7825514610360737e-04 0.0000000000000000e+00  4.2726229942501427e-08 3.4246833920963674e-04 0.0000000000000000e+00  -1.1116970738488032e-06 3.1816887664591571e-04 0.0000000000000000e+00  1.6035163191612884e-06 4.5335721250452314e-04 0.0000000000000000e+00  -1.4914574371053536e-06 7.0018225013631147e-05 0.0000000000000000e+00  -8.7333383656653605e-06 5.9466396269784695e-04 0.0000000000000000e+00  -1.6335119975265686e-05 6.9900493174880152e-04 0.0000000000000000e+00  -1.5615504383632723e-06 3.6291712833263486e-04 0.0000000000000000e+00  -8.9715768449586398e-06 4.4857390333905044e-04 0.0000000000000000e+00  -2.7910750441543044e-06 3.6672997154509849e-04 0.0000000000000000e+00  -6.6355580030163871e-05 3.6801023556476756e-04 0.0000000000000000e+00  -1.6802589477327241e-05 7.0134131995672991e-04 0.0000000000000000e+00  -1.3460415286728143e-06 2.8107884333692946e-04 0.0000000000000000e+00  </DataArray> 
</PointData> 
</Piece>
</UnstructuredGrid>
</VTKFile>