<?xml version="1.0"?>
<VTKFile type="UnstructuredGrid"  version="0.1"  >
<UnstructuredGrid>
<Piece  NumberOfPoints="200" NumberOfCells="336">
<Points>
<DataArray  type="Float64"  NumberOfComponents="3"  format="ascii">1.835188936345112 0.2050000000000699 0  1.838465412967181 0.2953145553852501 0  1.915883512473161 0.2050000000000692 0  1.833166318986108 0.1007828475280248 0  2.383594446803656 0.41 0  2.271253957291315 0.41 0  2.346386298105263 0.3062476289039515 0  1.943162250261133 0.2848182236928814 0  1.943162250261127 0.1251817763071746 0  2.244824738199097 0.3091885999356265 0  1.317087908068179 0.2834507950760127 0  1.416789257258389 0.3075294577736497 0  1.357724299039236 0.2303555143487852 0  2.383594446803425 0 0  2.301748441448983 0.1032848369023014 0  2.415100580332905 0.08367007402675902 0  0.883612004374276 0.2044999257790265 0  0.941405262964606 0.2275541950732263 0  0.8724873572796065 0.2505182730032114 0  1.674965418778818 0.41 0  1.58737143976041 0.41 0  1.617304647871871 0.3102553946317155 0  1.587371439758838 0 0  1.674965418777374 0 0  1.627799041349754 0.08170835291169204 0  1.122434100544716 0.41 0  1.068894913355815 0.339699543595371 0  1.154144739340952 0.3428674566149401 0  0.9084404882614506 0.2892191224003848 0  1.215451113850732 0.2103314603357224 0  1.249863529963017 0.2672258935273379 0  1.176331347569866 0.2754551993599315 0  2.01253088870001 0.2050000000000507 0  0.9882218810956305 0.41 0  0.9246101326886647 0.41 0  0.9513232956593279 0.344238796639219 0  1.419591277297145 0.2050000000000071 0  0.8632198139519631 0.41 0  0.882513772872486 0.3520608410452225 0  0.8202234869765325 0.364591028094237 0  1.421253448505726 0.41 0  1.355827918100823 0.3414955155607449 0  1.421253448503939 0 0  1.418271536314166 0.09353562972960013 0  1.355827918100725 0.06850448443910542 0  0.7991030424147842 0.1996369747921017 0  0.755404159289092 0.1590232243285952 0  0.7509674852354215 0.2077605643765068 0  0.8502354418587501 0.1560244879407868 0  0.9215858179635137 0.1737964996919513 0  0.9080221499231149 0.1220333110997775 0  1.122434100542598 0 0  1.070453094842314 0.06960241275844714 0  1.154904552424504 0.06969164993518225 0  1.017753695734191 0.3624508760213758 0  2.271253957290865 0 0  0.8363367911675036 0.3257327955680793 0  1.05413544556068 0.41 0  2.221794121152559 0.193316850609006 0  2.14411344490712 0.1276195594235362 0  2.20472152769965 0.0713281875562741 0  1.002160515162412 0.1007971030886586 0  1.051646085559005 0.1501053523947661 0  0.589683001657349 0.3059206033515077 0  0.629251049118315 0.3129131677620721 0  0.6034720826395079 0.3406552446218118 0  2.162836591190598 0.41 0  2.147307993563104 0.2912592059815138 0  0.7970763259525799 0.1414049767778835 0  0.8757744372027163 0.0680967899541615 0  0.9457932773848412 0.0667989600995588 0  1.054135445558498 0 0  2.038256300678318 0.30845338105422 0  2.047027225616214 0.1093313109621388 0  0.7467958595648856 0 0  0.8039733463919316 0 0  0.7693776708684824 0.05639711714283061 0  0.9246101326867038 0 0  0.9882218810934433 0 0  1.005346589798493 0.3067901807747939 0  1.048577150438126 0.2582185237349715 0  1.481410117014457 0.06937107043222147 0  1.48141011701467 0.3406289295679558 0  1.112767688411364 0.1251261100534626 0  1.171970583870903 0.1546087622866204 0  1.524155460997452 0.2819410593007779 0  1.564450317521975 0.2271796767815198 0  1.465985145565885 0.2641043271703594 0  1.342519516048286 0.41 0  1.266535089881505 0.41 0  1.274599158297837 0.3398495556128484 0  1.266535089879536 0 0  1.342519516046404 0 0  1.279016580461126 0.07083697001675755 0  0.8625643833134949 0.2947679371372982 0  1.21281999103096 0.3139909211204517 0  1.019068245937061 0.0469337202247656 0  2.108400983319523 0.2055533675589543 0  0.9665635209117881 0.1540989494284837 0  1.008472627814504 0.204999999999892 0  0.5683897549737816 0.3290580395153129 0  1.111528583326901 0.2818863422907276 0  2.373655112860451 0.1537499999996177 0  1.628719644697639 0.2049999999998413 0  1.211433695886656 0.1017136889209831 0  0.6341981541449615 0.3582841585921612 0  0.8280582783289157 0.04600943632764167 0  0.7467958595662458 0.41 0  0.6916151138480078 0.41 0  0.7140255670996881 0.3646166311524474 0  1.701137648393037 0.3376494258761434 0  1.700761363836473 0.07263158433296307 0  0.6622141672544596 0.2596384679938497 0  0.6659720908852078 0.2972353895876497 0  0.6940661166801609 0.2673943882596362 0  0.7179098792074922 0.09515556231434774 0  0.763519512252238 0.1106765968361548 0  2.102498890674862 0.3526963313409883 0  1.146963556870385 0.2220662070926035 0  0.7666101362390253 0.3578469139891653 0  1.313454781190754 0.1289288827375083 0  1.297747271073664 0.2033748759239161 0  1.375324131717186 0.1546989106163036 0  0.7236859362722395 0.2517828338101294 0  0.7667165827043843 0.2524551100397078 0  1.084668006184735 0.2128250251286081 0  0.814691562998009 0.09619193426127341 0  1.545933585256563 0.3495591173405724 0  0.7613343746328384 0.3026779105476945 0  0.8174223541212756 0.2698453306575623 0  0.7176052736190859 0.2162836958912044 0  1.675302090383742 0.2650203692236395 0  1.552569533868087 0.0624528013784801 0  0.6570334029219593 0.3356135508988682 0  0.7959218455617475 0.3268864684847159 0  1.193204177143353 0.41 0  1.193204177141305 0 0  1.859776908881246 0.41 0  1.77165877836765 0.3410140663813219 0  1.859776908880082 0 0  1.771658778367727 0.06898593361867472 0  0.8039733463934788 0.41 0  1.765729001826854 0.41 0  1.765729001825544 0 0  1.518790312518014 0.1283243218597927 0  1.503227144622031 0.2021724267143327 0  1.582623387495486 0.1516962052714668 0  2.419800870255347 0.3337695350602363 0  1.118750868833027 0.1743068070907049 0  0.9108122465318981 0.04113381345596949 0  0.6993284284288891 0.3008982894693075 0  0.953518183350995 0.1113177413147439 0  0.7293997039068749 0.1878315768275717 0  0.7014764931779993 0.1925000000000107 0  0.685561679424891 0.2295161340218305 0  0.860027688655414 0.1096039208573359 0  0.5869673343225223 0.41 0  0.5770529515268702 0.3629450529032476 0  0.6084037118460524 0.3780069571238127 0  0.8632198139502143 0 0  0.7294932489647475 0.2840789881590486 0  1.255220929810424 0.1520691346915538 0  1.502836389106271 0 0  1.502836389107956 0.41 0  1.221368790720609 0.3632125781021275 0  1.221874249400422 0.04798078752710374 0  0.9607107278835494 0.2834185756442621 0  1.731954290521287 0.2842886317693051 0  1.779077369991058 0.2291039503226278 0  0.8438935925208596 0.2159584135336446 0  0.6689331958774321 0.3716842215281515 0  2.317206511801082 0.2150857089256538 0  2.5 0 0  1.781967815577297 0.1551145542927359 0  0.6902890633484133 0.332151151267615 0  2.5 0.2049999999994743 0  2.5 0.3074999999997183 0  2.416929161926448 0.2327464213792422 0  0.7273492824638629 0.1308306999820452 0  2.5 0.1024999999997612 0  2.5 0.41 0  1.909407874218324 0.3475920460897405 0  1.898307784123137 0.0640781879350478 0  0.7279457694224267 0.3237962213587685 0  2.058205329870775 0.41 0  1.957227977488067 0.41 0  1.976157046732302 0.3420030364334853 0  1.957227977487062 0 0  2.058205329869943 0 0  1.976157046732181 0.06799696356641864 0  0.6383613676644679 0.41 0  1.455141435660884 0.1456544069830235 0  0.9950305598379717 0.2553450661633512 0  1.728567729514045 0.1282404601140156 0  1.712479779067637 0.2028183087747138 0  2.116985070695456 0.06169297422380063 0  2.162836591189951 0 0  0.7206274800156242 0.161583396443773 0  1.665417171861409 0.1438806335169778 0  2.443165304650843 0.1549388660538532 0  </DataArray>
</Points>
<Cells>
<DataArray  type="UInt32"  Name="connectivity"  format="ascii">0 1 2  0 3 2  4 5 6  7 1 2  8 3 2  5 6 9  10 11 12  13 14 15  16 17 18  19 20 21  22 23 24  25 26 27  28 17 18  29 30 31  32 7 2  32 8 2  33 34 35  36 11 12  37 38 39  40 11 41  42 43 44  45 46 47  16 48 49  50 48 49  51 52 53  33 35 54  55 13 14  56 38 39  25 57 26  58 59 60  61 52 62  63 64 65  66 67 9  10 11 41  45 46 68  28 35 38  50 69 70  71 51 52  32 7 72  32 8 73  74 75 76  77 78 70  79 26 80  42 43 81  40 11 82  83 53 84  83 52 62  85 21 86  36 11 87  88 89 90  91 92 93  28 38 94  58 14 60  88 90 41  92 93 44  95 30 31  78 70 96  32 72 97  32 73 97  61 98 62  99 98 62  63 65 100  101 26 80  102 14 15  103 21 86  104 53 84  64 65 105  75 76 106  99 17 98  107 108 109  67 72 97  59 73 97  19 21 110  23 24 111  112 113 114  115 76 116  66 67 117  29 118 31  107 109 119  58 67 97  58 59 97  120 121 122  101 26 27  45 48 68  79 35 54  123 47 124  99 125 80  126 76 106  85 21 127  128 129 124  123 47 130  99 125 62  103 21 131  121 12 122  83 52 53  45 129 124  5 66 9  20 21 127  22 24 132  133 64 105  17 98 49  40 88 41  92 42 44  128 129 134  101 125 80  61 70 96  58 67 9  135 25 27  51 136 53  137 1 138  139 3 140  101 125 118  141 107 119  137 142 138  143 139 140  56 129 134  144 145 146  126 76 116  126 69 106  4 6 147  45 47 124  125 62 148  69 70 149  150 113 114  34 35 38  83 62 148  145 86 146  50 70 151  46 47 152  153 154 130  126 69 155  77 70 149  156 157 158  159 69 106  123 124 160  126 48 68  95 90 30  104 93 161  42 162 81  163 40 82  135 27 164  136 53 165  37 141 39  104 84 161  29 84 161  28 35 166  167 1 168  157 65 100  112 154 114  56 38 94  123 154 130  142 19 110  23 143 111  120 44 122  10 90 30  120 93 161  45 129 169  133 64 113  45 48 169  108 109 170  6 9 171  123 154 114  58 9 171  159 69 149  0 1 168  79 35 166  50 48 155  172 13 15  56 129 94  34 37 38  43 44 122  24 132 146  144 132 146  16 48 169  126 48 155  29 118 84  29 121 161  29 121 30  0 3 173  167 1 138  133 170 174  175 176 177  46 116 178  50 69 155  10 90 41  120 93 44  109 170 174  172 179 15  176 177 147  115 116 178  142 110 138  143 111 140  104 53 165  95 27 164  16 17 49  180 4 147  7 1 181  8 3 182  10 121 30  120 121 161  75 159 106  128 124 160  141 119 39  57 26 54  61 70 151  79 26 54  109 119 183  184 185 186  187 188 189  184 72 186  188 73 189  10 121 12  61 52 96  180 176 147  71 52 96  28 17 166  102 14 171  190 158 105  11 82 87  43 81 191  137 1 181  139 3 182  150 114 160  58 14 171  118 84 148  162 22 132  20 163 127  85 82 87  144 81 191  159 77 149  157 65 158  128 119 183  99 17 192  57 33 54  190 170 105  193 194 173  190 156 158  101 27 31  133 113 174  78 71 96  43 122 191  36 122 191  123 114 160  194 168 173  50 98 49  61 98 151  50 98 151  95 27 31  67 72 117  59 73 195  196 55 60  108 190 170  185 137 181  139 187 182  36 12 122  163 82 127  162 81 132  7 72 186  8 73 189  89 135 164  136 91 165  46 116 68  79 80 192  150 113 174  126 116 68  36 145 87  36 145 191  55 14 60  99 80 192  85 145 87  144 145 191  66 184 117  188 196 195  128 119 134  184 72 117  188 73 195  85 145 86  46 197 178  153 130 152  46 197 152  89 90 164  91 93 165  6 177 147  129 18 169  125 118 148  85 82 127  144 81 132  196 60 195  21 110 131  24 111 198  153 197 152  17 166 192  104 93 165  95 90 164  101 118 31  179 175 199  24 146 198  103 146 198  59 60 195  167 110 131  193 111 198  193 140 173  103 194 198  103 194 131  103 86 146  129 18 94  47 130 152  3 140 173  83 84 148  193 194 198  167 194 131  133 170 105  167 110 138  193 111 140  79 166 192  65 158 105  185 181 186  187 182 189  102 177 171  167 194 168  6 177 171  150 183 174  0 168 173  150 183 160  28 18 94  109 183 174  119 39 134  179 15 199  7 181 186  8 182 189  175 177 199  16 18 169  102 15 199  102 177 199  56 39 134  128 183 160  </DataArray>
<DataArray  type="UInt32"  Name="offsets"  format="ascii">3 6 9 12 15 18 21 24 27 30 33 36 39 42 45 48 51 54 57 60 63 66 69 72 75 78 81 84 87 90 93 96 99 102 105 108 111 114 117 120 123 126 129 132 135 138 141 144 147 150 153 156 159 162 165 168 171 174 177 180 183 186 189 192 195 198 201 204 207 210 213 216 219 222 225 228 231 234 237 240 243 246 249 252 255 258 261 264 267 270 273 276 279 282 285 288 291 294 297 300 303 306 309 312 315 318 321 324 327 330 333 336 339 342 345 348 351 354 357 360 363 366 369 372 375 378 381 384 387 390 393 396 399 402 405 408 411 414 417 420 423 426 429 432 435 438 441 444 447 450 453 456 459 462 465 468 471 474 477 480 483 486 489 492 495 498 501 504 507 510 513 516 519 522 525 528 531 534 537 540 543 546 549 552 555 558 561 564 567 570 573 576 579 582 585 588 591 594 597 600 603 606 609 612 615 618 621 624 627 630 633 636 639 642 645 648 651 654 657 660 663 666 669 672 675 678 681 684 687 690 693 696 699 702 705 708 711 714 717 720 723 726 729 732 735 738 741 744 747 750 753 756 759 762 765 768 771 774 777 780 783 786 789 792 795 798 801 804 807 810 813 816 819 822 825 828 831 834 837 840 843 846 849 852 855 858 861 864 867 870 873 876 879 882 885 888 891 894 897 900 903 906 909 912 915 918 921 924 927 930 933 936 939 942 945 948 951 954 957 960 963 966 969 972 975 978 981 984 987 990 993 996 999 1002 1005 1008 </DataArray>
<DataArray  type="UInt8"  Name="types"  format="ascii">5 5 5 5 5 5 5 5 5 5 5 5 5 5 5 5 5 5 5 5 5 5 5 5 5 5 5 5 5 5 5 5 5 5 5 5 5 5 5 5 5 5 5 5 5 5 5 5 5 5 5 5 5 5 5 5 5 5 5 5 5 5 5 5 5 5 5 5 5 5 5 5 5 5 5 5 5 5 5 5 5 5 5 5 5 5 5 5 5 5 5 5 5 5 5 5 5 5 5 5 5 5 5 5 5 5 5 5 5 5 5 5 5 5 5 5 5 5 5 5 5 5 5 5 5 5 5 5 5 5 5 5 5 5 5 5 5 5 5 5 5 5 5 5 5 5 5 5 5 5 5 5 5 5 5 5 5 5 5 5 5 5 5 5 5 5 5 5 5 5 5 5 5 5 5 5 5 5 5 5 5 5 5 5 5 5 5 5 5 5 5 5 5 5 5 5 5 5 5 5 5 5 5 5 5 5 5 5 5 5 5 5 5 5 5 5 5 5 5 5 5 5 5 5 5 5 5 5 5 5 5 5 5 5 5 5 5 5 5 5 5 5 5 5 5 5 5 5 5 5 5 5 5 5 5 5 5 5 5 5 5 5 5 5 5 5 5 5 5 5 5 5 5 5 5 5 5 5 5 5 5 5 5 5 5 5 5 5 5 5 5 5 5 5 5 5 5 5 5 5 5 5 5 5 5 5 5 5 5 5 5 5 5 5 5 5 5 5 5 5 5 5 5 5 5 5 5 5 5 5 5 5 5 5 5 5 </DataArray>
</Cells>
<PointData  Vectors="f_41-1"> 
<DataArray  type="Float64"  Name="f_41-1"  NumberOfComponents="3" format="ascii">2.4554584369286132e-10 -1.4731099440036230e-08 0.0000000000000000e+00  1.8522071277526557e-10 -1.1086439789157199e-08 0.0000000000000000e+00  1.4211512316777570e-10 -8.0670520797047552e-09 0.0000000000000000e+00  1.7383058269547981e-10 -1.0447317514875486e-08 0.0000000000000000e+00  0.0000000000000000e+00 0.0000000000000000e+00 0.0000000000000000e+00  0.0000000000000000e+00 0.0000000000000000e+00 0.0000000000000000e+00  4.5421363422934476e-12 -2.0967450846236129e-10 0.0000000000000000e+00  9.7067297220345772e-11 -5.4185805247376525e-09 0.0000000000000000e+00  9.7199078972165944e-11 -5.4281680587515499e-09 0.0000000000000000e+00  9.9435317922111865e-12 -4.7532379819354760e-10 0.0000000000000000e+00  4.8237704591486096e-09 -5.2683773941643102e-07 0.0000000000000000e+00  2.3979444262514972e-09 -2.2096670963850667e-07 0.0000000000000000e+00  4.5695524988587192e-09 -4.6886562704250979e-07 0.0000000000000000e+00  0.0000000000000000e+00 0.0000000000000000e+00 0.0000000000000000e+00  6.5810306185791707e-12 -3.0812736216533662e-10 0.0000000000000000e+00  1.8452332394758114e-12 -8.3845987773304792e-11 0.0000000000000000e+00  -3.6179404222892371e-08 -1.3309355311269973e-05 0.0000000000000000e+00  8.1022870454136194e-09 -8.8085306809847969e-06 0.0000000000000000e+00  3.1228532201479569e-08 -1.3434955578898274e-05 0.0000000000000000e+00  0.0000000000000000e+00 0.0000000000000000e+00 0.0000000000000000e+00  0.0000000000000000e+00 0.0000000000000000e+00 0.0000000000000000e+00  7.0031141048215346e-10 -5.0484085516136722e-08 0.0000000000000000e+00  0.0000000000000000e+00 0.0000000000000000e+00 0.0000000000000000e+00  0.0000000000000000e+00 0.0000000000000000e+00 0.0000000000000000e+00  5.5314501549600016e-10 -3.9599782311672907e-08 0.0000000000000000e+00  0.0000000000000000e+00 0.0000000000000000e+00 0.0000000000000000e+00  1.1145755674770195e-08 -1.8931703144717787e-06 0.0000000000000000e+00  6.7535969230571676e-09 -9.9961054422492182e-07 0.0000000000000000e+00  4.7027306556026678e-08 -8.9070000586138495e-06 0.0000000000000000e+00  9.0683473775530897e-09 -1.3172641589021395e-06 0.0000000000000000e+00  7.2469136027933807e-09 -9.1782679405843132e-07 0.0000000000000000e+00  9.8582608558101291e-09 -1.4912190138956161e-06 0.0000000000000000e+00  7.3710535029402822e-11 -3.9486172337460415e-09 0.0000000000000000e+00  0.0000000000000000e+00 0.0000000000000000e+00 0.0000000000000000e+00  0.0000000000000000e+00 0.0000000000000000e+00 0.0000000000000000e+00  2.7393016309707682e-08 -4.0075165944074262e-06 0.0000000000000000e+00  3.3006126597982503e-09 -3.0601112555565258e-07 0.0000000000000000e+00  0.0000000000000000e+00 0.0000000000000000e+00 0.0000000000000000e+00  5.8510688118081277e-08 -5.6540339895263555e-06 0.0000000000000000e+00  1.1890669847543138e-07 -6.6915622644837201e-06 0.0000000000000000e+00  0.0000000000000000e+00 0.0000000000000000e+00 0.0000000000000000e+00  2.4021964329558152e-09 -2.4223540217628341e-07 0.0000000000000000e+00  0.0000000000000000e+00 0.0000000000000000e+00 0.0000000000000000e+00  2.1592675861994007e-09 -2.0318452135916710e-07 0.0000000000000000e+00  2.2809591462452643e-09 -2.4235294440776185e-07 0.0000000000000000e+00  -1.7734896895990435e-07 -2.3767665267337595e-05 0.0000000000000000e+00  -7.1747290075385283e-07 -3.0052681799017359e-05 0.0000000000000000e+00  -2.4602148610088831e-07 -3.3299322002250751e-05 0.0000000000000000e+00  -1.7038301734858718e-07 -1.5548666699913996e-05 0.0000000000000000e+00  -3.7438174048445365e-08 -9.9686545887067405e-06 0.0000000000000000e+00  -7.8153940678040881e-08 -9.0524613652991505e-06 0.0000000000000000e+00  0.0000000000000000e+00 0.0000000000000000e+00 0.0000000000000000e+00  1.4130729523216192e-09 -1.8603328282307765e-06 0.0000000000000000e+00  4.3074545076469533e-09 -1.0299552809404487e-06 0.0000000000000000e+00  1.1567572525111320e-08 -1.8742554556407623e-06 0.0000000000000000e+00  0.0000000000000000e+00 0.0000000000000000e+00 0.0000000000000000e+00  1.3590470544460194e-07 -1.0768782174465624e-05 0.0000000000000000e+00  0.0000000000000000e+00 0.0000000000000000e+00 0.0000000000000000e+00  1.6865420408731316e-11 -8.1425617136591005e-10 0.0000000000000000e+00  2.4490485839520754e-11 -1.2247133281262429e-09 0.0000000000000000e+00  9.9574417749498581e-12 -4.8426004790740682e-10 0.0000000000000000e+00  -9.8560382953237376e-09 -4.1051169674497035e-06 0.0000000000000000e+00  5.1973206798798364e-09 -3.8114828702516867e-06 0.0000000000000000e+00  4.8630477465150918e-06 -3.3237660490927739e-05 0.0000000000000000e+00  3.0890536453426393e-06 -3.3478372818202546e-05 0.0000000000000000e+00  2.7913048488282547e-06 -2.1255265093603568e-05 0.0000000000000000e+00  0.0000000000000000e+00 0.0000000000000000e+00 0.0000000000000000e+00  2.2854647669095830e-11 -1.1413331541121196e-09 0.0000000000000000e+00  -4.3391163326953207e-07 -2.1142114612179900e-05 0.0000000000000000e+00  -1.1181757900304921e-07 -6.9533912670363775e-06 0.0000000000000000e+00  -3.3140614688898230e-08 -4.2525832918887597e-06 0.0000000000000000e+00  0.0000000000000000e+00 0.0000000000000000e+00 0.0000000000000000e+00  4.3401160145155978e-11 -2.2919748229443976e-09 0.0000000000000000e+00  4.3257348302719652e-11 -2.2737424191887435e-09 0.0000000000000000e+00  0.0000000000000000e+00 0.0000000000000000e+00 0.0000000000000000e+00  0.0000000000000000e+00 0.0000000000000000e+00 0.0000000000000000e+00  -4.7309110037550556e-07 -1.1501320650327625e-05 0.0000000000000000e+00  0.0000000000000000e+00 0.0000000000000000e+00 0.0000000000000000e+00  0.0000000000000000e+00 0.0000000000000000e+00 0.0000000000000000e+00  2.0712938801437182e-08 -4.0790098133726997e-06 0.0000000000000000e+00  1.6197974756121456e-08 -3.9091799439880059e-06 0.0000000000000000e+00  1.1622561542247157e-09 -9.9169612330020530e-08 0.0000000000000000e+00  1.1802313532999831e-09 -9.9180193336619143e-08 0.0000000000000000e+00  7.1560134993404366e-09 -2.2279934853117514e-06 0.0000000000000000e+00  8.9420541471450653e-09 -1.6615063529706553e-06 0.0000000000000000e+00  1.4937693857993453e-09 -1.1929652154324198e-07 0.0000000000000000e+00  1.3829134552724569e-09 -1.0561449366063842e-07 0.0000000000000000e+00  2.2881175660931568e-09 -1.9713905956711845e-07 0.0000000000000000e+00  0.0000000000000000e+00 0.0000000000000000e+00 0.0000000000000000e+00  0.0000000000000000e+00 0.0000000000000000e+00 0.0000000000000000e+00  3.8008434234106706e-09 -4.4307284813441991e-07 0.0000000000000000e+00  0.0000000000000000e+00 0.0000000000000000e+00 0.0000000000000000e+00  0.0000000000000000e+00 0.0000000000000000e+00 0.0000000000000000e+00  3.3453541825905848e-09 -4.3335776537568331e-07 0.0000000000000000e+00  8.7672363226337804e-08 -1.1717971172666383e-05 0.0000000000000000e+00  6.7399300803882495e-09 -9.0099902311027160e-07 0.0000000000000000e+00  -4.4508240705428971e-09 -1.8417607319084780e-06 0.0000000000000000e+00  3.7845246561867801e-11 -1.9253127667763096e-09 0.0000000000000000e+00  -1.7192093236337369e-08 -6.9612020052222453e-06 0.0000000000000000e+00  8.7232630534412931e-09 -5.6327633838037990e-06 0.0000000000000000e+00  4.0361659648049729e-06 -1.9894365829737457e-05 0.0000000000000000e+00  1.2748770934460316e-08 -2.2808960011857787e-06 0.0000000000000000e+00  4.5654636721523139e-12 -2.0933097700877171e-10 0.0000000000000000e+00  9.3899290873916770e-10 -6.7017709446234150e-08 0.0000000000000000e+00  5.8059714441565579e-09 -9.5405063783690654e-07 0.0000000000000000e+00  1.6043661988853381e-06 -1.6406269437566156e-05 0.0000000000000000e+00  -1.7037632569239184e-07 -6.5694267187972188e-06 0.0000000000000000e+00  0.0000000000000000e+00 0.0000000000000000e+00 0.0000000000000000e+00  0.0000000000000000e+00 0.0000000000000000e+00 0.0000000000000000e+00  5.5735748912684457e-07 -1.1965873444605728e-05 0.0000000000000000e+00  3.1126379725175997e-10 -2.0731479686559709e-08 0.0000000000000000e+00  3.1269265595697034e-10 -2.0880646051917346e-08 0.0000000000000000e+00  2.0200445188937130e-06 -5.2471393415272398e-05 0.0000000000000000e+00  2.0646184952201565e-06 -3.7050360386001937e-05 0.0000000000000000e+00  1.1325442738741367e-06 -4.0991072195745341e-05 0.0000000000000000e+00  -1.3949601217621442e-06 -2.5359141354277146e-05 0.0000000000000000e+00  -7.6199972929665915e-07 -2.2059043993712837e-05 0.0000000000000000e+00  1.6758189842288673e-11 -8.5488115346978951e-10 0.0000000000000000e+00  1.1628651187507797e-08 -2.1211213475858388e-06 0.0000000000000000e+00  2.9543360671330884e-07 -1.0537826012291553e-05 0.0000000000000000e+00  4.7292179963409307e-09 -5.4797861052483517e-07 0.0000000000000000e+00  6.2736283475930892e-09 -7.3416965184321761e-07 0.0000000000000000e+00  3.8687196314708033e-09 -3.9020836752578925e-07 0.0000000000000000e+00  4.5222474170183355e-07 -3.6648013201602265e-05 0.0000000000000000e+00  1.8902276248651388e-07 -2.7316254251529712e-05 0.0000000000000000e+00  1.2746232478333475e-08 -3.3070438297956222e-06 0.0000000000000000e+00  -3.4443764656984943e-07 -1.4105893589094905e-05 0.0000000000000000e+00  7.0419371714511717e-10 -5.4735654625105547e-08 0.0000000000000000e+00  4.3857591892823568e-07 -2.1303331771448096e-05 0.0000000000000000e+00  1.2471493612800115e-07 -1.8129699924809119e-05 0.0000000000000000e+00  -1.7122850107306500e-07 -4.2176953233534313e-05 0.0000000000000000e+00  6.2701338985784415e-10 -4.2791377136709192e-08 0.0000000000000000e+00  6.9134096425308679e-10 -5.3783406670277529e-08 0.0000000000000000e+00  1.7672491465482768e-06 -2.3885683582106050e-05 0.0000000000000000e+00  2.5061195016804877e-07 -1.3747476086769487e-05 0.0000000000000000e+00  0.0000000000000000e+00 0.0000000000000000e+00 0.0000000000000000e+00  0.0000000000000000e+00 0.0000000000000000e+00 0.0000000000000000e+00  0.0000000000000000e+00 0.0000000000000000e+00 0.0000000000000000e+00  1.8797837476124727e-10 -1.1810764066569674e-08 0.0000000000000000e+00  0.0000000000000000e+00 0.0000000000000000e+00 0.0000000000000000e+00  1.8781005232429086e-10 -1.1814576780907299e-08 0.0000000000000000e+00  0.0000000000000000e+00 0.0000000000000000e+00 0.0000000000000000e+00  0.0000000000000000e+00 0.0000000000000000e+00 0.0000000000000000e+00  0.0000000000000000e+00 0.0000000000000000e+00 0.0000000000000000e+00  1.5349211837183578e-09 -1.2426975532733641e-07 0.0000000000000000e+00  2.0311430211507483e-09 -1.6717043526691625e-07 0.0000000000000000e+00  1.1486025989926050e-09 -8.6155809244195896e-08 0.0000000000000000e+00  1.5951859019482190e-12 -7.2418474768633821e-11 0.0000000000000000e+00  1.0423010263034734e-08 -2.5381271465676208e-06 0.0000000000000000e+00  -4.1763151426068875e-08 -3.4027298201083611e-06 0.0000000000000000e+00  1.2049338605200307e-06 -3.0766539963492169e-05 0.0000000000000000e+00  -3.3294704354576495e-08 -6.2007298320756811e-06 0.0000000000000000e+00  -6.7108442903419818e-07 -3.8619936039858136e-05 0.0000000000000000e+00  -8.9943907418507192e-07 -4.7953637907953301e-05 0.0000000000000000e+00  3.8473847538169080e-07 -5.2324320968079327e-05 0.0000000000000000e+00  -1.7588513150580322e-07 -1.1590182325348500e-05 0.0000000000000000e+00  0.0000000000000000e+00 0.0000000000000000e+00 0.0000000000000000e+00  2.1432033037459445e-06 -1.1676755464633144e-05 0.0000000000000000e+00  1.2187114057821736e-06 -9.4236898779975707e-06 0.0000000000000000e+00  0.0000000000000000e+00 0.0000000000000000e+00 0.0000000000000000e+00  6.8593101007447930e-07 -2.9624751106264065e-05 0.0000000000000000e+00  6.7901939609946346e-09 -9.1394481279606483e-07 0.0000000000000000e+00  0.0000000000000000e+00 0.0000000000000000e+00 0.0000000000000000e+00  0.0000000000000000e+00 0.0000000000000000e+00 0.0000000000000000e+00  3.4535701427005845e-09 -4.4335875063000065e-07 0.0000000000000000e+00  2.8002059299977642e-09 -4.5288722303739398e-07 0.0000000000000000e+00  2.7518907860210705e-08 -6.4399525749538153e-06 0.0000000000000000e+00  3.9760111790088364e-10 -2.5811066066858597e-08 0.0000000000000000e+00  3.4977300680339727e-10 -2.1877261567495354e-08 0.0000000000000000e+00  -4.3255786647823164e-08 -1.7384980881993028e-05 0.0000000000000000e+00  8.3685895718454483e-07 -1.1675249990588120e-05 0.0000000000000000e+00  8.1159469511363844e-12 -3.7798308994173654e-10 0.0000000000000000e+00  0.0000000000000000e+00 0.0000000000000000e+00 0.0000000000000000e+00  3.2347957150032867e-10 -2.0191395575084773e-08 0.0000000000000000e+00  1.1886606355181474e-06 -2.2718597079613025e-05 0.0000000000000000e+00  0.0000000000000000e+00 0.0000000000000000e+00 0.0000000000000000e+00  0.0000000000000000e+00 0.0000000000000000e+00 0.0000000000000000e+00  2.9454230370432254e-12 -1.3382853818991660e-10 0.0000000000000000e+00  -1.2997417018543418e-06 -3.1830958886429587e-05 0.0000000000000000e+00  0.0000000000000000e+00 0.0000000000000000e+00 0.0000000000000000e+00  0.0000000000000000e+00 0.0000000000000000e+00 0.0000000000000000e+00  6.8518883407472964e-11 -3.9056230623936828e-09 0.0000000000000000e+00  7.5456008555292019e-11 -4.3316217925826472e-09 0.0000000000000000e+00  7.2473726501090459e-07 -2.1111695876369421e-05 0.0000000000000000e+00  0.0000000000000000e+00 0.0000000000000000e+00 0.0000000000000000e+00  0.0000000000000000e+00 0.0000000000000000e+00 0.0000000000000000e+00  4.7080291154884775e-11 -2.5750420416508720e-09 0.0000000000000000e+00  0.0000000000000000e+00 0.0000000000000000e+00 0.0000000000000000e+00  0.0000000000000000e+00 0.0000000000000000e+00 0.0000000000000000e+00  4.7050634200313708e-11 -2.5737360665742781e-09 0.0000000000000000e+00  0.0000000000000000e+00 0.0000000000000000e+00 0.0000000000000000e+00  2.4092388477235083e-09 -2.1282970111667837e-07 0.0000000000000000e+00  1.8623075613396238e-08 -5.7180175618183454e-06 0.0000000000000000e+00  4.1155478681160527e-10 -2.6826307821765495e-08 0.0000000000000000e+00  5.4957877325270514e-10 -3.6301755975584399e-08 0.0000000000000000e+00  1.6261456305218907e-11 -8.2384194054362969e-10 0.0000000000000000e+00  0.0000000000000000e+00 0.0000000000000000e+00 0.0000000000000000e+00  -1.2002095254315691e-06 -3.8658925744375622e-05 0.0000000000000000e+00  6.6347455363627138e-10 -4.5752176849638938e-08 0.0000000000000000e+00  1.8545000633022156e-12 -8.3946346604748918e-11 0.0000000000000000e+00  </DataArray> 
</PointData> 
</Piece>
</UnstructuredGrid>
</VTKFile>