<?xml version="1.0"?>
<VTKFile type="UnstructuredGrid"  version="0.1"  >
<UnstructuredGrid>
<Piece  NumberOfPoints="188" NumberOfCells="336">
<Points>
<DataArray  type="Float64"  NumberOfComponents="3"  format="ascii">0.5626584888143201 0.21 0  0.5633122436674589 0.1999814296467508 0  0.5571672426447437 0.2036011176410121 0  0.5626584888145268 0.19 0  0.5688286748170428 0.1961819304477386 0  0.5688286748170693 0.203818069552238 0  0.5571594006495384 0.1963685282145804 0  0.6 0.21 0  0.5925316977628483 0.21 0  0.5955705746706843 0.2069223055301326 0  0.6 0.19 0  0.5925316977628897 0.19 0  0.5965740209510578 0.1927759733278094 0  0.5887803774232762 0.2001272386983733 0  0.5815926498168407 0.1966545283159175 0  0.5814408164431408 0.2041285596160068 0  0.5850633955257988 0.19 0  0.5775950932887378 0.19 0  0.5893814947531364 0.2056233639521408 0  0.6 0.2 0  0.6 0.1950000000000217 0  0.594380730180568 0.1966558399668133 0  0.5745072403740523 0.2002044435018727 0  0.5511891430099709 0.2001122610077113 0  0.5439877332217911 0.197091582686394 0  0.5439623148931173 0.2040856076781014 0  0.5946539510196798 0.2024302972968126 0  0.5701267910514778 0.21 0  0.5701267910515998 0.19 0  0.574400031298126 0.1945411130107761 0  0.5887471324735476 0.1946190227059995 0  0.5551901865771842 0.21 0  0.6 0.2050000000000054 0  0.5514560354586301 0.2056971942287897 0  0.5551901865773963 0.19 0  0.5743797868482748 0.2056178169806182 0  0.547721884340339 0.19 0  0.5511851248594936 0.1945772515115504 0  0.5775950932886138 0.21 0  0.5850633955257281 0.21 0  0.54772188434007 0.21 0  0.6300528284996487 0.2292604486710743 0  0.65429728832161 0.2353880751391984 0  0.6456429596876728 0.2209784072651823 0  0.6244559818022579 0.1024805481876779 0  0.6331542554485198 0.1311064488920115 0  0.604876951083344 0.1323679928240978 0  0.5950070799606315 0.1111116928105405 0  0.7179098792074922 0.09515556231434774 0  0.6930564374308674 0.1341308449452096 0  0.6808979566904864 0.09264351137968369 0  0.5805147821309363 0.1750906865638377 0  0.5830971905392573 0.1610562557540074 0  0.5891905322413319 0.173297484523883 0  0.6580228992389956 0.1177787934340178 0  0.6385847074107548 0.1562173919888177 0  0.6641520523959832 0.1503720468916702 0  0.5740383564454857 0.232486177523615 0  0.5800331369475803 0.2220172718503647 0  0.5872716114964233 0.2289047791562547 0  0.7101078070491313 0.04593780015520291 0  0.7273492824638629 0.1308306999820452 0  0.6699818017210338 0.05718888729500279 0  0.589683001657349 0.3059206033515077 0  0.629251049118315 0.3129131677620721 0  0.6129037791821019 0.2898142990521698 0  0.5669464924360815 0.2475839849813879 0  0.5841951273902199 0.2421589553533847 0  0.5857082964501902 0.1444062384003248 0  0.5690392421172527 0.1384821647678796 0  0.5733051421814971 0.1505504706653721 0  0.596265848881445 0.1672046255295837 0  0.5678918321244223 0.2848057098346606 0  0.5916500441695769 0.2809526698769227 0  0.5813292444071699 0.2563523755659055 0  0.5593867837568711 0.2625481287604455 0  0.6158241656144056 0.2465955912391796 0  0.6368758304361363 0.2529361994816268 0  0.5813292444072671 0.1834697536045245 0  0.5742993681899213 0.1835891178222343 0  0.6156282497854896 0.2673949998438289 0  0.5926483197196849 0.2655989755524508 0  0.6321311710823254 0.06153785161297727 0  0.595034110037278 0.08371649311769892 0  0.5975491358239944 0.1534040596821995 0  0.5439877332217901 0.1676928600783786 0  0.5349004284018322 0.1565876018036672 0  0.5520209547307013 0.1576841814684212 0  0.5561563723763112 0.3041501920577169 0  0.7014764931779993 0.1925000000000107 0  0.685561679424891 0.2295161340218305 0  0.6773925486195326 0.2026632733038183 0  0.6065875229028267 0.1922148945199381 0  0.5688911489504639 0.2221570651130901 0  0.5600714413167317 0.2168050759646857 0  0.5668496426355557 0.2152032773847839 0  0.5691769360607744 0.103623921999164 0  0.5817033662356486 0.1258684224449203 0  0.5656709189996393 0.1218263852353965 0  0.6622141672544596 0.2596384679938497 0  0.5666635607831564 0.161267807310367 0  0.5731424580414761 0.1690378585407531 0  0.5588244563271773 0.225349035787779 0  0.5519051872593019 0.2166420053265535 0  0.7693776708684824 0.05639711714283061 0  0.59743928374328 0.184845006919697 0  0.6044284617508302 0.1869248475987405 0  0.5701061294197327 0.1769562172296277 0  0.6186516859309905 0.2076004596739355 0  0.6330574554272607 0.20858417289079 0  0.6200567937109939 0.1981193972299755 0  0.5448392573395288 0.1456266733529302 0  0.560873207311089 0.1493935172983297 0  0.6153880197825543 0.1501582873444675 0  0.5989004035231642 0.2514987524731583 0  0.596265848881424 0.2354323641502947 0  0.6295540558938247 0.1924839069479658 0  0.6341710204839701 0.1765827244303529 0  0.6426099985752125 0.1947200777786613 0  0.615208009837415 0.2301771304243292 0  0.5869673343216626 0 0  0.5932743238853959 0.04945528001359441 0  0.5584639495217296 0.03508113340585634 0  0.605300577487017 0.1810288040931519 0  0.5966020906539898 0.1778579871513863 0  0.5487739828661812 0.2837987172973246 0  0.6210712537558437 0.2177951339896733 0  0.6711932754123612 0.1788117674793375 0  0.5536582001352554 0.1343709232030346 0  0.5631143150331265 0.2366473934541688 0  0.5595716197895517 0.176498756977387 0  0.566392639933061 0.1840461062417861 0  0.6649882407551387 0.02261378243973851 0  0.7467958595648856 0 0  0.5768392741880191 0.2703425200264898 0  0.6100254542261326 0.2029134597827689 0  0.6109529519469615 0.19670324045761 0  0.6083886978654316 0.1626240187349565 0  0.5740261188292279 0.2158012409855351 0  0.619281841121555 0.02915265998465505 0  0.6035153318756115 0.216380925869335 0  0.6045977536612152 0.2079044120944432 0  0.5888145049962641 0.182376060046032 0  0.559009501696121 0.184247465949259 0  0.5683897549737816 0.3290580395153129 0  0.6641604129055072 0.2170430078016702 0  0.5962264926010817 0.2155692304460942 0  0.5886496198982827 0.2178532325665078 0  0.5963374227678123 0.2233833965505087 0  0.6048429996566183 0.2280441552220857 0  0.6527022231295108 0.08569477788831682 0  0.6916151138468254 0 0  0.6154136810599321 0.175174545882801 0  0.6039303205755 0.1726140165641641 0  0.6915000583673684 0.1646401469634124 0  0.6229518475759098 0.1637562961874416 0  0.6209583882721262 0.1847010880111589 0  0.5666194772443838 0.07265723178580256 0  0.6140419833156984 0.1920012542761988 0  0.6389246510848009 0.278450010052455 0  0.5514474833664602 0.1826065372792922 0  0.6047562880647869 0.1975000000000114 0  0.6104992711520371 0.2118453231978703 0  0.6513011150928492 0.1835167781725089 0  0.5373680609405097 0 0  0.6503345442188976 0.208122535960376 0  0.6603908909116775 0.196660215430242 0  0.6659720908852078 0.2972353895876497 0  0.6107068242365286 0.2205343762889329 0  0.6065667631161428 0.2400998453881159 0  0.556227780909367 0.2515606281824664 0  0.5653857196022115 0.1707921017691255 0  0.5316967135713353 0.1673421178078786 0  0.5662965898088369 0.2290837557773043 0  0.5562468381785084 0.1675066640297715 0  0.5811564300792245 0.2152441767609544 0  0.5461387848636305 0.1174764669537213 0  0.6383613676634521 0 0  0.5439877332217904 0.1783210023422619 0  0.5371890579013414 0.1744210598886847 0  0.5509385065020694 0.1745004300116409 0  0.7206274800156242 0.161583396443773 0  0.6043492189278221 0.2025000000000026 0  0.5439877332217911 0.1852618121745313 0  0.6537520553764576 0.1680442900620985 0  0.5361687701469152 0.1326608756097835 0  0.6112872589661165 0.1855979267337469 0  0.5312943323845036 0.1447479119997123 0  </DataArray>
</Points>
<Cells>
<DataArray  type="UInt32"  Name="connectivity"  format="ascii">0 1 2  3 1 4  0 1 5  3 1 6  7 8 9  10 11 12  13 14 15  16 17 14  13 15 18  19 20 21  22 14 15  23 24 25  19 26 21  0 27 5  28 3 4  17 14 29  16 14 30  31 0 2  19 32 26  26 9 18  22 14 29  13 14 30  23 25 33  3 34 6  22 15 35  36 24 37  23 24 37  23 2 6  8 9 18  38 39 15  1 2 6  40 25 33  22 4 5  1 4 5  39 15 18  11 21 12  32 26 9  38 15 35  23 6 37  11 16 30  17 28 29  27 38 35  39 8 18  40 31 33  34 36 37  20 21 12  13 26 18  34 6 37  23 2 33  31 2 33  13 26 21  10 20 12  7 32 9  11 21 30  27 5 35  28 4 29  13 21 30  22 4 29  22 5 35  41 42 43  44 45 46  44 47 46  48 49 50  51 52 53  49 54 50  55 45 56  57 58 59  48 60 50  48 49 61  62 60 50  63 64 65  57 66 67  68 69 70  71 52 53  63 72 73  74 75 66  41 76 77  51 78 79  80 73 81  44 82 83  68 46 84  85 86 87  63 72 88  57 67 59  89 90 91  10 20 92  93 94 95  96 97 98  99 90 42  100 52 101  102 94 103  96 47 97  48 104 60  10 105 106  41 42 77  51 107 79  108 109 110  111 87 112  57 58 93  113 46 84  80 114 81  115 114 67  116 117 118  41 76 119  120 121 122  123 105 106  102 93 94  124 123 105  72 75 125  41 109 126  44 47 83  89 127 91  51 52 101  54 45 56  111 128 112  57 66 129  108 109 126  130 107 131  68 69 97  96 47 83  121 82 83  44 54 45  62 60 132  116 109 110  133 104 60  74 75 134  135 110 136  113 137 84  74 66 67  58 93 138  80 73 65  120 121 139  7 140 141  51 142 78  130 143 131  63 144 88  80 76 114  90 42 145  100 52 70  7 8 146  113 45 46  39 8 147  111 86 87  55 113 45  49 54 56  148 140 149  72 73 134  115 67 59  11 16 142  44 54 150  151 133 60  152 153 137  148 147 59  74 114 67  31 0 94  115 148 59  89 127 154  82 139 132  69 128 112  10 11 105  151 60 132  55 113 155  68 46 97  116 117 156  121 122 157  158 156 110  58 147 59  64 65 159  80 65 159  34 36 160  62 82 132  41 109 43  152 117 156  63 73 65  71 124 53  51 142 53  20 92 161  108 162 126  163 117 118  164 120 122  115 148 149  8 147 146  165 145 166  108 135 110  64 167 159  165 43 145  168 162 126  127 56 154  115 114 169  66 129 170  11 142 105  72 75 134  51 107 101  130 107 171  85 86 172  102 93 173  85 87 174  130 160 143  71 52 84  16 17 78  152 137 155  7 146 140  19 20 161  10 92 106  54 50 150  3 34 143  68 52 70  71 124 153  16 142 78  39 147 175  80 76 77  124 123 153  108 135 162  96 176 98  58 138 175  116 109 118  31 94 103  120 177 139  168 140 149  40 31 103  0 94 95  158 110 136  152 117 155  100 87 174  34 160 143  85 178 179  85 178 180  89 181 154  148 146 140  177 151 132  148 147 146  28 3 131  99 167 159  165 118 166  124 142 105  27 38 138  130 160 180  19 32 182  36 160 183  17 28 79  165 109 43  44 82 150  49 56 154  96 83 157  57 93 173  71 153 137  135 162 141  91 145 166  85 179 172  0 27 95  152 123 153  85 180 174  49 181 61  116 156 110  90 91 145  49 181 154  71 137 84  38 39 175  99 42 77  42 43 145  163 118 166  74 134 81  47 46 97  17 78 79  75 66 170  124 142 53  3 143 131  130 174 171  127 91 166  121 83 157  7 32 141  163 117 184  100 174 171  165 109 118  162 140 141  121 82 139  28 131 79  102 129 173  73 134 81  27 138 95  55 56 184  72 125 88  58 147 175  38 138 175  100 87 112  111 185 128  69 97 98  74 114 81  19 161 182  62 82 150  55 117 184  76 114 169  68 52 84  152 123 186  135 182 141  76 119 169  178 160 180  62 50 150  127 56 184  177 139 132  127 163 166  55 117 155  57 129 173  178 160 183  92 106 186  80 77 159  111 185 187  130 180 174  135 161 182  168 119 126  158 156 186  149 119 169  158 92 186  69 98 128  111 86 187  32 182 141  127 163 184  152 156 186  100 70 112  168 149 119  93 138 95  107 131 79  115 149 169  113 137 155  99 77 159  135 161 136  176 185 128  107 101 171  69 70 112  176 98 128  168 162 140  158 92 136  100 101 171  92 161 136  41 119 126  123 106 186  </DataArray>
<DataArray  type="UInt32"  Name="offsets"  format="ascii">3 6 9 12 15 18 21 24 27 30 33 36 39 42 45 48 51 54 57 60 63 66 69 72 75 78 81 84 87 90 93 96 99 102 105 108 111 114 117 120 123 126 129 132 135 138 141 144 147 150 153 156 159 162 165 168 171 174 177 180 183 186 189 192 195 198 201 204 207 210 213 216 219 222 225 228 231 234 237 240 243 246 249 252 255 258 261 264 267 270 273 276 279 282 285 288 291 294 297 300 303 306 309 312 315 318 321 324 327 330 333 336 339 342 345 348 351 354 357 360 363 366 369 372 375 378 381 384 387 390 393 396 399 402 405 408 411 414 417 420 423 426 429 432 435 438 441 444 447 450 453 456 459 462 465 468 471 474 477 480 483 486 489 492 495 498 501 504 507 510 513 516 519 522 525 528 531 534 537 540 543 546 549 552 555 558 561 564 567 570 573 576 579 582 585 588 591 594 597 600 603 606 609 612 615 618 621 624 627 630 633 636 639 642 645 648 651 654 657 660 663 666 669 672 675 678 681 684 687 690 693 696 699 702 705 708 711 714 717 720 723 726 729 732 735 738 741 744 747 750 753 756 759 762 765 768 771 774 777 780 783 786 789 792 795 798 801 804 807 810 813 816 819 822 825 828 831 834 837 840 843 846 849 852 855 858 861 864 867 870 873 876 879 882 885 888 891 894 897 900 903 906 909 912 915 918 921 924 927 930 933 936 939 942 945 948 951 954 957 960 963 966 969 972 975 978 981 984 987 990 993 996 999 1002 1005 1008 </DataArray>
<DataArray  type="UInt8"  Name="types"  format="ascii">5 5 5 5 5 5 5 5 5 5 5 5 5 5 5 5 5 5 5 5 5 5 5 5 5 5 5 5 5 5 5 5 5 5 5 5 5 5 5 5 5 5 5 5 5 5 5 5 5 5 5 5 5 5 5 5 5 5 5 5 5 5 5 5 5 5 5 5 5 5 5 5 5 5 5 5 5 5 5 5 5 5 5 5 5 5 5 5 5 5 5 5 5 5 5 5 5 5 5 5 5 5 5 5 5 5 5 5 5 5 5 5 5 5 5 5 5 5 5 5 5 5 5 5 5 5 5 5 5 5 5 5 5 5 5 5 5 5 5 5 5 5 5 5 5 5 5 5 5 5 5 5 5 5 5 5 5 5 5 5 5 5 5 5 5 5 5 5 5 5 5 5 5 5 5 5 5 5 5 5 5 5 5 5 5 5 5 5 5 5 5 5 5 5 5 5 5 5 5 5 5 5 5 5 5 5 5 5 5 5 5 5 5 5 5 5 5 5 5 5 5 5 5 5 5 5 5 5 5 5 5 5 5 5 5 5 5 5 5 5 5 5 5 5 5 5 5 5 5 5 5 5 5 5 5 5 5 5 5 5 5 5 5 5 5 5 5 5 5 5 5 5 5 5 5 5 5 5 5 5 5 5 5 5 5 5 5 5 5 5 5 5 5 5 5 5 5 5 5 5 5 5 5 5 5 5 5 5 5 5 5 5 5 5 5 5 5 5 5 5 5 5 5 5 5 5 5 5 5 5 5 5 5 5 5 5 </DataArray>
</Cells>
<PointData  Vectors="f_41-1"> 
<DataArray  type="Float64"  Name="f_41-1"  NumberOfComponents="3" format="ascii">-1.3313499307960101e-06 -6.1639388077737830e-05 0.0000000000000000e+00  -3.9887769490843712e-06 -6.0650145598045966e-05 0.0000000000000000e+00  -2.6255221809943418e-06 -5.9490981419055596e-05 0.0000000000000000e+00  -6.4882573207452844e-06 -5.9329864282405885e-05 0.0000000000000000e+00  -5.3615027893955154e-06 -6.1644177888867314e-05 0.0000000000000000e+00  -3.3915760760304698e-06 -6.2507598155353986e-05 0.0000000000000000e+00  -4.4883142447555782e-06 -5.8638786412986872e-05 0.0000000000000000e+00  -4.1189387855906505e-06 -7.1276151363872960e-05 0.0000000000000000e+00  -3.5894882255526408e-06 -6.9231456442425037e-05 0.0000000000000000e+00  -4.6784059749548160e-06 -6.9690297397651554e-05 0.0000000000000000e+00  -9.2910738213583988e-06 -6.8982749604120270e-05 0.0000000000000000e+00  -8.7545394184239902e-06 -6.7165026791240516e-05 0.0000000000000000e+00  -8.4120267811593148e-06 -6.8495033043134541e-05 0.0000000000000000e+00  -5.9073537452684144e-06 -6.7241827003762552e-05 0.0000000000000000e+00  -6.2107285467143500e-06 -6.5013238887871421e-05 0.0000000000000000e+00  -4.2664831411452088e-06 -6.5775534424946611e-05 0.0000000000000000e+00  -8.1737223310621968e-06 -6.5209023843060263e-05 0.0000000000000000e+00  -7.5907472334651250e-06 -6.3244883191062974e-05 0.0000000000000000e+00  -4.5133450124603987e-06 -6.7960811987012126e-05 0.0000000000000000e+00  -6.9024858427609156e-06 -7.0127934876497588e-05 0.0000000000000000e+00  -8.1575563716327589e-06 -6.9561745022739743e-05 0.0000000000000000e+00  -7.2773936538573910e-06 -6.8336862168637649e-05 0.0000000000000000e+00  -4.7499518044693133e-06 -6.3564414303790876e-05 0.0000000000000000e+00  -3.1272362191257510e-06 -5.7540391591528966e-05 0.0000000000000000e+00  -3.4378334705387892e-06 -5.5316892381303696e-05 0.0000000000000000e+00  -1.6358546274271461e-06 -5.6166889094023390e-05 0.0000000000000000e+00  -5.8142096697496983e-06 -6.8994395906881779e-05 0.0000000000000000e+00  -1.8671701640012804e-06 -6.3537407644146830e-05 0.0000000000000000e+00  -7.0278870119057235e-06 -6.1285811985494583e-05 0.0000000000000000e+00  -6.1946215168424933e-06 -6.2909514099161520e-05 0.0000000000000000e+00  -7.3053776657019558e-06 -6.6665866864887408e-05 0.0000000000000000e+00  -8.1896411935866984e-07 -5.9742127473416132e-05 0.0000000000000000e+00  -5.5758617151404088e-06 -7.0696807311068746e-05 0.0000000000000000e+00  -1.6981160098991397e-06 -5.8278004560143861e-05 0.0000000000000000e+00  -5.9711578993393048e-06 -5.7376162572309944e-05 0.0000000000000000e+00  -3.3336794705940342e-06 -6.4131475536628521e-05 0.0000000000000000e+00  -5.4760660715413153e-06 -5.5424732239152467e-05 0.0000000000000000e+00  -4.5437227965692268e-06 -5.6876747248780941e-05 0.0000000000000000e+00  -2.4269731504290023e-06 -6.5434728089377875e-05 0.0000000000000000e+00  -3.0077140378974153e-06 -6.7328961026600479e-05 0.0000000000000000e+00  -3.2973823281202934e-07 -5.7846253130993083e-05 0.0000000000000000e+00  -2.7201735369793403e-06 -3.8794446709082385e-05 0.0000000000000000e+00  -2.1948694444082115e-06 -2.9767650709090369e-05 0.0000000000000000e+00  -2.6925575990261546e-06 -3.4439217687623136e-05 0.0000000000000000e+00  -2.1541116470150215e-06 -2.0749800715234874e-05 0.0000000000000000e+00  -2.7863060606768525e-06 -2.6710138771782826e-05 0.0000000000000000e+00  -3.3035717613427319e-06 -3.1091084369746023e-05 0.0000000000000000e+00  -2.6135975812200836e-06 -2.5248318641427208e-05 0.0000000000000000e+00  -1.0822427920331522e-06 -1.0785640999264805e-05 0.0000000000000000e+00  -1.7495921965866351e-06 -1.7714943990645005e-05 0.0000000000000000e+00  -1.3848655130926220e-06 -1.3596954769091072e-05 0.0000000000000000e+00  -6.1833005711079419e-06 -5.3431872934142387e-05 0.0000000000000000e+00  -5.0306113495284538e-06 -4.5212240589049097e-05 0.0000000000000000e+00  -6.1109414942969318e-06 -5.2230911652528275e-05 0.0000000000000000e+00  -2.0675373853323686e-06 -2.0204942854233254e-05 0.0000000000000000e+00  -3.2641219421222260e-06 -3.1769601747713256e-05 0.0000000000000000e+00  -2.4590992201173954e-06 -2.4729428722894472e-05 0.0000000000000000e+00  -1.5599427216500082e-06 -5.0502795349214405e-05 0.0000000000000000e+00  -2.1724128329381018e-06 -5.7280833180393697e-05 0.0000000000000000e+00  -2.2548069627955165e-06 -5.2652785411755391e-05 0.0000000000000000e+00  -5.7255762566742803e-07 -5.6076292750693406e-06 0.0000000000000000e+00  -1.2893303609890578e-06 -1.3205104239453274e-05 0.0000000000000000e+00  -9.1416441060482105e-07 -8.8975635496795609e-06 0.0000000000000000e+00  -6.5378198478769540e-07 -2.2344207668426676e-05 0.0000000000000000e+00  -8.3913976189527154e-07 -1.8197898550444495e-05 0.0000000000000000e+00  -1.0801861381934796e-06 -2.5068349008395834e-05 0.0000000000000000e+00  -9.8036654292183838e-07 -4.2785219884500349e-05 0.0000000000000000e+00  -1.6830631155205745e-06 -4.5243123131979751e-05 0.0000000000000000e+00  -4.0080951546146001e-06 -3.7317851209908049e-05 0.0000000000000000e+00  -3.6335265395231435e-06 -3.5242189736974408e-05 0.0000000000000000e+00  -4.2792205234184873e-06 -4.0234986865682456e-05 0.0000000000000000e+00  -5.4179378384770478e-06 -4.7439160706999098e-05 0.0000000000000000e+00  -5.5424393176923608e-07 -2.8992185536491420e-05 0.0000000000000000e+00  -9.9875809873322127e-07 -2.9393620508016410e-05 0.0000000000000000e+00  -1.2515611435550829e-06 -3.8892840616356972e-05 0.0000000000000000e+00  -5.6309177918055660e-07 -3.6486908305462639e-05 0.0000000000000000e+00  -2.1185907435125874e-06 -3.7868169621761451e-05 0.0000000000000000e+00  -1.9323271133158714e-06 -3.0895966831579601e-05 0.0000000000000000e+00  -7.1044334913481803e-06 -5.9314836118206546e-05 0.0000000000000000e+00  -6.7427742353914163e-06 -5.8197577448113752e-05 0.0000000000000000e+00  -1.5327792305245402e-06 -3.1063580353472979e-05 0.0000000000000000e+00  -1.2951882344235228e-06 -3.4506918919958116e-05 0.0000000000000000e+00  -1.1781590059365743e-06 -1.1472844983378707e-05 0.0000000000000000e+00  -1.8197646329958168e-06 -1.7933952485849073e-05 0.0000000000000000e+00  -4.4156156434810120e-06 -4.0141274615792821e-05 0.0000000000000000e+00  -4.3333248037984335e-06 -4.4950006896718326e-05 0.0000000000000000e+00  -3.5936111486663176e-06 -3.9318520097150113e-05 0.0000000000000000e+00  -4.1829910917831425e-06 -4.1934237829634630e-05 0.0000000000000000e+00  -2.3304108493438609e-07 -2.3331822724716317e-05 0.0000000000000000e+00  -1.8312308925990344e-06 -2.0412804798547002e-05 0.0000000000000000e+00  -1.8330947406529458e-06 -2.2855202726897224e-05 0.0000000000000000e+00  -2.2378068172515036e-06 -2.5703161017712873e-05 0.0000000000000000e+00  -6.6666346509120122e-06 -6.0073637164724200e-05 0.0000000000000000e+00  -1.5367470914210261e-06 -5.5917883806495565e-05 0.0000000000000000e+00  -1.0911367306380073e-06 -5.7332428166001419e-05 0.0000000000000000e+00  -1.5443024012451861e-06 -5.9628987640750249e-05 0.0000000000000000e+00  -2.3591775505583742e-06 -2.3780498977832441e-05 0.0000000000000000e+00  -3.1667077852993443e-06 -3.0524271338347015e-05 0.0000000000000000e+00  -2.9374119393688293e-06 -2.9331608584217337e-05 0.0000000000000000e+00  -1.6476409245025825e-06 -2.4259927775359332e-05 0.0000000000000000e+00  -4.7807129560052116e-06 -4.4894851938542032e-05 0.0000000000000000e+00  -5.4701200127324960e-06 -4.9336474425009034e-05 0.0000000000000000e+00  -9.3113605263293360e-07 -5.2685473292766017e-05 0.0000000000000000e+00  -5.9453179771599306e-07 -5.5686396541169741e-05 0.0000000000000000e+00  -4.5377964015282782e-07 -4.5010905436923030e-06 0.0000000000000000e+00  -7.6374825064711113e-06 -6.1074464102250925e-05 0.0000000000000000e+00  -6.9878195489009369e-06 -5.8991470168987434e-05 0.0000000000000000e+00  -5.9725352531225283e-06 -5.3480077844708554e-05 0.0000000000000000e+00  -4.1443505552010280e-06 -4.9938155720917405e-05 0.0000000000000000e+00  -3.4414033370344653e-06 -4.1124576947214350e-05 0.0000000000000000e+00  -4.5949221028323875e-06 -4.9290998318892747e-05 0.0000000000000000e+00  -3.4953353154354602e-06 -3.6550877125198069e-05 0.0000000000000000e+00  -4.0175017926680445e-06 -3.9275866015964797e-05 0.0000000000000000e+00  -3.8275710747526043e-06 -3.5624314329714753e-05 0.0000000000000000e+00  -1.7601797342503453e-06 -3.9295040568539002e-05 0.0000000000000000e+00  -2.2778689079964807e-06 -4.7466026523024061e-05 0.0000000000000000e+00  -4.0647396167889730e-06 -4.2805017562098166e-05 0.0000000000000000e+00  -3.8035524964619844e-06 -3.7880265105361488e-05 0.0000000000000000e+00  -3.3546758825308345e-06 -3.6766704983157111e-05 0.0000000000000000e+00  -2.7951571288378116e-06 -4.4390693185102411e-05 0.0000000000000000e+00  0.0000000000000000e+00 0.0000000000000000e+00 0.0000000000000000e+00  -1.0123822397536784e-06 -1.0138616767782038e-05 0.0000000000000000e+00  -6.8481944952384671e-07 -7.2595462638848440e-06 0.0000000000000000e+00  -6.2497927453151912e-06 -5.3816960283126211e-05 0.0000000000000000e+00  -6.5215902528906689e-06 -5.4641316811189378e-05 0.0000000000000000e+00  -1.7806995272385516e-07 -2.9011544521307459e-05 0.0000000000000000e+00  -3.4133811978344055e-06 -4.6031310863322849e-05 0.0000000000000000e+00  -2.4721431747690671e-06 -2.6412900022750698e-05 0.0000000000000000e+00  -3.2550945511352252e-06 -3.3204385766598342e-05 0.0000000000000000e+00  -9.9521984519468132e-07 -4.7618764082095633e-05 0.0000000000000000e+00  -5.4555485154056250e-06 -5.1553073677635823e-05 0.0000000000000000e+00  -6.3197918255706312e-06 -5.6889056167014843e-05 0.0000000000000000e+00  -3.6811630300194127e-07 -3.5799967924099494e-06 0.0000000000000000e+00  0.0000000000000000e+00 0.0000000000000000e+00 0.0000000000000000e+00  -9.0189599506310806e-07 -3.3678216509347301e-05 0.0000000000000000e+00  -5.1358840029091116e-06 -5.8041456975554960e-05 0.0000000000000000e+00  -5.6286827624854930e-06 -5.6789166834239946e-05 0.0000000000000000e+00  -4.6708906341694779e-06 -4.2278980938242192e-05 0.0000000000000000e+00  -2.0032464860591271e-06 -6.0674343202097989e-05 0.0000000000000000e+00  -5.6408962705125480e-07 -5.5507833975687387e-06 0.0000000000000000e+00  -3.6454341629564699e-06 -5.8281063016162885e-05 0.0000000000000000e+00  -4.7572667580644025e-06 -6.3440249187295109e-05 0.0000000000000000e+00  -7.2449919486794764e-06 -5.9215793906579103e-05 0.0000000000000000e+00  -5.8916850594504758e-06 -5.5391218205488650e-05 0.0000000000000000e+00  -2.6708248592831984e-07 -1.7023835738891296e-05 0.0000000000000000e+00  -2.3620990276938256e-06 -2.8841714400628133e-05 0.0000000000000000e+00  -3.4140914967610821e-06 -6.2692307491222713e-05 0.0000000000000000e+00  -2.8450593537495555e-06 -6.0933538645086495e-05 0.0000000000000000e+00  -2.8897934759999444e-06 -5.5372020122324987e-05 0.0000000000000000e+00  -2.8339154723702071e-06 -4.9484946582958022e-05 0.0000000000000000e+00  -1.5277826312334018e-06 -1.4837994006853409e-05 0.0000000000000000e+00  0.0000000000000000e+00 0.0000000000000000e+00 0.0000000000000000e+00  -4.9504251307378813e-06 -4.5545098752547513e-05 0.0000000000000000e+00  -5.5811424619099942e-06 -4.8831726712413499e-05 0.0000000000000000e+00  -1.9899941905019791e-06 -2.0940043752038887e-05 0.0000000000000000e+00  -4.0755247043906618e-06 -3.8393372204192343e-05 0.0000000000000000e+00  -4.7502658104281382e-06 -4.6141724010786597e-05 0.0000000000000000e+00  -1.5208854927870793e-06 -1.5698737628342515e-05 0.0000000000000000e+00  -5.4394652257515602e-06 -5.2966212049413741e-05 0.0000000000000000e+00  -1.3827862097148394e-06 -2.4649932656194656e-05 0.0000000000000000e+00  -5.3628129516613919e-06 -5.2907010902849004e-05 0.0000000000000000e+00  -6.5429717769063108e-06 -6.3722162871344691e-05 0.0000000000000000e+00  -4.1120523016362857e-06 -5.5389141727112333e-05 0.0000000000000000e+00  -3.0792104596873351e-06 -3.2602910373711546e-05 0.0000000000000000e+00  0.0000000000000000e+00 0.0000000000000000e+00 0.0000000000000000e+00  -2.8574792068417465e-06 -3.3756725411716664e-05 0.0000000000000000e+00  -2.7094922409961326e-06 -3.0398492622434425e-05 0.0000000000000000e+00  -1.0706648180395395e-06 -1.7602779812343810e-05 0.0000000000000000e+00  -3.3726153122079273e-06 -5.0980902518519408e-05 0.0000000000000000e+00  -2.2795499705708241e-06 -4.2799337993287866e-05 0.0000000000000000e+00  -5.6193290034357423e-07 -4.0578446515894575e-05 0.0000000000000000e+00  -5.3421669764674850e-06 -4.9505065269090433e-05 0.0000000000000000e+00  -3.8205269196840867e-06 -4.2698914958566767e-05 0.0000000000000000e+00  -1.2649655576418973e-06 -5.1745873833908736e-05 0.0000000000000000e+00  -4.8067772781378820e-06 -4.6724046294306342e-05 0.0000000000000000e+00  -2.4957773601634968e-06 -6.2304169196541250e-05 0.0000000000000000e+00  -2.5825523824870451e-06 -2.7371617418638239e-05 0.0000000000000000e+00  0.0000000000000000e+00 0.0000000000000000e+00 0.0000000000000000e+00  -4.7705668256594244e-06 -4.9396616851277536e-05 0.0000000000000000e+00  -4.2922949319736804e-06 -4.6419905749899803e-05 0.0000000000000000e+00  -4.9391728609629861e-06 -4.9069904186553132e-05 0.0000000000000000e+00  -1.5217375391586322e-06 -1.6099992064354985e-05 0.0000000000000000e+00  -5.7529769998279797e-06 -6.4625315859597225e-05 0.0000000000000000e+00  -5.0515639403823787e-06 -5.2386310561102269e-05 0.0000000000000000e+00  -2.9320147359686811e-06 -2.9890802174156578e-05 0.0000000000000000e+00  -2.8721825725543853e-06 -3.1395907088935682e-05 0.0000000000000000e+00  -5.7877185584856254e-06 -5.2691254058692108e-05 0.0000000000000000e+00  -3.1176360133254302e-06 -3.4794136458415496e-05 0.0000000000000000e+00  </DataArray> 
</PointData> 
</Piece>
</UnstructuredGrid>
</VTKFile>