<?xml version="1.0"?>
<VTKFile type="UnstructuredGrid"  version="0.1"  >
<UnstructuredGrid>
<Piece  NumberOfPoints="191" NumberOfCells="329">
<Points>
<DataArray  type="Float64"  NumberOfComponents="3"  format="ascii">0.2286913662688903 0.3133959500822503 0  0.2457579136251883 0.3036253283210157 0  0.2370120387482942 0.3305347050441392 0  0.1133943915886014 0.3302098901172357 0  0.1085927601152855 0.3576703429582752 0  0.1291050229147523 0.3369598757086243 0  0.1876570762350594 0.2701429686523801 0  0.1759534499456636 0.268744809012302 0  0.1862475166430347 0.2806184243256064 0  0.1704873609912336 0.2583583661241701 0  0.1801707401936674 0.2578452677740249 0  0 0.3514285714286952 0  0.03215830272795324 0.3311110896359255 0  0.02400550655420258 0.3538155845945724 0  0.3009672322348927 0.299853464475565 0  0.2860802002973516 0.3223921533999551 0  0.2799076752212695 0.2955946972235118 0  0.2004289920815778 0.2885787263743592 0  0.2083656065158181 0.2774025780460683 0  0.2175887234644184 0.2860477873464338 0  0.1987596795720009 0.2706417532988148 0  0 0.3221428571430699 0  0.1022962111550141 0.273832470550381 0  0.1121786756446853 0.257597694764058 0  0.1185619469878228 0.2730177051871591 0  0.05939492550527375 0.3149957962361826 0  0.03411173555592004 0.3013214948275056 0  0.1949745518995776 0.2497468076502398 0  0.202315810036185 0.2499463414463592 0  0.1988936168129591 0.2591743361304991 0  0.09191660917863548 0.3399083220637153 0  0.1613699074131162 0.2874965309748423 0  0.1497954449456231 0.3068853213507886 0  0.1704962809759384 0.2989815459796012 0  0.1273239957535623 0.41 0  0.1550887940203835 0.3759695678273732 0  0.1305531867707806 0.3723894882772687 0  0.2328041563607919 0.2914013345123573 0  0.2145757352600842 0.3012314566270872 0  0.06140001986584975 0.41 0  0.08484979611354741 0.3801877867628078 0  0.05922009696123734 0.3774661510110062 0  0.2199699516855607 0.2730509421907208 0  0.2088779690661671 0.2650057074514391 0  0.2335552553807713 0.3548019770067952 0  0.216380800632318 0.3798697230577418 0  0.2537725505472335 0.3777585525832137 0  0.09377624077128965 0.41 0  0.09380266644077194 0.2576101652245613 0  0.1712191068054211 0.2792458170307043 0  0.05506284017382649 0.2425906156552861 0  0.03234799839792719 0.2322323714096635 0  0.03317213267821684 0.2576605437337542 0  0.0655461589766832 0.3354809920423228 0  0.132972307375135 0.2702075053542861 0  0.1310410255455362 0.2846992571580754 0  0.05202618668915951 0.3533574174069209 0  0.0341778808147269 0.3756898840960821 0  0.1452227811648972 0.2894657338151946 0  0.2544808243315743 0.2458504951732927 0  0.2658768459325225 0.2418747601129979 0  0.2588244756332078 0.23611127323402 0  0.2433956710264305 0.2381734167068584 0  0.2460613805257083 0.2485222416480207 0  0.2507569858396673 0.2399489856244889 0  0.2548303845886413 0.3306565522725438 0  0.1851735785078722 0.2631071774152569 0  0.2609061472235815 0.2623077995666049 0  0.250265698216607 0.2591459325753045 0  0.2578547799253117 0.2736699879086193 0  0.2627897304119148 0.25271037528669 0  0.1620856860352591 0.41 0  0.1654256928847844 0.3451700819208795 0  0.1447999649086052 0.3470007664317952 0  0.2397046897252064 0.2463916348380001 0  0.2460936211071839 0.2733779098999782 0  0.2747137483983895 0.3519826740290966 0  0.2673795049878581 0.3181867883572329 0  0 0.3807142857143437 0  0.2403498351518432 0.2646826079825986 0  0.2595321800985562 0.2853145787115269 0  0.245890675076073 0.2871394349824882 0  0.2199894283484474 0.2630314844485698 0  0.2632645194651774 0.3015808908677137 0  0.3141745521466497 0.41 0  0.2741016576310038 0.41 0  0.2803555148413351 0.3762695151888899 0  0.1307646098417589 0.3010050716147269 0  0.128782395741745 0.3539195748014988 0  0.2764818109814328 0.2785134123591192 0  0.1110093235748128 0.3847859225763507 0  0.1503920612246686 0.252658552798053 0  0.1431093770171943 0.2599228455937608 0  0.1550656232429279 0.2649227029563504 0  0.05222303834057849 0.2265528286728498 0  0.2941337443604631 0.2779157781414069 0  0.04764878584873936 0.2783518915062873 0  0.02152627632804056 0.2799148982921386 0  0.1664692005849321 0.2475709156417281 0  0.1604617194638936 0.2557893928243108 0  0 0.29285714285744 0  0.2352133972703547 0.2354967132658811 0  0.2400332147833751 0.2299556624715287 0  0.01744870257335064 0.3130375866803607 0  0.1325512871714925 0.2548933203634119 0  0.1666231880877755 0.3117643555727803 0  0.1841090525772461 0.3084299065503739 0  0.1776920932687694 0.3258630445439892 0  0.2234150974215506 0.2441784247426195 0  0.2296339016331197 0.2402719738031125 0  0.2306200006656481 0.2483744735801409 0  0.08173043279897278 0.3240331352477369 0  0.1154525741111949 0.2885583797282378 0  0.1759665552266909 0.3607453311538497 0  0.1917080515020064 0.3413476842478615 0  0.09198816075892419 0.2415871005044956 0  0.07716692921624396 0.2463138536171241 0  0.1461228744239319 0.2700598172698123 0  0.2096071079201568 0.2490683551528932 0  0.2166911463435495 0.2471317900544655 0  0.2155707468285289 0.2556953171569842 0  0.2354281840915826 0.41 0  0.1892742072748776 0.2564561470775296 0  0.2370670604668411 0.2561437100875122 0  0 0.2635714285718054 0  0.3054340412842468 0.3221719107153626 0  0.2813918607378073 0.2642650598195126 0  0.2069640661720074 0.2559705483641431 0  0.1752851331147261 0.2508158313127855 0  0.0844877739943079 0.2754278344382655 0  0.1985922711404066 0.3216774874340058 0  0.217902467256 0.3335522763450835 0  0.07558403699563009 0.2617898205222132 0  0.1957380535525476 0.3607047222935699 0  0.1837099792663048 0.3830312172891498 0  0.0206009415950734 0.3930565358299628 0  0.07847443385504081 0.3566824448208936 0  0.01618611334675497 0.2427628432417809 0  0.299175979503955 0.3443721019725888 0  0.2254320944728471 0.256276132616746 0  0.07646641941334627 0.2901165423065792 0  0.09694893303991545 0.2918649843860019 0  0.08032811137534199 0.3068839858890652 0  0.2751288526855082 0.2504894696471402 0  0.09752865082683917 0.3073326190116618 0  0.1877417105384929 0.2484740584176516 0  0.1742197252833576 0.2428413052501257 0  0.1608308335189591 0.3262714997547831 0  0.2122294664542327 0.3536582770139244 0  0.2000381356635816 0.3047271648646204 0  0.05856578271688782 0.295628513006081 0  0.1647287152160364 0.2637534120846467 0  0.1125187550934686 0.3075252986550676 0  0.09922070399794995 0.322662239561371 0  0.05876177350501315 0.2607579702960333 0  0.2294756118369428 0.2628646849955408 0  0.235672688557912 0.2416805760911849 0  0.1239298454268555 0.2616776157580057 0  0.04263766443679855 0.3932630345153014 0  0.1807733240458683 0.2461555514727623 0  0.2220625618530342 0.2502300158941232 0  0.1441725906822958 0.3262643694130186 0  0.03021129466766341 0.2085417214687756 0  0.1771221153651656 0.2877467988749257 0  0.1981052433265003 0.41 0  0.2520678298491301 0.3496835930425019 0  0.1416315037575542 0.2787693322658609 0  0.07392371664175142 0.2310989703896346 0  0.09023810730875097 0.2272487027068034 0  0.2337109879526324 0.2717726746338737 0  0.1298722944302657 0.3189004895954476 0  0.1827267976827431 0.2517822297587077 0  0.267810768800799 0.2705998356288453 0  0.1632849702488283 0.2726003915760372 0  0 0.2050000000005308 0  0.01505266539966814 0.2227442931166357 0  0.2129990509249649 0.3158541689725088 0  0.2703064389008618 0.2603298038584663 0  0.1865831931948131 0.2944379361003471 0  0.1147948284867253 0.2412597685036574 0  0.1230762637185412 0.2499754423532209 0  0.1028747054530789 0.2468430767368829 0  0.1528547616279626 0.2778511520150422 0  0 0.41 0  0.03015443760436654 0.41 0  0.1921250322631934 0.2639147861870621 0  0 0.2342857142861561 0  0.2282286223197668 0.2809381514776019 0  0.06676399188859611 0.2764140668439541 0  0.1031728984437735 0.2318497950763309 0  0.2375747325401397 0.2803566777819222 0  </DataArray>
</Points>
<Cells>
<DataArray  type="UInt32"  Name="connectivity"  format="ascii">0 1 2  3 4 5  6 7 8  9 10 7  11 12 13  14 15 16  17 18 19  17 18 20  11 21 12  22 23 24  25 12 26  27 28 29  30 3 4  31 32 33  17 20 8  34 35 36  0 37 38  17 38 19  39 40 41  42 43 18  44 45 46  47 39 40  22 23 48  7 8 49  50 51 52  25 12 53  54 24 55  56 57 13  58 31 32  59 60 61  56 12 13  62 63 64  65 1 2  10 7 66  67 68 69  59 68 70  71 34 35  72 35 73  74 62 63  75 68 69  76 65 77  78 57 13  56 12 53  75 68 79  80 1 81  65 1 77  76 15 77  42 43 82  83 16 77  84 85 86  83 1 77  87 58 55  15 16 77  88 4 5  89 80 16  47 40 90  91 92 93  50 51 94  89 95 16  96 26 97  9 98 99  100 26 97  101 102 62  100 26 103  54 104 92  96 52 97  59 60 70  105 106 107  108 109 110  30 111 53  21 12 103  88 73 36  22 112 24  72 113 114  115 48 116  6 20 8  72 107 114  54 117 92  118 119 120  78 11 13  121 45 46  27 29 122  37 38 19  56 57 41  123 74 63  35 73 36  124 52 97  105 32 33  87 58 32  14 15 125  89 95 126  28 29 127  59 63 64  123 74 110  9 98 128  43 120 82  22 48 129  83 80 1  130 131 114  132 48 116  133 45 134  132 48 129  78 57 135  91 99 93  30 53 136  124 52 137  59 61 64  0 37 1  76 138 86  123 139 110  112 24 55  140 141 142  143 60 70  72 35 113  83 80 16  59 68 63  87 112 55  144 141 142  14 95 16  145 27 122  117 92 93  67 68 70  146 98 128  105 32 147  34 47 90  131 148 114  17 38 149  130 106 107  22 112 141  43 18 20  96 26 150  105 106 33  9 7 151  144 152 153  50 52 154  25 26 150  140 141 129  123 68 63  71 35 134  42 82 155  34 90 36  101 62 156  54 104 157  3 152 153  42 18 19  39 41 158  146 159 128  109 110 156  9 10 128  75 81 69  22 141 129  108 110 160  96 52 154  161 32 147  51 162 94  133 113 114  43 29 20  163 8 49  133 45 148  87 112 152  118 120 127  121 164 45  44 46 165  119 120 160  54 117 166  132 116 154  85 121 46  115 167 168  44 45 148  76 46 165  40 90 4  6 7 66  40 4 136  42 169 155  30 3 153  43 120 127  164 71 134  87 32 170  50 116 154  145 122 171  89 80 172  76 15 138  173 7 151  174 162 175  3 152 170  123 79 155  30 4 136  164 45 134  28 118 127  161 32 170  159 128 171  0 131 176  143 70 177  123 139 155  80 81 69  115 167 116  80 69 172  100 124 97  87 152 170  133 148 114  106 33 178  74 62 156  43 29 127  130 106 149  143 126 177  38 149 176  15 138 125  12 26 103  163 33 178  21 100 103  23 179 180  130 131 176  0 38 176  74 110 156  50 167 94  23 179 181  123 68 79  76 46 86  126 177 172  76 65 165  130 149 176  112 141 152  140 150 142  37 1 81  10 128 171  50 167 116  89 126 172  139 110 160  173 31 49  0 131 2  173 31 182  169 79 155  23 48 181  51 52 137  25 150 142  139 120 160  173 182 93  65 2 165  10 122 171  133 134 113  161 147 73  117 182 93  54 24 157  85 46 86  56 53 136  56 41 136  139 120 82  88 4 36  183 184 135  29 20 185  67 70 177  183 78 135  144 141 152  144 111 142  44 2 165  35 134 113  105 107 147  124 186 137  42 19 187  42 169 187  104 180 157  144 111 153  39 184 158  54 55 166  23 24 157  186 174 175  72 147 73  140 150 188  40 41 136  17 149 178  9 99 151  25 111 142  75 169 79  44 131 2  109 101 156  90 4 36  163 31 49  130 107 114  119 108 160  37 19 187  72 107 147  51 137 175  179 189 181  58 31 182  173 7 49  115 48 181  117 182 166  30 111 153  25 111 53  6 20 185  58 55 166  159 145 171  163 31 33  23 180 157  106 149 178  96 150 188  139 82 155  57 158 135  186 137 175  115 189 168  29 122 185  184 158 135  75 169 190  10 122 66  115 189 181  44 131 148  37 81 190  58 182 166  57 41 158  75 81 190  51 162 175  37 187 190  140 129 188  132 154 188  17 8 178  163 8 178  99 93 151  173 93 151  161 170 5  161 73 5  132 129 188  169 187 190  67 69 172  67 177 172  96 154 188  122 185 66  3 170 5  6 185 66  88 73 5  </DataArray>
<DataArray  type="UInt32"  Name="offsets"  format="ascii">3 6 9 12 15 18 21 24 27 30 33 36 39 42 45 48 51 54 57 60 63 66 69 72 75 78 81 84 87 90 93 96 99 102 105 108 111 114 117 120 123 126 129 132 135 138 141 144 147 150 153 156 159 162 165 168 171 174 177 180 183 186 189 192 195 198 201 204 207 210 213 216 219 222 225 228 231 234 237 240 243 246 249 252 255 258 261 264 267 270 273 276 279 282 285 288 291 294 297 300 303 306 309 312 315 318 321 324 327 330 333 336 339 342 345 348 351 354 357 360 363 366 369 372 375 378 381 384 387 390 393 396 399 402 405 408 411 414 417 420 423 426 429 432 435 438 441 444 447 450 453 456 459 462 465 468 471 474 477 480 483 486 489 492 495 498 501 504 507 510 513 516 519 522 525 528 531 534 537 540 543 546 549 552 555 558 561 564 567 570 573 576 579 582 585 588 591 594 597 600 603 606 609 612 615 618 621 624 627 630 633 636 639 642 645 648 651 654 657 660 663 666 669 672 675 678 681 684 687 690 693 696 699 702 705 708 711 714 717 720 723 726 729 732 735 738 741 744 747 750 753 756 759 762 765 768 771 774 777 780 783 786 789 792 795 798 801 804 807 810 813 816 819 822 825 828 831 834 837 840 843 846 849 852 855 858 861 864 867 870 873 876 879 882 885 888 891 894 897 900 903 906 909 912 915 918 921 924 927 930 933 936 939 942 945 948 951 954 957 960 963 966 969 972 975 978 981 984 987 </DataArray>
<DataArray  type="UInt8"  Name="types"  format="ascii">5 5 5 5 5 5 5 5 5 5 5 5 5 5 5 5 5 5 5 5 5 5 5 5 5 5 5 5 5 5 5 5 5 5 5 5 5 5 5 5 5 5 5 5 5 5 5 5 5 5 5 5 5 5 5 5 5 5 5 5 5 5 5 5 5 5 5 5 5 5 5 5 5 5 5 5 5 5 5 5 5 5 5 5 5 5 5 5 5 5 5 5 5 5 5 5 5 5 5 5 5 5 5 5 5 5 5 5 5 5 5 5 5 5 5 5 5 5 5 5 5 5 5 5 5 5 5 5 5 5 5 5 5 5 5 5 5 5 5 5 5 5 5 5 5 5 5 5 5 5 5 5 5 5 5 5 5 5 5 5 5 5 5 5 5 5 5 5 5 5 5 5 5 5 5 5 5 5 5 5 5 5 5 5 5 5 5 5 5 5 5 5 5 5 5 5 5 5 5 5 5 5 5 5 5 5 5 5 5 5 5 5 5 5 5 5 5 5 5 5 5 5 5 5 5 5 5 5 5 5 5 5 5 5 5 5 5 5 5 5 5 5 5 5 5 5 5 5 5 5 5 5 5 5 5 5 5 5 5 5 5 5 5 5 5 5 5 5 5 5 5 5 5 5 5 5 5 5 5 5 5 5 5 5 5 5 5 5 5 5 5 5 5 5 5 5 5 5 5 5 5 5 5 5 5 5 5 5 5 5 5 5 5 5 5 5 5 5 5 5 5 5 5 5 5 5 5 5 5 </DataArray>
</Cells>
<PointData  Vectors="f_41-1"> 
<DataArray  type="Float64"  Name="f_41-1"  NumberOfComponents="3" format="ascii">-4.9157403665448407e-06 2.2312790688941407e-05 0.0000000000000000e+00  -6.9586009136385900e-06 3.1092927431992565e-05 0.0000000000000000e+00  -4.9793290710426278e-06 2.3597835389444806e-05 0.0000000000000000e+00  -5.9390482185995005e-07 2.7452425239038182e-06 0.0000000000000000e+00  -4.3193307109650336e-07 2.0032580953587901e-06 0.0000000000000000e+00  -7.5517134381778522e-07 3.4822738848701123e-06 0.0000000000000000e+00  -1.2880869942940081e-06 5.5532567898396736e-06 0.0000000000000000e+00  -9.7585261842291308e-07 4.2738925531657028e-06 0.0000000000000000e+00  -1.6755175197941783e-06 7.3009105801440808e-06 0.0000000000000000e+00  -5.5929853010142759e-07 2.4669973511672459e-06 0.0000000000000000e+00  -5.6805158648814651e-07 2.4679257855853488e-06 0.0000000000000000e+00  0.0000000000000000e+00 0.0000000000000000e+00 0.0000000000000000e+00  -1.0664952017500774e-07 5.0685692790636877e-07 0.0000000000000000e+00  -6.4194713653623593e-08 3.0282199694351005e-07 0.0000000000000000e+00  -1.5202715990549572e-05 7.5466690062829062e-05 0.0000000000000000e+00  -1.0232562235891825e-05 5.2177429232659533e-05 0.0000000000000000e+00  -1.2453063189382211e-05 5.7006695507696719e-05 0.0000000000000000e+00  -2.6163493209317566e-06 1.1352367270052030e-05 0.0000000000000000e+00  -2.6922621868743331e-06 1.1340626059594964e-05 0.0000000000000000e+00  -3.8351144606723183e-06 1.6291003154027367e-05 0.0000000000000000e+00  -1.7242459270177583e-06 7.3001477246760387e-06 0.0000000000000000e+00  0.0000000000000000e+00 0.0000000000000000e+00 0.0000000000000000e+00  -3.9691930475209262e-07 1.8972717292143246e-06 0.0000000000000000e+00  -3.5617982098713398e-07 1.7332276124685771e-06 0.0000000000000000e+00  -4.9186847049215376e-07 2.3052572512763596e-06 0.0000000000000000e+00  -2.2762881893224217e-07 1.0813395539608559e-06 0.0000000000000000e+00  -1.1998329059156232e-07 5.8416398126363842e-07 0.0000000000000000e+00  0.0000000000000000e+00 0.0000000000000000e+00 0.0000000000000000e+00  0.0000000000000000e+00 0.0000000000000000e+00 0.0000000000000000e+00  -8.8906117784048218e-07 3.7184897114396843e-06 0.0000000000000000e+00  -3.8583438157674486e-07 1.7946242656998652e-06 0.0000000000000000e+00  -1.1628845148723428e-06 5.2059212472379105e-06 0.0000000000000000e+00  -1.1163386015245490e-06 5.0712130536221140e-06 0.0000000000000000e+00  -1.5550528639465063e-06 6.9666530049925480e-06 0.0000000000000000e+00  0.0000000000000000e+00 0.0000000000000000e+00 0.0000000000000000e+00  -6.7163327727212020e-07 3.1411553342248987e-06 0.0000000000000000e+00  -4.8467729825896467e-07 2.2524054810642687e-06 0.0000000000000000e+00  -5.5750658050585475e-06 2.3840275653107076e-05 0.0000000000000000e+00  -3.8396412348562850e-06 1.6925423152070846e-05 0.0000000000000000e+00  0.0000000000000000e+00 0.0000000000000000e+00 0.0000000000000000e+00  -1.7524329072408556e-07 8.1567836453711413e-07 0.0000000000000000e+00  -1.1371482292024699e-07 5.3136576423736691e-07 0.0000000000000000e+00  -3.4648752825381289e-06 1.4151505431106260e-05 0.0000000000000000e+00  -1.8684389080778210e-06 7.6737308865955924e-06 0.0000000000000000e+00  -3.4884232395899500e-06 1.7100523869260653e-05 0.0000000000000000e+00  -1.5613429922148070e-06 7.6509730386889613e-06 0.0000000000000000e+00  -2.6918667440050387e-06 1.3968814315357748e-05 0.0000000000000000e+00  0.0000000000000000e+00 0.0000000000000000e+00 0.0000000000000000e+00  -2.8744976229946461e-07 1.4461218333180832e-06 0.0000000000000000e+00  -1.2053102050131483e-06 5.3302119796621906e-06 0.0000000000000000e+00  -1.3103628834042892e-07 7.5860325782792641e-07 0.0000000000000000e+00  -6.6340806953627646e-08 4.2796194377419996e-07 0.0000000000000000e+00  -9.1696396823024152e-08 4.9934478996536565e-07 0.0000000000000000e+00  -2.4088948031151993e-07 1.1310120467930987e-06 0.0000000000000000e+00  -5.6759924429156630e-07 2.6187520154146035e-06 0.0000000000000000e+00  -6.8367269515974625e-07 3.1370271145833114e-06 0.0000000000000000e+00  -1.5250539649699744e-07 7.1575549898793733e-07 0.0000000000000000e+00  -6.2353769331332567e-08 2.9257817024761909e-07 0.0000000000000000e+00  -9.0431037894127280e-07 4.0997957757769644e-06 0.0000000000000000e+00  -8.3415439409853630e-06 2.5939056706410909e-05 0.0000000000000000e+00  -1.2559028099287629e-05 3.6589536453147886e-05 0.0000000000000000e+00  -9.4484012946277512e-06 2.5091262520441909e-05 0.0000000000000000e+00  -3.4149503059786432e-06 1.0118489886978194e-05 0.0000000000000000e+00  -5.8632289783413025e-06 1.9294337807311466e-05 0.0000000000000000e+00  -6.4302975124977119e-06 1.8705374623104783e-05 0.0000000000000000e+00  -6.4083615565629290e-06 3.1154610839510416e-05 0.0000000000000000e+00  -8.7775202851550428e-07 3.7844615929629832e-06 0.0000000000000000e+00  -1.0683626469602122e-05 3.8932232214829030e-05 0.0000000000000000e+00  -7.8417955049441459e-06 2.8029810217792508e-05 0.0000000000000000e+00  -9.7569486800503740e-06 3.8466723156524755e-05 0.0000000000000000e+00  -1.1335014056272975e-05 3.7813875438566656e-05 0.0000000000000000e+00  0.0000000000000000e+00 0.0000000000000000e+00 0.0000000000000000e+00  -1.3340821331925856e-06 6.1764553480474960e-06 0.0000000000000000e+00  -9.1777936239437443e-07 4.2416647136445427e-06 0.0000000000000000e+00  -3.7734698001999274e-06 1.2534186999332266e-05 0.0000000000000000e+00  -7.3766221405911910e-06 2.9062964504978489e-05 0.0000000000000000e+00  -6.0227710419215884e-06 3.1744093016303799e-05 0.0000000000000000e+00  -8.6117470158795175e-06 4.1511557261839310e-05 0.0000000000000000e+00  0.0000000000000000e+00 0.0000000000000000e+00 0.0000000000000000e+00  -5.9156106280814886e-06 2.2360112329456510e-05 0.0000000000000000e+00  -9.7014875676989603e-06 4.0813251512869224e-05 0.0000000000000000e+00  -7.3754910833295364e-06 3.1029084496280555e-05 0.0000000000000000e+00  -2.6329182974457083e-06 1.0430366232822934e-05 0.0000000000000000e+00  -9.3735055815280233e-06 4.2481567202783665e-05 0.0000000000000000e+00  0.0000000000000000e+00 0.0000000000000000e+00 0.0000000000000000e+00  0.0000000000000000e+00 0.0000000000000000e+00 0.0000000000000000e+00  -3.7074647688699005e-06 2.0399292285016471e-05 0.0000000000000000e+00  -7.8167134365948057e-07 3.5806202469685428e-06 0.0000000000000000e+00  -6.4516906318136330e-07 2.9869042874653325e-06 0.0000000000000000e+00  -1.3519765577957875e-05 5.6339247668627547e-05 0.0000000000000000e+00  -2.4009112580388507e-07 1.1161840204166274e-06 0.0000000000000000e+00  -4.0515895703491437e-07 1.8531725366323408e-06 0.0000000000000000e+00  -5.0110681909536598e-07 2.3006273425837538e-06 0.0000000000000000e+00  -6.4934230027173473e-07 2.9206972552764255e-06 0.0000000000000000e+00  -9.7901215982049083e-08 6.5498921857712848e-07 0.0000000000000000e+00  -1.7400349437943536e-05 7.6160356009018383e-05 0.0000000000000000e+00  -1.5871289566763281e-07 7.9761553713030228e-07 0.0000000000000000e+00  -6.9127288809697912e-08 3.5135081131517552e-07 0.0000000000000000e+00  -2.4395431804142632e-07 1.0899989641126645e-06 0.0000000000000000e+00  -4.7174417330469338e-07 2.1150711763606073e-06 0.0000000000000000e+00  0.0000000000000000e+00 0.0000000000000000e+00 0.0000000000000000e+00  0.0000000000000000e+00 0.0000000000000000e+00 0.0000000000000000e+00  0.0000000000000000e+00 0.0000000000000000e+00 0.0000000000000000e+00  -5.9789389213706084e-08 2.8873055499423760e-07 0.0000000000000000e+00  -4.0385941650875183e-07 1.9029806613454002e-06 0.0000000000000000e+00  -1.5380651854419746e-06 6.9647223079042815e-06 0.0000000000000000e+00  -2.1206451135951975e-06 9.5289742747561719e-06 0.0000000000000000e+00  -1.8675027741573031e-06 8.5403247164403391e-06 0.0000000000000000e+00  0.0000000000000000e+00 0.0000000000000000e+00 0.0000000000000000e+00  0.0000000000000000e+00 0.0000000000000000e+00 0.0000000000000000e+00  -2.0546028664005125e-06 7.3016728433170188e-06 0.0000000000000000e+00  -3.4604219079765341e-07 1.6198161037014403e-06 0.0000000000000000e+00  -5.5885398688691349e-07 2.5961206235334075e-06 0.0000000000000000e+00  -1.3061183589914876e-06 6.1223208897398076e-06 0.0000000000000000e+00  -2.1654491677739355e-06 1.0078882871819586e-05 0.0000000000000000e+00  -2.1748667490804931e-07 1.1851836306356013e-06 0.0000000000000000e+00  -1.9640834719249306e-07 1.0718228409316627e-06 0.0000000000000000e+00  -6.6799918976006905e-07 3.0324675223272422e-06 0.0000000000000000e+00  0.0000000000000000e+00 0.0000000000000000e+00 0.0000000000000000e+00  0.0000000000000000e+00 0.0000000000000000e+00 0.0000000000000000e+00  -1.3310230009104417e-06 5.2466132516897082e-06 0.0000000000000000e+00  0.0000000000000000e+00 0.0000000000000000e+00 0.0000000000000000e+00  -5.3156953704639787e-07 2.2705114311768772e-06 0.0000000000000000e+00  -4.5010990252591397e-06 1.6291318476229442e-05 0.0000000000000000e+00  0.0000000000000000e+00 0.0000000000000000e+00 0.0000000000000000e+00  -1.2303851017601396e-05 6.6532758841943295e-05 0.0000000000000000e+00  -1.6164172857441465e-05 6.1920979325210746e-05 0.0000000000000000e+00  -8.4282312563683011e-07 3.4322759057183444e-06 0.0000000000000000e+00  -2.7570948936200465e-07 1.2102004923461550e-06 0.0000000000000000e+00  -3.0925700168510442e-07 1.5070649396843045e-06 0.0000000000000000e+00  -2.7647813178679602e-06 1.2612471754207568e-05 0.0000000000000000e+00  -3.5868485462119474e-06 1.6787061048347889e-05 0.0000000000000000e+00  -2.3433654616699608e-07 1.1966353157083506e-06 0.0000000000000000e+00  -1.8007663251469140e-06 8.5400617790851295e-06 0.0000000000000000e+00  -8.6158557139848337e-07 4.0988226577597191e-06 0.0000000000000000e+00  -1.8704609703603104e-08 8.7759818142441456e-08 0.0000000000000000e+00  -2.5342008114267601e-07 1.1814566019049576e-06 0.0000000000000000e+00  -3.7846147662857059e-08 2.2652039099753549e-07 0.0000000000000000e+00  -8.5769072701555749e-06 4.7713202223387607e-05 0.0000000000000000e+00  -2.4910970638896169e-06 9.4459349792563829e-06 0.0000000000000000e+00  -3.0023295822415374e-07 1.4423595716289935e-06 0.0000000000000000e+00  -4.2727553264207325e-07 2.0129562272893551e-06 0.0000000000000000e+00  -3.4034062294515369e-07 1.6063301448262595e-06 0.0000000000000000e+00  -1.5594736686027295e-05 5.1622247489452673e-05 0.0000000000000000e+00  -4.5955213666740805e-07 2.1453979555852173e-06 0.0000000000000000e+00  0.0000000000000000e+00 0.0000000000000000e+00 0.0000000000000000e+00  0.0000000000000000e+00 0.0000000000000000e+00 0.0000000000000000e+00  -1.3786420425368413e-06 6.3085386064138013e-06 0.0000000000000000e+00  -2.6024892076957884e-06 1.2433774818828480e-05 0.0000000000000000e+00  -2.8752103563407045e-06 1.2801755778538785e-05 0.0000000000000000e+00  -2.1875695177483163e-07 1.0583208568874330e-06 0.0000000000000000e+00  -6.9140996981775188e-07 3.0715627114295400e-06 0.0000000000000000e+00  -5.9201477107732036e-07 2.7392996794688861e-06 0.0000000000000000e+00  -4.7420757581756854e-07 2.2036081104464655e-06 0.0000000000000000e+00  -1.7382345419959200e-07 9.1104490206307503e-07 0.0000000000000000e+00  -3.8547691607931319e-06 1.4829704239749707e-05 0.0000000000000000e+00  -1.7872620181559698e-06 5.8447260161051274e-06 0.0000000000000000e+00  -4.3515501518476643e-07 2.0558432381586914e-06 0.0000000000000000e+00  -4.0663409771700139e-08 1.9032556118404803e-07 0.0000000000000000e+00  0.0000000000000000e+00 0.0000000000000000e+00 0.0000000000000000e+00  -1.1031309010913165e-06 4.1529707903965910e-06 0.0000000000000000e+00  -1.0266007365802315e-06 4.7071602654146275e-06 0.0000000000000000e+00  -4.1837668070042293e-08 3.6547681513463515e-07 0.0000000000000000e+00  -1.5681999562498427e-06 6.9356092318451384e-06 0.0000000000000000e+00  0.0000000000000000e+00 0.0000000000000000e+00 0.0000000000000000e+00  -4.8264910538895124e-06 2.4182899645568033e-05 0.0000000000000000e+00  -7.3979224207458825e-07 3.3658829536619522e-06 0.0000000000000000e+00  -1.4735860768101496e-07 9.0834510034720724e-07 0.0000000000000000e+00  -1.6208335243194828e-07 1.0036040897167528e-06 0.0000000000000000e+00  -5.1750383416850858e-06 2.0522206674487258e-05 0.0000000000000000e+00  -8.0772853830309304e-07 3.7092695902215260e-06 0.0000000000000000e+00  -2.6044806704568404e-07 1.1276463652998124e-06 0.0000000000000000e+00  -1.2140593540890391e-05 4.7343558842955111e-05 0.0000000000000000e+00  -9.0026833766663621e-07 4.0064179329067984e-06 0.0000000000000000e+00  0.0000000000000000e+00 0.0000000000000000e+00 0.0000000000000000e+00  -2.6853853372490649e-08 1.9311825495142168e-07 0.0000000000000000e+00  -3.6679516785413258e-06 1.6632426025261831e-05 0.0000000000000000e+00  -1.3379882850051992e-05 4.8362413675453995e-05 0.0000000000000000e+00  -2.0567622757948633e-06 9.0910673274401741e-06 0.0000000000000000e+00  -2.5933784154771855e-07 1.3379578807156158e-06 0.0000000000000000e+00  -3.3523104680285864e-07 1.6316785182114929e-06 0.0000000000000000e+00  -2.6656630727934753e-07 1.3757736851970416e-06 0.0000000000000000e+00  -8.6206297744462711e-07 3.8795651160955624e-06 0.0000000000000000e+00  0.0000000000000000e+00 0.0000000000000000e+00 0.0000000000000000e+00  0.0000000000000000e+00 0.0000000000000000e+00 0.0000000000000000e+00  -1.0630482323526197e-06 4.5277958226921246e-06 0.0000000000000000e+00  0.0000000000000000e+00 0.0000000000000000e+00 0.0000000000000000e+00  -4.8164429583062426e-06 1.9939086864182473e-05 0.0000000000000000e+00  -2.3143138056287447e-07 1.1480036562364215e-06 0.0000000000000000e+00  -1.9582929165188913e-07 1.1180327432317050e-06 0.0000000000000000e+00  -6.0797815488576363e-06 2.4908844614239160e-05 0.0000000000000000e+00  </DataArray> 
</PointData> 
</Piece>
</UnstructuredGrid>
</VTKFile>