<?xml version="1.0"?>
<VTKFile type="UnstructuredGrid"  version="0.1"  >
<UnstructuredGrid>
<Piece  NumberOfPoints="203" NumberOfCells="346">
<Points>
<DataArray  type="Float64"  NumberOfComponents="3"  format="ascii">0.2607803159922026 0.2000727136295815 0  0.2677053789419034 0.1964246479135325 0  0.267698176732111 0.2039977513680092 0  0.2751288526855082 0.20000000000002 0  0.2603913042767976 0.1945999920783741 0  0.2639263993299336 0.19 0  0.25 0.2 0  0.2497468076502589 0.2050254481002335 0  0.2550657455369551 0.2034088125358657 0  0.2825131256993216 0.2035478995978015 0  0.2825051229162361 0.1959834479681729 0  0.2713947015670686 0.19 0  0.2601812407614425 0.2056861609747042 0  0.2497468076502614 0.1949745518997913 0  0.2548908499171161 0.1966940311614271 0  0.2751288526855081 0.205697194228819 0  0.2751288526856362 0.1943028057711959 0  0.2788630038040554 0.21 0  0.2564580970927985 0.19 0  0.2525889069107169 0.1926036384190297 0  0.25645809709277 0.21 0  0.25261805618068 0.2074135021971937 0  0.2639263993298655 0.21 0  0.271394701566961 0.21 0  0.2863313060413428 0.19 0  0.2788630038042048 0.19 0  0.2489897948556636 0.19 0  0.2489897948556636 0.21 0  0.3411792619035872 0.1007807988883264 0  0.3223547013037051 0.0811661342953541 0  0.3444094697767079 0.06991525711561337 0  0.2731077660562961 0.05508844879223635 0  0.2987388406956894 0.03154986994134981 0  0.2542757755299287 0.02753888901404131 0  0.3578728954606922 0.1299960675997348 0  0.3428550702839791 0.1207298864326248 0  0.3606088315611094 0.1037277084934985 0  0.2767628315692916 0.1210799475693868 0  0.260361447596534 0.1229759280558447 0  0.2739511166480145 0.1012903426171407 0  0.228090483983057 0.1360461642521307 0  0.2156274396954392 0.1428329882811742 0  0.2231096629876289 0.1473860403476538 0  0.3642910294882131 0.08514217524358583 0  0.3684404229859068 0.05879875930223131 0  0.3866266297147894 0.03466711669742863 0  0.3886771468199661 0.07134613381357163 0  0.2571393426600714 0.09909224058133874 0  0.3718691980658081 0.1185113859721947 0  0.2798983539554935 0.1725715317274126 0  0.2887875715604008 0.1784526411902859 0  0.2798265752054099 0.1801908109055989 0  0.235428184091502 0 0  0.2269089833956681 0.04173965335049001 0  0.2054867233040618 0.02496467843107029 0  0.2607466101664424 0.2266930975791233 0  0.271385042995999 0.2220255791858506 0  0.2640363109795177 0.2179944263838653 0  0.2516468834717856 0.2324930308055588 0  0.2510679533716966 0.2249523323210773 0  0.2981367854000865 0.1637235218245288 0  0.3103932646056649 0.1564266048246118 0  0.2950877208405285 0.1519675848591752 0  0.2473666618189879 0.1284124620716267 0  0.2591911171199197 0.1383198970354824 0  0.2490293115886795 0.1431700167801526 0  0.2607333124992295 0.173299215235651 0  0.2711961111491841 0.1784474567953763 0  0.2640363109795686 0.1820055736160818 0  0.2517589812677475 0.167282708207138 0  0.2510789311637825 0.1750218956597876 0  0.2718919859823887 0.1383852123087317 0  0.2166911463437691 0.1528682099456123 0  0.2096071079204251 0.1509316448471593 0  0.2693249379754523 0.232253714048252 0  0.2741016576309132 0 0  0.3196154281700737 0.10148243027238 0  0.3418349201952718 0.1615259010424026 0  0.3538118084207602 0.155339561103512 0  0.3411001259021957 0.1498303228783227 0  0.29753375939705 0.1013617902187171 0  0.3134318661301231 0.1190195115870869 0  0.2957425685352801 0.1395139256920557 0  0.294176374911891 0.1223585976984507 0  0.3100661524214186 0.1349017352953573 0  0.2166066364647865 0.1318674827965409 0  0.2211645858397942 0.1228171087145059 0  0.2599422691915476 0.1624889056516055 0  0.246996525252926 0.2170682926548348 0  0.2561841824185058 0.2195000859865352 0  0.2802365149396702 0.2293267412254819 0  0.2469965252529372 0.1829317073451959 0  0.2561841824184873 0.1804999140134954 0  0.2854688561834498 0.2412236914981949 0  0.2752342263051384 0.2394149830158712 0  0.2437828577465094 0.1110862473067074 0  0.2400332147834255 0.1700443375285386 0  0.2352133972704371 0.1645032867342007 0  0.2437579188981839 0.1628382198077666 0  0.350756438860385 0.03770412947703979 0  0.2788297821231576 0.08311242826819275 0  0.252515959816117 0.07648796931448625 0  0.2588244756332078 0.23611127323402 0  0.2533462554466219 0.2143516991142523 0  0.30960746080092 0.166771572284543 0  0.2533462554466303 0.18564830088576 0  0.3556974926295285 0 0  0.2836036752964591 0.1339631263286828 0  0.2900654571599118 0.1851244352956092 0  0.2825971549227736 0.1858129330595456 0  0.2693200344911409 0.1703624615729042 0  0.2885139350435456 0.1684952536990488 0  0.3000697101066698 0.06520450816453537 0  0.3871533862426518 0.1004535961197204 0  0.3238690756099825 0.05273873904001699 0  0.2439893735792577 0.2237683615780412 0  0.2439893735792749 0.1762316384219906 0  0.2340427519707383 0.12500661673201 0  0.2092567323014181 0.1231268265338988 0  0.1984955210867955 0.1136055788350874 0  0.2148660291046949 0.1110801690257468 0  0.2755531838498857 0.1520654843226777 0  0.2695935332846553 0.1606647427601511 0  0.2781997444103622 0.1631408916221692 0  0.3038812691128678 0.0841994561932124 0  0.387533158164613 0.1229770158841918 0  0.3298647941762166 0.154951077946048 0  0.3304301052933576 0.1665413931712652 0  0.3024350031838242 0.1697562882658549 0  0.3527566348301668 0.1449455739485435 0  0.3342547353003448 0.176221364131867 0  0.3420590264647178 0.171174416987776 0  0.2372267379181886 0.156514666897516 0  0.2311198366185791 0.1437551092913072 0  0.2658768459325225 0.2418747601129979 0  0.2023158100364996 0.1500536585536553 0  0.1988434545186226 0.1412267786066319 0  0.2067838776803175 0.1442269954006475 0  0.2862543528039888 0.1579205993776223 0  0.2537568794636046 0.1534616887828778 0  0.2638326913414331 0.1507903208689992 0  0.23872107061991 0.1472714280426708 0  0.2448734012151204 0.1541363176121021 0  0.2063021547212692 0.09746645431143124 0  0.2296339016332438 0.1597280261969788 0  0.238348372815025 0.1368713418351483 0  0.2400332147833751 0.2299556624715287 0  0.2433956710264305 0.2381734167068584 0  0.2460399618407353 0.2294379412176375 0  0.2460399618407632 0.1705620587824227 0  0.2077074758137319 0.1359897507413737 0  0.1990707649929309 0.1296245621647927 0  0.3193133202755013 0.1460459073405674 0  0.3272191874237106 0.1310770977832356 0  0.3056626962672545 0.1462841663847227 0  0.2234150974217223 0.1558215752574715 0  0.2304119763419897 0.1515908441060641 0  0.3141745521465447 0 0  0.2751288526855082 0.2504894696471402 0  0.2416741650815652 0.0950846504064212 0  0.2853857357028925 0.1110828225342078 0  0.3534047339781095 0.1664079800909994 0  0.1970804225914977 0.07638822249409431 0  0.213756581476409 0.08311851351475982 0  0.2259637082614391 0.09968835807421736 0  0.3198867512741007 0.1691875758392534 0  0.3199291472277772 0.1784487091275169 0  0.3133418865444516 0.1745347694704089 0  0.3264689647572548 0.1745410252268062 0  0.3272791508030818 0.1825813053721834 0  0.334769373574778 0.1838585991320073 0  0.3198495352051576 0.1594009174606977 0  0.3245469487057487 0.02783302239578031 0  0.2312810177471911 0.08330382810563154 0  0.2000506922905834 0.05138745584171936 0  0.2178953059102855 0.06599367533480922 0  0.2565972207468325 0.1466368372771288 0  0.2846721669765922 0.1457902303354471 0  0.2280545270734199 0.114161215267224 0  0.3052148703289762 0.176135200920133 0  0.3125543224194783 0.1825714068210268 0  0.3050224637686886 0.1840003691157356 0  0.350235271979906 0.176105405901683 0  0.3422976980851364 0.1814371791041619 0  0.2973900081628705 0.1824599091601672 0  0.247794183473202 0.05155939024503531 0  0.2751288526856362 0.184558060069257 0  0.2507143478459989 0.1602321207261197 0  0.3646043070190422 0.1595814785132252 0  0.3655464778159961 0.1466879707354811 0  0.3750556316230105 0.1339831864103567 0  0.2968565228222139 0.1734776848403526 0  0.3316683313872936 0.1433924279692641 0  0.3419037881374767 0.1376590441034941 0  0.2692521927396536 0.2151979606124073 0  0.2691876260717925 0.1848526873929683 0  0.2356079172485811 0.06536850945193971 0  0.2754241708482248 0.2153487639899751 0  0.2507569858396673 0.2399489856244889 0  0.2601922482113177 0.2140493078607503 0  0.260192248211366 0.1859506921392313 0  0.3296083350321284 0.1156006243865368 0  0.3199315490584526 0.1848904494130124 0  </DataArray>
</Points>
<Cells>
<DataArray  type="UInt32"  Name="connectivity"  format="ascii">0 1 2  3 1 2  0 1 4  5 1 4  6 7 8  3 9 10  11 5 1  0 2 12  6 13 14  3 2 15  3 10 16  6 8 14  17 9 15  3 9 15  18 14 19  3 1 16  11 1 16  20 8 21  22 23 2  24 25 10  0 8 14  7 8 21  22 2 12  18 14 4  23 2 15  20 8 12  25 10 16  13 14 19  5 18 4  20 22 12  0 14 4  25 11 16  23 17 15  0 8 12  26 13 19  27 7 21  26 18 19  27 20 21  28 29 30  31 32 33  34 35 36  37 38 39  40 41 42  28 43 30  44 45 46  47 38 39  48 34 36  49 50 51  52 53 54  55 56 57  55 58 59  60 61 62  63 64 65  66 67 68  52 53 33  66 69 70  64 38 71  72 73 41  55 56 74  75 32 33  28 29 76  77 78 79  80 81 76  82 83 84  40 85 86  49 67 51  66 69 87  88 89 59  80 81 83  37 38 71  90 56 74  91 92 70  40 41 85  90 93 94  47 38 95  96 97 98  44 99 30  47 100 101  55 74 102  88 89 103  60 61 104  91 92 105  106 99 45  82 83 107  47 100 39  50 108 109  49 67 110  49 50 111  31 112 32  66 87 110  113 48 36  55 89 59  80 100 39  114 99 30  55 89 57  66 92 70  28 43 36  50 51 109  115 88 59  91 116 70  66 92 68  66 67 110  55 58 102  28 35 36  40 117 86  118 119 120  114 112 32  63 38 95  121 122 123  90 74 94  63 64 38  80 100 124  80 76 124  113 48 125  77 126 127  60 104 128  78 79 129  81 83 84  130 127 131  97 98 132  113 43 36  40 42 133  31 100 112  134 74 102  44 99 45  37 107 71  135 136 137  60 138 111  139 87 140  141 65 142  37 83 107  72 41 42  77 127 131  143 119 120  97 144 132  31 100 101  63 65 145  121 122 140  146 147 148  96 98 149  73 41 137  113 43 46  118 150 151  152 153 84  121 138 123  61 62 154  49 111 123  114 29 112  144 155 156  75 157 32  60 138 62  118 150 85  122 87 110  139 65 142  158 134 94  122 87 140  150 136 151  155 72 42  47 101 159  80 39 160  49 110 123  77 78 161  144 132 156  162 143 163  143 164 163  152 61 154  150 41 85  64 140 71  165 166 167  165 166 168  130 169 170  165 104 171  157 106 172  44 43 30  77 126 79  155 156 42  141 65 145  138 111 123  100 112 124  165 127 171  173 101 159  162 174 175  141 145 133  63 95 117  158 93 94  64 140 176  143 120 164  118 151 119  58 147 148  121 138 177  178 95 164  52 75 33  69 98 149  121 140 71  179 180 181  29 76 124  182 183 131  130 183 131  152 61 171  106 99 172  179 184 181  31 101 185  67 51 186  31 33 185  182 161 131  179 180 167  121 177 71  130 169 168  29 112 124  81 153 84  139 87 187  69 87 187  114 29 30  78 161 188  152 84 154  178 95 117  53 33 185  44 43 46  152 126 171  189 34 190  179 184 191  61 104 171  152 126 192  193 153 35  138 62 177  134 74 94  141 132 156  60 111 191  82 107 177  126 127 171  77 161 131  152 153 192  73 135 137  130 183 170  50 111 191  22 23 194  150 136 137  122 110 123  193 34 35  11 5 195  22 57 194  150 41 137  53 175 196  5 68 195  40 145 133  189 34 129  189 78 188  114 32 172  53 174 175  95 164 159  193 153 192  107 177 71  50 184 191  23 17 197  179 104 167  25 11 186  173 175 163  193 34 129  162 175 163  53 185 196  126 79 192  50 184 108  166 180 167  58 102 198  37 83 160  141 132 142  27 20 103  26 18 105  165 104 167  139 65 176  48 125 190  141 156 133  166 169 168  22 57 199  173 164 163  58 147 198  189 78 129  5 68 200  173 101 196  53 174 54  20 103 199  27 88 103  98 132 142  40 145 117  18 105 200  26 91 105  115 59 148  69 98 187  89 103 199  130 127 168  165 127 168  81 153 201  146 115 148  116 70 149  92 105 200  116 96 149  80 83 160  89 57 199  166 180 202  81 76 201  48 34 190  166 169 202  173 175 196  92 68 200  139 140 176  60 191 128  179 104 128  114 99 172  25 186 109  20 22 199  5 18 200  157 32 172  82 84 154  24 25 109  24 108 109  193 79 129  118 120 86  82 62 177  56 57 194  37 39 160  67 68 195  178 120 164  156 42 133  98 142 187  101 185 196  63 145 117  58 59 148  178 117 86  69 70 149  118 85 86  51 186 109  64 65 176  28 76 201  178 120 86  56 197 194  153 35 201  67 186 195  82 62 154  23 197 194  139 142 187  11 186 195  193 79 192  179 191 128  28 35 201  47 95 159  173 164 159  </DataArray>
<DataArray  type="UInt32"  Name="offsets"  format="ascii">3 6 9 12 15 18 21 24 27 30 33 36 39 42 45 48 51 54 57 60 63 66 69 72 75 78 81 84 87 90 93 96 99 102 105 108 111 114 117 120 123 126 129 132 135 138 141 144 147 150 153 156 159 162 165 168 171 174 177 180 183 186 189 192 195 198 201 204 207 210 213 216 219 222 225 228 231 234 237 240 243 246 249 252 255 258 261 264 267 270 273 276 279 282 285 288 291 294 297 300 303 306 309 312 315 318 321 324 327 330 333 336 339 342 345 348 351 354 357 360 363 366 369 372 375 378 381 384 387 390 393 396 399 402 405 408 411 414 417 420 423 426 429 432 435 438 441 444 447 450 453 456 459 462 465 468 471 474 477 480 483 486 489 492 495 498 501 504 507 510 513 516 519 522 525 528 531 534 537 540 543 546 549 552 555 558 561 564 567 570 573 576 579 582 585 588 591 594 597 600 603 606 609 612 615 618 621 624 627 630 633 636 639 642 645 648 651 654 657 660 663 666 669 672 675 678 681 684 687 690 693 696 699 702 705 708 711 714 717 720 723 726 729 732 735 738 741 744 747 750 753 756 759 762 765 768 771 774 777 780 783 786 789 792 795 798 801 804 807 810 813 816 819 822 825 828 831 834 837 840 843 846 849 852 855 858 861 864 867 870 873 876 879 882 885 888 891 894 897 900 903 906 909 912 915 918 921 924 927 930 933 936 939 942 945 948 951 954 957 960 963 966 969 972 975 978 981 984 987 990 993 996 999 1002 1005 1008 1011 1014 1017 1020 1023 1026 1029 1032 1035 1038 </DataArray>
<DataArray  type="UInt8"  Name="types"  format="ascii">5 5 5 5 5 5 5 5 5 5 5 5 5 5 5 5 5 5 5 5 5 5 5 5 5 5 5 5 5 5 5 5 5 5 5 5 5 5 5 5 5 5 5 5 5 5 5 5 5 5 5 5 5 5 5 5 5 5 5 5 5 5 5 5 5 5 5 5 5 5 5 5 5 5 5 5 5 5 5 5 5 5 5 5 5 5 5 5 5 5 5 5 5 5 5 5 5 5 5 5 5 5 5 5 5 5 5 5 5 5 5 5 5 5 5 5 5 5 5 5 5 5 5 5 5 5 5 5 5 5 5 5 5 5 5 5 5 5 5 5 5 5 5 5 5 5 5 5 5 5 5 5 5 5 5 5 5 5 5 5 5 5 5 5 5 5 5 5 5 5 5 5 5 5 5 5 5 5 5 5 5 5 5 5 5 5 5 5 5 5 5 5 5 5 5 5 5 5 5 5 5 5 5 5 5 5 5 5 5 5 5 5 5 5 5 5 5 5 5 5 5 5 5 5 5 5 5 5 5 5 5 5 5 5 5 5 5 5 5 5 5 5 5 5 5 5 5 5 5 5 5 5 5 5 5 5 5 5 5 5 5 5 5 5 5 5 5 5 5 5 5 5 5 5 5 5 5 5 5 5 5 5 5 5 5 5 5 5 5 5 5 5 5 5 5 5 5 5 5 5 5 5 5 5 5 5 5 5 5 5 5 5 5 5 5 5 5 5 5 5 5 5 5 5 5 5 5 5 5 5 5 5 5 5 5 5 5 5 5 5 5 5 5 5 5 5 </DataArray>
</Cells>
<PointData  Vectors="f_41-0"> 
<DataArray  type="Float64"  Name="f_41-0"  NumberOfComponents="3" format="ascii">-9.3988893990243271e-07 1.7988408941023086e-06 0.0000000000000000e+00  -9.6229982159701611e-07 3.5299599617720735e-06 0.0000000000000000e+00  -2.0704928816983611e-06 3.4033133750357486e-06 0.0000000000000000e+00  -1.9770872327626290e-06 5.2945854706872234e-06 0.0000000000000000e+00  -3.1826021930598466e-07 1.8531714573598719e-06 0.0000000000000000e+00  3.0428835913728377e-07 2.8406610317648220e-06 0.0000000000000000e+00  0.0000000000000000e+00 0.0000000000000000e+00 0.0000000000000000e+00  0.0000000000000000e+00 0.0000000000000000e+00 0.0000000000000000e+00  -6.4624673935462769e-07 6.7120696811182815e-07 0.0000000000000000e+00  -2.8383370955408648e-06 6.7761221078497960e-06 0.0000000000000000e+00  -1.8913926599700145e-06 7.1043708781998665e-06 0.0000000000000000e+00  -8.8741550043241333e-08 4.6114168557395041e-06 0.0000000000000000e+00  -1.5325276633932185e-06 1.7027062360331838e-06 0.0000000000000000e+00  0.0000000000000000e+00 0.0000000000000000e+00 0.0000000000000000e+00  -2.7957104242118616e-07 6.8183968687703162e-07 0.0000000000000000e+00  -2.9075799879802681e-06 5.1226805842927379e-06 0.0000000000000000e+00  -1.1324227031417656e-06 5.4396254687927763e-06 0.0000000000000000e+00  -3.9635560887569379e-06 5.7121029959950882e-06 0.0000000000000000e+00  3.9045569776290132e-07 1.3256111544668984e-06 0.0000000000000000e+00  5.3874099127972398e-09 4.8843180160720204e-07 0.0000000000000000e+00  -1.6168388674133783e-06 1.1763386478055743e-06 0.0000000000000000e+00  -5.5936095451729077e-07 4.2767632711650906e-07 0.0000000000000000e+00  -2.8267952868414682e-06 2.6004802203674088e-06 0.0000000000000000e+00  -3.6119280393571208e-06 4.1987166288751713e-06 0.0000000000000000e+00  -1.4974368785878853e-06 7.9886371170274692e-06 0.0000000000000000e+00  -7.1941066022209518e-07 6.4078533967749869e-06 0.0000000000000000e+00  0.0000000000000000e+00 0.0000000000000000e+00 0.0000000000000000e+00  0.0000000000000000e+00 0.0000000000000000e+00 0.0000000000000000e+00  9.6797144314451289e-01 1.0506709610173348e-01 0.0000000000000000e+00  1.0027610051189282e+00 7.6556742902152322e-02 0.0000000000000000e+00  9.7164197718945755e-01 6.7209931572873041e-02 0.0000000000000000e+00  9.8830159893478353e-01 1.3670711483498446e-02 0.0000000000000000e+00  8.7187363868599155e-01 2.5442053801731337e-02 0.0000000000000000e+00  8.4736027804503344e-01 1.0086205523944189e-02 0.0000000000000000e+00  8.3003299461398472e-01 1.2266289499035798e-01 0.0000000000000000e+00  8.9910491017949867e-01 1.3245229536989683e-01 0.0000000000000000e+00  9.3702471449631675e-01 9.6942216232122375e-02 0.0000000000000000e+00  1.0392901748600016e+00 1.3297608664381011e-01 0.0000000000000000e+00  1.0834586405834588e+00 1.0563696808257850e-01 0.0000000000000000e+00  1.1156110904181480e+00 6.5605313864626591e-02 0.0000000000000000e+00  8.4303814554623213e-01 4.8049188210433094e-02 0.0000000000000000e+00  5.2856692767055635e-01 3.0482217098137240e-02 0.0000000000000000e+00  2.6138213231414892e-01 4.7230269472179849e-02 0.0000000000000000e+00  9.5429369669950681e-01 7.5878741218179557e-02 0.0000000000000000e+00  9.3968626965975466e-01 4.9460116515191950e-02 0.0000000000000000e+00  8.0074842015148739e-01 1.8865514272202077e-02 0.0000000000000000e+00  9.3308382916716881e-01 5.0803732309525958e-02 0.0000000000000000e+00  1.1491893602891661e+00 1.7543788915584696e-02 0.0000000000000000e+00  8.8489316646464267e-01 1.0144011537238101e-01 0.0000000000000000e+00  5.6178005478381844e-02 3.7638714055702710e-02 0.0000000000000000e+00  3.8385590492158547e-02 2.3855627163754698e-02 0.0000000000000000e+00  -4.3781038627144659e-04 1.2863341252704821e-02 0.0000000000000000e+00  0.0000000000000000e+00 0.0000000000000000e+00 0.0000000000000000e+00  8.8132889770234479e-01 -4.3578002867374316e-02 0.0000000000000000e+00  7.3982569635117768e-01 -2.7199259453499981e-02 0.0000000000000000e+00  -6.0488477420413472e-03 3.5771920541013565e-03 0.0000000000000000e+00  -1.0957494611698886e-02 -8.9617183110495980e-03 0.0000000000000000e+00  -2.6291619824419975e-02 2.6931808457733640e-03 0.0000000000000000e+00  4.8066362523748072e-03 1.3557994428005099e-02 0.0000000000000000e+00  -1.5967231168169772e-02 2.2693935684672529e-02 0.0000000000000000e+00  2.5707137193779372e-01 9.8339529587189223e-02 0.0000000000000000e+00  4.3081405102313447e-01 1.3314217789369623e-01 0.0000000000000000e+00  4.5523202402710317e-01 1.4861387517316432e-01 0.0000000000000000e+00  1.0263907264810692e+00 8.5282419421514558e-02 0.0000000000000000e+00  7.1403299553084487e-01 1.3681035448820530e-01 0.0000000000000000e+00  5.2406838018499202e-01 1.0571299114229560e-01 0.0000000000000000e+00  -4.0820021090642138e-03 -2.5740610873458509e-03 0.0000000000000000e+00  -1.1254853454442364e-02 8.5231442251410862e-03 0.0000000000000000e+00  -2.5247661371967128e-02 -2.3794008853334557e-03 0.0000000000000000e+00  8.3791281486005863e-03 -1.1210132885142870e-02 0.0000000000000000e+00  -1.5248723078925542e-02 -2.1998462154997647e-02 0.0000000000000000e+00  7.2174997285552400e-01 1.6040085343455404e-01 0.0000000000000000e+00  0.0000000000000000e+00 0.0000000000000000e+00 0.0000000000000000e+00  0.0000000000000000e+00 0.0000000000000000e+00 0.0000000000000000e+00  6.2357692651429708e-02 -3.3868138769232246e-02 0.0000000000000000e+00  0.0000000000000000e+00 0.0000000000000000e+00 0.0000000000000000e+00  1.0031628365890639e+00 1.1059231818430952e-01 0.0000000000000000e+00  4.8035995732686015e-01 9.0796613924859812e-02 0.0000000000000000e+00  5.8951780648724472e-01 9.7885338602947861e-02 0.0000000000000000e+00  6.2117016989115259e-01 1.2691647478792217e-01 0.0000000000000000e+00  1.0559251743709290e+00 1.0076262179287242e-01 0.0000000000000000e+00  9.5690475080175807e-01 1.4973978908612992e-01 0.0000000000000000e+00  7.1338933199437626e-01 1.7758348497709231e-01 0.0000000000000000e+00  9.7791667989766606e-01 1.5561590964419761e-01 0.0000000000000000e+00  7.9529560699150625e-01 1.7488772853107573e-01 0.0000000000000000e+00  1.1021280210550346e+00 -5.9100994008960836e-02 0.0000000000000000e+00  1.2621734077863007e+00 -8.6833554203272573e-02 0.0000000000000000e+00  9.0542629049278608e-02 3.1378757016336849e-02 0.0000000000000000e+00  0.0000000000000000e+00 0.0000000000000000e+00 0.0000000000000000e+00  -2.0233294504876084e-02 1.2312220394400454e-02 0.0000000000000000e+00  7.3232383484516619e-02 -4.4756151930051336e-02 0.0000000000000000e+00  0.0000000000000000e+00 0.0000000000000000e+00 0.0000000000000000e+00  -1.9616096450700369e-02 -1.1918134434815339e-02 0.0000000000000000e+00  2.7312503572782376e-01 -1.0846605356800958e-01 0.0000000000000000e+00  1.9111356463242404e-01 -8.0664590425768942e-02 0.0000000000000000e+00  1.2161877590609502e+00 8.5850593158751402e-04 0.0000000000000000e+00  0.0000000000000000e+00 0.0000000000000000e+00 0.0000000000000000e+00  0.0000000000000000e+00 0.0000000000000000e+00 0.0000000000000000e+00  1.2724666518527264e-02 -7.9388139059053675e-03 0.0000000000000000e+00  8.6259896525050839e-01 3.3026240986024386e-02 0.0000000000000000e+00  1.0648696259673249e+00 3.9301266858655377e-02 0.0000000000000000e+00  1.0655261192375329e+00 -2.0896393641012499e-02 0.0000000000000000e+00  6.3918616697672903e-02 -1.9152474861209006e-02 0.0000000000000000e+00  -8.8493186922573679e-03 5.1171762492778832e-03 0.0000000000000000e+00  2.6939728516342276e-01 8.6037122124348830e-02 0.0000000000000000e+00  -8.7183695874560492e-03 -5.0452240749075854e-03 0.0000000000000000e+00  0.0000000000000000e+00 0.0000000000000000e+00 0.0000000000000000e+00  8.2571846758006828e-01 1.7332585101480658e-01 0.0000000000000000e+00  3.5179029503497193e-03 5.1341955104493688e-03 0.0000000000000000e+00  -1.0212519435687333e-02 2.8533233811434940e-03 0.0000000000000000e+00  3.8879171793576701e-02 2.5888164159061977e-02 0.0000000000000000e+00  1.4100468710699915e-01 6.6694606882918686e-02 0.0000000000000000e+00  1.0065257483567018e+00 4.7783810508867139e-02 0.0000000000000000e+00  9.1891652075081298e-01 7.4855965838017388e-02 0.0000000000000000e+00  9.6586996976532202e-01 5.0972513790974179e-02 0.0000000000000000e+00  0.0000000000000000e+00 0.0000000000000000e+00 0.0000000000000000e+00  0.0000000000000000e+00 0.0000000000000000e+00 0.0000000000000000e+00  1.1638718802075061e+00 1.0385462114214030e-02 0.0000000000000000e+00  1.3027673078463027e+00 -1.8286967033397505e-01 0.0000000000000000e+00  1.2617716056104855e+00 -2.6206967988294400e-01 0.0000000000000000e+00  1.2723834341199043e+00 -1.5488084026988089e-01 0.0000000000000000e+00  3.7384723366075029e-01 1.2473893767871348e-01 0.0000000000000000e+00  1.6703320579761288e-01 6.8285991556657807e-02 0.0000000000000000e+00  1.6862797485361553e-01 7.6444169944867441e-02 0.0000000000000000e+00  1.0314428690689612e+00 7.1158575585284337e-02 0.0000000000000000e+00  8.5979973733018711e-01 8.6949794126878630e-02 0.0000000000000000e+00  5.2356342821881330e-01 1.2550115602661069e-01 0.0000000000000000e+00  3.7095938919878935e-01 7.9415643982360173e-02 0.0000000000000000e+00  1.9335900600110714e-01 6.9950116642686827e-02 0.0000000000000000e+00  6.9700408460770202e-01 1.2063732298772437e-01 0.0000000000000000e+00  2.5872869569720602e-01 3.4896138270183022e-02 0.0000000000000000e+00  3.6149384972978016e-01 5.2183836697580151e-02 0.0000000000000000e+00  5.9197423930404065e-02 1.5172583460329583e-02 0.0000000000000000e+00  4.5712083053145425e-01 6.9085743420932641e-02 0.0000000000000000e+00  1.8855148105504435e-01 -6.8936068593046809e-02 0.0000000000000000e+00  0.0000000000000000e+00 0.0000000000000000e+00 0.0000000000000000e+00  8.4301762090806021e-01 -1.3087076308476922e-01 0.0000000000000000e+00  4.8678979507191905e-01 -6.3278451469018313e-03 0.0000000000000000e+00  2.9930024311750802e-01 1.1553635259109839e-01 0.0000000000000000e+00  2.2589338498157538e-01 6.4389814760274749e-02 0.0000000000000000e+00  3.4928072872057170e-01 1.0486425525071348e-01 0.0000000000000000e+00  3.3027448212701122e-01 7.0394692996194344e-02 0.0000000000000000e+00  1.5432050865313865e-01 4.0005358853522757e-02 0.0000000000000000e+00  1.1676386488257233e+00 -1.8232723393908953e-01 0.0000000000000000e+00  0.0000000000000000e+00 0.0000000000000000e+00 0.0000000000000000e+00  7.6939196490917461e-01 8.4763125142444884e-02 0.0000000000000000e+00  0.0000000000000000e+00 0.0000000000000000e+00 0.0000000000000000e+00  1.7864618266313428e-02 5.9837791138162644e-03 0.0000000000000000e+00  -1.2799142082325427e-02 2.2167134908394358e-02 0.0000000000000000e+00  -1.2055322296714008e-02 -2.1334608007671542e-02 0.0000000000000000e+00  1.0271286800229789e+00 -9.9269266284605764e-02 0.0000000000000000e+00  1.2983790219658851e+00 -2.7177379876495000e-01 0.0000000000000000e+00  6.2934432873660640e-01 1.5839386673278641e-01 0.0000000000000000e+00  8.3312853813485677e-01 1.5873124946974332e-01 0.0000000000000000e+00  5.9739933560742386e-01 1.6593467365020795e-01 0.0000000000000000e+00  0.0000000000000000e+00 0.0000000000000000e+00 0.0000000000000000e+00  1.3516232092424768e-01 3.6597123386723600e-02 0.0000000000000000e+00  0.0000000000000000e+00 0.0000000000000000e+00 0.0000000000000000e+00  4.2656068749248421e-01 -1.3227581903503047e-01 0.0000000000000000e+00  1.1594592141056412e+00 -3.8773249239777555e-02 0.0000000000000000e+00  1.0767462971782018e+00 1.1616388414862992e-01 0.0000000000000000e+00  4.6543160996705718e-01 6.2452030855091031e-02 0.0000000000000000e+00  1.0103480838643766e+00 -1.6818416441029532e-01 0.0000000000000000e+00  1.0844458922656390e+00 -1.3120234864211847e-01 0.0000000000000000e+00  1.1981927962177226e+00 -9.6091634382742513e-02 0.0000000000000000e+00  2.8754387566005563e-01 7.2206618977689971e-02 0.0000000000000000e+00  1.6713666010969361e-01 2.9028473394487019e-02 0.0000000000000000e+00  1.8747048068219199e-01 4.7386422373609675e-02 0.0000000000000000e+00  2.4860425874782041e-01 4.4759503287763042e-02 0.0000000000000000e+00  1.3319301001315137e-01 1.2806426193589432e-02 0.0000000000000000e+00  1.3155396317100956e-01 8.5779529605630161e-03 0.0000000000000000e+00  4.2273442301871483e-01 1.1711809191315602e-01 0.0000000000000000e+00  7.9180661568367849e-01 2.4272317015400124e-02 0.0000000000000000e+00  1.1021287158851949e+00 -7.7602314669828185e-02 0.0000000000000000e+00  8.8077352791701358e-01 -1.0180695125463678e-01 0.0000000000000000e+00  9.9338927243658159e-01 -9.8629541699113130e-02 0.0000000000000000e+00  4.3449236154543341e-01 1.0693310008008655e-01 0.0000000000000000e+00  5.5647588967209516e-01 1.6054728305053531e-01 0.0000000000000000e+00  1.2629927938998091e+00 -7.0001588181409030e-02 0.0000000000000000e+00  1.3000587063960051e-01 3.9498870294265943e-02 0.0000000000000000e+00  8.5713602564607583e-02 1.3677978074220186e-02 0.0000000000000000e+00  4.6986330198714878e-02 9.2140372747685287e-03 0.0000000000000000e+00  3.2088434614640410e-01 2.9199342225757752e-02 0.0000000000000000e+00  1.9960662988251029e-01 1.4119018012229527e-02 0.0000000000000000e+00  3.7315661071081148e-02 1.2937831253739282e-02 0.0000000000000000e+00  9.6807602509184298e-01 -2.2218801118640757e-02 0.0000000000000000e+00  -1.9310881841641422e-02 2.7927468631238159e-03 0.0000000000000000e+00  7.4951981541939244e-02 1.6547797326177810e-02 0.0000000000000000e+00  5.7612071335769777e-01 7.4045507611903122e-02 0.0000000000000000e+00  6.9921356832965864e-01 1.0165175427130151e-01 0.0000000000000000e+00  8.0382366099235270e-01 1.0079924044553012e-01 0.0000000000000000e+00  1.2072840927374107e-01 4.9469342738248004e-02 0.0000000000000000e+00  6.8662062020880676e-01 1.4960685989936665e-01 0.0000000000000000e+00  7.6264239525633415e-01 1.4175369025235063e-01 0.0000000000000000e+00  -2.4200723996489471e-02 -3.5222651829060100e-04 0.0000000000000000e+00  -2.3205300566877182e-02 4.6685685456130695e-04 0.0000000000000000e+00  1.0142723740736179e+00 -5.5929043872008991e-02 0.0000000000000000e+00  -2.0276316602510537e-02 -2.6085803419403299e-03 0.0000000000000000e+00  7.4614716265056530e-02 -1.5207011368371569e-02 0.0000000000000000e+00  -1.8265510671025439e-02 2.3834595538509756e-03 0.0000000000000000e+00  -1.7889469580067111e-02 -2.2936999560188090e-03 0.0000000000000000e+00  9.4492949004622295e-01 1.3544622705761197e-01 0.0000000000000000e+00  7.6157962446405172e-02 6.8785149382114734e-03 0.0000000000000000e+00  </DataArray> 
</PointData> 
</Piece>
</UnstructuredGrid>
</VTKFile>