<?xml version="1.0"?>
<VTKFile type="UnstructuredGrid"  version="0.1"  >
<UnstructuredGrid>
<Piece  NumberOfPoints="198" NumberOfCells="346">
<Points>
<DataArray  type="Float64"  NumberOfComponents="3"  format="ascii">0.3535460261755617 0.19 0  0.3528922713220932 0.2000185703532356 0  0.3590076176283495 0.196411355804271 0  0.3012679105156187 0.19 0  0.3006558810093873 0.1999966199048318 0  0.3066757059912147 0.1964092924317024 0  0.3473758401723931 0.1961819304478349 0  0.2950977245127906 0.1961819304477774 0  0.3535460261749672 0.21 0  0.3473758401724931 0.2038180695522752 0  0.301267910515333 0.21 0  0.2950977245128307 0.2038180695522663 0  0.3590471196690275 0.2036304442587945 0  0.3067669986803285 0.203627750582736 0  0.3796850840047755 0.200000000000134 0  0.3871533862418661 0.2029084173136212 0  0.3871533862424271 0.1959250838464788 0  0.3650630746574081 0.199866017807523 0  0.3722167817676917 0.2029084173136195 0  0.372246743208829 0.1959123236376545 0  0.3274069683451451 0.2000000000000796 0  0.3348752705822316 0.202908417313609 0  0.3347912413592433 0.1959225448935183 0  0.3127789816668748 0.1998657885438805 0  0.3199386661080599 0.202908417313604 0  0.3199680582793816 0.1959123018030061 0  0.2894621222999649 0.1998691686390484 0  0.2825131256993216 0.2035478995978015 0  0.2825051229162361 0.1959834479681729 0  0.3417402379596385 0.1998691686391011 0  0.2788630038040554 0.21 0  0.2863313060411479 0.21 0  0.3162045149895234 0.21 0  0.3236728172265972 0.21 0  0.3684826306491596 0.21 0  0.3759509328862226 0.21 0  0.3311411194636928 0.21 0  0.3386094217007701 0.21 0  0.383419235123329 0.21 0  0.3908875373604028 0.21 0  0.3460777239384295 0.19 0  0.2937996082784807 0.19 0  0.2937996082782405 0.21 0  0.3460777239378666 0.21 0  0.3087362127527544 0.19 0  0.361014328412667 0.19 0  0.3796850840055151 0.1943028057712579 0  0.3647484795312433 0.1943028057712484 0  0.3274069683455914 0.1943028057712305 0  0.3124703638713219 0.1943028057712193 0  0.3610143284120516 0.21 0  0.3087362127524279 0.21 0  0.2895549462647731 0.1944069323160756 0  0.341834128962283 0.1943988119061815 0  0.3650260178642469 0.2054197153269502 0  0.3796850840047754 0.2056971942288865 0  0.3274069683451451 0.2056971942288527 0  0.312746837849954 0.2054193256016435 0  0.341845332858566 0.2054104280253135 0  0.2897864851748124 0.2055930218738881 0  0.3759509328869369 0.19 0  0.3684826306498175 0.19 0  0.3386094217012945 0.19 0  0.3311411194641595 0.19 0  0.3236728172270245 0.19 0  0.3162045149898895 0.19 0  0.3834192351240934 0.19 0  0.2863313060413428 0.19 0  0.3605639237643 0.2793006923612668 0  0.3754967205959606 0.2925860795314694 0  0.3727949441736886 0.2687069143756727 0  0.3265012756581966 0.2702065959162994 0  0.3425185051143286 0.277559411241074 0  0.3236350239119228 0.2946877384927431 0  0.3871536388992142 0.2768042805511501 0  0.3656958473839882 0.2539056765427533 0  0.3826544750917113 0.2574975795502557 0  0.3742999258550256 0.2455889756585279 0  0.3009672322348927 0.299853464475565 0  0.3119706532029335 0.280741853274607 0  0.29813678539982 0.236276478175315 0  0.3103932646053297 0.2435733951751842 0  0.2950877208402625 0.2480324151406079 0  0.2802365149396702 0.2293267412254819 0  0.2888197773682229 0.2217624015035644 0  0.2799011483571476 0.2201540359780956 0  0.3141745521466497 0.41 0  0.3098481778850767 0.3708824362367037 0  0.2803555148413351 0.3762695151888899 0  0.3830052789765099 0.2465504596596307 0  0.3938502830802056 0.3095497484347601 0  0.3641563190507836 0.3179653487982807 0  0.3934922780344484 0.3350540779420794 0  0.3236197880522565 0.342390365483443 0  0.3436434970543172 0.3743236175823911 0  0.3418128473615318 0.2384788409515084 0  0.353800124058392 0.2447246903927239 0  0.3411309613953146 0.2501451311933366 0  0.2941337443604631 0.2779157781414069 0  0.3249956812055901 0.3123726632318911 0  0.3425309117203542 0.2940518961451331 0  0.3511864556906398 0.3079593845701901 0  0.271385042995999 0.2220255791858506 0  0.3803545031770169 0.2233799225275491 0  0.3909674209965625 0.2226356941037057 0  0.3868315570898186 0.2161590584307608 0  0.2959355069777989 0.2600507343559471 0  0.3100661524210835 0.2650982647042849 0  0.2813918607378073 0.2642650598195126 0  0.3422532254316368 0.2186305831010365 0  0.3096074608005889 0.2332284277153185 0  0.3422976980851364 0.1814371791041619 0  0.2854688561834498 0.2412236914981949 0  0.2897734241776366 0.2309782844302881 0  0.3419145640611154 0.3257454339814842 0  0.34764135913642 0.3491933721956422 0  0.398571556794488 0.2667712515333163 0  0.398267784857306 0.2897726550924405 0  0.3054340412842468 0.3221719107153626 0  0.2898993665208313 0.2148884498665536 0  0.2825971549226016 0.2141870669404288 0  0.3797734699465006 0.2157346552691785 0  0.3556974926297398 0.41 0  0.3342575907952841 0.223845352414335 0  0.330395134354505 0.2334931151381134 0  0.3420126050355882 0.2289014753216907 0  0.3527566348295874 0.2550544260512217 0  0.3422261770849799 0.2620435439696853 0  0.3570962000964671 0.2658531600023138 0  0.3298536818655586 0.2450564271365737 0  0.3717783033973493 0.3492929215517201 0  0.418091171977014 0.3243162836372635 0  0.412607471649106 0.2990503898016255 0  0.299175979503955 0.3443721019725888 0  0.3024586873317863 0.2302383467013988 0  0.319313320275104 0.2539540926591672 0  0.3056884213926414 0.2536577882881167 0  0.2973772572263381 0.2175617982546508 0  0.3647216780759439 0.2309636620771321 0  0.3532661195270175 0.2336617303183129 0  0.3647485037428231 0.2414648470797462 0  0.2973900081628705 0.1824599091601672 0  0.3766159229561977 0.3830577447225878 0  0.4149595575946646 0.3834673183778856 0  0.3949496524092438 0.3601144457090416 0  0.3765649579409498 0.2346032306023708 0  0.4192410422903348 0.3546402176185522 0  0.3862411203249935 0.2293080201888169 0  0.3125541355310679 0.2174284626835578 0  0.3272784643395017 0.2174232629457372 0  0.3125543224194783 0.1825714068210268 0  0.3272791508030818 0.1825813053721834 0  0.3348752705822316 0.2165201420472217 0  0.3572801772935104 0.2173273935815939 0  0.3497998287380586 0.2162289176852799 0  0.3722102571583817 0.2173806806735415 0  0.3647484950731696 0.1690362455853913 0  0.3534047339781095 0.1664079800909994 0  0.3646043070190422 0.1595814785132252 0  0.3573906953035386 0.1825704874733474 0  0.3721062650880237 0.1825704912629938 0  0.334769373574778 0.1838585991320073 0  0.319877191385679 0.2308174713545124 0  0.3199271849027431 0.2215499206710377 0  0.3133403253306649 0.2254657033957812 0  0.3758459195692864 0.1665688727818971 0  0.3498118750569956 0.1834818329761723 0  0.3198433526340244 0.2406043114931417 0  0.3264603545297456 0.2254677777931837 0  0.350235271979906 0.176105405901683 0  0.3498118750564168 0.2244634883974543 0  0.3933451459320382 0.2499378971246431 0  0.3792616967340072 0.1761054533295981 0  0.3796850840055151 0.1834818329761566 0  0.3582214469498746 0.2931659544846034 0  0.357905755861004 0.2256377483552234 0  0.3052148703286661 0.2238647990797835 0  0.3050207387251377 0.2160025078068285 0  0.2863686241214745 0.2524447136573785 0  0.364747590224077 0.2216658739063822 0  0.3716385577875085 0.2254972730720332 0  0.3871533862418662 0.2377916209307866 0  0.2751288526855082 0.2504894696471402 0  0.3647484799225001 0.1783360555704042 0  0.3580172190788822 0.1744509634985612 0  0.2754241708482248 0.2153487639899751 0  0.3050224637686886 0.1840003691157356 0  0.3714797435049115 0.1744509558619459 0  0.3312445077953667 0.2576480961126658 0  0.2900654571599118 0.1851244352956092 0  0.2969986277115119 0.2264901249637967 0  0.3987229542475914 0.41 0  0.3199311709679444 0.2151099596031206 0  0.3199315490584526 0.1848904494130124 0  0.3647474910084925 0.215095947068514 0  0.3647484797606208 0.1848841839272463 0  0.4433053055145528 0.41 0  0.4460062899873121 0.3720706817615101 0  </DataArray>
</Points>
<Cells>
<DataArray  type="UInt32"  Name="connectivity"  format="ascii">0 1 2  3 4 5  0 1 6  3 4 7  8 1 9  10 4 11  8 1 12  10 4 13  14 15 16  17 18 19  20 21 22  23 24 25  26 27 28  20 24 25  29 21 22  14 18 19  30 31 27  32 33 24  34 35 18  36 37 21  38 39 15  0 40 6  3 41 7  42 10 11  43 8 9  44 3 5  45 0 2  14 16 46  17 19 47  20 22 48  23 25 49  20 25 48  14 19 46  8 50 12  10 51 13  26 28 52  29 22 53  34 18 54  35 18 55  17 18 54  33 24 56  38 15 55  32 24 57  36 21 56  14 15 55  14 18 55  23 24 57  20 24 56  20 21 56  37 21 58  29 21 58  31 27 59  26 27 59  60 61 19  62 63 22  64 65 25  17 2 12  23 5 13  1 2 12  4 5 13  60 19 46  66 16 46  61 19 47  63 22 48  65 25 49  64 25 48  4 11 7  26 11 7  1 9 6  29 9 6  67 28 52  62 22 53  23 13 57  17 12 54  40 62 53  41 67 52  31 42 59  37 43 58  66 60 46  61 45 47  50 34 54  35 38 55  63 64 48  65 44 49  33 36 56  51 32 57  50 12 54  51 13 57  17 2 47  45 2 47  23 5 49  44 5 49  40 6 53  41 7 52  42 11 59  43 9 58  26 11 59  29 9 58  26 7 52  29 6 53  68 69 70  71 72 73  74 69 70  75 76 77  78 79 73  80 81 82  83 84 85  86 87 88  76 77 89  90 91 92  93 87 94  95 96 97  78 79 98  90 91 69  79 71 73  86 87 94  78 99 73  100 99 101  83 102 85  103 104 105  106 98 107  106 98 108  37 43 109  80 81 110  40 62 111  100 99 73  83 112 113  91 114 115  83 84 113  74 116 117  93 99 118  84 119 120  103 121 105  75 76 70  122 86 94  84 85 120  100 72 73  74 69 117  123 124 125  96 97 126  127 72 128  95 129 124  130 91 92  90 131 132  130 91 115  93 87 133  80 110 134  95 124 125  93 133 118  135 71 107  80 112 113  78 99 118  81 82 136  79 98 107  42 10 137  80 112 82  138 139 140  93 94 115  3 41 141  99 114 101  142 143 144  90 131 92  138 145 140  146 131 92  95 96 139  103 104 147  135 81 136  130 94 142  51 32 148  33 36 149  130 94 115  65 44 150  63 64 151  37 109 152  8 50 153  74 76 70  43 109 154  87 133 88  34 35 155  156 157 158  45 0 159  123 149 152  60 61 160  62 111 161  162 163 164  156 165 158  95 129 97  40 111 166  162 110 167  74 76 116  162 163 168  90 69 117  103 155 121  169 159 166  170 153 154  162 124 167  76 116 171  172 160 173  68 69 174  96 139 140  135 81 167  123 109 125  138 175 139  68 72 128  176 148 177  79 71 107  106 108 178  138 179 175  170 109 125  138 179 180  181 145 89  68 72 174  135 107 136  182 108 178  123 149 168  176 137 177  127 71 72  91 69 174  135 129 167  10 137 177  156 183 184  102 85 185  77 145 140  176 148 164  3 141 186  138 180 145  156 183 187  135 129 188  93 99 114  81 110 167  170 153 175  10 51 177  42 137 119  170 139 125  103 155 180  36 37 152  43 8 154  44 3 186  62 63 161  41 141 189  35 38 121  0 40 166  169 159 184  156 184 157  135 71 188  176 137 190  66 60 173  51 148 177  77 145 89  181 145 147  156 187 165  91 174 101  44 150 186  80 113 190  172 160 187  36 149 152  123 109 152  103 145 147  129 124 167  63 151 161  8 153 154  127 126 128  35 155 121  191 122 142  84 113 190  0 159 166  146 92 144  169 111 166  60 160 173  100 72 174  170 109 154  75 96 140  182 112 178  32 148 192  75 77 140  122 94 142  33 149 192  146 143 144  65 150 193  191 142 143  95 139 125  64 151 193  127 71 188  50 153 194  34 155 194  45 159 195  61 160 195  129 97 188  38 39 105  176 110 164  196 191 143  84 137 190  106 82 178  75 96 126  163 148 164  84 137 119  170 175 139  162 110 164  38 121 105  130 142 144  163 149 168  31 42 119  41 67 189  103 180 145  162 124 168  123 124 168  179 153 175  169 184 157  179 155 180  75 70 128  106 107 136  80 190 134  163 148 192  172 187 165  163 149 192  176 110 134  183 159 184  127 97 126  112 82 178  183 160 187  32 33 192  64 65 193  179 153 194  50 34 194  179 155 194  30 185 120  61 45 195  183 159 195  183 160 195  30 31 120  31 119 120  146 197 143  93 114 115  85 185 120  68 70 128  91 114 101  106 82 136  130 92 144  181 171 89  90 132 117  196 197 143  127 97 188  75 126 128  176 190 134  76 171 89  100 174 101  </DataArray>
<DataArray  type="UInt32"  Name="offsets"  format="ascii">3 6 9 12 15 18 21 24 27 30 33 36 39 42 45 48 51 54 57 60 63 66 69 72 75 78 81 84 87 90 93 96 99 102 105 108 111 114 117 120 123 126 129 132 135 138 141 144 147 150 153 156 159 162 165 168 171 174 177 180 183 186 189 192 195 198 201 204 207 210 213 216 219 222 225 228 231 234 237 240 243 246 249 252 255 258 261 264 267 270 273 276 279 282 285 288 291 294 297 300 303 306 309 312 315 318 321 324 327 330 333 336 339 342 345 348 351 354 357 360 363 366 369 372 375 378 381 384 387 390 393 396 399 402 405 408 411 414 417 420 423 426 429 432 435 438 441 444 447 450 453 456 459 462 465 468 471 474 477 480 483 486 489 492 495 498 501 504 507 510 513 516 519 522 525 528 531 534 537 540 543 546 549 552 555 558 561 564 567 570 573 576 579 582 585 588 591 594 597 600 603 606 609 612 615 618 621 624 627 630 633 636 639 642 645 648 651 654 657 660 663 666 669 672 675 678 681 684 687 690 693 696 699 702 705 708 711 714 717 720 723 726 729 732 735 738 741 744 747 750 753 756 759 762 765 768 771 774 777 780 783 786 789 792 795 798 801 804 807 810 813 816 819 822 825 828 831 834 837 840 843 846 849 852 855 858 861 864 867 870 873 876 879 882 885 888 891 894 897 900 903 906 909 912 915 918 921 924 927 930 933 936 939 942 945 948 951 954 957 960 963 966 969 972 975 978 981 984 987 990 993 996 999 1002 1005 1008 1011 1014 1017 1020 1023 1026 1029 1032 1035 1038 </DataArray>
<DataArray  type="UInt8"  Name="types"  format="ascii">5 5 5 5 5 5 5 5 5 5 5 5 5 5 5 5 5 5 5 5 5 5 5 5 5 5 5 5 5 5 5 5 5 5 5 5 5 5 5 5 5 5 5 5 5 5 5 5 5 5 5 5 5 5 5 5 5 5 5 5 5 5 5 5 5 5 5 5 5 5 5 5 5 5 5 5 5 5 5 5 5 5 5 5 5 5 5 5 5 5 5 5 5 5 5 5 5 5 5 5 5 5 5 5 5 5 5 5 5 5 5 5 5 5 5 5 5 5 5 5 5 5 5 5 5 5 5 5 5 5 5 5 5 5 5 5 5 5 5 5 5 5 5 5 5 5 5 5 5 5 5 5 5 5 5 5 5 5 5 5 5 5 5 5 5 5 5 5 5 5 5 5 5 5 5 5 5 5 5 5 5 5 5 5 5 5 5 5 5 5 5 5 5 5 5 5 5 5 5 5 5 5 5 5 5 5 5 5 5 5 5 5 5 5 5 5 5 5 5 5 5 5 5 5 5 5 5 5 5 5 5 5 5 5 5 5 5 5 5 5 5 5 5 5 5 5 5 5 5 5 5 5 5 5 5 5 5 5 5 5 5 5 5 5 5 5 5 5 5 5 5 5 5 5 5 5 5 5 5 5 5 5 5 5 5 5 5 5 5 5 5 5 5 5 5 5 5 5 5 5 5 5 5 5 5 5 5 5 5 5 5 5 5 5 5 5 5 5 5 5 5 5 5 5 5 5 5 5 5 5 5 5 5 5 5 5 5 5 5 5 5 5 5 5 5 5 </DataArray>
</Cells>
<PointData  Vectors="f_41-0"> 
<DataArray  type="Float64"  Name="f_41-0"  NumberOfComponents="3" format="ascii">6.0978945333192112e-06 -8.3638686130671188e-05 0.0000000000000000e+00  2.1491278507338741e-05 -8.6788595024609496e-05 0.0000000000000000e+00  1.7158747918169018e-05 -9.5000469879129345e-05 0.0000000000000000e+00  2.0001053898125722e-07 -1.8902288528728446e-05 0.0000000000000000e+00  8.7425548424262696e-06 -2.2078217495227582e-05 0.0000000000000000e+00  6.7198673095751969e-06 -2.6083806354974485e-05 0.0000000000000000e+00  1.4434679910255188e-05 -7.6615213416451257e-05 0.0000000000000000e+00  4.6089435524740043e-06 -1.6031963348993780e-05 0.0000000000000000e+00  3.7323809627933050e-05 -9.2693123617658809e-05 0.0000000000000000e+00  2.5804375454398151e-05 -8.0085832428826231e-05 0.0000000000000000e+00  1.7476489393139908e-05 -2.7361390900006704e-05 0.0000000000000000e+00  1.0436734253470787e-05 -1.9172660521933714e-05 0.0000000000000000e+00  2.8823049553314223e-05 -9.8309666081841752e-05 0.0000000000000000e+00  1.3562463829385683e-05 -2.9284350281012325e-05 0.0000000000000000e+00  2.7661436504035860e-05 -1.3234164047237225e-04 0.0000000000000000e+00  3.4661673853300307e-05 -1.4740564199043976e-04 0.0000000000000000e+00  2.1680154915129850e-05 -1.4446432685812785e-04 0.0000000000000000e+00  2.4144815175751114e-05 -1.0657683158095905e-04 0.0000000000000000e+00  3.1079951616724113e-05 -1.2028071827847490e-04 0.0000000000000000e+00  1.8922978538254487e-05 -1.1728520403801026e-04 0.0000000000000000e+00  1.5130435747816316e-05 -5.0613333351811668e-05 0.0000000000000000e+00  2.0892538835542248e-05 -6.1740199738240936e-05 0.0000000000000000e+00  1.1526280277055445e-05 -5.8482428443680111e-05 0.0000000000000000e+00  1.1411723826199058e-05 -3.3639312987614133e-05 0.0000000000000000e+00  1.6596752130559889e-05 -4.2936954263114813e-05 0.0000000000000000e+00  8.6339909144483774e-06 -3.9883307452667916e-05 0.0000000000000000e+00  6.2671965022090944e-06 -1.3368528672082626e-05 0.0000000000000000e+00  6.9518232903339331e-06 -1.0530893832239366e-05 0.0000000000000000e+00  2.7347288447220357e-06 -7.6212583191089448e-06 0.0000000000000000e+00  1.8524015916293946e-05 -6.9927106489312089e-05 0.0000000000000000e+00  9.1963585722834170e-06 -1.1500681659503069e-05 0.0000000000000000e+00  1.1879516782584251e-05 -1.5862884854831064e-05 0.0000000000000000e+00  2.3264033386681721e-05 -4.2304355425088131e-05 0.0000000000000000e+00  2.6167007681760490e-05 -5.0971391287212223e-05 0.0000000000000000e+00  4.2376378139311769e-05 -1.1721240200271558e-04 0.0000000000000000e+00  4.4725850150715759e-05 -1.3024242844336022e-04 0.0000000000000000e+00  2.9048246389904495e-05 -6.0385776924667333e-05 0.0000000000000000e+00  3.1879870729835711e-05 -7.0503529667506590e-05 0.0000000000000000e+00  4.6949657473897537e-05 -1.4373408194399964e-04 0.0000000000000000e+00  4.9042965362364675e-05 -1.5764403685080095e-04 0.0000000000000000e+00  5.0787035877314703e-06 -7.2179940122422403e-05 0.0000000000000000e+00  -2.5359946931948063e-07 -1.2978237709042978e-05 0.0000000000000000e+00  1.4645356159889758e-05 -2.1163510666344515e-05 0.0000000000000000e+00  3.4646025735024944e-05 -8.1288027329110246e-05 0.0000000000000000e+00  7.7971767462187505e-07 -2.5727873189900976e-05 0.0000000000000000e+00  7.1309195397873277e-06 -9.5712828831621643e-05 0.0000000000000000e+00  1.7425142750962960e-05 -1.2996775781413085e-04 0.0000000000000000e+00  1.4804550547709520e-05 -1.0367079455742347e-04 0.0000000000000000e+00  8.0603523790025785e-06 -4.8181262928915434e-05 0.0000000000000000e+00  5.5925317077740739e-06 -3.1032811570875319e-05 0.0000000000000000e+00  3.9906265789022336e-05 -1.0468122516470433e-04 0.0000000000000000e+00  2.0357652868659398e-05 -3.4420429016683133e-05 0.0000000000000000e+00  2.5839194601927485e-06 -1.1413663341690834e-05 0.0000000000000000e+00  1.0770282388089334e-05 -6.7695024634071863e-05 0.0000000000000000e+00  3.3467373037724615e-05 -1.0908064230639411e-04 0.0000000000000000e+00  3.7977666857657493e-05 -1.3489070374800131e-04 0.0000000000000000e+00  2.2217430639968019e-05 -5.3335437387989342e-05 0.0000000000000000e+00  1.7153090755173016e-05 -3.6189794106030399e-05 0.0000000000000000e+00  2.6466591316263600e-05 -7.2719608787869623e-05 0.0000000000000000e+00  1.0190984050717650e-05 -1.6056093847050221e-05 0.0000000000000000e+00  9.2049223089621868e-06 -1.2152437477570333e-04 0.0000000000000000e+00  8.1706825545722644e-06 -1.0835778216654271e-04 0.0000000000000000e+00  4.0905067264882350e-06 -6.1383079664593178e-05 0.0000000000000000e+00  3.1505968869732479e-06 -5.1295419962444035e-05 0.0000000000000000e+00  2.2725415195167056e-06 -4.1962570834232777e-05 0.0000000000000000e+00  1.4772410124346138e-06 -3.3426845987859161e-05 0.0000000000000000e+00  1.0225580739928470e-05 -1.3516809882878618e-04 0.0000000000000000e+00  -5.6915797916454401e-07 -7.9752791072111139e-06 0.0000000000000000e+00  5.7793670738086300e-01 -5.5239693170823494e-02 0.0000000000000000e+00  5.9361473356251737e-01 -4.0909109625848421e-02 0.0000000000000000e+00  5.6299585140390929e-01 -4.0994697651117858e-02 0.0000000000000000e+00  5.5614901708261177e-01 -9.6721112345589097e-02 0.0000000000000000e+00  5.7639064356974712e-01 -7.5466105666278677e-02 0.0000000000000000e+00  6.2346030788492990e-01 -8.2700722343879401e-02 0.0000000000000000e+00  5.7807754333177008e-01 -3.1570480840063385e-02 0.0000000000000000e+00  5.2695729388558155e-01 -3.8012095073167419e-02 0.0000000000000000e+00  5.4863251771556687e-01 -2.6498350859195382e-02 0.0000000000000000e+00  5.0934245950034829e-01 -2.2802189419704650e-02 0.0000000000000000e+00  6.5970098633988139e-01 -8.9092004836791042e-02 0.0000000000000000e+00  6.0209638060243664e-01 -1.0790287764469231e-01 0.0000000000000000e+00  2.9167363681551145e-01 -8.0689184898054572e-02 0.0000000000000000e+00  3.8762681738889704e-01 -9.0246698639993142e-02 0.0000000000000000e+00  3.8641569311301388e-01 -1.2017048369476799e-01 0.0000000000000000e+00  1.5603152692028954e-01 -5.9400152172629998e-02 0.0000000000000000e+00  1.2725233276827874e-01 -2.6708601834058536e-02 0.0000000000000000e+00  8.0162964227307384e-02 -2.1172746572197757e-02 0.0000000000000000e+00  0.0000000000000000e+00 0.0000000000000000e+00 0.0000000000000000e+00  6.1008217978973156e-01 -1.9551606563595707e-02 0.0000000000000000e+00  6.0252190761238100e-01 -1.5609869553925768e-02 0.0000000000000000e+00  5.2028202005653479e-01 -1.8188515298485551e-02 0.0000000000000000e+00  6.0156350329261343e-01 -2.6645872622175916e-02 0.0000000000000000e+00  6.1631247469401851e-01 -3.9150929736210614e-02 0.0000000000000000e+00  6.0854074302960071e-01 -1.9424625662485553e-02 0.0000000000000000e+00  6.4799959223688808e-01 -3.8525692113075237e-02 0.0000000000000000e+00  5.7494556509417882e-01 -1.3950475681991160e-02 0.0000000000000000e+00  4.3006959511801862e-01 -4.0433818407251423e-02 0.0000000000000000e+00  4.8153585209477662e-01 -3.8994774589364067e-02 0.0000000000000000e+00  4.8539056185538443e-01 -6.1629191862099107e-02 0.0000000000000000e+00  6.1342834212657027e-01 -1.2701885270471847e-01 0.0000000000000000e+00  6.4167200101344513e-01 -6.5063654944676974e-02 0.0000000000000000e+00  6.0727026886343616e-01 -6.8106806622014945e-02 0.0000000000000000e+00  6.1723222418551205e-01 -5.2622499032569693e-02 0.0000000000000000e+00  6.2393666374918791e-02 -2.5682285337707368e-02 0.0000000000000000e+00  3.2821101817148413e-01 -3.1870512686303339e-03 0.0000000000000000e+00  3.1961195768274592e-01 -1.9218405392326576e-03 0.0000000000000000e+00  1.8380352098968022e-01 -6.6326636195285509e-04 0.0000000000000000e+00  4.9435820414226528e-01 -1.3559431400794747e-01 0.0000000000000000e+00  5.3270261487780035e-01 -1.1893419296218932e-01 0.0000000000000000e+00  5.3205230753048982e-01 -1.4964649892050047e-01 0.0000000000000000e+00  2.1514887764212387e-01 -5.4064628688915524e-03 0.0000000000000000e+00  3.0817928390032334e-01 -5.9211024985904671e-02 0.0000000000000000e+00  2.1467205622516713e-01 5.1322962124739236e-03 0.0000000000000000e+00  2.9096210619994611e-01 -1.0817989429624472e-01 0.0000000000000000e+00  2.1249075901471123e-01 -6.4801374847463233e-02 0.0000000000000000e+00  6.3438179630077951e-01 -4.5482880835121794e-02 0.0000000000000000e+00  6.2961468194173698e-01 -2.6695116577697513e-02 0.0000000000000000e+00  5.7086913528301841e-01 -2.1186819477963525e-02 0.0000000000000000e+00  5.9009624119900828e-01 -2.6133223769323324e-02 0.0000000000000000e+00  6.6626659549264011e-01 -5.8930356559196755e-02 0.0000000000000000e+00  5.9888370701942271e-02 -5.6286230254285240e-03 0.0000000000000000e+00  3.7756723696544356e-02 -4.2450779826338943e-03 0.0000000000000000e+00  1.7184447416605594e-01 -7.6828859591949008e-04 0.0000000000000000e+00  0.0000000000000000e+00 0.0000000000000000e+00 0.0000000000000000e+00  2.8574908307179414e-01 -1.5700443460190890e-02 0.0000000000000000e+00  3.7165878619871567e-01 -4.0319326226049779e-02 0.0000000000000000e+00  3.5806499878035153e-01 -2.1552668559557162e-02 0.0000000000000000e+00  5.1759809374230292e-01 -5.3115329206062267e-02 0.0000000000000000e+00  5.3118737500595459e-01 -7.2444980923882102e-02 0.0000000000000000e+00  5.5031828723826626e-01 -5.6025166233833683e-02 0.0000000000000000e+00  4.4182468386639406e-01 -6.7724177590892956e-02 0.0000000000000000e+00  6.1356453666839883e-01 -1.9299645062331006e-02 0.0000000000000000e+00  6.0157971614930805e-01 -1.5284819154201591e-02 0.0000000000000000e+00  5.9516609273809984e-01 -1.9696853675161642e-02 0.0000000000000000e+00  6.6695829699376785e-01 -3.9425865121406903e-02 0.0000000000000000e+00  2.5764098674419050e-01 -5.4285029521948969e-02 0.0000000000000000e+00  4.7347989259041057e-01 -9.7929430112390803e-02 0.0000000000000000e+00  4.5311672664088687e-01 -1.1708233194788656e-01 0.0000000000000000e+00  1.1052575255005812e-01 -1.1475795012566313e-02 0.0000000000000000e+00  4.1076594098756741e-01 -1.2863633788069389e-02 0.0000000000000000e+00  4.1854742158208680e-01 -2.2536256390149303e-02 0.0000000000000000e+00  4.8158433476573054e-01 -2.5159151980847512e-02 0.0000000000000000e+00  1.1101357035245152e-01 1.1403077557480922e-02 0.0000000000000000e+00  5.0705543035440626e-01 -1.6451318930352874e-03 0.0000000000000000e+00  4.9072070562347198e-01 -2.9414588147359129e-03 0.0000000000000000e+00  5.9338429136201898e-01 -1.0699751943799176e-02 0.0000000000000000e+00  4.5253606462895901e-01 -1.1447785724264081e-02 0.0000000000000000e+00  5.9259830134506641e-01 -8.7549643962530049e-03 0.0000000000000000e+00  4.1039509766256443e-01 -5.1754058534675355e-03 0.0000000000000000e+00  1.4558311762078111e-01 -8.7084714142396484e-03 0.0000000000000000e+00  1.7233160265872655e-01 -6.2281551807594187e-03 0.0000000000000000e+00  1.4635178694453654e-01 8.6352969239462760e-03 0.0000000000000000e+00  1.7299354060145256e-01 6.0920778602974665e-03 0.0000000000000000e+00  1.6464786856980315e-01 -4.0330361596403090e-03 0.0000000000000000e+00  2.0118577539196381e-01 -2.4755269967488280e-03 0.0000000000000000e+00  1.7169482822818913e-01 -2.4050959680120693e-03 0.0000000000000000e+00  2.0941804933773003e-01 -1.4852855825106209e-03 0.0000000000000000e+00  4.1187627006101885e-01 1.2399573699112255e-02 0.0000000000000000e+00  4.1951017320321715e-01 2.1913166758914339e-02 0.0000000000000000e+00  4.7763703629228821e-01 2.3383770088101264e-02 0.0000000000000000e+00  2.0409812017494827e-01 2.2903845051145651e-03 0.0000000000000000e+00  2.1098510620739791e-01 1.2033791397406399e-03 0.0000000000000000e+00  1.5721401216977784e-01 3.4782866181512083e-03 0.0000000000000000e+00  3.2175332448530847e-01 -4.2276190418601520e-02 0.0000000000000000e+00  2.2361267057859038e-01 -1.6337806501080323e-02 0.0000000000000000e+00  2.5158076745202096e-01 -3.0297903510457358e-02 0.0000000000000000e+00  4.4381101891495139e-01 1.0164473553272779e-02 0.0000000000000000e+00  1.7883712016067863e-01 2.3940423938963937e-03 0.0000000000000000e+00  3.9246754858397087e-01 -7.0438321332066664e-02 0.0000000000000000e+00  2.8821183779590154e-01 -2.3044655464322574e-02 0.0000000000000000e+00  3.1281694602422805e-01 9.7163910910418837e-03 0.0000000000000000e+00  3.1913051693359840e-01 -1.0880619533527522e-02 0.0000000000000000e+00  5.3808242062492895e-01 -1.5249028099156028e-02 0.0000000000000000e+00  3.3648347804899836e-01 3.1355893989956567e-03 0.0000000000000000e+00  1.9167199612573421e-01 5.8512663757564858e-04 0.0000000000000000e+00  5.9844988615593253e-01 -5.4795536542460319e-02 0.0000000000000000e+00  3.4442783386508918e-01 -9.5505494556105373e-03 0.0000000000000000e+00  2.0807283815097807e-01 -2.9221906951276289e-02 0.0000000000000000e+00  1.0724651797584692e-01 -6.8573783083888118e-03 0.0000000000000000e+00  4.1268470819926462e-01 -1.3786368801832088e-01 0.0000000000000000e+00  2.9093748923192936e-01 -4.4730141783081764e-03 0.0000000000000000e+00  3.5465269306765440e-01 -5.8860028620807596e-03 0.0000000000000000e+00  4.8231856258448463e-01 -9.8886461724674492e-03 0.0000000000000000e+00  3.6703298773281173e-01 -1.3996079557625690e-01 0.0000000000000000e+00  2.9166944019755459e-01 4.1386449941422368e-03 0.0000000000000000e+00  3.4435870383400990e-01 9.0758284031677988e-03 0.0000000000000000e+00  3.1759085061857990e-02 -6.4089774630785570e-03 0.0000000000000000e+00  1.0784773695130095e-01 6.8032977181759439e-03 0.0000000000000000e+00  3.5608167305232069e-01 5.5400420350814068e-03 0.0000000000000000e+00  5.0562351885967494e-01 -8.4360324311460205e-02 0.0000000000000000e+00  6.0557400377210489e-02 5.5777699788035250e-03 0.0000000000000000e+00  2.0310259572860218e-01 -4.2879292973018485e-02 0.0000000000000000e+00  0.0000000000000000e+00 0.0000000000000000e+00 0.0000000000000000e+00  1.1702342509064526e-01 -3.8011898431649809e-03 0.0000000000000000e+00  1.1759172332678298e-01 3.7051678861708924e-03 0.0000000000000000e+00  1.5155440823568433e-01 -1.0226336651189365e-03 0.0000000000000000e+00  1.5246694714107870e-01 7.8281877730687881e-04 0.0000000000000000e+00  0.0000000000000000e+00 0.0000000000000000e+00 0.0000000000000000e+00  5.4785042898496061e-01 -3.3976886502827797e-03 0.0000000000000000e+00  </DataArray> 
</PointData> 
</Piece>
</UnstructuredGrid>
</VTKFile>