<?xml version="1.0"?>
<VTKFile type="UnstructuredGrid"  version="0.1"  >
<UnstructuredGrid>
<Piece  NumberOfPoints="192" NumberOfCells="329">
<Points>
<DataArray  type="Float64"  NumberOfComponents="3"  format="ascii">0.1123698019379044 0.2058991360802581 0  0.1106531987626008 0.1894643335925837 0  0.09638298985168356 0.2000713960717276 0  0.0534241021414831 0.2075428856341382 0  0.07538638723190919 0.1915913195394167 0  0.06726459509928774 0.2147740778951952 0  0.05117116986370451 0.1453484941029572 0  0.028576868323113 0.1257840022252348 0  0.02526469030969892 0.1581631046774197 0  0.1643783325218296 0.1320455275536215 0  0.1492552100538899 0.1320415135830948 0  0.1603037058708973 0.1432581839427922 0  0.07781603907681035 0.1514291067465787 0  0.06748599119092742 0.1295390004813558 0  0.04799687037553593 0.1900185470502504 0  0.09145562669711395 0.175668370620234 0  0.09635163646555502 0.1596076048115481 0  0.07646146193815946 0.1687797331838 0  0 0.05857142857161107 0  0 0.02928571428580012 0  0.02797905238142366 0.04239836249189064 0  0.1521457199348437 0.2144902684393899 0  0.1547844879126531 0.221343792228163 0  0.1460074103989341 0.2155962236814484 0  0.06224717571675014 0.16049953533406 0  0 0.1464285714289574 0  0.1340109150974826 0.1326286508362426 0  0.1230381620938855 0.1450531231009962 0  0.1371388187715824 0.1487519394947238 0  0.09921229729781815 0.216694589313852 0  0.1502170850938848 0.1478553695050668 0  0.09898678642452967 0.1862327908870533 0  0.1843109002236991 0.1108412192449581 0  0.1663792634974669 0.1129031590983526 0  0.1730791557496665 0.09449610930120438 0  0.1497148406801674 0.1059683048239758 0  0.1319376419904144 0.1078314072630599 0  0.1422873301607691 0.09099989767432708 0  0.1503920612246686 0.252658552798053 0  0.1407371787724462 0.2442700623456801 0  0.1431093770171943 0.2599228455937608 0  0.1291780217515827 0.2400382025520897 0  0.1325512871714925 0.2548933203634119 0  0.05400790163887537 0.1101452894911868 0  0.03212895351398194 0.09444182905744057 0  0.1292063859387973 0.160179270973018 0  0.1314207338941352 0.2277905748945162 0  0.1208839583881551 0.2181173442085023 0  0.1226326835593179 0.232510509637589 0  0.1315669208937715 0.2153401624373302 0  0.08319468457824891 0.2132940804249223 0  0.1877417105387872 0.1515259415822739 0  0.1807733240461124 0.153844448527136 0  0.1810237202008071 0.1443964565620037 0  0.1440834152269613 0.2215292013094449 0  0.1427902997716637 0.232150825925387 0  0.1544083940701868 0.2357510323977007 0  0.1491192377089382 0.242360482241113 0  0.1984955210867955 0.1136055788350874 0  0.1897964898761356 0.09526420071455169 0  0.1151037363297016 0.1585854167638264 0  0.1231191457617618 0.1724983802372761 0  0.2023158100364996 0.1500536585536553 0  0.194974551899914 0.1502531923497262 0  0.1988434545186226 0.1412267786066319 0  0.1502092543645781 0.2281484929999839 0  0.1355360062927427 0.1738833905690768 0  0.139904094447954 0.0475963399258769 0  0.1148334976584671 0.02974143409366008 0  0.1520649328173654 0.02654404467430412 0  0.157033859236083 0.1549203861564464 0  0.1666775543554036 0.1527311555964813 0  0.1709026911846327 0.1428229394764081 0  0.13855578359055 0.1617173140777549 0  0.1050372607361503 0.1429640509822009 0  0.0935028978038551 0.1155179240798671 0  0.111152240021284 0.1189096594659376 0  0.1054072552277489 0.1021549990488465 0  0.1096093854383046 0.1735927505678576 0  0.1273239957535082 0 0  0 0.2050000000005308 0  0 0.175714285714732 0  0.02618711892167316 0.1853857958188918 0  0.01613142829340684 0.1072217040510405 0  0.122936306709419 0.1942457603434553 0  0.1362495245357279 0.2216212078679356 0  0.06019518928764452 0.1756854700606436 0  0.02666772661991777 0.0679778810487357 0  0 0.1171428571431897 0  0.1014345676140794 0.1290819941168235 0  0.117949309539449 0.1314289940198134 0  0.03021129466766341 0.2085417214687756 0  0.1036135449877143 0.05738959277900078 0  0.09466282906331301 0.08157239522441412 0  0.07832843537012292 0.06126359650172827 0  0.1391384346554765 0.1858795044738252 0  0.145931504770643 0.1790663128181236 0  0.122631157988491 0.09257199523221718 0  0.1571318226843289 0.245420672996831 0  0.1664692005849321 0.2475709156417281 0  0.1604617194638936 0.2557893928243108 0  0.1134537715612197 0.07678361544475715 0  0.1583987151778488 0.2277368545647528 0  0.1629104300036858 0.2335315343742052 0  0.1543497545781645 0.1644684805108295 0  0.1465332544464342 0.1576333074590302 0  0.1768496449561323 0.1335347700706724 0  0.1432528331866671 0.1403427880156989 0  0.1099554730833504 0.2189591019945387 0  0.2063021547212692 0.09746645431143124 0  0.09081855865494762 0.03967545099949583 0  0.08022298127737337 0.02066125809180845 0  0.1682222986671726 0.2386028198193036 0  0.1742197252833576 0.2428413052501257 0  0.1445088930113995 0.1682503620331025 0  0.02189315577988027 0.02003654345635235 0  0.1547844879126891 0.178656207771761 0  0.1521457199348551 0.1855097315605723 0  0.1230762637185412 0.2499754423532209 0  0.1505393388476328 0.2073241380633295 0  0.1411840007379324 0.2116418969121702 0  0.09153146034330391 0.147014376487579 0  0.162910430003803 0.1664684656256651 0  0.1583987151779087 0.1722631454351573 0  0.1581391111780151 0.09342872668547121 0  0.1287170257632792 0.184020996598548 0  0.1742197252835808 0.15715869474974 0  0.1682222986673531 0.1613971801805478 0  0.1417345422718611 0.1196357446143074 0  0.15 0.2 0  0.1505393388476355 0.1926758619366523 0  0.1422409429600901 0.1949058082424083 0  0.1800175691778405 0.1220029873035379 0  0.08753885022423818 0.1327572923195972 0  0.09377624077125973 0 0  0.1190100010379731 0.1821161889112382 0  0.142418795187722 0.2037346032343752 0  0.114265829400523 0.2274814703880861 0  0.1900464160197788 0.1434391807715867 0  0.1746666922495988 0.1499058539490714 0  0.1358421380985344 0.07184101253224438 0  0.1970804225914977 0.07638822249409431 0  0.1512336529604225 0.1723680822309486 0  0.1692118283604925 0.1236341708275373 0  0.05089208832759198 0.1278218136608264 0  0.07652608185644398 0.1136649778936783 0  0 0.08785714285737878 0  0.1777108984146039 0.03960446592307849 0  0.1570548482231846 0.05573307794728176 0  0.1031728984437735 0.2318497950763309 0  0.1564186559410363 0.1212209553520046 0  0.05222303834057849 0.2265528286728498 0  0.1222490905968041 0.0568943244623543 0  0.05279799154606677 0.07413248748556238 0  0.1618784257508376 0.2400587086087321 0  0.05175480232928564 0.05161223413186988 0  0.1358250422386446 0.2356584720209315 0  0.1253993623290572 0.2064220893288703 0  0.1595371636519827 0.07838695808624725 0  0.1147948284867253 0.2412597685036574 0  0.1461361374362119 0.1877340006482242 0  0.04532626869875341 0.1677660334507069 0  0.1334936092195415 0.1996994045566088 0  0.05608725465409541 0.09204870468608509 0  0.07392371664175142 0.2310989703896346 0  0.09023810730875097 0.2272487027068034 0  0.1619806510917199 0.1601561579838679 0  0.2000506922905834 0.05138745584171936 0  0.1769147510702603 0.06290595158306629 0  0.1620856860351972 0 0  0.1981052433264291 0 0  0.235428184091502 0 0  0.2054867233040618 0.02496467843107029 0  0.07008568006437076 0.038573163912329 0  0 0 0  0.03015443760436003 0 0  0.1340862878862802 0.2075381961934842 0  0.1874494447592934 0.1304389264391784 0  0.07522121061998752 0.08286780747833024 0  0.06140001986583606 0 0  0.04981329681653419 0.02287349761798159 0  0.1261668873624441 0.1203748521618074 0  0.1332359054626095 0.1910279922431038 0  0.1851500288844805 0.1377443395869293 0  0.1185608756269049 0.1083965233746596 0  0.179425619413292 0.01748466926548749 0  0.1795103306938107 0.08060563341732667 0  0.1990707649929309 0.1296245621647927 0  0.1927059842241056 0.1364147326068345 0  0.1897996484266387 0.1213827416278163 0  0.08823391104783466 0.09873317213709612 0  0.0736413556775514 0.09691323218918799 0  </DataArray>
</Points>
<Cells>
<DataArray  type="UInt32"  Name="connectivity"  format="ascii">0 1 2  3 4 5  6 7 8  9 10 11  6 12 13  3 4 14  15 16 17  18 19 20  21 22 23  6 12 24  25 7 8  26 27 28  0 2 29  30 10 11  2 4 31  32 33 34  35 36 37  38 39 40  41 42 39  12 16 17  43 7 44  45 27 28  46 47 48  15 4 31  49 46 47  50 4 5  51 52 53  22 54 23  55 56 57  32 58 59  42 39 40  45 60 61  62 63 64  22 54 65  45 66 61  67 68 69  70 71 11  50 2 4  9 72 11  45 66 73  74 27 60  75 76 77  78 1 31  79 68 69  15 78 16  80 81 82  45 27 60  7 44 83  0 1 84  15 78 31  55 54 85  86 4 14  18 20 87  25 88 7  75 76 89  74 16 60  74 27 90  80 82 91  92 93 94  95 96 66  97 36 37  98 99 100  97 77 101  102 103 56  70 104 105  9 72 106  26 28 107  81 82 8  0 29 108  109 58 59  68 110 111  112 113 99  114 66 73  19 20 115  55 56 65  15 4 17  116 117 96  38 98 100  114 96 66  50 2 29  41 42 118  119 120 23  55 46 85  12 16 121  92 93 101  30 10 107  55 39 57  30 28 105  30 70 11  122 123 104  33 34 124  125 95 66  126 127 71  114 104 105  54 120 23  93 77 101  35 36 128  129 130 131  32 33 132  12 13 133  134 68 111  78 1 135  74 90 89  35 33 124  119 120 136  28 105 73  137 47 48  72 71 11  51 53 138  52 53 139  72 53 106  30 70 105  78 16 60  102 56 65  26 27 90  119 21 23  97 140 101  63 64 138  134 79 68  78 60 61  141 109 59  114 104 142  54 120 85  33 132 143  55 54 65  6 7 144  75 133 145  146 44 87  114 96 142  26 10 128  147 69 148  137 149 108  67 69 148  9 10 150  63 51 138  3 91 151  81 25 8  116 96 142  92 68 152  45 28 73  153 44 87  103 56 154  153 87 155  32 34 59  22 102 65  43 7 144  112 99 154  55 46 156  0 84 157  123 104 142  49 46 85  92 94 110  26 10 107  158 140 37  41 159 48  35 33 150  117 96 160  82 161 14  146 18 87  41 159 118  1 2 31  97 140 37  38 98 57  86 4 17  82 8 161  158 140 148  67 68 152  55 39 156  129 131 136  162 131 136  126 71 139  43 44 163  50 164 165  29 149 108  122 104 166  13 133 145  141 167 168  79 169 69  127 71 166  86 161 14  162 84 157  170 171 172  130 131 160  6 8 161  147 167 172  20 87 155  123 116 142  173 94 110  6 13 144  72 71 139  49 120 85  137 159 149  129 119 136  153 94 155  153 44 163  174 19 115  76 90 89  174 175 115  162 136 176  137 159 48  92 68 110  177 106 132  12 133 121  38 39 57  72 53 139  153 94 178  175 179 180  50 29 165  30 28 107  26 128 181  93 94 178  162 84 182  41 46 156  125 66 61  35 128 150  10 128 150  125 95 182  98 56 154  53 106 183  146 44 83  98 99 154  9 106 143  41 39 156  95 131 182  76 77 184  50 164 5  52 126 139  49 157 47  67 140 148  147 172 185  173 94 155  88 7 83  147 167 168  158 37 124  97 36 184  140 101 152  158 34 186  95 96 160  125 84 135  75 133 89  95 131 160  120 136 176  125 84 182  98 56 57  173 180 111  70 104 166  64 187 188  175 180 115  106 132 143  70 71 166  179 180 111  173 180 155  164 5 151  20 180 155  43 13 145  88 146 83  41 46 48  187 58 189  177 187 189  36 128 181  162 157 176  35 37 124  158 168 186  169 170 185  3 91 14  0 157 47  74 133 121  74 133 89  153 163 178  49 157 176  9 150 143  147 168 148  179 134 111  158 168 148  162 131 182  158 34 124  74 16 121  75 145 190  43 13 144  49 120 176  97 77 184  177 106 183  29 149 165  93 190 178  103 112 154  34 59 186  20 180 115  141 59 186  43 191 145  82 91 14  1 84 135  177 187 188  141 168 186  117 130 160  191 190 178  114 105 73  86 161 24  191 163 178  76 184 181  147 69 185  75 77 190  127 122 166  86 17 24  67 140 152  191 145 190  78 61 135  33 150 143  93 77 190  32 58 189  43 191 163  0 47 108  92 101 152  12 17 24  177 132 189  36 184 181  125 61 135  53 138 183  6 161 24  64 138 188  169 69 185  76 90 181  32 132 189  173 110 111  26 90 181  137 47 108  3 5 151  170 172 185  138 183 188  177 183 188  </DataArray>
<DataArray  type="UInt32"  Name="offsets"  format="ascii">3 6 9 12 15 18 21 24 27 30 33 36 39 42 45 48 51 54 57 60 63 66 69 72 75 78 81 84 87 90 93 96 99 102 105 108 111 114 117 120 123 126 129 132 135 138 141 144 147 150 153 156 159 162 165 168 171 174 177 180 183 186 189 192 195 198 201 204 207 210 213 216 219 222 225 228 231 234 237 240 243 246 249 252 255 258 261 264 267 270 273 276 279 282 285 288 291 294 297 300 303 306 309 312 315 318 321 324 327 330 333 336 339 342 345 348 351 354 357 360 363 366 369 372 375 378 381 384 387 390 393 396 399 402 405 408 411 414 417 420 423 426 429 432 435 438 441 444 447 450 453 456 459 462 465 468 471 474 477 480 483 486 489 492 495 498 501 504 507 510 513 516 519 522 525 528 531 534 537 540 543 546 549 552 555 558 561 564 567 570 573 576 579 582 585 588 591 594 597 600 603 606 609 612 615 618 621 624 627 630 633 636 639 642 645 648 651 654 657 660 663 666 669 672 675 678 681 684 687 690 693 696 699 702 705 708 711 714 717 720 723 726 729 732 735 738 741 744 747 750 753 756 759 762 765 768 771 774 777 780 783 786 789 792 795 798 801 804 807 810 813 816 819 822 825 828 831 834 837 840 843 846 849 852 855 858 861 864 867 870 873 876 879 882 885 888 891 894 897 900 903 906 909 912 915 918 921 924 927 930 933 936 939 942 945 948 951 954 957 960 963 966 969 972 975 978 981 984 987 </DataArray>
<DataArray  type="UInt8"  Name="types"  format="ascii">5 5 5 5 5 5 5 5 5 5 5 5 5 5 5 5 5 5 5 5 5 5 5 5 5 5 5 5 5 5 5 5 5 5 5 5 5 5 5 5 5 5 5 5 5 5 5 5 5 5 5 5 5 5 5 5 5 5 5 5 5 5 5 5 5 5 5 5 5 5 5 5 5 5 5 5 5 5 5 5 5 5 5 5 5 5 5 5 5 5 5 5 5 5 5 5 5 5 5 5 5 5 5 5 5 5 5 5 5 5 5 5 5 5 5 5 5 5 5 5 5 5 5 5 5 5 5 5 5 5 5 5 5 5 5 5 5 5 5 5 5 5 5 5 5 5 5 5 5 5 5 5 5 5 5 5 5 5 5 5 5 5 5 5 5 5 5 5 5 5 5 5 5 5 5 5 5 5 5 5 5 5 5 5 5 5 5 5 5 5 5 5 5 5 5 5 5 5 5 5 5 5 5 5 5 5 5 5 5 5 5 5 5 5 5 5 5 5 5 5 5 5 5 5 5 5 5 5 5 5 5 5 5 5 5 5 5 5 5 5 5 5 5 5 5 5 5 5 5 5 5 5 5 5 5 5 5 5 5 5 5 5 5 5 5 5 5 5 5 5 5 5 5 5 5 5 5 5 5 5 5 5 5 5 5 5 5 5 5 5 5 5 5 5 5 5 5 5 5 5 5 5 5 5 5 5 5 5 5 5 5 5 5 5 5 5 5 5 5 5 5 5 5 5 5 5 5 5 5 </DataArray>
</Cells>
<PointData  Vectors="f_41-0"> 
<DataArray  type="Float64"  Name="f_41-0"  NumberOfComponents="3" format="ascii">1.0043119877700211e+00 7.2742162234739671e-02 0.0000000000000000e+00  1.0352353936434449e+00 -1.4221072544270297e-01 0.0000000000000000e+00  1.1741780142774858e+00 -2.0126849616692848e-03 0.0000000000000000e+00  1.4181509819038858e+00 1.9619124512386971e-02 0.0000000000000000e+00  1.3295044552054309e+00 -4.6272929694654914e-02 0.0000000000000000e+00  1.3655840593201167e+00 6.0603623715493250e-02 0.0000000000000000e+00  1.3398116551434314e+00 -1.3508594419947087e-01 0.0000000000000000e+00  1.2733966195841611e+00 -8.2258956773369030e-02 0.0000000000000000e+00  1.4118645376309134e+00 -5.3625045729984666e-02 0.0000000000000000e+00  1.6636629397830096e+00 -7.6372319389066423e-01 0.0000000000000000e+00  1.4749193780374168e+00 -7.0573239223024142e-01 0.0000000000000000e+00  1.5774320454564204e+00 -9.4218777244749685e-01 0.0000000000000000e+00  1.3077178566146490e+00 -2.1767981748411722e-01 0.0000000000000000e+00  1.2709523716558528e+00 -2.0609312090920631e-01 0.0000000000000000e+00  1.4302848836642512e+00 -2.9315207170275807e-02 0.0000000000000000e+00  1.2375730114170633e+00 -1.8029931912406466e-01 0.0000000000000000e+00  1.2444717735703286e+00 -2.8973586519516786e-01 0.0000000000000000e+00  1.3153713807264971e+00 -1.5930126744795076e-01 0.0000000000000000e+00  7.3527090471563117e-01 0.0000000000000000e+00 0.0000000000000000e+00  3.9827174005434351e-01 0.0000000000000000e+00 0.0000000000000000e+00  5.7087719075122256e-01 -5.2760483714134707e-02 0.0000000000000000e+00  0.0000000000000000e+00 0.0000000000000000e+00 0.0000000000000000e+00  0.0000000000000000e+00 0.0000000000000000e+00 0.0000000000000000e+00  3.3940494868361476e-01 6.1136602686618036e-01 0.0000000000000000e+00  1.3545586202266533e+00 -1.4140610361635500e-01 0.0000000000000000e+00  1.3786329463398437e+00 0.0000000000000000e+00 0.0000000000000000e+00  1.3515816357026571e+00 -5.9948045957170304e-01 0.0000000000000000e+00  1.2537455794656427e+00 -5.4024127584130033e-01 0.0000000000000000e+00  1.2635756663929301e+00 -7.1540732005451768e-01 0.0000000000000000e+00  1.1788152188520344e+00 1.4620519562755177e-01 0.0000000000000000e+00  1.3764094428669698e+00 -8.9646030039955760e-01 0.0000000000000000e+00  1.1629450950100890e+00 -1.3309179273202354e-01 0.0000000000000000e+00  1.7450734615291179e+00 -4.7647141258567283e-01 0.0000000000000000e+00  1.6008822590685601e+00 -5.5060628994613148e-01 0.0000000000000000e+00  1.5158997435031769e+00 -3.9468592080322873e-01 0.0000000000000000e+00  1.4331038705545922e+00 -4.8232060715010333e-01 0.0000000000000000e+00  1.3319262720710618e+00 -4.4613090125741145e-01 0.0000000000000000e+00  1.3036164116629203e+00 -3.8082239385906280e-01 0.0000000000000000e+00  1.4085114547902629e+00 8.8997145834536540e-01 0.0000000000000000e+00  1.1936006259792247e+00 8.0028326560334739e-01 0.0000000000000000e+00  1.4019539137977013e+00 7.3342730296282832e-01 0.0000000000000000e+00  1.1306307814412597e+00 6.0569205225233214e-01 0.0000000000000000e+00  1.3005600656634353e+00 6.4152671644060877e-01 0.0000000000000000e+00  1.1809516227888337e+00 -1.6156583661112311e-01 0.0000000000000000e+00  1.0691853854803393e+00 -9.2703207517799535e-02 0.0000000000000000e+00  1.1136851946958597e+00 -6.0927179508026585e-01 0.0000000000000000e+00  9.2921459735439882e-01 5.5870148465589908e-01 0.0000000000000000e+00  9.4505192118391546e-01 2.9536954983502289e-01 0.0000000000000000e+00  1.0723725707380731e+00 4.7142208886755133e-01 0.0000000000000000e+00  7.3243279710116471e-01 3.7187252935254417e-01 0.0000000000000000e+00  1.2832599804435370e+00 7.5354434796397682e-02 0.0000000000000000e+00  0.0000000000000000e+00 0.0000000000000000e+00 0.0000000000000000e+00  0.0000000000000000e+00 0.0000000000000000e+00 0.0000000000000000e+00  1.6860039270520524e+00 -7.3058662741924851e-01 0.0000000000000000e+00  5.9458607317426504e-01 7.3585214581726299e-01 0.0000000000000000e+00  9.2951394570756241e-01 8.4432371976818477e-01 0.0000000000000000e+00  9.9384711388890401e-01 1.1007612800122335e+00 0.0000000000000000e+00  1.2162090374162813e+00 9.8654585676016582e-01 0.0000000000000000e+00  1.8573697460320935e+00 -4.0271436541534589e-01 0.0000000000000000e+00  1.6207919666573207e+00 -3.4627459067448252e-01 0.0000000000000000e+00  1.1767890394582599e+00 -4.4057056558754032e-01 0.0000000000000000e+00  1.0038938642298245e+00 -4.4668966451718023e-01 0.0000000000000000e+00  0.0000000000000000e+00 0.0000000000000000e+00 0.0000000000000000e+00  0.0000000000000000e+00 0.0000000000000000e+00 0.0000000000000000e+00  1.3723748490175451e+00 -2.5452768782051061e-01 0.0000000000000000e+00  7.2041567097972292e-01 9.8929739310020348e-01 0.0000000000000000e+00  8.4756335820580597e-01 -6.3275511242064286e-01 0.0000000000000000e+00  9.4162318654992072e-01 -1.7463957460954932e-01 0.0000000000000000e+00  6.5333486959350284e-01 -9.1039754000459938e-02 0.0000000000000000e+00  7.7817271742408833e-01 -7.9250298694754320e-02 0.0000000000000000e+00  1.3473265215469745e+00 -1.1069580242655213e+00 0.0000000000000000e+00  1.4439851198087728e+00 -1.0494998921588370e+00 0.0000000000000000e+00  1.7671540829218093e+00 -9.5152616700342962e-01 0.0000000000000000e+00  1.0769433700499134e+00 -7.8060578053700302e-01 0.0000000000000000e+00  1.2619326977695928e+00 -3.8643364669873731e-01 0.0000000000000000e+00  1.2330929088455052e+00 -3.0975365751690054e-01 0.0000000000000000e+00  1.2726505428117039e+00 -3.9799967539282660e-01 0.0000000000000000e+00  1.2051623893214383e+00 -3.2630609358397150e-01 0.0000000000000000e+00  1.1207613552500115e+00 -2.9452749761613767e-01 0.0000000000000000e+00  0.0000000000000000e+00 0.0000000000000000e+00 0.0000000000000000e+00  1.5011780971238489e+00 0.0000000000000000e+00 0.0000000000000000e+00  1.4705418094283775e+00 0.0000000000000000e+00 0.0000000000000000e+00  1.4716825456992717e+00 -2.1977815257155878e-02 0.0000000000000000e+00  1.1602546885898446e+00 -4.8822473329445934e-02 0.0000000000000000e+00  8.3004020466962203e-01 -1.1629237671817423e-01 0.0000000000000000e+00  7.5359758087884576e-01 5.7512904480944360e-01 0.0000000000000000e+00  1.3766864430497399e+00 -8.9770371707598023e-02 0.0000000000000000e+00  8.3891947088108310e-01 -6.8337625953140455e-02 0.0000000000000000e+00  1.2254515078582906e+00 0.0000000000000000e+00 0.0000000000000000e+00  1.2684867455936353e+00 -3.6354748360580280e-01 0.0000000000000000e+00  1.2907874467531333e+00 -4.6994831462145709e-01 0.0000000000000000e+00  1.4792450462369215e+00 1.4637075845205754e-02 0.0000000000000000e+00  8.8467758498782267e-01 -1.8601840269994016e-01 0.0000000000000000e+00  1.0549391928148215e+00 -2.4094033906180606e-01 0.0000000000000000e+00  8.4677502729044085e-01 -1.5934458807794563e-01 0.0000000000000000e+00  5.3103093085364528e-01 -4.8807850659230989e-01 0.0000000000000000e+00  5.2236557865009237e-01 -7.8320350849005360e-01 0.0000000000000000e+00  1.2193551934519420e+00 -3.4708876502013231e-01 0.0000000000000000e+00  1.3702070685541416e+00 1.1011268510065377e+00 0.0000000000000000e+00  1.4711197119467692e+00 1.0635998920111034e+00 0.0000000000000000e+00  1.5905807605867368e+00 9.5285442200443771e-01 0.0000000000000000e+00  1.0786220943219909e+00 -2.6842919091719752e-01 0.0000000000000000e+00  0.0000000000000000e+00 0.0000000000000000e+00 0.0000000000000000e+00  0.0000000000000000e+00 0.0000000000000000e+00 0.0000000000000000e+00  9.8150396938154050e-01 -1.1058241786235612e+00 0.0000000000000000e+00  1.1808249623794296e+00 -9.3087581509763040e-01 0.0000000000000000e+00  1.8582491407644897e+00 -7.6105566684260628e-01 0.0000000000000000e+00  1.3867952178680141e+00 -7.3551381002804594e-01 0.0000000000000000e+00  1.0809639670911448e+00 2.2703194438519606e-01 0.0000000000000000e+00  1.7202771291300594e+00 -2.8344641113501273e-01 0.0000000000000000e+00  6.7682441415562911e-01 -1.1321230086411957e-01 0.0000000000000000e+00  4.3304628747761803e-01 -4.3410928424241380e-02 0.0000000000000000e+00  0.0000000000000000e+00 0.0000000000000000e+00 0.0000000000000000e+00  0.0000000000000000e+00 0.0000000000000000e+00 0.0000000000000000e+00  9.0894457821434971e-01 -9.0845031057077974e-01 0.0000000000000000e+00  2.9224565641827982e-01 -2.0681993198896204e-02 0.0000000000000000e+00  0.0000000000000000e+00 0.0000000000000000e+00 0.0000000000000000e+00  0.0000000000000000e+00 0.0000000000000000e+00 0.0000000000000000e+00  1.2462338759056300e+00 5.3705795931459521e-01 0.0000000000000000e+00  0.0000000000000000e+00 0.0000000000000000e+00 0.0000000000000000e+00  4.1544112787203691e-01 4.1974565010451809e-01 0.0000000000000000e+00  1.2713762934535533e+00 -2.9751658544811999e-01 0.0000000000000000e+00  0.0000000000000000e+00 0.0000000000000000e+00 0.0000000000000000e+00  0.0000000000000000e+00 0.0000000000000000e+00 0.0000000000000000e+00  1.4155802105361290e+00 -4.0302935472796159e-01 0.0000000000000000e+00  7.9581366163197720e-01 -3.6319092683824822e-01 0.0000000000000000e+00  0.0000000000000000e+00 0.0000000000000000e+00 0.0000000000000000e+00  0.0000000000000000e+00 0.0000000000000000e+00 0.0000000000000000e+00  1.4170959024570808e+00 -5.6042116023179245e-01 0.0000000000000000e+00  0.0000000000000000e+00 0.0000000000000000e+00 0.0000000000000000e+00  0.0000000000000000e+00 0.0000000000000000e+00 0.0000000000000000e+00  2.7821702724789960e-01 -2.1430682443969321e-01 0.0000000000000000e+00  1.8094685327033302e+00 -5.9789033174384953e-01 0.0000000000000000e+00  1.2715675691527679e+00 -2.8983688795138096e-01 0.0000000000000000e+00  0.0000000000000000e+00 0.0000000000000000e+00 0.0000000000000000e+00  9.5938765186253461e-01 -2.9250739060521957e-01 0.0000000000000000e+00  2.6037716326229632e-01 1.3884623882925010e-01 0.0000000000000000e+00  1.0950906488586172e+00 3.4120775511315538e-01 0.0000000000000000e+00  1.4387702860897389e+00 -4.1364671981978962e-01 0.0000000000000000e+00  1.4172903499292182e+00 -7.8035287713339796e-01 0.0000000000000000e+00  1.1317824096580593e+00 -2.8013882984672778e-01 0.0000000000000000e+00  1.4620196753872763e+00 -2.4515651843904296e-01 0.0000000000000000e+00  6.7173040171678544e-01 -9.6862177574025532e-01 0.0000000000000000e+00  1.6976015299220848e+00 -6.5630895029324365e-01 0.0000000000000000e+00  1.2728970877195169e+00 -1.5169351079789400e-01 0.0000000000000000e+00  1.2094119450777723e+00 -2.4021736150831191e-01 0.0000000000000000e+00  1.0109974939833419e+00 0.0000000000000000e+00 0.0000000000000000e+00  1.0262018404533981e+00 -1.2355091174358353e-01 0.0000000000000000e+00  1.0912149112205580e+00 -2.0993433404516904e-01 0.0000000000000000e+00  1.2017821645775846e+00 2.8165118306514109e-01 0.0000000000000000e+00  1.5476080525207165e+00 -6.2700266599626975e-01 0.0000000000000000e+00  1.4153777894695079e+00 7.4364531099538972e-02 0.0000000000000000e+00  9.4865177259253464e-01 -2.0256784591519947e-01 0.0000000000000000e+00  9.1724698534075877e-01 -1.3130132864744712e-01 0.0000000000000000e+00  1.0886774881003691e+00 1.0029222596799250e+00 0.0000000000000000e+00  6.9952124156396067e-01 -9.8014492498820813e-02 0.0000000000000000e+00  1.0495845184910408e+00 7.0835646740558289e-01 0.0000000000000000e+00  7.8394961526086382e-01 1.2654381993716435e-01 0.0000000000000000e+00  1.3030079136873214e+00 -3.2056593982410730e-01 0.0000000000000000e+00  1.1943867894452733e+00 4.2961097979400842e-01 0.0000000000000000e+00  2.4965421867128179e-01 -4.9584214475494737e-01 0.0000000000000000e+00  1.4050509212226014e+00 -7.8804133522207900e-02 0.0000000000000000e+00  5.6496004482140838e-01 -1.9770074771649080e-02 0.0000000000000000e+00  1.0634079272503221e+00 -1.5761840013242620e-01 0.0000000000000000e+00  1.3475581484472756e+00 1.4404272659772802e-01 0.0000000000000000e+00  1.2632852375622832e+00 1.8891975160904076e-01 0.0000000000000000e+00  1.0551789693788178e+00 -9.7782935307239760e-01 0.0000000000000000e+00  1.2182363687611852e+00 -1.4379253613576237e-01 0.0000000000000000e+00  1.2466376457366646e+00 -2.2695867854651045e-01 0.0000000000000000e+00  0.0000000000000000e+00 0.0000000000000000e+00 0.0000000000000000e+00  0.0000000000000000e+00 0.0000000000000000e+00 0.0000000000000000e+00  0.0000000000000000e+00 0.0000000000000000e+00 0.0000000000000000e+00  9.6161218013077743e-01 -4.2882011334102091e-02 0.0000000000000000e+00  6.0530575963724831e-01 -9.1967168275935415e-02 0.0000000000000000e+00  0.0000000000000000e+00 0.0000000000000000e+00 0.0000000000000000e+00  0.0000000000000000e+00 0.0000000000000000e+00 0.0000000000000000e+00  5.7908580367763296e-01 2.1204193222853088e-01 0.0000000000000000e+00  1.9687606153018211e+00 -6.2713450451535302e-01 0.0000000000000000e+00  1.0206953029506238e+00 -1.9638927171348119e-01 0.0000000000000000e+00  0.0000000000000000e+00 0.0000000000000000e+00 0.0000000000000000e+00  3.7695096137860296e-01 -4.0218387746176476e-02 0.0000000000000000e+00  1.3288558951027807e+00 -4.8396631557877834e-01 0.0000000000000000e+00  6.1566355628679514e-01 -2.6087604237021572e-01 0.0000000000000000e+00  1.9123124779010221e+00 -6.8102809562894528e-01 0.0000000000000000e+00  1.2725128432094788e+00 -3.9995745484949080e-01 0.0000000000000000e+00  7.5955346153577163e-01 -3.4806137783258792e-02 0.0000000000000000e+00  1.4278460754214890e+00 -3.0508092603512837e-01 0.0000000000000000e+00  1.9955186533421452e+00 -4.5962626887141850e-01 0.0000000000000000e+00  1.9017242478132192e+00 -5.2747622229014768e-01 0.0000000000000000e+00  1.8931025340721650e+00 -5.1953113169912013e-01 0.0000000000000000e+00  1.1486447767592363e+00 -2.6161383352563189e-01 0.0000000000000000e+00  1.1150618499438643e+00 -2.1412949652014898e-01 0.0000000000000000e+00  </DataArray> 
</PointData> 
</Piece>
</UnstructuredGrid>
</VTKFile>