<?xml version="1.0"?>
<VTKFile type="UnstructuredGrid"  version="0.1"  >
<UnstructuredGrid>
<Piece  NumberOfPoints="1419" NumberOfCells="2698">
<Points>
<DataArray  type="Float64"  NumberOfComponents="3"  format="ascii">0 0 0  0 0.41 0  2.5 0 0  2.5 0.41 0  0.6 0.19 0  0.6 0.21 0  0.25 0.2 0  0.15 0.2 0  0.2489897948556636 0.21 0  0.2489897948556636 0.19 0  0.6 0.2 0  0 0.3807142857143437 0  0 0.3514285714286952 0  0 0.3221428571430699 0  0 0.29285714285744 0  0 0.2635714285718054 0  0 0.2342857142861561 0  0 0.2050000000005308 0  0 0.175714285714732 0  0 0.1464285714289574 0  0 0.1171428571431897 0  0 0.08785714285737878 0  0 0.05857142857161107 0  0 0.02928571428580012 0  0.03015443760436003 0 0  0.06140001986583606 0 0  0.09377624077125973 0 0  0.1273239957535082 0 0  0.1620856860351972 0 0  0.1981052433264291 0 0  0.235428184091502 0 0  0.2741016576309132 0 0  0.3141745521465447 0 0  0.3556974926295285 0 0  0.3987229542472677 0 0  0.4433053055141081 0 0  0.4895008759286886 0 0  0.5373680609405097 0 0  0.5869673343216626 0 0  0.6383613676634521 0 0  0.6916151138468254 0 0  0.7467958595648856 0 0  0.8039733463919316 0 0  0.8632198139502143 0 0  0.9246101326867038 0 0  0.9882218810934433 0 0  1.054135445558498 0 0  1.122434100542598 0 0  1.193204177141305 0 0  1.266535089879536 0 0  1.342519516046404 0 0  1.421253448503939 0 0  1.502836389106271 0 0  1.587371439758838 0 0  1.674965418777374 0 0  1.765729001825544 0 0  1.859776908880082 0 0  1.957227977487062 0 0  2.058205329869943 0 0  2.162836591189951 0 0  2.271253957290865 0 0  2.383594446803425 0 0  2.5 0.1024999999997612 0  2.5 0.2049999999994743 0  2.5 0.3074999999997183 0  2.383594446803656 0.41 0  2.271253957291315 0.41 0  2.162836591190598 0.41 0  2.058205329870775 0.41 0  1.957227977488067 0.41 0  1.859776908881246 0.41 0  1.765729001826854 0.41 0  1.674965418778818 0.41 0  1.58737143976041 0.41 0  1.502836389107956 0.41 0  1.421253448505726 0.41 0  1.342519516048286 0.41 0  1.266535089881505 0.41 0  1.193204177143353 0.41 0  1.122434100544716 0.41 0  1.05413544556068 0.41 0  0.9882218810956305 0.41 0  0.9246101326886647 0.41 0  0.8632198139519631 0.41 0  0.8039733463934788 0.41 0  0.7467958595662458 0.41 0  0.6916151138480078 0.41 0  0.6383613676644679 0.41 0  0.5869673343225223 0.41 0  0.5373680609412221 0.41 0  0.4895008759292634 0.41 0  0.4433053055145528 0.41 0  0.3987229542475914 0.41 0  0.3556974926297398 0.41 0  0.3141745521466497 0.41 0  0.2741016576310038 0.41 0  0.2354281840915826 0.41 0  0.1981052433265003 0.41 0  0.1620856860352591 0.41 0  0.1273239957535623 0.41 0  0.09377624077128965 0.41 0  0.06140001986584975 0.41 0  0.03015443760436654 0.41 0  0.2497468076502589 0.2050254481002335 0  0.2497468076502614 0.1949745518997913 0  0.2469965252529372 0.1829317073451959 0  0.2439893735792749 0.1762316384219906 0  0.2400332147834255 0.1700443375285386 0  0.2352133972704371 0.1645032867342007 0  0.2296339016332438 0.1597280261969788 0  0.2234150974217223 0.1558215752574715 0  0.2166911463437691 0.1528682099456123 0  0.2096071079204251 0.1509316448471593 0  0.2023158100364996 0.1500536585536553 0  0.194974551899914 0.1502531923497262 0  0.1877417105387872 0.1515259415822739 0  0.1807733240461124 0.153844448527136 0  0.1742197252835808 0.15715869474974 0  0.1682222986673531 0.1613971801805478 0  0.162910430003803 0.1664684656256651 0  0.1583987151779087 0.1722631454351573 0  0.1547844879126891 0.178656207771761 0  0.1521457199348551 0.1855097315605723 0  0.1505393388476355 0.1926758619366523 0  0.1505393388476328 0.2073241380633295 0  0.1521457199348437 0.2144902684393899 0  0.1547844879126531 0.221343792228163 0  0.1583987151778488 0.2277368545647528 0  0.1629104300036858 0.2335315343742052 0  0.1682222986671726 0.2386028198193036 0  0.1742197252833576 0.2428413052501257 0  0.1807733240458683 0.2461555514727623 0  0.1877417105384929 0.2484740584176516 0  0.1949745518995776 0.2497468076502398 0  0.202315810036185 0.2499463414463592 0  0.2096071079201568 0.2490683551528932 0  0.2166911463435495 0.2471317900544655 0  0.2234150974215506 0.2441784247426195 0  0.2296339016331197 0.2402719738031125 0  0.2352133972703547 0.2354967132658811 0  0.2400332147833751 0.2299556624715287 0  0.2439893735792577 0.2237683615780412 0  0.246996525252926 0.2170682926548348 0  0.25645809709277 0.21 0  0.2639263993298655 0.21 0  0.271394701566961 0.21 0  0.2788630038040554 0.21 0  0.2863313060411479 0.21 0  0.2937996082782405 0.21 0  0.301267910515333 0.21 0  0.3087362127524279 0.21 0  0.3162045149895234 0.21 0  0.3236728172265972 0.21 0  0.3311411194636928 0.21 0  0.3386094217007701 0.21 0  0.3460777239378666 0.21 0  0.3535460261749672 0.21 0  0.3610143284120516 0.21 0  0.3684826306491596 0.21 0  0.3759509328862226 0.21 0  0.383419235123329 0.21 0  0.3908875373604028 0.21 0  0.3983558395975142 0.21 0  0.4058241418345938 0.21 0  0.4132924440716992 0.21 0  0.4207607463087888 0.21 0  0.4282290485459029 0.21 0  0.4356973507830418 0.21 0  0.4431656530201649 0.21 0  0.4506339552573136 0.21 0  0.4581022574944306 0.21 0  0.4655705597315852 0.21 0  0.4730388619686996 0.21 0  0.480507164205851 0.21 0  0.4879754664429498 0.21 0  0.4954437686800938 0.21 0  0.502912070917267 0.21 0  0.5103803731544119 0.21 0  0.5178486753915261 0.21 0  0.5253169776286404 0.21 0  0.5327852798657868 0.21 0  0.5402535821029386 0.21 0  0.54772188434007 0.21 0  0.5551901865771842 0.21 0  0.5626584888143201 0.21 0  0.5701267910514778 0.21 0  0.5775950932886138 0.21 0  0.5850633955257281 0.21 0  0.5925316977628483 0.21 0  0.6 0.2050000000000054 0  0.6 0.1950000000000217 0  0.5925316977628897 0.19 0  0.5850633955257988 0.19 0  0.5775950932887378 0.19 0  0.5701267910515998 0.19 0  0.5626584888145268 0.19 0  0.5551901865773963 0.19 0  0.547721884340339 0.19 0  0.5402535821032429 0.19 0  0.5327852798661811 0.19 0  0.5253169776290537 0.19 0  0.5178486753919799 0.19 0  0.5103803731549078 0.19 0  0.502912070917822 0.19 0  0.4954437686807294 0.19 0  0.4879754664436223 0.19 0  0.4805071642065402 0.19 0  0.4730388619694271 0.19 0  0.4655705597323621 0.19 0  0.4581022574952563 0.19 0  0.4506339552581777 0.19 0  0.4431656530210671 0.19 0  0.4356973507839815 0.19 0  0.4282290485468779 0.19 0  0.4207607463097617 0.19 0  0.4132924440726327 0.19 0  0.4058241418354857 0.19 0  0.3983558395983636 0.19 0  0.3908875373612097 0.19 0  0.3834192351240934 0.19 0  0.3759509328869369 0.19 0  0.3684826306498175 0.19 0  0.361014328412667 0.19 0  0.3535460261755617 0.19 0  0.3460777239384295 0.19 0  0.3386094217012945 0.19 0  0.3311411194641595 0.19 0  0.3236728172270245 0.19 0  0.3162045149898895 0.19 0  0.3087362127527544 0.19 0  0.3012679105156187 0.19 0  0.2937996082784807 0.19 0  0.2863313060413428 0.19 0  0.2788630038042048 0.19 0  0.2713947015670686 0.19 0  0.2639263993299336 0.19 0  0.2564580970927985 0.19 0  0.2607803159922026 0.2000727136295815 0  0.5887803774232762 0.2001272386983733 0  0.5745072403740523 0.2002044435018727 0  0.5511891430099709 0.2001122610077113 0  0.2751288526855082 0.20000000000002 0  0.5365194309847112 0.1999999999999436 0  0.2894621222999649 0.1998691686390484 0  0.5215828265105155 0.1999999999999228 0  0.3127789816668748 0.1998657885438805 0  0.3274069683451451 0.2000000000000796 0  0.5066462220363641 0.199999999999908 0  0.3650630746574081 0.199866017807523 0  0.476773013087985 0.1999999999998713 0  0.3417402379596385 0.1998691686391011 0  0.3796850840047755 0.200000000000134 0  0.4618364086138087 0.1999999999998546 0  0.4917096175621762 0.1999999999998808 0  0.3946216884789568 0.2000000000001512 0  0.446899804139621 0.1999999999998389 0  0.4089549580935208 0.1998691686391595 0  0.4322718174608562 0.200127451265745 0  0.4201487168029707 0.1999966199048527 0  0.3528922713220932 0.2000185703532356 0  0.5633122436674589 0.1999814296467508 0  0.3006558810093873 0.1999966199048318 0  0.5815926498168407 0.1966545283159175 0  0.2677053789419034 0.1964246479135325 0  0.5290511287476175 0.1970915826863981 0  0.5439877332217911 0.197091582686394 0  0.2825131256993216 0.2035478995978015 0  0.3199386661080599 0.202908417313604 0  0.4842413153250809 0.1970915826863873 0  0.5141145242734466 0.1970915826863843 0  0.3722167817676917 0.2029084173136195 0  0.4693047108508938 0.1970915826863783 0  0.3348752705822316 0.202908417313609 0  0.3871533862418661 0.2029084173136212 0  0.4543681063767183 0.1970915826863795 0  0.4991779197992749 0.1970915826863902 0  0.4020059614928624 0.203547899597858 0  0.4394315019025246 0.1970915826863714 0  0.2550657455369551 0.2034088125358657 0  0.2548908499171161 0.1966940311614271 0  0.5946539510196798 0.2024302972968126 0  0.267698176732111 0.2039977513680092 0  0.4261685417851465 0.196409292431739 0  0.3590076176283495 0.196411355804271 0  0.5571672426447437 0.2036011176410121 0  0.3066757059912147 0.1964092924317024 0  0.594380730180568 0.1966558399668133 0  0.4842413153245942 0.2040749161535287 0  0.4693047108503577 0.2040749161535231 0  0.3871533862424271 0.1959250838464788 0  0.372246743208829 0.1959123236376545 0  0.5141145242731028 0.2040749161535395 0  0.4543681063761134 0.2040749161535186 0  0.4019979587101454 0.1959834479682427 0  0.4394608940728603 0.2040870543693135 0  0.5439623148931173 0.2040856076781014 0  0.5290511287473298 0.2040749161535501 0  0.4991779197988497 0.2040749161535382 0  0.3347912413592433 0.1959225448935183 0  0.3199680582793816 0.1959123018030061 0  0.2825051229162361 0.1959834479681729 0  0.3590471196690275 0.2036304442587945 0  0.5571594006495384 0.1963685282145804 0  0.3067669986803285 0.203627750582736 0  0.4262598344738712 0.2036568242185335 0  0.5814408164431408 0.2041285596160068 0  0.5688286748170428 0.1961819304477386 0  0.4145905603063645 0.2038180695522843 0  0.3473758401724931 0.2038180695522752 0  0.2950977245128307 0.2038180695522663 0  0.5688286748170693 0.203818069552238 0  0.2950977245127906 0.1961819304477774 0  0.3473758401723931 0.1961819304478349 0  0.4145905603061963 0.1961819304479011 0  0.2601812407614425 0.2056861609747042
[...]
<PointData  Vectors="f_40-1"> 
<DataArray  type="Float64"  Name="f_40-1"  NumberOfComponents="3" format="ascii">0.0000000000000000e+00 0.0000000000000000e+00 0.0000000000000000e+00  0.0000000000000000e+00 0.0000000000000000e+00 0.0000000000000000e+00  0.0000000000000000e+00 0.0000000000000000e+00 0.0000000000000000e+00  0.0000000000000000e+00 0.0000000000000000e+00 0.0000000000000000e+00  2.3229451654003388e-06 -1.0049913378480272e-04 0.0000000000000000e+00  1.0122493597541277e-05 -1.0232938930632673e-04 0.0000000000000000e+00  0.0000000000000000e+00 0.0000000000000000e+00 0.0000000000000000e+00  0.0000000000000000e+00 0.0000000000000000e+00 0.0000000000000000e+00  0.0000000000000000e+00 0.0000000000000000e+00 0.0000000000000000e+00  0.0000000000000000e+00 0.0000000000000000e+00 0.0000000000000000e+00  6.0134836131397840e-06 -1.0141494932776178e-04 0.0000000000000000e+00  0.0000000000000000e+00 0.0000000000000000e+00 0.0000000000000000e+00  0.0000000000000000e+00 0.0000000000000000e+00 0.0000000000000000e+00  0.0000000000000000e+00 0.0000000000000000e+00 0.0000000000000000e+00  0.0000000000000000e+00 0.0000000000000000e+00 0.0000000000000000e+00  0.0000000000000000e+00 0.0000000000000000e+00 0.0000000000000000e+00  0.0000000000000000e+00 0.0000000000000000e+00 0.0000000000000000e+00  0.0000000000000000e+00 0.0000000000000000e+00 0.0000000000000000e+00  0.0000000000000000e+00 0.0000000000000000e+00 0.0000000000000000e+00  0.0000000000000000e+00 0.0000000000000000e+00 0.0000000000000000e+00  0.0000000000000000e+00 0.0000000000000000e+00 0.0000000000000000e+00  0.0000000000000000e+00 0.0000000000000000e+00 0.0000000000000000e+00  0.0000000000000000e+00 0.0000000000000000e+00 0.0000000000000000e+00  0.0000000000000000e+00 0.0000000000000000e+00 0.0000000000000000e+00  0.0000000000000000e+00 0.0000000000000000e+00 0.0000000000000000e+00  0.0000000000000000e+00 0.0000000000000000e+00 0.0000000000000000e+00  0.0000000000000000e+00 0.0000000000000000e+00 0.0000000000000000e+00  0.0000000000000000e+00 0.0000000000000000e+00 0.0000000000000000e+00  0.0000000000000000e+00 0.0000000000000000e+00 0.0000000000000000e+00  0.0000000000000000e+00 0.0000000000000000e+00 0.0000000000000000e+00  0.0000000000000000e+00 0.0000000000000000e+00 0.0000000000000000e+00  0.0000000000000000e+00 0.0000000000000000e+00 0.0000000000000000e+00  0.0000000000000000e+00 0.0000000000000000e+00 0.0000000000000000e+00  0.0000000000000000e+00 0.0000000000000000e+00 0.0000000000000000e+00  0.0000000000000000e+00 0.0000000000000000e+00 0.0000000000000000e+00  0.0000000000000000e+00 0.0000000000000000e+00 0.0000000000000000e+00  0.0000000000000000e+00 0.0000000000000000e+00 0.0000000000000000e+00  0.0000000000000000e+00 0.0000000000000000e+00 0.0000000000000000e+00  0.0000000000000000e+00 0.0000000000000000e+00 0.0000000000000000e+00  0.0000000000000000e+00 0.0000000000000000e+00 0.0000000000000000e+00  0.0000000000000000e+00 0.0000000000000000e+00 0.0000000000000000e+00  0.0000000000000000e+00 0.0000000000000000e+00 0.0000000000000000e+00  0.0000000000000000e+00 0.0000000000000000e+00 0.0000000000000000e+00  0.0000000000000000e+00 0.0000000000000000e+00 0.0000000000000000e+00  0.0000000000000000e+00 0.0000000000000000e+00 0.0000000000000000e+00  0.0000000000000000e+00 0.0000000000000000e+00 0.0000000000000000e+00  0.0000000000000000e+00 0.0000000000000000e+00 0.0000000000000000e+00  0.0000000000000000e+00 0.0000000000000000e+00 0.0000000000000000e+00  0.0000000000000000e+00 0.0000000000000000e+00 0.0000000000000000e+00  0.0000000000000000e+00 0.0000000000000000e+00 0.0000000000000000e+00  0.0000000000000000e+00 0.0000000000000000e+00 0.0000000000000000e+00  0.0000000000000000e+00 0.0000000000000000e+00 0.0000000000000000e+00  0.0000000000000000e+00 0.0000000000000000e+00 0.0000000000000000e+00  0.0000000000000000e+00 0.0000000000000000e+00 0.0000000000000000e+00  0.0000000000000000e+00 0.0000000000000000e+00 0.0000000000000000e+00  0.0000000000000000e+00 0.0000000000000000e+00 0.0000000000000000e+00  0.0000000000000000e+00 0.0000000000000000e+00 0.0000000000000000e+00  0.0000000000000000e+00 0.0000000000000000e+00 0.0000000000000000e+00  0.0000000000000000e+00 0.0000000000000000e+00 0.0000000000000000e+00  0.0000000000000000e+00 0.0000000000000000e+00 0.0000000000000000e+00  0.0000000000000000e+00 0.0000000000000000e+00 0.0000000000000000e+00  0.0000000000000000e+00 0.0000000000000000e+00 0.0000000000000000e+00  0.0000000000000000e+00 0.0000000000000000e+00 0.0000000000000000e+00  0.0000000000000000e+00 0.0000000000000000e+00 0.0000000000000000e+00  0.0000000000000000e+00 0.0000000000000000e+00 0.0000000000000000e+00  0.0000000000000000e+00 0.0000000000000000e+00 0.0000000000000000e+00  0.0000000000000000e+00 0.0000000000000000e+00 0.0000000000000000e+00  0.0000000000000000e+00 0.0000000000000000e+00 0.0000000000000000e+00  0.0000000000000000e+00 0.0000000000000000e+00 0.0000000000000000e+00  0.0000000000000000e+00 0.0000000000000000e+00 0.0000000000000000e+00  0.0000000000000000e+00 0.0000000000000000e+00 0.0000000000000000e+00  0.0000000000000000e+00 0.0000000000000000e+00 0.0000000000000000e+00  0.0000000000000000e+00 0.0000000000000000e+00 0.0000000000000000e+00  0.0000000000000000e+00 0.0000000000000000e+00 0.0000000000000000e+00  0.0000000000000000e+00 0.0000000000000000e+00 0.0000000000000000e+00  0.0000000000000000e+00 0.0000000000000000e+00 0.0000000000000000e+00  0.0000000000000000e+00 0.0000000000000000e+00 0.0000000000000000e+00  0.0000000000000000e+00 0.0000000000000000e+00 0.0000000000000000e+00  0.0000000000000000e+00 0.0000000000000000e+00 0.0000000000000000e+00  0.0000000000000000e+00 0.0000000000000000e+00 0.0000000000000000e+00  0.0000000000000000e+00 0.0000000000000000e+00 0.0000000000000000e+00  0.0000000000000000e+00 0.0000000000000000e+00 0.0000000000000000e+00  0.0000000000000000e+00 0.0000000000000000e+00 0.0000000000000000e+00  0.0000000000000000e+00 0.0000000000000000e+00 0.0000000000000000e+00  0.0000000000000000e+00 0.0000000000000000e+00 0.0000000000000000e+00  0.0000000000000000e+00 0.0000000000000000e+00 0.0000000000000000e+00  0.0000000000000000e+00 0.0000000000000000e+00 0.0000000000000000e+00  0.0000000000000000e+00 0.0000000000000000e+00 0.0000000000000000e+00  0.0000000000000000e+00 0.0000000000000000e+00 0.0000000000000000e+00  0.0000000000000000e+00 0.0000000000000000e+00 0.0000000000000000e+00  0.0000000000000000e+00 0.0000000000000000e+00 0.0000000000000000e+00  0.0000000000000000e+00 0.0000000000000000e+00 0.0000000000000000e+00  0.0000000000000000e+00 0.0000000000000000e+00 0.0000000000000000e+00  0.0000000000000000e+00 0.0000000000000000e+00 0.0000000000000000e+00  0.0000000000000000e+00 0.0000000000000000e+00 0.0000000000000000e+00  0.0000000000000000e+00 0.0000000000000000e+00 0.0000000000000000e+00  0.0000000000000000e+00 0.0000000000000000e+00 0.0000000000000000e+00  0.0000000000000000e+00 0.0000000000000000e+00 0.0000000000000000e+00  0.0000000000000000e+00 0.0000000000000000e+00 0.0000000000000000e+00  0.0000000000000000e+00 0.0000000000000000e+00 0.0000000000000000e+00  0.0000000000000000e+00 0.0000000000000000e+00 0.0000000000000000e+00  0.0000000000000000e+00 0.0000000000000000e+00 0.0000000000000000e+00  0.0000000000000000e+00 0.0000000000000000e+00 0.0000000000000000e+00  0.0000000000000000e+00 0.0000000000000000e+00 0.0000000000000000e+00  0.0000000000000000e+00 0.0000000000000000e+00 0.0000000000000000e+00  0.0000000000000000e+00 0.0000000000000000e+00 0.0000000000000000e+00  0.0000000000000000e+00 0.0000000000000000e+00 0.0000000000000000e+00  0.0000000000000000e+00 0.0000000000000000e+00 0.0000000000000000e+00  0.0000000000000000e+00 0.0000000000000000e+00 0.0000000000000000e+00  0.0000000000000000e+00 0.0000000000000000e+00 0.0000000000000000e+00  0.0000000000000000e+00 0.0000000000000000e+00 0.0000000000000000e+00  0.0000000000000000e+00 0.0000000000000000e+00 0.0000000000000000e+00  0.0000000000000000e+00 0.0000000000000000e+00 0.0000000000000000e+00  0.0000000000000000e+00 0.0000000000000000e+00 0.0000000000000000e+00  0.0000000000000000e+00 0.0000000000000000e+00 0.0000000000000000e+00  0.0000000000000000e+00 0.0000000000000000e+00 0.0000000000000000e+00  0.0000000000000000e+00 0.0000000000000000e+00 0.0000000000000000e+00  0.0000000000000000e+00 0.0000000000000000e+00 0.0000000000000000e+00  0.0000000000000000e+00 0.0000000000000000e+00 0.0000000000000000e+00  0.0000000000000000e+00 0.0000000000000000e+00 0.0000000000000000e+00  0.0000000000000000e+00 0.0000000000000000e+00 0.0000000000000000e+00  0.0000000000000000e+00 0.0000000000000000e+00 0.0000000000000000e+00  0.0000000000000000e+00 0.0000000000000000e+00 0.0000000000000000e+00  0.0000000000000000e+00 0.0000000000000000e+00 0.0000000000000000e+00  0.0000000000000000e+00 0.0000000000000000e+00 0.0000000000000000e+00  0.0000000000000000e+00 0.0000000000000000e+00 0.0000000000000000e+00  0.0000000000000000e+00 0.0000000000000000e+00 0.0000000000000000e+00  0.0000000000000000e+00 0.0000000000000000e+00 0.0000000000000000e+00  0.0000000000000000e+00 0.0000000000000000e+00 0.0000000000000000e+00  0.0000000000000000e+00 0.0000000000000000e+00 0.0000000000000000e+00  0.0000000000000000e+00 0.0000000000000000e+00 0.0000000000000000e+00  0.0000000000000000e+00 0.0000000000000000e+00 0.0000000000000000e+00  0.0000000000000000e+00 0.0000000000000000e+00 0.0000000000000000e+00  0.0000000000000000e+00 0.0000000000000000e+00 0.0000000000000000e+00  0.0000000000000000e+00 0.0000000000000000e+00 0.0000000000000000e+00  0.0000000000000000e+00 0.0000000000000000e+00 0.0000000000000000e+00  0.0000000000000000e+00 0.0000000000000000e+00 0.0000000000000000e+00  0.0000000000000000e+00 0.0000000000000000e+00 0.0000000000000000e+00  0.0000000000000000e+00 0.0000000000000000e+00 0.0000000000000000e+00  0.0000000000000000e+00 0.0000000000000000e+00 0.0000000000000000e+00  0.0000000000000000e+00 0.0000000000000000e+00 0.0000000000000000e+00  0.0000000000000000e+00 0.0000000000000000e+00 0.0000000000000000e+00  0.0000000000000000e+00 0.0000000000000000e+00 0.0000000000000000e+00  5.5714242481183511e-07 -1.9585392448682562e-06 0.0000000000000000e+00  1.2132507204290580e-06 -2.3401756151636106e-06 0.0000000000000000e+00  1.9408371843549550e-06 -2.7772778288864239e-06 0.0000000000000000e+00  2.7277216692166840e-06 -3.3283756779629887e-06 0.0000000000000000e+00  3.4840674464741971e-06 -4.0185263731866789e-06 0.0000000000000000e+00  4.2482594770684571e-06 -4.8817076285662774e-06 0.0000000000000000e+00  4.9551266996963362e-06 -5.8586392245894173e-06 0.0000000000000000e+00  5.6344085822144787e-06 -6.9880370243819571e-06 0.0000000000000000e+00  6.3244023142112294e-06 -8.2367897980022066e-06 0.0000000000000000e+00  6.9417089393184686e-06 -9.5982035797453757e-06 0.0000000000000000e+00  7.5713612487855181e-06 -1.1092296287365397e-05 0.0000000000000000e+00  8.1312525851803484e-06 -1.2682239275314119e-05 0.0000000000000000e+00  8.6904288912832501e-06 -1.4386455238459860e-05 0.0000000000000000e+00  9.1968686454239024e-06 -1.6175996124307751e-05 0.0000000000000000e+00  9.6719192810882461e-06 -1.8068690173964465e-05 0.0000000000000000e+00  1.0144763242459682e-05 -2.0046080077588543e-05 0.0000000000000000e+00  1.0556464143758819e-05 -2.2093234753220721e-05 0.0000000000000000e+00  1.0964364201278081e-05 -2.4235342768660356e-05 0.0000000000000000e+00  1.1316301645696370e-05 -2.6430450717181957e-05 0.0000000000000000e+00  1.1660684961330868e-05 -2.8708117944521195e-05 0.0000000000000000e+00  1.1957941583141742e-05 -3.1032747804846492e-05 0.0000000000000000e+00  1.2235363138821907e-05 -3.3426878304183575e-05 0.0000000000000000e+00  1.2476129820158308e-05 -3.5864272373326375e-05 0.0000000000000000e+00  1.2686193227646904e-05 -3.8355545886828675e-05 0.0000000000000000e+00  1.2884055804604682e-05 -4.0890759111707362e-05 0.0000000000000000e+00  1.3040151644856654e-05 -4.3458931031441060e-05 0.0000000000000000e+00  1.3170783959228451e-05 -4.6081610275800938e-05 0.0000000000000000e+00  1.3269716988258222e-05 -4.8719622009442907e-05 0.0000000000000000e+00  1.3343137102096258e-05 -5.1405653528879098e-05 0.0000000000000000e+00  1.3386304187876502e-05 -5.4102211240024446e-05 0.0000000000000000e+00  1.3403973105557256e-05 -5.6840091460111760e-05 0.0000000000000000e+00  1.3391840929284016e-05 -5.9582723883774008e-05 0.0000000000000000e+00  1.3354820598140899e-05 -6.2361789806951416e-05 0.0000000000000000e+00  1.3288320561053397e-05 -6.5139787538445170e-05 0.0000000000000000e+00  1.3195570505841895e-05 -6.7950892130280415e-05 0.0000000000000000e+00  1.3075131085573581e-05 -7.0757667204512058e-05 0.0000000000000000e+00  1.2929450245791149e-05 -7.3592687626599672e-05 0.0000000000000000e+00  1.2756330968208966e-05 -7.6420865104759181e-05 0.0000000000000000e+00  1.2557011168285327e-05 -7.9274153764940220e-05 0.0000000000000000e+00  1.2329348198240887e-05 -8.2117708447750469e-05 0.0000000000000000e+00  1.2071776631461612e-05 -8.4978101333503422e-05 0.0000000000000000e+00  1.1792645272803162e-05 -8.7836778369798470e-05 0.0000000000000000e+00  1.1483133078340662e-05 -9.0701958319560396e-05 0.0000000000000000e+00  1.1158444320087988e-05 -9.3568951303853016e-05 0.0000000000000000e+00  1.0802428650279664e-05 -9.6428362539449991e-05 0.0000000000000000e+00  1.0442705941572506e-05 -9.9315792511357124e-05 0.0000000000000000e+00  7.9940056557776854e-06 -1.0187068395702349e-04 0.0000000000000000e+00  4.1031245184233953e-06 -1.0096168611650271e-04 0.0000000000000000e+00  2.6514297006175953e-06 -9.7695344462336603e-05 0.0000000000000000e+00  3.0251515714012971e-06 -9.4764193787908913e-05 0.0000000000000000e+00  3.3912637297974265e-06 -9.1820094240457165e-05 0.0000000000000000e+00  3.7291088342976538e-06 -8.8890911600706445e-05 0.0000000000000000e+00  4.0503711315303949e-06 -8.5965253152485121e-05 0.0000000000000000e+00  4.3417333632328615e-06 -8.3044834110980779e-05 0.0000000000000000e+00  4.6153362853699593e-06 -8.0133725775269690e-05 0.0000000000000000e+00  4.8592968004661066e-06 -7.7218706975798303e-05 0.0000000000000000e+00  5.0822691740886884e-06 -7.4326376327530126e-05 0.0000000000000000e+00  5.2791071207008787e-06 -7.1426087461471039e-05 0.0000000000000000e+00  5.4567327507406805e-06 -6.8552141453730203e-05 0.0000000000000000e+00  5.6078031857441133e-06 -6.5673478718465808e-05 0.0000000000000000e+00  5.7414032510210630e-06 -6.2824151093484533e-05 0.0000000000000000e+00  5.8481837978935331e-06 -5.9974175465079009e-05 0.0000000000000000e+00  5.9397975382416098e-06 -5.7157109738285267e-05 0.0000000000000000e+00  6.0035089622723358e-06 -5.4343793738366230e-05 0.0000000000000000e+00  6.0541863018150953e-06 -5.1567871180127328e-05 0.0000000000000000e+00  6.0758280755712541e-06 -4.8800977899951500e-05 0.0000000000000000e+00  6.0871709318255349e-06 -4.6077191145498822e-05 0.0000000000000000e+00  6.0681146514706448e-06 -4.3369002350961816e-05 0.0000000000000000e+00  6.0417686405514634e-06 -4.0710037536056581e-05 0.0000000000000000e+00  5.9831679323393857e-06 -3.8074395092989055e-05 0.0000000000000000e+00  5.9159015359787709e-06 -3.5490231570119268e-05 0.0000000000000000e+00  5.8228315136588847e-06 -3.2943018006566635e-05 0.0000000000000000e+00  5.7068358462147668e-06 -3.0453871780388853e-05 0.0000000000000000e+00  5.5916984270212348e-06 -2.8008944766357951e-05 0.0000000000000000e+00  5.4444183614561382e-06 -2.5619824541667064e-05 0.0000000000000000e+00  5.2872230772897680e-06 -2.3303317613010382e-05 0.0000000000000000e+00  5.1049642031743711e-06 -2.1040619014978285e-05 0.0000000000000000e+00  4.9122977683375383e-06 -1.8862661472884164e-05 0.0000000000000000e+00  4.6949608018322644e-06 -1.6745000578981829e-05 0.0000000000000000e+00  4.4740181886708511e-06 -1.4728184797557391e-05 0.0000000000000000e+00  4.2217247673982058e-06 -1.2779047722135553e-05 0.0000000000000000e+00  3.9493457497025142e-06 -1.0941137542282294e-05 0.0000000000000000e+00  3.6896687382188478e-06 -9.1821244811388176e-06 0.0000000000000000e+00  3.3956183581167703e-06 -7.5344482323186308e-06 0.0000000000000000e+00  3.0973388926159899e-06 -6.0060186540701588e-06 0.0000000000000000e+00  2.7730527897404994e-06 -4.5808155307929038e-06 0.0000000000000000e+00  2.4559750497854307e-06 -3.2989659489230565e-06 0.0000000000000000e+00  2.1014219832107318e-06 -2.1227894817648408e-06 0.0000000000000000e+00  1.7302352703135826e-06 -1.1059088049426060e-06 0.0000000000000000e+00  1.3868999430760789e-06 -2.0564676020609862e-07 0.0000000000000000e+00  1.0055149024263883e-06 5.4974871714039657e-07 0.0000000000000000e+00  6.6761175735229694e-07 1.1417615975712832e-06 0.0000000000000000e+00  3.4192654929595757e-07 1.5183984719022239e-06 0.0000000000000000e+00  1.4320080932019988e-07 1.6237843520022914e-06 0.0000000000000000e+00  2.4642570768335337e-07 -1.8254449694557962e-07 0.0000000000000000e+00  6.6989482144335040e-06 -9.7050438586626002e-05 0.0000000000000000e+00  7.4653341539731985e-06 -9.1510033745499989e-05 0.0000000000000000e+00  8.3685009989033505e-06 -8.2471845882017632e-05 0.0000000000000000e+00  1.5607852852166376e-06 -9.8245971534691970e-07 0.0000000000000000e+00  8.7846244035679545e-06 -7.6803506653144829e-05 0.0000000000000000e+00  2.6414047264432534e-06 -2.3404686734205451e-06 0.0000000000000000e+00  9.1567108603406486e-06 -7.1073539942383205e-05 0.0000000000000000e+00  4.2742417242204876e-06 -5.7051805721489070e-06 0.0000000000000000e+00  5.2266750430252243e-06 -8.4704053855241387e-06 0.0000000000000000e+00  9.4300539444518069e-06 -6.5386031456378748e-05 0.0000000000000000e+00  7.2026252304895060e-06 -1.7392316487731996e-05 0.0000000000000000e+00  9.6840628075529232e-06 -5.4195077260852628e-05 0.0000000000000000e+00  6.0330269282946166e-06 -1.1552950320159617e-05 0.0000000000000000e+00  7.8578127877838031e-06 -2.1500672082726271e-05 0.0000000000000000e+00  9.6661854021389236e-06 -4.8728087375130045e-05 0.0000000000000000e+00  9.6056156012451933e-06 -5.9754273193557407e-05 0.0000000000000000e+00  8.4012616488861728e-06 -2.5964749806144803e-05 0.0000000000000000e+00  9.5519997873096553e-06 -4.3377230880838619e-05 0.0000000000000000e+00  8.7940420320527337e-06 -3.0470138679907145e-05 0.0000000000000000e+00  9.3941967486058109e-06 -3.8292470365892664e-05 0.0000000000000000e+00  9.1009915681026821e-06 -3.4175450580758228e-05 0.0000000000000000e+00  6.6479176469210926e-06 -1.4273006100864623e-05 0.0000000000000000e+00  7.8503530676246660e-06 -8.7150201078246709e-05 0.0000000000000000e+00  3.4567473803880942e-06 -3.8378471056733599e-06 0.0000000000000000e+00  5.7389940140115791e-06 -9.3965520187001220e-05 0.0000000000000000e+00  7.3929685801556687e-07 2.2483465415130987e-07 0.0000000000000000e+00  7.8694968536545973e-06 -7.3625121029506757e-05 0.0000000000000000e+00  7.4418471540897671e-06 -7.9387324553059630e-05 0.0000000000000000e+00  2.4668950705192424e-06 -2.3234703362184733e-06 0.0000000000000000e+00  5.3008704880300892e-06 -7.5508861198624406e-06 0.0000000000000000e+00  8.5777281618288353e-06 -5.6608575397102426e-05 0.0000000000000000e+00  8.2006414327883584e-06 -6.7898991934816708e-05 0.0000000000000000e+00  8.3594545821569247e-06 -1.9857359094604363e-05 0.0000000000000000e+00  8.6264504028991422e-06 -5.1077399978391708e-05 0.0000000000000000e+00  6.2955268710210681e-06 -1.0562475081659930e-05 0.0000000000000000e+00  9.0047727845836719e-06 -2.4164782788852504e-05 0.0000000000000000e+00  8.5832957159496970e-06 -4.5650128441920123e-05 0.0000000000000000e+00  8.4361830095632027e-06 -6.2221724119911439e-05 0.0000000000000000e+00  9.7502354130245045e-06 -2.8818645500756976e-05 0.0000000000000000e+00  8.4493159051111741e-06 -4.0352324043716931e-05 0.0000000000000000e+00  -5.9234192181092251e-08 -4.7187021268985341e-07 0.0000000000000000e+00  -1.3066804093311450e-07 3.6241090831955794e-07 0.0000000000000000e+00  7.2636042523993599e-06 -9.9528687155712363e-05 0.0000000000000000e+00  1.1562025878608739e-06 -1.3219508028284391e-06 0.0000000000000000e+00  8.02684701