<?xml version="1.0"?>
<VTKFile type="UnstructuredGrid"  version="0.1"  >
<UnstructuredGrid>
<Piece  NumberOfPoints="1419" NumberOfCells="2698">
<Points>
<DataArray  type="Float64"  NumberOfComponents="3"  format="ascii">0 0 0  0 0.41 0  2.5 0 0  2.5 0.41 0  0.6 0.19 0  0.6 0.21 0  0.25 0.2 0  0.15 0.2 0  0.2489897948556636 0.21 0  0.2489897948556636 0.19 0  0.6 0.2 0  0 0.3807142857143437 0  0 0.3514285714286952 0  0 0.3221428571430699 0  0 0.29285714285744 0  0 0.2635714285718054 0  0 0.2342857142861561 0  0 0.2050000000005308 0  0 0.175714285714732 0  0 0.1464285714289574 0  0 0.1171428571431897 0  0 0.08785714285737878 0  0 0.05857142857161107 0  0 0.02928571428580012 0  0.03015443760436003 0 0  0.06140001986583606 0 0  0.09377624077125973 0 0  0.1273239957535082 0 0  0.1620856860351972 0 0  0.1981052433264291 0 0  0.235428184091502 0 0  0.2741016576309132 0 0  0.3141745521465447 0 0  0.3556974926295285 0 0  0.3987229542472677 0 0  0.4433053055141081 0 0  0.4895008759286886 0 0  0.5373680609405097 0 0  0.5869673343216626 0 0  0.6383613676634521 0 0  0.6916151138468254 0 0  0.7467958595648856 0 0  0.8039733463919316 0 0  0.8632198139502143 0 0  0.9246101326867038 0 0  0.9882218810934433 0 0  1.054135445558498 0 0  1.122434100542598 0 0  1.193204177141305 0 0  1.266535089879536 0 0  1.342519516046404 0 0  1.421253448503939 0 0  1.502836389106271 0 0  1.587371439758838 0 0  1.674965418777374 0 0  1.765729001825544 0 0  1.859776908880082 0 0  1.957227977487062 0 0  2.058205329869943 0 0  2.162836591189951 0 0  2.271253957290865 0 0  2.383594446803425 0 0  2.5 0.1024999999997612 0  2.5 0.2049999999994743 0  2.5 0.3074999999997183 0  2.383594446803656 0.41 0  2.271253957291315 0.41 0  2.162836591190598 0.41 0  2.058205329870775 0.41 0  1.957227977488067 0.41 0  1.859776908881246 0.41 0  1.765729001826854 0.41 0  1.674965418778818 0.41 0  1.58737143976041 0.41 0  1.502836389107956 0.41 0  1.421253448505726 0.41 0  1.342519516048286 0.41 0  1.266535089881505 0.41 0  1.193204177143353 0.41 0  1.122434100544716 0.41 0  1.05413544556068 0.41 0  0.9882218810956305 0.41 0  0.9246101326886647 0.41 0  0.8632198139519631 0.41 0  0.8039733463934788 0.41 0  0.7467958595662458 0.41 0  0.6916151138480078 0.41 0  0.6383613676644679 0.41 0  0.5869673343225223 0.41 0  0.5373680609412221 0.41 0  0.4895008759292634 0.41 0  0.4433053055145528 0.41 0  0.3987229542475914 0.41 0  0.3556974926297398 0.41 0  0.3141745521466497 0.41 0  0.2741016576310038 0.41 0  0.2354281840915826 0.41 0  0.1981052433265003 0.41 0  0.1620856860352591 0.41 0  0.1273239957535623 0.41 0  0.09377624077128965 0.41 0  0.06140001986584975 0.41 0  0.03015443760436654 0.41 0  0.2497468076502589 0.2050254481002335 0  0.2497468076502614 0.1949745518997913 0  0.2469965252529372 0.1829317073451959 0  0.2439893735792749 0.1762316384219906 0  0.2400332147834255 0.1700443375285386 0  0.2352133972704371 0.1645032867342007 0  0.2296339016332438 0.1597280261969788 0  0.2234150974217223 0.1558215752574715 0  0.2166911463437691 0.1528682099456123 0  0.2096071079204251 0.1509316448471593 0  0.2023158100364996 0.1500536585536553 0  0.194974551899914 0.1502531923497262 0  0.1877417105387872 0.1515259415822739 0  0.1807733240461124 0.153844448527136 0  0.1742197252835808 0.15715869474974 0  0.1682222986673531 0.1613971801805478 0  0.162910430003803 0.1664684656256651 0  0.1583987151779087 0.1722631454351573 0  0.1547844879126891 0.178656207771761 0  0.1521457199348551 0.1855097315605723 0  0.1505393388476355 0.1926758619366523 0  0.1505393388476328 0.2073241380633295 0  0.1521457199348437 0.2144902684393899 0  0.1547844879126531 0.221343792228163 0  0.1583987151778488 0.2277368545647528 0  0.1629104300036858 0.2335315343742052 0  0.1682222986671726 0.2386028198193036 0  0.1742197252833576 0.2428413052501257 0  0.1807733240458683 0.2461555514727623 0  0.1877417105384929 0.2484740584176516 0  0.1949745518995776 0.2497468076502398 0  0.202315810036185 0.2499463414463592 0  0.2096071079201568 0.2490683551528932 0  0.2166911463435495 0.2471317900544655 0  0.2234150974215506 0.2441784247426195 0  0.2296339016331197 0.2402719738031125 0  0.2352133972703547 0.2354967132658811 0  0.2400332147833751 0.2299556624715287 0  0.2439893735792577 0.2237683615780412 0  0.246996525252926 0.2170682926548348 0  0.25645809709277 0.21 0  0.2639263993298655 0.21 0  0.271394701566961 0.21 0  0.2788630038040554 0.21 0  0.2863313060411479 0.21 0  0.2937996082782405 0.21 0  0.301267910515333 0.21 0  0.3087362127524279 0.21 0  0.3162045149895234 0.21 0  0.3236728172265972 0.21 0  0.3311411194636928 0.21 0  0.3386094217007701 0.21 0  0.3460777239378666 0.21 0  0.3535460261749672 0.21 0  0.3610143284120516 0.21 0  0.3684826306491596 0.21 0  0.3759509328862226 0.21 0  0.383419235123329 0.21 0  0.3908875373604028 0.21 0  0.3983558395975142 0.21 0  0.4058241418345938 0.21 0  0.4132924440716992 0.21 0  0.4207607463087888 0.21 0  0.4282290485459029 0.21 0  0.4356973507830418 0.21 0  0.4431656530201649 0.21 0  0.4506339552573136 0.21 0  0.4581022574944306 0.21 0  0.4655705597315852 0.21 0  0.4730388619686996 0.21 0  0.480507164205851 0.21 0  0.4879754664429498 0.21 0  0.4954437686800938 0.21 0  0.502912070917267 0.21 0  0.5103803731544119 0.21 0  0.5178486753915261 0.21 0  0.5253169776286404 0.21 0  0.5327852798657868 0.21 0  0.5402535821029386 0.21 0  0.54772188434007 0.21 0  0.5551901865771842 0.21 0  0.5626584888143201 0.21 0  0.5701267910514778 0.21 0  0.5775950932886138 0.21 0  0.5850633955257281 0.21 0  0.5925316977628483 0.21 0  0.6 0.2050000000000054 0  0.6 0.1950000000000217 0  0.5925316977628897 0.19 0  0.5850633955257988 0.19 0  0.5775950932887378 0.19 0  0.5701267910515998 0.19 0  0.5626584888145268 0.19 0  0.5551901865773963 0.19 0  0.547721884340339 0.19 0  0.5402535821032429 0.19 0  0.5327852798661811 0.19 0  0.5253169776290537 0.19 0  0.5178486753919799 0.19 0  0.5103803731549078 0.19 0  0.502912070917822 0.19 0  0.4954437686807294 0.19 0  0.4879754664436223 0.19 0  0.4805071642065402 0.19 0  0.4730388619694271 0.19 0  0.4655705597323621 0.19 0  0.4581022574952563 0.19 0  0.4506339552581777 0.19 0  0.4431656530210671 0.19 0  0.4356973507839815 0.19 0  0.4282290485468779 0.19 0  0.4207607463097617 0.19 0  0.4132924440726327 0.19 0  0.4058241418354857 0.19 0  0.3983558395983636 0.19 0  0.3908875373612097 0.19 0  0.3834192351240934 0.19 0  0.3759509328869369 0.19 0  0.3684826306498175 0.19 0  0.361014328412667 0.19 0  0.3535460261755617 0.19 0  0.3460777239384295 0.19 0  0.3386094217012945 0.19 0  0.3311411194641595 0.19 0  0.3236728172270245 0.19 0  0.3162045149898895 0.19 0  0.3087362127527544 0.19 0  0.3012679105156187 0.19 0  0.2937996082784807 0.19 0  0.2863313060413428 0.19 0  0.2788630038042048 0.19 0  0.2713947015670686 0.19 0  0.2639263993299336 0.19 0  0.2564580970927985 0.19 0  0.2607803159922026 0.2000727136295815 0  0.5887803774232762 0.2001272386983733 0  0.5745072403740523 0.2002044435018727 0  0.5511891430099709 0.2001122610077113 0  0.2751288526855082 0.20000000000002 0  0.5365194309847112 0.1999999999999436 0  0.2894621222999649 0.1998691686390484 0  0.5215828265105155 0.1999999999999228 0  0.3127789816668748 0.1998657885438805 0  0.3274069683451451 0.2000000000000796 0  0.5066462220363641 0.199999999999908 0  0.3650630746574081 0.199866017807523 0  0.476773013087985 0.1999999999998713 0  0.3417402379596385 0.1998691686391011 0  0.3796850840047755 0.200000000000134 0  0.4618364086138087 0.1999999999998546 0  0.4917096175621762 0.1999999999998808 0  0.3946216884789568 0.2000000000001512 0  0.446899804139621 0.1999999999998389 0  0.4089549580935208 0.1998691686391595 0  0.4322718174608562 0.200127451265745 0  0.4201487168029707 0.1999966199048527 0  0.3528922713220932 0.2000185703532356 0  0.5633122436674589 0.1999814296467508 0  0.3006558810093873 0.1999966199048318 0  0.5815926498168407 0.1966545283159175 0  0.2677053789419034 0.1964246479135325 0  0.5290511287476175 0.1970915826863981 0  0.5439877332217911 0.197091582686394 0  0.2825131256993216 0.2035478995978015 0  0.3199386661080599 0.202908417313604 0  0.4842413153250809 0.1970915826863873 0  0.5141145242734466 0.1970915826863843 0  0.3722167817676917 0.2029084173136195 0  0.4693047108508938 0.1970915826863783 0  0.3348752705822316 0.202908417313609 0  0.3871533862418661 0.2029084173136212 0  0.4543681063767183 0.1970915826863795 0  0.4991779197992749 0.1970915826863902 0  0.4020059614928624 0.203547899597858 0  0.4394315019025246 0.1970915826863714 0  0.2550657455369551 0.2034088125358657 0  0.2548908499171161 0.1966940311614271 0  0.5946539510196798 0.2024302972968126 0  0.267698176732111 0.2039977513680092 0  0.4261685417851465 0.196409292431739 0  0.3590076176283495 0.196411355804271 0  0.5571672426447437 0.2036011176410121 0  0.3066757059912147 0.1964092924317024 0  0.594380730180568 0.1966558399668133 0  0.4842413153245942 0.2040749161535287 0  0.4693047108503577 0.2040749161535231 0  0.3871533862424271 0.1959250838464788 0  0.372246743208829 0.1959123236376545 0  0.5141145242731028 0.2040749161535395 0  0.4543681063761134 0.2040749161535186 0  0.4019979587101454 0.1959834479682427 0  0.4394608940728603 0.2040870543693135 0  0.5439623148931173 0.2040856076781014 0  0.5290511287473298 0.2040749161535501 0  0.4991779197988497 0.2040749161535382 0  0.3347912413592433 0.1959225448935183 0  0.3199680582793816 0.1959123018030061 0  0.2825051229162361 0.1959834479681729 0  0.3590471196690275 0.2036304442587945 0  0.5571594006495384 0.1963685282145804 0  0.3067669986803285 0.203627750582736 0  0.4262598344738712 0.2036568242185335 0  0.5814408164431408 0.2041285596160068 0  0.5688286748170428 0.1961819304477386 0  0.4145905603063645 0.2038180695522843 0  0.3473758401724931 0.2038180695522752 0  0.2950977245128307 0.2038180695522663 0  0.5688286748170693 0.203818069552238 0  0.2950977245127906 0.1961819304477774 0  0.3473758401723931 0.1961819304478349 0  0.4145905603061963 0.1961819304479011 0  0.2601812407614425 0.2056861609747042
[...]
<PointData  Vectors="f_40-1"> 
<DataArray  type="Float64"  Name="f_40-1"  NumberOfComponents="3" format="ascii">0.0000000000000000e+00 0.0000000000000000e+00 0.0000000000000000e+00  0.0000000000000000e+00 0.0000000000000000e+00 0.0000000000000000e+00  0.0000000000000000e+00 0.0000000000000000e+00 0.0000000000000000e+00  0.0000000000000000e+00 0.0000000000000000e+00 0.0000000000000000e+00  -3.5974411101988989e-06 -4.5973994278231923e-06 0.0000000000000000e+00  -3.1819949128738394e-06 -5.3417773758821315e-06 0.0000000000000000e+00  0.0000000000000000e+00 0.0000000000000000e+00 0.0000000000000000e+00  0.0000000000000000e+00 0.0000000000000000e+00 0.0000000000000000e+00  0.0000000000000000e+00 0.0000000000000000e+00 0.0000000000000000e+00  0.0000000000000000e+00 0.0000000000000000e+00 0.0000000000000000e+00  -3.4312155770191107e-06 -4.9695832070095677e-06 0.0000000000000000e+00  0.0000000000000000e+00 0.0000000000000000e+00 0.0000000000000000e+00  0.0000000000000000e+00 0.0000000000000000e+00 0.0000000000000000e+00  0.0000000000000000e+00 0.0000000000000000e+00 0.0000000000000000e+00  0.0000000000000000e+00 0.0000000000000000e+00 0.0000000000000000e+00  0.0000000000000000e+00 0.0000000000000000e+00 0.0000000000000000e+00  0.0000000000000000e+00 0.0000000000000000e+00 0.0000000000000000e+00  0.0000000000000000e+00 0.0000000000000000e+00 0.0000000000000000e+00  0.0000000000000000e+00 0.0000000000000000e+00 0.0000000000000000e+00  0.0000000000000000e+00 0.0000000000000000e+00 0.0000000000000000e+00  0.0000000000000000e+00 0.0000000000000000e+00 0.0000000000000000e+00  0.0000000000000000e+00 0.0000000000000000e+00 0.0000000000000000e+00  0.0000000000000000e+00 0.0000000000000000e+00 0.0000000000000000e+00  0.0000000000000000e+00 0.0000000000000000e+00 0.0000000000000000e+00  0.0000000000000000e+00 0.0000000000000000e+00 0.0000000000000000e+00  0.0000000000000000e+00 0.0000000000000000e+00 0.0000000000000000e+00  0.0000000000000000e+00 0.0000000000000000e+00 0.0000000000000000e+00  0.0000000000000000e+00 0.0000000000000000e+00 0.0000000000000000e+00  0.0000000000000000e+00 0.0000000000000000e+00 0.0000000000000000e+00  0.0000000000000000e+00 0.0000000000000000e+00 0.0000000000000000e+00  0.0000000000000000e+00 0.0000000000000000e+00 0.0000000000000000e+00  0.0000000000000000e+00 0.0000000000000000e+00 0.0000000000000000e+00  0.0000000000000000e+00 0.0000000000000000e+00 0.0000000000000000e+00  0.0000000000000000e+00 0.0000000000000000e+00 0.0000000000000000e+00  0.0000000000000000e+00 0.0000000000000000e+00 0.0000000000000000e+00  0.0000000000000000e+00 0.0000000000000000e+00 0.0000000000000000e+00  0.0000000000000000e+00 0.0000000000000000e+00 0.0000000000000000e+00  0.0000000000000000e+00 0.0000000000000000e+00 0.0000000000000000e+00  0.0000000000000000e+00 0.0000000000000000e+00 0.0000000000000000e+00  0.0000000000000000e+00 0.0000000000000000e+00 0.0000000000000000e+00  0.0000000000000000e+00 0.0000000000000000e+00 0.0000000000000000e+00  0.0000000000000000e+00 0.0000000000000000e+00 0.0000000000000000e+00  0.0000000000000000e+00 0.0000000000000000e+00 0.0000000000000000e+00  0.0000000000000000e+00 0.0000000000000000e+00 0.0000000000000000e+00  0.0000000000000000e+00 0.0000000000000000e+00 0.0000000000000000e+00  0.0000000000000000e+00 0.0000000000000000e+00 0.0000000000000000e+00  0.0000000000000000e+00 0.0000000000000000e+00 0.0000000000000000e+00  0.0000000000000000e+00 0.0000000000000000e+00 0.0000000000000000e+00  0.0000000000000000e+00 0.0000000000000000e+00 0.0000000000000000e+00  0.0000000000000000e+00 0.0000000000000000e+00 0.0000000000000000e+00  0.0000000000000000e+00 0.0000000000000000e+00 0.0000000000000000e+00  0.0000000000000000e+00 0.0000000000000000e+00 0.0000000000000000e+00  0.0000000000000000e+00 0.0000000000000000e+00 0.0000000000000000e+00  0.0000000000000000e+00 0.0000000000000000e+00 0.0000000000000000e+00  0.0000000000000000e+00 0.0000000000000000e+00 0.0000000000000000e+00  0.0000000000000000e+00 0.0000000000000000e+00 0.0000000000000000e+00  0.0000000000000000e+00 0.0000000000000000e+00 0.0000000000000000e+00  0.0000000000000000e+00 0.0000000000000000e+00 0.0000000000000000e+00  0.0000000000000000e+00 0.0000000000000000e+00 0.0000000000000000e+00  0.0000000000000000e+00 0.0000000000000000e+00 0.0000000000000000e+00  0.0000000000000000e+00 0.0000000000000000e+00 0.0000000000000000e+00  0.0000000000000000e+00 0.0000000000000000e+00 0.0000000000000000e+00  0.0000000000000000e+00 0.0000000000000000e+00 0.0000000000000000e+00  0.0000000000000000e+00 0.0000000000000000e+00 0.0000000000000000e+00  0.0000000000000000e+00 0.0000000000000000e+00 0.0000000000000000e+00  0.0000000000000000e+00 0.0000000000000000e+00 0.0000000000000000e+00  0.0000000000000000e+00 0.0000000000000000e+00 0.0000000000000000e+00  0.0000000000000000e+00 0.0000000000000000e+00 0.0000000000000000e+00  0.0000000000000000e+00 0.0000000000000000e+00 0.0000000000000000e+00  0.0000000000000000e+00 0.0000000000000000e+00 0.0000000000000000e+00  0.0000000000000000e+00 0.0000000000000000e+00 0.0000000000000000e+00  0.0000000000000000e+00 0.0000000000000000e+00 0.0000000000000000e+00  0.0000000000000000e+00 0.0000000000000000e+00 0.0000000000000000e+00  0.0000000000000000e+00 0.0000000000000000e+00 0.0000000000000000e+00  0.0000000000000000e+00 0.0000000000000000e+00 0.0000000000000000e+00  0.0000000000000000e+00 0.0000000000000000e+00 0.0000000000000000e+00  0.0000000000000000e+00 0.0000000000000000e+00 0.0000000000000000e+00  0.0000000000000000e+00 0.0000000000000000e+00 0.0000000000000000e+00  0.0000000000000000e+00 0.0000000000000000e+00 0.0000000000000000e+00  0.0000000000000000e+00 0.0000000000000000e+00 0.0000000000000000e+00  0.0000000000000000e+00 0.0000000000000000e+00 0.0000000000000000e+00  0.0000000000000000e+00 0.0000000000000000e+00 0.0000000000000000e+00  0.0000000000000000e+00 0.0000000000000000e+00 0.0000000000000000e+00  0.0000000000000000e+00 0.0000000000000000e+00 0.0000000000000000e+00  0.0000000000000000e+00 0.0000000000000000e+00 0.0000000000000000e+00  0.0000000000000000e+00 0.0000000000000000e+00 0.0000000000000000e+00  0.0000000000000000e+00 0.0000000000000000e+00 0.0000000000000000e+00  0.0000000000000000e+00 0.0000000000000000e+00 0.0000000000000000e+00  0.0000000000000000e+00 0.0000000000000000e+00 0.0000000000000000e+00  0.0000000000000000e+00 0.0000000000000000e+00 0.0000000000000000e+00  0.0000000000000000e+00 0.0000000000000000e+00 0.0000000000000000e+00  0.0000000000000000e+00 0.0000000000000000e+00 0.0000000000000000e+00  0.0000000000000000e+00 0.0000000000000000e+00 0.0000000000000000e+00  0.0000000000000000e+00 0.0000000000000000e+00 0.0000000000000000e+00  0.0000000000000000e+00 0.0000000000000000e+00 0.0000000000000000e+00  0.0000000000000000e+00 0.0000000000000000e+00 0.0000000000000000e+00  0.0000000000000000e+00 0.0000000000000000e+00 0.0000000000000000e+00  0.0000000000000000e+00 0.0000000000000000e+00 0.0000000000000000e+00  0.0000000000000000e+00 0.0000000000000000e+00 0.0000000000000000e+00  0.0000000000000000e+00 0.0000000000000000e+00 0.0000000000000000e+00  0.0000000000000000e+00 0.0000000000000000e+00 0.0000000000000000e+00  0.0000000000000000e+00 0.0000000000000000e+00 0.0000000000000000e+00  0.0000000000000000e+00 0.0000000000000000e+00 0.0000000000000000e+00  0.0000000000000000e+00 0.0000000000000000e+00 0.0000000000000000e+00  0.0000000000000000e+00 0.0000000000000000e+00 0.0000000000000000e+00  0.0000000000000000e+00 0.0000000000000000e+00 0.0000000000000000e+00  0.0000000000000000e+00 0.0000000000000000e+00 0.0000000000000000e+00  0.0000000000000000e+00 0.0000000000000000e+00 0.0000000000000000e+00  0.0000000000000000e+00 0.0000000000000000e+00 0.0000000000000000e+00  0.0000000000000000e+00 0.0000000000000000e+00 0.0000000000000000e+00  0.0000000000000000e+00 0.0000000000000000e+00 0.0000000000000000e+00  0.0000000000000000e+00 0.0000000000000000e+00 0.0000000000000000e+00  0.0000000000000000e+00 0.0000000000000000e+00 0.0000000000000000e+00  0.0000000000000000e+00 0.0000000000000000e+00 0.0000000000000000e+00  0.0000000000000000e+00 0.0000000000000000e+00 0.0000000000000000e+00  0.0000000000000000e+00 0.0000000000000000e+00 0.0000000000000000e+00  0.0000000000000000e+00 0.0000000000000000e+00 0.0000000000000000e+00  0.0000000000000000e+00 0.0000000000000000e+00 0.0000000000000000e+00  0.0000000000000000e+00 0.0000000000000000e+00 0.0000000000000000e+00  0.0000000000000000e+00 0.0000000000000000e+00 0.0000000000000000e+00  0.0000000000000000e+00 0.0000000000000000e+00 0.0000000000000000e+00  0.0000000000000000e+00 0.0000000000000000e+00 0.0000000000000000e+00  0.0000000000000000e+00 0.0000000000000000e+00 0.0000000000000000e+00  0.0000000000000000e+00 0.0000000000000000e+00 0.0000000000000000e+00  0.0000000000000000e+00 0.0000000000000000e+00 0.0000000000000000e+00  0.0000000000000000e+00 0.0000000000000000e+00 0.0000000000000000e+00  0.0000000000000000e+00 0.0000000000000000e+00 0.0000000000000000e+00  0.0000000000000000e+00 0.0000000000000000e+00 0.0000000000000000e+00  0.0000000000000000e+00 0.0000000000000000e+00 0.0000000000000000e+00  0.0000000000000000e+00 0.0000000000000000e+00 0.0000000000000000e+00  0.0000000000000000e+00 0.0000000000000000e+00 0.0000000000000000e+00  0.0000000000000000e+00 0.0000000000000000e+00 0.0000000000000000e+00  0.0000000000000000e+00 0.0000000000000000e+00 0.0000000000000000e+00  0.0000000000000000e+00 0.0000000000000000e+00 0.0000000000000000e+00  0.0000000000000000e+00 0.0000000000000000e+00 0.0000000000000000e+00  0.0000000000000000e+00 0.0000000000000000e+00 0.0000000000000000e+00  0.0000000000000000e+00 0.0000000000000000e+00 0.0000000000000000e+00  0.0000000000000000e+00 0.0000000000000000e+00 0.0000000000000000e+00  0.0000000000000000e+00 0.0000000000000000e+00 0.0000000000000000e+00  0.0000000000000000e+00 0.0000000000000000e+00 0.0000000000000000e+00  0.0000000000000000e+00 0.0000000000000000e+00 0.0000000000000000e+00  0.0000000000000000e+00 0.0000000000000000e+00 0.0000000000000000e+00  0.0000000000000000e+00 0.0000000000000000e+00 0.0000000000000000e+00  -1.1147822121363865e-08 -6.4681819469497998e-07 0.0000000000000000e+00  -3.3009972362961547e-09 -7.0451079698245369e-07 0.0000000000000000e+00  3.5427803962815983e-08 -7.3222633637065641e-07 0.0000000000000000e+00  8.9242014282716791e-08 -7.4672143396575892e-07 0.0000000000000000e+00  1.4472103097729525e-07 -7.6675579877532798e-07 0.0000000000000000e+00  1.9513628975461943e-07 -7.9954114867302825e-07 0.0000000000000000e+00  2.3977231075394577e-07 -8.3699670489862106e-07 0.0000000000000000e+00  2.7755201403929031e-07 -8.8129150526576297e-07 0.0000000000000000e+00  3.1240301106878096e-07 -9.3173298208164541e-07 0.0000000000000000e+00  3.3852320393940868e-07 -9.8579242917151243e-07 0.0000000000000000e+00  3.6061724522771149e-07 -1.0487122780791066e-06 0.0000000000000000e+00  3.7452508969581700e-07 -1.1135369205858462e-06 0.0000000000000000e+00  3.8296432547030266e-07 -1.1853336789759379e-06 0.0000000000000000e+00  3.8507179014237139e-07 -1.2613567417791867e-06 0.0000000000000000e+00  3.7963351585349428e-07 -1.3418735032254865e-06 0.0000000000000000e+00  3.7042313607660063e-07 -1.4277855337963586e-06 0.0000000000000000e+00  3.5251999742845819e-07 -1.5149053464234504e-06 0.0000000000000000e+00  3.2948805035658191e-07 -1.6100013631399002e-06 0.0000000000000000e+00  2.9864876513147059e-07 -1.7045018943932397e-06 0.0000000000000000e+00  2.6260801529617682e-07 -1.8066587528444269e-06 0.0000000000000000e+00  2.1903760179011666e-07 -1.9082300253485873e-06 0.0000000000000000e+00  1.6871325027631656e-07 -2.0153197411843833e-06 0.0000000000000000e+00  1.1287682888514430e-07 -2.1247944114968514e-06 0.0000000000000000e+00  4.9427482440965191e-08 -2.2366873462231722e-06 0.0000000000000000e+00  -1.8252607134861749e-08 -2.3524905446887300e-06 0.0000000000000000e+00  -9.4107322900883822e-08 -2.4679179937187096e-06 0.0000000000000000e+00  -1.7641969701057515e-07 -2.5900490841398099e-06 0.0000000000000000e+00  -2.6540794339525437e-07 -2.7099549238274173e-06 0.0000000000000000e+00  -3.6081282364784757e-07 -2.8360524265074920e-06 0.0000000000000000e+00  -4.6278661589972976e-07 -2.9602314329441386e-06 0.0000000000000000e+00  -5.7113780322985186e-07 -3.0901389581634701e-06 0.0000000000000000e+00  -6.8622836135274227e-07 -3.2178748953121988e-06 0.0000000000000000e+00  -8.0745962199413701e-07 -3.3513390022529133e-06 0.0000000000000000e+00  -9.3561042019634635e-07 -3.4819406948984606e-06 0.0000000000000000e+00  -1.0704262002499864e-06 -3.6184945530811540e-06 0.0000000000000000e+00  -1.2117719547181032e-06 -3.7522778086961980e-06 0.0000000000000000e+00  -1.3594540372187550e-06 -3.8914698564245099e-06 0.0000000000000000e+00  -1.5138000206247962e-06 -4.0279074811598744e-06 0.0000000000000000e+00  -1.6748284700604764e-06 -4.1695213169623127e-06 0.0000000000000000e+00  -1.8428885887731425e-06 -4.3082102735982001e-06 0.0000000000000000e+00  -2.0185391696683703e-06 -4.4504067339523110e-06 0.0000000000000000e+00  -2.1994367796311037e-06 -4.5919348010027270e-06 0.0000000000000000e+00  -2.3885001485437496e-06 -4.7348067707902400e-06 0.0000000000000000e+00  -2.5814701232605096e-06 -4.8780395741400505e-06 0.0000000000000000e+00  -2.7823476893456743e-06 -5.0195024330482815e-06 0.0000000000000000e+00  -2.9854659797355689e-06 -5.1669994163781302e-06 0.0000000000000000e+00  -3.3217419831554418e-06 -5.1555763916329274e-06 0.0000000000000000e+00  -3.5274487463535548e-06 -4.7840613338763927e-06 0.0000000000000000e+00  -3.3990384395106908e-06 -4.4631371023815559e-06 0.0000000000000000e+00  -3.1930379306527074e-06 -4.3019145946631892e-06 0.0000000000000000e+00  -2.9900662519623396e-06 -4.1377727897121869e-06 0.0000000000000000e+00  -2.7944829036595672e-06 -3.9768459194490071e-06 0.0000000000000000e+00  -2.6032370310285832e-06 -3.8166286688328733e-06 0.0000000000000000e+00  -2.4202827546180667e-06 -3.6573880669948364e-06 0.0000000000000000e+00  -2.2421429206982977e-06 -3.5000159012185636e-06 0.0000000000000000e+00  -2.0717308154639785e-06 -3.3413523386563197e-06 0.0000000000000000e+00  -1.9073751717063018e-06 -3.1873875011468235e-06 0.0000000000000000e+00  -1.7498465935156812e-06 -3.0305944150048836e-06 0.0000000000000000e+00  -1.5983086860896000e-06 -2.8790773006142521e-06 0.0000000000000000e+00  -1.4536698484238619e-06 -2.7249957928989554e-06 0.0000000000000000e+00  -1.3149150923412279e-06 -2.5763292630408932e-06 0.0000000000000000e+00  -1.1829433892827827e-06 -2.4252890339309483e-06 0.0000000000000000e+00  -1.0566863595457251e-06 -2.2797552693896809e-06 0.0000000000000000e+00  -9.3730398631203123e-07 -2.1319802637832371e-06 0.0000000000000000e+00  -8.2364263388991950e-07 -1.9898734306367572e-06 0.0000000000000000e+00  -7.1689576111471669e-07 -1.8457561061767789e-06 0.0000000000000000e+00  -6.1567852969549105e-07 -1.7076184592709372e-06 0.0000000000000000e+00  -5.2134454236014379e-07 -1.5677818881675463e-06 0.0000000000000000e+00  -4.3240709254901921e-07 -1.4340323828195614e-06 0.0000000000000000e+00  -3.5043379018558813e-07 -1.2990209157148809e-06 0.0000000000000000e+00  -2.7465097490237313e-07 -1.1689548664593260e-06 0.0000000000000000e+00  -2.0429541336353276e-07 -1.0404220995567506e-06 0.0000000000000000e+00  -1.4141753686972564e-07 -9.1542703051783969e-07 0.0000000000000000e+00  -8.1886118548170885e-08 -7.9347866515375947e-07 0.0000000000000000e+00  -3.0146094181405566e-08 -6.7290746247374046e-07 0.0000000000000000e+00  1.6096799019914675e-08 -5.5930074029736830e-07 0.0000000000000000e+00  5.5810946664290048e-08 -4.4515476941423154e-07 0.0000000000000000e+00  8.9816554626083423e-08 -3.3886555419391409e-07 0.0000000000000000e+00  1.1747535322819128e-07 -2.3239451198230952e-07 0.0000000000000000e+00  1.3915997091137339e-07 -1.3331658908095901e-07 0.0000000000000000e+00  1.5568450953085887e-07 -3.6492310749434059e-08 0.0000000000000000e+00  1.6523497744898660e-07 5.4234920569271173e-08 0.0000000000000000e+00  1.7189485535936005e-07 1.4091955719529822e-07 0.0000000000000000e+00  1.7102569924147833e-07 2.2324307580370331e-07 0.0000000000000000e+00  1.6494007068722926e-07 2.9700980274770595e-07 0.0000000000000000e+00  1.5272635954425582e-07 3.6848457125121969e-07 0.0000000000000000e+00  1.3534923236237501e-07 4.3138336463363476e-07 0.0000000000000000e+00  1.1279555317251229e-07 4.8983832574742659e-07 0.0000000000000000e+00  8.3839405029205273e-08 5.4055928648822870e-07 0.0000000000000000e+00  5.3090719121233108e-08 5.8524020609363343e-07 0.0000000000000000e+00  1.4744923571268117e-08 6.2822986908490913e-07 0.0000000000000000e+00  -1.8228219842817516e-08 6.6178085867756757e-07 0.0000000000000000e+00  -4.0089370430411839e-08 6.6794940615777202e-07 0.0000000000000000e+00  -3.0574233674687634e-08 6.2861994100223174e-07 0.0000000000000000e+00  -1.4465986739972853e-07 -1.2157397142328844e-08 0.0000000000000000e+00  -3.1027540449080252e-06 -4.7411531215911453e-06 0.0000000000000000e+00  -2.7052027953605248e-06 -4.4517783748207224e-06 0.0000000000000000e+00  -2.1260159415915248e-06 -3.9774227712146127e-06 0.0000000000000000e+00  2.4174215536274566e-08 -4.2069848115068681e-08 0.0000000000000000e+00  -1.7967900701684042e-06 -3.6806136311285944e-06 0.0000000000000000e+00  1.1340948864430974e-07 -9.2704125183116384e-08 0.0000000000000000e+00  -1.4845432339024407e-06 -3.3873250612752132e-06 0.0000000000000000e+00  2.1639036470774226e-07 -2.4222192755159448e-07 0.0000000000000000e+00  2.5443874669749521e-07 -3.7435081135727214e-07 0.0000000000000000e+00  -1.1983435379066826e-06 -3.0993700785077086e-06 0.0000000000000000e+00  2.4600265866037194e-07 -7.7636542010818593e-07 0.0000000000000000e+00  -7.0337424231069673e-07 -2.5416225303462757e-06 0.0000000000000000e+00  2.6906863627954135e-07 -5.0722073434872572e-07 0.0000000000000000e+00  2.0235621277156950e-07 -9.7429438349708424e-07 0.0000000000000000e+00  -4.9431350047172983e-07 -2.2732850228830827e-06 0.0000000000000000e+00  -9.3799202394043435e-07 -2.8172225153958083e-06 0.0000000000000000e+00  1.3243321034629584e-07 -1.1830758837319248e-06 0.0000000000000000e+00  -3.1075855045873504e-07 -2.0132015474281068e-06 0.0000000000000000e+00  4.0390759141364128e-08 -1.3890134377176414e-06 0.0000000000000000e+00  -1.5282149115155995e-07 -1.7740490310367146e-06 0.0000000000000000e+00  -4.7029395042356399e-08 -1.5713700030612221e-06 0.0000000000000000e+00  2.6495117473558683e-07 -6.4034522235196375e-07 0.0000000000000000e+00  -2.4250155588763428e-06 -4.2163911816091387e-06 0.0000000000000000e+00  1.6799540801073253e-07 -1.6647848408687204e-07 0.0000000000000000e+00  -2.9701255368510716e-06 -4.4685378826015048e-06 0.0000000000000000e+00  -5.2517163770661243e-08 2.3853100482671024e-07 0.0000000000000000e+00  -1.6944370154837428e-06 -3.4097675129157788e-06 0.0000000000000000e+00  -2.0205379091128656e-06 -3.7100320452508833e-06 0.0000000000000000e+00  8.7323960468603027e-08 -3.1171245865673620e-07 0.0000000000000000e+00  2.6234025214694340e-07 -4.9686894566101928e-07 0.0000000000000000e+00  -8.7109301445433871e-07 -2.5408459842758704e-06 0.0000000000000000e+00  -1.3942375145098144e-06 -3.1143297711200573e-06 0.0000000000000000e+00  2.6571229913027429e-07 -1.0481081846685104e-06 0.0000000000000000e+00  -6.4782418046938300e-07 -2.2640938993875596e-06 0.0000000000000000e+00  2.9361318726801410e-07 -6.2971401913533311e-07 0.0000000000000000e+00  2.1075580823850598e-07 -1.2452603288025945e-06 0.0000000000000000e+00  -4.4995256760927019e-07 -1.9951433923159188e-06 0.0000000000000000e+00  -1.1198721251818775e-06 -2.8244778085694287e-06 0.0000000000000000e+00  1.4131827945799784e-07 -1.4915151539201584e-06 0.0000000000000000e+00  -2.7718867650768902e-07 -1.7349905599350668e-06 0.0000000000000000e+00  -1.4342449576559324e-07 -1.5557150604186309e-07 0.0000000000000000e+00  -1.4374590623724628e-07 1.3691526447168375e-07 0.0000000000000000e+00  -3.2255887831833337e-06 -4.9444875906052160e-06 0.0000000000000000e+00  -3.248