<?xml version="1.0"?>
<VTKFile type="UnstructuredGrid"  version="0.1"  >
<UnstructuredGrid>
<Piece  NumberOfPoints="1419" NumberOfCells="2698">
<Points>
<DataArray  type="Float64"  NumberOfComponents="3"  format="ascii">0 0 0  0 0.41 0  2.5 0 0  2.5 0.41 0  0.6 0.19 0  0.6 0.21 0  0.25 0.2 0  0.15 0.2 0  0.2489897948556636 0.21 0  0.2489897948556636 0.19 0  0.6 0.2 0  0 0.3807142857143437 0  0 0.3514285714286952 0  0 0.3221428571430699 0  0 0.29285714285744 0  0 0.2635714285718054 0  0 0.2342857142861561 0  0 0.2050000000005308 0  0 0.175714285714732 0  0 0.1464285714289574 0  0 0.1171428571431897 0  0 0.08785714285737878 0  0 0.05857142857161107 0  0 0.02928571428580012 0  0.03015443760436003 0 0  0.06140001986583606 0 0  0.09377624077125973 0 0  0.1273239957535082 0 0  0.1620856860351972 0 0  0.1981052433264291 0 0  0.235428184091502 0 0  0.2741016576309132 0 0  0.3141745521465447 0 0  0.3556974926295285 0 0  0.3987229542472677 0 0  0.4433053055141081 0 0  0.4895008759286886 0 0  0.5373680609405097 0 0  0.5869673343216626 0 0  0.6383613676634521 0 0  0.6916151138468254 0 0  0.7467958595648856 0 0  0.8039733463919316 0 0  0.8632198139502143 0 0  0.9246101326867038 0 0  0.9882218810934433 0 0  1.054135445558498 0 0  1.122434100542598 0 0  1.193204177141305 0 0  1.266535089879536 0 0  1.342519516046404 0 0  1.421253448503939 0 0  1.502836389106271 0 0  1.587371439758838 0 0  1.674965418777374 0 0  1.765729001825544 0 0  1.859776908880082 0 0  1.957227977487062 0 0  2.058205329869943 0 0  2.162836591189951 0 0  2.271253957290865 0 0  2.383594446803425 0 0  2.5 0.1024999999997612 0  2.5 0.2049999999994743 0  2.5 0.3074999999997183 0  2.383594446803656 0.41 0  2.271253957291315 0.41 0  2.162836591190598 0.41 0  2.058205329870775 0.41 0  1.957227977488067 0.41 0  1.859776908881246 0.41 0  1.765729001826854 0.41 0  1.674965418778818 0.41 0  1.58737143976041 0.41 0  1.502836389107956 0.41 0  1.421253448505726 0.41 0  1.342519516048286 0.41 0  1.266535089881505 0.41 0  1.193204177143353 0.41 0  1.122434100544716 0.41 0  1.05413544556068 0.41 0  0.9882218810956305 0.41 0  0.9246101326886647 0.41 0  0.8632198139519631 0.41 0  0.8039733463934788 0.41 0  0.7467958595662458 0.41 0  0.6916151138480078 0.41 0  0.6383613676644679 0.41 0  0.5869673343225223 0.41 0  0.5373680609412221 0.41 0  0.4895008759292634 0.41 0  0.4433053055145528 0.41 0  0.3987229542475914 0.41 0  0.3556974926297398 0.41 0  0.3141745521466497 0.41 0  0.2741016576310038 0.41 0  0.2354281840915826 0.41 0  0.1981052433265003 0.41 0  0.1620856860352591 0.41 0  0.1273239957535623 0.41 0  0.09377624077128965 0.41 0  0.06140001986584975 0.41 0  0.03015443760436654 0.41 0  0.2497468076502589 0.2050254481002335 0  0.2497468076502614 0.1949745518997913 0  0.2469965252529372 0.1829317073451959 0  0.2439893735792749 0.1762316384219906 0  0.2400332147834255 0.1700443375285386 0  0.2352133972704371 0.1645032867342007 0  0.2296339016332438 0.1597280261969788 0  0.2234150974217223 0.1558215752574715 0  0.2166911463437691 0.1528682099456123 0  0.2096071079204251 0.1509316448471593 0  0.2023158100364996 0.1500536585536553 0  0.194974551899914 0.1502531923497262 0  0.1877417105387872 0.1515259415822739 0  0.1807733240461124 0.153844448527136 0  0.1742197252835808 0.15715869474974 0  0.1682222986673531 0.1613971801805478 0  0.162910430003803 0.1664684656256651 0  0.1583987151779087 0.1722631454351573 0  0.1547844879126891 0.178656207771761 0  0.1521457199348551 0.1855097315605723 0  0.1505393388476355 0.1926758619366523 0  0.1505393388476328 0.2073241380633295 0  0.1521457199348437 0.2144902684393899 0  0.1547844879126531 0.221343792228163 0  0.1583987151778488 0.2277368545647528 0  0.1629104300036858 0.2335315343742052 0  0.1682222986671726 0.2386028198193036 0  0.1742197252833576 0.2428413052501257 0  0.1807733240458683 0.2461555514727623 0  0.1877417105384929 0.2484740584176516 0  0.1949745518995776 0.2497468076502398 0  0.202315810036185 0.2499463414463592 0  0.2096071079201568 0.2490683551528932 0  0.2166911463435495 0.2471317900544655 0  0.2234150974215506 0.2441784247426195 0  0.2296339016331197 0.2402719738031125 0  0.2352133972703547 0.2354967132658811 0  0.2400332147833751 0.2299556624715287 0  0.2439893735792577 0.2237683615780412 0  0.246996525252926 0.2170682926548348 0  0.25645809709277 0.21 0  0.2639263993298655 0.21 0  0.271394701566961 0.21 0  0.2788630038040554 0.21 0  0.2863313060411479 0.21 0  0.2937996082782405 0.21 0  0.301267910515333 0.21 0  0.3087362127524279 0.21 0  0.3162045149895234 0.21 0  0.3236728172265972 0.21 0  0.3311411194636928 0.21 0  0.3386094217007701 0.21 0  0.3460777239378666 0.21 0  0.3535460261749672 0.21 0  0.3610143284120516 0.21 0  0.3684826306491596 0.21 0  0.3759509328862226 0.21 0  0.383419235123329 0.21 0  0.3908875373604028 0.21 0  0.3983558395975142 0.21 0  0.4058241418345938 0.21 0  0.4132924440716992 0.21 0  0.4207607463087888 0.21 0  0.4282290485459029 0.21 0  0.4356973507830418 0.21 0  0.4431656530201649 0.21 0  0.4506339552573136 0.21 0  0.4581022574944306 0.21 0  0.4655705597315852 0.21 0  0.4730388619686996 0.21 0  0.480507164205851 0.21 0  0.4879754664429498 0.21 0  0.4954437686800938 0.21 0  0.502912070917267 0.21 0  0.5103803731544119 0.21 0  0.5178486753915261 0.21 0  0.5253169776286404 0.21 0  0.5327852798657868 0.21 0  0.5402535821029386 0.21 0  0.54772188434007 0.21 0  0.5551901865771842 0.21 0  0.5626584888143201 0.21 0  0.5701267910514778 0.21 0  0.5775950932886138 0.21 0  0.5850633955257281 0.21 0  0.5925316977628483 0.21 0  0.6 0.2050000000000054 0  0.6 0.1950000000000217 0  0.5925316977628897 0.19 0  0.5850633955257988 0.19 0  0.5775950932887378 0.19 0  0.5701267910515998 0.19 0  0.5626584888145268 0.19 0  0.5551901865773963 0.19 0  0.547721884340339 0.19 0  0.5402535821032429 0.19 0  0.5327852798661811 0.19 0  0.5253169776290537 0.19 0  0.5178486753919799 0.19 0  0.5103803731549078 0.19 0  0.502912070917822 0.19 0  0.4954437686807294 0.19 0  0.4879754664436223 0.19 0  0.4805071642065402 0.19 0  0.4730388619694271 0.19 0  0.4655705597323621 0.19 0  0.4581022574952563 0.19 0  0.4506339552581777 0.19 0  0.4431656530210671 0.19 0  0.4356973507839815 0.19 0  0.4282290485468779 0.19 0  0.4207607463097617 0.19 0  0.4132924440726327 0.19 0  0.4058241418354857 0.19 0  0.3983558395983636 0.19 0  0.3908875373612097 0.19 0  0.3834192351240934 0.19 0  0.3759509328869369 0.19 0  0.3684826306498175 0.19 0  0.361014328412667 0.19 0  0.3535460261755617 0.19 0  0.3460777239384295 0.19 0  0.3386094217012945 0.19 0  0.3311411194641595 0.19 0  0.3236728172270245 0.19 0  0.3162045149898895 0.19 0  0.3087362127527544 0.19 0  0.3012679105156187 0.19 0  0.2937996082784807 0.19 0  0.2863313060413428 0.19 0  0.2788630038042048 0.19 0  0.2713947015670686 0.19 0  0.2639263993299336 0.19 0  0.2564580970927985 0.19 0  0.2607803159922026 0.2000727136295815 0  0.5887803774232762 0.2001272386983733 0  0.5745072403740523 0.2002044435018727 0  0.5511891430099709 0.2001122610077113 0  0.2751288526855082 0.20000000000002 0  0.5365194309847112 0.1999999999999436 0  0.2894621222999649 0.1998691686390484 0  0.5215828265105155 0.1999999999999228 0  0.3127789816668748 0.1998657885438805 0  0.3274069683451451 0.2000000000000796 0  0.5066462220363641 0.199999999999908 0  0.3650630746574081 0.199866017807523 0  0.476773013087985 0.1999999999998713 0  0.3417402379596385 0.1998691686391011 0  0.3796850840047755 0.200000000000134 0  0.4618364086138087 0.1999999999998546 0  0.4917096175621762 0.1999999999998808 0  0.3946216884789568 0.2000000000001512 0  0.446899804139621 0.1999999999998389 0  0.4089549580935208 0.1998691686391595 0  0.4322718174608562 0.200127451265745 0  0.4201487168029707 0.1999966199048527 0  0.3528922713220932 0.2000185703532356 0  0.5633122436674589 0.1999814296467508 0  0.3006558810093873 0.1999966199048318 0  0.5815926498168407 0.1966545283159175 0  0.2677053789419034 0.1964246479135325 0  0.5290511287476175 0.1970915826863981 0  0.5439877332217911 0.197091582686394 0  0.2825131256993216 0.2035478995978015 0  0.3199386661080599 0.202908417313604 0  0.4842413153250809 0.1970915826863873 0  0.5141145242734466 0.1970915826863843 0  0.3722167817676917 0.2029084173136195 0  0.4693047108508938 0.1970915826863783 0  0.3348752705822316 0.202908417313609 0  0.3871533862418661 0.2029084173136212 0  0.4543681063767183 0.1970915826863795 0  0.4991779197992749 0.1970915826863902 0  0.4020059614928624 0.203547899597858 0  0.4394315019025246 0.1970915826863714 0  0.2550657455369551 0.2034088125358657 0  0.2548908499171161 0.1966940311614271 0  0.5946539510196798 0.2024302972968126 0  0.267698176732111 0.2039977513680092 0  0.4261685417851465 0.196409292431739 0  0.3590076176283495 0.196411355804271 0  0.5571672426447437 0.2036011176410121 0  0.3066757059912147 0.1964092924317024 0  0.594380730180568 0.1966558399668133 0  0.4842413153245942 0.2040749161535287 0  0.4693047108503577 0.2040749161535231 0  0.3871533862424271 0.1959250838464788 0  0.372246743208829 0.1959123236376545 0  0.5141145242731028 0.2040749161535395 0  0.4543681063761134 0.2040749161535186 0  0.4019979587101454 0.1959834479682427 0  0.4394608940728603 0.2040870543693135 0  0.5439623148931173 0.2040856076781014 0  0.5290511287473298 0.2040749161535501 0  0.4991779197988497 0.2040749161535382 0  0.3347912413592433 0.1959225448935183 0  0.3199680582793816 0.1959123018030061 0  0.2825051229162361 0.1959834479681729 0  0.3590471196690275 0.2036304442587945 0  0.5571594006495384 0.1963685282145804 0  0.3067669986803285 0.203627750582736 0  0.4262598344738712 0.2036568242185335 0  0.5814408164431408 0.2041285596160068 0  0.5688286748170428 0.1961819304477386 0  0.4145905603063645 0.2038180695522843 0  0.3473758401724931 0.2038180695522752 0  0.2950977245128307 0.2038180695522663 0  0.5688286748170693 0.203818069552238 0  0.2950977245127906 0.1961819304477774 0  0.3473758401723931 0.1961819304478349 0  0.4145905603061963 0.1961819304479011 0  0.2601812407614425 0.2056861609747042
[...]
<PointData  Vectors="f_40-1"> 
<DataArray  type="Float64"  Name="f_40-1"  NumberOfComponents="3" format="ascii">0.0000000000000000e+00 0.0000000000000000e+00 0.0000000000000000e+00  0.0000000000000000e+00 0.0000000000000000e+00 0.0000000000000000e+00  0.0000000000000000e+00 0.0000000000000000e+00 0.0000000000000000e+00  0.0000000000000000e+00 0.0000000000000000e+00 0.0000000000000000e+00  -3.6114116198402031e-06 -5.9734792829720005e-06 0.0000000000000000e+00  -3.0860681866250006e-06 -6.7886860996799807e-06 0.0000000000000000e+00  0.0000000000000000e+00 0.0000000000000000e+00 0.0000000000000000e+00  0.0000000000000000e+00 0.0000000000000000e+00 0.0000000000000000e+00  0.0000000000000000e+00 0.0000000000000000e+00 0.0000000000000000e+00  0.0000000000000000e+00 0.0000000000000000e+00 0.0000000000000000e+00  -3.3969366821872035e-06 -6.3811105868136826e-06 0.0000000000000000e+00  0.0000000000000000e+00 0.0000000000000000e+00 0.0000000000000000e+00  0.0000000000000000e+00 0.0000000000000000e+00 0.0000000000000000e+00  0.0000000000000000e+00 0.0000000000000000e+00 0.0000000000000000e+00  0.0000000000000000e+00 0.0000000000000000e+00 0.0000000000000000e+00  0.0000000000000000e+00 0.0000000000000000e+00 0.0000000000000000e+00  0.0000000000000000e+00 0.0000000000000000e+00 0.0000000000000000e+00  0.0000000000000000e+00 0.0000000000000000e+00 0.0000000000000000e+00  0.0000000000000000e+00 0.0000000000000000e+00 0.0000000000000000e+00  0.0000000000000000e+00 0.0000000000000000e+00 0.0000000000000000e+00  0.0000000000000000e+00 0.0000000000000000e+00 0.0000000000000000e+00  0.0000000000000000e+00 0.0000000000000000e+00 0.0000000000000000e+00  0.0000000000000000e+00 0.0000000000000000e+00 0.0000000000000000e+00  0.0000000000000000e+00 0.0000000000000000e+00 0.0000000000000000e+00  0.0000000000000000e+00 0.0000000000000000e+00 0.0000000000000000e+00  0.0000000000000000e+00 0.0000000000000000e+00 0.0000000000000000e+00  0.0000000000000000e+00 0.0000000000000000e+00 0.0000000000000000e+00  0.0000000000000000e+00 0.0000000000000000e+00 0.0000000000000000e+00  0.0000000000000000e+00 0.0000000000000000e+00 0.0000000000000000e+00  0.0000000000000000e+00 0.0000000000000000e+00 0.0000000000000000e+00  0.0000000000000000e+00 0.0000000000000000e+00 0.0000000000000000e+00  0.0000000000000000e+00 0.0000000000000000e+00 0.0000000000000000e+00  0.0000000000000000e+00 0.0000000000000000e+00 0.0000000000000000e+00  0.0000000000000000e+00 0.0000000000000000e+00 0.0000000000000000e+00  0.0000000000000000e+00 0.0000000000000000e+00 0.0000000000000000e+00  0.0000000000000000e+00 0.0000000000000000e+00 0.0000000000000000e+00  0.0000000000000000e+00 0.0000000000000000e+00 0.0000000000000000e+00  0.0000000000000000e+00 0.0000000000000000e+00 0.0000000000000000e+00  0.0000000000000000e+00 0.0000000000000000e+00 0.0000000000000000e+00  0.0000000000000000e+00 0.0000000000000000e+00 0.0000000000000000e+00  0.0000000000000000e+00 0.0000000000000000e+00 0.0000000000000000e+00  0.0000000000000000e+00 0.0000000000000000e+00 0.0000000000000000e+00  0.0000000000000000e+00 0.0000000000000000e+00 0.0000000000000000e+00  0.0000000000000000e+00 0.0000000000000000e+00 0.0000000000000000e+00  0.0000000000000000e+00 0.0000000000000000e+00 0.0000000000000000e+00  0.0000000000000000e+00 0.0000000000000000e+00 0.0000000000000000e+00  0.0000000000000000e+00 0.0000000000000000e+00 0.0000000000000000e+00  0.0000000000000000e+00 0.0000000000000000e+00 0.0000000000000000e+00  0.0000000000000000e+00 0.0000000000000000e+00 0.0000000000000000e+00  0.0000000000000000e+00 0.0000000000000000e+00 0.0000000000000000e+00  0.0000000000000000e+00 0.0000000000000000e+00 0.0000000000000000e+00  0.0000000000000000e+00 0.0000000000000000e+00 0.0000000000000000e+00  0.0000000000000000e+00 0.0000000000000000e+00 0.0000000000000000e+00  0.0000000000000000e+00 0.0000000000000000e+00 0.0000000000000000e+00  0.0000000000000000e+00 0.0000000000000000e+00 0.0000000000000000e+00  0.0000000000000000e+00 0.0000000000000000e+00 0.0000000000000000e+00  0.0000000000000000e+00 0.0000000000000000e+00 0.0000000000000000e+00  0.0000000000000000e+00 0.0000000000000000e+00 0.0000000000000000e+00  0.0000000000000000e+00 0.0000000000000000e+00 0.0000000000000000e+00  0.0000000000000000e+00 0.0000000000000000e+00 0.0000000000000000e+00  0.0000000000000000e+00 0.0000000000000000e+00 0.0000000000000000e+00  0.0000000000000000e+00 0.0000000000000000e+00 0.0000000000000000e+00  0.0000000000000000e+00 0.0000000000000000e+00 0.0000000000000000e+00  0.0000000000000000e+00 0.0000000000000000e+00 0.0000000000000000e+00  0.0000000000000000e+00 0.0000000000000000e+00 0.0000000000000000e+00  0.0000000000000000e+00 0.0000000000000000e+00 0.0000000000000000e+00  0.0000000000000000e+00 0.0000000000000000e+00 0.0000000000000000e+00  0.0000000000000000e+00 0.0000000000000000e+00 0.0000000000000000e+00  0.0000000000000000e+00 0.0000000000000000e+00 0.0000000000000000e+00  0.0000000000000000e+00 0.0000000000000000e+00 0.0000000000000000e+00  0.0000000000000000e+00 0.0000000000000000e+00 0.0000000000000000e+00  0.0000000000000000e+00 0.0000000000000000e+00 0.0000000000000000e+00  0.0000000000000000e+00 0.0000000000000000e+00 0.0000000000000000e+00  0.0000000000000000e+00 0.0000000000000000e+00 0.0000000000000000e+00  0.0000000000000000e+00 0.0000000000000000e+00 0.0000000000000000e+00  0.0000000000000000e+00 0.0000000000000000e+00 0.0000000000000000e+00  0.0000000000000000e+00 0.0000000000000000e+00 0.0000000000000000e+00  0.0000000000000000e+00 0.0000000000000000e+00 0.0000000000000000e+00  0.0000000000000000e+00 0.0000000000000000e+00 0.0000000000000000e+00  0.0000000000000000e+00 0.0000000000000000e+00 0.0000000000000000e+00  0.0000000000000000e+00 0.0000000000000000e+00 0.0000000000000000e+00  0.0000000000000000e+00 0.0000000000000000e+00 0.0000000000000000e+00  0.0000000000000000e+00 0.0000000000000000e+00 0.0000000000000000e+00  0.0000000000000000e+00 0.0000000000000000e+00 0.0000000000000000e+00  0.0000000000000000e+00 0.0000000000000000e+00 0.0000000000000000e+00  0.0000000000000000e+00 0.0000000000000000e+00 0.0000000000000000e+00  0.0000000000000000e+00 0.0000000000000000e+00 0.0000000000000000e+00  0.0000000000000000e+00 0.0000000000000000e+00 0.0000000000000000e+00  0.0000000000000000e+00 0.0000000000000000e+00 0.0000000000000000e+00  0.0000000000000000e+00 0.0000000000000000e+00 0.0000000000000000e+00  0.0000000000000000e+00 0.0000000000000000e+00 0.0000000000000000e+00  0.0000000000000000e+00 0.0000000000000000e+00 0.0000000000000000e+00  0.0000000000000000e+00 0.0000000000000000e+00 0.0000000000000000e+00  0.0000000000000000e+00 0.0000000000000000e+00 0.0000000000000000e+00  0.0000000000000000e+00 0.0000000000000000e+00 0.0000000000000000e+00  0.0000000000000000e+00 0.0000000000000000e+00 0.0000000000000000e+00  0.0000000000000000e+00 0.0000000000000000e+00 0.0000000000000000e+00  0.0000000000000000e+00 0.0000000000000000e+00 0.0000000000000000e+00  0.0000000000000000e+00 0.0000000000000000e+00 0.0000000000000000e+00  0.0000000000000000e+00 0.0000000000000000e+00 0.0000000000000000e+00  0.0000000000000000e+00 0.0000000000000000e+00 0.0000000000000000e+00  0.0000000000000000e+00 0.0000000000000000e+00 0.0000000000000000e+00  0.0000000000000000e+00 0.0000000000000000e+00 0.0000000000000000e+00  0.0000000000000000e+00 0.0000000000000000e+00 0.0000000000000000e+00  0.0000000000000000e+00 0.0000000000000000e+00 0.0000000000000000e+00  0.0000000000000000e+00 0.0000000000000000e+00 0.0000000000000000e+00  0.0000000000000000e+00 0.0000000000000000e+00 0.0000000000000000e+00  0.0000000000000000e+00 0.0000000000000000e+00 0.0000000000000000e+00  0.0000000000000000e+00 0.0000000000000000e+00 0.0000000000000000e+00  0.0000000000000000e+00 0.0000000000000000e+00 0.0000000000000000e+00  0.0000000000000000e+00 0.0000000000000000e+00 0.0000000000000000e+00  0.0000000000000000e+00 0.0000000000000000e+00 0.0000000000000000e+00  0.0000000000000000e+00 0.0000000000000000e+00 0.0000000000000000e+00  0.0000000000000000e+00 0.0000000000000000e+00 0.0000000000000000e+00  0.0000000000000000e+00 0.0000000000000000e+00 0.0000000000000000e+00  0.0000000000000000e+00 0.0000000000000000e+00 0.0000000000000000e+00  0.0000000000000000e+00 0.0000000000000000e+00 0.0000000000000000e+00  0.0000000000000000e+00 0.0000000000000000e+00 0.0000000000000000e+00  0.0000000000000000e+00 0.0000000000000000e+00 0.0000000000000000e+00  0.0000000000000000e+00 0.0000000000000000e+00 0.0000000000000000e+00  0.0000000000000000e+00 0.0000000000000000e+00 0.0000000000000000e+00  0.0000000000000000e+00 0.0000000000000000e+00 0.0000000000000000e+00  0.0000000000000000e+00 0.0000000000000000e+00 0.0000000000000000e+00  0.0000000000000000e+00 0.0000000000000000e+00 0.0000000000000000e+00  0.0000000000000000e+00 0.0000000000000000e+00 0.0000000000000000e+00  0.0000000000000000e+00 0.0000000000000000e+00 0.0000000000000000e+00  0.0000000000000000e+00 0.0000000000000000e+00 0.0000000000000000e+00  0.0000000000000000e+00 0.0000000000000000e+00 0.0000000000000000e+00  0.0000000000000000e+00 0.0000000000000000e+00 0.0000000000000000e+00  0.0000000000000000e+00 0.0000000000000000e+00 0.0000000000000000e+00  0.0000000000000000e+00 0.0000000000000000e+00 0.0000000000000000e+00  0.0000000000000000e+00 0.0000000000000000e+00 0.0000000000000000e+00  0.0000000000000000e+00 0.0000000000000000e+00 0.0000000000000000e+00  0.0000000000000000e+00 0.0000000000000000e+00 0.0000000000000000e+00  0.0000000000000000e+00 0.0000000000000000e+00 0.0000000000000000e+00  0.0000000000000000e+00 0.0000000000000000e+00 0.0000000000000000e+00  0.0000000000000000e+00 0.0000000000000000e+00 0.0000000000000000e+00  0.0000000000000000e+00 0.0000000000000000e+00 0.0000000000000000e+00  0.0000000000000000e+00 0.0000000000000000e+00 0.0000000000000000e+00  0.0000000000000000e+00 0.0000000000000000e+00 0.0000000000000000e+00  0.0000000000000000e+00 0.0000000000000000e+00 0.0000000000000000e+00  0.0000000000000000e+00 0.0000000000000000e+00 0.0000000000000000e+00  0.0000000000000000e+00 0.0000000000000000e+00 0.0000000000000000e+00  1.2957797511139303e-11 -7.1512421507692076e-07 0.0000000000000000e+00  2.1736472760822879e-08 -7.8124562568890730e-07 0.0000000000000000e+00  7.7410709854455306e-08 -8.1574767661772802e-07 0.0000000000000000e+00  1.4984534624919856e-07 -8.3736909497156631e-07 0.0000000000000000e+00  2.2364190149061315e-07 -8.6636874947303975e-07 0.0000000000000000e+00  2.9198737572175753e-07 -9.1093415513610989e-07 0.0000000000000000e+00  3.5344303697649412e-07 -9.6170730429854128e-07 0.0000000000000000e+00  4.0715817377569889e-07 -1.0214177912918449e-06 0.0000000000000000e+00  4.5776122301703942e-07 -1.0889877174544182e-06 0.0000000000000000e+00  4.9812920690982202e-07 -1.1615573577300956e-06 0.0000000000000000e+00  5.3420570372308285e-07 -1.2450666737124314e-06 0.0000000000000000e+00  5.6068632208777688e-07 -1.3315190058166529e-06 0.0000000000000000e+00  5.8117868646441061e-07 -1.4266522845582523e-06 0.0000000000000000e+00  5.9426327236280109e-07 -1.5271646285572191e-06 0.0000000000000000e+00  5.9884062185379180e-07 -1.6335080470017866e-06 0.0000000000000000e+00  5.9926184306037957e-07 -1.7464954577228201e-06 0.0000000000000000e+00  5.8963498809787879e-07 -1.8613961670527010e-06 0.0000000000000000e+00  5.7436102921351672e-07 -1.9858551644032846e-06 0.0000000000000000e+00  5.5006207701323373e-07 -2.1100907155020710e-06 0.0000000000000000e+00  5.2000415600797284e-07 -2.2434167865507566e-06 0.0000000000000000e+00  4.8130469492567269e-07 -2.3764703830227020e-06 0.0000000000000000e+00  4.3504077444199551e-07 -2.5161530065556864e-06 0.0000000000000000e+00  3.8242990314160870e-07 -2.6587920170985739e-06 0.0000000000000000e+00  3.2125640161748265e-07 -2.8045154932317565e-06 0.0000000000000000e+00  2.5533866812480495e-07 -2.9548709716630249e-06 0.0000000000000000e+00  1.8012451191766256e-07 -3.1050679234346752e-06 0.0000000000000000e+00  9.7626891223399692e-08 -3.2630426349186917e-06 0.0000000000000000e+00  7.5580605946261666e-09 -3.4186824344428864e-06 0.0000000000000000e+00  -8.9746832181972868e-08 -3.5814836326985272e-06 0.0000000000000000e+00  -1.9449263263386788e-07 -3.7422370319919011e-06 0.0000000000000000e+00  -3.0643043542200273e-07 -3.9095903946064530e-06 0.0000000000000000e+00  -4.2598779953522956e-07 -4.0745660572802272e-06 0.0000000000000000e+00  -5.5247690359368536e-07 -4.2460974870406057e-06 0.0000000000000000e+00  -6.8677636472377034e-07 -4.4144580387232182e-06 0.0000000000000000e+00  -8.2858359621304424e-07 -4.5895890139487480e-06 0.0000000000000000e+00  -9.7776471520868223e-07 -4.7616193646227164e-06 0.0000000000000000e+00  -1.1340893531600580e-06 -4.9397937471984352e-06 0.0000000000000000e+00  -1.2979311879405306e-06 -5.1148702626958671e-06 0.0000000000000000e+00  -1.4693005781648108e-06 -5.2958189176927392e-06 0.0000000000000000e+00  -1.6485971048669999e-06 -5.4734585483575870e-06 0.0000000000000000e+00  -1.8364514007412051e-06 -5.6550751319120232e-06 0.0000000000000000e+00  -2.0302279272429805e-06 -5.8359373594730069e-06 0.0000000000000000e+00  -2.2331626000397635e-06 -6.0183187843830740e-06 0.0000000000000000e+00  -2.4404905735235390e-06 -6.2011023464627659e-06 0.0000000000000000e+00  -2.6567291447713096e-06 -6.3818588458772724e-06 0.0000000000000000e+00  -2.8753221976150710e-06 -6.5695479089561165e-06 0.0000000000000000e+00  -3.2590255879942915e-06 -6.5847542851518443e-06 0.0000000000000000e+00  -3.5193864191707213e-06 -6.1780118408384836e-06 0.0000000000000000e+00  -3.3985369747562770e-06 -5.8017656335937873e-06 0.0000000000000000e+00  -3.1766325793571166e-06 -5.5988518588335824e-06 0.0000000000000000e+00  -2.9580079882428143e-06 -5.3926031072526523e-06 0.0000000000000000e+00  -2.7477092306008290e-06 -5.1900330172411470e-06 0.0000000000000000e+00  -2.5422911504937292e-06 -4.9882709331891396e-06 0.0000000000000000e+00  -2.3461753279396006e-06 -4.7876169104655609e-06 0.0000000000000000e+00  -2.1554886943314993e-06 -4.5890878008689953e-06 0.0000000000000000e+00  -1.9735098754625458e-06 -4.3890776840564132e-06 0.0000000000000000e+00  -1.7983437599790691e-06 -4.1944152764463262e-06 0.0000000000000000e+00  -1.6308641809921096e-06 -3.9965506780034102e-06 0.0000000000000000e+00  -1.4701076050665805e-06 -3.8046893330190946e-06 0.0000000000000000e+00  -1.3171156189952573e-06 -3.6099333269294039e-06 0.0000000000000000e+00  -1.1707183486501454e-06 -3.4213501799675604e-06 0.0000000000000000e+00  -1.0319611962672671e-06 -3.2301139652175646e-06 0.0000000000000000e+00  -8.9959428382691078e-07 -3.0451779498262205e-06 0.0000000000000000e+00  -7.7497428817844136e-07 -2.8577697459672890e-06 0.0000000000000000e+00  -6.5672955917369011e-07 -2.6768758777191536e-06 0.0000000000000000e+00  -5.4628083259700766e-07 -2.4938044184412337e-06 0.0000000000000000e+00  -4.4197500538801227e-07 -2.3176334441603258e-06 0.0000000000000000e+00  -3.4544500687252552e-07 -2.1396859152566470e-06 0.0000000000000000e+00  -2.5488740245971234e-07 -1.9688126239107106e-06 0.0000000000000000e+00  -1.7221021882308060e-07 -1.7967088825131255e-06 0.0000000000000000e+00  -9.6383800721990040e-08 -1.6304504482913873e-06 0.0000000000000000e+00  -2.6707802899515611e-08 -1.4661540650677550e-06 0.0000000000000000e+00  3.4624515763090290e-08 -1.3062048609351044e-06 0.0000000000000000e+00  9.2296166413143749e-08 -1.1499465630090694e-06 0.0000000000000000e+00  1.4117763784984738e-07 -9.9564908436186900e-07 0.0000000000000000e+00  1.8396399595750280e-07 -8.4958381508011104e-07 0.0000000000000000e+00  2.1940694611524290e-07 -7.0337833280315852e-07 0.0000000000000000e+00  2.4852832598698722e-07 -5.6648580709982735e-07 0.0000000000000000e+00  2.7050551292098038e-07 -4.2990581121555449e-07 0.0000000000000000e+00  2.8593101853469765e-07 -3.0228676762097871e-07 0.0000000000000000e+00  2.9544683539956600e-07 -1.7772742410010068e-07 0.0000000000000000e+00  2.9720439446130536e-07 -6.0822042247719120e-08 0.0000000000000000e+00  2.9592793869634839e-07 5.0953582884436069e-08 0.0000000000000000e+00  2.8613373422055857e-07 1.5696012036062024e-07 0.0000000000000000e+00  2.7062076798429130e-07 2.5251802100981924e-07 0.0000000000000000e+00  2.4819152847174424e-07 3.4461738812019427e-07 0.0000000000000000e+00  2.2021404294767736e-07 4.2599907438181721e-07 0.0000000000000000e+00  1.8624106574303348e-07 5.0152694561721862e-07 0.0000000000000000e+00  1.4516157694872286e-07 5.6707524085935358e-07 0.0000000000000000e+00  1.0240599109186516e-07 6.2490226028239272e-07 0.0000000000000000e+00  5.1024342350144399e-08 6.7938639507277738e-07 0.0000000000000000e+00  5.8166989592160676e-09 7.2193434688723037e-07 0.0000000000000000e+00  -2.7363649165373459e-08 7.3280736482801592e-07 0.0000000000000000e+00  -2.5422895485713764e-08 6.9184626512392970e-07 0.0000000000000000e+00  -1.4320704254086745e-07 -1.5113537166340863e-08 0.0000000000000000e+00  -3.0414541047469640e-06 -6.0914555886873506e-06 0.0000000000000000e+00  -2.6123250344025489e-06 -5.7245225894004192e-06 0.0000000000000000e+00  -1.9913866695915402e-06 -5.1236103912312159e-06 0.0000000000000000e+00  6.4062856523345358e-08 -5.6096146108884426e-08 0.0000000000000000e+00  -1.6405009499311128e-06 -4.7474861192495562e-06 0.0000000000000000e+00  1.8319900357716569e-07 -1.2535289704232223e-07 0.0000000000000000e+00  -1.3087551242979931e-06 -4.3744790630655258e-06 0.0000000000000000e+00  3.2982590949179481e-07 -3.2235338461322990e-07 0.0000000000000000e+00  3.9216469587877050e-07 -4.9387411567310020e-07 0.0000000000000000e+00  -1.0063333795067284e-06 -4.0075859833026763e-06 0.0000000000000000e+00  4.3214628700493655e-07 -1.0200338118428475e-06 0.0000000000000000e+00  -4.8865229422745909e-07 -3.2949157284521918e-06 0.0000000000000000e+00  4.2733770301368889e-07 -6.6938012469754836e-07 0.0000000000000000e+00  4.0261608254280276e-07 -1.2755748872897678e-06 0.0000000000000000e+00  -2.7306000814652671e-07 -2.9510213119350576e-06 0.0000000000000000e+00  -7.3300960871403769e-07 -3.6474184142234957e-06 0.0000000000000000e+00  3.4364311364485914e-07 -1.5462343925079796e-06 0.0000000000000000e+00  -8.6177205122342865e-08 -2.6170294087857281e-06 0.0000000000000000e+00  2.5865034544491230e-07 -1.8140465560689197e-06 0.0000000000000000e+00  7.2628962862578440e-08 -2.3080632054226735e-06 0.0000000000000000e+00  1.7532069820416610e-07 -2.0480800638951276e-06 0.0000000000000000e+00  4.3768999195497138e-07 -8.4110262851120893e-07 0.0000000000000000e+00  -2.3123725844850303e-06 -5.4276329619759107e-06 0.0000000000000000e+00  2.5950041134821733e-07 -2.2083117425266434e-07 0.0000000000000000e+00  -2.9114632372675984e-06 -5.7682092089013841e-06 0.0000000000000000e+00  -3.3282083774432506e-08 2.5809330532848375e-07 0.0000000000000000e+00  -1.5434775120083438e-06 -4.4249100504953800e-06 0.0000000000000000e+00  -1.8908335714042800e-06 -4.8057586830086380e-06 0.0000000000000000e+00  1.4772613614377090e-07 -3.5994918229337895e-07 0.0000000000000000e+00  3.9572062969134914e-07 -6.1532610518888834e-07 0.0000000000000000e+00  -6.7577034670692984e-07 -3.3190213506033319e-06 0.0000000000000000e+00  -1.2252694136671452e-06 -4.0495783672328021e-06 0.0000000000000000e+00  4.7058794204103867e-07 -1.3374129342250810e-06 0.0000000000000000e+00  -4.4409723700568555e-07 -2.9654680730893094e-06 0.0000000000000000e+00  4.5130742478032345e-07 -7.9012771768065749e-07 0.0000000000000000e+00  4.2884885284220104e-07 -1.5940547623636449e-06 0.0000000000000000e+00  -2.4097537594281134e-07 -2.6212133372577915e-06 0.0000000000000000e+00  -9.3612844657513101e-07 -3.6806792950796013e-06 0.0000000000000000e+00  3.7224113064144140e-07 -1.9067146574669464e-06 0.0000000000000000e+00  -6.6079610223657390e-08 -2.2875761785785177e-06 0.0000000000000000e+00  -1.5003007621676551e-07 -1.7209317019072949e-07 0.0000000000000000e+00  -1.5131642591564360e-07 1.5083443170922809e-07 0.0000000000000000e+00  -3.1654466586507325e-06 -6.3344722007102804e-06 0.0000000000000000e+00  -7.19356450761860