<?xml version="1.0"?>
<VTKFile type="UnstructuredGrid"  version="0.1"  >
<UnstructuredGrid>
<Piece  NumberOfPoints="1419" NumberOfCells="2698">
<Points>
<DataArray  type="Float64"  NumberOfComponents="3"  format="ascii">0 0 0  0 0.41 0  2.5 0 0  2.5 0.41 0  0.6 0.19 0  0.6 0.21 0  0.25 0.2 0  0.15 0.2 0  0.2489897948556636 0.21 0  0.2489897948556636 0.19 0  0.6 0.2 0  0 0.3807142857143437 0  0 0.3514285714286952 0  0 0.3221428571430699 0  0 0.29285714285744 0  0 0.2635714285718054 0  0 0.2342857142861561 0  0 0.2050000000005308 0  0 0.175714285714732 0  0 0.1464285714289574 0  0 0.1171428571431897 0  0 0.08785714285737878 0  0 0.05857142857161107 0  0 0.02928571428580012 0  0.03015443760436003 0 0  0.06140001986583606 0 0  0.09377624077125973 0 0  0.1273239957535082 0 0  0.1620856860351972 0 0  0.1981052433264291 0 0  0.235428184091502 0 0  0.2741016576309132 0 0  0.3141745521465447 0 0  0.3556974926295285 0 0  0.3987229542472677 0 0  0.4433053055141081 0 0  0.4895008759286886 0 0  0.5373680609405097 0 0  0.5869673343216626 0 0  0.6383613676634521 0 0  0.6916151138468254 0 0  0.7467958595648856 0 0  0.8039733463919316 0 0  0.8632198139502143 0 0  0.9246101326867038 0 0  0.9882218810934433 0 0  1.054135445558498 0 0  1.122434100542598 0 0  1.193204177141305 0 0  1.266535089879536 0 0  1.342519516046404 0 0  1.421253448503939 0 0  1.502836389106271 0 0  1.587371439758838 0 0  1.674965418777374 0 0  1.765729001825544 0 0  1.859776908880082 0 0  1.957227977487062 0 0  2.058205329869943 0 0  2.162836591189951 0 0  2.271253957290865 0 0  2.383594446803425 0 0  2.5 0.1024999999997612 0  2.5 0.2049999999994743 0  2.5 0.3074999999997183 0  2.383594446803656 0.41 0  2.271253957291315 0.41 0  2.162836591190598 0.41 0  2.058205329870775 0.41 0  1.957227977488067 0.41 0  1.859776908881246 0.41 0  1.765729001826854 0.41 0  1.674965418778818 0.41 0  1.58737143976041 0.41 0  1.502836389107956 0.41 0  1.421253448505726 0.41 0  1.342519516048286 0.41 0  1.266535089881505 0.41 0  1.193204177143353 0.41 0  1.122434100544716 0.41 0  1.05413544556068 0.41 0  0.9882218810956305 0.41 0  0.9246101326886647 0.41 0  0.8632198139519631 0.41 0  0.8039733463934788 0.41 0  0.7467958595662458 0.41 0  0.6916151138480078 0.41 0  0.6383613676644679 0.41 0  0.5869673343225223 0.41 0  0.5373680609412221 0.41 0  0.4895008759292634 0.41 0  0.4433053055145528 0.41 0  0.3987229542475914 0.41 0  0.3556974926297398 0.41 0  0.3141745521466497 0.41 0  0.2741016576310038 0.41 0  0.2354281840915826 0.41 0  0.1981052433265003 0.41 0  0.1620856860352591 0.41 0  0.1273239957535623 0.41 0  0.09377624077128965 0.41 0  0.06140001986584975 0.41 0  0.03015443760436654 0.41 0  0.2497468076502589 0.2050254481002335 0  0.2497468076502614 0.1949745518997913 0  0.2469965252529372 0.1829317073451959 0  0.2439893735792749 0.1762316384219906 0  0.2400332147834255 0.1700443375285386 0  0.2352133972704371 0.1645032867342007 0  0.2296339016332438 0.1597280261969788 0  0.2234150974217223 0.1558215752574715 0  0.2166911463437691 0.1528682099456123 0  0.2096071079204251 0.1509316448471593 0  0.2023158100364996 0.1500536585536553 0  0.194974551899914 0.1502531923497262 0  0.1877417105387872 0.1515259415822739 0  0.1807733240461124 0.153844448527136 0  0.1742197252835808 0.15715869474974 0  0.1682222986673531 0.1613971801805478 0  0.162910430003803 0.1664684656256651 0  0.1583987151779087 0.1722631454351573 0  0.1547844879126891 0.178656207771761 0  0.1521457199348551 0.1855097315605723 0  0.1505393388476355 0.1926758619366523 0  0.1505393388476328 0.2073241380633295 0  0.1521457199348437 0.2144902684393899 0  0.1547844879126531 0.221343792228163 0  0.1583987151778488 0.2277368545647528 0  0.1629104300036858 0.2335315343742052 0  0.1682222986671726 0.2386028198193036 0  0.1742197252833576 0.2428413052501257 0  0.1807733240458683 0.2461555514727623 0  0.1877417105384929 0.2484740584176516 0  0.1949745518995776 0.2497468076502398 0  0.202315810036185 0.2499463414463592 0  0.2096071079201568 0.2490683551528932 0  0.2166911463435495 0.2471317900544655 0  0.2234150974215506 0.2441784247426195 0  0.2296339016331197 0.2402719738031125 0  0.2352133972703547 0.2354967132658811 0  0.2400332147833751 0.2299556624715287 0  0.2439893735792577 0.2237683615780412 0  0.246996525252926 0.2170682926548348 0  0.25645809709277 0.21 0  0.2639263993298655 0.21 0  0.271394701566961 0.21 0  0.2788630038040554 0.21 0  0.2863313060411479 0.21 0  0.2937996082782405 0.21 0  0.301267910515333 0.21 0  0.3087362127524279 0.21 0  0.3162045149895234 0.21 0  0.3236728172265972 0.21 0  0.3311411194636928 0.21 0  0.3386094217007701 0.21 0  0.3460777239378666 0.21 0  0.3535460261749672 0.21 0  0.3610143284120516 0.21 0  0.3684826306491596 0.21 0  0.3759509328862226 0.21 0  0.383419235123329 0.21 0  0.3908875373604028 0.21 0  0.3983558395975142 0.21 0  0.4058241418345938 0.21 0  0.4132924440716992 0.21 0  0.4207607463087888 0.21 0  0.4282290485459029 0.21 0  0.4356973507830418 0.21 0  0.4431656530201649 0.21 0  0.4506339552573136 0.21 0  0.4581022574944306 0.21 0  0.4655705597315852 0.21 0  0.4730388619686996 0.21 0  0.480507164205851 0.21 0  0.4879754664429498 0.21 0  0.4954437686800938 0.21 0  0.502912070917267 0.21 0  0.5103803731544119 0.21 0  0.5178486753915261 0.21 0  0.5253169776286404 0.21 0  0.5327852798657868 0.21 0  0.5402535821029386 0.21 0  0.54772188434007 0.21 0  0.5551901865771842 0.21 0  0.5626584888143201 0.21 0  0.5701267910514778 0.21 0  0.5775950932886138 0.21 0  0.5850633955257281 0.21 0  0.5925316977628483 0.21 0  0.6 0.2050000000000054 0  0.6 0.1950000000000217 0  0.5925316977628897 0.19 0  0.5850633955257988 0.19 0  0.5775950932887378 0.19 0  0.5701267910515998 0.19 0  0.5626584888145268 0.19 0  0.5551901865773963 0.19 0  0.547721884340339 0.19 0  0.5402535821032429 0.19 0  0.5327852798661811 0.19 0  0.5253169776290537 0.19 0  0.5178486753919799 0.19 0  0.5103803731549078 0.19 0  0.502912070917822 0.19 0  0.4954437686807294 0.19 0  0.4879754664436223 0.19 0  0.4805071642065402 0.19 0  0.4730388619694271 0.19 0  0.4655705597323621 0.19 0  0.4581022574952563 0.19 0  0.4506339552581777 0.19 0  0.4431656530210671 0.19 0  0.4356973507839815 0.19 0  0.4282290485468779 0.19 0  0.4207607463097617 0.19 0  0.4132924440726327 0.19 0  0.4058241418354857 0.19 0  0.3983558395983636 0.19 0  0.3908875373612097 0.19 0  0.3834192351240934 0.19 0  0.3759509328869369 0.19 0  0.3684826306498175 0.19 0  0.361014328412667 0.19 0  0.3535460261755617 0.19 0  0.3460777239384295 0.19 0  0.3386094217012945 0.19 0  0.3311411194641595 0.19 0  0.3236728172270245 0.19 0  0.3162045149898895 0.19 0  0.3087362127527544 0.19 0  0.3012679105156187 0.19 0  0.2937996082784807 0.19 0  0.2863313060413428 0.19 0  0.2788630038042048 0.19 0  0.2713947015670686 0.19 0  0.2639263993299336 0.19 0  0.2564580970927985 0.19 0  0.2607803159922026 0.2000727136295815 0  0.5887803774232762 0.2001272386983733 0  0.5745072403740523 0.2002044435018727 0  0.5511891430099709 0.2001122610077113 0  0.2751288526855082 0.20000000000002 0  0.5365194309847112 0.1999999999999436 0  0.2894621222999649 0.1998691686390484 0  0.5215828265105155 0.1999999999999228 0  0.3127789816668748 0.1998657885438805 0  0.3274069683451451 0.2000000000000796 0  0.5066462220363641 0.199999999999908 0  0.3650630746574081 0.199866017807523 0  0.476773013087985 0.1999999999998713 0  0.3417402379596385 0.1998691686391011 0  0.3796850840047755 0.200000000000134 0  0.4618364086138087 0.1999999999998546 0  0.4917096175621762 0.1999999999998808 0  0.3946216884789568 0.2000000000001512 0  0.446899804139621 0.1999999999998389 0  0.4089549580935208 0.1998691686391595 0  0.4322718174608562 0.200127451265745 0  0.4201487168029707 0.1999966199048527 0  0.3528922713220932 0.2000185703532356 0  0.5633122436674589 0.1999814296467508 0  0.3006558810093873 0.1999966199048318 0  0.5815926498168407 0.1966545283159175 0  0.2677053789419034 0.1964246479135325 0  0.5290511287476175 0.1970915826863981 0  0.5439877332217911 0.197091582686394 0  0.2825131256993216 0.2035478995978015 0  0.3199386661080599 0.202908417313604 0  0.4842413153250809 0.1970915826863873 0  0.5141145242734466 0.1970915826863843 0  0.3722167817676917 0.2029084173136195 0  0.4693047108508938 0.1970915826863783 0  0.3348752705822316 0.202908417313609 0  0.3871533862418661 0.2029084173136212 0  0.4543681063767183 0.1970915826863795 0  0.4991779197992749 0.1970915826863902 0  0.4020059614928624 0.203547899597858 0  0.4394315019025246 0.1970915826863714 0  0.2550657455369551 0.2034088125358657 0  0.2548908499171161 0.1966940311614271 0  0.5946539510196798 0.2024302972968126 0  0.267698176732111 0.2039977513680092 0  0.4261685417851465 0.196409292431739 0  0.3590076176283495 0.196411355804271 0  0.5571672426447437 0.2036011176410121 0  0.3066757059912147 0.1964092924317024 0  0.594380730180568 0.1966558399668133 0  0.4842413153245942 0.2040749161535287 0  0.4693047108503577 0.2040749161535231 0  0.3871533862424271 0.1959250838464788 0  0.372246743208829 0.1959123236376545 0  0.5141145242731028 0.2040749161535395 0  0.4543681063761134 0.2040749161535186 0  0.4019979587101454 0.1959834479682427 0  0.4394608940728603 0.2040870543693135 0  0.5439623148931173 0.2040856076781014 0  0.5290511287473298 0.2040749161535501 0  0.4991779197988497 0.2040749161535382 0  0.3347912413592433 0.1959225448935183 0  0.3199680582793816 0.1959123018030061 0  0.2825051229162361 0.1959834479681729 0  0.3590471196690275 0.2036304442587945 0  0.5571594006495384 0.1963685282145804 0  0.3067669986803285 0.203627750582736 0  0.4262598344738712 0.2036568242185335 0  0.5814408164431408 0.2041285596160068 0  0.5688286748170428 0.1961819304477386 0  0.4145905603063645 0.2038180695522843 0  0.3473758401724931 0.2038180695522752 0  0.2950977245128307 0.2038180695522663 0  0.5688286748170693 0.203818069552238 0  0.2950977245127906 0.1961819304477774 0  0.3473758401723931 0.1961819304478349 0  0.4145905603061963 0.1961819304479011 0  0.2601812407614425 0.2056861609747042
[...]
<PointData  Vectors="f_40-1"> 
<DataArray  type="Float64"  Name="f_40-1"  NumberOfComponents="3" format="ascii">0.0000000000000000e+00 0.0000000000000000e+00 0.0000000000000000e+00  0.0000000000000000e+00 0.0000000000000000e+00 0.0000000000000000e+00  0.0000000000000000e+00 0.0000000000000000e+00 0.0000000000000000e+00  0.0000000000000000e+00 0.0000000000000000e+00 0.0000000000000000e+00  4.9266793494283727e-06 -1.4879782330954881e-04 0.0000000000000000e+00  1.6462651367174830e-05 -1.5070095519542566e-04 0.0000000000000000e+00  0.0000000000000000e+00 0.0000000000000000e+00 0.0000000000000000e+00  0.0000000000000000e+00 0.0000000000000000e+00 0.0000000000000000e+00  0.0000000000000000e+00 0.0000000000000000e+00 0.0000000000000000e+00  0.0000000000000000e+00 0.0000000000000000e+00 0.0000000000000000e+00  1.0448477367602157e-05 -1.4974991115275746e-04 0.0000000000000000e+00  0.0000000000000000e+00 0.0000000000000000e+00 0.0000000000000000e+00  0.0000000000000000e+00 0.0000000000000000e+00 0.0000000000000000e+00  0.0000000000000000e+00 0.0000000000000000e+00 0.0000000000000000e+00  0.0000000000000000e+00 0.0000000000000000e+00 0.0000000000000000e+00  0.0000000000000000e+00 0.0000000000000000e+00 0.0000000000000000e+00  0.0000000000000000e+00 0.0000000000000000e+00 0.0000000000000000e+00  0.0000000000000000e+00 0.0000000000000000e+00 0.0000000000000000e+00  0.0000000000000000e+00 0.0000000000000000e+00 0.0000000000000000e+00  0.0000000000000000e+00 0.0000000000000000e+00 0.0000000000000000e+00  0.0000000000000000e+00 0.0000000000000000e+00 0.0000000000000000e+00  0.0000000000000000e+00 0.0000000000000000e+00 0.0000000000000000e+00  0.0000000000000000e+00 0.0000000000000000e+00 0.0000000000000000e+00  0.0000000000000000e+00 0.0000000000000000e+00 0.0000000000000000e+00  0.0000000000000000e+00 0.0000000000000000e+00 0.0000000000000000e+00  0.0000000000000000e+00 0.0000000000000000e+00 0.0000000000000000e+00  0.0000000000000000e+00 0.0000000000000000e+00 0.0000000000000000e+00  0.0000000000000000e+00 0.0000000000000000e+00 0.0000000000000000e+00  0.0000000000000000e+00 0.0000000000000000e+00 0.0000000000000000e+00  0.0000000000000000e+00 0.0000000000000000e+00 0.0000000000000000e+00  0.0000000000000000e+00 0.0000000000000000e+00 0.0000000000000000e+00  0.0000000000000000e+00 0.0000000000000000e+00 0.0000000000000000e+00  0.0000000000000000e+00 0.0000000000000000e+00 0.0000000000000000e+00  0.0000000000000000e+00 0.0000000000000000e+00 0.0000000000000000e+00  0.0000000000000000e+00 0.0000000000000000e+00 0.0000000000000000e+00  0.0000000000000000e+00 0.0000000000000000e+00 0.0000000000000000e+00  0.0000000000000000e+00 0.0000000000000000e+00 0.0000000000000000e+00  0.0000000000000000e+00 0.0000000000000000e+00 0.0000000000000000e+00  0.0000000000000000e+00 0.0000000000000000e+00 0.0000000000000000e+00  0.0000000000000000e+00 0.0000000000000000e+00 0.0000000000000000e+00  0.0000000000000000e+00 0.0000000000000000e+00 0.0000000000000000e+00  0.0000000000000000e+00 0.0000000000000000e+00 0.0000000000000000e+00  0.0000000000000000e+00 0.0000000000000000e+00 0.0000000000000000e+00  0.0000000000000000e+00 0.0000000000000000e+00 0.0000000000000000e+00  0.0000000000000000e+00 0.0000000000000000e+00 0.0000000000000000e+00  0.0000000000000000e+00 0.0000000000000000e+00 0.0000000000000000e+00  0.0000000000000000e+00 0.0000000000000000e+00 0.0000000000000000e+00  0.0000000000000000e+00 0.0000000000000000e+00 0.0000000000000000e+00  0.0000000000000000e+00 0.0000000000000000e+00 0.0000000000000000e+00  0.0000000000000000e+00 0.0000000000000000e+00 0.0000000000000000e+00  0.0000000000000000e+00 0.0000000000000000e+00 0.0000000000000000e+00  0.0000000000000000e+00 0.0000000000000000e+00 0.0000000000000000e+00  0.0000000000000000e+00 0.0000000000000000e+00 0.0000000000000000e+00  0.0000000000000000e+00 0.0000000000000000e+00 0.0000000000000000e+00  0.0000000000000000e+00 0.0000000000000000e+00 0.0000000000000000e+00  0.0000000000000000e+00 0.0000000000000000e+00 0.0000000000000000e+00  0.0000000000000000e+00 0.0000000000000000e+00 0.0000000000000000e+00  0.0000000000000000e+00 0.0000000000000000e+00 0.0000000000000000e+00  0.0000000000000000e+00 0.0000000000000000e+00 0.0000000000000000e+00  0.0000000000000000e+00 0.0000000000000000e+00 0.0000000000000000e+00  0.0000000000000000e+00 0.0000000000000000e+00 0.0000000000000000e+00  0.0000000000000000e+00 0.0000000000000000e+00 0.0000000000000000e+00  0.0000000000000000e+00 0.0000000000000000e+00 0.0000000000000000e+00  0.0000000000000000e+00 0.0000000000000000e+00 0.0000000000000000e+00  0.0000000000000000e+00 0.0000000000000000e+00 0.0000000000000000e+00  0.0000000000000000e+00 0.0000000000000000e+00 0.0000000000000000e+00  0.0000000000000000e+00 0.0000000000000000e+00 0.0000000000000000e+00  0.0000000000000000e+00 0.0000000000000000e+00 0.0000000000000000e+00  0.0000000000000000e+00 0.0000000000000000e+00 0.0000000000000000e+00  0.0000000000000000e+00 0.0000000000000000e+00 0.0000000000000000e+00  0.0000000000000000e+00 0.0000000000000000e+00 0.0000000000000000e+00  0.0000000000000000e+00 0.0000000000000000e+00 0.0000000000000000e+00  0.0000000000000000e+00 0.0000000000000000e+00 0.0000000000000000e+00  0.0000000000000000e+00 0.0000000000000000e+00 0.0000000000000000e+00  0.0000000000000000e+00 0.0000000000000000e+00 0.0000000000000000e+00  0.0000000000000000e+00 0.0000000000000000e+00 0.0000000000000000e+00  0.0000000000000000e+00 0.0000000000000000e+00 0.0000000000000000e+00  0.0000000000000000e+00 0.0000000000000000e+00 0.0000000000000000e+00  0.0000000000000000e+00 0.0000000000000000e+00 0.0000000000000000e+00  0.0000000000000000e+00 0.0000000000000000e+00 0.0000000000000000e+00  0.0000000000000000e+00 0.0000000000000000e+00 0.0000000000000000e+00  0.0000000000000000e+00 0.0000000000000000e+00 0.0000000000000000e+00  0.0000000000000000e+00 0.0000000000000000e+00 0.0000000000000000e+00  0.0000000000000000e+00 0.0000000000000000e+00 0.0000000000000000e+00  0.0000000000000000e+00 0.0000000000000000e+00 0.0000000000000000e+00  0.0000000000000000e+00 0.0000000000000000e+00 0.0000000000000000e+00  0.0000000000000000e+00 0.0000000000000000e+00 0.0000000000000000e+00  0.0000000000000000e+00 0.0000000000000000e+00 0.0000000000000000e+00  0.0000000000000000e+00 0.0000000000000000e+00 0.0000000000000000e+00  0.0000000000000000e+00 0.0000000000000000e+00 0.0000000000000000e+00  0.0000000000000000e+00 0.0000000000000000e+00 0.0000000000000000e+00  0.0000000000000000e+00 0.0000000000000000e+00 0.0000000000000000e+00  0.0000000000000000e+00 0.0000000000000000e+00 0.0000000000000000e+00  0.0000000000000000e+00 0.0000000000000000e+00 0.0000000000000000e+00  0.0000000000000000e+00 0.0000000000000000e+00 0.0000000000000000e+00  0.0000000000000000e+00 0.0000000000000000e+00 0.0000000000000000e+00  0.0000000000000000e+00 0.0000000000000000e+00 0.0000000000000000e+00  0.0000000000000000e+00 0.0000000000000000e+00 0.0000000000000000e+00  0.0000000000000000e+00 0.0000000000000000e+00 0.0000000000000000e+00  0.0000000000000000e+00 0.0000000000000000e+00 0.0000000000000000e+00  0.0000000000000000e+00 0.0000000000000000e+00 0.0000000000000000e+00  0.0000000000000000e+00 0.0000000000000000e+00 0.0000000000000000e+00  0.0000000000000000e+00 0.0000000000000000e+00 0.0000000000000000e+00  0.0000000000000000e+00 0.0000000000000000e+00 0.0000000000000000e+00  0.0000000000000000e+00 0.0000000000000000e+00 0.0000000000000000e+00  0.0000000000000000e+00 0.0000000000000000e+00 0.0000000000000000e+00  0.0000000000000000e+00 0.0000000000000000e+00 0.0000000000000000e+00  0.0000000000000000e+00 0.0000000000000000e+00 0.0000000000000000e+00  0.0000000000000000e+00 0.0000000000000000e+00 0.0000000000000000e+00  0.0000000000000000e+00 0.0000000000000000e+00 0.0000000000000000e+00  0.0000000000000000e+00 0.0000000000000000e+00 0.0000000000000000e+00  0.0000000000000000e+00 0.0000000000000000e+00 0.0000000000000000e+00  0.0000000000000000e+00 0.0000000000000000e+00 0.0000000000000000e+00  0.0000000000000000e+00 0.0000000000000000e+00 0.0000000000000000e+00  0.0000000000000000e+00 0.0000000000000000e+00 0.0000000000000000e+00  0.0000000000000000e+00 0.0000000000000000e+00 0.0000000000000000e+00  0.0000000000000000e+00 0.0000000000000000e+00 0.0000000000000000e+00  0.0000000000000000e+00 0.0000000000000000e+00 0.0000000000000000e+00  0.0000000000000000e+00 0.0000000000000000e+00 0.0000000000000000e+00  0.0000000000000000e+00 0.0000000000000000e+00 0.0000000000000000e+00  0.0000000000000000e+00 0.0000000000000000e+00 0.0000000000000000e+00  0.0000000000000000e+00 0.0000000000000000e+00 0.0000000000000000e+00  0.0000000000000000e+00 0.0000000000000000e+00 0.0000000000000000e+00  0.0000000000000000e+00 0.0000000000000000e+00 0.0000000000000000e+00  0.0000000000000000e+00 0.0000000000000000e+00 0.0000000000000000e+00  0.0000000000000000e+00 0.0000000000000000e+00 0.0000000000000000e+00  0.0000000000000000e+00 0.0000000000000000e+00 0.0000000000000000e+00  0.0000000000000000e+00 0.0000000000000000e+00 0.0000000000000000e+00  0.0000000000000000e+00 0.0000000000000000e+00 0.0000000000000000e+00  0.0000000000000000e+00 0.0000000000000000e+00 0.0000000000000000e+00  0.0000000000000000e+00 0.0000000000000000e+00 0.0000000000000000e+00  0.0000000000000000e+00 0.0000000000000000e+00 0.0000000000000000e+00  0.0000000000000000e+00 0.0000000000000000e+00 0.0000000000000000e+00  0.0000000000000000e+00 0.0000000000000000e+00 0.0000000000000000e+00  0.0000000000000000e+00 0.0000000000000000e+00 0.0000000000000000e+00  0.0000000000000000e+00 0.0000000000000000e+00 0.0000000000000000e+00  0.0000000000000000e+00 0.0000000000000000e+00 0.0000000000000000e+00  0.0000000000000000e+00 0.0000000000000000e+00 0.0000000000000000e+00  0.0000000000000000e+00 0.0000000000000000e+00 0.0000000000000000e+00  0.0000000000000000e+00 0.0000000000000000e+00 0.0000000000000000e+00  0.0000000000000000e+00 0.0000000000000000e+00 0.0000000000000000e+00  0.0000000000000000e+00 0.0000000000000000e+00 0.0000000000000000e+00  0.0000000000000000e+00 0.0000000000000000e+00 0.0000000000000000e+00  7.7235724588158842e-07 -2.1673195198260716e-06 0.0000000000000000e+00  1.6683087351492354e-06 -2.6683582718162751e-06 0.0000000000000000e+00  2.6356019566704229e-06 -3.2906634249673451e-06 0.0000000000000000e+00  3.6764480245930529e-06 -4.1001521767199698e-06 0.0000000000000000e+00  4.6719363065578257e-06 -5.1155494025737655e-06 0.0000000000000000e+00  5.6889373156763344e-06 -6.3776990798336834e-06 0.0000000000000000e+00  6.6280977748033886e-06 -7.8080507951267891e-06 0.0000000000000000e+00  7.5366201989130064e-06 -9.4634710788397235e-06 0.0000000000000000e+00  8.4676985421479693e-06 -1.1294097018657733e-05 0.0000000000000000e+00  9.3007708550393555e-06 -1.3294708806966175e-05 0.0000000000000000e+00  1.0160643647378167e-05 -1.5487561645484426e-05 0.0000000000000000e+00  1.0925189832775023e-05 -1.7828039205746291e-05 0.0000000000000000e+00  1.1698244480759888e-05 -2.0336171044118498e-05 0.0000000000000000e+00  1.2399051449690300e-05 -2.2971928376185424e-05 0.0000000000000000e+00  1.3062680488759869e-05 -2.5763203895523055e-05 0.0000000000000000e+00  1.3729476343064545e-05 -2.8679681012394346e-05 0.0000000000000000e+00  1.4314016105155277e-05 -3.1705136832961224e-05 0.0000000000000000e+00  1.4901306506735447e-05 -3.4868087663356635e-05 0.0000000000000000e+00  1.5412687184397301e-05 -3.8116982406933058e-05 0.0000000000000000e+00  1.5920929788738301e-05 -4.1484643576677063e-05 0.0000000000000000e+00  1.6366678754198533e-05 -4.4928916711099792e-05 0.0000000000000000e+00  1.6792317790707965e-05 -4.8475101524757940e-05 0.0000000000000000e+00  1.7168726792654640e-05 -5.2086939467892663e-05 0.0000000000000000e+00  1.7508479046597169e-05 -5.5781384677483735e-05 0.0000000000000000e+00  1.7836114775100933e-05 -5.9540060979689854e-05 0.0000000000000000e+00  1.8110680710461839e-05 -6.3352809716213363e-05 0.0000000000000000e+00  1.8355478670681725e-05 -6.7242054267369574e-05 0.0000000000000000e+00  1.8560792868302732e-05 -7.1160385282421177e-05 0.0000000000000000e+00  1.8736136307294361e-05 -7.5145735774376348e-05 0.0000000000000000e+00  1.8874096739015574e-05 -7.9152133245094893e-05 0.0000000000000000e+00  1.8982024521212394e-05 -8.3215588074252769e-05 0.0000000000000000e+00  1.9053502254031559e-05 -8.7291325120672980e-05 0.0000000000000000e+00  1.9095581651929213e-05 -9.1416330473444149e-05 0.0000000000000000e+00  1.9101971393304467e-05 -9.5545236413602624e-05 0.0000000000000000e+00  1.9077510072418311e-05 -9.9717718254043773e-05 0.0000000000000000e+00  1.9019652507990231e-05 -1.0388874566454617e-04 0.0000000000000000e+00  1.8932069563664363e-05 -1.0809630645139249e-04 0.0000000000000000e+00  1.8811698573734615e-05 -1.1229825061981212e-04 0.0000000000000000e+00  1.8660602224493978e-05 -1.1653192123651764e-04 0.0000000000000000e+00  1.8475905032282846e-05 -1.2075559938194693e-04 0.0000000000000000e+00  1.8256195017420902e-05 -1.2500054594005085e-04 0.0000000000000000e+00  1.8010789651310722e-05 -1.2924416152098177e-04 0.0000000000000000e+00  1.7730055501550572e-05 -1.3349620173008799e-04 0.0000000000000000e+00  1.7431481156104840e-05 -1.3775078033177030e-04 0.0000000000000000e+00  1.7096018013307731e-05 -1.4199679358153743e-04 0.0000000000000000e+00  1.6756070694641645e-05 -1.4627578604160232e-04 0.0000000000000000e+00  1.3368767865111794e-05 -1.5022357578993001e-04 0.0000000000000000e+00  7.6111933579320365e-06 -1.4927927964039029e-04 0.0000000000000000e+00  5.2302402252210722e-06 -1.4461597088928993e-04 0.0000000000000000e+00  5.5872211252128009e-06 -1.4028745258872947e-04 0.0000000000000000e+00  5.9353750205573506e-06 -1.3594384209431772e-04 0.0000000000000000e+00  6.2509313573091838e-06 -1.3161818856207840e-04 0.0000000000000000e+00  6.5471724453807181e-06 -1.2729706104679204e-04 0.0000000000000000e+00  6.8092918624294284e-06 -1.2298290327834440e-04 0.0000000000000000e+00  7.0514057088337073e-06 -1.1868058636191762e-04 0.0000000000000000e+00  7.2591619867941762e-06 -1.1437495800714497e-04 0.0000000000000000e+00  7.4438239078245487e-06 -1.1009762197264472e-04 0.0000000000000000e+00  7.5980821564474623e-06 -1.0581322168917446e-04 0.0000000000000000e+00  7.7319281048911624e-06 -1.0156216354915182e-04 0.0000000000000000e+00  7.8347288304580012e-06 -9.7308959920541313e-05 0.0000000000000000e+00  7.9197737520415390e-06 -9.3093803501343000e-05 0.0000000000000000e+00  7.9731450395193231e-06 -8.8882735475070610e-05 0.0000000000000000e+00  8.0121715513754634e-06 -8.4715356927867407e-05 0.0000000000000000e+00  8.0178833626620354e-06 -8.0558922225119252e-05 0.0000000000000000e+00  8.0125982814288072e-06 -7.6453133022316857e-05 0.0000000000000000e+00  7.9721757651629113e-06 -7.2366407614494693e-05 0.0000000000000000e+00  7.9248017587747825e-06 -6.8339001101204791e-05 0.0000000000000000e+00  7.8400702266101270e-06 -6.4340547199743969e-05 0.0000000000000000e+00  7.7529572230234472e-06 -6.0410927184920006e-05 0.0000000000000000e+00  7.6256463120589194e-06 -5.6521798499991757e-05 0.0000000000000000e+00  7.4950041545561041e-06 -5.2706991276632569e-05 0.0000000000000000e+00  7.3320110280403798e-06 -4.8949404449527738e-05 0.0000000000000000e+00  7.1443482390119437e-06 -4.5279205143308283e-05 0.0000000000000000e+00  6.9637525604929766e-06 -4.1675043116380410e-05 0.0000000000000000e+00  6.7446137043827940e-06 -3.8158197002445887e-05 0.0000000000000000e+00  6.5186752362270678e-06 -3.4745877857214560e-05 0.0000000000000000e+00  6.2633000090545017e-06 -3.1420497814871947e-05 0.0000000000000000e+00  6.0004872655784806e-06 -2.8217311484854156e-05 0.0000000000000000e+00  5.7086379735176077e-06 -2.5110504607285395e-05 0.0000000000000000e+00  5.4204829907410788e-06 -2.2151664768393743e-05 0.0000000000000000e+00  5.0908702077636636e-06 -1.9296378164891694e-05 0.0000000000000000e+00  4.7401020387863919e-06 -1.6606897175370664e-05 0.0000000000000000e+00  4.4136341226477764e-06 -1.4035308741445599e-05 0.0000000000000000e+00  4.0449351832708721e-06 -1.1631954320888926e-05 0.0000000000000000e+00  3.6775387072353729e-06 -9.4017371689723899e-06 0.0000000000000000e+00  3.2791246028797786e-06 -7.3295512990198432e-06 0.0000000000000000e+00  2.8997094327705042e-06 -5.4670309416301983e-06 0.0000000000000000e+00  2.4701756678991619e-06 -3.7618717387099116e-06 0.0000000000000000e+00  2.0245833965881221e-06 -2.2910933802757017e-06 0.0000000000000000e+00  1.6245450857562787e-06 -9.9096690404180270e-07 0.0000000000000000e+00  1.1771988331051456e-06 9.0390481678964857e-08 0.0000000000000000e+00  7.8999176413117601e-07 9.3658148012791215e-07 0.0000000000000000e+00  4.0766533207087469e-07 1.4905796210755590e-06 0.0000000000000000e+00  1.7708145966926868e-07 1.6922706330084739e-06 0.0000000000000000e+00  4.2255891799247960e-07 -2.5491834925933814e-07 0.0000000000000000e+00  1.1144574024117087e-05 -1.4328971584238930e-04 0.0000000000000000e+00  1.1896026743002167e-05 -1.3508673211061006e-04 0.0000000000000000e+00  1.2691121503344144e-05 -1.2170724680108608e-04 0.0000000000000000e+00  2.0422699300406270e-06 -1.4141569662094612e-06 0.0000000000000000e+00  1.3008185203520519e-05 -1.1331646716228445e-04 0.0000000000000000e+00  3.4110079417831704e-06 -3.3930001621470973e-06 0.0000000000000000e+00  1.3285632389854205e-05 -1.0482763319614790e-04 0.0000000000000000e+00  5.5144830000067903e-06 -8.2922311392821996e-06 0.0000000000000000e+00  6.7664580869675837e-06 -1.2324204423925545e-05 0.0000000000000000e+00  1.3448929069684403e-05 -9.6400058287459208e-05 0.0000000000000000e+00  9.4197201027998829e-06 -2.5425936392900304e-05 0.0000000000000000e+00  1.3437458382803836e-05 -7.9817298692249006e-05 0.0000000000000000e+00  7.8331620399470979e-06 -1.6848950366631852e-05 0.0000000000000000e+00  1.0337330911591954e-05 -3.1466421999670248e-05 0.0000000000000000e+00  1.3264460938288308e-05 -7.1718499322069836e-05 0.0000000000000000e+00  1.3499256438972507e-05 -8.8054621118204416e-05 0.0000000000000000e+00  1.1117744605606278e-05 -3.8050010438151167e-05 0.0000000000000000e+00  1.2980193165487242e-05 -6.3794726217359922e-05 0.0000000000000000e+00  1.1704277898414482e-05 -4.4711177407348685e-05 0.0000000000000000e+00  1.2663014822912553e-05 -5.6261873792851777e-05 0.0000000000000000e+00  1.2186024508586778e-05 -5.0180121084944687e-05 0.0000000000000000e+00  8.6673707537192838e-06 -2.0831276478743319e-05 0.0000000000000000e+00  1.2198964731912038e-05 -1.2864062435656996e-04 0.0000000000000000e+00  4.4607602033685638e-06 -5.5615469357349770e-06 0.0000000000000000e+00  9.5252902913871293e-06 -1.3885558261413072e-04 0.0000000000000000e+00  9.7898363029160823e-07 6.1857372196499900e-08 0.0000000000000000e+00  1.1511555720693254e-05 -1.0874093467768092e-04 0.0000000000000000e+00  1.1168166250321302e-05 -1.1727102828264230e-04 0.0000000000000000e+00  3.2517239288381070e-06 -3.1069977724070184e-06 0.0000000000000000e+00  6.9433656036187001e-06 -1.0780465329730464e-05 0.0000000000000000e+00  1.1883379404774301e-05 -8.3543172526114349e-05 0.0000000000000000e+00  1.1744210561117993e-05 -1.0026247465547040e-04 0.0000000000000000e+00  1.1096693173694027e-05 -2.8859652640480392e-05 0.0000000000000000e+00  1.1793672361694500e-05 -7.5353740024392956e-05 0.0000000000000000e+00  8.2696653242230998e-06 -1.5192226940411778e-05 0.0000000000000000e+00  1.2014576111564073e-05 -3.5212212309561981e-05 0.0000000000000000e+00  1.1599582249654661e-05 -6.7320630418406157e-05 0.0000000000000000e+00  1.1867439230571681e-05 -9.1855326708633773e-05 0.0000000000000000e+00  1.3109527517653885e-05 -4.2046428769071582e-05 0.0000000000000000e+00  1.1302261964389007e-05 -5.9482787499763944e-05 0.0000000000000000e+00  2.4360085537064680e-08 -5.2043338645417516e-07 0.0000000000000000e+00  -8.0246031681117652e-08 3.8204154220737302e-07 0.0000000000000000e+00  1.2146470247369620e-05 -1.4686977186203877e-04 0.0000000000000000e+00  1.5802141754395421e-06 -1.6061674306400170e-06 0.0000000000000000e+00  1.061500460