<?xml version="1.0"?>
<VTKFile type="UnstructuredGrid"  version="0.1"  >
<UnstructuredGrid>
<Piece  NumberOfPoints="1419" NumberOfCells="2698">
<Points>
<DataArray  type="Float64"  NumberOfComponents="3"  format="ascii">0 0 0  0 0.41 0  2.5 0 0  2.5 0.41 0  0.6 0.19 0  0.6 0.21 0  0.25 0.2 0  0.15 0.2 0  0.2489897948556636 0.21 0  0.2489897948556636 0.19 0  0.6 0.2 0  0 0.3807142857143437 0  0 0.3514285714286952 0  0 0.3221428571430699 0  0 0.29285714285744 0  0 0.2635714285718054 0  0 0.2342857142861561 0  0 0.2050000000005308 0  0 0.175714285714732 0  0 0.1464285714289574 0  0 0.1171428571431897 0  0 0.08785714285737878 0  0 0.05857142857161107 0  0 0.02928571428580012 0  0.03015443760436003 0 0  0.06140001986583606 0 0  0.09377624077125973 0 0  0.1273239957535082 0 0  0.1620856860351972 0 0  0.1981052433264291 0 0  0.235428184091502 0 0  0.2741016576309132 0 0  0.3141745521465447 0 0  0.3556974926295285 0 0  0.3987229542472677 0 0  0.4433053055141081 0 0  0.4895008759286886 0 0  0.5373680609405097 0 0  0.5869673343216626 0 0  0.6383613676634521 0 0  0.6916151138468254 0 0  0.7467958595648856 0 0  0.8039733463919316 0 0  0.8632198139502143 0 0  0.9246101326867038 0 0  0.9882218810934433 0 0  1.054135445558498 0 0  1.122434100542598 0 0  1.193204177141305 0 0  1.266535089879536 0 0  1.342519516046404 0 0  1.421253448503939 0 0  1.502836389106271 0 0  1.587371439758838 0 0  1.674965418777374 0 0  1.765729001825544 0 0  1.859776908880082 0 0  1.957227977487062 0 0  2.058205329869943 0 0  2.162836591189951 0 0  2.271253957290865 0 0  2.383594446803425 0 0  2.5 0.1024999999997612 0  2.5 0.2049999999994743 0  2.5 0.3074999999997183 0  2.383594446803656 0.41 0  2.271253957291315 0.41 0  2.162836591190598 0.41 0  2.058205329870775 0.41 0  1.957227977488067 0.41 0  1.859776908881246 0.41 0  1.765729001826854 0.41 0  1.674965418778818 0.41 0  1.58737143976041 0.41 0  1.502836389107956 0.41 0  1.421253448505726 0.41 0  1.342519516048286 0.41 0  1.266535089881505 0.41 0  1.193204177143353 0.41 0  1.122434100544716 0.41 0  1.05413544556068 0.41 0  0.9882218810956305 0.41 0  0.9246101326886647 0.41 0  0.8632198139519631 0.41 0  0.8039733463934788 0.41 0  0.7467958595662458 0.41 0  0.6916151138480078 0.41 0  0.6383613676644679 0.41 0  0.5869673343225223 0.41 0  0.5373680609412221 0.41 0  0.4895008759292634 0.41 0  0.4433053055145528 0.41 0  0.3987229542475914 0.41 0  0.3556974926297398 0.41 0  0.3141745521466497 0.41 0  0.2741016576310038 0.41 0  0.2354281840915826 0.41 0  0.1981052433265003 0.41 0  0.1620856860352591 0.41 0  0.1273239957535623 0.41 0  0.09377624077128965 0.41 0  0.06140001986584975 0.41 0  0.03015443760436654 0.41 0  0.2497468076502589 0.2050254481002335 0  0.2497468076502614 0.1949745518997913 0  0.2469965252529372 0.1829317073451959 0  0.2439893735792749 0.1762316384219906 0  0.2400332147834255 0.1700443375285386 0  0.2352133972704371 0.1645032867342007 0  0.2296339016332438 0.1597280261969788 0  0.2234150974217223 0.1558215752574715 0  0.2166911463437691 0.1528682099456123 0  0.2096071079204251 0.1509316448471593 0  0.2023158100364996 0.1500536585536553 0  0.194974551899914 0.1502531923497262 0  0.1877417105387872 0.1515259415822739 0  0.1807733240461124 0.153844448527136 0  0.1742197252835808 0.15715869474974 0  0.1682222986673531 0.1613971801805478 0  0.162910430003803 0.1664684656256651 0  0.1583987151779087 0.1722631454351573 0  0.1547844879126891 0.178656207771761 0  0.1521457199348551 0.1855097315605723 0  0.1505393388476355 0.1926758619366523 0  0.1505393388476328 0.2073241380633295 0  0.1521457199348437 0.2144902684393899 0  0.1547844879126531 0.221343792228163 0  0.1583987151778488 0.2277368545647528 0  0.1629104300036858 0.2335315343742052 0  0.1682222986671726 0.2386028198193036 0  0.1742197252833576 0.2428413052501257 0  0.1807733240458683 0.2461555514727623 0  0.1877417105384929 0.2484740584176516 0  0.1949745518995776 0.2497468076502398 0  0.202315810036185 0.2499463414463592 0  0.2096071079201568 0.2490683551528932 0  0.2166911463435495 0.2471317900544655 0  0.2234150974215506 0.2441784247426195 0  0.2296339016331197 0.2402719738031125 0  0.2352133972703547 0.2354967132658811 0  0.2400332147833751 0.2299556624715287 0  0.2439893735792577 0.2237683615780412 0  0.246996525252926 0.2170682926548348 0  0.25645809709277 0.21 0  0.2639263993298655 0.21 0  0.271394701566961 0.21 0  0.2788630038040554 0.21 0  0.2863313060411479 0.21 0  0.2937996082782405 0.21 0  0.301267910515333 0.21 0  0.3087362127524279 0.21 0  0.3162045149895234 0.21 0  0.3236728172265972 0.21 0  0.3311411194636928 0.21 0  0.3386094217007701 0.21 0  0.3460777239378666 0.21 0  0.3535460261749672 0.21 0  0.3610143284120516 0.21 0  0.3684826306491596 0.21 0  0.3759509328862226 0.21 0  0.383419235123329 0.21 0  0.3908875373604028 0.21 0  0.3983558395975142 0.21 0  0.4058241418345938 0.21 0  0.4132924440716992 0.21 0  0.4207607463087888 0.21 0  0.4282290485459029 0.21 0  0.4356973507830418 0.21 0  0.4431656530201649 0.21 0  0.4506339552573136 0.21 0  0.4581022574944306 0.21 0  0.4655705597315852 0.21 0  0.4730388619686996 0.21 0  0.480507164205851 0.21 0  0.4879754664429498 0.21 0  0.4954437686800938 0.21 0  0.502912070917267 0.21 0  0.5103803731544119 0.21 0  0.5178486753915261 0.21 0  0.5253169776286404 0.21 0  0.5327852798657868 0.21 0  0.5402535821029386 0.21 0  0.54772188434007 0.21 0  0.5551901865771842 0.21 0  0.5626584888143201 0.21 0  0.5701267910514778 0.21 0  0.5775950932886138 0.21 0  0.5850633955257281 0.21 0  0.5925316977628483 0.21 0  0.6 0.2050000000000054 0  0.6 0.1950000000000217 0  0.5925316977628897 0.19 0  0.5850633955257988 0.19 0  0.5775950932887378 0.19 0  0.5701267910515998 0.19 0  0.5626584888145268 0.19 0  0.5551901865773963 0.19 0  0.547721884340339 0.19 0  0.5402535821032429 0.19 0  0.5327852798661811 0.19 0  0.5253169776290537 0.19 0  0.5178486753919799 0.19 0  0.5103803731549078 0.19 0  0.502912070917822 0.19 0  0.4954437686807294 0.19 0  0.4879754664436223 0.19 0  0.4805071642065402 0.19 0  0.4730388619694271 0.19 0  0.4655705597323621 0.19 0  0.4581022574952563 0.19 0  0.4506339552581777 0.19 0  0.4431656530210671 0.19 0  0.4356973507839815 0.19 0  0.4282290485468779 0.19 0  0.4207607463097617 0.19 0  0.4132924440726327 0.19 0  0.4058241418354857 0.19 0  0.3983558395983636 0.19 0  0.3908875373612097 0.19 0  0.3834192351240934 0.19 0  0.3759509328869369 0.19 0  0.3684826306498175 0.19 0  0.361014328412667 0.19 0  0.3535460261755617 0.19 0  0.3460777239384295 0.19 0  0.3386094217012945 0.19 0  0.3311411194641595 0.19 0  0.3236728172270245 0.19 0  0.3162045149898895 0.19 0  0.3087362127527544 0.19 0  0.3012679105156187 0.19 0  0.2937996082784807 0.19 0  0.2863313060413428 0.19 0  0.2788630038042048 0.19 0  0.2713947015670686 0.19 0  0.2639263993299336 0.19 0  0.2564580970927985 0.19 0  0.2607803159922026 0.2000727136295815 0  0.5887803774232762 0.2001272386983733 0  0.5745072403740523 0.2002044435018727 0  0.5511891430099709 0.2001122610077113 0  0.2751288526855082 0.20000000000002 0  0.5365194309847112 0.1999999999999436 0  0.2894621222999649 0.1998691686390484 0  0.5215828265105155 0.1999999999999228 0  0.3127789816668748 0.1998657885438805 0  0.3274069683451451 0.2000000000000796 0  0.5066462220363641 0.199999999999908 0  0.3650630746574081 0.199866017807523 0  0.476773013087985 0.1999999999998713 0  0.3417402379596385 0.1998691686391011 0  0.3796850840047755 0.200000000000134 0  0.4618364086138087 0.1999999999998546 0  0.4917096175621762 0.1999999999998808 0  0.3946216884789568 0.2000000000001512 0  0.446899804139621 0.1999999999998389 0  0.4089549580935208 0.1998691686391595 0  0.4322718174608562 0.200127451265745 0  0.4201487168029707 0.1999966199048527 0  0.3528922713220932 0.2000185703532356 0  0.5633122436674589 0.1999814296467508 0  0.3006558810093873 0.1999966199048318 0  0.5815926498168407 0.1966545283159175 0  0.2677053789419034 0.1964246479135325 0  0.5290511287476175 0.1970915826863981 0  0.5439877332217911 0.197091582686394 0  0.2825131256993216 0.2035478995978015 0  0.3199386661080599 0.202908417313604 0  0.4842413153250809 0.1970915826863873 0  0.5141145242734466 0.1970915826863843 0  0.3722167817676917 0.2029084173136195 0  0.4693047108508938 0.1970915826863783 0  0.3348752705822316 0.202908417313609 0  0.3871533862418661 0.2029084173136212 0  0.4543681063767183 0.1970915826863795 0  0.4991779197992749 0.1970915826863902 0  0.4020059614928624 0.203547899597858 0  0.4394315019025246 0.1970915826863714 0  0.2550657455369551 0.2034088125358657 0  0.2548908499171161 0.1966940311614271 0  0.5946539510196798 0.2024302972968126 0  0.267698176732111 0.2039977513680092 0  0.4261685417851465 0.196409292431739 0  0.3590076176283495 0.196411355804271 0  0.5571672426447437 0.2036011176410121 0  0.3066757059912147 0.1964092924317024 0  0.594380730180568 0.1966558399668133 0  0.4842413153245942 0.2040749161535287 0  0.4693047108503577 0.2040749161535231 0  0.3871533862424271 0.1959250838464788 0  0.372246743208829 0.1959123236376545 0  0.5141145242731028 0.2040749161535395 0  0.4543681063761134 0.2040749161535186 0  0.4019979587101454 0.1959834479682427 0  0.4394608940728603 0.2040870543693135 0  0.5439623148931173 0.2040856076781014 0  0.5290511287473298 0.2040749161535501 0  0.4991779197988497 0.2040749161535382 0  0.3347912413592433 0.1959225448935183 0  0.3199680582793816 0.1959123018030061 0  0.2825051229162361 0.1959834479681729 0  0.3590471196690275 0.2036304442587945 0  0.5571594006495384 0.1963685282145804 0  0.3067669986803285 0.203627750582736 0  0.4262598344738712 0.2036568242185335 0  0.5814408164431408 0.2041285596160068 0  0.5688286748170428 0.1961819304477386 0  0.4145905603063645 0.2038180695522843 0  0.3473758401724931 0.2038180695522752 0  0.2950977245128307 0.2038180695522663 0  0.5688286748170693 0.203818069552238 0  0.2950977245127906 0.1961819304477774 0  0.3473758401723931 0.1961819304478349 0  0.4145905603061963 0.1961819304479011 0  0.2601812407614425 0.2056861609747042
[...]
<PointData  Vectors="f_40-1"> 
<DataArray  type="Float64"  Name="f_40-1"  NumberOfComponents="3" format="ascii">0.0000000000000000e+00 0.0000000000000000e+00 0.0000000000000000e+00  0.0000000000000000e+00 0.0000000000000000e+00 0.0000000000000000e+00  0.0000000000000000e+00 0.0000000000000000e+00 0.0000000000000000e+00  0.0000000000000000e+00 0.0000000000000000e+00 0.0000000000000000e+00  5.2840010974247772e-05 8.5809562420309754e-04 0.0000000000000000e+00  -6.0420235714779061e-06 8.5741061523104760e-04 0.0000000000000000e+00  0.0000000000000000e+00 0.0000000000000000e+00 0.0000000000000000e+00  0.0000000000000000e+00 0.0000000000000000e+00 0.0000000000000000e+00  0.0000000000000000e+00 0.0000000000000000e+00 0.0000000000000000e+00  0.0000000000000000e+00 0.0000000000000000e+00 0.0000000000000000e+00  2.3127237630047879e-05 8.5774695028834568e-04 0.0000000000000000e+00  0.0000000000000000e+00 0.0000000000000000e+00 0.0000000000000000e+00  0.0000000000000000e+00 0.0000000000000000e+00 0.0000000000000000e+00  0.0000000000000000e+00 0.0000000000000000e+00 0.0000000000000000e+00  0.0000000000000000e+00 0.0000000000000000e+00 0.0000000000000000e+00  0.0000000000000000e+00 0.0000000000000000e+00 0.0000000000000000e+00  0.0000000000000000e+00 0.0000000000000000e+00 0.0000000000000000e+00  0.0000000000000000e+00 0.0000000000000000e+00 0.0000000000000000e+00  0.0000000000000000e+00 0.0000000000000000e+00 0.0000000000000000e+00  0.0000000000000000e+00 0.0000000000000000e+00 0.0000000000000000e+00  0.0000000000000000e+00 0.0000000000000000e+00 0.0000000000000000e+00  0.0000000000000000e+00 0.0000000000000000e+00 0.0000000000000000e+00  0.0000000000000000e+00 0.0000000000000000e+00 0.0000000000000000e+00  0.0000000000000000e+00 0.0000000000000000e+00 0.0000000000000000e+00  0.0000000000000000e+00 0.0000000000000000e+00 0.0000000000000000e+00  0.0000000000000000e+00 0.0000000000000000e+00 0.0000000000000000e+00  0.0000000000000000e+00 0.0000000000000000e+00 0.0000000000000000e+00  0.0000000000000000e+00 0.0000000000000000e+00 0.0000000000000000e+00  0.0000000000000000e+00 0.0000000000000000e+00 0.0000000000000000e+00  0.0000000000000000e+00 0.0000000000000000e+00 0.0000000000000000e+00  0.0000000000000000e+00 0.0000000000000000e+00 0.0000000000000000e+00  0.0000000000000000e+00 0.0000000000000000e+00 0.0000000000000000e+00  0.0000000000000000e+00 0.0000000000000000e+00 0.0000000000000000e+00  0.0000000000000000e+00 0.0000000000000000e+00 0.0000000000000000e+00  0.0000000000000000e+00 0.0000000000000000e+00 0.0000000000000000e+00  0.0000000000000000e+00 0.0000000000000000e+00 0.0000000000000000e+00  0.0000000000000000e+00 0.0000000000000000e+00 0.0000000000000000e+00  0.0000000000000000e+00 0.0000000000000000e+00 0.0000000000000000e+00  0.0000000000000000e+00 0.0000000000000000e+00 0.0000000000000000e+00  0.0000000000000000e+00 0.0000000000000000e+00 0.0000000000000000e+00  0.0000000000000000e+00 0.0000000000000000e+00 0.0000000000000000e+00  0.0000000000000000e+00 0.0000000000000000e+00 0.0000000000000000e+00  0.0000000000000000e+00 0.0000000000000000e+00 0.0000000000000000e+00  0.0000000000000000e+00 0.0000000000000000e+00 0.0000000000000000e+00  0.0000000000000000e+00 0.0000000000000000e+00 0.0000000000000000e+00  0.0000000000000000e+00 0.0000000000000000e+00 0.0000000000000000e+00  0.0000000000000000e+00 0.0000000000000000e+00 0.0000000000000000e+00  0.0000000000000000e+00 0.0000000000000000e+00 0.0000000000000000e+00  0.0000000000000000e+00 0.0000000000000000e+00 0.0000000000000000e+00  0.0000000000000000e+00 0.0000000000000000e+00 0.0000000000000000e+00  0.0000000000000000e+00 0.0000000000000000e+00 0.0000000000000000e+00  0.0000000000000000e+00 0.0000000000000000e+00 0.0000000000000000e+00  0.0000000000000000e+00 0.0000000000000000e+00 0.0000000000000000e+00  0.0000000000000000e+00 0.0000000000000000e+00 0.0000000000000000e+00  0.0000000000000000e+00 0.0000000000000000e+00 0.0000000000000000e+00  0.0000000000000000e+00 0.0000000000000000e+00 0.0000000000000000e+00  0.0000000000000000e+00 0.0000000000000000e+00 0.0000000000000000e+00  0.0000000000000000e+00 0.0000000000000000e+00 0.0000000000000000e+00  0.0000000000000000e+00 0.0000000000000000e+00 0.0000000000000000e+00  0.0000000000000000e+00 0.0000000000000000e+00 0.0000000000000000e+00  0.0000000000000000e+00 0.0000000000000000e+00 0.0000000000000000e+00  0.0000000000000000e+00 0.0000000000000000e+00 0.0000000000000000e+00  0.0000000000000000e+00 0.0000000000000000e+00 0.0000000000000000e+00  0.0000000000000000e+00 0.0000000000000000e+00 0.0000000000000000e+00  0.0000000000000000e+00 0.0000000000000000e+00 0.0000000000000000e+00  0.0000000000000000e+00 0.0000000000000000e+00 0.0000000000000000e+00  0.0000000000000000e+00 0.0000000000000000e+00 0.0000000000000000e+00  0.0000000000000000e+00 0.0000000000000000e+00 0.0000000000000000e+00  0.0000000000000000e+00 0.0000000000000000e+00 0.0000000000000000e+00  0.0000000000000000e+00 0.0000000000000000e+00 0.0000000000000000e+00  0.0000000000000000e+00 0.0000000000000000e+00 0.0000000000000000e+00  0.0000000000000000e+00 0.0000000000000000e+00 0.0000000000000000e+00  0.0000000000000000e+00 0.0000000000000000e+00 0.0000000000000000e+00  0.0000000000000000e+00 0.0000000000000000e+00 0.0000000000000000e+00  0.0000000000000000e+00 0.0000000000000000e+00 0.0000000000000000e+00  0.0000000000000000e+00 0.0000000000000000e+00 0.0000000000000000e+00  0.0000000000000000e+00 0.0000000000000000e+00 0.0000000000000000e+00  0.0000000000000000e+00 0.0000000000000000e+00 0.0000000000000000e+00  0.0000000000000000e+00 0.0000000000000000e+00 0.0000000000000000e+00  0.0000000000000000e+00 0.0000000000000000e+00 0.0000000000000000e+00  0.0000000000000000e+00 0.0000000000000000e+00 0.0000000000000000e+00  0.0000000000000000e+00 0.0000000000000000e+00 0.0000000000000000e+00  0.0000000000000000e+00 0.0000000000000000e+00 0.0000000000000000e+00  0.0000000000000000e+00 0.0000000000000000e+00 0.0000000000000000e+00  0.0000000000000000e+00 0.0000000000000000e+00 0.0000000000000000e+00  0.0000000000000000e+00 0.0000000000000000e+00 0.0000000000000000e+00  0.0000000000000000e+00 0.0000000000000000e+00 0.0000000000000000e+00  0.0000000000000000e+00 0.0000000000000000e+00 0.0000000000000000e+00  0.0000000000000000e+00 0.0000000000000000e+00 0.0000000000000000e+00  0.0000000000000000e+00 0.0000000000000000e+00 0.0000000000000000e+00  0.0000000000000000e+00 0.0000000000000000e+00 0.0000000000000000e+00  0.0000000000000000e+00 0.0000000000000000e+00 0.0000000000000000e+00  0.0000000000000000e+00 0.0000000000000000e+00 0.0000000000000000e+00  0.0000000000000000e+00 0.0000000000000000e+00 0.0000000000000000e+00  0.0000000000000000e+00 0.0000000000000000e+00 0.0000000000000000e+00  0.0000000000000000e+00 0.0000000000000000e+00 0.0000000000000000e+00  0.0000000000000000e+00 0.0000000000000000e+00 0.0000000000000000e+00  0.0000000000000000e+00 0.0000000000000000e+00 0.0000000000000000e+00  0.0000000000000000e+00 0.0000000000000000e+00 0.0000000000000000e+00  0.0000000000000000e+00 0.0000000000000000e+00 0.0000000000000000e+00  0.0000000000000000e+00 0.0000000000000000e+00 0.0000000000000000e+00  0.0000000000000000e+00 0.0000000000000000e+00 0.0000000000000000e+00  0.0000000000000000e+00 0.0000000000000000e+00 0.0000000000000000e+00  0.0000000000000000e+00 0.0000000000000000e+00 0.0000000000000000e+00  0.0000000000000000e+00 0.0000000000000000e+00 0.0000000000000000e+00  0.0000000000000000e+00 0.0000000000000000e+00 0.0000000000000000e+00  0.0000000000000000e+00 0.0000000000000000e+00 0.0000000000000000e+00  0.0000000000000000e+00 0.0000000000000000e+00 0.0000000000000000e+00  0.0000000000000000e+00 0.0000000000000000e+00 0.0000000000000000e+00  0.0000000000000000e+00 0.0000000000000000e+00 0.0000000000000000e+00  0.0000000000000000e+00 0.0000000000000000e+00 0.0000000000000000e+00  0.0000000000000000e+00 0.0000000000000000e+00 0.0000000000000000e+00  0.0000000000000000e+00 0.0000000000000000e+00 0.0000000000000000e+00  0.0000000000000000e+00 0.0000000000000000e+00 0.0000000000000000e+00  0.0000000000000000e+00 0.0000000000000000e+00 0.0000000000000000e+00  0.0000000000000000e+00 0.0000000000000000e+00 0.0000000000000000e+00  0.0000000000000000e+00 0.0000000000000000e+00 0.0000000000000000e+00  0.0000000000000000e+00 0.0000000000000000e+00 0.0000000000000000e+00  0.0000000000000000e+00 0.0000000000000000e+00 0.0000000000000000e+00  0.0000000000000000e+00 0.0000000000000000e+00 0.0000000000000000e+00  0.0000000000000000e+00 0.0000000000000000e+00 0.0000000000000000e+00  0.0000000000000000e+00 0.0000000000000000e+00 0.0000000000000000e+00  0.0000000000000000e+00 0.0000000000000000e+00 0.0000000000000000e+00  0.0000000000000000e+00 0.0000000000000000e+00 0.0000000000000000e+00  0.0000000000000000e+00 0.0000000000000000e+00 0.0000000000000000e+00  0.0000000000000000e+00 0.0000000000000000e+00 0.0000000000000000e+00  0.0000000000000000e+00 0.0000000000000000e+00 0.0000000000000000e+00  0.0000000000000000e+00 0.0000000000000000e+00 0.0000000000000000e+00  0.0000000000000000e+00 0.0000000000000000e+00 0.0000000000000000e+00  0.0000000000000000e+00 0.0000000000000000e+00 0.0000000000000000e+00  0.0000000000000000e+00 0.0000000000000000e+00 0.0000000000000000e+00  0.0000000000000000e+00 0.0000000000000000e+00 0.0000000000000000e+00  0.0000000000000000e+00 0.0000000000000000e+00 0.0000000000000000e+00  0.0000000000000000e+00 0.0000000000000000e+00 0.0000000000000000e+00  0.0000000000000000e+00 0.0000000000000000e+00 0.0000000000000000e+00  0.0000000000000000e+00 0.0000000000000000e+00 0.0000000000000000e+00  0.0000000000000000e+00 0.0000000000000000e+00 0.0000000000000000e+00  0.0000000000000000e+00 0.0000000000000000e+00 0.0000000000000000e+00  0.0000000000000000e+00 0.0000000000000000e+00 0.0000000000000000e+00  0.0000000000000000e+00 0.0000000000000000e+00 0.0000000000000000e+00  0.0000000000000000e+00 0.0000000000000000e+00 0.0000000000000000e+00  0.0000000000000000e+00 0.0000000000000000e+00 0.0000000000000000e+00  0.0000000000000000e+00 0.0000000000000000e+00 0.0000000000000000e+00  -1.9643135882997160e-06 1.5043747467086257e-06 0.0000000000000000e+00  -4.1102981255277906e-06 4.6265930172092267e-06 0.0000000000000000e+00  -5.7534985846424643e-06 9.6090365562286852e-06 0.0000000000000000e+00  -7.4625230928239450e-06 1.6515451860496252e-05 0.0000000000000000e+00  -8.6576574817453174e-06 2.4884192677147675e-05 0.0000000000000000e+00  -1.0018569628167590e-05 3.4834287652933190e-05 0.0000000000000000e+00  -1.0883632718945126e-05 4.5891020368809915e-05 0.0000000000000000e+00  -1.1623975036805790e-05 5.8355619005326881e-05 0.0000000000000000e+00  -1.2523214839962398e-05 7.1836341039330044e-05 0.0000000000000000e+00  -1.2952748013325140e-05 8.6323192595667760e-05 0.0000000000000000e+00  -1.3590272537511321e-05 1.0176527672322277e-04 0.0000000000000000e+00  -1.3820515760890395e-05 1.1802696210466819e-04 0.0000000000000000e+00  -1.4182192945427252e-05 1.3505294422609839e-04 0.0000000000000000e+00  -1.4271585950322232e-05 1.5266262140728213e-04 0.0000000000000000e+00  -1.4296974244797973e-05 1.7096163694744983e-04 0.0000000000000000e+00  -1.4392173682880012e-05 1.8974831486982281e-04 0.0000000000000000e+00  -1.4258421663316173e-05 2.0901384444758139e-04 0.0000000000000000e+00  -1.4213946331663638e-05 2.2871479606205954e-04 0.0000000000000000e+00  -1.3981208894077218e-05 2.4878458469489525e-04 0.0000000000000000e+00  -1.3811537260327751e-05 2.6917270256776002e-04 0.0000000000000000e+00  -1.3523791048719940e-05 2.8985530098555109e-04 0.0000000000000000e+00  -1.3261828496471039e-05 3.1079286474559610e-04 0.0000000000000000e+00  -1.2917347888815481e-05 3.3190446774398818e-04 0.0000000000000000e+00  -1.2555680919133745e-05 3.5322734568113520e-04 0.0000000000000000e+00  -1.2211831656819285e-05 3.7467525485967838e-04 0.0000000000000000e+00  -1.1827012923128392e-05 3.9626857244468190e-04 0.0000000000000000e+00  -1.1445135884267632e-05 4.1795821598703583e-04 0.0000000000000000e+00  -1.1048838435340007e-05 4.3973613213170172e-04 0.0000000000000000e+00  -1.0657470886061378e-05 4.6157682114645200e-04 0.0000000000000000e+00  -1.0263098660258311e-05 4.8347681270054834e-04 0.0000000000000000e+00  -9.8771542505837318e-06 5.0540989040846827e-04 0.0000000000000000e+00  -9.4970332368397592e-06 5.2738201977218428e-04 0.0000000000000000e+00  -9.1292811193369664e-06 5.4936498816202854e-04 0.0000000000000000e+00  -8.7737191361957107e-06 5.7137419106626517e-04 0.0000000000000000e+00  -8.4355457797833819e-06 5.9337859989402159e-04 0.0000000000000000e+00  -8.1150540010456880e-06 6.1540167816624399e-04 0.0000000000000000e+00  -7.8145433916207861e-06 6.3741151096636498e-04 0.0000000000000000e+00  -7.5359957718823495e-06 6.5943615190071196e-04 0.0000000000000000e+00  -7.2806256720592789e-06 6.8144310127698506e-04 0.0000000000000000e+00  -7.0517977465862095e-06 7.0346539527857746e-04 0.0000000000000000e+00  -6.8532335788382131e-06 7.2547537794046219e-04 0.0000000000000000e+00  -6.6759956323754960e-06 7.4749043386404133e-04 0.0000000000000000e+00  -6.5283658966754647e-06 7.6950411652603075e-04 0.0000000000000000e+00  -6.3985541876009512e-06 7.9151978819690908e-04 0.0000000000000000e+00  -6.3011742970923674e-06 8.1354900656085505e-04 0.0000000000000000e+00  -6.2002978157464791e-06 8.3554910112953161e-04 0.0000000000000000e+00  8.4535912610714415e-06 8.5758195214906657e-04 0.0000000000000000e+00  3.7899802673988004e-05 8.5791114914736573e-04 0.0000000000000000e+00  5.2680777574452496e-05 8.3596998172843183e-04 0.0000000000000000e+00  5.2583564150476471e-05 8.1400312492948916e-04 0.0000000000000000e+00  5.2485232901890139e-05 7.9205770089094791e-04 0.0000000000000000e+00  5.2355687891241672e-05 7.7010019029213981e-04 0.0000000000000000e+00  5.2209439219902230e-05 7.4814258744324176e-04 0.0000000000000000e+00  5.2033257586435324e-05 7.2618426633210063e-04 0.0000000000000000e+00  5.1836012069288849e-05 7.0421864671081440e-04 0.0000000000000000e+00  5.1609305589989857e-05 6.8226288398167811e-04 0.0000000000000000e+00  5.1356567701288615e-05 6.6028653392646820e-04 0.0000000000000000e+00  5.1077981851657736e-05 6.3832700577182080e-04 0.0000000000000000e+00  5.0771740677906824e-05 6.1634707301311405e-04 0.0000000000000000e+00  5.0440099250091027e-05 5.9438674761354380e-04 0.0000000000000000e+00  5.0077037722404683e-05 5.7241079079533175e-04 0.0000000000000000e+00  4.9689171396803954e-05 5.5046148033921472e-04 0.0000000000000000e+00  4.9263616712973704e-05 5.2850578876971835e-04 0.0000000000000000e+00  4.8814404587625098e-05 5.0659010376238249e-04 0.0000000000000000e+00  4.8318016865496867e-05 4.8468311376126828e-04 0.0000000000000000e+00  4.7801484368658950e-05 4.6283576416098420e-04 0.0000000000000000e+00  4.7225482055353719e-05 4.4101942115098395e-04 0.0000000000000000e+00  4.6634551649051642e-05 4.1928992862940790e-04 0.0000000000000000e+00  4.5965996097852223e-05 3.9762263254469174e-04 0.0000000000000000e+00  4.5289429084259388e-05 3.7607951361591144e-04 0.0000000000000000e+00  4.4513435650491246e-05 3.5464949649085717e-04 0.0000000000000000e+00  4.3731586865048899e-05 3.3336102116459651e-04 0.0000000000000000e+00  4.2897360194752178e-05 3.1227921946872178e-04 0.0000000000000000e+00  4.1962680963075257e-05 2.9135834592248654e-04 0.0000000000000000e+00  4.0998422382177089e-05 2.7072035997611468e-04 0.0000000000000000e+00  3.9931529177126876e-05 2.5032687994873491e-04 0.0000000000000000e+00  3.8827813236654504e-05 2.3029430295298228e-04 0.0000000000000000e+00  3.7609520233745146e-05 2.1059561026986313e-04 0.0000000000000000e+00  3.6353936390992011e-05 1.9133264132546729e-04 0.0000000000000000e+00  3.4903982134606553e-05 1.7258483547879654e-04 0.0000000000000000e+00  3.3503905967082585e-05 1.5428725067815106e-04 0.0000000000000000e+00  3.2021247909636034e-05 1.3669389485447509e-04 0.0000000000000000e+00  3.0292603552356894e-05 1.1961910163217546e-04 0.0000000000000000e+00  2.8557293563569912e-05 1.0338995738599335e-04 0.0000000000000000e+00  2.6619875717451835e-05 8.7928891654440091e-05 0.0000000000000000e+00  2.4658300907525822e-05 7.3396016218455656e-05 0.0000000000000000e+00  2.2348028277157780e-05 5.9963529103315599e-05 0.0000000000000000e+00  2.0180762271143250e-05 4.7465811140556348e-05 0.0000000000000000e+00  1.7898312201717604e-05 3.6393737068447152e-05 0.0000000000000000e+00  1.5158910745990059e-05 2.6378160525092053e-05 0.0000000000000000e+00  1.2498614956403060e-05 1.7969799654772930e-05 0.0000000000000000e+00  9.3967419405159789e-06 1.1146629684673974e-05 0.0000000000000000e+00  6.4729540619585624e-06 6.0901235361791942e-06 0.0000000000000000e+00  3.1042020072639995e-06 2.8244017748939123e-06 0.0000000000000000e+00  7.6319696755682629e-07 2.4003124909834357e-06 0.0000000000000000e+00  2.2710727037512521e-05 8.2471602049718898e-04 0.0000000000000000e+00  2.2349170766178527e-05 7.8269332368412442e-04 0.0000000000000000e+00  2.2117900863855659e-05 7.1404649812980431e-04 0.0000000000000000e+00  2.1922505810963559e-06 1.2493692536413130e-05 0.0000000000000000e+00  2.1996307885852590e-05 6.7085775693014320e-04 0.0000000000000000e+00  3.6936684809952158e-06 2.8682503015458175e-05 0.0000000000000000e+00  2.1440784841561666e-05 6.2686995975871559e-04 0.0000000000000000e+00  5.9921919572617132e-06 6.5611379482842603e-05 0.0000000000000000e+00  7.1457117836903972e-06 9.4171407647335474e-05 0.0000000000000000e+00  2.0789104519444173e-05 5.8288053799575399e-04 0.0000000000000000e+00  1.0996668793460136e-05 1.8155313108704900e-04 0.0000000000000000e+00  1.9213309528562724e-05 4.9500978308544168e-04 0.0000000000000000e+00  8.7952720568475951e-06 1.2540064561256573e-04 0.0000000000000000e+00  1.1966638867112541e-05 2.1934201508554929e-04 0.0000000000000000e+00  1.8297144933659744e-05 4.5124188711178172e-04 0.0000000000000000e+00  2.0045352422189524e-05 5.3891257484729510e-04 0.0000000000000000e+00  1.3257364503885295e-05 2.5950730677652955e-04 0.0000000000000000e+00  1.7301792905407679e-05 4.0770810061901118e-04 0.0000000000000000e+00  1.4812283696129758e-05 2.9919996654134012e-04 0.0000000000000000e+00  1.5890669714809798e-05 3.6542202112448504e-04 0.0000000000000000e+00  1.5336545218708990e-05 3.3080326088202519e-04 0.0000000000000000e+00  9.4949732949876324e-06 1.5160716450917695e-04 0.0000000000000000e+00  2.2784348268922386e-05 7.4974178445064274e-04 0.0000000000000000e+00  4.6055203611389327e-06 4.5116713446810988e-05 0.0000000000000000e+00  3.2888906785787301e-05 8.0363392445652630e-04 0.0000000000000000e+00  3.7909971675259119e-06 6.9441760238988632e-06 0.0000000000000000e+00  3.0296130457808831e-05 6.4899332506978700e-04 0.0000000000000000e+00  3.0802461793696470e-05 6.9296284693599680e-04 0.0000000000000000e+00  -9.5140510565692625e-07 2.0044176755311349e-05 0.0000000000000000e+00  8.4838698005815749e-07 7.8979582993833497e-05 0.0000000000000000e+00  2.8180119857782165e-05 5.1711971660138014e-04 0.0000000000000000e+00  2.9690075870505051e-05 6.0501708962408117e-04 0.0000000000000000e+00  3.8428781611866835e-06 1.9963223363122270e-04 0.0000000000000000e+00  2.7275013040636996e-05 4.7328770785517803e-04 0.0000000000000000e+00  1.6090461685064903e-06 1.0991761988972928e-04 0.0000000000000000e+00  4.8499867373993208e-06 2.3905909988152790e-04 0.0000000000000000e+00  2.6268022163468655e-05 4.2963603894240665e-04 0.0000000000000000e+00  2.8984742836908256e-05 5.6104842750842230e-04 0.0000000000000000e+00  4.1075385971557425e-06 2.7959105839228297e-04 0.0000000000000000e+00  2.5159125372149176e-05 3.8628054215369956e-04 0.0000000000000000e+00  -1.4224797722090565e-07 4.0895290665332061e-07 0.0000000000000000e+00  6.7239559119673453e-07 6.8464811730831706e-07 0.0000000000000000e+00  1.5954403832087148e-05 8.4195745160037532e-04 0.0000000000000000e+00  -1.0889806275123139e-06 6.3602896775155242e-06 0.0000000000000000e+00  2.6031766879510644e-05 3.4821178736662206e-04 0.0000000000000000e+00  1.8898123389549582e-05 1.667