<?xml version="1.0"?>
<VTKFile type="UnstructuredGrid"  version="0.1"  >
<UnstructuredGrid>
<Piece  NumberOfPoints="1419" NumberOfCells="2698">
<Points>
<DataArray  type="Float64"  NumberOfComponents="3"  format="ascii">0 0 0  0 0.41 0  2.5 0 0  2.5 0.41 0  0.6 0.19 0  0.6 0.21 0  0.25 0.2 0  0.15 0.2 0  0.2489897948556636 0.21 0  0.2489897948556636 0.19 0  0.6 0.2 0  0 0.3807142857143437 0  0 0.3514285714286952 0  0 0.3221428571430699 0  0 0.29285714285744 0  0 0.2635714285718054 0  0 0.2342857142861561 0  0 0.2050000000005308 0  0 0.175714285714732 0  0 0.1464285714289574 0  0 0.1171428571431897 0  0 0.08785714285737878 0  0 0.05857142857161107 0  0 0.02928571428580012 0  0.03015443760436003 0 0  0.06140001986583606 0 0  0.09377624077125973 0 0  0.1273239957535082 0 0  0.1620856860351972 0 0  0.1981052433264291 0 0  0.235428184091502 0 0  0.2741016576309132 0 0  0.3141745521465447 0 0  0.3556974926295285 0 0  0.3987229542472677 0 0  0.4433053055141081 0 0  0.4895008759286886 0 0  0.5373680609405097 0 0  0.5869673343216626 0 0  0.6383613676634521 0 0  0.6916151138468254 0 0  0.7467958595648856 0 0  0.8039733463919316 0 0  0.8632198139502143 0 0  0.9246101326867038 0 0  0.9882218810934433 0 0  1.054135445558498 0 0  1.122434100542598 0 0  1.193204177141305 0 0  1.266535089879536 0 0  1.342519516046404 0 0  1.421253448503939 0 0  1.502836389106271 0 0  1.587371439758838 0 0  1.674965418777374 0 0  1.765729001825544 0 0  1.859776908880082 0 0  1.957227977487062 0 0  2.058205329869943 0 0  2.162836591189951 0 0  2.271253957290865 0 0  2.383594446803425 0 0  2.5 0.1024999999997612 0  2.5 0.2049999999994743 0  2.5 0.3074999999997183 0  2.383594446803656 0.41 0  2.271253957291315 0.41 0  2.162836591190598 0.41 0  2.058205329870775 0.41 0  1.957227977488067 0.41 0  1.859776908881246 0.41 0  1.765729001826854 0.41 0  1.674965418778818 0.41 0  1.58737143976041 0.41 0  1.502836389107956 0.41 0  1.421253448505726 0.41 0  1.342519516048286 0.41 0  1.266535089881505 0.41 0  1.193204177143353 0.41 0  1.122434100544716 0.41 0  1.05413544556068 0.41 0  0.9882218810956305 0.41 0  0.9246101326886647 0.41 0  0.8632198139519631 0.41 0  0.8039733463934788 0.41 0  0.7467958595662458 0.41 0  0.6916151138480078 0.41 0  0.6383613676644679 0.41 0  0.5869673343225223 0.41 0  0.5373680609412221 0.41 0  0.4895008759292634 0.41 0  0.4433053055145528 0.41 0  0.3987229542475914 0.41 0  0.3556974926297398 0.41 0  0.3141745521466497 0.41 0  0.2741016576310038 0.41 0  0.2354281840915826 0.41 0  0.1981052433265003 0.41 0  0.1620856860352591 0.41 0  0.1273239957535623 0.41 0  0.09377624077128965 0.41 0  0.06140001986584975 0.41 0  0.03015443760436654 0.41 0  0.2497468076502589 0.2050254481002335 0  0.2497468076502614 0.1949745518997913 0  0.2469965252529372 0.1829317073451959 0  0.2439893735792749 0.1762316384219906 0  0.2400332147834255 0.1700443375285386 0  0.2352133972704371 0.1645032867342007 0  0.2296339016332438 0.1597280261969788 0  0.2234150974217223 0.1558215752574715 0  0.2166911463437691 0.1528682099456123 0  0.2096071079204251 0.1509316448471593 0  0.2023158100364996 0.1500536585536553 0  0.194974551899914 0.1502531923497262 0  0.1877417105387872 0.1515259415822739 0  0.1807733240461124 0.153844448527136 0  0.1742197252835808 0.15715869474974 0  0.1682222986673531 0.1613971801805478 0  0.162910430003803 0.1664684656256651 0  0.1583987151779087 0.1722631454351573 0  0.1547844879126891 0.178656207771761 0  0.1521457199348551 0.1855097315605723 0  0.1505393388476355 0.1926758619366523 0  0.1505393388476328 0.2073241380633295 0  0.1521457199348437 0.2144902684393899 0  0.1547844879126531 0.221343792228163 0  0.1583987151778488 0.2277368545647528 0  0.1629104300036858 0.2335315343742052 0  0.1682222986671726 0.2386028198193036 0  0.1742197252833576 0.2428413052501257 0  0.1807733240458683 0.2461555514727623 0  0.1877417105384929 0.2484740584176516 0  0.1949745518995776 0.2497468076502398 0  0.202315810036185 0.2499463414463592 0  0.2096071079201568 0.2490683551528932 0  0.2166911463435495 0.2471317900544655 0  0.2234150974215506 0.2441784247426195 0  0.2296339016331197 0.2402719738031125 0  0.2352133972703547 0.2354967132658811 0  0.2400332147833751 0.2299556624715287 0  0.2439893735792577 0.2237683615780412 0  0.246996525252926 0.2170682926548348 0  0.25645809709277 0.21 0  0.2639263993298655 0.21 0  0.271394701566961 0.21 0  0.2788630038040554 0.21 0  0.2863313060411479 0.21 0  0.2937996082782405 0.21 0  0.301267910515333 0.21 0  0.3087362127524279 0.21 0  0.3162045149895234 0.21 0  0.3236728172265972 0.21 0  0.3311411194636928 0.21 0  0.3386094217007701 0.21 0  0.3460777239378666 0.21 0  0.3535460261749672 0.21 0  0.3610143284120516 0.21 0  0.3684826306491596 0.21 0  0.3759509328862226 0.21 0  0.383419235123329 0.21 0  0.3908875373604028 0.21 0  0.3983558395975142 0.21 0  0.4058241418345938 0.21 0  0.4132924440716992 0.21 0  0.4207607463087888 0.21 0  0.4282290485459029 0.21 0  0.4356973507830418 0.21 0  0.4431656530201649 0.21 0  0.4506339552573136 0.21 0  0.4581022574944306 0.21 0  0.4655705597315852 0.21 0  0.4730388619686996 0.21 0  0.480507164205851 0.21 0  0.4879754664429498 0.21 0  0.4954437686800938 0.21 0  0.502912070917267 0.21 0  0.5103803731544119 0.21 0  0.5178486753915261 0.21 0  0.5253169776286404 0.21 0  0.5327852798657868 0.21 0  0.5402535821029386 0.21 0  0.54772188434007 0.21 0  0.5551901865771842 0.21 0  0.5626584888143201 0.21 0  0.5701267910514778 0.21 0  0.5775950932886138 0.21 0  0.5850633955257281 0.21 0  0.5925316977628483 0.21 0  0.6 0.2050000000000054 0  0.6 0.1950000000000217 0  0.5925316977628897 0.19 0  0.5850633955257988 0.19 0  0.5775950932887378 0.19 0  0.5701267910515998 0.19 0  0.5626584888145268 0.19 0  0.5551901865773963 0.19 0  0.547721884340339 0.19 0  0.5402535821032429 0.19 0  0.5327852798661811 0.19 0  0.5253169776290537 0.19 0  0.5178486753919799 0.19 0  0.5103803731549078 0.19 0  0.502912070917822 0.19 0  0.4954437686807294 0.19 0  0.4879754664436223 0.19 0  0.4805071642065402 0.19 0  0.4730388619694271 0.19 0  0.4655705597323621 0.19 0  0.4581022574952563 0.19 0  0.4506339552581777 0.19 0  0.4431656530210671 0.19 0  0.4356973507839815 0.19 0  0.4282290485468779 0.19 0  0.4207607463097617 0.19 0  0.4132924440726327 0.19 0  0.4058241418354857 0.19 0  0.3983558395983636 0.19 0  0.3908875373612097 0.19 0  0.3834192351240934 0.19 0  0.3759509328869369 0.19 0  0.3684826306498175 0.19 0  0.361014328412667 0.19 0  0.3535460261755617 0.19 0  0.3460777239384295 0.19 0  0.3386094217012945 0.19 0  0.3311411194641595 0.19 0  0.3236728172270245 0.19 0  0.3162045149898895 0.19 0  0.3087362127527544 0.19 0  0.3012679105156187 0.19 0  0.2937996082784807 0.19 0  0.2863313060413428 0.19 0  0.2788630038042048 0.19 0  0.2713947015670686 0.19 0  0.2639263993299336 0.19 0  0.2564580970927985 0.19 0  0.2607803159922026 0.2000727136295815 0  0.5887803774232762 0.2001272386983733 0  0.5745072403740523 0.2002044435018727 0  0.5511891430099709 0.2001122610077113 0  0.2751288526855082 0.20000000000002 0  0.5365194309847112 0.1999999999999436 0  0.2894621222999649 0.1998691686390484 0  0.5215828265105155 0.1999999999999228 0  0.3127789816668748 0.1998657885438805 0  0.3274069683451451 0.2000000000000796 0  0.5066462220363641 0.199999999999908 0  0.3650630746574081 0.199866017807523 0  0.476773013087985 0.1999999999998713 0  0.3417402379596385 0.1998691686391011 0  0.3796850840047755 0.200000000000134 0  0.4618364086138087 0.1999999999998546 0  0.4917096175621762 0.1999999999998808 0  0.3946216884789568 0.2000000000001512 0  0.446899804139621 0.1999999999998389 0  0.4089549580935208 0.1998691686391595 0  0.4322718174608562 0.200127451265745 0  0.4201487168029707 0.1999966199048527 0  0.3528922713220932 0.2000185703532356 0  0.5633122436674589 0.1999814296467508 0  0.3006558810093873 0.1999966199048318 0  0.5815926498168407 0.1966545283159175 0  0.2677053789419034 0.1964246479135325 0  0.5290511287476175 0.1970915826863981 0  0.5439877332217911 0.197091582686394 0  0.2825131256993216 0.2035478995978015 0  0.3199386661080599 0.202908417313604 0  0.4842413153250809 0.1970915826863873 0  0.5141145242734466 0.1970915826863843 0  0.3722167817676917 0.2029084173136195 0  0.4693047108508938 0.1970915826863783 0  0.3348752705822316 0.202908417313609 0  0.3871533862418661 0.2029084173136212 0  0.4543681063767183 0.1970915826863795 0  0.4991779197992749 0.1970915826863902 0  0.4020059614928624 0.203547899597858 0  0.4394315019025246 0.1970915826863714 0  0.2550657455369551 0.2034088125358657 0  0.2548908499171161 0.1966940311614271 0  0.5946539510196798 0.2024302972968126 0  0.267698176732111 0.2039977513680092 0  0.4261685417851465 0.196409292431739 0  0.3590076176283495 0.196411355804271 0  0.5571672426447437 0.2036011176410121 0  0.3066757059912147 0.1964092924317024 0  0.594380730180568 0.1966558399668133 0  0.4842413153245942 0.2040749161535287 0  0.4693047108503577 0.2040749161535231 0  0.3871533862424271 0.1959250838464788 0  0.372246743208829 0.1959123236376545 0  0.5141145242731028 0.2040749161535395 0  0.4543681063761134 0.2040749161535186 0  0.4019979587101454 0.1959834479682427 0  0.4394608940728603 0.2040870543693135 0  0.5439623148931173 0.2040856076781014 0  0.5290511287473298 0.2040749161535501 0  0.4991779197988497 0.2040749161535382 0  0.3347912413592433 0.1959225448935183 0  0.3199680582793816 0.1959123018030061 0  0.2825051229162361 0.1959834479681729 0  0.3590471196690275 0.2036304442587945 0  0.5571594006495384 0.1963685282145804 0  0.3067669986803285 0.203627750582736 0  0.4262598344738712 0.2036568242185335 0  0.5814408164431408 0.2041285596160068 0  0.5688286748170428 0.1961819304477386 0  0.4145905603063645 0.2038180695522843 0  0.3473758401724931 0.2038180695522752 0  0.2950977245128307 0.2038180695522663 0  0.5688286748170693 0.203818069552238 0  0.2950977245127906 0.1961819304477774 0  0.3473758401723931 0.1961819304478349 0  0.4145905603061963 0.1961819304479011 0  0.2601812407614425 0.2056861609747042
[...]
<PointData  Vectors="f_40-1"> 
<DataArray  type="Float64"  Name="f_40-1"  NumberOfComponents="3" format="ascii">0.0000000000000000e+00 0.0000000000000000e+00 0.0000000000000000e+00  0.0000000000000000e+00 0.0000000000000000e+00 0.0000000000000000e+00  0.0000000000000000e+00 0.0000000000000000e+00 0.0000000000000000e+00  0.0000000000000000e+00 0.0000000000000000e+00 0.0000000000000000e+00  1.0487432730997150e-05 -2.5646299131903223e-04 0.0000000000000000e+00  3.0540924907588427e-05 -2.5818554126418264e-04 0.0000000000000000e+00  0.0000000000000000e+00 0.0000000000000000e+00 0.0000000000000000e+00  0.0000000000000000e+00 0.0000000000000000e+00 0.0000000000000000e+00  0.0000000000000000e+00 0.0000000000000000e+00 0.0000000000000000e+00  0.0000000000000000e+00 0.0000000000000000e+00 0.0000000000000000e+00  2.0217741283607793e-05 -2.5732397044680094e-04 0.0000000000000000e+00  0.0000000000000000e+00 0.0000000000000000e+00 0.0000000000000000e+00  0.0000000000000000e+00 0.0000000000000000e+00 0.0000000000000000e+00  0.0000000000000000e+00 0.0000000000000000e+00 0.0000000000000000e+00  0.0000000000000000e+00 0.0000000000000000e+00 0.0000000000000000e+00  0.0000000000000000e+00 0.0000000000000000e+00 0.0000000000000000e+00  0.0000000000000000e+00 0.0000000000000000e+00 0.0000000000000000e+00  0.0000000000000000e+00 0.0000000000000000e+00 0.0000000000000000e+00  0.0000000000000000e+00 0.0000000000000000e+00 0.0000000000000000e+00  0.0000000000000000e+00 0.0000000000000000e+00 0.0000000000000000e+00  0.0000000000000000e+00 0.0000000000000000e+00 0.0000000000000000e+00  0.0000000000000000e+00 0.0000000000000000e+00 0.0000000000000000e+00  0.0000000000000000e+00 0.0000000000000000e+00 0.0000000000000000e+00  0.0000000000000000e+00 0.0000000000000000e+00 0.0000000000000000e+00  0.0000000000000000e+00 0.0000000000000000e+00 0.0000000000000000e+00  0.0000000000000000e+00 0.0000000000000000e+00 0.0000000000000000e+00  0.0000000000000000e+00 0.0000000000000000e+00 0.0000000000000000e+00  0.0000000000000000e+00 0.0000000000000000e+00 0.0000000000000000e+00  0.0000000000000000e+00 0.0000000000000000e+00 0.0000000000000000e+00  0.0000000000000000e+00 0.0000000000000000e+00 0.0000000000000000e+00  0.0000000000000000e+00 0.0000000000000000e+00 0.0000000000000000e+00  0.0000000000000000e+00 0.0000000000000000e+00 0.0000000000000000e+00  0.0000000000000000e+00 0.0000000000000000e+00 0.0000000000000000e+00  0.0000000000000000e+00 0.0000000000000000e+00 0.0000000000000000e+00  0.0000000000000000e+00 0.0000000000000000e+00 0.0000000000000000e+00  0.0000000000000000e+00 0.0000000000000000e+00 0.0000000000000000e+00  0.0000000000000000e+00 0.0000000000000000e+00 0.0000000000000000e+00  0.0000000000000000e+00 0.0000000000000000e+00 0.0000000000000000e+00  0.0000000000000000e+00 0.0000000000000000e+00 0.0000000000000000e+00  0.0000000000000000e+00 0.0000000000000000e+00 0.0000000000000000e+00  0.0000000000000000e+00 0.0000000000000000e+00 0.0000000000000000e+00  0.0000000000000000e+00 0.0000000000000000e+00 0.0000000000000000e+00  0.0000000000000000e+00 0.0000000000000000e+00 0.0000000000000000e+00  0.0000000000000000e+00 0.0000000000000000e+00 0.0000000000000000e+00  0.0000000000000000e+00 0.0000000000000000e+00 0.0000000000000000e+00  0.0000000000000000e+00 0.0000000000000000e+00 0.0000000000000000e+00  0.0000000000000000e+00 0.0000000000000000e+00 0.0000000000000000e+00  0.0000000000000000e+00 0.0000000000000000e+00 0.0000000000000000e+00  0.0000000000000000e+00 0.0000000000000000e+00 0.0000000000000000e+00  0.0000000000000000e+00 0.0000000000000000e+00 0.0000000000000000e+00  0.0000000000000000e+00 0.0000000000000000e+00 0.0000000000000000e+00  0.0000000000000000e+00 0.0000000000000000e+00 0.0000000000000000e+00  0.0000000000000000e+00 0.0000000000000000e+00 0.0000000000000000e+00  0.0000000000000000e+00 0.0000000000000000e+00 0.0000000000000000e+00  0.0000000000000000e+00 0.0000000000000000e+00 0.0000000000000000e+00  0.0000000000000000e+00 0.0000000000000000e+00 0.0000000000000000e+00  0.0000000000000000e+00 0.0000000000000000e+00 0.0000000000000000e+00  0.0000000000000000e+00 0.0000000000000000e+00 0.0000000000000000e+00  0.0000000000000000e+00 0.0000000000000000e+00 0.0000000000000000e+00  0.0000000000000000e+00 0.0000000000000000e+00 0.0000000000000000e+00  0.0000000000000000e+00 0.0000000000000000e+00 0.0000000000000000e+00  0.0000000000000000e+00 0.0000000000000000e+00 0.0000000000000000e+00  0.0000000000000000e+00 0.0000000000000000e+00 0.0000000000000000e+00  0.0000000000000000e+00 0.0000000000000000e+00 0.0000000000000000e+00  0.0000000000000000e+00 0.0000000000000000e+00 0.0000000000000000e+00  0.0000000000000000e+00 0.0000000000000000e+00 0.0000000000000000e+00  0.0000000000000000e+00 0.0000000000000000e+00 0.0000000000000000e+00  0.0000000000000000e+00 0.0000000000000000e+00 0.0000000000000000e+00  0.0000000000000000e+00 0.0000000000000000e+00 0.0000000000000000e+00  0.0000000000000000e+00 0.0000000000000000e+00 0.0000000000000000e+00  0.0000000000000000e+00 0.0000000000000000e+00 0.0000000000000000e+00  0.0000000000000000e+00 0.0000000000000000e+00 0.0000000000000000e+00  0.0000000000000000e+00 0.0000000000000000e+00 0.0000000000000000e+00  0.0000000000000000e+00 0.0000000000000000e+00 0.0000000000000000e+00  0.0000000000000000e+00 0.0000000000000000e+00 0.0000000000000000e+00  0.0000000000000000e+00 0.0000000000000000e+00 0.0000000000000000e+00  0.0000000000000000e+00 0.0000000000000000e+00 0.0000000000000000e+00  0.0000000000000000e+00 0.0000000000000000e+00 0.0000000000000000e+00  0.0000000000000000e+00 0.0000000000000000e+00 0.0000000000000000e+00  0.0000000000000000e+00 0.0000000000000000e+00 0.0000000000000000e+00  0.0000000000000000e+00 0.0000000000000000e+00 0.0000000000000000e+00  0.0000000000000000e+00 0.0000000000000000e+00 0.0000000000000000e+00  0.0000000000000000e+00 0.0000000000000000e+00 0.0000000000000000e+00  0.0000000000000000e+00 0.0000000000000000e+00 0.0000000000000000e+00  0.0000000000000000e+00 0.0000000000000000e+00 0.0000000000000000e+00  0.0000000000000000e+00 0.0000000000000000e+00 0.0000000000000000e+00  0.0000000000000000e+00 0.0000000000000000e+00 0.0000000000000000e+00  0.0000000000000000e+00 0.0000000000000000e+00 0.0000000000000000e+00  0.0000000000000000e+00 0.0000000000000000e+00 0.0000000000000000e+00  0.0000000000000000e+00 0.0000000000000000e+00 0.0000000000000000e+00  0.0000000000000000e+00 0.0000000000000000e+00 0.0000000000000000e+00  0.0000000000000000e+00 0.0000000000000000e+00 0.0000000000000000e+00  0.0000000000000000e+00 0.0000000000000000e+00 0.0000000000000000e+00  0.0000000000000000e+00 0.0000000000000000e+00 0.0000000000000000e+00  0.0000000000000000e+00 0.0000000000000000e+00 0.0000000000000000e+00  0.0000000000000000e+00 0.0000000000000000e+00 0.0000000000000000e+00  0.0000000000000000e+00 0.0000000000000000e+00 0.0000000000000000e+00  0.0000000000000000e+00 0.0000000000000000e+00 0.0000000000000000e+00  0.0000000000000000e+00 0.0000000000000000e+00 0.0000000000000000e+00  0.0000000000000000e+00 0.0000000000000000e+00 0.0000000000000000e+00  0.0000000000000000e+00 0.0000000000000000e+00 0.0000000000000000e+00  0.0000000000000000e+00 0.0000000000000000e+00 0.0000000000000000e+00  0.0000000000000000e+00 0.0000000000000000e+00 0.0000000000000000e+00  0.0000000000000000e+00 0.0000000000000000e+00 0.0000000000000000e+00  0.0000000000000000e+00 0.0000000000000000e+00 0.0000000000000000e+00  0.0000000000000000e+00 0.0000000000000000e+00 0.0000000000000000e+00  0.0000000000000000e+00 0.0000000000000000e+00 0.0000000000000000e+00  0.0000000000000000e+00 0.0000000000000000e+00 0.0000000000000000e+00  0.0000000000000000e+00 0.0000000000000000e+00 0.0000000000000000e+00  0.0000000000000000e+00 0.0000000000000000e+00 0.0000000000000000e+00  0.0000000000000000e+00 0.0000000000000000e+00 0.0000000000000000e+00  0.0000000000000000e+00 0.0000000000000000e+00 0.0000000000000000e+00  0.0000000000000000e+00 0.0000000000000000e+00 0.0000000000000000e+00  0.0000000000000000e+00 0.0000000000000000e+00 0.0000000000000000e+00  0.0000000000000000e+00 0.0000000000000000e+00 0.0000000000000000e+00  0.0000000000000000e+00 0.0000000000000000e+00 0.0000000000000000e+00  0.0000000000000000e+00 0.0000000000000000e+00 0.0000000000000000e+00  0.0000000000000000e+00 0.0000000000000000e+00 0.0000000000000000e+00  0.0000000000000000e+00 0.0000000000000000e+00 0.0000000000000000e+00  0.0000000000000000e+00 0.0000000000000000e+00 0.0000000000000000e+00  0.0000000000000000e+00 0.0000000000000000e+00 0.0000000000000000e+00  0.0000000000000000e+00 0.0000000000000000e+00 0.0000000000000000e+00  0.0000000000000000e+00 0.0000000000000000e+00 0.0000000000000000e+00  0.0000000000000000e+00 0.0000000000000000e+00 0.0000000000000000e+00  0.0000000000000000e+00 0.0000000000000000e+00 0.0000000000000000e+00  0.0000000000000000e+00 0.0000000000000000e+00 0.0000000000000000e+00  0.0000000000000000e+00 0.0000000000000000e+00 0.0000000000000000e+00  0.0000000000000000e+00 0.0000000000000000e+00 0.0000000000000000e+00  0.0000000000000000e+00 0.0000000000000000e+00 0.0000000000000000e+00  0.0000000000000000e+00 0.0000000000000000e+00 0.0000000000000000e+00  0.0000000000000000e+00 0.0000000000000000e+00 0.0000000000000000e+00  0.0000000000000000e+00 0.0000000000000000e+00 0.0000000000000000e+00  0.0000000000000000e+00 0.0000000000000000e+00 0.0000000000000000e+00  0.0000000000000000e+00 0.0000000000000000e+00 0.0000000000000000e+00  0.0000000000000000e+00 0.0000000000000000e+00 0.0000000000000000e+00  0.0000000000000000e+00 0.0000000000000000e+00 0.0000000000000000e+00  0.0000000000000000e+00 0.0000000000000000e+00 0.0000000000000000e+00  0.0000000000000000e+00 0.0000000000000000e+00 0.0000000000000000e+00  0.0000000000000000e+00 0.0000000000000000e+00 0.0000000000000000e+00  0.0000000000000000e+00 0.0000000000000000e+00 0.0000000000000000e+00  0.0000000000000000e+00 0.0000000000000000e+00 0.0000000000000000e+00  0.0000000000000000e+00 0.0000000000000000e+00 0.0000000000000000e+00  0.0000000000000000e+00 0.0000000000000000e+00 0.0000000000000000e+00  1.1530035466276495e-06 -2.2401365862782392e-06 0.0000000000000000e+00  2.4725481923036011e-06 -2.9305256477053287e-06 0.0000000000000000e+00  3.8547573987977591e-06 -3.8920258908875007e-06 0.0000000000000000e+00  5.3393059395867756e-06 -5.1957578752912684e-06 0.0000000000000000e+00  6.7547876910118979e-06 -6.8483939907918123e-06 0.0000000000000000e+00  8.2328795377209972e-06 -8.8993507442190935e-06 0.0000000000000000e+00  9.5978327378462506e-06 -1.1237978837028407e-05 0.0000000000000000e+00  1.0937451543438403e-05 -1.3962159307596677e-05 0.0000000000000000e+00  1.2335012180934224e-05 -1.6985896134615865e-05 0.0000000000000000e+00  1.3588551863670819e-05 -2.0313538187462979e-05 0.0000000000000000e+00  1.4912244041719323e-05 -2.3966327278546004e-05 0.0000000000000000e+00  1.6089940492564610e-05 -2.7893050483831700e-05 0.0000000000000000e+00  1.7308041619824951e-05 -3.2111209190396896e-05 0.0000000000000000e+00  1.8413439200161077e-05 -3.6558540720527013e-05 0.0000000000000000e+00  1.9476128874533452e-05 -4.1288953579220498e-05 0.0000000000000000e+00  2.0560811804845402e-05 -4.6242129664467276e-05 0.0000000000000000e+00  2.1518698848901752e-05 -5.1403789227337592e-05 0.0000000000000000e+00  2.2501955469621194e-05 -5.6804687409436665e-05 0.0000000000000000e+00  2.3365154571971044e-05 -6.2377920491748270e-05 0.0000000000000000e+00  2.4241810141806962e-05 -6.8157151132333744e-05 0.0000000000000000e+00  2.5022521994059016e-05 -7.4091407399403607e-05 0.0000000000000000e+00  2.5788381746188220e-05 -8.0207731060321776e-05 0.0000000000000000e+00  2.6476612851285198e-05 -8.6446843745739934e-05 0.0000000000000000e+00  2.7118349127948137e-05 -9.2842319855902726e-05 0.0000000000000000e+00  2.7751736242469428e-05 -9.9352633225908524e-05 0.0000000000000000e+00  2.8308713878997858e-05 -1.0597325691453031e-04 0.0000000000000000e+00  2.8829633630056089e-05 -1.1272338680793658e-04 0.0000000000000000e+00  2.9295729003731106e-05 -1.1954104569243796e-04 0.0000000000000000e+00  2.9725056878693915e-05 -1.2647130304240073e-04 0.0000000000000000e+00  3.0103268111222740e-05 -1.3345246051070701e-04 0.0000000000000000e+00  3.0444419985568721e-05 -1.4052797761184143e-04 0.0000000000000000e+00  3.0736754396680208e-05 -1.4763799812502300e-04 0.0000000000000000e+00  3.0992631955782447e-05 -1.5482696394822647e-04 0.0000000000000000e+00  3.1201748739119555e-05 -1.6203564084235129e-04 0.0000000000000000e+00  3.1373043774639064e-05 -1.6931112383783084e-04 0.0000000000000000e+00  3.1501025509644448e-05 -1.7659544779965832e-04 0.0000000000000000e+00  3.1592473243256037e-05 -1.8393407815226544e-04 0.0000000000000000e+00  3.1642282936444814e-05 -1.9127301222593643e-04 0.0000000000000000e+00  3.1654724157601287e-05 -1.9865707920970442e-04 0.0000000000000000e+00  3.1625327585042340e-05 -2.0603333686581237e-04 0.0000000000000000e+00  3.1553669943315675e-05 -2.1343985098982508e-04 0.0000000000000000e+00  3.1449699687850928e-05 -2.2084685369745015e-04 0.0000000000000000e+00  3.1303646157000168e-05 -2.2826650103971864e-04 0.0000000000000000e+00  3.1135925698042586e-05 -2.3569050555780321e-04 0.0000000000000000e+00  3.0923148528092632e-05 -2.4310525855201457e-04 0.0000000000000000e+00  3.0704220471897062e-05 -2.5055996729549774e-04 0.0000000000000000e+00  2.5275226808489363e-05 -2.5775230363642203e-04 0.0000000000000000e+00  1.5261155230532880e-05 -2.5689966038891987e-04 0.0000000000000000e+00  1.0664519800659494e-05 -2.4912071086378160e-04 0.0000000000000000e+00  1.0905923878249528e-05 -2.4161002734519982e-04 0.0000000000000000e+00  1.1136680140552663e-05 -2.3408173255523966e-04 0.0000000000000000e+00  1.1329665120243615e-05 -2.2657645387738653e-04 0.0000000000000000e+00  1.1499669605302276e-05 -2.1907786174962370e-04 0.0000000000000000e+00  1.1630947583850113e-05 -2.1159016825791864e-04 0.0000000000000000e+00  1.1740446831973241e-05 -2.0411945021778848e-04 0.0000000000000000e+00  1.1809423851035266e-05 -1.9664858348476135e-04 0.0000000000000000e+00  1.1854821638297816e-05 -1.8921676100336866e-04 0.0000000000000000e+00  1.1863936054494836e-05 -1.8178311966012296e-04 0.0000000000000000e+00  1.1854375863788605e-05 -1.7439696423377345e-04 0.0000000000000000e+00  1.1807271864269099e-05 -1.6701823009716802e-04 0.0000000000000000e+00  1.1746481464258011e-05 -1.5969617886765864e-04 0.0000000000000000e+00  1.1646438379143033e-05 -1.5239330227181328e-04 0.0000000000000000e+00  1.1538884582834061e-05 -1.4515819256387166e-04 0.0000000000000000e+00  1.1388959858731645e-05 -1.3795550883710970e-04 0.0000000000000000e+00  1.1237972495559023e-05 -1.3083403591909200e-04 0.0000000000000000e+00  1.1040916307451488e-05 -1.2376048278874742e-04 0.0000000000000000e+00  1.0850114569358759e-05 -1.1678444285615165e-04 0.0000000000000000e+00  1.0608731207263501e-05 -1.0987462969873709e-04 0.0000000000000000e+00  1.0382119219930386e-05 -1.0308065842816209e-04 0.0000000000000000e+00  1.0099547525913171e-05 -9.6374122183991111e-05 0.0000000000000000e+00  9.8324042848266363e-06 -8.9798306617555628e-05 0.0000000000000000e+00  9.5197582626172680e-06 -8.3332396059196637e-05 0.0000000000000000e+00  9.1830986085417405e-06 -7.7028413001107985e-05 0.0000000000000000e+00  8.8723280437037589e-06 -7.0845770220953562e-05 0.0000000000000000e+00  8.5121352540448677e-06 -6.4832277494698476e-05 0.0000000000000000e+00  8.1572942420937944e-06 -5.9001307884128938e-05 0.0000000000000000e+00  7.7664934853774786e-06 -5.3344300646282531e-05 0.0000000000000000e+00  7.3801005186758512e-06 -4.7900408411582032e-05 0.0000000000000000e+00  6.9584919163615800e-06 -4.2646626010869198e-05 0.0000000000000000e+00  6.5636907371975214e-06 -3.7655218062875792e-05 0.0000000000000000e+00  6.1059112459126266e-06 -3.2857202334719984e-05 0.0000000000000000e+00  5.6299263575916549e-06 -2.8357246222673567e-05 0.0000000000000000e+00  5.2089644558145856e-06 -2.4069708008145980e-05 0.0000000000000000e+00  4.7332649871861857e-06 -2.0087823136127272e-05 0.0000000000000000e+00  4.2765744136044496e-06 -1.6402719064904960e-05 0.0000000000000000e+00  3.7824732904220897e-06 -1.3006743827114024e-05 0.0000000000000000e+00  3.3391143165797426e-06 -9.9696330289651510e-06 0.0000000000000000e+00  2.8201589461697840e-06 -7.2069114418662207e-06 0.0000000000000000e+00  2.2913913773099909e-06 -4.8433369849036005e-06 0.0000000000000000e+00  1.8477319053118162e-06 -2.7667166864860422e-06 0.0000000000000000e+00  1.3397048540066040e-06 -1.0675130036288929e-06 0.0000000000000000e+00  9.2209294155592418e-07 2.5087547572032087e-07 0.0000000000000000e+00  4.8460132262679413e-07 1.1353528107887934e-06 0.0000000000000000e+00  2.2683683583446546e-07 1.5291568002325994e-06 0.0000000000000000e+00  7.7860564587659714e-07 -3.6714668650368015e-07 0.0000000000000000e+00  2.0809155688970654e-05 -2.4608453840733140e-04 0.0000000000000000e+00  2.1373379496256326e-05 -2.3180859421642323e-04 0.0000000000000000e+00  2.1713423818006416e-05 -2.0852964572110879e-04 0.0000000000000000e+00  2.8367491181911308e-06 -2.1866750872728891e-06 0.0000000000000000e+00  2.1693814509031711e-05 -1.9393304208712849e-04 0.0000000000000000e+00  4.6579901218083796e-06 -5.3612665527095718e-06 0.0000000000000000e+00  2.1657446162827362e-05 -1.7915529030657697e-04 0.0000000000000000e+00  7.5525277185208610e-06 -1.3327033243085860e-05 0.0000000000000000e+00  9.3444884465183722e-06 -1.9964231517959705e-05 0.0000000000000000e+00  2.1486965716328981e-05 -1.6448545373744719e-04 0.0000000000000000e+00  1.3295289823185127e-05 -4.1961225236451662e-05 0.0000000000000000e+00  2.0748981748762311e-05 -1.3564130204709500e-04 0.0000000000000000e+00  1.0893459266083975e-05 -2.7520458047676961e-05 0.0000000000000000e+00  1.4751069455534633e-05 -5.2204613029460721e-05 0.0000000000000000e+00  2.0183480167112244e-05 -1.2157523122066844e-04 0.0000000000000000e+00  2.1183800511897960e-05 -1.4996419149168797e-04 0.0000000000000000e+00  1.6029141741368769e-05 -6.3450992224380523e-05 0.0000000000000000e+00  1.9486858563748660e-05 -1.0783479424503772e-04 0.0000000000000000e+00  1.7032426927297763e-05 -7.4898582927922485e-05 0.0000000000000000e+00  1.8794895123437452e-05 -9.4785342419513854e-05 0.0000000000000000e+00  1.7902969896884515e-05 -8.4302092286218659e-05 0.0000000000000000e+00  1.2155949189820669e-05 -3.4187777533286037e-05 0.0000000000000000e+00  2.1385699106678733e-05 -2.2060820817451502e-04 0.0000000000000000e+00  6.0989242490007432e-06 -8.8525569246855755e-06 0.0000000000000000e+00  1.7606340473549047e-05 -2.3862902391245337e-04 0.0000000000000000e+00  1.3778443103800319e-06 -3.3598242710582108e-07 0.0000000000000000e+00  1.8820882682682327e-05 -1.8622940058361215e-04 0.0000000000000000e+00  1.8774780325326782e-05 -2.0106760261291855e-04 0.0000000000000000e+00  4.5784713047655733e-06 -4.4348457907961302e-06 0.0000000000000000e+00  9.7708132124110301e-06 -1.7040061613426535e-05 0.0000000000000000e+00  1.8203302830359789e-05 -1.4241263039468769e-04 0.0000000000000000e+00  1.8739388911232535e-05 -1.7148116843996352e-04 0.0000000000000000e+00  1.6086438541968864e-05 -4.7415194385526975e-05 0.0000000000000000e+00  1.7754459407583572e-05 -1.2819138537791848e-04 0.0000000000000000e+00  1.1724400060229642e-05 -2.4369485014515133e-05 0.0000000000000000e+00  1.7580751590851121e-05 -5.8247220996190992e-05 0.0000000000000000e+00  1.7187799671580063e-05 -1.1426042022667375e-04 0.0000000000000000e+00  1.8532469800080489e-05 -1.5686040121331849e-04 0.0000000000000000e+00  1.9438035733328805e-05 -6.9885688448049395e-05 0.0000000000000000e+00  1.6504409913621855e-05 -1.0069296373814918e-04 0.0000000000000000e+00  2.2945383077673462e-07 -5.2813637490031851e-07 0.0000000000000000e+00  6.2393368204996657e-08 3.6155758433446026e-07 0.0000000000000000e+00  2.2875425423703447e-05 -2.5214019044665512e-04 0.0000000000000000e+00  2.3269727460761770e-06 -1.9693683213854270e-06 0.0000000000000000e+00  1.52178596