<?xml version="1.0"?>
<VTKFile type="UnstructuredGrid"  version="0.1"  >
<UnstructuredGrid>
<Piece  NumberOfPoints="1419" NumberOfCells="2698">
<Points>
<DataArray  type="Float64"  NumberOfComponents="3"  format="ascii">0 0 0  0 0.41 0  2.5 0 0  2.5 0.41 0  0.6 0.19 0  0.6 0.21 0  0.25 0.2 0  0.15 0.2 0  0.2489897948556636 0.21 0  0.2489897948556636 0.19 0  0.6 0.2 0  0 0.3807142857143437 0  0 0.3514285714286952 0  0 0.3221428571430699 0  0 0.29285714285744 0  0 0.2635714285718054 0  0 0.2342857142861561 0  0 0.2050000000005308 0  0 0.175714285714732 0  0 0.1464285714289574 0  0 0.1171428571431897 0  0 0.08785714285737878 0  0 0.05857142857161107 0  0 0.02928571428580012 0  0.03015443760436003 0 0  0.06140001986583606 0 0  0.09377624077125973 0 0  0.1273239957535082 0 0  0.1620856860351972 0 0  0.1981052433264291 0 0  0.235428184091502 0 0  0.2741016576309132 0 0  0.3141745521465447 0 0  0.3556974926295285 0 0  0.3987229542472677 0 0  0.4433053055141081 0 0  0.4895008759286886 0 0  0.5373680609405097 0 0  0.5869673343216626 0 0  0.6383613676634521 0 0  0.6916151138468254 0 0  0.7467958595648856 0 0  0.8039733463919316 0 0  0.8632198139502143 0 0  0.9246101326867038 0 0  0.9882218810934433 0 0  1.054135445558498 0 0  1.122434100542598 0 0  1.193204177141305 0 0  1.266535089879536 0 0  1.342519516046404 0 0  1.421253448503939 0 0  1.502836389106271 0 0  1.587371439758838 0 0  1.674965418777374 0 0  1.765729001825544 0 0  1.859776908880082 0 0  1.957227977487062 0 0  2.058205329869943 0 0  2.162836591189951 0 0  2.271253957290865 0 0  2.383594446803425 0 0  2.5 0.1024999999997612 0  2.5 0.2049999999994743 0  2.5 0.3074999999997183 0  2.383594446803656 0.41 0  2.271253957291315 0.41 0  2.162836591190598 0.41 0  2.058205329870775 0.41 0  1.957227977488067 0.41 0  1.859776908881246 0.41 0  1.765729001826854 0.41 0  1.674965418778818 0.41 0  1.58737143976041 0.41 0  1.502836389107956 0.41 0  1.421253448505726 0.41 0  1.342519516048286 0.41 0  1.266535089881505 0.41 0  1.193204177143353 0.41 0  1.122434100544716 0.41 0  1.05413544556068 0.41 0  0.9882218810956305 0.41 0  0.9246101326886647 0.41 0  0.8632198139519631 0.41 0  0.8039733463934788 0.41 0  0.7467958595662458 0.41 0  0.6916151138480078 0.41 0  0.6383613676644679 0.41 0  0.5869673343225223 0.41 0  0.5373680609412221 0.41 0  0.4895008759292634 0.41 0  0.4433053055145528 0.41 0  0.3987229542475914 0.41 0  0.3556974926297398 0.41 0  0.3141745521466497 0.41 0  0.2741016576310038 0.41 0  0.2354281840915826 0.41 0  0.1981052433265003 0.41 0  0.1620856860352591 0.41 0  0.1273239957535623 0.41 0  0.09377624077128965 0.41 0  0.06140001986584975 0.41 0  0.03015443760436654 0.41 0  0.2497468076502589 0.2050254481002335 0  0.2497468076502614 0.1949745518997913 0  0.2469965252529372 0.1829317073451959 0  0.2439893735792749 0.1762316384219906 0  0.2400332147834255 0.1700443375285386 0  0.2352133972704371 0.1645032867342007 0  0.2296339016332438 0.1597280261969788 0  0.2234150974217223 0.1558215752574715 0  0.2166911463437691 0.1528682099456123 0  0.2096071079204251 0.1509316448471593 0  0.2023158100364996 0.1500536585536553 0  0.194974551899914 0.1502531923497262 0  0.1877417105387872 0.1515259415822739 0  0.1807733240461124 0.153844448527136 0  0.1742197252835808 0.15715869474974 0  0.1682222986673531 0.1613971801805478 0  0.162910430003803 0.1664684656256651 0  0.1583987151779087 0.1722631454351573 0  0.1547844879126891 0.178656207771761 0  0.1521457199348551 0.1855097315605723 0  0.1505393388476355 0.1926758619366523 0  0.1505393388476328 0.2073241380633295 0  0.1521457199348437 0.2144902684393899 0  0.1547844879126531 0.221343792228163 0  0.1583987151778488 0.2277368545647528 0  0.1629104300036858 0.2335315343742052 0  0.1682222986671726 0.2386028198193036 0  0.1742197252833576 0.2428413052501257 0  0.1807733240458683 0.2461555514727623 0  0.1877417105384929 0.2484740584176516 0  0.1949745518995776 0.2497468076502398 0  0.202315810036185 0.2499463414463592 0  0.2096071079201568 0.2490683551528932 0  0.2166911463435495 0.2471317900544655 0  0.2234150974215506 0.2441784247426195 0  0.2296339016331197 0.2402719738031125 0  0.2352133972703547 0.2354967132658811 0  0.2400332147833751 0.2299556624715287 0  0.2439893735792577 0.2237683615780412 0  0.246996525252926 0.2170682926548348 0  0.25645809709277 0.21 0  0.2639263993298655 0.21 0  0.271394701566961 0.21 0  0.2788630038040554 0.21 0  0.2863313060411479 0.21 0  0.2937996082782405 0.21 0  0.301267910515333 0.21 0  0.3087362127524279 0.21 0  0.3162045149895234 0.21 0  0.3236728172265972 0.21 0  0.3311411194636928 0.21 0  0.3386094217007701 0.21 0  0.3460777239378666 0.21 0  0.3535460261749672 0.21 0  0.3610143284120516 0.21 0  0.3684826306491596 0.21 0  0.3759509328862226 0.21 0  0.383419235123329 0.21 0  0.3908875373604028 0.21 0  0.3983558395975142 0.21 0  0.4058241418345938 0.21 0  0.4132924440716992 0.21 0  0.4207607463087888 0.21 0  0.4282290485459029 0.21 0  0.4356973507830418 0.21 0  0.4431656530201649 0.21 0  0.4506339552573136 0.21 0  0.4581022574944306 0.21 0  0.4655705597315852 0.21 0  0.4730388619686996 0.21 0  0.480507164205851 0.21 0  0.4879754664429498 0.21 0  0.4954437686800938 0.21 0  0.502912070917267 0.21 0  0.5103803731544119 0.21 0  0.5178486753915261 0.21 0  0.5253169776286404 0.21 0  0.5327852798657868 0.21 0  0.5402535821029386 0.21 0  0.54772188434007 0.21 0  0.5551901865771842 0.21 0  0.5626584888143201 0.21 0  0.5701267910514778 0.21 0  0.5775950932886138 0.21 0  0.5850633955257281 0.21 0  0.5925316977628483 0.21 0  0.6 0.2050000000000054 0  0.6 0.1950000000000217 0  0.5925316977628897 0.19 0  0.5850633955257988 0.19 0  0.5775950932887378 0.19 0  0.5701267910515998 0.19 0  0.5626584888145268 0.19 0  0.5551901865773963 0.19 0  0.547721884340339 0.19 0  0.5402535821032429 0.19 0  0.5327852798661811 0.19 0  0.5253169776290537 0.19 0  0.5178486753919799 0.19 0  0.5103803731549078 0.19 0  0.502912070917822 0.19 0  0.4954437686807294 0.19 0  0.4879754664436223 0.19 0  0.4805071642065402 0.19 0  0.4730388619694271 0.19 0  0.4655705597323621 0.19 0  0.4581022574952563 0.19 0  0.4506339552581777 0.19 0  0.4431656530210671 0.19 0  0.4356973507839815 0.19 0  0.4282290485468779 0.19 0  0.4207607463097617 0.19 0  0.4132924440726327 0.19 0  0.4058241418354857 0.19 0  0.3983558395983636 0.19 0  0.3908875373612097 0.19 0  0.3834192351240934 0.19 0  0.3759509328869369 0.19 0  0.3684826306498175 0.19 0  0.361014328412667 0.19 0  0.3535460261755617 0.19 0  0.3460777239384295 0.19 0  0.3386094217012945 0.19 0  0.3311411194641595 0.19 0  0.3236728172270245 0.19 0  0.3162045149898895 0.19 0  0.3087362127527544 0.19 0  0.3012679105156187 0.19 0  0.2937996082784807 0.19 0  0.2863313060413428 0.19 0  0.2788630038042048 0.19 0  0.2713947015670686 0.19 0  0.2639263993299336 0.19 0  0.2564580970927985 0.19 0  0.2607803159922026 0.2000727136295815 0  0.5887803774232762 0.2001272386983733 0  0.5745072403740523 0.2002044435018727 0  0.5511891430099709 0.2001122610077113 0  0.2751288526855082 0.20000000000002 0  0.5365194309847112 0.1999999999999436 0  0.2894621222999649 0.1998691686390484 0  0.5215828265105155 0.1999999999999228 0  0.3127789816668748 0.1998657885438805 0  0.3274069683451451 0.2000000000000796 0  0.5066462220363641 0.199999999999908 0  0.3650630746574081 0.199866017807523 0  0.476773013087985 0.1999999999998713 0  0.3417402379596385 0.1998691686391011 0  0.3796850840047755 0.200000000000134 0  0.4618364086138087 0.1999999999998546 0  0.4917096175621762 0.1999999999998808 0  0.3946216884789568 0.2000000000001512 0  0.446899804139621 0.1999999999998389 0  0.4089549580935208 0.1998691686391595 0  0.4322718174608562 0.200127451265745 0  0.4201487168029707 0.1999966199048527 0  0.3528922713220932 0.2000185703532356 0  0.5633122436674589 0.1999814296467508 0  0.3006558810093873 0.1999966199048318 0  0.5815926498168407 0.1966545283159175 0  0.2677053789419034 0.1964246479135325 0  0.5290511287476175 0.1970915826863981 0  0.5439877332217911 0.197091582686394 0  0.2825131256993216 0.2035478995978015 0  0.3199386661080599 0.202908417313604 0  0.4842413153250809 0.1970915826863873 0  0.5141145242734466 0.1970915826863843 0  0.3722167817676917 0.2029084173136195 0  0.4693047108508938 0.1970915826863783 0  0.3348752705822316 0.202908417313609 0  0.3871533862418661 0.2029084173136212 0  0.4543681063767183 0.1970915826863795 0  0.4991779197992749 0.1970915826863902 0  0.4020059614928624 0.203547899597858 0  0.4394315019025246 0.1970915826863714 0  0.2550657455369551 0.2034088125358657 0  0.2548908499171161 0.1966940311614271 0  0.5946539510196798 0.2024302972968126 0  0.267698176732111 0.2039977513680092 0  0.4261685417851465 0.196409292431739 0  0.3590076176283495 0.196411355804271 0  0.5571672426447437 0.2036011176410121 0  0.3066757059912147 0.1964092924317024 0  0.594380730180568 0.1966558399668133 0  0.4842413153245942 0.2040749161535287 0  0.4693047108503577 0.2040749161535231 0  0.3871533862424271 0.1959250838464788 0  0.372246743208829 0.1959123236376545 0  0.5141145242731028 0.2040749161535395 0  0.4543681063761134 0.2040749161535186 0  0.4019979587101454 0.1959834479682427 0  0.4394608940728603 0.2040870543693135 0  0.5439623148931173 0.2040856076781014 0  0.5290511287473298 0.2040749161535501 0  0.4991779197988497 0.2040749161535382 0  0.3347912413592433 0.1959225448935183 0  0.3199680582793816 0.1959123018030061 0  0.2825051229162361 0.1959834479681729 0  0.3590471196690275 0.2036304442587945 0  0.5571594006495384 0.1963685282145804 0  0.3067669986803285 0.203627750582736 0  0.4262598344738712 0.2036568242185335 0  0.5814408164431408 0.2041285596160068 0  0.5688286748170428 0.1961819304477386 0  0.4145905603063645 0.2038180695522843 0  0.3473758401724931 0.2038180695522752 0  0.2950977245128307 0.2038180695522663 0  0.5688286748170693 0.203818069552238 0  0.2950977245127906 0.1961819304477774 0  0.3473758401723931 0.1961819304478349 0  0.4145905603061963 0.1961819304479011 0  0.2601812407614425 0.2056861609747042
[...]
<PointData  Vectors="f_40-1"> 
<DataArray  type="Float64"  Name="f_40-1"  NumberOfComponents="3" format="ascii">0.0000000000000000e+00 0.0000000000000000e+00 0.0000000000000000e+00  0.0000000000000000e+00 0.0000000000000000e+00 0.0000000000000000e+00  0.0000000000000000e+00 0.0000000000000000e+00 0.0000000000000000e+00  0.0000000000000000e+00 0.0000000000000000e+00 0.0000000000000000e+00  -1.0002404038248738e-06 -4.6644478734095893e-05 0.0000000000000000e+00  2.6566222491601314e-06 -4.8197437112579259e-05 0.0000000000000000e+00  0.0000000000000000e+00 0.0000000000000000e+00 0.0000000000000000e+00  0.0000000000000000e+00 0.0000000000000000e+00 0.0000000000000000e+00  0.0000000000000000e+00 0.0000000000000000e+00 0.0000000000000000e+00  0.0000000000000000e+00 0.0000000000000000e+00 0.0000000000000000e+00  6.8213329817809999e-07 -4.7421534607600605e-05 0.0000000000000000e+00  0.0000000000000000e+00 0.0000000000000000e+00 0.0000000000000000e+00  0.0000000000000000e+00 0.0000000000000000e+00 0.0000000000000000e+00  0.0000000000000000e+00 0.0000000000000000e+00 0.0000000000000000e+00  0.0000000000000000e+00 0.0000000000000000e+00 0.0000000000000000e+00  0.0000000000000000e+00 0.0000000000000000e+00 0.0000000000000000e+00  0.0000000000000000e+00 0.0000000000000000e+00 0.0000000000000000e+00  0.0000000000000000e+00 0.0000000000000000e+00 0.0000000000000000e+00  0.0000000000000000e+00 0.0000000000000000e+00 0.0000000000000000e+00  0.0000000000000000e+00 0.0000000000000000e+00 0.0000000000000000e+00  0.0000000000000000e+00 0.0000000000000000e+00 0.0000000000000000e+00  0.0000000000000000e+00 0.0000000000000000e+00 0.0000000000000000e+00  0.0000000000000000e+00 0.0000000000000000e+00 0.0000000000000000e+00  0.0000000000000000e+00 0.0000000000000000e+00 0.0000000000000000e+00  0.0000000000000000e+00 0.0000000000000000e+00 0.0000000000000000e+00  0.0000000000000000e+00 0.0000000000000000e+00 0.0000000000000000e+00  0.0000000000000000e+00 0.0000000000000000e+00 0.0000000000000000e+00  0.0000000000000000e+00 0.0000000000000000e+00 0.0000000000000000e+00  0.0000000000000000e+00 0.0000000000000000e+00 0.0000000000000000e+00  0.0000000000000000e+00 0.0000000000000000e+00 0.0000000000000000e+00  0.0000000000000000e+00 0.0000000000000000e+00 0.0000000000000000e+00  0.0000000000000000e+00 0.0000000000000000e+00 0.0000000000000000e+00  0.0000000000000000e+00 0.0000000000000000e+00 0.0000000000000000e+00  0.0000000000000000e+00 0.0000000000000000e+00 0.0000000000000000e+00  0.0000000000000000e+00 0.0000000000000000e+00 0.0000000000000000e+00  0.0000000000000000e+00 0.0000000000000000e+00 0.0000000000000000e+00  0.0000000000000000e+00 0.0000000000000000e+00 0.0000000000000000e+00  0.0000000000000000e+00 0.0000000000000000e+00 0.0000000000000000e+00  0.0000000000000000e+00 0.0000000000000000e+00 0.0000000000000000e+00  0.0000000000000000e+00 0.0000000000000000e+00 0.0000000000000000e+00  0.0000000000000000e+00 0.0000000000000000e+00 0.0000000000000000e+00  0.0000000000000000e+00 0.0000000000000000e+00 0.0000000000000000e+00  0.0000000000000000e+00 0.0000000000000000e+00 0.0000000000000000e+00  0.0000000000000000e+00 0.0000000000000000e+00 0.0000000000000000e+00  0.0000000000000000e+00 0.0000000000000000e+00 0.0000000000000000e+00  0.0000000000000000e+00 0.0000000000000000e+00 0.0000000000000000e+00  0.0000000000000000e+00 0.0000000000000000e+00 0.0000000000000000e+00  0.0000000000000000e+00 0.0000000000000000e+00 0.0000000000000000e+00  0.0000000000000000e+00 0.0000000000000000e+00 0.0000000000000000e+00  0.0000000000000000e+00 0.0000000000000000e+00 0.0000000000000000e+00  0.0000000000000000e+00 0.0000000000000000e+00 0.0000000000000000e+00  0.0000000000000000e+00 0.0000000000000000e+00 0.0000000000000000e+00  0.0000000000000000e+00 0.0000000000000000e+00 0.0000000000000000e+00  0.0000000000000000e+00 0.0000000000000000e+00 0.0000000000000000e+00  0.0000000000000000e+00 0.0000000000000000e+00 0.0000000000000000e+00  0.0000000000000000e+00 0.0000000000000000e+00 0.0000000000000000e+00  0.0000000000000000e+00 0.0000000000000000e+00 0.0000000000000000e+00  0.0000000000000000e+00 0.0000000000000000e+00 0.0000000000000000e+00  0.0000000000000000e+00 0.0000000000000000e+00 0.0000000000000000e+00  0.0000000000000000e+00 0.0000000000000000e+00 0.0000000000000000e+00  0.0000000000000000e+00 0.0000000000000000e+00 0.0000000000000000e+00  0.0000000000000000e+00 0.0000000000000000e+00 0.0000000000000000e+00  0.0000000000000000e+00 0.0000000000000000e+00 0.0000000000000000e+00  0.0000000000000000e+00 0.0000000000000000e+00 0.0000000000000000e+00  0.0000000000000000e+00 0.0000000000000000e+00 0.0000000000000000e+00  0.0000000000000000e+00 0.0000000000000000e+00 0.0000000000000000e+00  0.0000000000000000e+00 0.0000000000000000e+00 0.0000000000000000e+00  0.0000000000000000e+00 0.0000000000000000e+00 0.0000000000000000e+00  0.0000000000000000e+00 0.0000000000000000e+00 0.0000000000000000e+00  0.0000000000000000e+00 0.0000000000000000e+00 0.0000000000000000e+00  0.0000000000000000e+00 0.0000000000000000e+00 0.0000000000000000e+00  0.0000000000000000e+00 0.0000000000000000e+00 0.0000000000000000e+00  0.0000000000000000e+00 0.0000000000000000e+00 0.0000000000000000e+00  0.0000000000000000e+00 0.0000000000000000e+00 0.0000000000000000e+00  0.0000000000000000e+00 0.0000000000000000e+00 0.0000000000000000e+00  0.0000000000000000e+00 0.0000000000000000e+00 0.0000000000000000e+00  0.0000000000000000e+00 0.0000000000000000e+00 0.0000000000000000e+00  0.0000000000000000e+00 0.0000000000000000e+00 0.0000000000000000e+00  0.0000000000000000e+00 0.0000000000000000e+00 0.0000000000000000e+00  0.0000000000000000e+00 0.0000000000000000e+00 0.0000000000000000e+00  0.0000000000000000e+00 0.0000000000000000e+00 0.0000000000000000e+00  0.0000000000000000e+00 0.0000000000000000e+00 0.0000000000000000e+00  0.0000000000000000e+00 0.0000000000000000e+00 0.0000000000000000e+00  0.0000000000000000e+00 0.0000000000000000e+00 0.0000000000000000e+00  0.0000000000000000e+00 0.0000000000000000e+00 0.0000000000000000e+00  0.0000000000000000e+00 0.0000000000000000e+00 0.0000000000000000e+00  0.0000000000000000e+00 0.0000000000000000e+00 0.0000000000000000e+00  0.0000000000000000e+00 0.0000000000000000e+00 0.0000000000000000e+00  0.0000000000000000e+00 0.0000000000000000e+00 0.0000000000000000e+00  0.0000000000000000e+00 0.0000000000000000e+00 0.0000000000000000e+00  0.0000000000000000e+00 0.0000000000000000e+00 0.0000000000000000e+00  0.0000000000000000e+00 0.0000000000000000e+00 0.0000000000000000e+00  0.0000000000000000e+00 0.0000000000000000e+00 0.0000000000000000e+00  0.0000000000000000e+00 0.0000000000000000e+00 0.0000000000000000e+00  0.0000000000000000e+00 0.0000000000000000e+00 0.0000000000000000e+00  0.0000000000000000e+00 0.0000000000000000e+00 0.0000000000000000e+00  0.0000000000000000e+00 0.0000000000000000e+00 0.0000000000000000e+00  0.0000000000000000e+00 0.0000000000000000e+00 0.0000000000000000e+00  0.0000000000000000e+00 0.0000000000000000e+00 0.0000000000000000e+00  0.0000000000000000e+00 0.0000000000000000e+00 0.0000000000000000e+00  0.0000000000000000e+00 0.0000000000000000e+00 0.0000000000000000e+00  0.0000000000000000e+00 0.0000000000000000e+00 0.0000000000000000e+00  0.0000000000000000e+00 0.0000000000000000e+00 0.0000000000000000e+00  0.0000000000000000e+00 0.0000000000000000e+00 0.0000000000000000e+00  0.0000000000000000e+00 0.0000000000000000e+00 0.0000000000000000e+00  0.0000000000000000e+00 0.0000000000000000e+00 0.0000000000000000e+00  0.0000000000000000e+00 0.0000000000000000e+00 0.0000000000000000e+00  0.0000000000000000e+00 0.0000000000000000e+00 0.0000000000000000e+00  0.0000000000000000e+00 0.0000000000000000e+00 0.0000000000000000e+00  0.0000000000000000e+00 0.0000000000000000e+00 0.0000000000000000e+00  0.0000000000000000e+00 0.0000000000000000e+00 0.0000000000000000e+00  0.0000000000000000e+00 0.0000000000000000e+00 0.0000000000000000e+00  0.0000000000000000e+00 0.0000000000000000e+00 0.0000000000000000e+00  0.0000000000000000e+00 0.0000000000000000e+00 0.0000000000000000e+00  0.0000000000000000e+00 0.0000000000000000e+00 0.0000000000000000e+00  0.0000000000000000e+00 0.0000000000000000e+00 0.0000000000000000e+00  0.0000000000000000e+00 0.0000000000000000e+00 0.0000000000000000e+00  0.0000000000000000e+00 0.0000000000000000e+00 0.0000000000000000e+00  0.0000000000000000e+00 0.0000000000000000e+00 0.0000000000000000e+00  0.0000000000000000e+00 0.0000000000000000e+00 0.0000000000000000e+00  0.0000000000000000e+00 0.0000000000000000e+00 0.0000000000000000e+00  0.0000000000000000e+00 0.0000000000000000e+00 0.0000000000000000e+00  0.0000000000000000e+00 0.0000000000000000e+00 0.0000000000000000e+00  0.0000000000000000e+00 0.0000000000000000e+00 0.0000000000000000e+00  0.0000000000000000e+00 0.0000000000000000e+00 0.0000000000000000e+00  0.0000000000000000e+00 0.0000000000000000e+00 0.0000000000000000e+00  0.0000000000000000e+00 0.0000000000000000e+00 0.0000000000000000e+00  0.0000000000000000e+00 0.0000000000000000e+00 0.0000000000000000e+00  0.0000000000000000e+00 0.0000000000000000e+00 0.0000000000000000e+00  0.0000000000000000e+00 0.0000000000000000e+00 0.0000000000000000e+00  0.0000000000000000e+00 0.0000000000000000e+00 0.0000000000000000e+00  0.0000000000000000e+00 0.0000000000000000e+00 0.0000000000000000e+00  0.0000000000000000e+00 0.0000000000000000e+00 0.0000000000000000e+00  0.0000000000000000e+00 0.0000000000000000e+00 0.0000000000000000e+00  0.0000000000000000e+00 0.0000000000000000e+00 0.0000000000000000e+00  0.0000000000000000e+00 0.0000000000000000e+00 0.0000000000000000e+00  0.0000000000000000e+00 0.0000000000000000e+00 0.0000000000000000e+00  0.0000000000000000e+00 0.0000000000000000e+00 0.0000000000000000e+00  0.0000000000000000e+00 0.0000000000000000e+00 0.0000000000000000e+00  0.0000000000000000e+00 0.0000000000000000e+00 0.0000000000000000e+00  0.0000000000000000e+00 0.0000000000000000e+00 0.0000000000000000e+00  0.0000000000000000e+00 0.0000000000000000e+00 0.0000000000000000e+00  0.0000000000000000e+00 0.0000000000000000e+00 0.0000000000000000e+00  2.7531617320659255e-07 -1.5290820127874038e-06 0.0000000000000000e+00  6.1513533679367306e-07 -1.7550247369764148e-06 0.0000000000000000e+00  1.0185431399598878e-06 -1.9717154618814045e-06 0.0000000000000000e+00  1.4624518116696907e-06 -2.2232487733599923e-06 0.0000000000000000e+00  1.8940214535858762e-06 -2.5388501964754800e-06 0.0000000000000000e+00  2.3220934277692518e-06 -2.9415467868990694e-06 0.0000000000000000e+00  2.7188387751457459e-06 -3.3969340219330149e-06 0.0000000000000000e+00  3.0954311191129755e-06 -3.9234332352054300e-06 0.0000000000000000e+00  3.4723120649727215e-06 -4.5065025925433387e-06 0.0000000000000000e+00  3.8082743840674288e-06 -5.1397469096858535e-06 0.0000000000000000e+00  4.1438253722647573e-06 -5.8381527702865231e-06 0.0000000000000000e+00  4.4406596648994405e-06 -6.5772922592481752e-06 0.0000000000000000e+00  4.7300009695721208e-06 -7.3713131418107844e-06 0.0000000000000000e+00  4.9900000182491229e-06 -8.2046649927240552e-06 0.0000000000000000e+00  5.2279216205690677e-06 -9.0847089783641418e-06 0.0000000000000000e+00  5.4598935888140843e-06 -1.0005139895560429e-05 0.0000000000000000e+00  5.6563832981791110e-06 -1.0954389796137509e-05 0.0000000000000000e+00  5.8445822414639481e-06 -1.1951311310805732e-05 0.0000000000000000e+00  6.0006467975881975e-06 -1.2967823724901478e-05 0.0000000000000000e+00  6.1468494706526264e-06 -1.4026535061054939e-05 0.0000000000000000e+00  6.2648078203184731e-06 -1.5102329273661524e-05 0.0000000000000000e+00  6.3660624484817077e-06 -1.6212230767486154e-05 0.0000000000000000e+00  6.4458142519716344e-06 -1.7341724926039284e-05 0.0000000000000000e+00  6.5038771882018365e-06 -1.8494932477649511e-05 0.0000000000000000e+00  6.5514798713260647e-06 -1.9669965003069231e-05 0.0000000000000000e+00  6.5721785861193922e-06 -2.0856805606843592e-05 0.0000000000000000e+00  6.5744670361623751e-06 -2.2073186428535075e-05 0.0000000000000000e+00  6.5557194811773370e-06 -2.3292067804846210e-05 0.0000000000000000e+00  6.5186325887712716e-06 -2.4537273212541006e-05 0.0000000000000000e+00  6.4612331158951377e-06 -2.5783430515294689e-05 0.0000000000000000e+00  6.3855683194167464e-06 -2.7052723660208347e-05 0.0000000000000000e+00  6.2895899533653230e-06 -2.8320374910553926e-05 0.0000000000000000e+00  6.1758647748108214e-06 -2.9609251313683257e-05 0.0000000000000000e+00  6.0417516196735812e-06 -3.0893462088314854e-05 0.0000000000000000e+00  5.8887707142734982e-06 -3.2197900895210886e-05 0.0000000000000000e+00  5.7165614073843318e-06 -3.3496532243959320e-05 0.0000000000000000e+00  5.5262741816601370e-06 -3.4812908609804709e-05 0.0000000000000000e+00  5.3166927485642152e-06 -3.6122607206936367e-05 0.0000000000000000e+00  5.0882398181003210e-06 -3.7448647153690375e-05 0.0000000000000000e+00  4.8396562605773340e-06 -3.8766700083448096e-05 0.0000000000000000e+00  4.5695168126906711e-06 -4.0095731444760752e-05 0.0000000000000000e+00  4.2841802271995685e-06 -4.1423063089404570e-05 0.0000000000000000e+00  3.9766632495214220e-06 -4.2754522725864937e-05 0.0000000000000000e+00  3.6582365069448928e-06 -4.4087025959328613e-05 0.0000000000000000e+00  3.3173668004370106e-06 -4.5413946016028894e-05 0.0000000000000000e+00  2.9734498485418260e-06 -4.6760583144293541e-05 0.0000000000000000e+00  1.6174016923874737e-06 -4.7808587717635938e-05 0.0000000000000000e+00  -2.0466902834308118e-07 -4.7036132692850240e-05 0.0000000000000000e+00  -6.7773406960854109e-07 -4.5355728078593118e-05 0.0000000000000000e+00  -3.2428821606574573e-07 -4.3975671773476972e-05 0.0000000000000000e+00  2.3233613727805599e-08 -4.2586407454265879e-05 0.0000000000000000e+00  3.5002219123900741e-07 -4.1207443380217314e-05 0.0000000000000000e+00  6.6475003540324400e-07 -3.9830742297999025e-05 0.0000000000000000e+00  9.5717796990661043e-07 -3.8457224481763196e-05 0.0000000000000000e+00  1.2362423766874381e-06 -3.7089707001395481e-05 0.0000000000000000e+00  1.4936598982728844e-06 -3.5718528163424257e-05 0.0000000000000000e+00  1.7348357549862949e-06 -3.4362336077948532e-05 0.0000000000000000e+00  1.9569839739138798e-06 -3.2998809012802386e-05 0.0000000000000000e+00  2.1636827325507558e-06 -3.1652337539082088e-05 0.0000000000000000e+00  2.3511500108327272e-06 -3.0300021399843551e-05 0.0000000000000000e+00  2.5239488649069164e-06 -2.8966002843665441e-05 0.0000000000000000e+00  2.6775748595293142e-06 -2.7627927128155083e-05 0.0000000000000000e+00  2.8176385251989865e-06 -2.6309601433880405e-05 0.0000000000000000e+00  2.9380273778866607e-06 -2.4989065113698393e-05 0.0000000000000000e+00  3.0457116290066891e-06 -2.3690196582724188e-05 0.0000000000000000e+00  3.1332762674009004e-06 -2.2391428670577499e-05 0.0000000000000000e+00  3.2094516875890662e-06 -2.1116914257080049e-05 0.0000000000000000e+00  3.2650092362642998e-06 -1.9845504262143818e-05 0.0000000000000000e+00  3.3105268357213815e-06 -1.8600910548919858e-05 0.0000000000000000e+00  3.3346031229833022e-06 -1.7363034819943288e-05 0.0000000000000000e+00  3.3471110536252389e-06 -1.6151380596908158e-05 0.0000000000000000e+00  3.3426240938608023e-06 -1.4955617614489467e-05 0.0000000000000000e+00  3.3197660399731516e-06 -1.3786682741773536e-05 0.0000000000000000e+00  3.2927924350740491e-06 -1.2638604002727433e-05 0.0000000000000000e+00  3.2432705882014994e-06 -1.1513694702629639e-05 0.0000000000000000e+00  3.1827758335014280e-06 -1.0425967253202581e-05 0.0000000000000000e+00  3.1041807916441501e-06 -9.3583492761369647e-06 0.0000000000000000e+00  3.0142596405882756e-06 -8.3338943249863793e-06 0.0000000000000000e+00  2.9065998554342080e-06 -7.3327115398218013e-06 0.0000000000000000e+00  2.7899981592867471e-06 -6.3806825378766124e-06 0.0000000000000000e+00  2.6545088178364754e-06 -5.4582643933368631e-06 0.0000000000000000e+00  2.5025618002348220e-06 -4.5877653773568453e-06 0.0000000000000000e+00  2.3521587366770931e-06 -3.7538476542662858e-06 0.0000000000000000e+00  2.1786691083466946e-06 -2.9699375155825685e-06 0.0000000000000000e+00  1.9971080938243807e-06 -2.2448414855294999e-06 0.0000000000000000e+00  1.7974848267157021e-06 -1.5642457349929429e-06 0.0000000000000000e+00  1.5945557301021391e-06 -9.5265815163163853e-07 0.0000000000000000e+00  1.3699686286579381e-06 -3.8965996422481486e-07 0.0000000000000000e+00  1.1308885309601694e-06 9.8370962914800780e-08 0.0000000000000000e+00  9.0114786469464052e-07 5.3094739678649630e-07 0.0000000000000000e+00  6.4654251724085450e-07 9.0087398688004055e-07 0.0000000000000000e+00  4.1564951551810547e-07 1.1910002629508239e-06 0.0000000000000000e+00  2.0176519259626587e-07 1.3603828752727895e-06 0.0000000000000000e+00  7.6447054352794192e-08 1.3646046067447188e-06 0.0000000000000000e+00  2.7423195195266071e-08 -9.2554306889392477e-08 0.0000000000000000e+00  1.2894931674825769e-06 -4.5379462912607268e-05 0.0000000000000000e+00  1.9944162987016748e-06 -4.2788860596725818e-05 0.0000000000000000e+00  2.9152107445783076e-06 -3.8560878526276192e-05 0.0000000000000000e+00  8.6756970572337341e-07 -4.6881957433128298e-07 0.0000000000000000e+00  3.3891235836297940e-06 -3.5909500991090157e-05 0.0000000000000000e+00  1.5203854218334722e-06 -1.1040805368367708e-06 0.0000000000000000e+00  3.8221400087685999e-06 -3.3235735713971363e-05 0.0000000000000000e+00  2.4776080479990617e-06 -2.6955511697766804e-06 0.0000000000000000e+00  3.0151823865113955e-06 -4.0075870330566778e-06 0.0000000000000000e+00  4.1827651553809564e-06 -3.0583979202581766e-05 0.0000000000000000e+00  4.0721190148715538e-06 -8.1917396482731644e-06 0.0000000000000000e+00  4.6891685692387080e-06 -2.5370219827455568e-05 0.0000000000000000e+00  3.4616306451271017e-06 -5.4502029995537041e-06 0.0000000000000000e+00  4.3870391518426656e-06 -1.0123302383975391e-05 0.0000000000000000e+00  4.8359145940633648e-06 -2.2823919303408705e-05 0.0000000000000000e+00  4.4716359676277465e-06 -2.7959717348125939e-05 0.0000000000000000e+00  4.6261288907639916e-06 -1.2210293442522514e-05 0.0000000000000000e+00  4.9119436533583222e-06 -2.0331440958242613e-05 0.0000000000000000e+00  4.7723708467144127e-06 -1.4306934146067028e-05 0.0000000000000000e+00  4.9407523486080881e-06 -1.7968305404776550e-05 0.0000000000000000e+00  4.8673086191800369e-06 -1.6042345253477093e-05 0.0000000000000000e+00  3.7847782395269601e-06 -6.7369119411419676e-06 0.0000000000000000e+00  2.4194199880544928e-06 -4.0742454895210534e-05 0.0000000000000000e+00  1.9993543524799186e-06 -1.8210755904587458e-06 0.0000000000000000e+00  1.0190779751961268e-06 -4.3820338984644605e-05 0.0000000000000000e+00  3.8387878451654579e-07 3.4796704163887928e-07 0.0000000000000000e+00  3.0950659006801655e-06 -3.4310821958884889e-05 0.0000000000000000e+00  2.6225892514415729e-06 -3.7005358899769451e-05 0.0000000000000000e+00  1.3718108039430658e-06 -1.3301052382595156e-06 0.0000000000000000e+00  3.0074684899928496e-06 -3.7501865521135253e-06 0.0000000000000000e+00  4.0864758503149328e-06 -2.6364825390256980e-05 0.0000000000000000e+00  3.4961610416559348e-06 -3.1635327876241773e-05 0.0000000000000000e+00  4.6205495337279215e-06 -9.5164491230031040e-06 0.0000000000000000e+00  4.2772522466902551e-06 -2.3783934098865205e-05 0.0000000000000000e+00  3.5554828500714429e-06 -5.1646868139908356e-06 0.0000000000000000e+00  4.9188161260651780e-06 -1.1527656106858498e-05 0.0000000000000000e+00  4.3991870743255508e-06 -2.1251478696187317e-05 0.0000000000000000e+00  3.8263149078133372e-06 -2.8984493381515160e-05 0.0000000000000000e+00  5.2397361736681021e-06 -1.3731566182993069e-05 0.0000000000000000e+00  4.4530812218434332e-06 -1.8778821675681229e-05 0.0000000000000000e+00  -1.4175390172536399e-07 -3.6903867760812576e-07 0.0000000000000000e+00  -1.7401602431098806e-07 3.0115352313645117e-07 0.0000000000000000e+00  1.4042583168089108e-06 -4.6616081035113694e-05 0.0000000000000000e+00  5.8397057511567498e-07 -9.0045994291375898e-07 0.0000000000000000e+00  4.338232