<?xml version="1.0"?>
<VTKFile type="UnstructuredGrid"  version="0.1"  >
<UnstructuredGrid>
<Piece  NumberOfPoints="1419" NumberOfCells="2698">
<Points>
<DataArray  type="Float64"  NumberOfComponents="3"  format="ascii">0 0 0  0 0.41 0  2.5 0 0  2.5 0.41 0  0.6 0.19 0  0.6 0.21 0  0.25 0.2 0  0.15 0.2 0  0.2489897948556636 0.21 0  0.2489897948556636 0.19 0  0.6 0.2 0  0 0.3807142857143437 0  0 0.3514285714286952 0  0 0.3221428571430699 0  0 0.29285714285744 0  0 0.2635714285718054 0  0 0.2342857142861561 0  0 0.2050000000005308 0  0 0.175714285714732 0  0 0.1464285714289574 0  0 0.1171428571431897 0  0 0.08785714285737878 0  0 0.05857142857161107 0  0 0.02928571428580012 0  0.03015443760436003 0 0  0.06140001986583606 0 0  0.09377624077125973 0 0  0.1273239957535082 0 0  0.1620856860351972 0 0  0.1981052433264291 0 0  0.235428184091502 0 0  0.2741016576309132 0 0  0.3141745521465447 0 0  0.3556974926295285 0 0  0.3987229542472677 0 0  0.4433053055141081 0 0  0.4895008759286886 0 0  0.5373680609405097 0 0  0.5869673343216626 0 0  0.6383613676634521 0 0  0.6916151138468254 0 0  0.7467958595648856 0 0  0.8039733463919316 0 0  0.8632198139502143 0 0  0.9246101326867038 0 0  0.9882218810934433 0 0  1.054135445558498 0 0  1.122434100542598 0 0  1.193204177141305 0 0  1.266535089879536 0 0  1.342519516046404 0 0  1.421253448503939 0 0  1.502836389106271 0 0  1.587371439758838 0 0  1.674965418777374 0 0  1.765729001825544 0 0  1.859776908880082 0 0  1.957227977487062 0 0  2.058205329869943 0 0  2.162836591189951 0 0  2.271253957290865 0 0  2.383594446803425 0 0  2.5 0.1024999999997612 0  2.5 0.2049999999994743 0  2.5 0.3074999999997183 0  2.383594446803656 0.41 0  2.271253957291315 0.41 0  2.162836591190598 0.41 0  2.058205329870775 0.41 0  1.957227977488067 0.41 0  1.859776908881246 0.41 0  1.765729001826854 0.41 0  1.674965418778818 0.41 0  1.58737143976041 0.41 0  1.502836389107956 0.41 0  1.421253448505726 0.41 0  1.342519516048286 0.41 0  1.266535089881505 0.41 0  1.193204177143353 0.41 0  1.122434100544716 0.41 0  1.05413544556068 0.41 0  0.9882218810956305 0.41 0  0.9246101326886647 0.41 0  0.8632198139519631 0.41 0  0.8039733463934788 0.41 0  0.7467958595662458 0.41 0  0.6916151138480078 0.41 0  0.6383613676644679 0.41 0  0.5869673343225223 0.41 0  0.5373680609412221 0.41 0  0.4895008759292634 0.41 0  0.4433053055145528 0.41 0  0.3987229542475914 0.41 0  0.3556974926297398 0.41 0  0.3141745521466497 0.41 0  0.2741016576310038 0.41 0  0.2354281840915826 0.41 0  0.1981052433265003 0.41 0  0.1620856860352591 0.41 0  0.1273239957535623 0.41 0  0.09377624077128965 0.41 0  0.06140001986584975 0.41 0  0.03015443760436654 0.41 0  0.2497468076502589 0.2050254481002335 0  0.2497468076502614 0.1949745518997913 0  0.2469965252529372 0.1829317073451959 0  0.2439893735792749 0.1762316384219906 0  0.2400332147834255 0.1700443375285386 0  0.2352133972704371 0.1645032867342007 0  0.2296339016332438 0.1597280261969788 0  0.2234150974217223 0.1558215752574715 0  0.2166911463437691 0.1528682099456123 0  0.2096071079204251 0.1509316448471593 0  0.2023158100364996 0.1500536585536553 0  0.194974551899914 0.1502531923497262 0  0.1877417105387872 0.1515259415822739 0  0.1807733240461124 0.153844448527136 0  0.1742197252835808 0.15715869474974 0  0.1682222986673531 0.1613971801805478 0  0.162910430003803 0.1664684656256651 0  0.1583987151779087 0.1722631454351573 0  0.1547844879126891 0.178656207771761 0  0.1521457199348551 0.1855097315605723 0  0.1505393388476355 0.1926758619366523 0  0.1505393388476328 0.2073241380633295 0  0.1521457199348437 0.2144902684393899 0  0.1547844879126531 0.221343792228163 0  0.1583987151778488 0.2277368545647528 0  0.1629104300036858 0.2335315343742052 0  0.1682222986671726 0.2386028198193036 0  0.1742197252833576 0.2428413052501257 0  0.1807733240458683 0.2461555514727623 0  0.1877417105384929 0.2484740584176516 0  0.1949745518995776 0.2497468076502398 0  0.202315810036185 0.2499463414463592 0  0.2096071079201568 0.2490683551528932 0  0.2166911463435495 0.2471317900544655 0  0.2234150974215506 0.2441784247426195 0  0.2296339016331197 0.2402719738031125 0  0.2352133972703547 0.2354967132658811 0  0.2400332147833751 0.2299556624715287 0  0.2439893735792577 0.2237683615780412 0  0.246996525252926 0.2170682926548348 0  0.25645809709277 0.21 0  0.2639263993298655 0.21 0  0.271394701566961 0.21 0  0.2788630038040554 0.21 0  0.2863313060411479 0.21 0  0.2937996082782405 0.21 0  0.301267910515333 0.21 0  0.3087362127524279 0.21 0  0.3162045149895234 0.21 0  0.3236728172265972 0.21 0  0.3311411194636928 0.21 0  0.3386094217007701 0.21 0  0.3460777239378666 0.21 0  0.3535460261749672 0.21 0  0.3610143284120516 0.21 0  0.3684826306491596 0.21 0  0.3759509328862226 0.21 0  0.383419235123329 0.21 0  0.3908875373604028 0.21 0  0.3983558395975142 0.21 0  0.4058241418345938 0.21 0  0.4132924440716992 0.21 0  0.4207607463087888 0.21 0  0.4282290485459029 0.21 0  0.4356973507830418 0.21 0  0.4431656530201649 0.21 0  0.4506339552573136 0.21 0  0.4581022574944306 0.21 0  0.4655705597315852 0.21 0  0.4730388619686996 0.21 0  0.480507164205851 0.21 0  0.4879754664429498 0.21 0  0.4954437686800938 0.21 0  0.502912070917267 0.21 0  0.5103803731544119 0.21 0  0.5178486753915261 0.21 0  0.5253169776286404 0.21 0  0.5327852798657868 0.21 0  0.5402535821029386 0.21 0  0.54772188434007 0.21 0  0.5551901865771842 0.21 0  0.5626584888143201 0.21 0  0.5701267910514778 0.21 0  0.5775950932886138 0.21 0  0.5850633955257281 0.21 0  0.5925316977628483 0.21 0  0.6 0.2050000000000054 0  0.6 0.1950000000000217 0  0.5925316977628897 0.19 0  0.5850633955257988 0.19 0  0.5775950932887378 0.19 0  0.5701267910515998 0.19 0  0.5626584888145268 0.19 0  0.5551901865773963 0.19 0  0.547721884340339 0.19 0  0.5402535821032429 0.19 0  0.5327852798661811 0.19 0  0.5253169776290537 0.19 0  0.5178486753919799 0.19 0  0.5103803731549078 0.19 0  0.502912070917822 0.19 0  0.4954437686807294 0.19 0  0.4879754664436223 0.19 0  0.4805071642065402 0.19 0  0.4730388619694271 0.19 0  0.4655705597323621 0.19 0  0.4581022574952563 0.19 0  0.4506339552581777 0.19 0  0.4431656530210671 0.19 0  0.4356973507839815 0.19 0  0.4282290485468779 0.19 0  0.4207607463097617 0.19 0  0.4132924440726327 0.19 0  0.4058241418354857 0.19 0  0.3983558395983636 0.19 0  0.3908875373612097 0.19 0  0.3834192351240934 0.19 0  0.3759509328869369 0.19 0  0.3684826306498175 0.19 0  0.361014328412667 0.19 0  0.3535460261755617 0.19 0  0.3460777239384295 0.19 0  0.3386094217012945 0.19 0  0.3311411194641595 0.19 0  0.3236728172270245 0.19 0  0.3162045149898895 0.19 0  0.3087362127527544 0.19 0  0.3012679105156187 0.19 0  0.2937996082784807 0.19 0  0.2863313060413428 0.19 0  0.2788630038042048 0.19 0  0.2713947015670686 0.19 0  0.2639263993299336 0.19 0  0.2564580970927985 0.19 0  0.2607803159922026 0.2000727136295815 0  0.5887803774232762 0.2001272386983733 0  0.5745072403740523 0.2002044435018727 0  0.5511891430099709 0.2001122610077113 0  0.2751288526855082 0.20000000000002 0  0.5365194309847112 0.1999999999999436 0  0.2894621222999649 0.1998691686390484 0  0.5215828265105155 0.1999999999999228 0  0.3127789816668748 0.1998657885438805 0  0.3274069683451451 0.2000000000000796 0  0.5066462220363641 0.199999999999908 0  0.3650630746574081 0.199866017807523 0  0.476773013087985 0.1999999999998713 0  0.3417402379596385 0.1998691686391011 0  0.3796850840047755 0.200000000000134 0  0.4618364086138087 0.1999999999998546 0  0.4917096175621762 0.1999999999998808 0  0.3946216884789568 0.2000000000001512 0  0.446899804139621 0.1999999999998389 0  0.4089549580935208 0.1998691686391595 0  0.4322718174608562 0.200127451265745 0  0.4201487168029707 0.1999966199048527 0  0.3528922713220932 0.2000185703532356 0  0.5633122436674589 0.1999814296467508 0  0.3006558810093873 0.1999966199048318 0  0.5815926498168407 0.1966545283159175 0  0.2677053789419034 0.1964246479135325 0  0.5290511287476175 0.1970915826863981 0  0.5439877332217911 0.197091582686394 0  0.2825131256993216 0.2035478995978015 0  0.3199386661080599 0.202908417313604 0  0.4842413153250809 0.1970915826863873 0  0.5141145242734466 0.1970915826863843 0  0.3722167817676917 0.2029084173136195 0  0.4693047108508938 0.1970915826863783 0  0.3348752705822316 0.202908417313609 0  0.3871533862418661 0.2029084173136212 0  0.4543681063767183 0.1970915826863795 0  0.4991779197992749 0.1970915826863902 0  0.4020059614928624 0.203547899597858 0  0.4394315019025246 0.1970915826863714 0  0.2550657455369551 0.2034088125358657 0  0.2548908499171161 0.1966940311614271 0  0.5946539510196798 0.2024302972968126 0  0.267698176732111 0.2039977513680092 0  0.4261685417851465 0.196409292431739 0  0.3590076176283495 0.196411355804271 0  0.5571672426447437 0.2036011176410121 0  0.3066757059912147 0.1964092924317024 0  0.594380730180568 0.1966558399668133 0  0.4842413153245942 0.2040749161535287 0  0.4693047108503577 0.2040749161535231 0  0.3871533862424271 0.1959250838464788 0  0.372246743208829 0.1959123236376545 0  0.5141145242731028 0.2040749161535395 0  0.4543681063761134 0.2040749161535186 0  0.4019979587101454 0.1959834479682427 0  0.4394608940728603 0.2040870543693135 0  0.5439623148931173 0.2040856076781014 0  0.5290511287473298 0.2040749161535501 0  0.4991779197988497 0.2040749161535382 0  0.3347912413592433 0.1959225448935183 0  0.3199680582793816 0.1959123018030061 0  0.2825051229162361 0.1959834479681729 0  0.3590471196690275 0.2036304442587945 0  0.5571594006495384 0.1963685282145804 0  0.3067669986803285 0.203627750582736 0  0.4262598344738712 0.2036568242185335 0  0.5814408164431408 0.2041285596160068 0  0.5688286748170428 0.1961819304477386 0  0.4145905603063645 0.2038180695522843 0  0.3473758401724931 0.2038180695522752 0  0.2950977245128307 0.2038180695522663 0  0.5688286748170693 0.203818069552238 0  0.2950977245127906 0.1961819304477774 0  0.3473758401723931 0.1961819304478349 0  0.4145905603061963 0.1961819304479011 0  0.2601812407614425 0.2056861609747042
[...]
<PointData  Vectors="f_40-1"> 
<DataArray  type="Float64"  Name="f_40-1"  NumberOfComponents="3" format="ascii">0.0000000000000000e+00 0.0000000000000000e+00 0.0000000000000000e+00  0.0000000000000000e+00 0.0000000000000000e+00 0.0000000000000000e+00  0.0000000000000000e+00 0.0000000000000000e+00 0.0000000000000000e+00  0.0000000000000000e+00 0.0000000000000000e+00 0.0000000000000000e+00  1.2789846421166945e-05 -2.9241059875252364e-04 0.0000000000000000e+00  3.5867409289170746e-05 -2.9392294304031794e-04 0.0000000000000000e+00  0.0000000000000000e+00 0.0000000000000000e+00 0.0000000000000000e+00  0.0000000000000000e+00 0.0000000000000000e+00 0.0000000000000000e+00  0.0000000000000000e+00 0.0000000000000000e+00 0.0000000000000000e+00  0.0000000000000000e+00 0.0000000000000000e+00 0.0000000000000000e+00  2.4023678932277294e-05 -2.9316610089469270e-04 0.0000000000000000e+00  0.0000000000000000e+00 0.0000000000000000e+00 0.0000000000000000e+00  0.0000000000000000e+00 0.0000000000000000e+00 0.0000000000000000e+00  0.0000000000000000e+00 0.0000000000000000e+00 0.0000000000000000e+00  0.0000000000000000e+00 0.0000000000000000e+00 0.0000000000000000e+00  0.0000000000000000e+00 0.0000000000000000e+00 0.0000000000000000e+00  0.0000000000000000e+00 0.0000000000000000e+00 0.0000000000000000e+00  0.0000000000000000e+00 0.0000000000000000e+00 0.0000000000000000e+00  0.0000000000000000e+00 0.0000000000000000e+00 0.0000000000000000e+00  0.0000000000000000e+00 0.0000000000000000e+00 0.0000000000000000e+00  0.0000000000000000e+00 0.0000000000000000e+00 0.0000000000000000e+00  0.0000000000000000e+00 0.0000000000000000e+00 0.0000000000000000e+00  0.0000000000000000e+00 0.0000000000000000e+00 0.0000000000000000e+00  0.0000000000000000e+00 0.0000000000000000e+00 0.0000000000000000e+00  0.0000000000000000e+00 0.0000000000000000e+00 0.0000000000000000e+00  0.0000000000000000e+00 0.0000000000000000e+00 0.0000000000000000e+00  0.0000000000000000e+00 0.0000000000000000e+00 0.0000000000000000e+00  0.0000000000000000e+00 0.0000000000000000e+00 0.0000000000000000e+00  0.0000000000000000e+00 0.0000000000000000e+00 0.0000000000000000e+00  0.0000000000000000e+00 0.0000000000000000e+00 0.0000000000000000e+00  0.0000000000000000e+00 0.0000000000000000e+00 0.0000000000000000e+00  0.0000000000000000e+00 0.0000000000000000e+00 0.0000000000000000e+00  0.0000000000000000e+00 0.0000000000000000e+00 0.0000000000000000e+00  0.0000000000000000e+00 0.0000000000000000e+00 0.0000000000000000e+00  0.0000000000000000e+00 0.0000000000000000e+00 0.0000000000000000e+00  0.0000000000000000e+00 0.0000000000000000e+00 0.0000000000000000e+00  0.0000000000000000e+00 0.0000000000000000e+00 0.0000000000000000e+00  0.0000000000000000e+00 0.0000000000000000e+00 0.0000000000000000e+00  0.0000000000000000e+00 0.0000000000000000e+00 0.0000000000000000e+00  0.0000000000000000e+00 0.0000000000000000e+00 0.0000000000000000e+00  0.0000000000000000e+00 0.0000000000000000e+00 0.0000000000000000e+00  0.0000000000000000e+00 0.0000000000000000e+00 0.0000000000000000e+00  0.0000000000000000e+00 0.0000000000000000e+00 0.0000000000000000e+00  0.0000000000000000e+00 0.0000000000000000e+00 0.0000000000000000e+00  0.0000000000000000e+00 0.0000000000000000e+00 0.0000000000000000e+00  0.0000000000000000e+00 0.0000000000000000e+00 0.0000000000000000e+00  0.0000000000000000e+00 0.0000000000000000e+00 0.0000000000000000e+00  0.0000000000000000e+00 0.0000000000000000e+00 0.0000000000000000e+00  0.0000000000000000e+00 0.0000000000000000e+00 0.0000000000000000e+00  0.0000000000000000e+00 0.0000000000000000e+00 0.0000000000000000e+00  0.0000000000000000e+00 0.0000000000000000e+00 0.0000000000000000e+00  0.0000000000000000e+00 0.0000000000000000e+00 0.0000000000000000e+00  0.0000000000000000e+00 0.0000000000000000e+00 0.0000000000000000e+00  0.0000000000000000e+00 0.0000000000000000e+00 0.0000000000000000e+00  0.0000000000000000e+00 0.0000000000000000e+00 0.0000000000000000e+00  0.0000000000000000e+00 0.0000000000000000e+00 0.0000000000000000e+00  0.0000000000000000e+00 0.0000000000000000e+00 0.0000000000000000e+00  0.0000000000000000e+00 0.0000000000000000e+00 0.0000000000000000e+00  0.0000000000000000e+00 0.0000000000000000e+00 0.0000000000000000e+00  0.0000000000000000e+00 0.0000000000000000e+00 0.0000000000000000e+00  0.0000000000000000e+00 0.0000000000000000e+00 0.0000000000000000e+00  0.0000000000000000e+00 0.0000000000000000e+00 0.0000000000000000e+00  0.0000000000000000e+00 0.0000000000000000e+00 0.0000000000000000e+00  0.0000000000000000e+00 0.0000000000000000e+00 0.0000000000000000e+00  0.0000000000000000e+00 0.0000000000000000e+00 0.0000000000000000e+00  0.0000000000000000e+00 0.0000000000000000e+00 0.0000000000000000e+00  0.0000000000000000e+00 0.0000000000000000e+00 0.0000000000000000e+00  0.0000000000000000e+00 0.0000000000000000e+00 0.0000000000000000e+00  0.0000000000000000e+00 0.0000000000000000e+00 0.0000000000000000e+00  0.0000000000000000e+00 0.0000000000000000e+00 0.0000000000000000e+00  0.0000000000000000e+00 0.0000000000000000e+00 0.0000000000000000e+00  0.0000000000000000e+00 0.0000000000000000e+00 0.0000000000000000e+00  0.0000000000000000e+00 0.0000000000000000e+00 0.0000000000000000e+00  0.0000000000000000e+00 0.0000000000000000e+00 0.0000000000000000e+00  0.0000000000000000e+00 0.0000000000000000e+00 0.0000000000000000e+00  0.0000000000000000e+00 0.0000000000000000e+00 0.0000000000000000e+00  0.0000000000000000e+00 0.0000000000000000e+00 0.0000000000000000e+00  0.0000000000000000e+00 0.0000000000000000e+00 0.0000000000000000e+00  0.0000000000000000e+00 0.0000000000000000e+00 0.0000000000000000e+00  0.0000000000000000e+00 0.0000000000000000e+00 0.0000000000000000e+00  0.0000000000000000e+00 0.0000000000000000e+00 0.0000000000000000e+00  0.0000000000000000e+00 0.0000000000000000e+00 0.0000000000000000e+00  0.0000000000000000e+00 0.0000000000000000e+00 0.0000000000000000e+00  0.0000000000000000e+00 0.0000000000000000e+00 0.0000000000000000e+00  0.0000000000000000e+00 0.0000000000000000e+00 0.0000000000000000e+00  0.0000000000000000e+00 0.0000000000000000e+00 0.0000000000000000e+00  0.0000000000000000e+00 0.0000000000000000e+00 0.0000000000000000e+00  0.0000000000000000e+00 0.0000000000000000e+00 0.0000000000000000e+00  0.0000000000000000e+00 0.0000000000000000e+00 0.0000000000000000e+00  0.0000000000000000e+00 0.0000000000000000e+00 0.0000000000000000e+00  0.0000000000000000e+00 0.0000000000000000e+00 0.0000000000000000e+00  0.0000000000000000e+00 0.0000000000000000e+00 0.0000000000000000e+00  0.0000000000000000e+00 0.0000000000000000e+00 0.0000000000000000e+00  0.0000000000000000e+00 0.0000000000000000e+00 0.0000000000000000e+00  0.0000000000000000e+00 0.0000000000000000e+00 0.0000000000000000e+00  0.0000000000000000e+00 0.0000000000000000e+00 0.0000000000000000e+00  0.0000000000000000e+00 0.0000000000000000e+00 0.0000000000000000e+00  0.0000000000000000e+00 0.0000000000000000e+00 0.0000000000000000e+00  0.0000000000000000e+00 0.0000000000000000e+00 0.0000000000000000e+00  0.0000000000000000e+00 0.0000000000000000e+00 0.0000000000000000e+00  0.0000000000000000e+00 0.0000000000000000e+00 0.0000000000000000e+00  0.0000000000000000e+00 0.0000000000000000e+00 0.0000000000000000e+00  0.0000000000000000e+00 0.0000000000000000e+00 0.0000000000000000e+00  0.0000000000000000e+00 0.0000000000000000e+00 0.0000000000000000e+00  0.0000000000000000e+00 0.0000000000000000e+00 0.0000000000000000e+00  0.0000000000000000e+00 0.0000000000000000e+00 0.0000000000000000e+00  0.0000000000000000e+00 0.0000000000000000e+00 0.0000000000000000e+00  0.0000000000000000e+00 0.0000000000000000e+00 0.0000000000000000e+00  0.0000000000000000e+00 0.0000000000000000e+00 0.0000000000000000e+00  0.0000000000000000e+00 0.0000000000000000e+00 0.0000000000000000e+00  0.0000000000000000e+00 0.0000000000000000e+00 0.0000000000000000e+00  0.0000000000000000e+00 0.0000000000000000e+00 0.0000000000000000e+00  0.0000000000000000e+00 0.0000000000000000e+00 0.0000000000000000e+00  0.0000000000000000e+00 0.0000000000000000e+00 0.0000000000000000e+00  0.0000000000000000e+00 0.0000000000000000e+00 0.0000000000000000e+00  0.0000000000000000e+00 0.0000000000000000e+00 0.0000000000000000e+00  0.0000000000000000e+00 0.0000000000000000e+00 0.0000000000000000e+00  0.0000000000000000e+00 0.0000000000000000e+00 0.0000000000000000e+00  0.0000000000000000e+00 0.0000000000000000e+00 0.0000000000000000e+00  0.0000000000000000e+00 0.0000000000000000e+00 0.0000000000000000e+00  0.0000000000000000e+00 0.0000000000000000e+00 0.0000000000000000e+00  0.0000000000000000e+00 0.0000000000000000e+00 0.0000000000000000e+00  0.0000000000000000e+00 0.0000000000000000e+00 0.0000000000000000e+00  0.0000000000000000e+00 0.0000000000000000e+00 0.0000000000000000e+00  0.0000000000000000e+00 0.0000000000000000e+00 0.0000000000000000e+00  0.0000000000000000e+00 0.0000000000000000e+00 0.0000000000000000e+00  0.0000000000000000e+00 0.0000000000000000e+00 0.0000000000000000e+00  0.0000000000000000e+00 0.0000000000000000e+00 0.0000000000000000e+00  0.0000000000000000e+00 0.0000000000000000e+00 0.0000000000000000e+00  0.0000000000000000e+00 0.0000000000000000e+00 0.0000000000000000e+00  0.0000000000000000e+00 0.0000000000000000e+00 0.0000000000000000e+00  0.0000000000000000e+00 0.0000000000000000e+00 0.0000000000000000e+00  0.0000000000000000e+00 0.0000000000000000e+00 0.0000000000000000e+00  0.0000000000000000e+00 0.0000000000000000e+00 0.0000000000000000e+00  0.0000000000000000e+00 0.0000000000000000e+00 0.0000000000000000e+00  0.0000000000000000e+00 0.0000000000000000e+00 0.0000000000000000e+00  0.0000000000000000e+00 0.0000000000000000e+00 0.0000000000000000e+00  0.0000000000000000e+00 0.0000000000000000e+00 0.0000000000000000e+00  0.0000000000000000e+00 0.0000000000000000e+00 0.0000000000000000e+00  0.0000000000000000e+00 0.0000000000000000e+00 0.0000000000000000e+00  0.0000000000000000e+00 0.0000000000000000e+00 0.0000000000000000e+00  0.0000000000000000e+00 0.0000000000000000e+00 0.0000000000000000e+00  0.0000000000000000e+00 0.0000000000000000e+00 0.0000000000000000e+00  1.2342452239796936e-06 -2.0784123398173650e-06 0.0000000000000000e+00  2.6450384500615920e-06 -2.7779905603463670e-06 0.0000000000000000e+00  4.1157519822028738e-06 -3.7913180279463618e-06 0.0000000000000000e+00  5.6980547058101904e-06 -5.1867713558710959e-06 0.0000000000000000e+00  7.2103639494917069e-06 -6.9715739903410267e-06 0.0000000000000000e+00  8.8044635295947352e-06 -9.1954429980042136e-06 0.0000000000000000e+00  1.0280289876177063e-05 -1.1744380141332905e-05 0.0000000000000000e+00  1.1739215862347425e-05 -1.4730618876174223e-05 0.0000000000000000e+00  1.3273069792680143e-05 -1.8058025407890580e-05 0.0000000000000000e+00  1.4653577296236194e-05 -2.1738147438479649e-05 0.0000000000000000e+00  1.6125467416466140e-05 -2.5789446936237416e-05 0.0000000000000000e+00  1.7437888113923301e-05 -3.0164821358892559e-05 0.0000000000000000e+00  1.8808652890554405e-05 -3.4878133539693857e-05 0.0000000000000000e+00  2.0054637770159612e-05 -3.9860957224430940e-05 0.0000000000000000e+00  2.1260572648228051e-05 -4.5178831728000627e-05 0.0000000000000000e+00  2.2499636019444931e-05 -5.0758970141880984e-05 0.0000000000000000e+00  2.3597581824251021e-05 -5.6590810412955702e-05 0.0000000000000000e+00  2.4734130150914071e-05 -6.2703173620028970e-05 0.0000000000000000e+00  2.5734728646944513e-05 -6.9027206381415336e-05 0.0000000000000000e+00  2.6758997098036384e-05 -7.5593426436135054e-05 0.0000000000000000e+00  2.7675296223999775e-05 -8.2350930391039855e-05 0.0000000000000000e+00  2.8582017721170568e-05 -8.9325155312143019e-05 0.0000000000000000e+00  2.9400011068641090e-05 -9.6447825855418062e-05 0.0000000000000000e+00  3.0169468733406610e-05 -1.0376023699931740e-04 0.0000000000000000e+00  3.0933781444139408e-05 -1.1120982290421009e-04 0.0000000000000000e+00  3.1613339637887419e-05 -1.1879603533982569e-04 0.0000000000000000e+00  3.2255783855499987e-05 -1.2653456302941831e-04 0.0000000000000000e+00  3.2838120108078857e-05 -1.3435926263486404e-04 0.0000000000000000e+00  3.3382262442036690e-05 -1.4231616170053371e-04 0.0000000000000000e+00  3.3870603926489180e-05 -1.5033853759161066e-04 0.0000000000000000e+00  3.4320285885062521e-05 -1.5847116725876333e-04 0.0000000000000000e+00  3.4717110375953955e-05 -1.6664938939341614e-04 0.0000000000000000e+00  3.5075798411348535e-05 -1.7491891410634447e-04 0.0000000000000000e+00  3.5384344752335822e-05 -1.8321634565607818e-04 0.0000000000000000e+00  3.5653542169606789e-05 -1.9158984175407124e-04 0.0000000000000000e+00  3.5876546863342926e-05 -1.9997780149145374e-04 0.0000000000000000e+00  3.6061535744356700e-05 -2.0842686863888088e-04 0.0000000000000000e+00  3.6202570931356997e-05 -2.1687982653334682e-04 0.0000000000000000e+00  3.6304945054976831e-05 -2.2538269068984621e-04 0.0000000000000000e+00  3.6363610194529688e-05 -2.3387967686970535e-04 0.0000000000000000e+00  3.6378787170304128e-05 -2.4241009187062046e-04 0.0000000000000000e+00  3.6360100384747102e-05 -2.5094207822821984e-04 0.0000000000000000e+00  3.6298418539660263e-05 -2.5948830606328099e-04 0.0000000000000000e+00  3.6214451321111677e-05 -2.6803965409210760e-04 0.0000000000000000e+00  3.6084002076517712e-05 -2.7658204105887114e-04 0.0000000000000000e+00  3.5947110479240373e-05 -2.8516563615884016e-04 0.0000000000000000e+00  2.9838603261864411e-05 -2.9354190264802970e-04 0.0000000000000000e+00  1.8312964671400361e-05 -2.9279459434470488e-04 0.0000000000000000e+00  1.2884483616015138e-05 -2.8394139223755278e-04 0.0000000000000000e+00  1.3045440982730105e-05 -2.7530221581507035e-04 0.0000000000000000e+00  1.3195669466738051e-05 -2.6664527357126978e-04 0.0000000000000000e+00  1.3307942626376704e-05 -2.5801260101481735e-04 0.0000000000000000e+00  1.3396827056501898e-05 -2.4938738757720980e-04 0.0000000000000000e+00  1.3447132754912403e-05 -2.4077458541898694e-04 0.0000000000000000e+00  1.3476264337282919e-05 -2.3218052440421113e-04 0.0000000000000000e+00  1.3464194988841757e-05 -2.2358823000543946e-04 0.0000000000000000e+00  1.3430046102221267e-05 -2.1503849372955046e-04 0.0000000000000000e+00  1.3358745866860751e-05 -2.0649026541876060e-04 0.0000000000000000e+00  1.3271233640800860e-05 -1.9799452906653302e-04 0.0000000000000000e+00  1.3144995983162280e-05 -1.8951151097314889e-04 0.0000000000000000e+00  1.3008584928845653e-05 -1.8109227258895693e-04 0.0000000000000000e+00  1.2831185289214142e-05 -1.7270001908376858e-04 0.0000000000000000e+00  1.2651018609482229e-05 -1.6438519227868518e-04 0.0000000000000000e+00  1.2426052902281522e-05 -1.5611358853375975e-04 0.0000000000000000e+00  1.2206171682219854e-05 -1.4793590696393153e-04 0.0000000000000000e+00  1.1936919995553306e-05 -1.3982039579366528e-04 0.0000000000000000e+00  1.1681552116748945e-05 -1.3181861407729736e-04 0.0000000000000000e+00  1.1371266610897190e-05 -1.2390116980553296e-04 0.0000000000000000e+00  1.1085171103564109e-05 -1.1611982948329603e-04 0.0000000000000000e+00  1.0737689540999534e-05 -1.0844845157362583e-04 0.0000000000000000e+00  1.0415994438882498e-05 -1.0093270835745849e-04 0.0000000000000000e+00  1.0044270728493049e-05 -9.3551181637926270e-05 0.0000000000000000e+00  9.6508530850798830e-06 -8.6365156149913682e-05 0.0000000000000000e+00  9.2929313752876071e-06 -7.9325328479697385e-05 0.0000000000000000e+00  8.8829630051988087e-06 -7.2492048880730772e-05 0.0000000000000000e+00  8.4854595186929477e-06 -6.5874706772174491e-05 0.0000000000000000e+00  8.0510722980508194e-06 -5.9471166641694801e-05 0.0000000000000000e+00  7.6281042402853188e-06 -5.3318881284022009e-05 0.0000000000000000e+00  7.1693611022322624e-06 -4.7398651517533055e-05 0.0000000000000000e+00  6.7492555026915639e-06 -4.1787939547310556e-05 0.0000000000000000e+00  6.2585988669285442e-06 -3.6408695272627463e-05 0.0000000000000000e+00  5.7533116896698853e-06 -3.1380869706110360e-05 0.0000000000000000e+00  5.3162164180615489e-06 -2.6603363113904263e-05 0.0000000000000000e+00  4.8217326045294151e-06 -2.2185384682979981e-05 0.0000000000000000e+00  4.3544202193326433e-06 -1.8109454678065508e-05 0.0000000000000000e+00  3.8487141183120366e-06 -1.4371845638614231e-05 0.0000000000000000e+00  3.4056899837818877e-06 -1.1044467527878695e-05 0.0000000000000000e+00  2.8785281057231860e-06 -8.0310090943669220e-06 0.0000000000000000e+00  2.3441988469407493e-06 -5.4689870747596361e-06 0.0000000000000000e+00  1.9058685720536919e-06 -3.2290837971311581e-06 0.0000000000000000e+00  1.3970534450291459e-06 -1.4123212295310380e-06 0.0000000000000000e+00  9.8213068175525937e-07 -1.3985266147033223e-08 0.0000000000000000e+00  5.3418820024432441e-07 9.2415068522670638e-07 0.0000000000000000e+00  2.5930376696399793e-07 1.3518564588267721e-06 0.0000000000000000e+00  9.0064831475202246e-07 -3.6493324462571244e-07 0.0000000000000000e+00  2.4514924847578860e-05 -2.8022899968301415e-04 0.0000000000000000e+00  2.4936297937151573e-05 -2.6379577717733252e-04 0.0000000000000000e+00  2.5003496697539280e-05 -2.3700198149429974e-04 0.0000000000000000e+00  3.0239992756111209e-06 -2.2843279102437474e-06 0.0000000000000000e+00  2.4801073403149388e-05 -2.2020367759918559e-04 0.0000000000000000e+00  4.9373262122490090e-06 -5.6940094600605917e-06 0.0000000000000000e+00  2.4593637927510038e-05 -2.0319603516599042e-04 0.0000000000000000e+00  8.0191517275988524e-06 -1.4375096186835336e-05 0.0000000000000000e+00  9.9576188097785581e-06 -2.1691103820695096e-05 0.0000000000000000e+00  2.4249841309027934e-05 -1.8631664274497520e-04 0.0000000000000000e+00  1.4316656227761226e-05 -4.6277804941123763e-05 0.0000000000000000e+00  2.3158276351393925e-05 -1.5315294772444689e-04 0.0000000000000000e+00  1.1649287981201524e-05 -3.0094124304213387e-05 0.0000000000000000e+00  1.5961244733986713e-05 -5.7831377208105093e-05 0.0000000000000000e+00  2.2412440089294629e-05 -1.3700102447261619e-04 0.0000000000000000e+00  2.3771054701773320e-05 -1.6961532078291566e-04 0.0000000000000000e+00  1.7424366335113301e-05 -7.0577344631405321e-05 0.0000000000000000e+00  2.1533054388182074e-05 -1.2124320948171297e-04 0.0000000000000000e+00  1.8591966031319861e-05 -8.3603047580149448e-05 0.0000000000000000e+00  2.0676360695746173e-05 -1.0629864900055704e-04 0.0000000000000000e+00  1.9616704217056783e-05 -9.4324438360778015e-05 0.0000000000000000e+00  1.3047718345849488e-05 -3.7544455805035688e-05 0.0000000000000000e+00  2.4790867592078812e-05 -2.5090858628483371e-04 0.0000000000000000e+00  6.4680476708819079e-06 -9.4784531330791223e-06 0.0000000000000000e+00  2.0710420446440592e-05 -2.7172481797432200e-04 0.0000000000000000e+00  1.4952842327986018e-06 -4.3977190210889952e-07 0.0000000000000000e+00  2.1409844791196498e-05 -2.1141468720310775e-04 0.0000000000000000e+00  2.1530907994269716e-05 -2.2848994113947520e-04 0.0000000000000000e+00  4.8744521793028388e-06 -4.5767973841423725e-06 0.0000000000000000e+00  1.0446282227121388e-05 -1.8358511471878539e-05 0.0000000000000000e+00  2.0287271979135076e-05 -1.6102059716661794e-04 0.0000000000000000e+00  2.1160411588946343e-05 -1.9444593289441031e-04 0.0000000000000000e+00  1.7464704435742093e-05 -5.2321345210966904e-05 0.0000000000000000e+00  1.9669971270683965e-05 -1.4468527274334405e-04 0.0000000000000000e+00  1.2585823900708528e-05 -2.6479766631105608e-05 0.0000000000000000e+00  1.9172818926583527e-05 -6.4575073763370911e-05 0.0000000000000000e+00  1.8935308161846278e-05 -1.2870107443580200e-04 0.0000000000000000e+00  2.0785054656209092e-05 -1.7762935172017640e-04 0.0000000000000000e+00  2.1312762511162079e-05 -7.7772908897067106e-05 0.0000000000000000e+00  1.8084412869565032e-05 -1.1315693301136134e-04 0.0000000000000000e+00  3.1287838662126060e-07 -4.8159614617344966e-07 0.0000000000000000e+00  1.3425666220878618e-07 3.3194144306734641e-07 0.0000000000000000e+00  2.6992075641464296e-05 -2.8714775790605483e-04 0.0000000000000000e+00  2.5072814445026223e-06 -1.9283651668229794e-06 0.0000000000000000e+00  1.6566811