<?xml version="1.0"?>
<VTKFile type="UnstructuredGrid"  version="0.1"  >
<UnstructuredGrid>
<Piece  NumberOfPoints="1419" NumberOfCells="2698">
<Points>
<DataArray  type="Float64"  NumberOfComponents="3"  format="ascii">0 0 0  0 0.41 0  2.5 0 0  2.5 0.41 0  0.6 0.19 0  0.6 0.21 0  0.25 0.2 0  0.15 0.2 0  0.2489897948556636 0.21 0  0.2489897948556636 0.19 0  0.6 0.2 0  0 0.3807142857143437 0  0 0.3514285714286952 0  0 0.3221428571430699 0  0 0.29285714285744 0  0 0.2635714285718054 0  0 0.2342857142861561 0  0 0.2050000000005308 0  0 0.175714285714732 0  0 0.1464285714289574 0  0 0.1171428571431897 0  0 0.08785714285737878 0  0 0.05857142857161107 0  0 0.02928571428580012 0  0.03015443760436003 0 0  0.06140001986583606 0 0  0.09377624077125973 0 0  0.1273239957535082 0 0  0.1620856860351972 0 0  0.1981052433264291 0 0  0.235428184091502 0 0  0.2741016576309132 0 0  0.3141745521465447 0 0  0.3556974926295285 0 0  0.3987229542472677 0 0  0.4433053055141081 0 0  0.4895008759286886 0 0  0.5373680609405097 0 0  0.5869673343216626 0 0  0.6383613676634521 0 0  0.6916151138468254 0 0  0.7467958595648856 0 0  0.8039733463919316 0 0  0.8632198139502143 0 0  0.9246101326867038 0 0  0.9882218810934433 0 0  1.054135445558498 0 0  1.122434100542598 0 0  1.193204177141305 0 0  1.266535089879536 0 0  1.342519516046404 0 0  1.421253448503939 0 0  1.502836389106271 0 0  1.587371439758838 0 0  1.674965418777374 0 0  1.765729001825544 0 0  1.859776908880082 0 0  1.957227977487062 0 0  2.058205329869943 0 0  2.162836591189951 0 0  2.271253957290865 0 0  2.383594446803425 0 0  2.5 0.1024999999997612 0  2.5 0.2049999999994743 0  2.5 0.3074999999997183 0  2.383594446803656 0.41 0  2.271253957291315 0.41 0  2.162836591190598 0.41 0  2.058205329870775 0.41 0  1.957227977488067 0.41 0  1.859776908881246 0.41 0  1.765729001826854 0.41 0  1.674965418778818 0.41 0  1.58737143976041 0.41 0  1.502836389107956 0.41 0  1.421253448505726 0.41 0  1.342519516048286 0.41 0  1.266535089881505 0.41 0  1.193204177143353 0.41 0  1.122434100544716 0.41 0  1.05413544556068 0.41 0  0.9882218810956305 0.41 0  0.9246101326886647 0.41 0  0.8632198139519631 0.41 0  0.8039733463934788 0.41 0  0.7467958595662458 0.41 0  0.6916151138480078 0.41 0  0.6383613676644679 0.41 0  0.5869673343225223 0.41 0  0.5373680609412221 0.41 0  0.4895008759292634 0.41 0  0.4433053055145528 0.41 0  0.3987229542475914 0.41 0  0.3556974926297398 0.41 0  0.3141745521466497 0.41 0  0.2741016576310038 0.41 0  0.2354281840915826 0.41 0  0.1981052433265003 0.41 0  0.1620856860352591 0.41 0  0.1273239957535623 0.41 0  0.09377624077128965 0.41 0  0.06140001986584975 0.41 0  0.03015443760436654 0.41 0  0.2497468076502589 0.2050254481002335 0  0.2497468076502614 0.1949745518997913 0  0.2469965252529372 0.1829317073451959 0  0.2439893735792749 0.1762316384219906 0  0.2400332147834255 0.1700443375285386 0  0.2352133972704371 0.1645032867342007 0  0.2296339016332438 0.1597280261969788 0  0.2234150974217223 0.1558215752574715 0  0.2166911463437691 0.1528682099456123 0  0.2096071079204251 0.1509316448471593 0  0.2023158100364996 0.1500536585536553 0  0.194974551899914 0.1502531923497262 0  0.1877417105387872 0.1515259415822739 0  0.1807733240461124 0.153844448527136 0  0.1742197252835808 0.15715869474974 0  0.1682222986673531 0.1613971801805478 0  0.162910430003803 0.1664684656256651 0  0.1583987151779087 0.1722631454351573 0  0.1547844879126891 0.178656207771761 0  0.1521457199348551 0.1855097315605723 0  0.1505393388476355 0.1926758619366523 0  0.1505393388476328 0.2073241380633295 0  0.1521457199348437 0.2144902684393899 0  0.1547844879126531 0.221343792228163 0  0.1583987151778488 0.2277368545647528 0  0.1629104300036858 0.2335315343742052 0  0.1682222986671726 0.2386028198193036 0  0.1742197252833576 0.2428413052501257 0  0.1807733240458683 0.2461555514727623 0  0.1877417105384929 0.2484740584176516 0  0.1949745518995776 0.2497468076502398 0  0.202315810036185 0.2499463414463592 0  0.2096071079201568 0.2490683551528932 0  0.2166911463435495 0.2471317900544655 0  0.2234150974215506 0.2441784247426195 0  0.2296339016331197 0.2402719738031125 0  0.2352133972703547 0.2354967132658811 0  0.2400332147833751 0.2299556624715287 0  0.2439893735792577 0.2237683615780412 0  0.246996525252926 0.2170682926548348 0  0.25645809709277 0.21 0  0.2639263993298655 0.21 0  0.271394701566961 0.21 0  0.2788630038040554 0.21 0  0.2863313060411479 0.21 0  0.2937996082782405 0.21 0  0.301267910515333 0.21 0  0.3087362127524279 0.21 0  0.3162045149895234 0.21 0  0.3236728172265972 0.21 0  0.3311411194636928 0.21 0  0.3386094217007701 0.21 0  0.3460777239378666 0.21 0  0.3535460261749672 0.21 0  0.3610143284120516 0.21 0  0.3684826306491596 0.21 0  0.3759509328862226 0.21 0  0.383419235123329 0.21 0  0.3908875373604028 0.21 0  0.3983558395975142 0.21 0  0.4058241418345938 0.21 0  0.4132924440716992 0.21 0  0.4207607463087888 0.21 0  0.4282290485459029 0.21 0  0.4356973507830418 0.21 0  0.4431656530201649 0.21 0  0.4506339552573136 0.21 0  0.4581022574944306 0.21 0  0.4655705597315852 0.21 0  0.4730388619686996 0.21 0  0.480507164205851 0.21 0  0.4879754664429498 0.21 0  0.4954437686800938 0.21 0  0.502912070917267 0.21 0  0.5103803731544119 0.21 0  0.5178486753915261 0.21 0  0.5253169776286404 0.21 0  0.5327852798657868 0.21 0  0.5402535821029386 0.21 0  0.54772188434007 0.21 0  0.5551901865771842 0.21 0  0.5626584888143201 0.21 0  0.5701267910514778 0.21 0  0.5775950932886138 0.21 0  0.5850633955257281 0.21 0  0.5925316977628483 0.21 0  0.6 0.2050000000000054 0  0.6 0.1950000000000217 0  0.5925316977628897 0.19 0  0.5850633955257988 0.19 0  0.5775950932887378 0.19 0  0.5701267910515998 0.19 0  0.5626584888145268 0.19 0  0.5551901865773963 0.19 0  0.547721884340339 0.19 0  0.5402535821032429 0.19 0  0.5327852798661811 0.19 0  0.5253169776290537 0.19 0  0.5178486753919799 0.19 0  0.5103803731549078 0.19 0  0.502912070917822 0.19 0  0.4954437686807294 0.19 0  0.4879754664436223 0.19 0  0.4805071642065402 0.19 0  0.4730388619694271 0.19 0  0.4655705597323621 0.19 0  0.4581022574952563 0.19 0  0.4506339552581777 0.19 0  0.4431656530210671 0.19 0  0.4356973507839815 0.19 0  0.4282290485468779 0.19 0  0.4207607463097617 0.19 0  0.4132924440726327 0.19 0  0.4058241418354857 0.19 0  0.3983558395983636 0.19 0  0.3908875373612097 0.19 0  0.3834192351240934 0.19 0  0.3759509328869369 0.19 0  0.3684826306498175 0.19 0  0.361014328412667 0.19 0  0.3535460261755617 0.19 0  0.3460777239384295 0.19 0  0.3386094217012945 0.19 0  0.3311411194641595 0.19 0  0.3236728172270245 0.19 0  0.3162045149898895 0.19 0  0.3087362127527544 0.19 0  0.3012679105156187 0.19 0  0.2937996082784807 0.19 0  0.2863313060413428 0.19 0  0.2788630038042048 0.19 0  0.2713947015670686 0.19 0  0.2639263993299336 0.19 0  0.2564580970927985 0.19 0  0.2607803159922026 0.2000727136295815 0  0.5887803774232762 0.2001272386983733 0  0.5745072403740523 0.2002044435018727 0  0.5511891430099709 0.2001122610077113 0  0.2751288526855082 0.20000000000002 0  0.5365194309847112 0.1999999999999436 0  0.2894621222999649 0.1998691686390484 0  0.5215828265105155 0.1999999999999228 0  0.3127789816668748 0.1998657885438805 0  0.3274069683451451 0.2000000000000796 0  0.5066462220363641 0.199999999999908 0  0.3650630746574081 0.199866017807523 0  0.476773013087985 0.1999999999998713 0  0.3417402379596385 0.1998691686391011 0  0.3796850840047755 0.200000000000134 0  0.4618364086138087 0.1999999999998546 0  0.4917096175621762 0.1999999999998808 0  0.3946216884789568 0.2000000000001512 0  0.446899804139621 0.1999999999998389 0  0.4089549580935208 0.1998691686391595 0  0.4322718174608562 0.200127451265745 0  0.4201487168029707 0.1999966199048527 0  0.3528922713220932 0.2000185703532356 0  0.5633122436674589 0.1999814296467508 0  0.3006558810093873 0.1999966199048318 0  0.5815926498168407 0.1966545283159175 0  0.2677053789419034 0.1964246479135325 0  0.5290511287476175 0.1970915826863981 0  0.5439877332217911 0.197091582686394 0  0.2825131256993216 0.2035478995978015 0  0.3199386661080599 0.202908417313604 0  0.4842413153250809 0.1970915826863873 0  0.5141145242734466 0.1970915826863843 0  0.3722167817676917 0.2029084173136195 0  0.4693047108508938 0.1970915826863783 0  0.3348752705822316 0.202908417313609 0  0.3871533862418661 0.2029084173136212 0  0.4543681063767183 0.1970915826863795 0  0.4991779197992749 0.1970915826863902 0  0.4020059614928624 0.203547899597858 0  0.4394315019025246 0.1970915826863714 0  0.2550657455369551 0.2034088125358657 0  0.2548908499171161 0.1966940311614271 0  0.5946539510196798 0.2024302972968126 0  0.267698176732111 0.2039977513680092 0  0.4261685417851465 0.196409292431739 0  0.3590076176283495 0.196411355804271 0  0.5571672426447437 0.2036011176410121 0  0.3066757059912147 0.1964092924317024 0  0.594380730180568 0.1966558399668133 0  0.4842413153245942 0.2040749161535287 0  0.4693047108503577 0.2040749161535231 0  0.3871533862424271 0.1959250838464788 0  0.372246743208829 0.1959123236376545 0  0.5141145242731028 0.2040749161535395 0  0.4543681063761134 0.2040749161535186 0  0.4019979587101454 0.1959834479682427 0  0.4394608940728603 0.2040870543693135 0  0.5439623148931173 0.2040856076781014 0  0.5290511287473298 0.2040749161535501 0  0.4991779197988497 0.2040749161535382 0  0.3347912413592433 0.1959225448935183 0  0.3199680582793816 0.1959123018030061 0  0.2825051229162361 0.1959834479681729 0  0.3590471196690275 0.2036304442587945 0  0.5571594006495384 0.1963685282145804 0  0.3067669986803285 0.203627750582736 0  0.4262598344738712 0.2036568242185335 0  0.5814408164431408 0.2041285596160068 0  0.5688286748170428 0.1961819304477386 0  0.4145905603063645 0.2038180695522843 0  0.3473758401724931 0.2038180695522752 0  0.2950977245128307 0.2038180695522663 0  0.5688286748170693 0.203818069552238 0  0.2950977245127906 0.1961819304477774 0  0.3473758401723931 0.1961819304478349 0  0.4145905603061963 0.1961819304479011 0  0.2601812407614425 0.2056861609747042
[...]
<PointData  Vectors="f_40-1"> 
<DataArray  type="Float64"  Name="f_40-1"  NumberOfComponents="3" format="ascii">0.0000000000000000e+00 0.0000000000000000e+00 0.0000000000000000e+00  0.0000000000000000e+00 0.0000000000000000e+00 0.0000000000000000e+00  0.0000000000000000e+00 0.0000000000000000e+00 0.0000000000000000e+00  0.0000000000000000e+00 0.0000000000000000e+00 0.0000000000000000e+00  -1.0676823581930231e-06 -8.8205323950908966e-07 0.0000000000000000e+00  -8.4299420926591506e-07 -9.5587138777080601e-07 0.0000000000000000e+00  0.0000000000000000e+00 0.0000000000000000e+00 0.0000000000000000e+00  0.0000000000000000e+00 0.0000000000000000e+00 0.0000000000000000e+00  0.0000000000000000e+00 0.0000000000000000e+00 0.0000000000000000e+00  0.0000000000000000e+00 0.0000000000000000e+00 0.0000000000000000e+00  -9.5539777615990709e-07 -9.1904536770405372e-07 0.0000000000000000e+00  0.0000000000000000e+00 0.0000000000000000e+00 0.0000000000000000e+00  0.0000000000000000e+00 0.0000000000000000e+00 0.0000000000000000e+00  0.0000000000000000e+00 0.0000000000000000e+00 0.0000000000000000e+00  0.0000000000000000e+00 0.0000000000000000e+00 0.0000000000000000e+00  0.0000000000000000e+00 0.0000000000000000e+00 0.0000000000000000e+00  0.0000000000000000e+00 0.0000000000000000e+00 0.0000000000000000e+00  0.0000000000000000e+00 0.0000000000000000e+00 0.0000000000000000e+00  0.0000000000000000e+00 0.0000000000000000e+00 0.0000000000000000e+00  0.0000000000000000e+00 0.0000000000000000e+00 0.0000000000000000e+00  0.0000000000000000e+00 0.0000000000000000e+00 0.0000000000000000e+00  0.0000000000000000e+00 0.0000000000000000e+00 0.0000000000000000e+00  0.0000000000000000e+00 0.0000000000000000e+00 0.0000000000000000e+00  0.0000000000000000e+00 0.0000000000000000e+00 0.0000000000000000e+00  0.0000000000000000e+00 0.0000000000000000e+00 0.0000000000000000e+00  0.0000000000000000e+00 0.0000000000000000e+00 0.0000000000000000e+00  0.0000000000000000e+00 0.0000000000000000e+00 0.0000000000000000e+00  0.0000000000000000e+00 0.0000000000000000e+00 0.0000000000000000e+00  0.0000000000000000e+00 0.0000000000000000e+00 0.0000000000000000e+00  0.0000000000000000e+00 0.0000000000000000e+00 0.0000000000000000e+00  0.0000000000000000e+00 0.0000000000000000e+00 0.0000000000000000e+00  0.0000000000000000e+00 0.0000000000000000e+00 0.0000000000000000e+00  0.0000000000000000e+00 0.0000000000000000e+00 0.0000000000000000e+00  0.0000000000000000e+00 0.0000000000000000e+00 0.0000000000000000e+00  0.0000000000000000e+00 0.0000000000000000e+00 0.0000000000000000e+00  0.0000000000000000e+00 0.0000000000000000e+00 0.0000000000000000e+00  0.0000000000000000e+00 0.0000000000000000e+00 0.0000000000000000e+00  0.0000000000000000e+00 0.0000000000000000e+00 0.0000000000000000e+00  0.0000000000000000e+00 0.0000000000000000e+00 0.0000000000000000e+00  0.0000000000000000e+00 0.0000000000000000e+00 0.0000000000000000e+00  0.0000000000000000e+00 0.0000000000000000e+00 0.0000000000000000e+00  0.0000000000000000e+00 0.0000000000000000e+00 0.0000000000000000e+00  0.0000000000000000e+00 0.0000000000000000e+00 0.0000000000000000e+00  0.0000000000000000e+00 0.0000000000000000e+00 0.0000000000000000e+00  0.0000000000000000e+00 0.0000000000000000e+00 0.0000000000000000e+00  0.0000000000000000e+00 0.0000000000000000e+00 0.0000000000000000e+00  0.0000000000000000e+00 0.0000000000000000e+00 0.0000000000000000e+00  0.0000000000000000e+00 0.0000000000000000e+00 0.0000000000000000e+00  0.0000000000000000e+00 0.0000000000000000e+00 0.0000000000000000e+00  0.0000000000000000e+00 0.0000000000000000e+00 0.0000000000000000e+00  0.0000000000000000e+00 0.0000000000000000e+00 0.0000000000000000e+00  0.0000000000000000e+00 0.0000000000000000e+00 0.0000000000000000e+00  0.0000000000000000e+00 0.0000000000000000e+00 0.0000000000000000e+00  0.0000000000000000e+00 0.0000000000000000e+00 0.0000000000000000e+00  0.0000000000000000e+00 0.0000000000000000e+00 0.0000000000000000e+00  0.0000000000000000e+00 0.0000000000000000e+00 0.0000000000000000e+00  0.0000000000000000e+00 0.0000000000000000e+00 0.0000000000000000e+00  0.0000000000000000e+00 0.0000000000000000e+00 0.0000000000000000e+00  0.0000000000000000e+00 0.0000000000000000e+00 0.0000000000000000e+00  0.0000000000000000e+00 0.0000000000000000e+00 0.0000000000000000e+00  0.0000000000000000e+00 0.0000000000000000e+00 0.0000000000000000e+00  0.0000000000000000e+00 0.0000000000000000e+00 0.0000000000000000e+00  0.0000000000000000e+00 0.0000000000000000e+00 0.0000000000000000e+00  0.0000000000000000e+00 0.0000000000000000e+00 0.0000000000000000e+00  0.0000000000000000e+00 0.0000000000000000e+00 0.0000000000000000e+00  0.0000000000000000e+00 0.0000000000000000e+00 0.0000000000000000e+00  0.0000000000000000e+00 0.0000000000000000e+00 0.0000000000000000e+00  0.0000000000000000e+00 0.0000000000000000e+00 0.0000000000000000e+00  0.0000000000000000e+00 0.0000000000000000e+00 0.0000000000000000e+00  0.0000000000000000e+00 0.0000000000000000e+00 0.0000000000000000e+00  0.0000000000000000e+00 0.0000000000000000e+00 0.0000000000000000e+00  0.0000000000000000e+00 0.0000000000000000e+00 0.0000000000000000e+00  0.0000000000000000e+00 0.0000000000000000e+00 0.0000000000000000e+00  0.0000000000000000e+00 0.0000000000000000e+00 0.0000000000000000e+00  0.0000000000000000e+00 0.0000000000000000e+00 0.0000000000000000e+00  0.0000000000000000e+00 0.0000000000000000e+00 0.0000000000000000e+00  0.0000000000000000e+00 0.0000000000000000e+00 0.0000000000000000e+00  0.0000000000000000e+00 0.0000000000000000e+00 0.0000000000000000e+00  0.0000000000000000e+00 0.0000000000000000e+00 0.0000000000000000e+00  0.0000000000000000e+00 0.0000000000000000e+00 0.0000000000000000e+00  0.0000000000000000e+00 0.0000000000000000e+00 0.0000000000000000e+00  0.0000000000000000e+00 0.0000000000000000e+00 0.0000000000000000e+00  0.0000000000000000e+00 0.0000000000000000e+00 0.0000000000000000e+00  0.0000000000000000e+00 0.0000000000000000e+00 0.0000000000000000e+00  0.0000000000000000e+00 0.0000000000000000e+00 0.0000000000000000e+00  0.0000000000000000e+00 0.0000000000000000e+00 0.0000000000000000e+00  0.0000000000000000e+00 0.0000000000000000e+00 0.0000000000000000e+00  0.0000000000000000e+00 0.0000000000000000e+00 0.0000000000000000e+00  0.0000000000000000e+00 0.0000000000000000e+00 0.0000000000000000e+00  0.0000000000000000e+00 0.0000000000000000e+00 0.0000000000000000e+00  0.0000000000000000e+00 0.0000000000000000e+00 0.0000000000000000e+00  0.0000000000000000e+00 0.0000000000000000e+00 0.0000000000000000e+00  0.0000000000000000e+00 0.0000000000000000e+00 0.0000000000000000e+00  0.0000000000000000e+00 0.0000000000000000e+00 0.0000000000000000e+00  0.0000000000000000e+00 0.0000000000000000e+00 0.0000000000000000e+00  0.0000000000000000e+00 0.0000000000000000e+00 0.0000000000000000e+00  0.0000000000000000e+00 0.0000000000000000e+00 0.0000000000000000e+00  0.0000000000000000e+00 0.0000000000000000e+00 0.0000000000000000e+00  0.0000000000000000e+00 0.0000000000000000e+00 0.0000000000000000e+00  0.0000000000000000e+00 0.0000000000000000e+00 0.0000000000000000e+00  0.0000000000000000e+00 0.0000000000000000e+00 0.0000000000000000e+00  0.0000000000000000e+00 0.0000000000000000e+00 0.0000000000000000e+00  0.0000000000000000e+00 0.0000000000000000e+00 0.0000000000000000e+00  0.0000000000000000e+00 0.0000000000000000e+00 0.0000000000000000e+00  0.0000000000000000e+00 0.0000000000000000e+00 0.0000000000000000e+00  0.0000000000000000e+00 0.0000000000000000e+00 0.0000000000000000e+00  0.0000000000000000e+00 0.0000000000000000e+00 0.0000000000000000e+00  0.0000000000000000e+00 0.0000000000000000e+00 0.0000000000000000e+00  0.0000000000000000e+00 0.0000000000000000e+00 0.0000000000000000e+00  0.0000000000000000e+00 0.0000000000000000e+00 0.0000000000000000e+00  0.0000000000000000e+00 0.0000000000000000e+00 0.0000000000000000e+00  0.0000000000000000e+00 0.0000000000000000e+00 0.0000000000000000e+00  0.0000000000000000e+00 0.0000000000000000e+00 0.0000000000000000e+00  0.0000000000000000e+00 0.0000000000000000e+00 0.0000000000000000e+00  0.0000000000000000e+00 0.0000000000000000e+00 0.0000000000000000e+00  0.0000000000000000e+00 0.0000000000000000e+00 0.0000000000000000e+00  0.0000000000000000e+00 0.0000000000000000e+00 0.0000000000000000e+00  0.0000000000000000e+00 0.0000000000000000e+00 0.0000000000000000e+00  0.0000000000000000e+00 0.0000000000000000e+00 0.0000000000000000e+00  0.0000000000000000e+00 0.0000000000000000e+00 0.0000000000000000e+00  0.0000000000000000e+00 0.0000000000000000e+00 0.0000000000000000e+00  0.0000000000000000e+00 0.0000000000000000e+00 0.0000000000000000e+00  0.0000000000000000e+00 0.0000000000000000e+00 0.0000000000000000e+00  0.0000000000000000e+00 0.0000000000000000e+00 0.0000000000000000e+00  0.0000000000000000e+00 0.0000000000000000e+00 0.0000000000000000e+00  0.0000000000000000e+00 0.0000000000000000e+00 0.0000000000000000e+00  0.0000000000000000e+00 0.0000000000000000e+00 0.0000000000000000e+00  0.0000000000000000e+00 0.0000000000000000e+00 0.0000000000000000e+00  0.0000000000000000e+00 0.0000000000000000e+00 0.0000000000000000e+00  0.0000000000000000e+00 0.0000000000000000e+00 0.0000000000000000e+00  0.0000000000000000e+00 0.0000000000000000e+00 0.0000000000000000e+00  0.0000000000000000e+00 0.0000000000000000e+00 0.0000000000000000e+00  0.0000000000000000e+00 0.0000000000000000e+00 0.0000000000000000e+00  0.0000000000000000e+00 0.0000000000000000e+00 0.0000000000000000e+00  0.0000000000000000e+00 0.0000000000000000e+00 0.0000000000000000e+00  0.0000000000000000e+00 0.0000000000000000e+00 0.0000000000000000e+00  0.0000000000000000e+00 0.0000000000000000e+00 0.0000000000000000e+00  0.0000000000000000e+00 0.0000000000000000e+00 0.0000000000000000e+00  0.0000000000000000e+00 0.0000000000000000e+00 0.0000000000000000e+00  0.0000000000000000e+00 0.0000000000000000e+00 0.0000000000000000e+00  0.0000000000000000e+00 0.0000000000000000e+00 0.0000000000000000e+00  0.0000000000000000e+00 0.0000000000000000e+00 0.0000000000000000e+00  0.0000000000000000e+00 0.0000000000000000e+00 0.0000000000000000e+00  -3.9887458255299607e-08 -9.2787743361558370e-09 0.0000000000000000e+00  -7.9324620250924910e-08 -1.4401578186239829e-08 0.0000000000000000e+00  -1.1766194752059788e-07 -2.0298753846506526e-08 0.0000000000000000e+00  -1.5413579055657903e-07 -2.0374405441999071e-08 0.0000000000000000e+00  -1.8881989654383942e-07 -1.8294656597599048e-08 0.0000000000000000e+00  -2.2189036238496149e-07 -1.0676030082471949e-08 0.0000000000000000e+00  -2.5291631903578344e-07 -2.5545221542748349e-09 0.0000000000000000e+00  -2.7810419526930863e-07 1.2112183033346579e-08 0.0000000000000000e+00  -3.0216208715868268e-07 3.6862486931544242e-08 0.0000000000000000e+00  -3.2337525564610998e-07 6.6000851834923511e-08 0.0000000000000000e+00  -3.4406416149081359e-07 1.0018104169239878e-07 0.0000000000000000e+00  -3.6281775680926060e-07 1.3702481130043173e-07 0.0000000000000000e+00  -3.8091059576330927e-07 1.7665008868164768e-07 0.0000000000000000e+00  -3.9784512685641472e-07 2.1724336843186456e-07 0.0000000000000000e+00  -4.1337505829336211e-07 2.5874875145922297e-07 0.0000000000000000e+00  -4.2773834721069794e-07 3.0064436160831075e-07 0.0000000000000000e+00  -4.4108102364923274e-07 3.4074002055572814e-07 0.0000000000000000e+00  -4.5241854361385148e-07 3.7913657439390479e-07 0.0000000000000000e+00  -4.6338743613409282e-07 4.1345595057338781e-07 0.0000000000000000e+00  -4.7204134267774191e-07 4.4428386792270725e-07 0.0000000000000000e+00  -4.8057279411019548e-07 4.6891903965569837e-07 0.0000000000000000e+00  -4.8685500645353140e-07 4.8714949086254955e-07 0.0000000000000000e+00  -4.9393276800850507e-07 4.9741531690968434e-07 0.0000000000000000e+00  -5.0061781484557611e-07 4.9739391175557365e-07 0.0000000000000000e+00  -5.0599383126251443e-07 4.8918325984199094e-07 0.0000000000000000e+00  -5.1265180727496009e-07 4.7281352450793615e-07 0.0000000000000000e+00  -5.1957802775836214e-07 4.4819748815502068e-07 0.0000000000000000e+00  -5.2755557648428583e-07 4.1665357100116996e-07 0.0000000000000000e+00  -5.3600282535579705e-07 3.7755684112352036e-07 0.0000000000000000e+00  -5.4559960991003555e-07 3.3244426414204032e-07 0.0000000000000000e+00  -5.5578945252604229e-07 2.8066802405940037e-07 0.0000000000000000e+00  -5.6717464626444758e-07 2.2390737405584046e-07 0.0000000000000000e+00  -5.7924154362286338e-07 1.6150720963955409e-07 0.0000000000000000e+00  -5.9249619901210740e-07 9.5208506937560676e-08 0.0000000000000000e+00  -6.0647855852069103e-07 2.4357341229340567e-08 0.0000000000000000e+00  -6.2160788664367794e-07 -4.9313968748145957e-08 0.0000000000000000e+00  -6.3747514808726979e-07 -1.2643205386548994e-07 0.0000000000000000e+00  -6.5439446955009653e-07 -2.0534969395899744e-07 0.0000000000000000e+00  -6.7203913152775632e-07 -2.8665378915311044e-07 0.0000000000000000e+00  -6.9064590323467574e-07 -3.6879683298661415e-07 0.0000000000000000e+00  -7.0996087110604304e-07 -4.5238058169216893e-07 0.0000000000000000e+00  -7.3014325927919287e-07 -5.3539543194391354e-07 0.0000000000000000e+00  -7.5181547031800735e-07 -6.1866875047759300e-07 0.0000000000000000e+00  -7.7388321889346435e-07 -7.0302533398328897e-07 0.0000000000000000e+00  -7.9663672888436344e-07 -7.8739651895811797e-07 0.0000000000000000e+00  -8.1973710786043830e-07 -8.7174990172059244e-07 0.0000000000000000e+00  -8.9921118717226494e-07 -9.3747258002078670e-07 0.0000000000000000e+00  -1.0115408393031641e-06 -9.0057056151452619e-07 0.0000000000000000e+00  -1.0445691436660535e-06 -7.9793489918736092e-07 0.0000000000000000e+00  -1.0214492533817001e-06 -7.1337127716287630e-07 0.0000000000000000e+00  -9.9833764180237620e-07 -6.2839001726073939e-07 0.0000000000000000e+00  -9.7515143935868047e-07 -5.4318506888707769e-07 0.0000000000000000e+00  -9.5204151498970165e-07 -4.5728807322090337e-07 0.0000000000000000e+00  -9.2956946859897306e-07 -3.7143929747201243e-07 0.0000000000000000e+00  -9.0683007875894871e-07 -2.8690877152938739e-07 0.0000000000000000e+00  -8.8440495793016705e-07 -2.0347515865242944e-07 0.0000000000000000e+00  -8.6119049199644610e-07 -1.2151977116861645e-07 0.0000000000000000e+00  -8.3838538898288033e-07 -4.1474433592544182e-08 0.0000000000000000e+00  -8.1443509182432178e-07 3.6283321810170207e-08 0.0000000000000000e+00  -7.9108242293471421e-07 1.1116381159472712e-07 0.0000000000000000e+00  -7.6627835222964663e-07 1.8271132484910586e-07 0.0000000000000000e+00  -7.4234551152855893e-07 2.5030479611110345e-07 0.0000000000000000e+00  -7.1669092691178551e-07 3.1344297778012569e-07 0.0000000000000000e+00  -6.9222282597368250e-07 3.7154104790459179e-07 0.0000000000000000e+00  -6.6581782351101403e-07 4.2407907012437581e-07 0.0000000000000000e+00  -6.4093214874235949e-07 4.7057616993356175e-07 0.0000000000000000e+00  -6.1396605752043110e-07 5.1048802434281360e-07 0.0000000000000000e+00  -5.8887827727587181e-07 5.4354109307860429e-07 0.0000000000000000e+00  -5.6165384463047968e-07 5.6906073404333405e-07 0.0000000000000000e+00  -5.3667311248338811e-07 5.8707979687910536e-07 0.0000000000000000e+00  -5.1002545803777514e-07 5.9643070158139992e-07 0.0000000000000000e+00  -4.8522886895184314e-07 5.9721967739771838e-07 0.0000000000000000e+00  -4.6145019994791211e-07 5.8733583890069329e-07 0.0000000000000000e+00  -4.3716654171278361e-07 5.6933714805778117e-07 0.0000000000000000e+00  -4.1487291886535962e-07 5.4438408081372188e-07 0.0000000000000000e+00  -3.9329373287980913e-07 5.1356974404622289e-07 0.0000000000000000e+00  -3.7309498257958953e-07 4.7882826443429064e-07 0.0000000000000000e+00  -3.5392967257655232e-07 4.4014624095551023e-07 0.0000000000000000e+00  -3.3599426004581392e-07 3.9958296189334096e-07 0.0000000000000000e+00  -3.1919852559936024e-07 3.5740764715335416e-07 0.0000000000000000e+00  -3.0334058541487962e-07 3.1562078176987835e-07 0.0000000000000000e+00  -2.8853634663534591e-07 2.7470102000991117e-07 0.0000000000000000e+00  -2.7454562855688615e-07 2.3464108888224219e-07 0.0000000000000000e+00  -2.6106476430839173e-07 1.9674705859405910e-07 0.0000000000000000e+00  -2.4797729414309246e-07 1.6123082607221409e-07 0.0000000000000000e+00  -2.3451312273352666e-07 1.2809637143264440e-07 0.0000000000000000e+00  -2.2052981422001402e-07 9.8693168012536190e-08 0.0000000000000000e+00  -2.0447970559583038e-07 6.9027788473781751e-08 0.0000000000000000e+00  -1.8252727170466143e-07 4.5309258042248754e-08 0.0000000000000000e+00  -1.5960813588218425e-07 3.0552671502335662e-08 0.0000000000000000e+00  -1.3304031115697646e-07 1.8702951748339626e-08 0.0000000000000000e+00  -1.0429836253197228e-07 1.2246392280543746e-08 0.0000000000000000e+00  -7.1824290680114095e-08 5.0772199143303627e-09 0.0000000000000000e+00  -3.7142515403464363e-08 3.4113541416082691e-09 0.0000000000000000e+00  -6.1298913305188221e-08 -5.4005997103053284e-09 0.0000000000000000e+00  -9.1908844536306641e-07 -7.9298733552123430e-07 0.0000000000000000e+00  -8.7413479659237867e-07 -6.3129436493946604e-07 0.0000000000000000e+00  -8.0685987071290937e-07 -3.6656407117669215e-07 0.0000000000000000e+00  -1.3009794956386727e-07 -4.5224513281036894e-09 0.0000000000000000e+00  -7.6778243402352888e-07 -2.0297618316315721e-07 0.0000000000000000e+00  -1.8922266782484998e-07 8.4650973613769136e-09 0.0000000000000000e+00  -7.2778419799326567e-07 -4.3300515548974566e-08 0.0000000000000000e+00  -2.6152016220949675e-07 6.8086738111666427e-08 0.0000000000000000e+00  -2.9482325341460795e-07 1.2903421799637106e-07 0.0000000000000000e+00  -6.8886870692123226e-07 1.0601274052550066e-07 0.0000000000000000e+00  -3.7421808044692401e-07 3.3225038761348659e-07 0.0000000000000000e+00  -6.1460431032224455e-07 3.5627032951961901e-07 0.0000000000000000e+00  -3.2502434995076101e-07 2.0194127222415240e-07 0.0000000000000000e+00  -4.0524642683740616e-07 4.1169309239412744e-07 0.0000000000000000e+00  -5.7933202428987969e-07 4.4852914154305751e-07 0.0000000000000000e+00  -6.5112473064778436e-07 2.4067571139522898e-07 0.0000000000000000e+00  -4.3595367461994825e-07 4.8228322162382424e-07 0.0000000000000000e+00  -5.4538543673126578e-07 5.1356736979574642e-07 0.0000000000000000e+00  -4.6505309496485242e-07 5.3192948636350119e-07 0.0000000000000000e+00  -5.1345266761768106e-07 5.4692601732039576e-07 0.0000000000000000e+00  -4.8827042700673924e-07 5.4951513636518920e-07 0.0000000000000000e+00  -3.4931297958900120e-07 2.6252835098024027e-07 0.0000000000000000e+00  -8.4299811513433271e-07 -5.0339587989735708e-07 0.0000000000000000e+00  -2.2870927535487820e-07 3.0388672864047824e-08 0.0000000000000000e+00  -9.3580668665414767e-07 -6.9866921979650904e-07 0.0000000000000000e+00  -9.3462810808737350e-08 -1.2915996199344639e-09 0.0000000000000000e+00  -7.7725243736946307e-07 -1.1001333157245649e-07 0.0000000000000000e+00  -8.1928117818901164e-07 -2.7357707944548293e-07 0.0000000000000000e+00  -1.6563837876034552e-07 -7.2902824016287866e-09 0.0000000000000000e+00  -2.8856421099471490e-07 8.2227957546500578e-08 0.0000000000000000e+00  -6.5346745884082682e-07 3.1386181049135045e-07 0.0000000000000000e+00  -7.3558091112646064e-07 4.5190459806692342e-08 0.0000000000000000e+00  -4.0257211635814330e-07 3.5704946302118614e-07 0.0000000000000000e+00  -6.1315853832223321e-07 4.1855214206758734e-07 0.0000000000000000e+00  -3.2323655864588389e-07 1.5150896011524420e-07 0.0000000000000000e+00  -4.3135000861329752e-07 4.3414329650765298e-07 0.0000000000000000e+00  -5.7349821091377540e-07 4.9794176697622053e-07 0.0000000000000000e+00  -6.9429843635158221e-07 1.8794841684503835e-07 0.0000000000000000e+00  -4.5991145043502666e-07 4.9212043452597837e-07 0.0000000000000000e+00  -5.3483218086183834e-07 5.4843818730783300e-07 0.0000000000000000e+00  -3.0274957315988812e-08 -4.1988905038096638e-09 0.0000000000000000e+00  -2.8803412213626979e-08 -2.1077272735424400e-09 0.0000000000000000e+00  -9.1146171265631331e-07 -8.6782042663083272e-07 0.0000000000000000e+00  -9.7646648011720323e-08 -1.1