<?xml version="1.0"?>
<VTKFile type="UnstructuredGrid"  version="0.1"  >
<UnstructuredGrid>
<Piece  NumberOfPoints="1419" NumberOfCells="2698">
<Points>
<DataArray  type="Float64"  NumberOfComponents="3"  format="ascii">0 0 0  0 0.41 0  2.5 0 0  2.5 0.41 0  0.6 0.19 0  0.6 0.21 0  0.25 0.2 0  0.15 0.2 0  0.2489897948556636 0.21 0  0.2489897948556636 0.19 0  0.6 0.2 0  0 0.3807142857143437 0  0 0.3514285714286952 0  0 0.3221428571430699 0  0 0.29285714285744 0  0 0.2635714285718054 0  0 0.2342857142861561 0  0 0.2050000000005308 0  0 0.175714285714732 0  0 0.1464285714289574 0  0 0.1171428571431897 0  0 0.08785714285737878 0  0 0.05857142857161107 0  0 0.02928571428580012 0  0.03015443760436003 0 0  0.06140001986583606 0 0  0.09377624077125973 0 0  0.1273239957535082 0 0  0.1620856860351972 0 0  0.1981052433264291 0 0  0.235428184091502 0 0  0.2741016576309132 0 0  0.3141745521465447 0 0  0.3556974926295285 0 0  0.3987229542472677 0 0  0.4433053055141081 0 0  0.4895008759286886 0 0  0.5373680609405097 0 0  0.5869673343216626 0 0  0.6383613676634521 0 0  0.6916151138468254 0 0  0.7467958595648856 0 0  0.8039733463919316 0 0  0.8632198139502143 0 0  0.9246101326867038 0 0  0.9882218810934433 0 0  1.054135445558498 0 0  1.122434100542598 0 0  1.193204177141305 0 0  1.266535089879536 0 0  1.342519516046404 0 0  1.421253448503939 0 0  1.502836389106271 0 0  1.587371439758838 0 0  1.674965418777374 0 0  1.765729001825544 0 0  1.859776908880082 0 0  1.957227977487062 0 0  2.058205329869943 0 0  2.162836591189951 0 0  2.271253957290865 0 0  2.383594446803425 0 0  2.5 0.1024999999997612 0  2.5 0.2049999999994743 0  2.5 0.3074999999997183 0  2.383594446803656 0.41 0  2.271253957291315 0.41 0  2.162836591190598 0.41 0  2.058205329870775 0.41 0  1.957227977488067 0.41 0  1.859776908881246 0.41 0  1.765729001826854 0.41 0  1.674965418778818 0.41 0  1.58737143976041 0.41 0  1.502836389107956 0.41 0  1.421253448505726 0.41 0  1.342519516048286 0.41 0  1.266535089881505 0.41 0  1.193204177143353 0.41 0  1.122434100544716 0.41 0  1.05413544556068 0.41 0  0.9882218810956305 0.41 0  0.9246101326886647 0.41 0  0.8632198139519631 0.41 0  0.8039733463934788 0.41 0  0.7467958595662458 0.41 0  0.6916151138480078 0.41 0  0.6383613676644679 0.41 0  0.5869673343225223 0.41 0  0.5373680609412221 0.41 0  0.4895008759292634 0.41 0  0.4433053055145528 0.41 0  0.3987229542475914 0.41 0  0.3556974926297398 0.41 0  0.3141745521466497 0.41 0  0.2741016576310038 0.41 0  0.2354281840915826 0.41 0  0.1981052433265003 0.41 0  0.1620856860352591 0.41 0  0.1273239957535623 0.41 0  0.09377624077128965 0.41 0  0.06140001986584975 0.41 0  0.03015443760436654 0.41 0  0.2497468076502589 0.2050254481002335 0  0.2497468076502614 0.1949745518997913 0  0.2469965252529372 0.1829317073451959 0  0.2439893735792749 0.1762316384219906 0  0.2400332147834255 0.1700443375285386 0  0.2352133972704371 0.1645032867342007 0  0.2296339016332438 0.1597280261969788 0  0.2234150974217223 0.1558215752574715 0  0.2166911463437691 0.1528682099456123 0  0.2096071079204251 0.1509316448471593 0  0.2023158100364996 0.1500536585536553 0  0.194974551899914 0.1502531923497262 0  0.1877417105387872 0.1515259415822739 0  0.1807733240461124 0.153844448527136 0  0.1742197252835808 0.15715869474974 0  0.1682222986673531 0.1613971801805478 0  0.162910430003803 0.1664684656256651 0  0.1583987151779087 0.1722631454351573 0  0.1547844879126891 0.178656207771761 0  0.1521457199348551 0.1855097315605723 0  0.1505393388476355 0.1926758619366523 0  0.1505393388476328 0.2073241380633295 0  0.1521457199348437 0.2144902684393899 0  0.1547844879126531 0.221343792228163 0  0.1583987151778488 0.2277368545647528 0  0.1629104300036858 0.2335315343742052 0  0.1682222986671726 0.2386028198193036 0  0.1742197252833576 0.2428413052501257 0  0.1807733240458683 0.2461555514727623 0  0.1877417105384929 0.2484740584176516 0  0.1949745518995776 0.2497468076502398 0  0.202315810036185 0.2499463414463592 0  0.2096071079201568 0.2490683551528932 0  0.2166911463435495 0.2471317900544655 0  0.2234150974215506 0.2441784247426195 0  0.2296339016331197 0.2402719738031125 0  0.2352133972703547 0.2354967132658811 0  0.2400332147833751 0.2299556624715287 0  0.2439893735792577 0.2237683615780412 0  0.246996525252926 0.2170682926548348 0  0.25645809709277 0.21 0  0.2639263993298655 0.21 0  0.271394701566961 0.21 0  0.2788630038040554 0.21 0  0.2863313060411479 0.21 0  0.2937996082782405 0.21 0  0.301267910515333 0.21 0  0.3087362127524279 0.21 0  0.3162045149895234 0.21 0  0.3236728172265972 0.21 0  0.3311411194636928 0.21 0  0.3386094217007701 0.21 0  0.3460777239378666 0.21 0  0.3535460261749672 0.21 0  0.3610143284120516 0.21 0  0.3684826306491596 0.21 0  0.3759509328862226 0.21 0  0.383419235123329 0.21 0  0.3908875373604028 0.21 0  0.3983558395975142 0.21 0  0.4058241418345938 0.21 0  0.4132924440716992 0.21 0  0.4207607463087888 0.21 0  0.4282290485459029 0.21 0  0.4356973507830418 0.21 0  0.4431656530201649 0.21 0  0.4506339552573136 0.21 0  0.4581022574944306 0.21 0  0.4655705597315852 0.21 0  0.4730388619686996 0.21 0  0.480507164205851 0.21 0  0.4879754664429498 0.21 0  0.4954437686800938 0.21 0  0.502912070917267 0.21 0  0.5103803731544119 0.21 0  0.5178486753915261 0.21 0  0.5253169776286404 0.21 0  0.5327852798657868 0.21 0  0.5402535821029386 0.21 0  0.54772188434007 0.21 0  0.5551901865771842 0.21 0  0.5626584888143201 0.21 0  0.5701267910514778 0.21 0  0.5775950932886138 0.21 0  0.5850633955257281 0.21 0  0.5925316977628483 0.21 0  0.6 0.2050000000000054 0  0.6 0.1950000000000217 0  0.5925316977628897 0.19 0  0.5850633955257988 0.19 0  0.5775950932887378 0.19 0  0.5701267910515998 0.19 0  0.5626584888145268 0.19 0  0.5551901865773963 0.19 0  0.547721884340339 0.19 0  0.5402535821032429 0.19 0  0.5327852798661811 0.19 0  0.5253169776290537 0.19 0  0.5178486753919799 0.19 0  0.5103803731549078 0.19 0  0.502912070917822 0.19 0  0.4954437686807294 0.19 0  0.4879754664436223 0.19 0  0.4805071642065402 0.19 0  0.4730388619694271 0.19 0  0.4655705597323621 0.19 0  0.4581022574952563 0.19 0  0.4506339552581777 0.19 0  0.4431656530210671 0.19 0  0.4356973507839815 0.19 0  0.4282290485468779 0.19 0  0.4207607463097617 0.19 0  0.4132924440726327 0.19 0  0.4058241418354857 0.19 0  0.3983558395983636 0.19 0  0.3908875373612097 0.19 0  0.3834192351240934 0.19 0  0.3759509328869369 0.19 0  0.3684826306498175 0.19 0  0.361014328412667 0.19 0  0.3535460261755617 0.19 0  0.3460777239384295 0.19 0  0.3386094217012945 0.19 0  0.3311411194641595 0.19 0  0.3236728172270245 0.19 0  0.3162045149898895 0.19 0  0.3087362127527544 0.19 0  0.3012679105156187 0.19 0  0.2937996082784807 0.19 0  0.2863313060413428 0.19 0  0.2788630038042048 0.19 0  0.2713947015670686 0.19 0  0.2639263993299336 0.19 0  0.2564580970927985 0.19 0  0.2607803159922026 0.2000727136295815 0  0.5887803774232762 0.2001272386983733 0  0.5745072403740523 0.2002044435018727 0  0.5511891430099709 0.2001122610077113 0  0.2751288526855082 0.20000000000002 0  0.5365194309847112 0.1999999999999436 0  0.2894621222999649 0.1998691686390484 0  0.5215828265105155 0.1999999999999228 0  0.3127789816668748 0.1998657885438805 0  0.3274069683451451 0.2000000000000796 0  0.5066462220363641 0.199999999999908 0  0.3650630746574081 0.199866017807523 0  0.476773013087985 0.1999999999998713 0  0.3417402379596385 0.1998691686391011 0  0.3796850840047755 0.200000000000134 0  0.4618364086138087 0.1999999999998546 0  0.4917096175621762 0.1999999999998808 0  0.3946216884789568 0.2000000000001512 0  0.446899804139621 0.1999999999998389 0  0.4089549580935208 0.1998691686391595 0  0.4322718174608562 0.200127451265745 0  0.4201487168029707 0.1999966199048527 0  0.3528922713220932 0.2000185703532356 0  0.5633122436674589 0.1999814296467508 0  0.3006558810093873 0.1999966199048318 0  0.5815926498168407 0.1966545283159175 0  0.2677053789419034 0.1964246479135325 0  0.5290511287476175 0.1970915826863981 0  0.5439877332217911 0.197091582686394 0  0.2825131256993216 0.2035478995978015 0  0.3199386661080599 0.202908417313604 0  0.4842413153250809 0.1970915826863873 0  0.5141145242734466 0.1970915826863843 0  0.3722167817676917 0.2029084173136195 0  0.4693047108508938 0.1970915826863783 0  0.3348752705822316 0.202908417313609 0  0.3871533862418661 0.2029084173136212 0  0.4543681063767183 0.1970915826863795 0  0.4991779197992749 0.1970915826863902 0  0.4020059614928624 0.203547899597858 0  0.4394315019025246 0.1970915826863714 0  0.2550657455369551 0.2034088125358657 0  0.2548908499171161 0.1966940311614271 0  0.5946539510196798 0.2024302972968126 0  0.267698176732111 0.2039977513680092 0  0.4261685417851465 0.196409292431739 0  0.3590076176283495 0.196411355804271 0  0.5571672426447437 0.2036011176410121 0  0.3066757059912147 0.1964092924317024 0  0.594380730180568 0.1966558399668133 0  0.4842413153245942 0.2040749161535287 0  0.4693047108503577 0.2040749161535231 0  0.3871533862424271 0.1959250838464788 0  0.372246743208829 0.1959123236376545 0  0.5141145242731028 0.2040749161535395 0  0.4543681063761134 0.2040749161535186 0  0.4019979587101454 0.1959834479682427 0  0.4394608940728603 0.2040870543693135 0  0.5439623148931173 0.2040856076781014 0  0.5290511287473298 0.2040749161535501 0  0.4991779197988497 0.2040749161535382 0  0.3347912413592433 0.1959225448935183 0  0.3199680582793816 0.1959123018030061 0  0.2825051229162361 0.1959834479681729 0  0.3590471196690275 0.2036304442587945 0  0.5571594006495384 0.1963685282145804 0  0.3067669986803285 0.203627750582736 0  0.4262598344738712 0.2036568242185335 0  0.5814408164431408 0.2041285596160068 0  0.5688286748170428 0.1961819304477386 0  0.4145905603063645 0.2038180695522843 0  0.3473758401724931 0.2038180695522752 0  0.2950977245128307 0.2038180695522663 0  0.5688286748170693 0.203818069552238 0  0.2950977245127906 0.1961819304477774 0  0.3473758401723931 0.1961819304478349 0  0.4145905603061963 0.1961819304479011 0  0.2601812407614425 0.2056861609747042
[...]
<PointData  Vectors="f_40-1"> 
<DataArray  type="Float64"  Name="f_40-1"  NumberOfComponents="3" format="ascii">0.0000000000000000e+00 0.0000000000000000e+00 0.0000000000000000e+00  0.0000000000000000e+00 0.0000000000000000e+00 0.0000000000000000e+00  0.0000000000000000e+00 0.0000000000000000e+00 0.0000000000000000e+00  0.0000000000000000e+00 0.0000000000000000e+00 0.0000000000000000e+00  -4.0655118457397213e-07 8.3424113950824104e-10 0.0000000000000000e+00  -4.0437537426332161e-07 -2.8209721600827783e-08 0.0000000000000000e+00  0.0000000000000000e+00 0.0000000000000000e+00 0.0000000000000000e+00  0.0000000000000000e+00 0.0000000000000000e+00 0.0000000000000000e+00  0.0000000000000000e+00 0.0000000000000000e+00 0.0000000000000000e+00  0.0000000000000000e+00 0.0000000000000000e+00 0.0000000000000000e+00  -4.0549732857026289e-07 -1.3686530299608684e-08 0.0000000000000000e+00  0.0000000000000000e+00 0.0000000000000000e+00 0.0000000000000000e+00  0.0000000000000000e+00 0.0000000000000000e+00 0.0000000000000000e+00  0.0000000000000000e+00 0.0000000000000000e+00 0.0000000000000000e+00  0.0000000000000000e+00 0.0000000000000000e+00 0.0000000000000000e+00  0.0000000000000000e+00 0.0000000000000000e+00 0.0000000000000000e+00  0.0000000000000000e+00 0.0000000000000000e+00 0.0000000000000000e+00  0.0000000000000000e+00 0.0000000000000000e+00 0.0000000000000000e+00  0.0000000000000000e+00 0.0000000000000000e+00 0.0000000000000000e+00  0.0000000000000000e+00 0.0000000000000000e+00 0.0000000000000000e+00  0.0000000000000000e+00 0.0000000000000000e+00 0.0000000000000000e+00  0.0000000000000000e+00 0.0000000000000000e+00 0.0000000000000000e+00  0.0000000000000000e+00 0.0000000000000000e+00 0.0000000000000000e+00  0.0000000000000000e+00 0.0000000000000000e+00 0.0000000000000000e+00  0.0000000000000000e+00 0.0000000000000000e+00 0.0000000000000000e+00  0.0000000000000000e+00 0.0000000000000000e+00 0.0000000000000000e+00  0.0000000000000000e+00 0.0000000000000000e+00 0.0000000000000000e+00  0.0000000000000000e+00 0.0000000000000000e+00 0.0000000000000000e+00  0.0000000000000000e+00 0.0000000000000000e+00 0.0000000000000000e+00  0.0000000000000000e+00 0.0000000000000000e+00 0.0000000000000000e+00  0.0000000000000000e+00 0.0000000000000000e+00 0.0000000000000000e+00  0.0000000000000000e+00 0.0000000000000000e+00 0.0000000000000000e+00  0.0000000000000000e+00 0.0000000000000000e+00 0.0000000000000000e+00  0.0000000000000000e+00 0.0000000000000000e+00 0.0000000000000000e+00  0.0000000000000000e+00 0.0000000000000000e+00 0.0000000000000000e+00  0.0000000000000000e+00 0.0000000000000000e+00 0.0000000000000000e+00  0.0000000000000000e+00 0.0000000000000000e+00 0.0000000000000000e+00  0.0000000000000000e+00 0.0000000000000000e+00 0.0000000000000000e+00  0.0000000000000000e+00 0.0000000000000000e+00 0.0000000000000000e+00  0.0000000000000000e+00 0.0000000000000000e+00 0.0000000000000000e+00  0.0000000000000000e+00 0.0000000000000000e+00 0.0000000000000000e+00  0.0000000000000000e+00 0.0000000000000000e+00 0.0000000000000000e+00  0.0000000000000000e+00 0.0000000000000000e+00 0.0000000000000000e+00  0.0000000000000000e+00 0.0000000000000000e+00 0.0000000000000000e+00  0.0000000000000000e+00 0.0000000000000000e+00 0.0000000000000000e+00  0.0000000000000000e+00 0.0000000000000000e+00 0.0000000000000000e+00  0.0000000000000000e+00 0.0000000000000000e+00 0.0000000000000000e+00  0.0000000000000000e+00 0.0000000000000000e+00 0.0000000000000000e+00  0.0000000000000000e+00 0.0000000000000000e+00 0.0000000000000000e+00  0.0000000000000000e+00 0.0000000000000000e+00 0.0000000000000000e+00  0.0000000000000000e+00 0.0000000000000000e+00 0.0000000000000000e+00  0.0000000000000000e+00 0.0000000000000000e+00 0.0000000000000000e+00  0.0000000000000000e+00 0.0000000000000000e+00 0.0000000000000000e+00  0.0000000000000000e+00 0.0000000000000000e+00 0.0000000000000000e+00  0.0000000000000000e+00 0.0000000000000000e+00 0.0000000000000000e+00  0.0000000000000000e+00 0.0000000000000000e+00 0.0000000000000000e+00  0.0000000000000000e+00 0.0000000000000000e+00 0.0000000000000000e+00  0.0000000000000000e+00 0.0000000000000000e+00 0.0000000000000000e+00  0.0000000000000000e+00 0.0000000000000000e+00 0.0000000000000000e+00  0.0000000000000000e+00 0.0000000000000000e+00 0.0000000000000000e+00  0.0000000000000000e+00 0.0000000000000000e+00 0.0000000000000000e+00  0.0000000000000000e+00 0.0000000000000000e+00 0.0000000000000000e+00  0.0000000000000000e+00 0.0000000000000000e+00 0.0000000000000000e+00  0.0000000000000000e+00 0.0000000000000000e+00 0.0000000000000000e+00  0.0000000000000000e+00 0.0000000000000000e+00 0.0000000000000000e+00  0.0000000000000000e+00 0.0000000000000000e+00 0.0000000000000000e+00  0.0000000000000000e+00 0.0000000000000000e+00 0.0000000000000000e+00  0.0000000000000000e+00 0.0000000000000000e+00 0.0000000000000000e+00  0.0000000000000000e+00 0.0000000000000000e+00 0.0000000000000000e+00  0.0000000000000000e+00 0.0000000000000000e+00 0.0000000000000000e+00  0.0000000000000000e+00 0.0000000000000000e+00 0.0000000000000000e+00  0.0000000000000000e+00 0.0000000000000000e+00 0.0000000000000000e+00  0.0000000000000000e+00 0.0000000000000000e+00 0.0000000000000000e+00  0.0000000000000000e+00 0.0000000000000000e+00 0.0000000000000000e+00  0.0000000000000000e+00 0.0000000000000000e+00 0.0000000000000000e+00  0.0000000000000000e+00 0.0000000000000000e+00 0.0000000000000000e+00  0.0000000000000000e+00 0.0000000000000000e+00 0.0000000000000000e+00  0.0000000000000000e+00 0.0000000000000000e+00 0.0000000000000000e+00  0.0000000000000000e+00 0.0000000000000000e+00 0.0000000000000000e+00  0.0000000000000000e+00 0.0000000000000000e+00 0.0000000000000000e+00  0.0000000000000000e+00 0.0000000000000000e+00 0.0000000000000000e+00  0.0000000000000000e+00 0.0000000000000000e+00 0.0000000000000000e+00  0.0000000000000000e+00 0.0000000000000000e+00 0.0000000000000000e+00  0.0000000000000000e+00 0.0000000000000000e+00 0.0000000000000000e+00  0.0000000000000000e+00 0.0000000000000000e+00 0.0000000000000000e+00  0.0000000000000000e+00 0.0000000000000000e+00 0.0000000000000000e+00  0.0000000000000000e+00 0.0000000000000000e+00 0.0000000000000000e+00  0.0000000000000000e+00 0.0000000000000000e+00 0.0000000000000000e+00  0.0000000000000000e+00 0.0000000000000000e+00 0.0000000000000000e+00  0.0000000000000000e+00 0.0000000000000000e+00 0.0000000000000000e+00  0.0000000000000000e+00 0.0000000000000000e+00 0.0000000000000000e+00  0.0000000000000000e+00 0.0000000000000000e+00 0.0000000000000000e+00  0.0000000000000000e+00 0.0000000000000000e+00 0.0000000000000000e+00  0.0000000000000000e+00 0.0000000000000000e+00 0.0000000000000000e+00  0.0000000000000000e+00 0.0000000000000000e+00 0.0000000000000000e+00  0.0000000000000000e+00 0.0000000000000000e+00 0.0000000000000000e+00  0.0000000000000000e+00 0.0000000000000000e+00 0.0000000000000000e+00  0.0000000000000000e+00 0.0000000000000000e+00 0.0000000000000000e+00  0.0000000000000000e+00 0.0000000000000000e+00 0.0000000000000000e+00  0.0000000000000000e+00 0.0000000000000000e+00 0.0000000000000000e+00  0.0000000000000000e+00 0.0000000000000000e+00 0.0000000000000000e+00  0.0000000000000000e+00 0.0000000000000000e+00 0.0000000000000000e+00  0.0000000000000000e+00 0.0000000000000000e+00 0.0000000000000000e+00  0.0000000000000000e+00 0.0000000000000000e+00 0.0000000000000000e+00  0.0000000000000000e+00 0.0000000000000000e+00 0.0000000000000000e+00  0.0000000000000000e+00 0.0000000000000000e+00 0.0000000000000000e+00  0.0000000000000000e+00 0.0000000000000000e+00 0.0000000000000000e+00  0.0000000000000000e+00 0.0000000000000000e+00 0.0000000000000000e+00  0.0000000000000000e+00 0.0000000000000000e+00 0.0000000000000000e+00  0.0000000000000000e+00 0.0000000000000000e+00 0.0000000000000000e+00  0.0000000000000000e+00 0.0000000000000000e+00 0.0000000000000000e+00  0.0000000000000000e+00 0.0000000000000000e+00 0.0000000000000000e+00  0.0000000000000000e+00 0.0000000000000000e+00 0.0000000000000000e+00  0.0000000000000000e+00 0.0000000000000000e+00 0.0000000000000000e+00  0.0000000000000000e+00 0.0000000000000000e+00 0.0000000000000000e+00  0.0000000000000000e+00 0.0000000000000000e+00 0.0000000000000000e+00  0.0000000000000000e+00 0.0000000000000000e+00 0.0000000000000000e+00  0.0000000000000000e+00 0.0000000000000000e+00 0.0000000000000000e+00  0.0000000000000000e+00 0.0000000000000000e+00 0.0000000000000000e+00  0.0000000000000000e+00 0.0000000000000000e+00 0.0000000000000000e+00  0.0000000000000000e+00 0.0000000000000000e+00 0.0000000000000000e+00  0.0000000000000000e+00 0.0000000000000000e+00 0.0000000000000000e+00  0.0000000000000000e+00 0.0000000000000000e+00 0.0000000000000000e+00  0.0000000000000000e+00 0.0000000000000000e+00 0.0000000000000000e+00  0.0000000000000000e+00 0.0000000000000000e+00 0.0000000000000000e+00  0.0000000000000000e+00 0.0000000000000000e+00 0.0000000000000000e+00  0.0000000000000000e+00 0.0000000000000000e+00 0.0000000000000000e+00  0.0000000000000000e+00 0.0000000000000000e+00 0.0000000000000000e+00  0.0000000000000000e+00 0.0000000000000000e+00 0.0000000000000000e+00  0.0000000000000000e+00 0.0000000000000000e+00 0.0000000000000000e+00  0.0000000000000000e+00 0.0000000000000000e+00 0.0000000000000000e+00  0.0000000000000000e+00 0.0000000000000000e+00 0.0000000000000000e+00  0.0000000000000000e+00 0.0000000000000000e+00 0.0000000000000000e+00  0.0000000000000000e+00 0.0000000000000000e+00 0.0000000000000000e+00  0.0000000000000000e+00 0.0000000000000000e+00 0.0000000000000000e+00  0.0000000000000000e+00 0.0000000000000000e+00 0.0000000000000000e+00  0.0000000000000000e+00 0.0000000000000000e+00 0.0000000000000000e+00  0.0000000000000000e+00 0.0000000000000000e+00 0.0000000000000000e+00  0.0000000000000000e+00 0.0000000000000000e+00 0.0000000000000000e+00  0.0000000000000000e+00 0.0000000000000000e+00 0.0000000000000000e+00  0.0000000000000000e+00 0.0000000000000000e+00 0.0000000000000000e+00  0.0000000000000000e+00 0.0000000000000000e+00 0.0000000000000000e+00  0.0000000000000000e+00 0.0000000000000000e+00 0.0000000000000000e+00  -1.5307238976159218e-08 -3.6248483722146077e-09 0.0000000000000000e+00  -2.9853594038580988e-08 -5.6438105482061438e-09 0.0000000000000000e+00  -4.3688426911859116e-08 -8.9611857017822512e-09 0.0000000000000000e+00  -5.6382623822189363e-08 -1.0910233766930512e-08 0.0000000000000000e+00  -6.8357612554762394e-08 -1.3348172067816300e-08 0.0000000000000000e+00  -7.9376464135261167e-08 -1.5079236207204592e-08 0.0000000000000000e+00  -8.9924599312844903e-08 -1.7948712516805514e-08 0.0000000000000000e+00  -9.8711920764481929e-08 -2.0563789478011867e-08 0.0000000000000000e+00  -1.0701852881477255e-07 -2.1600276852892602e-08 0.0000000000000000e+00  -1.1485036634061988e-07 -2.2465156239491005e-08 0.0000000000000000e+00  -1.2244544270599709e-07 -2.2873978648010790e-08 0.0000000000000000e+00  -1.2985899055982010e-07 -2.3198872548599954e-08 0.0000000000000000e+00  -1.3716591341644277e-07 -2.3361512276870478e-08 0.0000000000000000e+00  -1.4439461096316572e-07 -2.3578404962109868e-08 0.0000000000000000e+00  -1.5142890672994091e-07 -2.3694960141578502e-08 0.0000000000000000e+00  -1.5841014140899993e-07 -2.3591919672706580e-08 0.0000000000000000e+00  -1.6532628472540424e-07 -2.3437217671452199e-08 0.0000000000000000e+00  -1.7221273828324931e-07 -2.3201456182246851e-08 0.0000000000000000e+00  -1.7907247272266770e-07 -2.2940497701487480e-08 0.0000000000000000e+00  -1.8592590627005567e-07 -2.2647788439189687e-08 0.0000000000000000e+00  -1.9278553241345900e-07 -2.2328300920170989e-08 0.0000000000000000e+00  -1.9967782611584825e-07 -2.1996776323819355e-08 0.0000000000000000e+00  -2.0660690886308441e-07 -2.1533719684162301e-08 0.0000000000000000e+00  -2.1372439282092211e-07 -2.1090356346970404e-08 0.0000000000000000e+00  -2.2089526246346212e-07 -2.0850949249806579e-08 0.0000000000000000e+00  -2.2815817839084928e-07 -2.0621421354436832e-08 0.0000000000000000e+00  -2.3549603464052946e-07 -2.0530115729420682e-08 0.0000000000000000e+00  -2.4291594627335931e-07 -2.0428613297834327e-08 0.0000000000000000e+00  -2.5041306088129894e-07 -2.0464018356153687e-08 0.0000000000000000e+00  -2.5799984904190038e-07 -2.0478671789551414e-08 0.0000000000000000e+00  -2.6567414549340598e-07 -2.0641097837755436e-08 0.0000000000000000e+00  -2.7344729009674373e-07 -2.0774613322713165e-08 0.0000000000000000e+00  -2.8131663535167548e-07 -2.1062463300298954e-08 0.0000000000000000e+00  -2.8929122302789344e-07 -2.1313436119393169e-08 0.0000000000000000e+00  -2.9736771298709718e-07 -2.1718169129870424e-08 0.0000000000000000e+00  -3.0555240706472806e-07 -2.2077691896232332e-08 0.0000000000000000e+00  -3.1384249736119191e-07 -2.2582297914749806e-08 0.0000000000000000e+00  -3.2224328456975095e-07 -2.3028475762780961e-08 0.0000000000000000e+00  -3.3075821430494114e-07 -2.3599831279676540e-08 0.0000000000000000e+00  -3.3940228808732552e-07 -2.4067615805735976e-08 0.0000000000000000e+00  -3.4819841377155635e-07 -2.4622305253517816e-08 0.0000000000000000e+00  -3.5711964859189604e-07 -2.4895560712616001e-08 0.0000000000000000e+00  -3.6641681584618291e-07 -2.5229173302981064e-08 0.0000000000000000e+00  -3.7579341773927343e-07 -2.5892570488899239e-08 0.0000000000000000e+00  -3.8527630241795057e-07 -2.6610235938460089e-08 0.0000000000000000e+00  -3.9481447077650659e-07 -2.7399227996436671e-08 0.0000000000000000e+00  -4.0494331069663379e-07 -2.0946457216052358e-08 0.0000000000000000e+00  -4.0603405158954432e-07 -6.4263085691967724e-09 0.0000000000000000e+00  -3.9698277727215445e-07 1.6467221211276821e-09 0.0000000000000000e+00  -3.8743071980233818e-07 2.4769903803094418e-09 0.0000000000000000e+00  -3.7792082386492944e-07 3.3739043803059979e-09 0.0000000000000000e+00  -3.6850306437713612e-07 4.3132284892702841e-09 0.0000000000000000e+00  -3.5916323747567500e-07 5.5673162316417473e-09 0.0000000000000000e+00  -3.5019129107796098e-07 6.8503536455662296e-09 0.0000000000000000e+00  -3.4133219506320091e-07 7.8048868017876231e-09 0.0000000000000000e+00  -3.3262521829091812e-07 8.7899421273777503e-09 0.0000000000000000e+00  -3.2401664108973324e-07 9.6264530784464014e-09 0.0000000000000000e+00  -3.1552254631589981e-07 1.0512866994477706e-08 0.0000000000000000e+00  -3.0711075421953774e-07 1.1264802447059245e-08 0.0000000000000000e+00  -2.9880786706707686e-07 1.2063376383877278e-08 0.0000000000000000e+00  -2.9058508231399470e-07 1.2716112596255040e-08 0.0000000000000000e+00  -2.8247270556544604e-07 1.3404877172589402e-08 0.0000000000000000e+00  -2.7443880031815299e-07 1.3936149613961710e-08 0.0000000000000000e+00  -2.6651554023554255e-07 1.4490987025200386e-08 0.0000000000000000e+00  -2.5866757060530017e-07 1.4882858277373364e-08 0.0000000000000000e+00  -2.5092690138994985e-07 1.5286647237842259e-08 0.0000000000000000e+00  -2.4325759805050645e-07 1.5530584214350388e-08 0.0000000000000000e+00  -2.3568964813007086e-07 1.5779391681447212e-08 0.0000000000000000e+00  -2.2819284532730132e-07 1.5882403365804207e-08 0.0000000000000000e+00  -2.2079620291911265e-07 1.6001192959506992e-08 0.0000000000000000e+00  -2.1349164454872334e-07 1.6005809781162950e-08 0.0000000000000000e+00  -2.0627727830613122e-07 1.6126946285547233e-08 0.0000000000000000e+00  -1.9928282268847851e-07 1.6153383342433936e-08 0.0000000000000000e+00  -1.9233597484350651e-07 1.5967413402342304e-08 0.0000000000000000e+00  -1.8545350927736203e-07 1.5735689742381891e-08 0.0000000000000000e+00  -1.7860441414348626e-07 1.5456919490436607e-08 0.0000000000000000e+00  -1.7177227945328313e-07 1.5176252909104158e-08 0.0000000000000000e+00  -1.6494668362467649e-07 1.4898478494380478e-08 0.0000000000000000e+00  -1.5810460627664350e-07 1.4612688848630157e-08 0.0000000000000000e+00  -1.5123396804448170e-07 1.4362249749407735e-08 0.0000000000000000e+00  -1.4431021632840636e-07 1.4021761322390475e-08 0.0000000000000000e+00  -1.3720410644788659e-07 1.3751955982124283e-08 0.0000000000000000e+00  -1.3004667131572772e-07 1.3674955978812522e-08 0.0000000000000000e+00  -1.2275788335598449e-07 1.3576599986515993e-08 0.0000000000000000e+00  -1.1530714051389614e-07 1.3540704180004006e-08 0.0000000000000000e+00  -1.0755898253057435e-07 1.3138024442250665e-08 0.0000000000000000e+00  -9.9344693614590396e-08 1.2720341214804039e-08 0.0000000000000000e+00  -9.0626559345303671e-08 1.0915566903033848e-08 0.0000000000000000e+00  -8.0108811913118122e-08 9.0375120881522503e-09 0.0000000000000000e+00  -6.9093391529086449e-08 8.4316237716758385e-09 0.0000000000000000e+00  -5.7078874114856705e-08 7.1733386729646526e-09 0.0000000000000000e+00  -4.4271900575717146e-08 6.3990370539437665e-09 0.0000000000000000e+00  -3.0302339835737890e-08 4.0608600746202252e-09 0.0000000000000000e+00  -1.5547685092861552e-08 2.8641681514405353e-09 0.0000000000000000e+00  -2.4610176842261594e-08 -5.7788936933391803e-10 0.0000000000000000e+00  -3.9109652404246048e-07 -1.2652483999199298e-08 0.0000000000000000e+00  -3.7284427349127200e-07 -1.1218566001760292e-08 0.0000000000000000e+00  -3.4428794823025780e-07 -8.6450118366559210e-09 0.0000000000000000e+00  -5.1515560289214716e-08 -1.5369858686690247e-09 0.0000000000000000e+00  -3.2731803308769793e-07 -7.0298704596201411e-09 0.0000000000000000e+00  -7.4498192940235097e-08 -2.5493891053425744e-09 0.0000000000000000e+00  -3.1042728076701855e-07 -5.6896215659678525e-09 0.0000000000000000e+00  -1.0420729126875458e-07 -3.8782721069249881e-09 0.0000000000000000e+00  -1.1905553468871219e-07 -4.5897528030723588e-09 0.0000000000000000e+00  -2.9393358005599327e-07 -4.5250769818605402e-09 0.0000000000000000e+00  -1.5515348515985126e-07 -4.3418115852674356e-09 0.0000000000000000e+00  -2.6214068219040748e-07 -2.8906737277809881e-09 0.0000000000000000e+00  -1.3309459066256993e-07 -4.5764013186675511e-09 0.0000000000000000e+00  -1.6858858934198722e-07 -4.1562174384166408e-09 0.0000000000000000e+00  -2.4681162964333905e-07 -2.4731137327006808e-09 0.0000000000000000e+00  -2.7784047745728269e-07 -3.5809080782242640e-09 0.0000000000000000e+00  -1.8226210053121924e-07 -3.5991332718220618e-09 0.0000000000000000e+00  -2.3181873211044897e-07 -2.3302632011847360e-09 0.0000000000000000e+00  -1.9539714125923043e-07 -2.8078011261767977e-09 0.0000000000000000e+00  -2.1742832564184249e-07 -2.6781810971580459e-09 0.0000000000000000e+00  -2.0581768356383625e-07 -2.7022591391007170e-09 0.0000000000000000e+00  -1.4377929565050494e-07 -4.8347425558855139e-09 0.0000000000000000e+00  -3.5886442250381670e-07 -9.6977669798004053e-09 0.0000000000000000e+00  -9.0091210342354481e-08 -3.4619930116056249e-09 0.0000000000000000e+00  -3.8227137082632706e-07 -6.8181355528434007e-09 0.0000000000000000e+00  -3.8099520628026097e-08 1.2449226109801459e-09 0.0000000000000000e+00  -3.1908443346285222e-07 -1.5622558071832876e-09 0.0000000000000000e+00  -3.3620189660824907e-07 -3.0733670086955439e-09 0.0000000000000000e+00  -6.3415879402708992e-08 -5.6805459517096580e-09 0.0000000000000000e+00  -1.1146606809435516e-07 -9.5567510097656604e-09 0.0000000000000000e+00  -2.7008585131614344e-07 1.8721682525230849e-09 0.0000000000000000e+00  -3.0235857609642971e-07 -2.0514285875253970e-10 0.0000000000000000e+00  -1.6178244401150687e-07 -9.9684501393801680e-09 0.0000000000000000e+00  -2.5452723416567394e-07 2.5198469821731539e-09 0.0000000000000000e+00  -1.2635655728831586e-07 -1.0078085319088313e-08 0.0000000000000000e+00  -1.7549060386479611e-07 -9.4686319962500565e-09 0.0000000000000000e+00  -2.3932327784658331e-07 2.8833191355284128e-09 0.0000000000000000e+00  -2.8602545466951491e-07 9.5367876509877026e-10 0.0000000000000000e+00  -1.8910705216385784e-07 -1.0122205419620127e-08 0.0000000000000000e+00  -2.2444214166466154e-07 2.9700587619600138e-09 0.0000000000000000e+00  -1.2115758050889339e-08 -8.5641356122701850e-10 0.0000000000000000e+00  -1.1758263663231664e-08 2.8438341040598422e-10 0.0000000000000000e+00  -3.9837513789210504e-07 -1.6634304234912223e-08 0.000000000000