<?xml version="1.0"?>
<VTKFile type="UnstructuredGrid"  version="0.1"  >
<UnstructuredGrid>
<Piece  NumberOfPoints="1419" NumberOfCells="2698">
<Points>
<DataArray  type="Float64"  NumberOfComponents="3"  format="ascii">0 0 0  0 0.41 0  2.5 0 0  2.5 0.41 0  0.6 0.19 0  0.6 0.21 0  0.25 0.2 0  0.15 0.2 0  0.2489897948556636 0.21 0  0.2489897948556636 0.19 0  0.6 0.2 0  0 0.3807142857143437 0  0 0.3514285714286952 0  0 0.3221428571430699 0  0 0.29285714285744 0  0 0.2635714285718054 0  0 0.2342857142861561 0  0 0.2050000000005308 0  0 0.175714285714732 0  0 0.1464285714289574 0  0 0.1171428571431897 0  0 0.08785714285737878 0  0 0.05857142857161107 0  0 0.02928571428580012 0  0.03015443760436003 0 0  0.06140001986583606 0 0  0.09377624077125973 0 0  0.1273239957535082 0 0  0.1620856860351972 0 0  0.1981052433264291 0 0  0.235428184091502 0 0  0.2741016576309132 0 0  0.3141745521465447 0 0  0.3556974926295285 0 0  0.3987229542472677 0 0  0.4433053055141081 0 0  0.4895008759286886 0 0  0.5373680609405097 0 0  0.5869673343216626 0 0  0.6383613676634521 0 0  0.6916151138468254 0 0  0.7467958595648856 0 0  0.8039733463919316 0 0  0.8632198139502143 0 0  0.9246101326867038 0 0  0.9882218810934433 0 0  1.054135445558498 0 0  1.122434100542598 0 0  1.193204177141305 0 0  1.266535089879536 0 0  1.342519516046404 0 0  1.421253448503939 0 0  1.502836389106271 0 0  1.587371439758838 0 0  1.674965418777374 0 0  1.765729001825544 0 0  1.859776908880082 0 0  1.957227977487062 0 0  2.058205329869943 0 0  2.162836591189951 0 0  2.271253957290865 0 0  2.383594446803425 0 0  2.5 0.1024999999997612 0  2.5 0.2049999999994743 0  2.5 0.3074999999997183 0  2.383594446803656 0.41 0  2.271253957291315 0.41 0  2.162836591190598 0.41 0  2.058205329870775 0.41 0  1.957227977488067 0.41 0  1.859776908881246 0.41 0  1.765729001826854 0.41 0  1.674965418778818 0.41 0  1.58737143976041 0.41 0  1.502836389107956 0.41 0  1.421253448505726 0.41 0  1.342519516048286 0.41 0  1.266535089881505 0.41 0  1.193204177143353 0.41 0  1.122434100544716 0.41 0  1.05413544556068 0.41 0  0.9882218810956305 0.41 0  0.9246101326886647 0.41 0  0.8632198139519631 0.41 0  0.8039733463934788 0.41 0  0.7467958595662458 0.41 0  0.6916151138480078 0.41 0  0.6383613676644679 0.41 0  0.5869673343225223 0.41 0  0.5373680609412221 0.41 0  0.4895008759292634 0.41 0  0.4433053055145528 0.41 0  0.3987229542475914 0.41 0  0.3556974926297398 0.41 0  0.3141745521466497 0.41 0  0.2741016576310038 0.41 0  0.2354281840915826 0.41 0  0.1981052433265003 0.41 0  0.1620856860352591 0.41 0  0.1273239957535623 0.41 0  0.09377624077128965 0.41 0  0.06140001986584975 0.41 0  0.03015443760436654 0.41 0  0.2497468076502589 0.2050254481002335 0  0.2497468076502614 0.1949745518997913 0  0.2469965252529372 0.1829317073451959 0  0.2439893735792749 0.1762316384219906 0  0.2400332147834255 0.1700443375285386 0  0.2352133972704371 0.1645032867342007 0  0.2296339016332438 0.1597280261969788 0  0.2234150974217223 0.1558215752574715 0  0.2166911463437691 0.1528682099456123 0  0.2096071079204251 0.1509316448471593 0  0.2023158100364996 0.1500536585536553 0  0.194974551899914 0.1502531923497262 0  0.1877417105387872 0.1515259415822739 0  0.1807733240461124 0.153844448527136 0  0.1742197252835808 0.15715869474974 0  0.1682222986673531 0.1613971801805478 0  0.162910430003803 0.1664684656256651 0  0.1583987151779087 0.1722631454351573 0  0.1547844879126891 0.178656207771761 0  0.1521457199348551 0.1855097315605723 0  0.1505393388476355 0.1926758619366523 0  0.1505393388476328 0.2073241380633295 0  0.1521457199348437 0.2144902684393899 0  0.1547844879126531 0.221343792228163 0  0.1583987151778488 0.2277368545647528 0  0.1629104300036858 0.2335315343742052 0  0.1682222986671726 0.2386028198193036 0  0.1742197252833576 0.2428413052501257 0  0.1807733240458683 0.2461555514727623 0  0.1877417105384929 0.2484740584176516 0  0.1949745518995776 0.2497468076502398 0  0.202315810036185 0.2499463414463592 0  0.2096071079201568 0.2490683551528932 0  0.2166911463435495 0.2471317900544655 0  0.2234150974215506 0.2441784247426195 0  0.2296339016331197 0.2402719738031125 0  0.2352133972703547 0.2354967132658811 0  0.2400332147833751 0.2299556624715287 0  0.2439893735792577 0.2237683615780412 0  0.246996525252926 0.2170682926548348 0  0.25645809709277 0.21 0  0.2639263993298655 0.21 0  0.271394701566961 0.21 0  0.2788630038040554 0.21 0  0.2863313060411479 0.21 0  0.2937996082782405 0.21 0  0.301267910515333 0.21 0  0.3087362127524279 0.21 0  0.3162045149895234 0.21 0  0.3236728172265972 0.21 0  0.3311411194636928 0.21 0  0.3386094217007701 0.21 0  0.3460777239378666 0.21 0  0.3535460261749672 0.21 0  0.3610143284120516 0.21 0  0.3684826306491596 0.21 0  0.3759509328862226 0.21 0  0.383419235123329 0.21 0  0.3908875373604028 0.21 0  0.3983558395975142 0.21 0  0.4058241418345938 0.21 0  0.4132924440716992 0.21 0  0.4207607463087888 0.21 0  0.4282290485459029 0.21 0  0.4356973507830418 0.21 0  0.4431656530201649 0.21 0  0.4506339552573136 0.21 0  0.4581022574944306 0.21 0  0.4655705597315852 0.21 0  0.4730388619686996 0.21 0  0.480507164205851 0.21 0  0.4879754664429498 0.21 0  0.4954437686800938 0.21 0  0.502912070917267 0.21 0  0.5103803731544119 0.21 0  0.5178486753915261 0.21 0  0.5253169776286404 0.21 0  0.5327852798657868 0.21 0  0.5402535821029386 0.21 0  0.54772188434007 0.21 0  0.5551901865771842 0.21 0  0.5626584888143201 0.21 0  0.5701267910514778 0.21 0  0.5775950932886138 0.21 0  0.5850633955257281 0.21 0  0.5925316977628483 0.21 0  0.6 0.2050000000000054 0  0.6 0.1950000000000217 0  0.5925316977628897 0.19 0  0.5850633955257988 0.19 0  0.5775950932887378 0.19 0  0.5701267910515998 0.19 0  0.5626584888145268 0.19 0  0.5551901865773963 0.19 0  0.547721884340339 0.19 0  0.5402535821032429 0.19 0  0.5327852798661811 0.19 0  0.5253169776290537 0.19 0  0.5178486753919799 0.19 0  0.5103803731549078 0.19 0  0.502912070917822 0.19 0  0.4954437686807294 0.19 0  0.4879754664436223 0.19 0  0.4805071642065402 0.19 0  0.4730388619694271 0.19 0  0.4655705597323621 0.19 0  0.4581022574952563 0.19 0  0.4506339552581777 0.19 0  0.4431656530210671 0.19 0  0.4356973507839815 0.19 0  0.4282290485468779 0.19 0  0.4207607463097617 0.19 0  0.4132924440726327 0.19 0  0.4058241418354857 0.19 0  0.3983558395983636 0.19 0  0.3908875373612097 0.19 0  0.3834192351240934 0.19 0  0.3759509328869369 0.19 0  0.3684826306498175 0.19 0  0.361014328412667 0.19 0  0.3535460261755617 0.19 0  0.3460777239384295 0.19 0  0.3386094217012945 0.19 0  0.3311411194641595 0.19 0  0.3236728172270245 0.19 0  0.3162045149898895 0.19 0  0.3087362127527544 0.19 0  0.3012679105156187 0.19 0  0.2937996082784807 0.19 0  0.2863313060413428 0.19 0  0.2788630038042048 0.19 0  0.2713947015670686 0.19 0  0.2639263993299336 0.19 0  0.2564580970927985 0.19 0  0.2607803159922026 0.2000727136295815 0  0.5887803774232762 0.2001272386983733 0  0.5745072403740523 0.2002044435018727 0  0.5511891430099709 0.2001122610077113 0  0.2751288526855082 0.20000000000002 0  0.5365194309847112 0.1999999999999436 0  0.2894621222999649 0.1998691686390484 0  0.5215828265105155 0.1999999999999228 0  0.3127789816668748 0.1998657885438805 0  0.3274069683451451 0.2000000000000796 0  0.5066462220363641 0.199999999999908 0  0.3650630746574081 0.199866017807523 0  0.476773013087985 0.1999999999998713 0  0.3417402379596385 0.1998691686391011 0  0.3796850840047755 0.200000000000134 0  0.4618364086138087 0.1999999999998546 0  0.4917096175621762 0.1999999999998808 0  0.3946216884789568 0.2000000000001512 0  0.446899804139621 0.1999999999998389 0  0.4089549580935208 0.1998691686391595 0  0.4322718174608562 0.200127451265745 0  0.4201487168029707 0.1999966199048527 0  0.3528922713220932 0.2000185703532356 0  0.5633122436674589 0.1999814296467508 0  0.3006558810093873 0.1999966199048318 0  0.5815926498168407 0.1966545283159175 0  0.2677053789419034 0.1964246479135325 0  0.5290511287476175 0.1970915826863981 0  0.5439877332217911 0.197091582686394 0  0.2825131256993216 0.2035478995978015 0  0.3199386661080599 0.202908417313604 0  0.4842413153250809 0.1970915826863873 0  0.5141145242734466 0.1970915826863843 0  0.3722167817676917 0.2029084173136195 0  0.4693047108508938 0.1970915826863783 0  0.3348752705822316 0.202908417313609 0  0.3871533862418661 0.2029084173136212 0  0.4543681063767183 0.1970915826863795 0  0.4991779197992749 0.1970915826863902 0  0.4020059614928624 0.203547899597858 0  0.4394315019025246 0.1970915826863714 0  0.2550657455369551 0.2034088125358657 0  0.2548908499171161 0.1966940311614271 0  0.5946539510196798 0.2024302972968126 0  0.267698176732111 0.2039977513680092 0  0.4261685417851465 0.196409292431739 0  0.3590076176283495 0.196411355804271 0  0.5571672426447437 0.2036011176410121 0  0.3066757059912147 0.1964092924317024 0  0.594380730180568 0.1966558399668133 0  0.4842413153245942 0.2040749161535287 0  0.4693047108503577 0.2040749161535231 0  0.3871533862424271 0.1959250838464788 0  0.372246743208829 0.1959123236376545 0  0.5141145242731028 0.2040749161535395 0  0.4543681063761134 0.2040749161535186 0  0.4019979587101454 0.1959834479682427 0  0.4394608940728603 0.2040870543693135 0  0.5439623148931173 0.2040856076781014 0  0.5290511287473298 0.2040749161535501 0  0.4991779197988497 0.2040749161535382 0  0.3347912413592433 0.1959225448935183 0  0.3199680582793816 0.1959123018030061 0  0.2825051229162361 0.1959834479681729 0  0.3590471196690275 0.2036304442587945 0  0.5571594006495384 0.1963685282145804 0  0.3067669986803285 0.203627750582736 0  0.4262598344738712 0.2036568242185335 0  0.5814408164431408 0.2041285596160068 0  0.5688286748170428 0.1961819304477386 0  0.4145905603063645 0.2038180695522843 0  0.3473758401724931 0.2038180695522752 0  0.2950977245128307 0.2038180695522663 0  0.5688286748170693 0.203818069552238 0  0.2950977245127906 0.1961819304477774 0  0.3473758401723931 0.1961819304478349 0  0.4145905603061963 0.1961819304479011 0  0.2601812407614425 0.2056861609747042
[...]
<PointData  Vectors="f_40-1"> 
<DataArray  type="Float64"  Name="f_40-1"  NumberOfComponents="3" format="ascii">0.0000000000000000e+00 0.0000000000000000e+00 0.0000000000000000e+00  0.0000000000000000e+00 0.0000000000000000e+00 0.0000000000000000e+00  0.0000000000000000e+00 0.0000000000000000e+00 0.0000000000000000e+00  0.0000000000000000e+00 0.0000000000000000e+00 0.0000000000000000e+00  5.4237793247458070e-06 -1.5847451803133831e-04 0.0000000000000000e+00  1.7712529428529861e-05 -1.6037982039981640e-04 0.0000000000000000e+00  0.0000000000000000e+00 0.0000000000000000e+00 0.0000000000000000e+00  0.0000000000000000e+00 0.0000000000000000e+00 0.0000000000000000e+00  0.0000000000000000e+00 0.0000000000000000e+00 0.0000000000000000e+00  0.0000000000000000e+00 0.0000000000000000e+00 0.0000000000000000e+00  1.1315904712535092e-05 -1.5942763839523505e-04 0.0000000000000000e+00  0.0000000000000000e+00 0.0000000000000000e+00 0.0000000000000000e+00  0.0000000000000000e+00 0.0000000000000000e+00 0.0000000000000000e+00  0.0000000000000000e+00 0.0000000000000000e+00 0.0000000000000000e+00  0.0000000000000000e+00 0.0000000000000000e+00 0.0000000000000000e+00  0.0000000000000000e+00 0.0000000000000000e+00 0.0000000000000000e+00  0.0000000000000000e+00 0.0000000000000000e+00 0.0000000000000000e+00  0.0000000000000000e+00 0.0000000000000000e+00 0.0000000000000000e+00  0.0000000000000000e+00 0.0000000000000000e+00 0.0000000000000000e+00  0.0000000000000000e+00 0.0000000000000000e+00 0.0000000000000000e+00  0.0000000000000000e+00 0.0000000000000000e+00 0.0000000000000000e+00  0.0000000000000000e+00 0.0000000000000000e+00 0.0000000000000000e+00  0.0000000000000000e+00 0.0000000000000000e+00 0.0000000000000000e+00  0.0000000000000000e+00 0.0000000000000000e+00 0.0000000000000000e+00  0.0000000000000000e+00 0.0000000000000000e+00 0.0000000000000000e+00  0.0000000000000000e+00 0.0000000000000000e+00 0.0000000000000000e+00  0.0000000000000000e+00 0.0000000000000000e+00 0.0000000000000000e+00  0.0000000000000000e+00 0.0000000000000000e+00 0.0000000000000000e+00  0.0000000000000000e+00 0.0000000000000000e+00 0.0000000000000000e+00  0.0000000000000000e+00 0.0000000000000000e+00 0.0000000000000000e+00  0.0000000000000000e+00 0.0000000000000000e+00 0.0000000000000000e+00  0.0000000000000000e+00 0.0000000000000000e+00 0.0000000000000000e+00  0.0000000000000000e+00 0.0000000000000000e+00 0.0000000000000000e+00  0.0000000000000000e+00 0.0000000000000000e+00 0.0000000000000000e+00  0.0000000000000000e+00 0.0000000000000000e+00 0.0000000000000000e+00  0.0000000000000000e+00 0.0000000000000000e+00 0.0000000000000000e+00  0.0000000000000000e+00 0.0000000000000000e+00 0.0000000000000000e+00  0.0000000000000000e+00 0.0000000000000000e+00 0.0000000000000000e+00  0.0000000000000000e+00 0.0000000000000000e+00 0.0000000000000000e+00  0.0000000000000000e+00 0.0000000000000000e+00 0.0000000000000000e+00  0.0000000000000000e+00 0.0000000000000000e+00 0.0000000000000000e+00  0.0000000000000000e+00 0.0000000000000000e+00 0.0000000000000000e+00  0.0000000000000000e+00 0.0000000000000000e+00 0.0000000000000000e+00  0.0000000000000000e+00 0.0000000000000000e+00 0.0000000000000000e+00  0.0000000000000000e+00 0.0000000000000000e+00 0.0000000000000000e+00  0.0000000000000000e+00 0.0000000000000000e+00 0.0000000000000000e+00  0.0000000000000000e+00 0.0000000000000000e+00 0.0000000000000000e+00  0.0000000000000000e+00 0.0000000000000000e+00 0.0000000000000000e+00  0.0000000000000000e+00 0.0000000000000000e+00 0.0000000000000000e+00  0.0000000000000000e+00 0.0000000000000000e+00 0.0000000000000000e+00  0.0000000000000000e+00 0.0000000000000000e+00 0.0000000000000000e+00  0.0000000000000000e+00 0.0000000000000000e+00 0.0000000000000000e+00  0.0000000000000000e+00 0.0000000000000000e+00 0.0000000000000000e+00  0.0000000000000000e+00 0.0000000000000000e+00 0.0000000000000000e+00  0.0000000000000000e+00 0.0000000000000000e+00 0.0000000000000000e+00  0.0000000000000000e+00 0.0000000000000000e+00 0.0000000000000000e+00  0.0000000000000000e+00 0.0000000000000000e+00 0.0000000000000000e+00  0.0000000000000000e+00 0.0000000000000000e+00 0.0000000000000000e+00  0.0000000000000000e+00 0.0000000000000000e+00 0.0000000000000000e+00  0.0000000000000000e+00 0.0000000000000000e+00 0.0000000000000000e+00  0.0000000000000000e+00 0.0000000000000000e+00 0.0000000000000000e+00  0.0000000000000000e+00 0.0000000000000000e+00 0.0000000000000000e+00  0.0000000000000000e+00 0.0000000000000000e+00 0.0000000000000000e+00  0.0000000000000000e+00 0.0000000000000000e+00 0.0000000000000000e+00  0.0000000000000000e+00 0.0000000000000000e+00 0.0000000000000000e+00  0.0000000000000000e+00 0.0000000000000000e+00 0.0000000000000000e+00  0.0000000000000000e+00 0.0000000000000000e+00 0.0000000000000000e+00  0.0000000000000000e+00 0.0000000000000000e+00 0.0000000000000000e+00  0.0000000000000000e+00 0.0000000000000000e+00 0.0000000000000000e+00  0.0000000000000000e+00 0.0000000000000000e+00 0.0000000000000000e+00  0.0000000000000000e+00 0.0000000000000000e+00 0.0000000000000000e+00  0.0000000000000000e+00 0.0000000000000000e+00 0.0000000000000000e+00  0.0000000000000000e+00 0.0000000000000000e+00 0.0000000000000000e+00  0.0000000000000000e+00 0.0000000000000000e+00 0.0000000000000000e+00  0.0000000000000000e+00 0.0000000000000000e+00 0.0000000000000000e+00  0.0000000000000000e+00 0.0000000000000000e+00 0.0000000000000000e+00  0.0000000000000000e+00 0.0000000000000000e+00 0.0000000000000000e+00  0.0000000000000000e+00 0.0000000000000000e+00 0.0000000000000000e+00  0.0000000000000000e+00 0.0000000000000000e+00 0.0000000000000000e+00  0.0000000000000000e+00 0.0000000000000000e+00 0.0000000000000000e+00  0.0000000000000000e+00 0.0000000000000000e+00 0.0000000000000000e+00  0.0000000000000000e+00 0.0000000000000000e+00 0.0000000000000000e+00  0.0000000000000000e+00 0.0000000000000000e+00 0.0000000000000000e+00  0.0000000000000000e+00 0.0000000000000000e+00 0.0000000000000000e+00  0.0000000000000000e+00 0.0000000000000000e+00 0.0000000000000000e+00  0.0000000000000000e+00 0.0000000000000000e+00 0.0000000000000000e+00  0.0000000000000000e+00 0.0000000000000000e+00 0.0000000000000000e+00  0.0000000000000000e+00 0.0000000000000000e+00 0.0000000000000000e+00  0.0000000000000000e+00 0.0000000000000000e+00 0.0000000000000000e+00  0.0000000000000000e+00 0.0000000000000000e+00 0.0000000000000000e+00  0.0000000000000000e+00 0.0000000000000000e+00 0.0000000000000000e+00  0.0000000000000000e+00 0.0000000000000000e+00 0.0000000000000000e+00  0.0000000000000000e+00 0.0000000000000000e+00 0.0000000000000000e+00  0.0000000000000000e+00 0.0000000000000000e+00 0.0000000000000000e+00  0.0000000000000000e+00 0.0000000000000000e+00 0.0000000000000000e+00  0.0000000000000000e+00 0.0000000000000000e+00 0.0000000000000000e+00  0.0000000000000000e+00 0.0000000000000000e+00 0.0000000000000000e+00  0.0000000000000000e+00 0.0000000000000000e+00 0.0000000000000000e+00  0.0000000000000000e+00 0.0000000000000000e+00 0.0000000000000000e+00  0.0000000000000000e+00 0.0000000000000000e+00 0.0000000000000000e+00  0.0000000000000000e+00 0.0000000000000000e+00 0.0000000000000000e+00  0.0000000000000000e+00 0.0000000000000000e+00 0.0000000000000000e+00  0.0000000000000000e+00 0.0000000000000000e+00 0.0000000000000000e+00  0.0000000000000000e+00 0.0000000000000000e+00 0.0000000000000000e+00  0.0000000000000000e+00 0.0000000000000000e+00 0.0000000000000000e+00  0.0000000000000000e+00 0.0000000000000000e+00 0.0000000000000000e+00  0.0000000000000000e+00 0.0000000000000000e+00 0.0000000000000000e+00  0.0000000000000000e+00 0.0000000000000000e+00 0.0000000000000000e+00  0.0000000000000000e+00 0.0000000000000000e+00 0.0000000000000000e+00  0.0000000000000000e+00 0.0000000000000000e+00 0.0000000000000000e+00  0.0000000000000000e+00 0.0000000000000000e+00 0.0000000000000000e+00  0.0000000000000000e+00 0.0000000000000000e+00 0.0000000000000000e+00  0.0000000000000000e+00 0.0000000000000000e+00 0.0000000000000000e+00  0.0000000000000000e+00 0.0000000000000000e+00 0.0000000000000000e+00  0.0000000000000000e+00 0.0000000000000000e+00 0.0000000000000000e+00  0.0000000000000000e+00 0.0000000000000000e+00 0.0000000000000000e+00  0.0000000000000000e+00 0.0000000000000000e+00 0.0000000000000000e+00  0.0000000000000000e+00 0.0000000000000000e+00 0.0000000000000000e+00  0.0000000000000000e+00 0.0000000000000000e+00 0.0000000000000000e+00  0.0000000000000000e+00 0.0000000000000000e+00 0.0000000000000000e+00  0.0000000000000000e+00 0.0000000000000000e+00 0.0000000000000000e+00  0.0000000000000000e+00 0.0000000000000000e+00 0.0000000000000000e+00  0.0000000000000000e+00 0.0000000000000000e+00 0.0000000000000000e+00  0.0000000000000000e+00 0.0000000000000000e+00 0.0000000000000000e+00  0.0000000000000000e+00 0.0000000000000000e+00 0.0000000000000000e+00  0.0000000000000000e+00 0.0000000000000000e+00 0.0000000000000000e+00  0.0000000000000000e+00 0.0000000000000000e+00 0.0000000000000000e+00  0.0000000000000000e+00 0.0000000000000000e+00 0.0000000000000000e+00  0.0000000000000000e+00 0.0000000000000000e+00 0.0000000000000000e+00  0.0000000000000000e+00 0.0000000000000000e+00 0.0000000000000000e+00  0.0000000000000000e+00 0.0000000000000000e+00 0.0000000000000000e+00  0.0000000000000000e+00 0.0000000000000000e+00 0.0000000000000000e+00  0.0000000000000000e+00 0.0000000000000000e+00 0.0000000000000000e+00  0.0000000000000000e+00 0.0000000000000000e+00 0.0000000000000000e+00  0.0000000000000000e+00 0.0000000000000000e+00 0.0000000000000000e+00  0.0000000000000000e+00 0.0000000000000000e+00 0.0000000000000000e+00  0.0000000000000000e+00 0.0000000000000000e+00 0.0000000000000000e+00  0.0000000000000000e+00 0.0000000000000000e+00 0.0000000000000000e+00  0.0000000000000000e+00 0.0000000000000000e+00 0.0000000000000000e+00  0.0000000000000000e+00 0.0000000000000000e+00 0.0000000000000000e+00  0.0000000000000000e+00 0.0000000000000000e+00 0.0000000000000000e+00  0.0000000000000000e+00 0.0000000000000000e+00 0.0000000000000000e+00  0.0000000000000000e+00 0.0000000000000000e+00 0.0000000000000000e+00  8.1214748792342433e-07 -2.1956708413693741e-06 0.0000000000000000e+00  1.7523684087957994e-06 -2.7185429815852979e-06 0.0000000000000000e+00  2.7634866909385134e-06 -3.3762251793263914e-06 0.0000000000000000e+00  3.8508704271953794e-06 -4.2356990039617346e-06 0.0000000000000000e+00  4.8901598635273610e-06 -5.3143684101866952e-06 0.0000000000000000e+00  5.9540332331914250e-06 -6.6542095962372567e-06 0.0000000000000000e+00  6.9362546658607339e-06 -8.1731165765806247e-06 0.0000000000000000e+00  7.8875900588436565e-06 -9.9315971209668081e-06 0.0000000000000000e+00  8.8641145188778826e-06 -1.1876445260447990e-05 0.0000000000000000e+00  9.7378695869293417e-06 -1.4002914423430018e-05 0.0000000000000000e+00  1.0641634711217943e-05 -1.6333511505923153e-05 0.0000000000000000e+00  1.1445147816904216e-05 -1.8822378224658058e-05 0.0000000000000000e+00  1.2259332265430649e-05 -2.1489672705119084e-05 0.0000000000000000e+00  1.2997465616125316e-05 -2.4293227482388327e-05 0.0000000000000000e+00  1.3697480817034068e-05 -2.7263038440059983e-05 0.0000000000000000e+00  1.4401929841098517e-05 -3.0366318081078475e-05 0.0000000000000000e+00  1.5020004113539655e-05 -3.3586731334736795e-05 0.0000000000000000e+00  1.5642370330192080e-05 -3.6953287684150289e-05 0.0000000000000000e+00  1.6184887432851542e-05 -4.0412721825118915e-05 0.0000000000000000e+00  1.6725353164370381e-05 -4.3998290775275034e-05 0.0000000000000000e+00  1.7200318631596210e-05 -4.7666732209465911e-05 0.0000000000000000e+00  1.7655315209016409e-05 -5.1443742613811741e-05 0.0000000000000000e+00  1.8058595129019333e-05 -5.5291062698909828e-05 0.0000000000000000e+00  1.8424165411029226e-05 -5.9226979690680284e-05 0.0000000000000000e+00  1.8777762018292657e-05 -6.3231306231425964e-05 0.0000000000000000e+00  1.9076134845050583e-05 -6.7294179925288396e-05 0.0000000000000000e+00  1.9344013606812752e-05 -7.1438011429392198e-05 0.0000000000000000e+00  1.9570953329630120e-05 -7.5613910882881257e-05 0.0000000000000000e+00  1.9767161236051205e-05 -7.9860678008303904e-05 0.0000000000000000e+00  1.9924664954988205e-05 -8.4130791026428464e-05 0.0000000000000000e+00  2.0051357785400531e-05 -8.8461134067817929e-05 0.0000000000000000e+00  2.0140383424124241e-05 -9.2805437320138358e-05 0.0000000000000000e+00  2.0199233566897588e-05 -9.7201571863273119e-05 0.0000000000000000e+00  2.0221273277079434e-05 -1.0160275728525936e-04 0.0000000000000000e+00  2.0211675960033194e-05 -1.0604957653864198e-04 0.0000000000000000e+00  2.0167660347345986e-05 -1.1049564962176162e-04 0.0000000000000000e+00  2.0093151869867663e-05 -1.1497986439262938e-04 0.0000000000000000e+00  1.9984912215936066e-05 -1.1945882084047020e-04 0.0000000000000000e+00  1.9845179925109416e-05 -1.2397076035511114e-04 0.0000000000000000e+00  1.9670935200120977e-05 -1.2847275741261819e-04 0.0000000000000000e+00  1.9460819716100390e-05 -1.3299686553100131e-04 0.0000000000000000e+00  1.9224285912419768e-05 -1.3751975375261586e-04 0.0000000000000000e+00  1.8951599129748734e-05 -1.4205144442787932e-04 0.0000000000000000e+00  1.8660620495492495e-05 -1.4658582472467415e-04 0.0000000000000000e+00  1.8331804890543655e-05 -1.5111150124938729e-04 0.0000000000000000e+00  1.7998340612325938e-05 -1.5567098185404144e-04 0.0000000000000000e+00  1.4425322606083566e-05 -1.5990180816970715e-04 0.0000000000000000e+00  8.2916154110763766e-06 -1.5895660310160821e-04 0.0000000000000000e+00  5.7200821118567337e-06 -1.5401423497467441e-04 0.0000000000000000e+00  6.0711286111622431e-06 -1.4940430571801577e-04 0.0000000000000000e+00  6.4131293383445975e-06 -1.4477894369983071e-04 0.0000000000000000e+00  6.7218376286495331e-06 -1.4017207634951722e-04 0.0000000000000000e+00  7.0107769236561779e-06 -1.3556993092433435e-04 0.0000000000000000e+00  7.2649333774502844e-06 -1.3097510083957174e-04 0.0000000000000000e+00  7.4987576630775200e-06 -1.2639259421579264e-04 0.0000000000000000e+00  7.6974506394668716e-06 -1.2180696285940720e-04 0.0000000000000000e+00  7.8727857140078756e-06 -1.1725066765438328e-04 0.0000000000000000e+00  8.0170061592535386e-06 -1.1268760423084272e-04 0.0000000000000000e+00  8.1407367650996976e-06 -1.0815921121391499e-04 0.0000000000000000e+00  8.2326634345240314e-06 -1.0362932003279735e-04 0.0000000000000000e+00  8.3069472493953160e-06 -9.9139165468953779e-05 0.0000000000000000e+00  8.3487180060467491e-06 -9.4654197475525114e-05 0.0000000000000000e+00  8.3764852040229634e-06 -9.0215043730474797e-05 0.0000000000000000e+00  8.3699806393397450e-06 -8.5788446940372799e-05 0.0000000000000000e+00  8.3530731181673295e-06 -8.1415139381552719e-05 0.0000000000000000e+00  8.2999239972300877e-06 -7.7063102309449504e-05 0.0000000000000000e+00  8.2406868577208621e-06 -7.2773644373173217e-05 0.0000000000000000e+00  8.1428061793308314e-06 -6.8516032018706513e-05 0.0000000000000000e+00  8.0437302867016937e-06 -6.4331223256784429e-05 0.0000000000000000e+00  7.9029643527620669e-06 -6.0190586445878449e-05 0.0000000000000000e+00  7.7601599477280887e-06 -5.6128951250645625e-05 0.0000000000000000e+00  7.5837675194448335e-06 -5.2128781519919702e-05 0.0000000000000000e+00  7.3825215773283852e-06 -4.8222082844486615e-05 0.0000000000000000e+00  7.1897380122995077e-06 -4.4385940949619866e-05 0.0000000000000000e+00  6.9572676923796795e-06 -4.0643711427261452e-05 0.0000000000000000e+00  6.7187908043900054e-06 -3.7012526686671636e-05 0.0000000000000000e+00  6.4501230257709620e-06 -3.3475251802707775e-05 0.0000000000000000e+00  6.1747789664676044e-06 -3.0067809296274922e-05 0.0000000000000000e+00  5.8696495325876683e-06 -2.6764308441947479e-05 0.0000000000000000e+00  5.5698833518119023e-06 -2.3618405088118174e-05 0.0000000000000000e+00  5.2266891305452076e-06 -2.0583475378528005e-05 0.0000000000000000e+00  4.8622948142305658e-06 -1.7725519199952668e-05 0.0000000000000000e+00  4.5246644100572344e-06 -1.4993438241142513e-05 0.0000000000000000e+00  4.1434025799175266e-06 -1.2441245598040475e-05 0.0000000000000000e+00  3.7647236586619713e-06 -1.0073034099913257e-05 0.0000000000000000e+00  3.3541950560513254e-06 -7.8740741402573332e-06 0.0000000000000000e+00  2.9652204670210117e-06 -5.8980728100842160e-06 0.0000000000000000e+00  2.5237119900538444e-06 -4.0898420826885592e-06 0.0000000000000000e+00  2.0664593386419791e-06 -2.5309690051191455e-06 0.0000000000000000e+00  1.6583635353185526e-06 -1.1534692363000071e-06 0.0000000000000000e+00  1.2012841734354566e-06 -9.4469160080588037e-09 0.0000000000000000e+00  8.0753901561017571e-07 8.8540698813272727e-07 0.0000000000000000e+00  4.1695198449611724e-07 1.4734920512373827e-06 0.0000000000000000e+00  1.8223972630055816e-07 1.6943045086136507e-06 0.0000000000000000e+00  4.5614156416911427e-07 -2.6825918247112453e-07 0.0000000000000000e+00  1.2009792919791869e-05 -1.5254515528190563e-04 0.0000000000000000e+00  1.2753110010486595e-05 -1.4380560692201993e-04 0.0000000000000000e+00  1.3519662638998897e-05 -1.2955132914762273e-04 0.0000000000000000e+00  2.1279088339166232e-06 -1.4962893103475263e-06 0.0000000000000000e+00  1.3813294336428175e-05 -1.2061202764160696e-04 0.0000000000000000e+00  3.5471224496287537e-06 -3.5952443535808166e-06 0.0000000000000000e+00  1.4068707738822014e-05 -1.1156730616834871e-04 0.0000000000000000e+00  5.7348603970720217e-06 -8.7936966588696611e-06 0.0000000000000000e+00  7.0416736607353428e-06 -1.3074300096201611e-05 0.0000000000000000e+00  1.4207453735166403e-05 -1.0258772655780083e-04 0.0000000000000000e+00  9.8208621241770550e-06 -2.7003466048983855e-05 0.0000000000000000e+00  1.4139472558177186e-05 -8.4919310268195662e-05 0.0000000000000000e+00  8.1562786984837462e-06 -1.7883721492632862e-05 0.0000000000000000e+00  1.0788385427140782e-05 -3.3428441421838019e-05 0.0000000000000000e+00  1.3934565054576682e-05 -7.6291032196140480e-05 0.0000000000000000e+00  1.4230750663867801e-05 -9.3695762386737362e-05 0.0000000000000000e+00  1.1614125421111591e-05 -4.0435072589236402e-05 0.0000000000000000e+00  1.3615934186720804e-05 -6.7850047448925806e-05 0.0000000000000000e+00  1.2237920442835576e-05 -4.7527584203187854e-05 0.0000000000000000e+00  1.3267057884775337e-05 -5.9825467512897655e-05 0.0000000000000000e+00  1.2753884923469214e-05 -5.3349762702433335e-05 0.0000000000000000e+00  9.0316178686326160e-06 -2.2115816460976248e-05 0.0000000000000000e+00  1.3036135872476871e-05 -1.3693921554928682e-04 0.0000000000000000e+00  4.6387944283280957e-06 -5.8941849876741079e-06 0.0000000000000000e+00  1.0254957188321481e-05 -1.4784111247609618e-04 0.0000000000000000e+00  1.0211690105090048e-06 2.6602241979763228e-08 0.0000000000000000e+00  1.2197945415801481e-05 -1.1575702285546070e-04 0.0000000000000000e+00  1.1874780722372983e-05 -1.2484475367474052e-04 0.0000000000000000e+00  3.3933050948878504e-06 -3.2527062939004634e-06 0.0000000000000000e+00  7.2407292510507469e-06 -1.1404571068492124e-05 0.0000000000000000e+00  1.2495821759846036e-05 -8.8911681915514212e-05 0.0000000000000000e+00  1.2408106198699195e-05 -1.0672413139713979e-04 0.0000000000000000e+00  1.1600173576735546e-05 -3.0626810043695289e-05 0.0000000000000000e+00  1.2377347018442822e-05 -8.0187369313774017e-05 0.0000000000000000e+00  8.6287102119304927e-06 -1.6092114074812555e-05 0.0000000000000000e+00  1.2570409991491435e-05 -3.7387139061048199e-05 0.0000000000000000e+00  1.2152551052942799e-05 -7.1630299570111871e-05 0.0000000000000000e+00  1.2506651881855879e-05 -9.7767202177846311e-05 0.0000000000000000e+00  1.3733641667172551e-05 -4.4656518208235777e-05 0.0000000000000000e+00  1.1822595265820640e-05 -6.3282195607704698e-05 0.0000000000000000e+00  4.1651411623157939e-08 -5.2676723973757018e-07 0.0000000000000000e+00  -6.9323956598558603e-08 3.8351978676253659e-07 0.0000000000000000e+00  1.3102066116552092e-05 -1.5634591225000265e-04 0.0000000000000000e+00  1.6578615018221768e-06 -1.6548920172457471e-06 0.0000000000000000e+00  1.10828008