<?xml version="1.0"?>
<VTKFile type="UnstructuredGrid"  version="0.1"  >
<UnstructuredGrid>
<Piece  NumberOfPoints="1419" NumberOfCells="2698">
<Points>
<DataArray  type="Float64"  NumberOfComponents="3"  format="ascii">0 0 0  0 0.41 0  2.5 0 0  2.5 0.41 0  0.6 0.19 0  0.6 0.21 0  0.25 0.2 0  0.15 0.2 0  0.2489897948556636 0.21 0  0.2489897948556636 0.19 0  0.6 0.2 0  0 0.3807142857143437 0  0 0.3514285714286952 0  0 0.3221428571430699 0  0 0.29285714285744 0  0 0.2635714285718054 0  0 0.2342857142861561 0  0 0.2050000000005308 0  0 0.175714285714732 0  0 0.1464285714289574 0  0 0.1171428571431897 0  0 0.08785714285737878 0  0 0.05857142857161107 0  0 0.02928571428580012 0  0.03015443760436003 0 0  0.06140001986583606 0 0  0.09377624077125973 0 0  0.1273239957535082 0 0  0.1620856860351972 0 0  0.1981052433264291 0 0  0.235428184091502 0 0  0.2741016576309132 0 0  0.3141745521465447 0 0  0.3556974926295285 0 0  0.3987229542472677 0 0  0.4433053055141081 0 0  0.4895008759286886 0 0  0.5373680609405097 0 0  0.5869673343216626 0 0  0.6383613676634521 0 0  0.6916151138468254 0 0  0.7467958595648856 0 0  0.8039733463919316 0 0  0.8632198139502143 0 0  0.9246101326867038 0 0  0.9882218810934433 0 0  1.054135445558498 0 0  1.122434100542598 0 0  1.193204177141305 0 0  1.266535089879536 0 0  1.342519516046404 0 0  1.421253448503939 0 0  1.502836389106271 0 0  1.587371439758838 0 0  1.674965418777374 0 0  1.765729001825544 0 0  1.859776908880082 0 0  1.957227977487062 0 0  2.058205329869943 0 0  2.162836591189951 0 0  2.271253957290865 0 0  2.383594446803425 0 0  2.5 0.1024999999997612 0  2.5 0.2049999999994743 0  2.5 0.3074999999997183 0  2.383594446803656 0.41 0  2.271253957291315 0.41 0  2.162836591190598 0.41 0  2.058205329870775 0.41 0  1.957227977488067 0.41 0  1.859776908881246 0.41 0  1.765729001826854 0.41 0  1.674965418778818 0.41 0  1.58737143976041 0.41 0  1.502836389107956 0.41 0  1.421253448505726 0.41 0  1.342519516048286 0.41 0  1.266535089881505 0.41 0  1.193204177143353 0.41 0  1.122434100544716 0.41 0  1.05413544556068 0.41 0  0.9882218810956305 0.41 0  0.9246101326886647 0.41 0  0.8632198139519631 0.41 0  0.8039733463934788 0.41 0  0.7467958595662458 0.41 0  0.6916151138480078 0.41 0  0.6383613676644679 0.41 0  0.5869673343225223 0.41 0  0.5373680609412221 0.41 0  0.4895008759292634 0.41 0  0.4433053055145528 0.41 0  0.3987229542475914 0.41 0  0.3556974926297398 0.41 0  0.3141745521466497 0.41 0  0.2741016576310038 0.41 0  0.2354281840915826 0.41 0  0.1981052433265003 0.41 0  0.1620856860352591 0.41 0  0.1273239957535623 0.41 0  0.09377624077128965 0.41 0  0.06140001986584975 0.41 0  0.03015443760436654 0.41 0  0.2497468076502589 0.2050254481002335 0  0.2497468076502614 0.1949745518997913 0  0.2469965252529372 0.1829317073451959 0  0.2439893735792749 0.1762316384219906 0  0.2400332147834255 0.1700443375285386 0  0.2352133972704371 0.1645032867342007 0  0.2296339016332438 0.1597280261969788 0  0.2234150974217223 0.1558215752574715 0  0.2166911463437691 0.1528682099456123 0  0.2096071079204251 0.1509316448471593 0  0.2023158100364996 0.1500536585536553 0  0.194974551899914 0.1502531923497262 0  0.1877417105387872 0.1515259415822739 0  0.1807733240461124 0.153844448527136 0  0.1742197252835808 0.15715869474974 0  0.1682222986673531 0.1613971801805478 0  0.162910430003803 0.1664684656256651 0  0.1583987151779087 0.1722631454351573 0  0.1547844879126891 0.178656207771761 0  0.1521457199348551 0.1855097315605723 0  0.1505393388476355 0.1926758619366523 0  0.1505393388476328 0.2073241380633295 0  0.1521457199348437 0.2144902684393899 0  0.1547844879126531 0.221343792228163 0  0.1583987151778488 0.2277368545647528 0  0.1629104300036858 0.2335315343742052 0  0.1682222986671726 0.2386028198193036 0  0.1742197252833576 0.2428413052501257 0  0.1807733240458683 0.2461555514727623 0  0.1877417105384929 0.2484740584176516 0  0.1949745518995776 0.2497468076502398 0  0.202315810036185 0.2499463414463592 0  0.2096071079201568 0.2490683551528932 0  0.2166911463435495 0.2471317900544655 0  0.2234150974215506 0.2441784247426195 0  0.2296339016331197 0.2402719738031125 0  0.2352133972703547 0.2354967132658811 0  0.2400332147833751 0.2299556624715287 0  0.2439893735792577 0.2237683615780412 0  0.246996525252926 0.2170682926548348 0  0.25645809709277 0.21 0  0.2639263993298655 0.21 0  0.271394701566961 0.21 0  0.2788630038040554 0.21 0  0.2863313060411479 0.21 0  0.2937996082782405 0.21 0  0.301267910515333 0.21 0  0.3087362127524279 0.21 0  0.3162045149895234 0.21 0  0.3236728172265972 0.21 0  0.3311411194636928 0.21 0  0.3386094217007701 0.21 0  0.3460777239378666 0.21 0  0.3535460261749672 0.21 0  0.3610143284120516 0.21 0  0.3684826306491596 0.21 0  0.3759509328862226 0.21 0  0.383419235123329 0.21 0  0.3908875373604028 0.21 0  0.3983558395975142 0.21 0  0.4058241418345938 0.21 0  0.4132924440716992 0.21 0  0.4207607463087888 0.21 0  0.4282290485459029 0.21 0  0.4356973507830418 0.21 0  0.4431656530201649 0.21 0  0.4506339552573136 0.21 0  0.4581022574944306 0.21 0  0.4655705597315852 0.21 0  0.4730388619686996 0.21 0  0.480507164205851 0.21 0  0.4879754664429498 0.21 0  0.4954437686800938 0.21 0  0.502912070917267 0.21 0  0.5103803731544119 0.21 0  0.5178486753915261 0.21 0  0.5253169776286404 0.21 0  0.5327852798657868 0.21 0  0.5402535821029386 0.21 0  0.54772188434007 0.21 0  0.5551901865771842 0.21 0  0.5626584888143201 0.21 0  0.5701267910514778 0.21 0  0.5775950932886138 0.21 0  0.5850633955257281 0.21 0  0.5925316977628483 0.21 0  0.6 0.2050000000000054 0  0.6 0.1950000000000217 0  0.5925316977628897 0.19 0  0.5850633955257988 0.19 0  0.5775950932887378 0.19 0  0.5701267910515998 0.19 0  0.5626584888145268 0.19 0  0.5551901865773963 0.19 0  0.547721884340339 0.19 0  0.5402535821032429 0.19 0  0.5327852798661811 0.19 0  0.5253169776290537 0.19 0  0.5178486753919799 0.19 0  0.5103803731549078 0.19 0  0.502912070917822 0.19 0  0.4954437686807294 0.19 0  0.4879754664436223 0.19 0  0.4805071642065402 0.19 0  0.4730388619694271 0.19 0  0.4655705597323621 0.19 0  0.4581022574952563 0.19 0  0.4506339552581777 0.19 0  0.4431656530210671 0.19 0  0.4356973507839815 0.19 0  0.4282290485468779 0.19 0  0.4207607463097617 0.19 0  0.4132924440726327 0.19 0  0.4058241418354857 0.19 0  0.3983558395983636 0.19 0  0.3908875373612097 0.19 0  0.3834192351240934 0.19 0  0.3759509328869369 0.19 0  0.3684826306498175 0.19 0  0.361014328412667 0.19 0  0.3535460261755617 0.19 0  0.3460777239384295 0.19 0  0.3386094217012945 0.19 0  0.3311411194641595 0.19 0  0.3236728172270245 0.19 0  0.3162045149898895 0.19 0  0.3087362127527544 0.19 0  0.3012679105156187 0.19 0  0.2937996082784807 0.19 0  0.2863313060413428 0.19 0  0.2788630038042048 0.19 0  0.2713947015670686 0.19 0  0.2639263993299336 0.19 0  0.2564580970927985 0.19 0  0.2607803159922026 0.2000727136295815 0  0.5887803774232762 0.2001272386983733 0  0.5745072403740523 0.2002044435018727 0  0.5511891430099709 0.2001122610077113 0  0.2751288526855082 0.20000000000002 0  0.5365194309847112 0.1999999999999436 0  0.2894621222999649 0.1998691686390484 0  0.5215828265105155 0.1999999999999228 0  0.3127789816668748 0.1998657885438805 0  0.3274069683451451 0.2000000000000796 0  0.5066462220363641 0.199999999999908 0  0.3650630746574081 0.199866017807523 0  0.476773013087985 0.1999999999998713 0  0.3417402379596385 0.1998691686391011 0  0.3796850840047755 0.200000000000134 0  0.4618364086138087 0.1999999999998546 0  0.4917096175621762 0.1999999999998808 0  0.3946216884789568 0.2000000000001512 0  0.446899804139621 0.1999999999998389 0  0.4089549580935208 0.1998691686391595 0  0.4322718174608562 0.200127451265745 0  0.4201487168029707 0.1999966199048527 0  0.3528922713220932 0.2000185703532356 0  0.5633122436674589 0.1999814296467508 0  0.3006558810093873 0.1999966199048318 0  0.5815926498168407 0.1966545283159175 0  0.2677053789419034 0.1964246479135325 0  0.5290511287476175 0.1970915826863981 0  0.5439877332217911 0.197091582686394 0  0.2825131256993216 0.2035478995978015 0  0.3199386661080599 0.202908417313604 0  0.4842413153250809 0.1970915826863873 0  0.5141145242734466 0.1970915826863843 0  0.3722167817676917 0.2029084173136195 0  0.4693047108508938 0.1970915826863783 0  0.3348752705822316 0.202908417313609 0  0.3871533862418661 0.2029084173136212 0  0.4543681063767183 0.1970915826863795 0  0.4991779197992749 0.1970915826863902 0  0.4020059614928624 0.203547899597858 0  0.4394315019025246 0.1970915826863714 0  0.2550657455369551 0.2034088125358657 0  0.2548908499171161 0.1966940311614271 0  0.5946539510196798 0.2024302972968126 0  0.267698176732111 0.2039977513680092 0  0.4261685417851465 0.196409292431739 0  0.3590076176283495 0.196411355804271 0  0.5571672426447437 0.2036011176410121 0  0.3066757059912147 0.1964092924317024 0  0.594380730180568 0.1966558399668133 0  0.4842413153245942 0.2040749161535287 0  0.4693047108503577 0.2040749161535231 0  0.3871533862424271 0.1959250838464788 0  0.372246743208829 0.1959123236376545 0  0.5141145242731028 0.2040749161535395 0  0.4543681063761134 0.2040749161535186 0  0.4019979587101454 0.1959834479682427 0  0.4394608940728603 0.2040870543693135 0  0.5439623148931173 0.2040856076781014 0  0.5290511287473298 0.2040749161535501 0  0.4991779197988497 0.2040749161535382 0  0.3347912413592433 0.1959225448935183 0  0.3199680582793816 0.1959123018030061 0  0.2825051229162361 0.1959834479681729 0  0.3590471196690275 0.2036304442587945 0  0.5571594006495384 0.1963685282145804 0  0.3067669986803285 0.203627750582736 0  0.4262598344738712 0.2036568242185335 0  0.5814408164431408 0.2041285596160068 0  0.5688286748170428 0.1961819304477386 0  0.4145905603063645 0.2038180695522843 0  0.3473758401724931 0.2038180695522752 0  0.2950977245128307 0.2038180695522663 0  0.5688286748170693 0.203818069552238 0  0.2950977245127906 0.1961819304477774 0  0.3473758401723931 0.1961819304478349 0  0.4145905603061963 0.1961819304479011 0  0.2601812407614425 0.2056861609747042
[...]
<PointData  Vectors="f_40-1"> 
<DataArray  type="Float64"  Name="f_40-1"  NumberOfComponents="3" format="ascii">0.0000000000000000e+00 0.0000000000000000e+00 0.0000000000000000e+00  0.0000000000000000e+00 0.0000000000000000e+00 0.0000000000000000e+00  0.0000000000000000e+00 0.0000000000000000e+00 0.0000000000000000e+00  0.0000000000000000e+00 0.0000000000000000e+00 0.0000000000000000e+00  1.8622093431459379e-05 -1.9051562139848826e-04 0.0000000000000000e+00  3.7161158040078866e-05 -1.9112720540554362e-04 0.0000000000000000e+00  0.0000000000000000e+00 0.0000000000000000e+00 0.0000000000000000e+00  0.0000000000000000e+00 0.0000000000000000e+00 0.0000000000000000e+00  0.0000000000000000e+00 0.0000000000000000e+00 0.0000000000000000e+00  0.0000000000000000e+00 0.0000000000000000e+00 0.0000000000000000e+00  2.7620785486480678e-05 -1.9081982975778554e-04 0.0000000000000000e+00  0.0000000000000000e+00 0.0000000000000000e+00 0.0000000000000000e+00  0.0000000000000000e+00 0.0000000000000000e+00 0.0000000000000000e+00  0.0000000000000000e+00 0.0000000000000000e+00 0.0000000000000000e+00  0.0000000000000000e+00 0.0000000000000000e+00 0.0000000000000000e+00  0.0000000000000000e+00 0.0000000000000000e+00 0.0000000000000000e+00  0.0000000000000000e+00 0.0000000000000000e+00 0.0000000000000000e+00  0.0000000000000000e+00 0.0000000000000000e+00 0.0000000000000000e+00  0.0000000000000000e+00 0.0000000000000000e+00 0.0000000000000000e+00  0.0000000000000000e+00 0.0000000000000000e+00 0.0000000000000000e+00  0.0000000000000000e+00 0.0000000000000000e+00 0.0000000000000000e+00  0.0000000000000000e+00 0.0000000000000000e+00 0.0000000000000000e+00  0.0000000000000000e+00 0.0000000000000000e+00 0.0000000000000000e+00  0.0000000000000000e+00 0.0000000000000000e+00 0.0000000000000000e+00  0.0000000000000000e+00 0.0000000000000000e+00 0.0000000000000000e+00  0.0000000000000000e+00 0.0000000000000000e+00 0.0000000000000000e+00  0.0000000000000000e+00 0.0000000000000000e+00 0.0000000000000000e+00  0.0000000000000000e+00 0.0000000000000000e+00 0.0000000000000000e+00  0.0000000000000000e+00 0.0000000000000000e+00 0.0000000000000000e+00  0.0000000000000000e+00 0.0000000000000000e+00 0.0000000000000000e+00  0.0000000000000000e+00 0.0000000000000000e+00 0.0000000000000000e+00  0.0000000000000000e+00 0.0000000000000000e+00 0.0000000000000000e+00  0.0000000000000000e+00 0.0000000000000000e+00 0.0000000000000000e+00  0.0000000000000000e+00 0.0000000000000000e+00 0.0000000000000000e+00  0.0000000000000000e+00 0.0000000000000000e+00 0.0000000000000000e+00  0.0000000000000000e+00 0.0000000000000000e+00 0.0000000000000000e+00  0.0000000000000000e+00 0.0000000000000000e+00 0.0000000000000000e+00  0.0000000000000000e+00 0.0000000000000000e+00 0.0000000000000000e+00  0.0000000000000000e+00 0.0000000000000000e+00 0.0000000000000000e+00  0.0000000000000000e+00 0.0000000000000000e+00 0.0000000000000000e+00  0.0000000000000000e+00 0.0000000000000000e+00 0.0000000000000000e+00  0.0000000000000000e+00 0.0000000000000000e+00 0.0000000000000000e+00  0.0000000000000000e+00 0.0000000000000000e+00 0.0000000000000000e+00  0.0000000000000000e+00 0.0000000000000000e+00 0.0000000000000000e+00  0.0000000000000000e+00 0.0000000000000000e+00 0.0000000000000000e+00  0.0000000000000000e+00 0.0000000000000000e+00 0.0000000000000000e+00  0.0000000000000000e+00 0.0000000000000000e+00 0.0000000000000000e+00  0.0000000000000000e+00 0.0000000000000000e+00 0.0000000000000000e+00  0.0000000000000000e+00 0.0000000000000000e+00 0.0000000000000000e+00  0.0000000000000000e+00 0.0000000000000000e+00 0.0000000000000000e+00  0.0000000000000000e+00 0.0000000000000000e+00 0.0000000000000000e+00  0.0000000000000000e+00 0.0000000000000000e+00 0.0000000000000000e+00  0.0000000000000000e+00 0.0000000000000000e+00 0.0000000000000000e+00  0.0000000000000000e+00 0.0000000000000000e+00 0.0000000000000000e+00  0.0000000000000000e+00 0.0000000000000000e+00 0.0000000000000000e+00  0.0000000000000000e+00 0.0000000000000000e+00 0.0000000000000000e+00  0.0000000000000000e+00 0.0000000000000000e+00 0.0000000000000000e+00  0.0000000000000000e+00 0.0000000000000000e+00 0.0000000000000000e+00  0.0000000000000000e+00 0.0000000000000000e+00 0.0000000000000000e+00  0.0000000000000000e+00 0.0000000000000000e+00 0.0000000000000000e+00  0.0000000000000000e+00 0.0000000000000000e+00 0.0000000000000000e+00  0.0000000000000000e+00 0.0000000000000000e+00 0.0000000000000000e+00  0.0000000000000000e+00 0.0000000000000000e+00 0.0000000000000000e+00  0.0000000000000000e+00 0.0000000000000000e+00 0.0000000000000000e+00  0.0000000000000000e+00 0.0000000000000000e+00 0.0000000000000000e+00  0.0000000000000000e+00 0.0000000000000000e+00 0.0000000000000000e+00  0.0000000000000000e+00 0.0000000000000000e+00 0.0000000000000000e+00  0.0000000000000000e+00 0.0000000000000000e+00 0.0000000000000000e+00  0.0000000000000000e+00 0.0000000000000000e+00 0.0000000000000000e+00  0.0000000000000000e+00 0.0000000000000000e+00 0.0000000000000000e+00  0.0000000000000000e+00 0.0000000000000000e+00 0.0000000000000000e+00  0.0000000000000000e+00 0.0000000000000000e+00 0.0000000000000000e+00  0.0000000000000000e+00 0.0000000000000000e+00 0.0000000000000000e+00  0.0000000000000000e+00 0.0000000000000000e+00 0.0000000000000000e+00  0.0000000000000000e+00 0.0000000000000000e+00 0.0000000000000000e+00  0.0000000000000000e+00 0.0000000000000000e+00 0.0000000000000000e+00  0.0000000000000000e+00 0.0000000000000000e+00 0.0000000000000000e+00  0.0000000000000000e+00 0.0000000000000000e+00 0.0000000000000000e+00  0.0000000000000000e+00 0.0000000000000000e+00 0.0000000000000000e+00  0.0000000000000000e+00 0.0000000000000000e+00 0.0000000000000000e+00  0.0000000000000000e+00 0.0000000000000000e+00 0.0000000000000000e+00  0.0000000000000000e+00 0.0000000000000000e+00 0.0000000000000000e+00  0.0000000000000000e+00 0.0000000000000000e+00 0.0000000000000000e+00  0.0000000000000000e+00 0.0000000000000000e+00 0.0000000000000000e+00  0.0000000000000000e+00 0.0000000000000000e+00 0.0000000000000000e+00  0.0000000000000000e+00 0.0000000000000000e+00 0.0000000000000000e+00  0.0000000000000000e+00 0.0000000000000000e+00 0.0000000000000000e+00  0.0000000000000000e+00 0.0000000000000000e+00 0.0000000000000000e+00  0.0000000000000000e+00 0.0000000000000000e+00 0.0000000000000000e+00  0.0000000000000000e+00 0.0000000000000000e+00 0.0000000000000000e+00  0.0000000000000000e+00 0.0000000000000000e+00 0.0000000000000000e+00  0.0000000000000000e+00 0.0000000000000000e+00 0.0000000000000000e+00  0.0000000000000000e+00 0.0000000000000000e+00 0.0000000000000000e+00  0.0000000000000000e+00 0.0000000000000000e+00 0.0000000000000000e+00  0.0000000000000000e+00 0.0000000000000000e+00 0.0000000000000000e+00  0.0000000000000000e+00 0.0000000000000000e+00 0.0000000000000000e+00  0.0000000000000000e+00 0.0000000000000000e+00 0.0000000000000000e+00  0.0000000000000000e+00 0.0000000000000000e+00 0.0000000000000000e+00  0.0000000000000000e+00 0.0000000000000000e+00 0.0000000000000000e+00  0.0000000000000000e+00 0.0000000000000000e+00 0.0000000000000000e+00  0.0000000000000000e+00 0.0000000000000000e+00 0.0000000000000000e+00  0.0000000000000000e+00 0.0000000000000000e+00 0.0000000000000000e+00  0.0000000000000000e+00 0.0000000000000000e+00 0.0000000000000000e+00  0.0000000000000000e+00 0.0000000000000000e+00 0.0000000000000000e+00  0.0000000000000000e+00 0.0000000000000000e+00 0.0000000000000000e+00  0.0000000000000000e+00 0.0000000000000000e+00 0.0000000000000000e+00  0.0000000000000000e+00 0.0000000000000000e+00 0.0000000000000000e+00  0.0000000000000000e+00 0.0000000000000000e+00 0.0000000000000000e+00  0.0000000000000000e+00 0.0000000000000000e+00 0.0000000000000000e+00  0.0000000000000000e+00 0.0000000000000000e+00 0.0000000000000000e+00  0.0000000000000000e+00 0.0000000000000000e+00 0.0000000000000000e+00  0.0000000000000000e+00 0.0000000000000000e+00 0.0000000000000000e+00  0.0000000000000000e+00 0.0000000000000000e+00 0.0000000000000000e+00  0.0000000000000000e+00 0.0000000000000000e+00 0.0000000000000000e+00  0.0000000000000000e+00 0.0000000000000000e+00 0.0000000000000000e+00  0.0000000000000000e+00 0.0000000000000000e+00 0.0000000000000000e+00  0.0000000000000000e+00 0.0000000000000000e+00 0.0000000000000000e+00  0.0000000000000000e+00 0.0000000000000000e+00 0.0000000000000000e+00  0.0000000000000000e+00 0.0000000000000000e+00 0.0000000000000000e+00  0.0000000000000000e+00 0.0000000000000000e+00 0.0000000000000000e+00  0.0000000000000000e+00 0.0000000000000000e+00 0.0000000000000000e+00  0.0000000000000000e+00 0.0000000000000000e+00 0.0000000000000000e+00  0.0000000000000000e+00 0.0000000000000000e+00 0.0000000000000000e+00  0.0000000000000000e+00 0.0000000000000000e+00 0.0000000000000000e+00  0.0000000000000000e+00 0.0000000000000000e+00 0.0000000000000000e+00  0.0000000000000000e+00 0.0000000000000000e+00 0.0000000000000000e+00  0.0000000000000000e+00 0.0000000000000000e+00 0.0000000000000000e+00  0.0000000000000000e+00 0.0000000000000000e+00 0.0000000000000000e+00  0.0000000000000000e+00 0.0000000000000000e+00 0.0000000000000000e+00  0.0000000000000000e+00 0.0000000000000000e+00 0.0000000000000000e+00  0.0000000000000000e+00 0.0000000000000000e+00 0.0000000000000000e+00  0.0000000000000000e+00 0.0000000000000000e+00 0.0000000000000000e+00  0.0000000000000000e+00 0.0000000000000000e+00 0.0000000000000000e+00  0.0000000000000000e+00 0.0000000000000000e+00 0.0000000000000000e+00  0.0000000000000000e+00 0.0000000000000000e+00 0.0000000000000000e+00  0.0000000000000000e+00 0.0000000000000000e+00 0.0000000000000000e+00  0.0000000000000000e+00 0.0000000000000000e+00 0.0000000000000000e+00  0.0000000000000000e+00 0.0000000000000000e+00 0.0000000000000000e+00  0.0000000000000000e+00 0.0000000000000000e+00 0.0000000000000000e+00  0.0000000000000000e+00 0.0000000000000000e+00 0.0000000000000000e+00  0.0000000000000000e+00 0.0000000000000000e+00 0.0000000000000000e+00  0.0000000000000000e+00 0.0000000000000000e+00 0.0000000000000000e+00  0.0000000000000000e+00 0.0000000000000000e+00 0.0000000000000000e+00  5.4715726950478466e-07 -5.9260471545167820e-07 0.0000000000000000e+00  1.2106085247434854e-06 -4.5071449447734959e-07 0.0000000000000000e+00  2.0083144305788580e-06 -2.8749884724610987e-07 0.0000000000000000e+00  2.9048741662811099e-06 -1.3257479230575247e-07 0.0000000000000000e+00  3.8541984658847244e-06 -9.3873515941299692e-08 0.0000000000000000e+00  4.8967149325031304e-06 -1.9108302914942732e-07 0.0000000000000000e+00  5.9388370605182351e-06 -4.3244415839955086e-07 0.0000000000000000e+00  7.0251872514996026e-06 -8.9510815391798937e-07 0.0000000000000000e+00  8.2008263839434676e-06 -1.5571609140171804e-06 0.0000000000000000e+00  9.3299389159675336e-06 -2.4637236101458355e-06 0.0000000000000000e+00  1.0572116048740495e-05 -3.6300031831344502e-06 0.0000000000000000e+00  1.1733999949512760e-05 -5.0758662304279825e-06 0.0000000000000000e+00  1.2994526168260857e-05 -6.8094002481971448e-06 0.0000000000000000e+00  1.4177260024231146e-05 -8.7979997396046463e-06 0.0000000000000000e+00  1.5364578814662762e-05 -1.1123145995147998e-05 0.0000000000000000e+00  1.6622767113991606e-05 -1.3720541862651385e-05 0.0000000000000000e+00  1.7771968023256764e-05 -1.6611676477420481e-05 0.0000000000000000e+00  1.9006594135538345e-05 -1.9810926472848396e-05 0.0000000000000000e+00  2.0117128557205972e-05 -2.3291165725384202e-05 0.0000000000000000e+00  2.1296042386445777e-05 -2.7057511174536366e-05 0.0000000000000000e+00  2.2373446244728226e-05 -3.1097910905547860e-05 0.0000000000000000e+00  2.3481858147276754e-05 -3.5422409272315136e-05 0.0000000000000000e+00  2.4494291828355321e-05 -3.9959017107771141e-05 0.0000000000000000e+00  2.5476374845027205e-05 -4.4774478055977307e-05 0.0000000000000000e+00  2.6479293765057105e-05 -4.9787286682599199e-05 0.0000000000000000e+00  2.7395988295797675e-05 -5.5024300006333497e-05 0.0000000000000000e+00  2.8290509248671286e-05 -6.0478379026692694e-05 0.0000000000000000e+00  2.9123820640724912e-05 -6.6094090168365512e-05 0.0000000000000000e+00  2.9929954418142663e-05 -7.1904908568360678e-05 0.0000000000000000e+00  3.0676383159007407e-05 -7.7846365642184580e-05 0.0000000000000000e+00  3.1391996509024527e-05 -8.3954297910026173e-05 0.0000000000000000e+00  3.2050025724416900e-05 -9.0163083398954474e-05 0.0000000000000000e+00  3.2674729565644218e-05 -9.6510254254985415e-05 0.0000000000000000e+00  3.3245123571761579e-05 -1.0293043302209452e-04 0.0000000000000000e+00  3.3779507254727618e-05 -1.0946349121314585e-04 0.0000000000000000e+00  3.4263295494136627e-05 -1.1604506165632998e-04 0.0000000000000000e+00  3.4711084339535024e-05 -1.2271531588779023e-04 0.0000000000000000e+00  3.5111866121396361e-05 -1.2941381115533798e-04 0.0000000000000000e+00  3.5476010416373205e-05 -1.3618076878304969e-04 0.0000000000000000e+00  3.5795171490457040e-05 -1.4295797995609008e-04 0.0000000000000000e+00  3.6074018441149229e-05 -1.4978137177548391e-04 0.0000000000000000e+00  3.6317256470697461e-05 -1.5661378344059579e-04 0.0000000000000000e+00  3.6520948622011898e-05 -1.6346749131141612e-04 0.0000000000000000e+00  3.6704177097582509e-05 -1.7032973921629686e-04 0.0000000000000000e+00  3.6843892295539200e-05 -1.7718730324122280e-04 0.0000000000000000e+00  3.6977234454864237e-05 -1.8408255137330508e-04 0.0000000000000000e+00  3.2296294641527563e-05 -1.9097090482610296e-04 0.0000000000000000e+00  2.3038930951901910e-05 -1.9067309846630286e-04 0.0000000000000000e+00  1.8454419798767369e-05 -1.8372127009411870e-04 0.0000000000000000e+00  1.8347173012829187e-05 -1.7678302291457051e-04 0.0000000000000000e+00  1.8232294639944957e-05 -1.6983066696796677e-04 0.0000000000000000e+00  1.8088860757716755e-05 -1.6290273111819518e-04 0.0000000000000000e+00  1.7926369912918826e-05 -1.5598518266588278e-04 0.0000000000000000e+00  1.7735451077862229e-05 -1.4908704863445232e-04 0.0000000000000000e+00  1.7533569733582651e-05 -1.4221446443806805e-04 0.0000000000000000e+00  1.7296876624023892e-05 -1.3535800628441599e-04 0.0000000000000000e+00  1.7053916316429923e-05 -1.2855600574836800e-04 0.0000000000000000e+00  1.6777397858345003e-05 -1.2177964530025496e-04 0.0000000000000000e+00  1.6504374606626907e-05 -1.1507503978665252e-04 0.0000000000000000e+00  1.6194640531272748e-05 -1.0841689837139671e-04 0.0000000000000000e+00  1.5898730754163919e-05 -1.0185103471583929e-04 0.0000000000000000e+00  1.5561332529854755e-05 -9.5356458211726211e-05 0.0000000000000000e+00  1.5249069220825650e-05 -8.8977918754362816e-05 0.0000000000000000e+00  1.4888766113671843e-05 -8.2697878204790638e-05 0.0000000000000000e+00  1.4565169735355520e-05 -7.6560313784176118e-05 0.0000000000000000e+00  1.4186307484196692e-05 -7.0550905510148221e-05 0.0000000000000000e+00  1.3856293859918098e-05 -6.4712349456228684e-05 0.0000000000000000e+00  1.3462721557553564e-05 -5.9032815974123305e-05 0.0000000000000000e+00  1.3130848319981625e-05 -5.3554337552925094e-05 0.0000000000000000e+00  1.2726818631433857e-05 -4.8267750402308431e-05 0.0000000000000000e+00  1.2385709164329955e-05 -4.3209737632618410e-05 0.0000000000000000e+00  1.1985521151746894e-05 -3.8358892405740228e-05 0.0000000000000000e+00  1.1576347996669459e-05 -3.3791239494271700e-05 0.0000000000000000e+00  1.1226601001431301e-05 -2.9431017778950912e-05 0.0000000000000000e+00  1.0824039293172111e-05 -2.5362007764712496e-05 0.0000000000000000e+00  1.0449483252237656e-05 -2.1568372975083467e-05 0.0000000000000000e+00  1.0038418072320022e-05 -1.8059571171109091e-05 0.0000000000000000e+00  9.6483991478244081e-06 -1.4849494931747215e-05 0.0000000000000000e+00  9.2225302028184467e-06 -1.1922147386810178e-05 0.0000000000000000e+00  8.8397354666312707e-06 -9.3328690070963203e-06 0.0000000000000000e+00  8.3793299782890293e-06 -6.9927770532346847e-06 0.0000000000000000e+00  7.9037330684923162e-06 -5.0007732922740954e-06 0.0000000000000000e+00  7.4824306439905322e-06 -3.2482417085507452e-06 0.0000000000000000e+00  6.9987482011002161e-06 -1.8102938060021134e-06 0.0000000000000000e+00  6.5214324203982794e-06 -6.5141453169327985e-07 0.0000000000000000e+00  5.9973016673931321e-06 2.5811996981531752e-07 0.0000000000000000e+00  5.4839905108330942e-06 8.9348851262410250e-07 0.0000000000000000e+00  4.8964618157575843e-06 1.3449618343229983e-06 0.0000000000000000e+00  4.2771220900236148e-06 1.5682640706051254e-06 0.0000000000000000e+00  3.6635787130401520e-06 1.6488123432794599e-06 0.0000000000000000e+00  2.9789012964902784e-06 1.5953570966130793e-06 0.0000000000000000e+00  2.2699639816338758e-06 1.4334859245022364e-06 0.0000000000000000e+00  1.5182537186116812e-06 1.2219313549120920e-06 0.0000000000000000e+00  7.5939478176937305e-07 9.4912326034304150e-07 0.0000000000000000e+00  9.1147817015155716e-07 2.6797417137436784e-07 0.0000000000000000e+00  2.7662699680929565e-05 -1.8042262350539268e-04 0.0000000000000000e+00  2.7546062583385492e-05 -1.6722300298385690e-04 0.0000000000000000e+00  2.6837577375569397e-05 -1.4574778507746530e-04 0.0000000000000000e+00  2.5366393751869645e-06 7.0111401828532948e-07 0.0000000000000000e+00  2.6187242497963741e-05 -1.3234431030251408e-04 0.0000000000000000e+00  4.1025113515786009e-06 8.6317641901361898e-07 0.0000000000000000e+00  2.5517691238503929e-05 -1.1885664049827561e-04 0.0000000000000000e+00  6.6874177399617472e-06 -1.6183651336547799e-07 0.0000000000000000e+00  8.3433605136185575e-06 -1.9383697072760873e-06 0.0000000000000000e+00  2.4734063490932798e-05 -1.0560125857472731e-04 0.0000000000000000e+00  1.2476179518634930e-05 -1.1389368660673721e-05 0.0000000000000000e+00  2.2837605383914475e-05 -8.0159491530005963e-05 0.0000000000000000e+00  9.9206872436171644e-06 -4.6536749230207741e-06 0.0000000000000000e+00  1.4091814047167193e-05 -1.7109011597738112e-05 0.0000000000000000e+00  2.1732732896509287e-05 -6.8187911136399852e-05 0.0000000000000000e+00  2.3839520493783243e-05 -9.2667980609004302e-05 0.0000000000000000e+00  1.5645592126626560e-05 -2.4102904927865532e-05 0.0000000000000000e+00  2.0528833702350127e-05 -5.6873020861465234e-05 0.0000000000000000e+00  1.7005112680035483e-05 -3.1864551148320049e-05 0.0000000000000000e+00  1.9350795127539666e-05 -4.6553317819273597e-05 0.0000000000000000e+00  1.8141688456972334e-05 -3.8659290659185343e-05 0.0000000000000000e+00  1.1189760706103566e-05 -7.5721083873526291e-06 0.0000000000000000e+00  2.7064192844664534e-05 -1.5689170371439515e-04 0.0000000000000000e+00  5.3439498282936440e-06 5.6953082633536017e-07 0.0000000000000000e+00  2.4381711686083640e-05 -1.7370098519861797e-04 0.0000000000000000e+00  1.7584521875808396e-06 8.1164891068523002e-07 0.0000000000000000e+00  2.3252526839439171e-05 -1.2545100952378183e-04 0.0000000000000000e+00  2.3832059702091000e-05 -1.3904009593373093e-04 0.0000000000000000e+00  3.3559609247512118e-06 5.1558724693075219e-07 0.0000000000000000e+00  7.8758026203019315e-06 -1.1995953629208199e-06 0.0000000000000000e+00  2.0933270383566191e-05 -8.6187536844718710e-05 0.0000000000000000e+00  2.2572883203126123e-05 -1.1205474260136031e-04 0.0000000000000000e+00  1.4429716574811122e-05 -1.4334137559220717e-05 0.0000000000000000e+00  1.9984778794836739e-05 -7.3921021106537836e-05 0.0000000000000000e+00  9.7464743856346542e-06 -3.5187628808680721e-06 0.0000000000000000e+00  1.6229075666109534e-05 -2.0739747923064162e-05 0.0000000000000000e+00  1.8957906028955686e-05 -6.2251169769361747e-05 0.0000000000000000e+00  2.1797852056898864e-05 -9.8934550764809815e-05 0.0000000000000000e+00  1.8302166588708396e-05 -2.8309988974296380e-05 0.0000000000000000e+00  1.7855709198870794e-05 -5.1299951316248410e-05 0.0000000000000000e+00  3.3176366082832648e-07 -8.6708295668589571e-08 0.0000000000000000e+00  3.4189153710519944e-07 2.8030125294949479e-07 0.0000000000000000e+00  2.9837383868605521e-05 -1.8590918057544907e-04 0.0000000000000000e+00  1.6695736434851337e-06 1.3729406613263050e-07 0.0000000000000000e+00  1.6382008967166057e-05 