<?xml version="1.0"?>
<VTKFile type="UnstructuredGrid"  version="0.1"  >
<UnstructuredGrid>
<Piece  NumberOfPoints="1419" NumberOfCells="2698">
<Points>
<DataArray  type="Float64"  NumberOfComponents="3"  format="ascii">0 0 0  0 0.41 0  2.5 0 0  2.5 0.41 0  0.6 0.19 0  0.6 0.21 0  0.25 0.2 0  0.15 0.2 0  0.2489897948556636 0.21 0  0.2489897948556636 0.19 0  0.6 0.2 0  0 0.3807142857143437 0  0 0.3514285714286952 0  0 0.3221428571430699 0  0 0.29285714285744 0  0 0.2635714285718054 0  0 0.2342857142861561 0  0 0.2050000000005308 0  0 0.175714285714732 0  0 0.1464285714289574 0  0 0.1171428571431897 0  0 0.08785714285737878 0  0 0.05857142857161107 0  0 0.02928571428580012 0  0.03015443760436003 0 0  0.06140001986583606 0 0  0.09377624077125973 0 0  0.1273239957535082 0 0  0.1620856860351972 0 0  0.1981052433264291 0 0  0.235428184091502 0 0  0.2741016576309132 0 0  0.3141745521465447 0 0  0.3556974926295285 0 0  0.3987229542472677 0 0  0.4433053055141081 0 0  0.4895008759286886 0 0  0.5373680609405097 0 0  0.5869673343216626 0 0  0.6383613676634521 0 0  0.6916151138468254 0 0  0.7467958595648856 0 0  0.8039733463919316 0 0  0.8632198139502143 0 0  0.9246101326867038 0 0  0.9882218810934433 0 0  1.054135445558498 0 0  1.122434100542598 0 0  1.193204177141305 0 0  1.266535089879536 0 0  1.342519516046404 0 0  1.421253448503939 0 0  1.502836389106271 0 0  1.587371439758838 0 0  1.674965418777374 0 0  1.765729001825544 0 0  1.859776908880082 0 0  1.957227977487062 0 0  2.058205329869943 0 0  2.162836591189951 0 0  2.271253957290865 0 0  2.383594446803425 0 0  2.5 0.1024999999997612 0  2.5 0.2049999999994743 0  2.5 0.3074999999997183 0  2.383594446803656 0.41 0  2.271253957291315 0.41 0  2.162836591190598 0.41 0  2.058205329870775 0.41 0  1.957227977488067 0.41 0  1.859776908881246 0.41 0  1.765729001826854 0.41 0  1.674965418778818 0.41 0  1.58737143976041 0.41 0  1.502836389107956 0.41 0  1.421253448505726 0.41 0  1.342519516048286 0.41 0  1.266535089881505 0.41 0  1.193204177143353 0.41 0  1.122434100544716 0.41 0  1.05413544556068 0.41 0  0.9882218810956305 0.41 0  0.9246101326886647 0.41 0  0.8632198139519631 0.41 0  0.8039733463934788 0.41 0  0.7467958595662458 0.41 0  0.6916151138480078 0.41 0  0.6383613676644679 0.41 0  0.5869673343225223 0.41 0  0.5373680609412221 0.41 0  0.4895008759292634 0.41 0  0.4433053055145528 0.41 0  0.3987229542475914 0.41 0  0.3556974926297398 0.41 0  0.3141745521466497 0.41 0  0.2741016576310038 0.41 0  0.2354281840915826 0.41 0  0.1981052433265003 0.41 0  0.1620856860352591 0.41 0  0.1273239957535623 0.41 0  0.09377624077128965 0.41 0  0.06140001986584975 0.41 0  0.03015443760436654 0.41 0  0.2497468076502589 0.2050254481002335 0  0.2497468076502614 0.1949745518997913 0  0.2469965252529372 0.1829317073451959 0  0.2439893735792749 0.1762316384219906 0  0.2400332147834255 0.1700443375285386 0  0.2352133972704371 0.1645032867342007 0  0.2296339016332438 0.1597280261969788 0  0.2234150974217223 0.1558215752574715 0  0.2166911463437691 0.1528682099456123 0  0.2096071079204251 0.1509316448471593 0  0.2023158100364996 0.1500536585536553 0  0.194974551899914 0.1502531923497262 0  0.1877417105387872 0.1515259415822739 0  0.1807733240461124 0.153844448527136 0  0.1742197252835808 0.15715869474974 0  0.1682222986673531 0.1613971801805478 0  0.162910430003803 0.1664684656256651 0  0.1583987151779087 0.1722631454351573 0  0.1547844879126891 0.178656207771761 0  0.1521457199348551 0.1855097315605723 0  0.1505393388476355 0.1926758619366523 0  0.1505393388476328 0.2073241380633295 0  0.1521457199348437 0.2144902684393899 0  0.1547844879126531 0.221343792228163 0  0.1583987151778488 0.2277368545647528 0  0.1629104300036858 0.2335315343742052 0  0.1682222986671726 0.2386028198193036 0  0.1742197252833576 0.2428413052501257 0  0.1807733240458683 0.2461555514727623 0  0.1877417105384929 0.2484740584176516 0  0.1949745518995776 0.2497468076502398 0  0.202315810036185 0.2499463414463592 0  0.2096071079201568 0.2490683551528932 0  0.2166911463435495 0.2471317900544655 0  0.2234150974215506 0.2441784247426195 0  0.2296339016331197 0.2402719738031125 0  0.2352133972703547 0.2354967132658811 0  0.2400332147833751 0.2299556624715287 0  0.2439893735792577 0.2237683615780412 0  0.246996525252926 0.2170682926548348 0  0.25645809709277 0.21 0  0.2639263993298655 0.21 0  0.271394701566961 0.21 0  0.2788630038040554 0.21 0  0.2863313060411479 0.21 0  0.2937996082782405 0.21 0  0.301267910515333 0.21 0  0.3087362127524279 0.21 0  0.3162045149895234 0.21 0  0.3236728172265972 0.21 0  0.3311411194636928 0.21 0  0.3386094217007701 0.21 0  0.3460777239378666 0.21 0  0.3535460261749672 0.21 0  0.3610143284120516 0.21 0  0.3684826306491596 0.21 0  0.3759509328862226 0.21 0  0.383419235123329 0.21 0  0.3908875373604028 0.21 0  0.3983558395975142 0.21 0  0.4058241418345938 0.21 0  0.4132924440716992 0.21 0  0.4207607463087888 0.21 0  0.4282290485459029 0.21 0  0.4356973507830418 0.21 0  0.4431656530201649 0.21 0  0.4506339552573136 0.21 0  0.4581022574944306 0.21 0  0.4655705597315852 0.21 0  0.4730388619686996 0.21 0  0.480507164205851 0.21 0  0.4879754664429498 0.21 0  0.4954437686800938 0.21 0  0.502912070917267 0.21 0  0.5103803731544119 0.21 0  0.5178486753915261 0.21 0  0.5253169776286404 0.21 0  0.5327852798657868 0.21 0  0.5402535821029386 0.21 0  0.54772188434007 0.21 0  0.5551901865771842 0.21 0  0.5626584888143201 0.21 0  0.5701267910514778 0.21 0  0.5775950932886138 0.21 0  0.5850633955257281 0.21 0  0.5925316977628483 0.21 0  0.6 0.2050000000000054 0  0.6 0.1950000000000217 0  0.5925316977628897 0.19 0  0.5850633955257988 0.19 0  0.5775950932887378 0.19 0  0.5701267910515998 0.19 0  0.5626584888145268 0.19 0  0.5551901865773963 0.19 0  0.547721884340339 0.19 0  0.5402535821032429 0.19 0  0.5327852798661811 0.19 0  0.5253169776290537 0.19 0  0.5178486753919799 0.19 0  0.5103803731549078 0.19 0  0.502912070917822 0.19 0  0.4954437686807294 0.19 0  0.4879754664436223 0.19 0  0.4805071642065402 0.19 0  0.4730388619694271 0.19 0  0.4655705597323621 0.19 0  0.4581022574952563 0.19 0  0.4506339552581777 0.19 0  0.4431656530210671 0.19 0  0.4356973507839815 0.19 0  0.4282290485468779 0.19 0  0.4207607463097617 0.19 0  0.4132924440726327 0.19 0  0.4058241418354857 0.19 0  0.3983558395983636 0.19 0  0.3908875373612097 0.19 0  0.3834192351240934 0.19 0  0.3759509328869369 0.19 0  0.3684826306498175 0.19 0  0.361014328412667 0.19 0  0.3535460261755617 0.19 0  0.3460777239384295 0.19 0  0.3386094217012945 0.19 0  0.3311411194641595 0.19 0  0.3236728172270245 0.19 0  0.3162045149898895 0.19 0  0.3087362127527544 0.19 0  0.3012679105156187 0.19 0  0.2937996082784807 0.19 0  0.2863313060413428 0.19 0  0.2788630038042048 0.19 0  0.2713947015670686 0.19 0  0.2639263993299336 0.19 0  0.2564580970927985 0.19 0  0.2607803159922026 0.2000727136295815 0  0.5887803774232762 0.2001272386983733 0  0.5745072403740523 0.2002044435018727 0  0.5511891430099709 0.2001122610077113 0  0.2751288526855082 0.20000000000002 0  0.5365194309847112 0.1999999999999436 0  0.2894621222999649 0.1998691686390484 0  0.5215828265105155 0.1999999999999228 0  0.3127789816668748 0.1998657885438805 0  0.3274069683451451 0.2000000000000796 0  0.5066462220363641 0.199999999999908 0  0.3650630746574081 0.199866017807523 0  0.476773013087985 0.1999999999998713 0  0.3417402379596385 0.1998691686391011 0  0.3796850840047755 0.200000000000134 0  0.4618364086138087 0.1999999999998546 0  0.4917096175621762 0.1999999999998808 0  0.3946216884789568 0.2000000000001512 0  0.446899804139621 0.1999999999998389 0  0.4089549580935208 0.1998691686391595 0  0.4322718174608562 0.200127451265745 0  0.4201487168029707 0.1999966199048527 0  0.3528922713220932 0.2000185703532356 0  0.5633122436674589 0.1999814296467508 0  0.3006558810093873 0.1999966199048318 0  0.5815926498168407 0.1966545283159175 0  0.2677053789419034 0.1964246479135325 0  0.5290511287476175 0.1970915826863981 0  0.5439877332217911 0.197091582686394 0  0.2825131256993216 0.2035478995978015 0  0.3199386661080599 0.202908417313604 0  0.4842413153250809 0.1970915826863873 0  0.5141145242734466 0.1970915826863843 0  0.3722167817676917 0.2029084173136195 0  0.4693047108508938 0.1970915826863783 0  0.3348752705822316 0.202908417313609 0  0.3871533862418661 0.2029084173136212 0  0.4543681063767183 0.1970915826863795 0  0.4991779197992749 0.1970915826863902 0  0.4020059614928624 0.203547899597858 0  0.4394315019025246 0.1970915826863714 0  0.2550657455369551 0.2034088125358657 0  0.2548908499171161 0.1966940311614271 0  0.5946539510196798 0.2024302972968126 0  0.267698176732111 0.2039977513680092 0  0.4261685417851465 0.196409292431739 0  0.3590076176283495 0.196411355804271 0  0.5571672426447437 0.2036011176410121 0  0.3066757059912147 0.1964092924317024 0  0.594380730180568 0.1966558399668133 0  0.4842413153245942 0.2040749161535287 0  0.4693047108503577 0.2040749161535231 0  0.3871533862424271 0.1959250838464788 0  0.372246743208829 0.1959123236376545 0  0.5141145242731028 0.2040749161535395 0  0.4543681063761134 0.2040749161535186 0  0.4019979587101454 0.1959834479682427 0  0.4394608940728603 0.2040870543693135 0  0.5439623148931173 0.2040856076781014 0  0.5290511287473298 0.2040749161535501 0  0.4991779197988497 0.2040749161535382 0  0.3347912413592433 0.1959225448935183 0  0.3199680582793816 0.1959123018030061 0  0.2825051229162361 0.1959834479681729 0  0.3590471196690275 0.2036304442587945 0  0.5571594006495384 0.1963685282145804 0  0.3067669986803285 0.203627750582736 0  0.4262598344738712 0.2036568242185335 0  0.5814408164431408 0.2041285596160068 0  0.5688286748170428 0.1961819304477386 0  0.4145905603063645 0.2038180695522843 0  0.3473758401724931 0.2038180695522752 0  0.2950977245128307 0.2038180695522663 0  0.5688286748170693 0.203818069552238 0  0.2950977245127906 0.1961819304477774 0  0.3473758401723931 0.1961819304478349 0  0.4145905603061963 0.1961819304479011 0  0.2601812407614425 0.2056861609747042
[...]
<PointData  Vectors="f_40-1"> 
<DataArray  type="Float64"  Name="f_40-1"  NumberOfComponents="3" format="ascii">0.0000000000000000e+00 0.0000000000000000e+00 0.0000000000000000e+00  0.0000000000000000e+00 0.0000000000000000e+00 0.0000000000000000e+00  0.0000000000000000e+00 0.0000000000000000e+00 0.0000000000000000e+00  0.0000000000000000e+00 0.0000000000000000e+00 0.0000000000000000e+00  4.1661165660234845e-05 5.1593724264793327e-04 0.0000000000000000e+00  7.7748773491397467e-06 5.1528856449316145e-04 0.0000000000000000e+00  0.0000000000000000e+00 0.0000000000000000e+00 0.0000000000000000e+00  0.0000000000000000e+00 0.0000000000000000e+00 0.0000000000000000e+00  0.0000000000000000e+00 0.0000000000000000e+00 0.0000000000000000e+00  0.0000000000000000e+00 0.0000000000000000e+00 0.0000000000000000e+00  2.4436249962326965e-05 5.1560921343850753e-04 0.0000000000000000e+00  0.0000000000000000e+00 0.0000000000000000e+00 0.0000000000000000e+00  0.0000000000000000e+00 0.0000000000000000e+00 0.0000000000000000e+00  0.0000000000000000e+00 0.0000000000000000e+00 0.0000000000000000e+00  0.0000000000000000e+00 0.0000000000000000e+00 0.0000000000000000e+00  0.0000000000000000e+00 0.0000000000000000e+00 0.0000000000000000e+00  0.0000000000000000e+00 0.0000000000000000e+00 0.0000000000000000e+00  0.0000000000000000e+00 0.0000000000000000e+00 0.0000000000000000e+00  0.0000000000000000e+00 0.0000000000000000e+00 0.0000000000000000e+00  0.0000000000000000e+00 0.0000000000000000e+00 0.0000000000000000e+00  0.0000000000000000e+00 0.0000000000000000e+00 0.0000000000000000e+00  0.0000000000000000e+00 0.0000000000000000e+00 0.0000000000000000e+00  0.0000000000000000e+00 0.0000000000000000e+00 0.0000000000000000e+00  0.0000000000000000e+00 0.0000000000000000e+00 0.0000000000000000e+00  0.0000000000000000e+00 0.0000000000000000e+00 0.0000000000000000e+00  0.0000000000000000e+00 0.0000000000000000e+00 0.0000000000000000e+00  0.0000000000000000e+00 0.0000000000000000e+00 0.0000000000000000e+00  0.0000000000000000e+00 0.0000000000000000e+00 0.0000000000000000e+00  0.0000000000000000e+00 0.0000000000000000e+00 0.0000000000000000e+00  0.0000000000000000e+00 0.0000000000000000e+00 0.0000000000000000e+00  0.0000000000000000e+00 0.0000000000000000e+00 0.0000000000000000e+00  0.0000000000000000e+00 0.0000000000000000e+00 0.0000000000000000e+00  0.0000000000000000e+00 0.0000000000000000e+00 0.0000000000000000e+00  0.0000000000000000e+00 0.0000000000000000e+00 0.0000000000000000e+00  0.0000000000000000e+00 0.0000000000000000e+00 0.0000000000000000e+00  0.0000000000000000e+00 0.0000000000000000e+00 0.0000000000000000e+00  0.0000000000000000e+00 0.0000000000000000e+00 0.0000000000000000e+00  0.0000000000000000e+00 0.0000000000000000e+00 0.0000000000000000e+00  0.0000000000000000e+00 0.0000000000000000e+00 0.0000000000000000e+00  0.0000000000000000e+00 0.0000000000000000e+00 0.0000000000000000e+00  0.0000000000000000e+00 0.0000000000000000e+00 0.0000000000000000e+00  0.0000000000000000e+00 0.0000000000000000e+00 0.0000000000000000e+00  0.0000000000000000e+00 0.0000000000000000e+00 0.0000000000000000e+00  0.0000000000000000e+00 0.0000000000000000e+00 0.0000000000000000e+00  0.0000000000000000e+00 0.0000000000000000e+00 0.0000000000000000e+00  0.0000000000000000e+00 0.0000000000000000e+00 0.0000000000000000e+00  0.0000000000000000e+00 0.0000000000000000e+00 0.0000000000000000e+00  0.0000000000000000e+00 0.0000000000000000e+00 0.0000000000000000e+00  0.0000000000000000e+00 0.0000000000000000e+00 0.0000000000000000e+00  0.0000000000000000e+00 0.0000000000000000e+00 0.0000000000000000e+00  0.0000000000000000e+00 0.0000000000000000e+00 0.0000000000000000e+00  0.0000000000000000e+00 0.0000000000000000e+00 0.0000000000000000e+00  0.0000000000000000e+00 0.0000000000000000e+00 0.0000000000000000e+00  0.0000000000000000e+00 0.0000000000000000e+00 0.0000000000000000e+00  0.0000000000000000e+00 0.0000000000000000e+00 0.0000000000000000e+00  0.0000000000000000e+00 0.0000000000000000e+00 0.0000000000000000e+00  0.0000000000000000e+00 0.0000000000000000e+00 0.0000000000000000e+00  0.0000000000000000e+00 0.0000000000000000e+00 0.0000000000000000e+00  0.0000000000000000e+00 0.0000000000000000e+00 0.0000000000000000e+00  0.0000000000000000e+00 0.0000000000000000e+00 0.0000000000000000e+00  0.0000000000000000e+00 0.0000000000000000e+00 0.0000000000000000e+00  0.0000000000000000e+00 0.0000000000000000e+00 0.0000000000000000e+00  0.0000000000000000e+00 0.0000000000000000e+00 0.0000000000000000e+00  0.0000000000000000e+00 0.0000000000000000e+00 0.0000000000000000e+00  0.0000000000000000e+00 0.0000000000000000e+00 0.0000000000000000e+00  0.0000000000000000e+00 0.0000000000000000e+00 0.0000000000000000e+00  0.0000000000000000e+00 0.0000000000000000e+00 0.0000000000000000e+00  0.0000000000000000e+00 0.0000000000000000e+00 0.0000000000000000e+00  0.0000000000000000e+00 0.0000000000000000e+00 0.0000000000000000e+00  0.0000000000000000e+00 0.0000000000000000e+00 0.0000000000000000e+00  0.0000000000000000e+00 0.0000000000000000e+00 0.0000000000000000e+00  0.0000000000000000e+00 0.0000000000000000e+00 0.0000000000000000e+00  0.0000000000000000e+00 0.0000000000000000e+00 0.0000000000000000e+00  0.0000000000000000e+00 0.0000000000000000e+00 0.0000000000000000e+00  0.0000000000000000e+00 0.0000000000000000e+00 0.0000000000000000e+00  0.0000000000000000e+00 0.0000000000000000e+00 0.0000000000000000e+00  0.0000000000000000e+00 0.0000000000000000e+00 0.0000000000000000e+00  0.0000000000000000e+00 0.0000000000000000e+00 0.0000000000000000e+00  0.0000000000000000e+00 0.0000000000000000e+00 0.0000000000000000e+00  0.0000000000000000e+00 0.0000000000000000e+00 0.0000000000000000e+00  0.0000000000000000e+00 0.0000000000000000e+00 0.0000000000000000e+00  0.0000000000000000e+00 0.0000000000000000e+00 0.0000000000000000e+00  0.0000000000000000e+00 0.0000000000000000e+00 0.0000000000000000e+00  0.0000000000000000e+00 0.0000000000000000e+00 0.0000000000000000e+00  0.0000000000000000e+00 0.0000000000000000e+00 0.0000000000000000e+00  0.0000000000000000e+00 0.0000000000000000e+00 0.0000000000000000e+00  0.0000000000000000e+00 0.0000000000000000e+00 0.0000000000000000e+00  0.0000000000000000e+00 0.0000000000000000e+00 0.0000000000000000e+00  0.0000000000000000e+00 0.0000000000000000e+00 0.0000000000000000e+00  0.0000000000000000e+00 0.0000000000000000e+00 0.0000000000000000e+00  0.0000000000000000e+00 0.0000000000000000e+00 0.0000000000000000e+00  0.0000000000000000e+00 0.0000000000000000e+00 0.0000000000000000e+00  0.0000000000000000e+00 0.0000000000000000e+00 0.0000000000000000e+00  0.0000000000000000e+00 0.0000000000000000e+00 0.0000000000000000e+00  0.0000000000000000e+00 0.0000000000000000e+00 0.0000000000000000e+00  0.0000000000000000e+00 0.0000000000000000e+00 0.0000000000000000e+00  0.0000000000000000e+00 0.0000000000000000e+00 0.0000000000000000e+00  0.0000000000000000e+00 0.0000000000000000e+00 0.0000000000000000e+00  0.0000000000000000e+00 0.0000000000000000e+00 0.0000000000000000e+00  0.0000000000000000e+00 0.0000000000000000e+00 0.0000000000000000e+00  0.0000000000000000e+00 0.0000000000000000e+00 0.0000000000000000e+00  0.0000000000000000e+00 0.0000000000000000e+00 0.0000000000000000e+00  0.0000000000000000e+00 0.0000000000000000e+00 0.0000000000000000e+00  0.0000000000000000e+00 0.0000000000000000e+00 0.0000000000000000e+00  0.0000000000000000e+00 0.0000000000000000e+00 0.0000000000000000e+00  0.0000000000000000e+00 0.0000000000000000e+00 0.0000000000000000e+00  0.0000000000000000e+00 0.0000000000000000e+00 0.0000000000000000e+00  0.0000000000000000e+00 0.0000000000000000e+00 0.0000000000000000e+00  0.0000000000000000e+00 0.0000000000000000e+00 0.0000000000000000e+00  0.0000000000000000e+00 0.0000000000000000e+00 0.0000000000000000e+00  0.0000000000000000e+00 0.0000000000000000e+00 0.0000000000000000e+00  0.0000000000000000e+00 0.0000000000000000e+00 0.0000000000000000e+00  0.0000000000000000e+00 0.0000000000000000e+00 0.0000000000000000e+00  0.0000000000000000e+00 0.0000000000000000e+00 0.0000000000000000e+00  0.0000000000000000e+00 0.0000000000000000e+00 0.0000000000000000e+00  0.0000000000000000e+00 0.0000000000000000e+00 0.0000000000000000e+00  0.0000000000000000e+00 0.0000000000000000e+00 0.0000000000000000e+00  0.0000000000000000e+00 0.0000000000000000e+00 0.0000000000000000e+00  0.0000000000000000e+00 0.0000000000000000e+00 0.0000000000000000e+00  0.0000000000000000e+00 0.0000000000000000e+00 0.0000000000000000e+00  0.0000000000000000e+00 0.0000000000000000e+00 0.0000000000000000e+00  0.0000000000000000e+00 0.0000000000000000e+00 0.0000000000000000e+00  0.0000000000000000e+00 0.0000000000000000e+00 0.0000000000000000e+00  0.0000000000000000e+00 0.0000000000000000e+00 0.0000000000000000e+00  0.0000000000000000e+00 0.0000000000000000e+00 0.0000000000000000e+00  0.0000000000000000e+00 0.0000000000000000e+00 0.0000000000000000e+00  0.0000000000000000e+00 0.0000000000000000e+00 0.0000000000000000e+00  0.0000000000000000e+00 0.0000000000000000e+00 0.0000000000000000e+00  0.0000000000000000e+00 0.0000000000000000e+00 0.0000000000000000e+00  0.0000000000000000e+00 0.0000000000000000e+00 0.0000000000000000e+00  0.0000000000000000e+00 0.0000000000000000e+00 0.0000000000000000e+00  0.0000000000000000e+00 0.0000000000000000e+00 0.0000000000000000e+00  0.0000000000000000e+00 0.0000000000000000e+00 0.0000000000000000e+00  0.0000000000000000e+00 0.0000000000000000e+00 0.0000000000000000e+00  0.0000000000000000e+00 0.0000000000000000e+00 0.0000000000000000e+00  0.0000000000000000e+00 0.0000000000000000e+00 0.0000000000000000e+00  0.0000000000000000e+00 0.0000000000000000e+00 0.0000000000000000e+00  0.0000000000000000e+00 0.0000000000000000e+00 0.0000000000000000e+00  0.0000000000000000e+00 0.0000000000000000e+00 0.0000000000000000e+00  0.0000000000000000e+00 0.0000000000000000e+00 0.0000000000000000e+00  0.0000000000000000e+00 0.0000000000000000e+00 0.0000000000000000e+00  0.0000000000000000e+00 0.0000000000000000e+00 0.0000000000000000e+00  0.0000000000000000e+00 0.0000000000000000e+00 0.0000000000000000e+00  -1.1298974427702930e-06 8.0886583072617599e-07 0.0000000000000000e+00  -2.3454729166310072e-06 2.9169299826157499e-06 0.0000000000000000e+00  -3.1874087707573724e-06 6.2638290170064770e-06 0.0000000000000000e+00  -4.0433299658278520e-06 1.0883241832772409e-05 0.0000000000000000e+00  -4.5430738834402606e-06 1.6437468574074759e-05 0.0000000000000000e+00  -5.1254129162980361e-06 2.3000089028500501e-05 0.0000000000000000e+00  -5.3791801438946343e-06 3.0254436604259174e-05 0.0000000000000000e+00  -5.5374673916132179e-06 3.8378478923691677e-05 0.0000000000000000e+00  -5.7755911901927964e-06 4.7119230672743758e-05 0.0000000000000000e+00  -5.7157783332565041e-06 5.6457708740720143e-05 0.0000000000000000e+00  -5.7621019616274050e-06 6.6356156544933198e-05 0.0000000000000000e+00  -5.5610890681767154e-06 7.6719707974172636e-05 0.0000000000000000e+00  -5.4198995547963358e-06 8.7509944843940261e-05 0.0000000000000000e+00  -5.1200550871776462e-06 9.8616398409978286e-05 0.0000000000000000e+00  -4.7766069398515603e-06 1.1008699439876947e-04 0.0000000000000000e+00  -4.4601455901772377e-06 1.2180628207952206e-04 0.0000000000000000e+00  -4.0218950997384108e-06 1.3376257876440017e-04 0.0000000000000000e+00  -3.6195982916856358e-06 1.4592356684557572e-04 0.0000000000000000e+00  -3.1263300948399464e-06 1.5825282709458748e-04 0.0000000000000000e+00  -2.6563992696603506e-06 1.7071553795117964e-04 0.0000000000000000e+00  -2.1355444814433176e-06 1.8329948710556204e-04 0.0000000000000000e+00  -1.6234061230337450e-06 1.9597596600550975e-04 0.0000000000000000e+00  -1.0823942360753110e-06 2.0871070571618617e-04 0.0000000000000000e+00  -5.3798389493168753e-07 2.2151053067511763e-04 0.0000000000000000e+00  3.4737032752115512e-10 2.3434026481458032e-04 0.0000000000000000e+00  5.4286366005850882e-07 2.4720620388512138e-04 0.0000000000000000e+00  1.0774807846395620e-06 2.6007745875034625e-04 0.0000000000000000e+00  1.6054275792762965e-06 2.7296368864110067e-04 0.0000000000000000e+00  2.1229487915864916e-06 2.8583873449196894e-04 0.0000000000000000e+00  2.6263266213667056e-06 2.9871774785428777e-04 0.0000000000000000e+00  3.1160140169482114e-06 3.1157326903297287e-04 0.0000000000000000e+00  3.5859880378631437e-06 3.2442711875556117e-04 0.0000000000000000e+00  4.0387719590703493e-06 3.3724985955652694e-04 0.0000000000000000e+00  4.4684655815406620e-06 3.5006985267012087e-04 0.0000000000000000e+00  4.8764407548162652e-06 3.6285483166018724e-04 0.0000000000000000e+00  5.2582434283954715e-06 3.7563870005285170e-04 0.0000000000000000e+00  5.6164503561319324e-06 3.8838826282489838e-04 0.0000000000000000e+00  5.9462806888739758e-06 4.0113963404361390e-04 0.0000000000000000e+00  6.2500494990452048e-06 4.1385903558763769e-04 0.0000000000000000e+00  6.5224151851503669e-06 4.2658573839613351e-04 0.0000000000000000e+00  6.7625098985485963e-06 4.3929012444646887e-04 0.0000000000000000e+00  6.9772123537887021e-06 4.5199498689910860e-04 0.0000000000000000e+00  7.1597350034293791e-06 4.6469198356968369e-04 0.0000000000000000e+00  7.3240319000505346e-06 4.7738752616923531e-04 0.0000000000000000e+00  7.4526496908587517e-06 4.9009294962219579e-04 0.0000000000000000e+00  7.5843754605052265e-06 5.0276464775835460e-04 0.0000000000000000e+00  1.6011834449673038e-05 5.1545286047521453e-04 0.0000000000000000e+00  3.2963330978538165e-05 5.1576351132008461e-04 0.0000000000000000e+00  4.1478036978842384e-05 5.0314053951529888e-04 0.0000000000000000e+00  4.1359513859155830e-05 4.9050348752097692e-04 0.0000000000000000e+00  4.1239739254792902e-05 4.7788520708291554e-04 0.0000000000000000e+00  4.1089771239583460e-05 4.6525026046380255e-04 0.0000000000000000e+00  4.0922244997591915e-05 4.5261137589071423e-04 0.0000000000000000e+00  4.0725230288728700e-05 4.3996536704659018e-04 0.0000000000000000e+00  4.0510158596109136e-05 4.2730611189299321e-04 0.0000000000000000e+00  4.0264297348870101e-05 4.1464839292905132e-04 0.0000000000000000e+00  3.9998432059651944e-05 4.0196017735761192e-04 0.0000000000000000e+00  3.9704874376284387e-05 3.8927582313441562e-04 0.0000000000000000e+00  3.9393050447076963e-05 3.7655650037788767e-04 0.0000000000000000e+00  3.9053415003070903e-05 3.6383711505241811e-04 0.0000000000000000e+00  3.8696040154550573e-05 3.5108071607475405e-04 0.0000000000000000e+00  3.8310176929574653e-05 3.3832218486367765e-04 0.0000000000000000e+00  3.7905597094091852e-05 3.2552668345390455e-04 0.0000000000000000e+00  3.7471653297188767e-05 3.1273077305294110e-04 0.0000000000000000e+00  3.7015886027285758e-05 2.9990115944140825e-04 0.0000000000000000e+00  3.6531490085590199e-05 2.8707631165225374e-04 0.0000000000000000e+00  3.6020565853776891e-05 2.7422545712905565e-04 0.0000000000000000e+00  3.5482466540390816e-05 2.6138934542219654e-04 0.0000000000000000e+00  3.4909336212077622e-05 2.4854015831159376e-04 0.0000000000000000e+00  3.4311463105225809e-05 2.3572181274156056e-04 0.0000000000000000e+00  3.3664520401725857e-05 2.2291699724260401e-04 0.0000000000000000e+00  3.2998024380276760e-05 2.1015038295501575e-04 0.0000000000000000e+00  3.2294646274035392e-05 1.9744474627179636e-04 0.0000000000000000e+00  3.1540927547922712e-05 1.8479018968219573e-04 0.0000000000000000e+00  3.0753769171514216e-05 1.7224474778045033e-04 0.0000000000000000e+00  2.9906569027842581e-05 1.5978722178940812e-04 0.0000000000000000e+00  2.9025551822981435e-05 1.4749187954929437e-04 0.0000000000000000e+00  2.8074904986810184e-05 1.3533690244769874e-04 0.0000000000000000e+00  2.7090408135359750e-05 1.2339378997808112e-04 0.0000000000000000e+00  2.5989667785263486e-05 1.1169996689724956e-04 0.0000000000000000e+00  2.4901295644562458e-05 1.0023611353285665e-04 0.0000000000000000e+00  2.3754819968297162e-05 8.9143210972182483e-05 0.0000000000000000e+00  2.2460948730373083e-05 7.8327903145141353e-05 0.0000000000000000e+00  2.1146399515253593e-05 6.7985445595124784e-05 0.0000000000000000e+00  1.9700594909827226e-05 5.8074085997872567e-05 0.0000000000000000e+00  1.8226627764414817e-05 4.8707587665403366e-05 0.0000000000000000e+00  1.6525651027915522e-05 3.9992795268496238e-05 0.0000000000000000e+00  1.4899310405923744e-05 3.1844778366265737e-05 0.0000000000000000e+00  1.3188590374145646e-05 2.4575976773168192e-05 0.0000000000000000e+00  1.1177587488658189e-05 1.7965938806571617e-05 0.0000000000000000e+00  9.1996190138871080e-06 1.2381727612049480e-05 0.0000000000000000e+00  6.9231606955429857e-06 7.8160913511887131e-06 0.0000000000000000e+00  4.7535073010704084e-06 4.4052374298645156e-06 0.0000000000000000e+00  2.2887584795777174e-06 2.1619775531386246e-06 0.0000000000000000e+00  7.8674459595428755e-07 1.6676173114510479e-06 0.0000000000000000e+00  2.4143549768086293e-05 4.9659786883097070e-04 0.0000000000000000e+00  2.3830099415654034e-05 4.7239923770017066e-04 0.0000000000000000e+00  2.3394278246523593e-05 4.3283679491737501e-04 0.0000000000000000e+00  2.2365209959781809e-06 8.4782695706320121e-06 0.0000000000000000e+00  2.3072423468810187e-05 4.0791198594896879e-04 0.0000000000000000e+00  3.7175190764233070e-06 1.9247302872273879e-05 0.0000000000000000e+00  2.2452663485279715e-05 3.8247712372576216e-04 0.0000000000000000e+00  6.0471340575650627e-06 4.3412559430541249e-05 0.0000000000000000e+00  7.3299088178741143e-06 6.1823600379657293e-05 0.0000000000000000e+00  2.1734605524009147e-05 3.5697403085986260e-04 0.0000000000000000e+00  1.1186498361351269e-05 1.1704582295948490e-04 0.0000000000000000e+00  2.0021856420742378e-05 3.0573947044095086e-04 0.0000000000000000e+00  8.9196534427882910e-06 8.1741262199815166e-05 0.0000000000000000e+00  1.2341324201208147e-05 1.4048241258366828e-04 0.0000000000000000e+00  1.9036298368124087e-05 2.8002739778241651e-04 0.0000000000000000e+00  2.0922885124518531e-05 3.3139410725606074e-04 0.0000000000000000e+00  1.3694052941731322e-05 1.6514711344226164e-04 0.0000000000000000e+00  1.7971228707765001e-05 2.5429268593447771e-04 0.0000000000000000e+00  1.5166552881668931e-05 1.8929429715398136e-04 0.0000000000000000e+00  1.6639935753485418e-05 2.2911528844622717e-04 0.0000000000000000e+00  1.5880859716579164e-05 2.0835550891036694e-04 0.0000000000000000e+00  9.7826398470231117e-06 9.8278968179529858e-05 0.0000000000000000e+00  2.3944782196271363e-05 4.5341605701243790e-04 0.0000000000000000e+00  4.7085182816556489e-06 3.0047424419597376e-05 0.0000000000000000e+00  2.9961961413910695e-05 4.8448528663206790e-04 0.0000000000000000e+00  3.0535057177149398e-06 4.8414152824945920e-06 0.0000000000000000e+00  2.7731154205389495e-05 3.9532505507655440e-04 0.0000000000000000e+00  2.8290878557383970e-05 4.2071747258656410e-04 0.0000000000000000e+00  4.0825656106159729e-07 1.3419128034576766e-05 0.0000000000000000e+00  3.0008159901253616e-06 5.1965586889326791e-05 0.0000000000000000e+00  2.5477524812835490e-05 3.1873833958389832e-04 0.0000000000000000e+00  2.7073966411778280e-05 3.6987148779481140e-04 0.0000000000000000e+00  7.0222782731398519e-06 1.2819417443554401e-04 0.0000000000000000e+00  2.4542239318251851e-05 2.9306444321588158e-04 0.0000000000000000e+00  4.0852903365581068e-06 7.1800460491127486e-05 0.0000000000000000e+00  8.2532843875872950e-06 1.5252945558947190e-04 0.0000000000000000e+00  2.3517447478996083e-05 2.6734778600569703e-04 0.0000000000000000e+00  2.6321933384232796e-05 3.4434398938871380e-04 0.0000000000000000e+00  8.4016306026677788e-06 1.7728073858918529e-04 0.0000000000000000e+00  2.2404534776147879e-05 2.4163348810386578e-04 0.0000000000000000e+00  8.1734718665541576e-09 2.4186615254811232e-07 0.0000000000000000e+00  5.5040629795089499e-07 5.3850237509300279e-07 0.0000000000000000e+00  2.0283046166673215e-05 5.0650564830012905e-04 0.0000000000000000e+00  -2.0445899371439364e-07 4.2454377265050153e-06 0.0000000000000000e+00  2.2510817610005401e-05 2.1891177353476412e-04 0.0000000000000000e+00  1.5902318480935947e-05 1.0791238017859052e-04 0.00000