<?xml version="1.0"?>
<VTKFile type="UnstructuredGrid"  version="0.1"  >
<UnstructuredGrid>
<Piece  NumberOfPoints="1419" NumberOfCells="2698">
<Points>
<DataArray  type="Float64"  NumberOfComponents="3"  format="ascii">0 0 0  0 0.41 0  2.5 0 0  2.5 0.41 0  0.6 0.19 0  0.6 0.21 0  0.25 0.2 0  0.15 0.2 0  0.2489897948556636 0.21 0  0.2489897948556636 0.19 0  0.6 0.2 0  0 0.3807142857143437 0  0 0.3514285714286952 0  0 0.3221428571430699 0  0 0.29285714285744 0  0 0.2635714285718054 0  0 0.2342857142861561 0  0 0.2050000000005308 0  0 0.175714285714732 0  0 0.1464285714289574 0  0 0.1171428571431897 0  0 0.08785714285737878 0  0 0.05857142857161107 0  0 0.02928571428580012 0  0.03015443760436003 0 0  0.06140001986583606 0 0  0.09377624077125973 0 0  0.1273239957535082 0 0  0.1620856860351972 0 0  0.1981052433264291 0 0  0.235428184091502 0 0  0.2741016576309132 0 0  0.3141745521465447 0 0  0.3556974926295285 0 0  0.3987229542472677 0 0  0.4433053055141081 0 0  0.4895008759286886 0 0  0.5373680609405097 0 0  0.5869673343216626 0 0  0.6383613676634521 0 0  0.6916151138468254 0 0  0.7467958595648856 0 0  0.8039733463919316 0 0  0.8632198139502143 0 0  0.9246101326867038 0 0  0.9882218810934433 0 0  1.054135445558498 0 0  1.122434100542598 0 0  1.193204177141305 0 0  1.266535089879536 0 0  1.342519516046404 0 0  1.421253448503939 0 0  1.502836389106271 0 0  1.587371439758838 0 0  1.674965418777374 0 0  1.765729001825544 0 0  1.859776908880082 0 0  1.957227977487062 0 0  2.058205329869943 0 0  2.162836591189951 0 0  2.271253957290865 0 0  2.383594446803425 0 0  2.5 0.1024999999997612 0  2.5 0.2049999999994743 0  2.5 0.3074999999997183 0  2.383594446803656 0.41 0  2.271253957291315 0.41 0  2.162836591190598 0.41 0  2.058205329870775 0.41 0  1.957227977488067 0.41 0  1.859776908881246 0.41 0  1.765729001826854 0.41 0  1.674965418778818 0.41 0  1.58737143976041 0.41 0  1.502836389107956 0.41 0  1.421253448505726 0.41 0  1.342519516048286 0.41 0  1.266535089881505 0.41 0  1.193204177143353 0.41 0  1.122434100544716 0.41 0  1.05413544556068 0.41 0  0.9882218810956305 0.41 0  0.9246101326886647 0.41 0  0.8632198139519631 0.41 0  0.8039733463934788 0.41 0  0.7467958595662458 0.41 0  0.6916151138480078 0.41 0  0.6383613676644679 0.41 0  0.5869673343225223 0.41 0  0.5373680609412221 0.41 0  0.4895008759292634 0.41 0  0.4433053055145528 0.41 0  0.3987229542475914 0.41 0  0.3556974926297398 0.41 0  0.3141745521466497 0.41 0  0.2741016576310038 0.41 0  0.2354281840915826 0.41 0  0.1981052433265003 0.41 0  0.1620856860352591 0.41 0  0.1273239957535623 0.41 0  0.09377624077128965 0.41 0  0.06140001986584975 0.41 0  0.03015443760436654 0.41 0  0.2497468076502589 0.2050254481002335 0  0.2497468076502614 0.1949745518997913 0  0.2469965252529372 0.1829317073451959 0  0.2439893735792749 0.1762316384219906 0  0.2400332147834255 0.1700443375285386 0  0.2352133972704371 0.1645032867342007 0  0.2296339016332438 0.1597280261969788 0  0.2234150974217223 0.1558215752574715 0  0.2166911463437691 0.1528682099456123 0  0.2096071079204251 0.1509316448471593 0  0.2023158100364996 0.1500536585536553 0  0.194974551899914 0.1502531923497262 0  0.1877417105387872 0.1515259415822739 0  0.1807733240461124 0.153844448527136 0  0.1742197252835808 0.15715869474974 0  0.1682222986673531 0.1613971801805478 0  0.162910430003803 0.1664684656256651 0  0.1583987151779087 0.1722631454351573 0  0.1547844879126891 0.178656207771761 0  0.1521457199348551 0.1855097315605723 0  0.1505393388476355 0.1926758619366523 0  0.1505393388476328 0.2073241380633295 0  0.1521457199348437 0.2144902684393899 0  0.1547844879126531 0.221343792228163 0  0.1583987151778488 0.2277368545647528 0  0.1629104300036858 0.2335315343742052 0  0.1682222986671726 0.2386028198193036 0  0.1742197252833576 0.2428413052501257 0  0.1807733240458683 0.2461555514727623 0  0.1877417105384929 0.2484740584176516 0  0.1949745518995776 0.2497468076502398 0  0.202315810036185 0.2499463414463592 0  0.2096071079201568 0.2490683551528932 0  0.2166911463435495 0.2471317900544655 0  0.2234150974215506 0.2441784247426195 0  0.2296339016331197 0.2402719738031125 0  0.2352133972703547 0.2354967132658811 0  0.2400332147833751 0.2299556624715287 0  0.2439893735792577 0.2237683615780412 0  0.246996525252926 0.2170682926548348 0  0.25645809709277 0.21 0  0.2639263993298655 0.21 0  0.271394701566961 0.21 0  0.2788630038040554 0.21 0  0.2863313060411479 0.21 0  0.2937996082782405 0.21 0  0.301267910515333 0.21 0  0.3087362127524279 0.21 0  0.3162045149895234 0.21 0  0.3236728172265972 0.21 0  0.3311411194636928 0.21 0  0.3386094217007701 0.21 0  0.3460777239378666 0.21 0  0.3535460261749672 0.21 0  0.3610143284120516 0.21 0  0.3684826306491596 0.21 0  0.3759509328862226 0.21 0  0.383419235123329 0.21 0  0.3908875373604028 0.21 0  0.3983558395975142 0.21 0  0.4058241418345938 0.21 0  0.4132924440716992 0.21 0  0.4207607463087888 0.21 0  0.4282290485459029 0.21 0  0.4356973507830418 0.21 0  0.4431656530201649 0.21 0  0.4506339552573136 0.21 0  0.4581022574944306 0.21 0  0.4655705597315852 0.21 0  0.4730388619686996 0.21 0  0.480507164205851 0.21 0  0.4879754664429498 0.21 0  0.4954437686800938 0.21 0  0.502912070917267 0.21 0  0.5103803731544119 0.21 0  0.5178486753915261 0.21 0  0.5253169776286404 0.21 0  0.5327852798657868 0.21 0  0.5402535821029386 0.21 0  0.54772188434007 0.21 0  0.5551901865771842 0.21 0  0.5626584888143201 0.21 0  0.5701267910514778 0.21 0  0.5775950932886138 0.21 0  0.5850633955257281 0.21 0  0.5925316977628483 0.21 0  0.6 0.2050000000000054 0  0.6 0.1950000000000217 0  0.5925316977628897 0.19 0  0.5850633955257988 0.19 0  0.5775950932887378 0.19 0  0.5701267910515998 0.19 0  0.5626584888145268 0.19 0  0.5551901865773963 0.19 0  0.547721884340339 0.19 0  0.5402535821032429 0.19 0  0.5327852798661811 0.19 0  0.5253169776290537 0.19 0  0.5178486753919799 0.19 0  0.5103803731549078 0.19 0  0.502912070917822 0.19 0  0.4954437686807294 0.19 0  0.4879754664436223 0.19 0  0.4805071642065402 0.19 0  0.4730388619694271 0.19 0  0.4655705597323621 0.19 0  0.4581022574952563 0.19 0  0.4506339552581777 0.19 0  0.4431656530210671 0.19 0  0.4356973507839815 0.19 0  0.4282290485468779 0.19 0  0.4207607463097617 0.19 0  0.4132924440726327 0.19 0  0.4058241418354857 0.19 0  0.3983558395983636 0.19 0  0.3908875373612097 0.19 0  0.3834192351240934 0.19 0  0.3759509328869369 0.19 0  0.3684826306498175 0.19 0  0.361014328412667 0.19 0  0.3535460261755617 0.19 0  0.3460777239384295 0.19 0  0.3386094217012945 0.19 0  0.3311411194641595 0.19 0  0.3236728172270245 0.19 0  0.3162045149898895 0.19 0  0.3087362127527544 0.19 0  0.3012679105156187 0.19 0  0.2937996082784807 0.19 0  0.2863313060413428 0.19 0  0.2788630038042048 0.19 0  0.2713947015670686 0.19 0  0.2639263993299336 0.19 0  0.2564580970927985 0.19 0  0.2607803159922026 0.2000727136295815 0  0.5887803774232762 0.2001272386983733 0  0.5745072403740523 0.2002044435018727 0  0.5511891430099709 0.2001122610077113 0  0.2751288526855082 0.20000000000002 0  0.5365194309847112 0.1999999999999436 0  0.2894621222999649 0.1998691686390484 0  0.5215828265105155 0.1999999999999228 0  0.3127789816668748 0.1998657885438805 0  0.3274069683451451 0.2000000000000796 0  0.5066462220363641 0.199999999999908 0  0.3650630746574081 0.199866017807523 0  0.476773013087985 0.1999999999998713 0  0.3417402379596385 0.1998691686391011 0  0.3796850840047755 0.200000000000134 0  0.4618364086138087 0.1999999999998546 0  0.4917096175621762 0.1999999999998808 0  0.3946216884789568 0.2000000000001512 0  0.446899804139621 0.1999999999998389 0  0.4089549580935208 0.1998691686391595 0  0.4322718174608562 0.200127451265745 0  0.4201487168029707 0.1999966199048527 0  0.3528922713220932 0.2000185703532356 0  0.5633122436674589 0.1999814296467508 0  0.3006558810093873 0.1999966199048318 0  0.5815926498168407 0.1966545283159175 0  0.2677053789419034 0.1964246479135325 0  0.5290511287476175 0.1970915826863981 0  0.5439877332217911 0.197091582686394 0  0.2825131256993216 0.2035478995978015 0  0.3199386661080599 0.202908417313604 0  0.4842413153250809 0.1970915826863873 0  0.5141145242734466 0.1970915826863843 0  0.3722167817676917 0.2029084173136195 0  0.4693047108508938 0.1970915826863783 0  0.3348752705822316 0.202908417313609 0  0.3871533862418661 0.2029084173136212 0  0.4543681063767183 0.1970915826863795 0  0.4991779197992749 0.1970915826863902 0  0.4020059614928624 0.203547899597858 0  0.4394315019025246 0.1970915826863714 0  0.2550657455369551 0.2034088125358657 0  0.2548908499171161 0.1966940311614271 0  0.5946539510196798 0.2024302972968126 0  0.267698176732111 0.2039977513680092 0  0.4261685417851465 0.196409292431739 0  0.3590076176283495 0.196411355804271 0  0.5571672426447437 0.2036011176410121 0  0.3066757059912147 0.1964092924317024 0  0.594380730180568 0.1966558399668133 0  0.4842413153245942 0.2040749161535287 0  0.4693047108503577 0.2040749161535231 0  0.3871533862424271 0.1959250838464788 0  0.372246743208829 0.1959123236376545 0  0.5141145242731028 0.2040749161535395 0  0.4543681063761134 0.2040749161535186 0  0.4019979587101454 0.1959834479682427 0  0.4394608940728603 0.2040870543693135 0  0.5439623148931173 0.2040856076781014 0  0.5290511287473298 0.2040749161535501 0  0.4991779197988497 0.2040749161535382 0  0.3347912413592433 0.1959225448935183 0  0.3199680582793816 0.1959123018030061 0  0.2825051229162361 0.1959834479681729 0  0.3590471196690275 0.2036304442587945 0  0.5571594006495384 0.1963685282145804 0  0.3067669986803285 0.203627750582736 0  0.4262598344738712 0.2036568242185335 0  0.5814408164431408 0.2041285596160068 0  0.5688286748170428 0.1961819304477386 0  0.4145905603063645 0.2038180695522843 0  0.3473758401724931 0.2038180695522752 0  0.2950977245128307 0.2038180695522663 0  0.5688286748170693 0.203818069552238 0  0.2950977245127906 0.1961819304477774 0  0.3473758401723931 0.1961819304478349 0  0.4145905603061963 0.1961819304479011 0  0.2601812407614425 0.2056861609747042
[...]
<PointData  Vectors="f_40-1"> 
<DataArray  type="Float64"  Name="f_40-1"  NumberOfComponents="3" format="ascii">0.0000000000000000e+00 0.0000000000000000e+00 0.0000000000000000e+00  0.0000000000000000e+00 0.0000000000000000e+00 0.0000000000000000e+00  0.0000000000000000e+00 0.0000000000000000e+00 0.0000000000000000e+00  0.0000000000000000e+00 0.0000000000000000e+00 0.0000000000000000e+00  1.4241636283131569e-05 -3.0807088514321667e-04 0.0000000000000000e+00  3.8786230741109302e-05 -3.0940653370730304e-04 0.0000000000000000e+00  0.0000000000000000e+00 0.0000000000000000e+00 0.0000000000000000e+00  0.0000000000000000e+00 0.0000000000000000e+00 0.0000000000000000e+00  0.0000000000000000e+00 0.0000000000000000e+00 0.0000000000000000e+00  0.0000000000000000e+00 0.0000000000000000e+00 0.0000000000000000e+00  2.6208112864449226e-05 -3.0873783275664739e-04 0.0000000000000000e+00  0.0000000000000000e+00 0.0000000000000000e+00 0.0000000000000000e+00  0.0000000000000000e+00 0.0000000000000000e+00 0.0000000000000000e+00  0.0000000000000000e+00 0.0000000000000000e+00 0.0000000000000000e+00  0.0000000000000000e+00 0.0000000000000000e+00 0.0000000000000000e+00  0.0000000000000000e+00 0.0000000000000000e+00 0.0000000000000000e+00  0.0000000000000000e+00 0.0000000000000000e+00 0.0000000000000000e+00  0.0000000000000000e+00 0.0000000000000000e+00 0.0000000000000000e+00  0.0000000000000000e+00 0.0000000000000000e+00 0.0000000000000000e+00  0.0000000000000000e+00 0.0000000000000000e+00 0.0000000000000000e+00  0.0000000000000000e+00 0.0000000000000000e+00 0.0000000000000000e+00  0.0000000000000000e+00 0.0000000000000000e+00 0.0000000000000000e+00  0.0000000000000000e+00 0.0000000000000000e+00 0.0000000000000000e+00  0.0000000000000000e+00 0.0000000000000000e+00 0.0000000000000000e+00  0.0000000000000000e+00 0.0000000000000000e+00 0.0000000000000000e+00  0.0000000000000000e+00 0.0000000000000000e+00 0.0000000000000000e+00  0.0000000000000000e+00 0.0000000000000000e+00 0.0000000000000000e+00  0.0000000000000000e+00 0.0000000000000000e+00 0.0000000000000000e+00  0.0000000000000000e+00 0.0000000000000000e+00 0.0000000000000000e+00  0.0000000000000000e+00 0.0000000000000000e+00 0.0000000000000000e+00  0.0000000000000000e+00 0.0000000000000000e+00 0.0000000000000000e+00  0.0000000000000000e+00 0.0000000000000000e+00 0.0000000000000000e+00  0.0000000000000000e+00 0.0000000000000000e+00 0.0000000000000000e+00  0.0000000000000000e+00 0.0000000000000000e+00 0.0000000000000000e+00  0.0000000000000000e+00 0.0000000000000000e+00 0.0000000000000000e+00  0.0000000000000000e+00 0.0000000000000000e+00 0.0000000000000000e+00  0.0000000000000000e+00 0.0000000000000000e+00 0.0000000000000000e+00  0.0000000000000000e+00 0.0000000000000000e+00 0.0000000000000000e+00  0.0000000000000000e+00 0.0000000000000000e+00 0.0000000000000000e+00  0.0000000000000000e+00 0.0000000000000000e+00 0.0000000000000000e+00  0.0000000000000000e+00 0.0000000000000000e+00 0.0000000000000000e+00  0.0000000000000000e+00 0.0000000000000000e+00 0.0000000000000000e+00  0.0000000000000000e+00 0.0000000000000000e+00 0.0000000000000000e+00  0.0000000000000000e+00 0.0000000000000000e+00 0.0000000000000000e+00  0.0000000000000000e+00 0.0000000000000000e+00 0.0000000000000000e+00  0.0000000000000000e+00 0.0000000000000000e+00 0.0000000000000000e+00  0.0000000000000000e+00 0.0000000000000000e+00 0.0000000000000000e+00  0.0000000000000000e+00 0.0000000000000000e+00 0.0000000000000000e+00  0.0000000000000000e+00 0.0000000000000000e+00 0.0000000000000000e+00  0.0000000000000000e+00 0.0000000000000000e+00 0.0000000000000000e+00  0.0000000000000000e+00 0.0000000000000000e+00 0.0000000000000000e+00  0.0000000000000000e+00 0.0000000000000000e+00 0.0000000000000000e+00  0.0000000000000000e+00 0.0000000000000000e+00 0.0000000000000000e+00  0.0000000000000000e+00 0.0000000000000000e+00 0.0000000000000000e+00  0.0000000000000000e+00 0.0000000000000000e+00 0.0000000000000000e+00  0.0000000000000000e+00 0.0000000000000000e+00 0.0000000000000000e+00  0.0000000000000000e+00 0.0000000000000000e+00 0.0000000000000000e+00  0.0000000000000000e+00 0.0000000000000000e+00 0.0000000000000000e+00  0.0000000000000000e+00 0.0000000000000000e+00 0.0000000000000000e+00  0.0000000000000000e+00 0.0000000000000000e+00 0.0000000000000000e+00  0.0000000000000000e+00 0.0000000000000000e+00 0.0000000000000000e+00  0.0000000000000000e+00 0.0000000000000000e+00 0.0000000000000000e+00  0.0000000000000000e+00 0.0000000000000000e+00 0.0000000000000000e+00  0.0000000000000000e+00 0.0000000000000000e+00 0.0000000000000000e+00  0.0000000000000000e+00 0.0000000000000000e+00 0.0000000000000000e+00  0.0000000000000000e+00 0.0000000000000000e+00 0.0000000000000000e+00  0.0000000000000000e+00 0.0000000000000000e+00 0.0000000000000000e+00  0.0000000000000000e+00 0.0000000000000000e+00 0.0000000000000000e+00  0.0000000000000000e+00 0.0000000000000000e+00 0.0000000000000000e+00  0.0000000000000000e+00 0.0000000000000000e+00 0.0000000000000000e+00  0.0000000000000000e+00 0.0000000000000000e+00 0.0000000000000000e+00  0.0000000000000000e+00 0.0000000000000000e+00 0.0000000000000000e+00  0.0000000000000000e+00 0.0000000000000000e+00 0.0000000000000000e+00  0.0000000000000000e+00 0.0000000000000000e+00 0.0000000000000000e+00  0.0000000000000000e+00 0.0000000000000000e+00 0.0000000000000000e+00  0.0000000000000000e+00 0.0000000000000000e+00 0.0000000000000000e+00  0.0000000000000000e+00 0.0000000000000000e+00 0.0000000000000000e+00  0.0000000000000000e+00 0.0000000000000000e+00 0.0000000000000000e+00  0.0000000000000000e+00 0.0000000000000000e+00 0.0000000000000000e+00  0.0000000000000000e+00 0.0000000000000000e+00 0.0000000000000000e+00  0.0000000000000000e+00 0.0000000000000000e+00 0.0000000000000000e+00  0.0000000000000000e+00 0.0000000000000000e+00 0.0000000000000000e+00  0.0000000000000000e+00 0.0000000000000000e+00 0.0000000000000000e+00  0.0000000000000000e+00 0.0000000000000000e+00 0.0000000000000000e+00  0.0000000000000000e+00 0.0000000000000000e+00 0.0000000000000000e+00  0.0000000000000000e+00 0.0000000000000000e+00 0.0000000000000000e+00  0.0000000000000000e+00 0.0000000000000000e+00 0.0000000000000000e+00  0.0000000000000000e+00 0.0000000000000000e+00 0.0000000000000000e+00  0.0000000000000000e+00 0.0000000000000000e+00 0.0000000000000000e+00  0.0000000000000000e+00 0.0000000000000000e+00 0.0000000000000000e+00  0.0000000000000000e+00 0.0000000000000000e+00 0.0000000000000000e+00  0.0000000000000000e+00 0.0000000000000000e+00 0.0000000000000000e+00  0.0000000000000000e+00 0.0000000000000000e+00 0.0000000000000000e+00  0.0000000000000000e+00 0.0000000000000000e+00 0.0000000000000000e+00  0.0000000000000000e+00 0.0000000000000000e+00 0.0000000000000000e+00  0.0000000000000000e+00 0.0000000000000000e+00 0.0000000000000000e+00  0.0000000000000000e+00 0.0000000000000000e+00 0.0000000000000000e+00  0.0000000000000000e+00 0.0000000000000000e+00 0.0000000000000000e+00  0.0000000000000000e+00 0.0000000000000000e+00 0.0000000000000000e+00  0.0000000000000000e+00 0.0000000000000000e+00 0.0000000000000000e+00  0.0000000000000000e+00 0.0000000000000000e+00 0.0000000000000000e+00  0.0000000000000000e+00 0.0000000000000000e+00 0.0000000000000000e+00  0.0000000000000000e+00 0.0000000000000000e+00 0.0000000000000000e+00  0.0000000000000000e+00 0.0000000000000000e+00 0.0000000000000000e+00  0.0000000000000000e+00 0.0000000000000000e+00 0.0000000000000000e+00  0.0000000000000000e+00 0.0000000000000000e+00 0.0000000000000000e+00  0.0000000000000000e+00 0.0000000000000000e+00 0.0000000000000000e+00  0.0000000000000000e+00 0.0000000000000000e+00 0.0000000000000000e+00  0.0000000000000000e+00 0.0000000000000000e+00 0.0000000000000000e+00  0.0000000000000000e+00 0.0000000000000000e+00 0.0000000000000000e+00  0.0000000000000000e+00 0.0000000000000000e+00 0.0000000000000000e+00  0.0000000000000000e+00 0.0000000000000000e+00 0.0000000000000000e+00  0.0000000000000000e+00 0.0000000000000000e+00 0.0000000000000000e+00  0.0000000000000000e+00 0.0000000000000000e+00 0.0000000000000000e+00  0.0000000000000000e+00 0.0000000000000000e+00 0.0000000000000000e+00  0.0000000000000000e+00 0.0000000000000000e+00 0.0000000000000000e+00  0.0000000000000000e+00 0.0000000000000000e+00 0.0000000000000000e+00  0.0000000000000000e+00 0.0000000000000000e+00 0.0000000000000000e+00  0.0000000000000000e+00 0.0000000000000000e+00 0.0000000000000000e+00  0.0000000000000000e+00 0.0000000000000000e+00 0.0000000000000000e+00  0.0000000000000000e+00 0.0000000000000000e+00 0.0000000000000000e+00  0.0000000000000000e+00 0.0000000000000000e+00 0.0000000000000000e+00  0.0000000000000000e+00 0.0000000000000000e+00 0.0000000000000000e+00  0.0000000000000000e+00 0.0000000000000000e+00 0.0000000000000000e+00  0.0000000000000000e+00 0.0000000000000000e+00 0.0000000000000000e+00  0.0000000000000000e+00 0.0000000000000000e+00 0.0000000000000000e+00  0.0000000000000000e+00 0.0000000000000000e+00 0.0000000000000000e+00  0.0000000000000000e+00 0.0000000000000000e+00 0.0000000000000000e+00  0.0000000000000000e+00 0.0000000000000000e+00 0.0000000000000000e+00  0.0000000000000000e+00 0.0000000000000000e+00 0.0000000000000000e+00  0.0000000000000000e+00 0.0000000000000000e+00 0.0000000000000000e+00  0.0000000000000000e+00 0.0000000000000000e+00 0.0000000000000000e+00  0.0000000000000000e+00 0.0000000000000000e+00 0.0000000000000000e+00  0.0000000000000000e+00 0.0000000000000000e+00 0.0000000000000000e+00  0.0000000000000000e+00 0.0000000000000000e+00 0.0000000000000000e+00  0.0000000000000000e+00 0.0000000000000000e+00 0.0000000000000000e+00  0.0000000000000000e+00 0.0000000000000000e+00 0.0000000000000000e+00  0.0000000000000000e+00 0.0000000000000000e+00 0.0000000000000000e+00  0.0000000000000000e+00 0.0000000000000000e+00 0.0000000000000000e+00  0.0000000000000000e+00 0.0000000000000000e+00 0.0000000000000000e+00  0.0000000000000000e+00 0.0000000000000000e+00 0.0000000000000000e+00  0.0000000000000000e+00 0.0000000000000000e+00 0.0000000000000000e+00  0.0000000000000000e+00 0.0000000000000000e+00 0.0000000000000000e+00  1.2451442829298544e-06 -1.9017859634946833e-06 0.0000000000000000e+00  2.6690086677161092e-06 -2.5686653574036469e-06 0.0000000000000000e+00  4.1530502606639303e-06 -3.5602055305549135e-06 0.0000000000000000e+00  5.7527294370257193e-06 -4.9411802601025149e-06 0.0000000000000000e+00  7.2868807465676441e-06 -6.7227373573189976e-06 0.0000000000000000e+00  8.9142196938156837e-06 -8.9534359321391269e-06 0.0000000000000000e+00  1.0425483378104107e-05 -1.1522835922516656e-05 0.0000000000000000e+00  1.1927415087895438e-05 -1.4549810311709485e-05 0.0000000000000000e+00  1.3514662935114501e-05 -1.7935605682942989e-05 0.0000000000000000e+00  1.4948205953159222e-05 -2.1697449794163249e-05 0.0000000000000000e+00  1.6486373676579596e-05 -2.5851696380946842e-05 0.0000000000000000e+00  1.7861238287310199e-05 -3.0356855466544281e-05 0.0000000000000000e+00  1.9306756310646202e-05 -3.5224024185027367e-05 0.0000000000000000e+00  2.0623025998315949e-05 -4.0382899891482085e-05 0.0000000000000000e+00  2.1903161465914969e-05 -4.5906239274695967e-05 0.0000000000000000e+00  2.3224594339281014e-05 -5.1714341337602436e-05 0.0000000000000000e+00  2.4398734533301268e-05 -5.7800338923555456e-05 0.0000000000000000e+00  2.5621240843633795e-05 -6.4190724577064778e-05 0.0000000000000000e+00  2.6699797872273069e-05 -7.0817824277953059e-05 0.0000000000000000e+00  2.7809885648993458e-05 -7.7708661972933333e-05 0.0000000000000000e+00  2.8805915541102085e-05 -8.4814407893928545e-05 0.0000000000000000e+00  2.9797251052072346e-05 -9.2158464564673996e-05 0.0000000000000000e+00  3.0693606736070991e-05 -9.9667526246773554e-05 0.0000000000000000e+00  3.1541316360152805e-05 -1.0738805919813337e-04 0.0000000000000000e+00  3.2386753303653151e-05 -1.1526013216682060e-04 0.0000000000000000e+00  3.3143056488275108e-05 -1.2328650998378484e-04 0.0000000000000000e+00  3.3862399335606590e-05 -1.3147973619725568e-04 0.0000000000000000e+00  3.4518898074503561e-05 -1.3977203939399176e-04 0.0000000000000000e+00  3.5136991020889718e-05 -1.4820914737325564e-04 0.0000000000000000e+00  3.5696786873272329e-05 -1.5672190370458989e-04 0.0000000000000000e+00  3.6217509388075112e-05 -1.6535516224854406e-04 0.0000000000000000e+00  3.6683250553122636e-05 -1.7404186960972572e-04 0.0000000000000000e+00  3.7110307346255063e-05 -1.8282780318627608e-04 0.0000000000000000e+00  3.7485529378714426e-05 -1.9164756240052269e-04 0.0000000000000000e+00  3.7820946973873449e-05 -2.0054920470982917e-04 0.0000000000000000e+00  3.8108782158942576e-05 -2.0946946181726712e-04 0.0000000000000000e+00  3.8358152317589146e-05 -2.1845500084025760e-04 0.0000000000000000e+00  3.8562575877335599e-05 -2.2744718106034126e-04 0.0000000000000000e+00  3.8728042714959139e-05 -2.3649205112890060e-04 0.0000000000000000e+00  3.8849165642666691e-05 -2.4553268234263700e-04 0.0000000000000000e+00  3.8926668015302809e-05 -2.5460856990864342e-04 0.0000000000000000e+00  3.8969757716916967e-05 -2.6368684472620707e-04 0.0000000000000000e+00  3.8969963765024674e-05 -2.7278031375165560e-04 0.0000000000000000e+00  3.8947856639602913e-05 -2.8187937885853012e-04 0.0000000000000000e+00  3.8879120495820663e-05 -2.9096987289326366e-04 0.0000000000000000e+00  3.8803963708439189e-05 -3.0010175566188018e-04 0.0000000000000000e+00  3.2390035961557239e-05 -3.0906948755552517e-04 0.0000000000000000e+00  2.0130984317219216e-05 -3.0841058138787248e-04 0.0000000000000000e+00  1.4274822414235940e-05 -2.9905334761651123e-04 0.0000000000000000e+00  1.4374746826586052e-05 -2.8986731855121288e-04 0.0000000000000000e+00  1.4464201648775525e-05 -2.8066373279929667e-04 0.0000000000000000e+00  1.4516344449121636e-05 -2.7148485191516998e-04 0.0000000000000000e+00  1.4545282190756990e-05 -2.6231385464551313e-04 0.0000000000000000e+00  1.4536510972557822e-05 -2.5315617294891375e-04 0.0000000000000000e+00  1.4507471882058039e-05 -2.4401820914600513e-04 0.0000000000000000e+00  1.4437511676494500e-05 -2.3488347892098221e-04 0.0000000000000000e+00  1.4347085858457207e-05 -2.2579319615656870e-04 0.0000000000000000e+00  1.4219540162391438e-05 -2.1670702001111132e-04 0.0000000000000000e+00  1.4078026550858246e-05 -2.0767623789341957e-04 0.0000000000000000e+00  1.3897591951252555e-05 -1.9866212390483372e-04 0.0000000000000000e+00  1.3709932914592564e-05 -1.8971613006275010e-04 0.0000000000000000e+00  1.3480700012617540e-05 -1.8080278230980779e-04 0.0000000000000000e+00  1.3252461402615860e-05 -1.7197296138218745e-04 0.0000000000000000e+00  1.2978375706869121e-05 -1.6319406569503567e-04 0.0000000000000000e+00  1.2714061631567644e-05 -1.5451725594631868e-04 0.0000000000000000e+00  1.2398768338137333e-05 -1.4591266183545883e-04 0.0000000000000000e+00  1.2103030853297999e-05 -1.3743225541834944e-04 0.0000000000000000e+00  1.1750118514292170e-05 -1.2904877745283959e-04 0.0000000000000000e+00  1.1428223682093165e-05 -1.2081447513112945e-04 0.0000000000000000e+00  1.1042029280268309e-05 -1.1270558045542063e-04 0.0000000000000000e+00  1.0689110482224169e-05 -1.0476848467639166e-04 0.0000000000000000e+00  1.0283751015482218e-05 -9.6981748903344177e-05 0.0000000000000000e+00  9.8589929571118208e-06 -8.9412305110955168e-05 0.0000000000000000e+00  9.4763198560968263e-06 -8.2005119416531160e-05 0.0000000000000000e+00  9.0407679817110432e-06 -7.4828688621445086e-05 0.0000000000000000e+00  8.6227853759394873e-06 -6.7888803353556026e-05 0.0000000000000000e+00  8.1680302794952913e-06 -6.1188145724750000e-05 0.0000000000000000e+00  7.7296145411893159e-06 -5.4761589225112800e-05 0.0000000000000000e+00  7.2557535032693146e-06 -4.8593032354578672e-05 0.0000000000000000e+00  6.8280754238885039e-06 -4.2761356038728908e-05 0.0000000000000000e+00  6.3257725009437491e-06 -3.7183429672841563e-05 0.0000000000000000e+00  5.8114983691633889e-06 -3.1986768301233718e-05 0.0000000000000000e+00  5.3727044308833728e-06 -2.7061331637042369e-05 0.0000000000000000e+00  4.8754352211437590e-06 -2.2524066956742742e-05 0.0000000000000000e+00  4.4095927297945011e-06 -1.8351506742746364e-05 0.0000000000000000e+00  3.9048060475305407e-06 -1.4541555062802255e-05 0.0000000000000000e+00  3.4676758531866401e-06 -1.1164993163397614e-05 0.0000000000000000e+00  2.9421109212737080e-06 -8.1192102826368061e-06 0.0000000000000000e+00  2.4099782264649815e-06 -5.5449402158113957e-06 0.0000000000000000e+00  1.9762139434261123e-06 -3.3049944453576908e-06 0.0000000000000000e+00  1.4684456222320943e-06 -1.5018729745693285e-06 0.0000000000000000e+00  1.0511269250021630e-06 -1.2524725548608493e-07 0.0000000000000000e+00  5.9227465934276661e-07 7.9457390556539786e-07 0.0000000000000000e+00  2.9360600009286005e-07 1.2131479032780649e-06 0.0000000000000000e+00  9.6492966452359246e-07 -3.3624122194840705e-07 0.0000000000000000e+00  2.6616227299708441e-05 -2.9497670183224213e-04 0.0000000000000000e+00  2.6925921702561093e-05 -2.7749642369835316e-04 0.0000000000000000e+00  2.6796895929774982e-05 -2.4899800201277461e-04 0.0000000000000000e+00  3.0848297572627741e-06 -2.2113165420298189e-06 0.0000000000000000e+00  2.6468296570779397e-05 -2.3113349998274453e-04 0.0000000000000000e+00  5.0183398723306475e-06 -5.6013503049324236e-06 0.0000000000000000e+00  2.6141576680958845e-05 -2.1304779100418672e-04 0.0000000000000000e+00  8.1577014388025173e-06 -1.4360163242758264e-05 0.0000000000000000e+00  1.0151134078346643e-05 -2.1823931292757949e-05 0.0000000000000000e+00  2.5679307816006356e-05 -1.9510386882595299e-04 0.0000000000000000e+00  1.4698060449840477e-05 -4.7231711170591684e-05 0.0000000000000000e+00  2.4353060010072604e-05 -1.5987809510713863e-04 0.0000000000000000e+00  1.1904446776121287e-05 -3.0464321058436071e-05 0.0000000000000000e+00  1.6438740732437902e-05 -5.9276900152620756e-05 0.0000000000000000e+00  2.3491091071139622e-05 -1.4274492760768206e-04 0.0000000000000000e+00  2.5082801164086812e-05 -1.7735783092737026e-04 0.0000000000000000e+00  1.8002521932340580e-05 -7.2623881450382423e-05 0.0000000000000000e+00  2.2496568282690846e-05 -1.2605175422978777e-04 0.0000000000000000e+00  1.9265289426647870e-05 -8.6314055165119638e-05 0.0000000000000000e+00  2.1535822882605246e-05 -1.1024437471941451e-04 0.0000000000000000e+00  2.0378375011103737e-05 -9.7608235463635506e-05 0.0000000000000000e+00  1.3364675037177791e-05 -3.8164431384726662e-05 0.0000000000000000e+00  2.6672832239188763e-05 -2.6379171106071745e-04 0.0000000000000000e+00  6.5743511512951660e-06 -9.4021317244523491e-06 0.0000000000000000e+00  2.2498127049579215e-05 -2.8597637611372351e-04 0.0000000000000000e+00  1.5580317168168464e-06 -4.5340205860054384e-07 0.0000000000000000e+00  2.2808162707868062e-05 -2.2183174397976603e-04 0.0000000000000000e+00  2.3047098494195210e-05 -2.3998941449068095e-04 0.0000000000000000e+00  4.9438974219953629e-06 -4.4302204841365618e-06 0.0000000000000000e+00  1.0642274633884184e-05 -1.8363999595507479e-05 0.0000000000000000e+00  2.1343649363508015e-05 -1.6827972194676584e-04 0.0000000000000000e+00  2.2442689593652177e-05 -2.0379150648192608e-04 0.0000000000000000e+00  1.7992023795303635e-05 -5.3470615339875592e-05 0.0000000000000000e+00  2.0616951810028296e-05 -1.5094454076913428e-04 0.0000000000000000e+00  1.2860047847429463e-05 -2.6686491654950081e-05 0.0000000000000000e+00  1.9815897994248283e-05 -6.6278334554775191e-05 0.0000000000000000e+00  1.9775670948649432e-05 -1.3400139489701469e-04 0.0000000000000000e+00  2.1953285850525838e-05 -1.8591997519227903e-04 0.0000000000000000e+00  2.2105271668749934e-05 -8.0114457531716424e-05 0.0000000000000000e+00  1.8821120671262436e-05 -1.1754945618397332e-04 0.0000000000000000e+00  3.6091388320045334e-07 -4.3304905927074757e-07 0.0000000000000000e+00  1.8391615423292630e-07 3.0832944826434386e-07 0.0000000000000000e+00  2.9310780523281450e-05 -3.0230590920627093e-04 0.0000000000000000e+00  2.5583707512118258e-06 -1.8066001107380882e-06 0.0000000000000000e+00  1.7177580