<?xml version="1.0"?>
<VTKFile type="UnstructuredGrid"  version="0.1"  >
<UnstructuredGrid>
<Piece  NumberOfPoints="1419" NumberOfCells="2698">
<Points>
<DataArray  type="Float64"  NumberOfComponents="3"  format="ascii">0 0 0  0 0.41 0  2.5 0 0  2.5 0.41 0  0.6 0.19 0  0.6 0.21 0  0.25 0.2 0  0.15 0.2 0  0.2489897948556636 0.21 0  0.2489897948556636 0.19 0  0.6 0.2 0  0 0.3807142857143437 0  0 0.3514285714286952 0  0 0.3221428571430699 0  0 0.29285714285744 0  0 0.2635714285718054 0  0 0.2342857142861561 0  0 0.2050000000005308 0  0 0.175714285714732 0  0 0.1464285714289574 0  0 0.1171428571431897 0  0 0.08785714285737878 0  0 0.05857142857161107 0  0 0.02928571428580012 0  0.03015443760436003 0 0  0.06140001986583606 0 0  0.09377624077125973 0 0  0.1273239957535082 0 0  0.1620856860351972 0 0  0.1981052433264291 0 0  0.235428184091502 0 0  0.2741016576309132 0 0  0.3141745521465447 0 0  0.3556974926295285 0 0  0.3987229542472677 0 0  0.4433053055141081 0 0  0.4895008759286886 0 0  0.5373680609405097 0 0  0.5869673343216626 0 0  0.6383613676634521 0 0  0.6916151138468254 0 0  0.7467958595648856 0 0  0.8039733463919316 0 0  0.8632198139502143 0 0  0.9246101326867038 0 0  0.9882218810934433 0 0  1.054135445558498 0 0  1.122434100542598 0 0  1.193204177141305 0 0  1.266535089879536 0 0  1.342519516046404 0 0  1.421253448503939 0 0  1.502836389106271 0 0  1.587371439758838 0 0  1.674965418777374 0 0  1.765729001825544 0 0  1.859776908880082 0 0  1.957227977487062 0 0  2.058205329869943 0 0  2.162836591189951 0 0  2.271253957290865 0 0  2.383594446803425 0 0  2.5 0.1024999999997612 0  2.5 0.2049999999994743 0  2.5 0.3074999999997183 0  2.383594446803656 0.41 0  2.271253957291315 0.41 0  2.162836591190598 0.41 0  2.058205329870775 0.41 0  1.957227977488067 0.41 0  1.859776908881246 0.41 0  1.765729001826854 0.41 0  1.674965418778818 0.41 0  1.58737143976041 0.41 0  1.502836389107956 0.41 0  1.421253448505726 0.41 0  1.342519516048286 0.41 0  1.266535089881505 0.41 0  1.193204177143353 0.41 0  1.122434100544716 0.41 0  1.05413544556068 0.41 0  0.9882218810956305 0.41 0  0.9246101326886647 0.41 0  0.8632198139519631 0.41 0  0.8039733463934788 0.41 0  0.7467958595662458 0.41 0  0.6916151138480078 0.41 0  0.6383613676644679 0.41 0  0.5869673343225223 0.41 0  0.5373680609412221 0.41 0  0.4895008759292634 0.41 0  0.4433053055145528 0.41 0  0.3987229542475914 0.41 0  0.3556974926297398 0.41 0  0.3141745521466497 0.41 0  0.2741016576310038 0.41 0  0.2354281840915826 0.41 0  0.1981052433265003 0.41 0  0.1620856860352591 0.41 0  0.1273239957535623 0.41 0  0.09377624077128965 0.41 0  0.06140001986584975 0.41 0  0.03015443760436654 0.41 0  0.2497468076502589 0.2050254481002335 0  0.2497468076502614 0.1949745518997913 0  0.2469965252529372 0.1829317073451959 0  0.2439893735792749 0.1762316384219906 0  0.2400332147834255 0.1700443375285386 0  0.2352133972704371 0.1645032867342007 0  0.2296339016332438 0.1597280261969788 0  0.2234150974217223 0.1558215752574715 0  0.2166911463437691 0.1528682099456123 0  0.2096071079204251 0.1509316448471593 0  0.2023158100364996 0.1500536585536553 0  0.194974551899914 0.1502531923497262 0  0.1877417105387872 0.1515259415822739 0  0.1807733240461124 0.153844448527136 0  0.1742197252835808 0.15715869474974 0  0.1682222986673531 0.1613971801805478 0  0.162910430003803 0.1664684656256651 0  0.1583987151779087 0.1722631454351573 0  0.1547844879126891 0.178656207771761 0  0.1521457199348551 0.1855097315605723 0  0.1505393388476355 0.1926758619366523 0  0.1505393388476328 0.2073241380633295 0  0.1521457199348437 0.2144902684393899 0  0.1547844879126531 0.221343792228163 0  0.1583987151778488 0.2277368545647528 0  0.1629104300036858 0.2335315343742052 0  0.1682222986671726 0.2386028198193036 0  0.1742197252833576 0.2428413052501257 0  0.1807733240458683 0.2461555514727623 0  0.1877417105384929 0.2484740584176516 0  0.1949745518995776 0.2497468076502398 0  0.202315810036185 0.2499463414463592 0  0.2096071079201568 0.2490683551528932 0  0.2166911463435495 0.2471317900544655 0  0.2234150974215506 0.2441784247426195 0  0.2296339016331197 0.2402719738031125 0  0.2352133972703547 0.2354967132658811 0  0.2400332147833751 0.2299556624715287 0  0.2439893735792577 0.2237683615780412 0  0.246996525252926 0.2170682926548348 0  0.25645809709277 0.21 0  0.2639263993298655 0.21 0  0.271394701566961 0.21 0  0.2788630038040554 0.21 0  0.2863313060411479 0.21 0  0.2937996082782405 0.21 0  0.301267910515333 0.21 0  0.3087362127524279 0.21 0  0.3162045149895234 0.21 0  0.3236728172265972 0.21 0  0.3311411194636928 0.21 0  0.3386094217007701 0.21 0  0.3460777239378666 0.21 0  0.3535460261749672 0.21 0  0.3610143284120516 0.21 0  0.3684826306491596 0.21 0  0.3759509328862226 0.21 0  0.383419235123329 0.21 0  0.3908875373604028 0.21 0  0.3983558395975142 0.21 0  0.4058241418345938 0.21 0  0.4132924440716992 0.21 0  0.4207607463087888 0.21 0  0.4282290485459029 0.21 0  0.4356973507830418 0.21 0  0.4431656530201649 0.21 0  0.4506339552573136 0.21 0  0.4581022574944306 0.21 0  0.4655705597315852 0.21 0  0.4730388619686996 0.21 0  0.480507164205851 0.21 0  0.4879754664429498 0.21 0  0.4954437686800938 0.21 0  0.502912070917267 0.21 0  0.5103803731544119 0.21 0  0.5178486753915261 0.21 0  0.5253169776286404 0.21 0  0.5327852798657868 0.21 0  0.5402535821029386 0.21 0  0.54772188434007 0.21 0  0.5551901865771842 0.21 0  0.5626584888143201 0.21 0  0.5701267910514778 0.21 0  0.5775950932886138 0.21 0  0.5850633955257281 0.21 0  0.5925316977628483 0.21 0  0.6 0.2050000000000054 0  0.6 0.1950000000000217 0  0.5925316977628897 0.19 0  0.5850633955257988 0.19 0  0.5775950932887378 0.19 0  0.5701267910515998 0.19 0  0.5626584888145268 0.19 0  0.5551901865773963 0.19 0  0.547721884340339 0.19 0  0.5402535821032429 0.19 0  0.5327852798661811 0.19 0  0.5253169776290537 0.19 0  0.5178486753919799 0.19 0  0.5103803731549078 0.19 0  0.502912070917822 0.19 0  0.4954437686807294 0.19 0  0.4879754664436223 0.19 0  0.4805071642065402 0.19 0  0.4730388619694271 0.19 0  0.4655705597323621 0.19 0  0.4581022574952563 0.19 0  0.4506339552581777 0.19 0  0.4431656530210671 0.19 0  0.4356973507839815 0.19 0  0.4282290485468779 0.19 0  0.4207607463097617 0.19 0  0.4132924440726327 0.19 0  0.4058241418354857 0.19 0  0.3983558395983636 0.19 0  0.3908875373612097 0.19 0  0.3834192351240934 0.19 0  0.3759509328869369 0.19 0  0.3684826306498175 0.19 0  0.361014328412667 0.19 0  0.3535460261755617 0.19 0  0.3460777239384295 0.19 0  0.3386094217012945 0.19 0  0.3311411194641595 0.19 0  0.3236728172270245 0.19 0  0.3162045149898895 0.19 0  0.3087362127527544 0.19 0  0.3012679105156187 0.19 0  0.2937996082784807 0.19 0  0.2863313060413428 0.19 0  0.2788630038042048 0.19 0  0.2713947015670686 0.19 0  0.2639263993299336 0.19 0  0.2564580970927985 0.19 0  0.2607803159922026 0.2000727136295815 0  0.5887803774232762 0.2001272386983733 0  0.5745072403740523 0.2002044435018727 0  0.5511891430099709 0.2001122610077113 0  0.2751288526855082 0.20000000000002 0  0.5365194309847112 0.1999999999999436 0  0.2894621222999649 0.1998691686390484 0  0.5215828265105155 0.1999999999999228 0  0.3127789816668748 0.1998657885438805 0  0.3274069683451451 0.2000000000000796 0  0.5066462220363641 0.199999999999908 0  0.3650630746574081 0.199866017807523 0  0.476773013087985 0.1999999999998713 0  0.3417402379596385 0.1998691686391011 0  0.3796850840047755 0.200000000000134 0  0.4618364086138087 0.1999999999998546 0  0.4917096175621762 0.1999999999998808 0  0.3946216884789568 0.2000000000001512 0  0.446899804139621 0.1999999999998389 0  0.4089549580935208 0.1998691686391595 0  0.4322718174608562 0.200127451265745 0  0.4201487168029707 0.1999966199048527 0  0.3528922713220932 0.2000185703532356 0  0.5633122436674589 0.1999814296467508 0  0.3006558810093873 0.1999966199048318 0  0.5815926498168407 0.1966545283159175 0  0.2677053789419034 0.1964246479135325 0  0.5290511287476175 0.1970915826863981 0  0.5439877332217911 0.197091582686394 0  0.2825131256993216 0.2035478995978015 0  0.3199386661080599 0.202908417313604 0  0.4842413153250809 0.1970915826863873 0  0.5141145242734466 0.1970915826863843 0  0.3722167817676917 0.2029084173136195 0  0.4693047108508938 0.1970915826863783 0  0.3348752705822316 0.202908417313609 0  0.3871533862418661 0.2029084173136212 0  0.4543681063767183 0.1970915826863795 0  0.4991779197992749 0.1970915826863902 0  0.4020059614928624 0.203547899597858 0  0.4394315019025246 0.1970915826863714 0  0.2550657455369551 0.2034088125358657 0  0.2548908499171161 0.1966940311614271 0  0.5946539510196798 0.2024302972968126 0  0.267698176732111 0.2039977513680092 0  0.4261685417851465 0.196409292431739 0  0.3590076176283495 0.196411355804271 0  0.5571672426447437 0.2036011176410121 0  0.3066757059912147 0.1964092924317024 0  0.594380730180568 0.1966558399668133 0  0.4842413153245942 0.2040749161535287 0  0.4693047108503577 0.2040749161535231 0  0.3871533862424271 0.1959250838464788 0  0.372246743208829 0.1959123236376545 0  0.5141145242731028 0.2040749161535395 0  0.4543681063761134 0.2040749161535186 0  0.4019979587101454 0.1959834479682427 0  0.4394608940728603 0.2040870543693135 0  0.5439623148931173 0.2040856076781014 0  0.5290511287473298 0.2040749161535501 0  0.4991779197988497 0.2040749161535382 0  0.3347912413592433 0.1959225448935183 0  0.3199680582793816 0.1959123018030061 0  0.2825051229162361 0.1959834479681729 0  0.3590471196690275 0.2036304442587945 0  0.5571594006495384 0.1963685282145804 0  0.3067669986803285 0.203627750582736 0  0.4262598344738712 0.2036568242185335 0  0.5814408164431408 0.2041285596160068 0  0.5688286748170428 0.1961819304477386 0  0.4145905603063645 0.2038180695522843 0  0.3473758401724931 0.2038180695522752 0  0.2950977245128307 0.2038180695522663 0  0.5688286748170693 0.203818069552238 0  0.2950977245127906 0.1961819304477774 0  0.3473758401723931 0.1961819304478349 0  0.4145905603061963 0.1961819304479011 0  0.2601812407614425 0.2056861609747042
[...]
<PointData  Vectors="f_40-1"> 
<DataArray  type="Float64"  Name="f_40-1"  NumberOfComponents="3" format="ascii">0.0000000000000000e+00 0.0000000000000000e+00 0.0000000000000000e+00  0.0000000000000000e+00 0.0000000000000000e+00 0.0000000000000000e+00  0.0000000000000000e+00 0.0000000000000000e+00 0.0000000000000000e+00  0.0000000000000000e+00 0.0000000000000000e+00 0.0000000000000000e+00  1.5078069040241931e-05 -3.1348546495542221e-04 0.0000000000000000e+00  4.0240453136823746e-05 -3.1470315745047350e-04 0.0000000000000000e+00  0.0000000000000000e+00 0.0000000000000000e+00 0.0000000000000000e+00  0.0000000000000000e+00 0.0000000000000000e+00 0.0000000000000000e+00  0.0000000000000000e+00 0.0000000000000000e+00 0.0000000000000000e+00  0.0000000000000000e+00 0.0000000000000000e+00 0.0000000000000000e+00  2.7354740711861807e-05 -3.1409332993861456e-04 0.0000000000000000e+00  0.0000000000000000e+00 0.0000000000000000e+00 0.0000000000000000e+00  0.0000000000000000e+00 0.0000000000000000e+00 0.0000000000000000e+00  0.0000000000000000e+00 0.0000000000000000e+00 0.0000000000000000e+00  0.0000000000000000e+00 0.0000000000000000e+00 0.0000000000000000e+00  0.0000000000000000e+00 0.0000000000000000e+00 0.0000000000000000e+00  0.0000000000000000e+00 0.0000000000000000e+00 0.0000000000000000e+00  0.0000000000000000e+00 0.0000000000000000e+00 0.0000000000000000e+00  0.0000000000000000e+00 0.0000000000000000e+00 0.0000000000000000e+00  0.0000000000000000e+00 0.0000000000000000e+00 0.0000000000000000e+00  0.0000000000000000e+00 0.0000000000000000e+00 0.0000000000000000e+00  0.0000000000000000e+00 0.0000000000000000e+00 0.0000000000000000e+00  0.0000000000000000e+00 0.0000000000000000e+00 0.0000000000000000e+00  0.0000000000000000e+00 0.0000000000000000e+00 0.0000000000000000e+00  0.0000000000000000e+00 0.0000000000000000e+00 0.0000000000000000e+00  0.0000000000000000e+00 0.0000000000000000e+00 0.0000000000000000e+00  0.0000000000000000e+00 0.0000000000000000e+00 0.0000000000000000e+00  0.0000000000000000e+00 0.0000000000000000e+00 0.0000000000000000e+00  0.0000000000000000e+00 0.0000000000000000e+00 0.0000000000000000e+00  0.0000000000000000e+00 0.0000000000000000e+00 0.0000000000000000e+00  0.0000000000000000e+00 0.0000000000000000e+00 0.0000000000000000e+00  0.0000000000000000e+00 0.0000000000000000e+00 0.0000000000000000e+00  0.0000000000000000e+00 0.0000000000000000e+00 0.0000000000000000e+00  0.0000000000000000e+00 0.0000000000000000e+00 0.0000000000000000e+00  0.0000000000000000e+00 0.0000000000000000e+00 0.0000000000000000e+00  0.0000000000000000e+00 0.0000000000000000e+00 0.0000000000000000e+00  0.0000000000000000e+00 0.0000000000000000e+00 0.0000000000000000e+00  0.0000000000000000e+00 0.0000000000000000e+00 0.0000000000000000e+00  0.0000000000000000e+00 0.0000000000000000e+00 0.0000000000000000e+00  0.0000000000000000e+00 0.0000000000000000e+00 0.0000000000000000e+00  0.0000000000000000e+00 0.0000000000000000e+00 0.0000000000000000e+00  0.0000000000000000e+00 0.0000000000000000e+00 0.0000000000000000e+00  0.0000000000000000e+00 0.0000000000000000e+00 0.0000000000000000e+00  0.0000000000000000e+00 0.0000000000000000e+00 0.0000000000000000e+00  0.0000000000000000e+00 0.0000000000000000e+00 0.0000000000000000e+00  0.0000000000000000e+00 0.0000000000000000e+00 0.0000000000000000e+00  0.0000000000000000e+00 0.0000000000000000e+00 0.0000000000000000e+00  0.0000000000000000e+00 0.0000000000000000e+00 0.0000000000000000e+00  0.0000000000000000e+00 0.0000000000000000e+00 0.0000000000000000e+00  0.0000000000000000e+00 0.0000000000000000e+00 0.0000000000000000e+00  0.0000000000000000e+00 0.0000000000000000e+00 0.0000000000000000e+00  0.0000000000000000e+00 0.0000000000000000e+00 0.0000000000000000e+00  0.0000000000000000e+00 0.0000000000000000e+00 0.0000000000000000e+00  0.0000000000000000e+00 0.0000000000000000e+00 0.0000000000000000e+00  0.0000000000000000e+00 0.0000000000000000e+00 0.0000000000000000e+00  0.0000000000000000e+00 0.0000000000000000e+00 0.0000000000000000e+00  0.0000000000000000e+00 0.0000000000000000e+00 0.0000000000000000e+00  0.0000000000000000e+00 0.0000000000000000e+00 0.0000000000000000e+00  0.0000000000000000e+00 0.0000000000000000e+00 0.0000000000000000e+00  0.0000000000000000e+00 0.0000000000000000e+00 0.0000000000000000e+00  0.0000000000000000e+00 0.0000000000000000e+00 0.0000000000000000e+00  0.0000000000000000e+00 0.0000000000000000e+00 0.0000000000000000e+00  0.0000000000000000e+00 0.0000000000000000e+00 0.0000000000000000e+00  0.0000000000000000e+00 0.0000000000000000e+00 0.0000000000000000e+00  0.0000000000000000e+00 0.0000000000000000e+00 0.0000000000000000e+00  0.0000000000000000e+00 0.0000000000000000e+00 0.0000000000000000e+00  0.0000000000000000e+00 0.0000000000000000e+00 0.0000000000000000e+00  0.0000000000000000e+00 0.0000000000000000e+00 0.0000000000000000e+00  0.0000000000000000e+00 0.0000000000000000e+00 0.0000000000000000e+00  0.0000000000000000e+00 0.0000000000000000e+00 0.0000000000000000e+00  0.0000000000000000e+00 0.0000000000000000e+00 0.0000000000000000e+00  0.0000000000000000e+00 0.0000000000000000e+00 0.0000000000000000e+00  0.0000000000000000e+00 0.0000000000000000e+00 0.0000000000000000e+00  0.0000000000000000e+00 0.0000000000000000e+00 0.0000000000000000e+00  0.0000000000000000e+00 0.0000000000000000e+00 0.0000000000000000e+00  0.0000000000000000e+00 0.0000000000000000e+00 0.0000000000000000e+00  0.0000000000000000e+00 0.0000000000000000e+00 0.0000000000000000e+00  0.0000000000000000e+00 0.0000000000000000e+00 0.0000000000000000e+00  0.0000000000000000e+00 0.0000000000000000e+00 0.0000000000000000e+00  0.0000000000000000e+00 0.0000000000000000e+00 0.0000000000000000e+00  0.0000000000000000e+00 0.0000000000000000e+00 0.0000000000000000e+00  0.0000000000000000e+00 0.0000000000000000e+00 0.0000000000000000e+00  0.0000000000000000e+00 0.0000000000000000e+00 0.0000000000000000e+00  0.0000000000000000e+00 0.0000000000000000e+00 0.0000000000000000e+00  0.0000000000000000e+00 0.0000000000000000e+00 0.0000000000000000e+00  0.0000000000000000e+00 0.0000000000000000e+00 0.0000000000000000e+00  0.0000000000000000e+00 0.0000000000000000e+00 0.0000000000000000e+00  0.0000000000000000e+00 0.0000000000000000e+00 0.0000000000000000e+00  0.0000000000000000e+00 0.0000000000000000e+00 0.0000000000000000e+00  0.0000000000000000e+00 0.0000000000000000e+00 0.0000000000000000e+00  0.0000000000000000e+00 0.0000000000000000e+00 0.0000000000000000e+00  0.0000000000000000e+00 0.0000000000000000e+00 0.0000000000000000e+00  0.0000000000000000e+00 0.0000000000000000e+00 0.0000000000000000e+00  0.0000000000000000e+00 0.0000000000000000e+00 0.0000000000000000e+00  0.0000000000000000e+00 0.0000000000000000e+00 0.0000000000000000e+00  0.0000000000000000e+00 0.0000000000000000e+00 0.0000000000000000e+00  0.0000000000000000e+00 0.0000000000000000e+00 0.0000000000000000e+00  0.0000000000000000e+00 0.0000000000000000e+00 0.0000000000000000e+00  0.0000000000000000e+00 0.0000000000000000e+00 0.0000000000000000e+00  0.0000000000000000e+00 0.0000000000000000e+00 0.0000000000000000e+00  0.0000000000000000e+00 0.0000000000000000e+00 0.0000000000000000e+00  0.0000000000000000e+00 0.0000000000000000e+00 0.0000000000000000e+00  0.0000000000000000e+00 0.0000000000000000e+00 0.0000000000000000e+00  0.0000000000000000e+00 0.0000000000000000e+00 0.0000000000000000e+00  0.0000000000000000e+00 0.0000000000000000e+00 0.0000000000000000e+00  0.0000000000000000e+00 0.0000000000000000e+00 0.0000000000000000e+00  0.0000000000000000e+00 0.0000000000000000e+00 0.0000000000000000e+00  0.0000000000000000e+00 0.0000000000000000e+00 0.0000000000000000e+00  0.0000000000000000e+00 0.0000000000000000e+00 0.0000000000000000e+00  0.0000000000000000e+00 0.0000000000000000e+00 0.0000000000000000e+00  0.0000000000000000e+00 0.0000000000000000e+00 0.0000000000000000e+00  0.0000000000000000e+00 0.0000000000000000e+00 0.0000000000000000e+00  0.0000000000000000e+00 0.0000000000000000e+00 0.0000000000000000e+00  0.0000000000000000e+00 0.0000000000000000e+00 0.0000000000000000e+00  0.0000000000000000e+00 0.0000000000000000e+00 0.0000000000000000e+00  0.0000000000000000e+00 0.0000000000000000e+00 0.0000000000000000e+00  0.0000000000000000e+00 0.0000000000000000e+00 0.0000000000000000e+00  0.0000000000000000e+00 0.0000000000000000e+00 0.0000000000000000e+00  0.0000000000000000e+00 0.0000000000000000e+00 0.0000000000000000e+00  0.0000000000000000e+00 0.0000000000000000e+00 0.0000000000000000e+00  0.0000000000000000e+00 0.0000000000000000e+00 0.0000000000000000e+00  0.0000000000000000e+00 0.0000000000000000e+00 0.0000000000000000e+00  0.0000000000000000e+00 0.0000000000000000e+00 0.0000000000000000e+00  0.0000000000000000e+00 0.0000000000000000e+00 0.0000000000000000e+00  0.0000000000000000e+00 0.0000000000000000e+00 0.0000000000000000e+00  0.0000000000000000e+00 0.0000000000000000e+00 0.0000000000000000e+00  0.0000000000000000e+00 0.0000000000000000e+00 0.0000000000000000e+00  0.0000000000000000e+00 0.0000000000000000e+00 0.0000000000000000e+00  0.0000000000000000e+00 0.0000000000000000e+00 0.0000000000000000e+00  0.0000000000000000e+00 0.0000000000000000e+00 0.0000000000000000e+00  0.0000000000000000e+00 0.0000000000000000e+00 0.0000000000000000e+00  0.0000000000000000e+00 0.0000000000000000e+00 0.0000000000000000e+00  0.0000000000000000e+00 0.0000000000000000e+00 0.0000000000000000e+00  0.0000000000000000e+00 0.0000000000000000e+00 0.0000000000000000e+00  0.0000000000000000e+00 0.0000000000000000e+00 0.0000000000000000e+00  0.0000000000000000e+00 0.0000000000000000e+00 0.0000000000000000e+00  0.0000000000000000e+00 0.0000000000000000e+00 0.0000000000000000e+00  0.0000000000000000e+00 0.0000000000000000e+00 0.0000000000000000e+00  0.0000000000000000e+00 0.0000000000000000e+00 0.0000000000000000e+00  0.0000000000000000e+00 0.0000000000000000e+00 0.0000000000000000e+00  0.0000000000000000e+00 0.0000000000000000e+00 0.0000000000000000e+00  0.0000000000000000e+00 0.0000000000000000e+00 0.0000000000000000e+00  0.0000000000000000e+00 0.0000000000000000e+00 0.0000000000000000e+00  1.2333645247758180e-06 -1.7705196996776490e-06 0.0000000000000000e+00  2.6447685261240565e-06 -2.4009941074712361e-06 0.0000000000000000e+00  4.1176002066644688e-06 -3.3542565270007007e-06 0.0000000000000000e+00  5.7074899744737839e-06 -4.6922323485590483e-06 0.0000000000000000e+00  7.2367656563173170e-06 -6.4299984762776492e-06 0.0000000000000000e+00  8.8651437863829744e-06 -8.6148523015050247e-06 0.0000000000000000e+00  1.0381269003988072e-05 -1.1141032525881969e-05 0.0000000000000000e+00  1.1893262274105099e-05 -1.4129921113342443e-05 0.0000000000000000e+00  1.3496107272336168e-05 -1.7483185556842405e-05 0.0000000000000000e+00  1.4947628544589167e-05 -2.1221719959117699e-05 0.0000000000000000e+00  1.6510958343075063e-05 -2.5360672919098096e-05 0.0000000000000000e+00  1.7911024543256989e-05 -2.9863033649881413e-05 0.0000000000000000e+00  1.9388962375569655e-05 -3.4738284666379212e-05 0.0000000000000000e+00  2.0736627133276217e-05 -3.9916047776832629e-05 0.0000000000000000e+00  2.2051322735522636e-05 -4.5473070133821056e-05 0.0000000000000000e+00  2.3412397094661693e-05 -5.1326324117515300e-05 0.0000000000000000e+00  2.4624026396189291e-05 -5.7471639936137412e-05 0.0000000000000000e+00  2.5890146479375390e-05 -6.3933795152639505e-05 0.0000000000000000e+00  2.7008762018997076e-05 -7.0646890048276794e-05 0.0000000000000000e+00  2.8164013749493304e-05 -7.7635354268542112e-05 0.0000000000000000e+00  2.9202477662358068e-05 -8.4852493389704425e-05 0.0000000000000000e+00  3.0239774778754130e-05 -9.2320139214601080e-05 0.0000000000000000e+00  3.1178910635977708e-05 -9.9962448292195509e-05 0.0000000000000000e+00  3.2069912465469665e-05 -1.0782901511545036e-04 0.0000000000000000e+00  3.2960726880321249e-05 -1.1585552858361622e-04 0.0000000000000000e+00  3.3760340913543586e-05 -1.2404706959657616e-04 0.0000000000000000e+00  3.4523502572522350e-05 -1.3241394790665701e-04 0.0000000000000000e+00  3.5222542869012251e-05 -1.4088795938714543e-04 0.0000000000000000e+00  3.5883404681490150e-05 -1.4951423824923263e-04 0.0000000000000000e+00  3.6484743416496309e-05 -1.5822258786276554e-04 0.0000000000000000e+00  3.7047062966251685e-05 -1.6705756019947337e-04 0.0000000000000000e+00  3.7553352806581338e-05 -1.7595101798962952e-04 0.0000000000000000e+00  3.8020878600838085e-05 -1.8494845141068955e-04 0.0000000000000000e+00  3.8435762057882977e-05 -1.9398356542136381e-04 0.0000000000000000e+00  3.8810791731299515e-05 -2.0310403064573116e-04 0.0000000000000000e+00  3.9137586983412866e-05 -2.1224585731410855e-04 0.0000000000000000e+00  3.9425850771142788e-05 -2.2145542901834140e-04 0.0000000000000000e+00  3.9668756379268606e-05 -2.3067350331513027e-04 0.0000000000000000e+00  3.9872732347509215e-05 -2.3994585899166860e-04 0.0000000000000000e+00  4.0032189406074123e-05 -2.4921514020795105e-04 0.0000000000000000e+00  4.0148192726637522e-05 -2.5852071618290534e-04 0.0000000000000000e+00  4.0229614769902591e-05 -2.6782922644127342e-04 0.0000000000000000e+00  4.0268472680800732e-05 -2.7715348511404278e-04 0.0000000000000000e+00  4.0285139366892008e-05 -2.8648362171162660e-04 0.0000000000000000e+00  4.0255378953638306e-05 -2.9580550123296844e-04 0.0000000000000000e+00  4.0219287616476529e-05 -3.0516863357711669e-04 0.0000000000000000e+00  3.3690986945273619e-05 -3.1439551591040796e-04 0.0000000000000000e+00  2.1123020877829699e-05 -3.1379558379668104e-04 0.0000000000000000e+00  1.5072568499984388e-05 -3.0423616180157295e-04 0.0000000000000000e+00  1.5133714791148988e-05 -2.9482017494871681e-04 0.0000000000000000e+00  1.5184669999753785e-05 -2.8538687364408589e-04 0.0000000000000000e+00  1.5198997852977262e-05 -2.7597838911718104e-04 0.0000000000000000e+00  1.5190407568329928e-05 -2.6657801764170462e-04 0.0000000000000000e+00  1.5144926803684162e-05 -2.5719148937621938e-04 0.0000000000000000e+00  1.5079932530218000e-05 -2.4782521599264762e-04 0.0000000000000000e+00  1.4974461404726806e-05 -2.3846317765795173e-04 0.0000000000000000e+00  1.4849758854777007e-05 -2.2914660026472579e-04 0.0000000000000000e+00  1.4688178905848753e-05 -2.1983591191491854e-04 0.0000000000000000e+00  1.4514249295568755e-05 -2.1058227098643271e-04 0.0000000000000000e+00  1.4301495481320761e-05 -2.0134793684429891e-04 0.0000000000000000e+00  1.4083571431606439e-05 -1.9218427901277979e-04 0.0000000000000000e+00  1.3823926082100253e-05 -1.8305697380463558e-04 0.0000000000000000e+00  1.3567818943474804e-05 -1.7401684448355436e-04 0.0000000000000000e+00  1.3265436243928396e-05 -1.6503260764535592e-04 0.0000000000000000e+00  1.2975920961699509e-05 -1.5615535945167567e-04 0.0000000000000000e+00  1.2634672016385184e-05 -1.4735671855817698e-04 0.0000000000000000e+00  1.2316659459157587e-05 -1.3868851333644349e-04 0.0000000000000000e+00  1.1940345350725604e-05 -1.3012512452776658e-04 0.0000000000000000e+00  1.1599388513178823e-05 -1.2171866326822339e-04 0.0000000000000000e+00  1.1192641977374141e-05 -1.1344712849719884e-04 0.0000000000000000e+00  1.0823890863369866e-05 -1.0535694132906619e-04 0.0000000000000000e+00  1.0401467748082170e-05 -9.7426774284203334e-05 0.0000000000000000e+00  9.9612891540879128e-06 -8.9726674424272791e-05 0.0000000000000000e+00  9.5671526011064847e-06 -8.2198189481145673e-05 0.0000000000000000e+00  9.1199531354898543e-06 -7.4914500881001925e-05 0.0000000000000000e+00  8.6934227440518138e-06 -6.7878868420111392e-05 0.0000000000000000e+00  8.2303989257265546e-06 -6.1096914346274949e-05 0.0000000000000000e+00  7.7866031979863645e-06 -5.4601428800682097e-05 0.0000000000000000e+00  7.3077278134550137e-06 -4.8378202863038376e-05 0.0000000000000000e+00  6.8791323090329793e-06 -4.2506112762673008e-05 0.0000000000000000e+00  6.3738420046315954e-06 -3.6899363198713943e-05 0.0000000000000000e+00  5.8580757152891076e-06 -3.1688712963929816e-05 0.0000000000000000e+00  5.4212322494552983e-06 -2.6759482650149447e-05 0.0000000000000000e+00  4.9253822959026815e-06 -2.2231725325150176e-05 0.0000000000000000e+00  4.4627175807645187e-06 -1.8078473141315195e-05 0.0000000000000000e+00  3.9606851260568195e-06 -1.4297932949264947e-05 0.0000000000000000e+00  3.5276553965737201e-06 -1.0959157545200259e-05 0.0000000000000000e+00  3.0042673312112296e-06 -7.9565390615651015e-06 0.0000000000000000e+00  2.4740288329849629e-06 -5.4302510488248405e-06 0.0000000000000000e+00  2.0412311951264597e-06 -3.2401824749033480e-06 0.0000000000000000e+00  1.5326242974224309e-06 -1.4870956143652183e-06 0.0000000000000000e+00  1.1098534087852198e-06 -1.5735039326997456e-07 0.0000000000000000e+00  6.4083171155420128e-07 7.2709239823158616e-07 0.0000000000000000e+00  3.2088471776588392e-07 1.1257337181513527e-06 0.0000000000000000e+00  9.9657131736305309e-07 -3.0733935899446824e-07 0.0000000000000000e+00  2.7707405754062576e-05 -2.9998491050627773e-04 0.0000000000000000e+00  2.7944889228360351e-05 -2.8206340911928379e-04 0.0000000000000000e+00  2.7694936294316136e-05 -2.5284763819285213e-04 0.0000000000000000e+00  3.0972633328297187e-06 -2.1061116158263920e-06 0.0000000000000000e+00  2.7290541188422748e-05 -2.3453566521188570e-04 0.0000000000000000e+00  5.0276016389879099e-06 -5.4039077928456433e-06 0.0000000000000000e+00  2.6891514423380593e-05 -2.1599897703046856e-04 0.0000000000000000e+00  8.1755810247408463e-06 -1.4024312895583448e-05 0.0000000000000000e+00  1.0184666913839628e-05 -2.1433506453513577e-05 0.0000000000000000e+00  2.6358314535349308e-05 -1.9761254845769593e-04 0.0000000000000000e+00  1.4808528786840689e-05 -4.6901590730829139e-05 0.0000000000000000e+00  2.4894326174668854e-05 -1.6154362531920673e-04 0.0000000000000000e+00  1.1961260098087275e-05 -3.0060992820843048e-05 0.0000000000000000e+00  1.6593119724387964e-05 -5.9057534447493633e-05 0.0000000000000000e+00  2.3965713389321200e-05 -1.4401976168308030e-04 0.0000000000000000e+00  2.5692235303937505e-05 -1.7943640824113230e-04 0.0000000000000000e+00  1.8206468946230841e-05 -7.2571934907490244e-05 0.0000000000000000e+00  2.2906283246292090e-05 -1.2696399814901565e-04 0.0000000000000000e+00  1.9519165167247430e-05 -8.6472463340344616e-05 0.0000000000000000e+00  2.1886682304621995e-05 -1.1083358915660848e-04 0.0000000000000000e+00  2.0677869889129678e-05 -9.7961688836977224e-05 0.0000000000000000e+00  1.3445980753371803e-05 -3.7780951486382970e-05 0.0000000000000000e+00  2.7627826161525915e-05 -2.6801494125163627e-04 0.0000000000000000e+00  6.5854211155089788e-06 -9.1319353181613540e-06 0.0000000000000000e+00  2.3444385691460433e-05 -2.9078301548250988e-04 0.0000000000000000e+00  1.5916099483247813e-06 -4.3510851387750436e-07 0.0000000000000000e+00  2.3506732141591373e-05 -2.2502633079258299e-04 0.0000000000000000e+00  2.3817528198869438e-05 -2.4363757043956174e-04 0.0000000000000000e+00  4.9341247318218396e-06 -4.2361461411402250e-06 0.0000000000000000e+00  1.0657577216111330e-05 -1.7967182622840681e-05 0.0000000000000000e+00  2.1839167430835003e-05 -1.7016948440092534e-04 0.0000000000000000e+00  2.3071410018348355e-05 -2.0653935919875781e-04 0.0000000000000000e+00  1.8146037293885674e-05 -5.3163870598290351e-05 0.0000000000000000e+00  2.1049453973054425e-05 -1.5243226421143242e-04 0.0000000000000000e+00  1.2902979430832862e-05 -2.6255948686950115e-05 0.0000000000000000e+00  2.0026679148249595e-05 -6.6113427479819469e-05 0.0000000000000000e+00  2.0147880541598483e-05 -1.3511228169311136e-04 0.0000000000000000e+00  2.2514276385950877e-05 -1.8823145080098627e-04 0.0000000000000000e+00  2.2386665044432009e-05 -8.0138017445713979e-05 0.0000000000000000e+00  1.9135941647222317e-05 -1.1831466590849502e-04 0.0000000000000000e+00  3.8604787706071492e-07 -3.9758662611292674e-07 0.0000000000000000e+00  2.1422125993607716e-07 2.9336415551331733e-07 0.0000000000000000e+00  3.0504209924345198e-05 -3.0748213317173631e-04 0.0000000000000000e+00  2.5606951075269934e-06 -1.6942130132608960e-06 0.0000000000000000e+00  1.7431151