<?xml version="1.0"?>
<VTKFile type="UnstructuredGrid"  version="0.1"  >
<UnstructuredGrid>
<Piece  NumberOfPoints="1419" NumberOfCells="2698">
<Points>
<DataArray  type="Float64"  NumberOfComponents="3"  format="ascii">0 0 0  0 0.41 0  2.5 0 0  2.5 0.41 0  0.6 0.19 0  0.6 0.21 0  0.25 0.2 0  0.15 0.2 0  0.2489897948556636 0.21 0  0.2489897948556636 0.19 0  0.6 0.2 0  0 0.3807142857143437 0  0 0.3514285714286952 0  0 0.3221428571430699 0  0 0.29285714285744 0  0 0.2635714285718054 0  0 0.2342857142861561 0  0 0.2050000000005308 0  0 0.175714285714732 0  0 0.1464285714289574 0  0 0.1171428571431897 0  0 0.08785714285737878 0  0 0.05857142857161107 0  0 0.02928571428580012 0  0.03015443760436003 0 0  0.06140001986583606 0 0  0.09377624077125973 0 0  0.1273239957535082 0 0  0.1620856860351972 0 0  0.1981052433264291 0 0  0.235428184091502 0 0  0.2741016576309132 0 0  0.3141745521465447 0 0  0.3556974926295285 0 0  0.3987229542472677 0 0  0.4433053055141081 0 0  0.4895008759286886 0 0  0.5373680609405097 0 0  0.5869673343216626 0 0  0.6383613676634521 0 0  0.6916151138468254 0 0  0.7467958595648856 0 0  0.8039733463919316 0 0  0.8632198139502143 0 0  0.9246101326867038 0 0  0.9882218810934433 0 0  1.054135445558498 0 0  1.122434100542598 0 0  1.193204177141305 0 0  1.266535089879536 0 0  1.342519516046404 0 0  1.421253448503939 0 0  1.502836389106271 0 0  1.587371439758838 0 0  1.674965418777374 0 0  1.765729001825544 0 0  1.859776908880082 0 0  1.957227977487062 0 0  2.058205329869943 0 0  2.162836591189951 0 0  2.271253957290865 0 0  2.383594446803425 0 0  2.5 0.1024999999997612 0  2.5 0.2049999999994743 0  2.5 0.3074999999997183 0  2.383594446803656 0.41 0  2.271253957291315 0.41 0  2.162836591190598 0.41 0  2.058205329870775 0.41 0  1.957227977488067 0.41 0  1.859776908881246 0.41 0  1.765729001826854 0.41 0  1.674965418778818 0.41 0  1.58737143976041 0.41 0  1.502836389107956 0.41 0  1.421253448505726 0.41 0  1.342519516048286 0.41 0  1.266535089881505 0.41 0  1.193204177143353 0.41 0  1.122434100544716 0.41 0  1.05413544556068 0.41 0  0.9882218810956305 0.41 0  0.9246101326886647 0.41 0  0.8632198139519631 0.41 0  0.8039733463934788 0.41 0  0.7467958595662458 0.41 0  0.6916151138480078 0.41 0  0.6383613676644679 0.41 0  0.5869673343225223 0.41 0  0.5373680609412221 0.41 0  0.4895008759292634 0.41 0  0.4433053055145528 0.41 0  0.3987229542475914 0.41 0  0.3556974926297398 0.41 0  0.3141745521466497 0.41 0  0.2741016576310038 0.41 0  0.2354281840915826 0.41 0  0.1981052433265003 0.41 0  0.1620856860352591 0.41 0  0.1273239957535623 0.41 0  0.09377624077128965 0.41 0  0.06140001986584975 0.41 0  0.03015443760436654 0.41 0  0.2497468076502589 0.2050254481002335 0  0.2497468076502614 0.1949745518997913 0  0.2469965252529372 0.1829317073451959 0  0.2439893735792749 0.1762316384219906 0  0.2400332147834255 0.1700443375285386 0  0.2352133972704371 0.1645032867342007 0  0.2296339016332438 0.1597280261969788 0  0.2234150974217223 0.1558215752574715 0  0.2166911463437691 0.1528682099456123 0  0.2096071079204251 0.1509316448471593 0  0.2023158100364996 0.1500536585536553 0  0.194974551899914 0.1502531923497262 0  0.1877417105387872 0.1515259415822739 0  0.1807733240461124 0.153844448527136 0  0.1742197252835808 0.15715869474974 0  0.1682222986673531 0.1613971801805478 0  0.162910430003803 0.1664684656256651 0  0.1583987151779087 0.1722631454351573 0  0.1547844879126891 0.178656207771761 0  0.1521457199348551 0.1855097315605723 0  0.1505393388476355 0.1926758619366523 0  0.1505393388476328 0.2073241380633295 0  0.1521457199348437 0.2144902684393899 0  0.1547844879126531 0.221343792228163 0  0.1583987151778488 0.2277368545647528 0  0.1629104300036858 0.2335315343742052 0  0.1682222986671726 0.2386028198193036 0  0.1742197252833576 0.2428413052501257 0  0.1807733240458683 0.2461555514727623 0  0.1877417105384929 0.2484740584176516 0  0.1949745518995776 0.2497468076502398 0  0.202315810036185 0.2499463414463592 0  0.2096071079201568 0.2490683551528932 0  0.2166911463435495 0.2471317900544655 0  0.2234150974215506 0.2441784247426195 0  0.2296339016331197 0.2402719738031125 0  0.2352133972703547 0.2354967132658811 0  0.2400332147833751 0.2299556624715287 0  0.2439893735792577 0.2237683615780412 0  0.246996525252926 0.2170682926548348 0  0.25645809709277 0.21 0  0.2639263993298655 0.21 0  0.271394701566961 0.21 0  0.2788630038040554 0.21 0  0.2863313060411479 0.21 0  0.2937996082782405 0.21 0  0.301267910515333 0.21 0  0.3087362127524279 0.21 0  0.3162045149895234 0.21 0  0.3236728172265972 0.21 0  0.3311411194636928 0.21 0  0.3386094217007701 0.21 0  0.3460777239378666 0.21 0  0.3535460261749672 0.21 0  0.3610143284120516 0.21 0  0.3684826306491596 0.21 0  0.3759509328862226 0.21 0  0.383419235123329 0.21 0  0.3908875373604028 0.21 0  0.3983558395975142 0.21 0  0.4058241418345938 0.21 0  0.4132924440716992 0.21 0  0.4207607463087888 0.21 0  0.4282290485459029 0.21 0  0.4356973507830418 0.21 0  0.4431656530201649 0.21 0  0.4506339552573136 0.21 0  0.4581022574944306 0.21 0  0.4655705597315852 0.21 0  0.4730388619686996 0.21 0  0.480507164205851 0.21 0  0.4879754664429498 0.21 0  0.4954437686800938 0.21 0  0.502912070917267 0.21 0  0.5103803731544119 0.21 0  0.5178486753915261 0.21 0  0.5253169776286404 0.21 0  0.5327852798657868 0.21 0  0.5402535821029386 0.21 0  0.54772188434007 0.21 0  0.5551901865771842 0.21 0  0.5626584888143201 0.21 0  0.5701267910514778 0.21 0  0.5775950932886138 0.21 0  0.5850633955257281 0.21 0  0.5925316977628483 0.21 0  0.6 0.2050000000000054 0  0.6 0.1950000000000217 0  0.5925316977628897 0.19 0  0.5850633955257988 0.19 0  0.5775950932887378 0.19 0  0.5701267910515998 0.19 0  0.5626584888145268 0.19 0  0.5551901865773963 0.19 0  0.547721884340339 0.19 0  0.5402535821032429 0.19 0  0.5327852798661811 0.19 0  0.5253169776290537 0.19 0  0.5178486753919799 0.19 0  0.5103803731549078 0.19 0  0.502912070917822 0.19 0  0.4954437686807294 0.19 0  0.4879754664436223 0.19 0  0.4805071642065402 0.19 0  0.4730388619694271 0.19 0  0.4655705597323621 0.19 0  0.4581022574952563 0.19 0  0.4506339552581777 0.19 0  0.4431656530210671 0.19 0  0.4356973507839815 0.19 0  0.4282290485468779 0.19 0  0.4207607463097617 0.19 0  0.4132924440726327 0.19 0  0.4058241418354857 0.19 0  0.3983558395983636 0.19 0  0.3908875373612097 0.19 0  0.3834192351240934 0.19 0  0.3759509328869369 0.19 0  0.3684826306498175 0.19 0  0.361014328412667 0.19 0  0.3535460261755617 0.19 0  0.3460777239384295 0.19 0  0.3386094217012945 0.19 0  0.3311411194641595 0.19 0  0.3236728172270245 0.19 0  0.3162045149898895 0.19 0  0.3087362127527544 0.19 0  0.3012679105156187 0.19 0  0.2937996082784807 0.19 0  0.2863313060413428 0.19 0  0.2788630038042048 0.19 0  0.2713947015670686 0.19 0  0.2639263993299336 0.19 0  0.2564580970927985 0.19 0  0.2607803159922026 0.2000727136295815 0  0.5887803774232762 0.2001272386983733 0  0.5745072403740523 0.2002044435018727 0  0.5511891430099709 0.2001122610077113 0  0.2751288526855082 0.20000000000002 0  0.5365194309847112 0.1999999999999436 0  0.2894621222999649 0.1998691686390484 0  0.5215828265105155 0.1999999999999228 0  0.3127789816668748 0.1998657885438805 0  0.3274069683451451 0.2000000000000796 0  0.5066462220363641 0.199999999999908 0  0.3650630746574081 0.199866017807523 0  0.476773013087985 0.1999999999998713 0  0.3417402379596385 0.1998691686391011 0  0.3796850840047755 0.200000000000134 0  0.4618364086138087 0.1999999999998546 0  0.4917096175621762 0.1999999999998808 0  0.3946216884789568 0.2000000000001512 0  0.446899804139621 0.1999999999998389 0  0.4089549580935208 0.1998691686391595 0  0.4322718174608562 0.200127451265745 0  0.4201487168029707 0.1999966199048527 0  0.3528922713220932 0.2000185703532356 0  0.5633122436674589 0.1999814296467508 0  0.3006558810093873 0.1999966199048318 0  0.5815926498168407 0.1966545283159175 0  0.2677053789419034 0.1964246479135325 0  0.5290511287476175 0.1970915826863981 0  0.5439877332217911 0.197091582686394 0  0.2825131256993216 0.2035478995978015 0  0.3199386661080599 0.202908417313604 0  0.4842413153250809 0.1970915826863873 0  0.5141145242734466 0.1970915826863843 0  0.3722167817676917 0.2029084173136195 0  0.4693047108508938 0.1970915826863783 0  0.3348752705822316 0.202908417313609 0  0.3871533862418661 0.2029084173136212 0  0.4543681063767183 0.1970915826863795 0  0.4991779197992749 0.1970915826863902 0  0.4020059614928624 0.203547899597858 0  0.4394315019025246 0.1970915826863714 0  0.2550657455369551 0.2034088125358657 0  0.2548908499171161 0.1966940311614271 0  0.5946539510196798 0.2024302972968126 0  0.267698176732111 0.2039977513680092 0  0.4261685417851465 0.196409292431739 0  0.3590076176283495 0.196411355804271 0  0.5571672426447437 0.2036011176410121 0  0.3066757059912147 0.1964092924317024 0  0.594380730180568 0.1966558399668133 0  0.4842413153245942 0.2040749161535287 0  0.4693047108503577 0.2040749161535231 0  0.3871533862424271 0.1959250838464788 0  0.372246743208829 0.1959123236376545 0  0.5141145242731028 0.2040749161535395 0  0.4543681063761134 0.2040749161535186 0  0.4019979587101454 0.1959834479682427 0  0.4394608940728603 0.2040870543693135 0  0.5439623148931173 0.2040856076781014 0  0.5290511287473298 0.2040749161535501 0  0.4991779197988497 0.2040749161535382 0  0.3347912413592433 0.1959225448935183 0  0.3199680582793816 0.1959123018030061 0  0.2825051229162361 0.1959834479681729 0  0.3590471196690275 0.2036304442587945 0  0.5571594006495384 0.1963685282145804 0  0.3067669986803285 0.203627750582736 0  0.4262598344738712 0.2036568242185335 0  0.5814408164431408 0.2041285596160068 0  0.5688286748170428 0.1961819304477386 0  0.4145905603063645 0.2038180695522843 0  0.3473758401724931 0.2038180695522752 0  0.2950977245128307 0.2038180695522663 0  0.5688286748170693 0.203818069552238 0  0.2950977245127906 0.1961819304477774 0  0.3473758401723931 0.1961819304478349 0  0.4145905603061963 0.1961819304479011 0  0.2601812407614425 0.2056861609747042
[...]
<PointData  Vectors="f_40-1"> 
<DataArray  type="Float64"  Name="f_40-1"  NumberOfComponents="3" format="ascii">0.0000000000000000e+00 0.0000000000000000e+00 0.0000000000000000e+00  0.0000000000000000e+00 0.0000000000000000e+00 0.0000000000000000e+00  0.0000000000000000e+00 0.0000000000000000e+00 0.0000000000000000e+00  0.0000000000000000e+00 0.0000000000000000e+00 0.0000000000000000e+00  4.4074574910902683e-05 5.8775799735359951e-04 0.0000000000000000e+00  4.8160785202181241e-06 5.8710318328493319e-04 0.0000000000000000e+00  0.0000000000000000e+00 0.0000000000000000e+00 0.0000000000000000e+00  0.0000000000000000e+00 0.0000000000000000e+00 0.0000000000000000e+00  0.0000000000000000e+00 0.0000000000000000e+00 0.0000000000000000e+00  0.0000000000000000e+00 0.0000000000000000e+00 0.0000000000000000e+00  2.4165277819701506e-05 5.8742635285494030e-04 0.0000000000000000e+00  0.0000000000000000e+00 0.0000000000000000e+00 0.0000000000000000e+00  0.0000000000000000e+00 0.0000000000000000e+00 0.0000000000000000e+00  0.0000000000000000e+00 0.0000000000000000e+00 0.0000000000000000e+00  0.0000000000000000e+00 0.0000000000000000e+00 0.0000000000000000e+00  0.0000000000000000e+00 0.0000000000000000e+00 0.0000000000000000e+00  0.0000000000000000e+00 0.0000000000000000e+00 0.0000000000000000e+00  0.0000000000000000e+00 0.0000000000000000e+00 0.0000000000000000e+00  0.0000000000000000e+00 0.0000000000000000e+00 0.0000000000000000e+00  0.0000000000000000e+00 0.0000000000000000e+00 0.0000000000000000e+00  0.0000000000000000e+00 0.0000000000000000e+00 0.0000000000000000e+00  0.0000000000000000e+00 0.0000000000000000e+00 0.0000000000000000e+00  0.0000000000000000e+00 0.0000000000000000e+00 0.0000000000000000e+00  0.0000000000000000e+00 0.0000000000000000e+00 0.0000000000000000e+00  0.0000000000000000e+00 0.0000000000000000e+00 0.0000000000000000e+00  0.0000000000000000e+00 0.0000000000000000e+00 0.0000000000000000e+00  0.0000000000000000e+00 0.0000000000000000e+00 0.0000000000000000e+00  0.0000000000000000e+00 0.0000000000000000e+00 0.0000000000000000e+00  0.0000000000000000e+00 0.0000000000000000e+00 0.0000000000000000e+00  0.0000000000000000e+00 0.0000000000000000e+00 0.0000000000000000e+00  0.0000000000000000e+00 0.0000000000000000e+00 0.0000000000000000e+00  0.0000000000000000e+00 0.0000000000000000e+00 0.0000000000000000e+00  0.0000000000000000e+00 0.0000000000000000e+00 0.0000000000000000e+00  0.0000000000000000e+00 0.0000000000000000e+00 0.0000000000000000e+00  0.0000000000000000e+00 0.0000000000000000e+00 0.0000000000000000e+00  0.0000000000000000e+00 0.0000000000000000e+00 0.0000000000000000e+00  0.0000000000000000e+00 0.0000000000000000e+00 0.0000000000000000e+00  0.0000000000000000e+00 0.0000000000000000e+00 0.0000000000000000e+00  0.0000000000000000e+00 0.0000000000000000e+00 0.0000000000000000e+00  0.0000000000000000e+00 0.0000000000000000e+00 0.0000000000000000e+00  0.0000000000000000e+00 0.0000000000000000e+00 0.0000000000000000e+00  0.0000000000000000e+00 0.0000000000000000e+00 0.0000000000000000e+00  0.0000000000000000e+00 0.0000000000000000e+00 0.0000000000000000e+00  0.0000000000000000e+00 0.0000000000000000e+00 0.0000000000000000e+00  0.0000000000000000e+00 0.0000000000000000e+00 0.0000000000000000e+00  0.0000000000000000e+00 0.0000000000000000e+00 0.0000000000000000e+00  0.0000000000000000e+00 0.0000000000000000e+00 0.0000000000000000e+00  0.0000000000000000e+00 0.0000000000000000e+00 0.0000000000000000e+00  0.0000000000000000e+00 0.0000000000000000e+00 0.0000000000000000e+00  0.0000000000000000e+00 0.0000000000000000e+00 0.0000000000000000e+00  0.0000000000000000e+00 0.0000000000000000e+00 0.0000000000000000e+00  0.0000000000000000e+00 0.0000000000000000e+00 0.0000000000000000e+00  0.0000000000000000e+00 0.0000000000000000e+00 0.0000000000000000e+00  0.0000000000000000e+00 0.0000000000000000e+00 0.0000000000000000e+00  0.0000000000000000e+00 0.0000000000000000e+00 0.0000000000000000e+00  0.0000000000000000e+00 0.0000000000000000e+00 0.0000000000000000e+00  0.0000000000000000e+00 0.0000000000000000e+00 0.0000000000000000e+00  0.0000000000000000e+00 0.0000000000000000e+00 0.0000000000000000e+00  0.0000000000000000e+00 0.0000000000000000e+00 0.0000000000000000e+00  0.0000000000000000e+00 0.0000000000000000e+00 0.0000000000000000e+00  0.0000000000000000e+00 0.0000000000000000e+00 0.0000000000000000e+00  0.0000000000000000e+00 0.0000000000000000e+00 0.0000000000000000e+00  0.0000000000000000e+00 0.0000000000000000e+00 0.0000000000000000e+00  0.0000000000000000e+00 0.0000000000000000e+00 0.0000000000000000e+00  0.0000000000000000e+00 0.0000000000000000e+00 0.0000000000000000e+00  0.0000000000000000e+00 0.0000000000000000e+00 0.0000000000000000e+00  0.0000000000000000e+00 0.0000000000000000e+00 0.0000000000000000e+00  0.0000000000000000e+00 0.0000000000000000e+00 0.0000000000000000e+00  0.0000000000000000e+00 0.0000000000000000e+00 0.0000000000000000e+00  0.0000000000000000e+00 0.0000000000000000e+00 0.0000000000000000e+00  0.0000000000000000e+00 0.0000000000000000e+00 0.0000000000000000e+00  0.0000000000000000e+00 0.0000000000000000e+00 0.0000000000000000e+00  0.0000000000000000e+00 0.0000000000000000e+00 0.0000000000000000e+00  0.0000000000000000e+00 0.0000000000000000e+00 0.0000000000000000e+00  0.0000000000000000e+00 0.0000000000000000e+00 0.0000000000000000e+00  0.0000000000000000e+00 0.0000000000000000e+00 0.0000000000000000e+00  0.0000000000000000e+00 0.0000000000000000e+00 0.0000000000000000e+00  0.0000000000000000e+00 0.0000000000000000e+00 0.0000000000000000e+00  0.0000000000000000e+00 0.0000000000000000e+00 0.0000000000000000e+00  0.0000000000000000e+00 0.0000000000000000e+00 0.0000000000000000e+00  0.0000000000000000e+00 0.0000000000000000e+00 0.0000000000000000e+00  0.0000000000000000e+00 0.0000000000000000e+00 0.0000000000000000e+00  0.0000000000000000e+00 0.0000000000000000e+00 0.0000000000000000e+00  0.0000000000000000e+00 0.0000000000000000e+00 0.0000000000000000e+00  0.0000000000000000e+00 0.0000000000000000e+00 0.0000000000000000e+00  0.0000000000000000e+00 0.0000000000000000e+00 0.0000000000000000e+00  0.0000000000000000e+00 0.0000000000000000e+00 0.0000000000000000e+00  0.0000000000000000e+00 0.0000000000000000e+00 0.0000000000000000e+00  0.0000000000000000e+00 0.0000000000000000e+00 0.0000000000000000e+00  0.0000000000000000e+00 0.0000000000000000e+00 0.0000000000000000e+00  0.0000000000000000e+00 0.0000000000000000e+00 0.0000000000000000e+00  0.0000000000000000e+00 0.0000000000000000e+00 0.0000000000000000e+00  0.0000000000000000e+00 0.0000000000000000e+00 0.0000000000000000e+00  0.0000000000000000e+00 0.0000000000000000e+00 0.0000000000000000e+00  0.0000000000000000e+00 0.0000000000000000e+00 0.0000000000000000e+00  0.0000000000000000e+00 0.0000000000000000e+00 0.0000000000000000e+00  0.0000000000000000e+00 0.0000000000000000e+00 0.0000000000000000e+00  0.0000000000000000e+00 0.0000000000000000e+00 0.0000000000000000e+00  0.0000000000000000e+00 0.0000000000000000e+00 0.0000000000000000e+00  0.0000000000000000e+00 0.0000000000000000e+00 0.0000000000000000e+00  0.0000000000000000e+00 0.0000000000000000e+00 0.0000000000000000e+00  0.0000000000000000e+00 0.0000000000000000e+00 0.0000000000000000e+00  0.0000000000000000e+00 0.0000000000000000e+00 0.0000000000000000e+00  0.0000000000000000e+00 0.0000000000000000e+00 0.0000000000000000e+00  0.0000000000000000e+00 0.0000000000000000e+00 0.0000000000000000e+00  0.0000000000000000e+00 0.0000000000000000e+00 0.0000000000000000e+00  0.0000000000000000e+00 0.0000000000000000e+00 0.0000000000000000e+00  0.0000000000000000e+00 0.0000000000000000e+00 0.0000000000000000e+00  0.0000000000000000e+00 0.0000000000000000e+00 0.0000000000000000e+00  0.0000000000000000e+00 0.0000000000000000e+00 0.0000000000000000e+00  0.0000000000000000e+00 0.0000000000000000e+00 0.0000000000000000e+00  0.0000000000000000e+00 0.0000000000000000e+00 0.0000000000000000e+00  0.0000000000000000e+00 0.0000000000000000e+00 0.0000000000000000e+00  0.0000000000000000e+00 0.0000000000000000e+00 0.0000000000000000e+00  0.0000000000000000e+00 0.0000000000000000e+00 0.0000000000000000e+00  0.0000000000000000e+00 0.0000000000000000e+00 0.0000000000000000e+00  0.0000000000000000e+00 0.0000000000000000e+00 0.0000000000000000e+00  0.0000000000000000e+00 0.0000000000000000e+00 0.0000000000000000e+00  0.0000000000000000e+00 0.0000000000000000e+00 0.0000000000000000e+00  0.0000000000000000e+00 0.0000000000000000e+00 0.0000000000000000e+00  0.0000000000000000e+00 0.0000000000000000e+00 0.0000000000000000e+00  0.0000000000000000e+00 0.0000000000000000e+00 0.0000000000000000e+00  0.0000000000000000e+00 0.0000000000000000e+00 0.0000000000000000e+00  0.0000000000000000e+00 0.0000000000000000e+00 0.0000000000000000e+00  0.0000000000000000e+00 0.0000000000000000e+00 0.0000000000000000e+00  0.0000000000000000e+00 0.0000000000000000e+00 0.0000000000000000e+00  0.0000000000000000e+00 0.0000000000000000e+00 0.0000000000000000e+00  0.0000000000000000e+00 0.0000000000000000e+00 0.0000000000000000e+00  0.0000000000000000e+00 0.0000000000000000e+00 0.0000000000000000e+00  0.0000000000000000e+00 0.0000000000000000e+00 0.0000000000000000e+00  0.0000000000000000e+00 0.0000000000000000e+00 0.0000000000000000e+00  0.0000000000000000e+00 0.0000000000000000e+00 0.0000000000000000e+00  0.0000000000000000e+00 0.0000000000000000e+00 0.0000000000000000e+00  0.0000000000000000e+00 0.0000000000000000e+00 0.0000000000000000e+00  0.0000000000000000e+00 0.0000000000000000e+00 0.0000000000000000e+00  0.0000000000000000e+00 0.0000000000000000e+00 0.0000000000000000e+00  0.0000000000000000e+00 0.0000000000000000e+00 0.0000000000000000e+00  0.0000000000000000e+00 0.0000000000000000e+00 0.0000000000000000e+00  0.0000000000000000e+00 0.0000000000000000e+00 0.0000000000000000e+00  0.0000000000000000e+00 0.0000000000000000e+00 0.0000000000000000e+00  0.0000000000000000e+00 0.0000000000000000e+00 0.0000000000000000e+00  0.0000000000000000e+00 0.0000000000000000e+00 0.0000000000000000e+00  0.0000000000000000e+00 0.0000000000000000e+00 0.0000000000000000e+00  -1.2932656776336047e-06 9.4352791509805644e-07 0.0000000000000000e+00  -2.6922569254926957e-06 3.2479051980626392e-06 0.0000000000000000e+00  -3.6934482619429172e-06 6.9138875543040140e-06 0.0000000000000000e+00  -4.7201267442408313e-06 1.1981333542468224e-05 0.0000000000000000e+00  -5.3601958833819724e-06 1.8089561485446905e-05 0.0000000000000000e+00  -6.1008549718934187e-06 2.5321571823560413e-05 0.0000000000000000e+00  -6.4799106135145529e-06 3.3329777803834793e-05 0.0000000000000000e+00  -6.7584626811335773e-06 4.2317970369647220e-05 0.0000000000000000e+00  -7.1341460567084772e-06 5.2005454889069088e-05 0.0000000000000000e+00  -7.1771948517803373e-06 6.2376014675892202e-05 0.0000000000000000e+00  -7.3487728118147140e-06 7.3389587396320073e-05 0.0000000000000000e+00  -7.2400320929622100e-06 8.4943919739643119e-05 0.0000000000000000e+00  -7.2074579533244037e-06 9.6997407066915989e-05 0.0000000000000000e+00  -6.9924438146208507e-06 1.0942524058038797e-04 0.0000000000000000e+00  -6.7301596266094481e-06 1.2228857236361060e-04 0.0000000000000000e+00  -6.5051517112948478e-06 1.3545363960749347e-04 0.0000000000000000e+00  -6.1352538786746991e-06 1.4891013279205920e-04 0.0000000000000000e+00  -5.8141755760452778e-06 1.6262358294118318e-04 0.0000000000000000e+00  -5.3805848848242651e-06 1.7655171027372064e-04 0.0000000000000000e+00  -4.9802648604828744e-06 1.9065619897957846e-04 0.0000000000000000e+00  -4.5139344758900977e-06 2.0492307349012761e-04 0.0000000000000000e+00  -4.0611269339956069e-06 2.1932134557798414e-04 0.0000000000000000e+00  -3.5669830269859323e-06 2.3380613118940505e-04 0.0000000000000000e+00  -3.0665940616930766e-06 2.4839206190284624e-04 0.0000000000000000e+00  -2.5756871533503422e-06 2.6303173894085430e-04 0.0000000000000000e+00  -2.0718916776002865e-06 2.7773547878610900e-04 0.0000000000000000e+00  -1.5751587082137311e-06 2.9246798087098169e-04 0.0000000000000000e+00  -1.0799995912562107e-06 3.0723494462762615e-04 0.0000000000000000e+00  -5.9417530102527223e-07 3.2201038815742934e-04 0.0000000000000000e+00  -1.1818632932814467e-07 3.3680504274239195e-04 0.0000000000000000e+00  3.4526914310718231e-07 3.5159179064778260e-04 0.0000000000000000e+00  7.9264674181903542e-07 3.6638850101832084e-04 0.0000000000000000e+00  1.2239948432943256e-06 3.8116609150532377e-04 0.0000000000000000e+00  1.6352378090810164e-06 3.9594952092707729e-04 0.0000000000000000e+00  2.0258952978920491e-06 4.1070689055329354e-04 0.0000000000000000e+00  2.3928070563610355e-06 4.2546921523062124e-04 0.0000000000000000e+00  2.7371488276520762e-06 4.4020367766784617e-04 0.0000000000000000e+00  3.0550280640896958e-06 4.5494402803972488e-04 0.0000000000000000e+00  3.3477407118501934e-06 4.6965685911925538e-04 0.0000000000000000e+00  3.6105385308046442e-06 4.8437953085079437e-04 0.0000000000000000e+00  3.8417378973028309e-06 4.9908295353548872e-04 0.0000000000000000e+00  4.0487956108058045e-06 5.1378822810585890e-04 0.0000000000000000e+00  4.2244686851532356e-06 5.2848748699165404e-04 0.0000000000000000e+00  4.3821142593294858e-06 5.4318621473151043e-04 0.0000000000000000e+00  4.5049814983490467e-06 5.5789572323952836e-04 0.0000000000000000e+00  4.6312017262696524e-06 5.7257249172852317e-04 0.0000000000000000e+00  1.4397816125800222e-05 5.8726857667732433e-04 0.0000000000000000e+00  3.4034762270290068e-05 5.8758234351647743e-04 0.0000000000000000e+00  4.3895352131083223e-05 5.7295590474114560e-04 0.0000000000000000e+00  4.3780242372830869e-05 5.5831346038623018e-04 0.0000000000000000e+00  4.3663880780812398e-05 5.4369037501996213e-04 0.0000000000000000e+00  4.3516915269500586e-05 5.2905168079914937e-04 0.0000000000000000e+00  4.3352507683731529e-05 5.1441003545057409e-04 0.0000000000000000e+00  4.3158344591862310e-05 4.9976305407723267e-04 0.0000000000000000e+00  4.2945111419965407e-05 4.8510456069428536e-04 0.0000000000000000e+00  4.2701396154766933e-05 4.7045017086896782e-04 0.0000000000000000e+00  4.2435770422841032e-05 4.5576833340630403e-04 0.0000000000000000e+00  4.2143024847352284e-05 4.4109440956696520e-04 0.0000000000000000e+00  4.1829188227537346e-05 4.2639005111698089e-04 0.0000000000000000e+00  4.1488385007249064e-05 4.1169164787412571e-04 0.0000000000000000e+00  4.1125910691902413e-05 3.9696277406637691e-04 0.0000000000000000e+00  4.0736239230583583e-05 3.8224029256070868e-04 0.0000000000000000e+00  4.0322609189966353e-05 3.6748990682919987e-04 0.0000000000000000e+00  3.9881536711675367e-05 3.5275066194889580e-04 0.0000000000000000e+00  3.9411892519826823e-05 3.3798983624026759e-04 0.0000000000000000e+00  3.8916333141358119e-05 3.2324890317885863e-04 0.0000000000000000e+00  3.8385771439290763e-05 3.0849767813525848e-04 0.0000000000000000e+00  3.7831746468026623e-05 2.9378039480182832e-04 0.0000000000000000e+00  3.7232076534415665e-05 2.7907004392942962e-04 0.0000000000000000e+00  3.6612499697460379e-05 2.6441457806393844e-04 0.0000000000000000e+00  3.5931744256639342e-05 2.4979811602547847e-04 0.0000000000000000e+00  3.5235430238808559e-05 2.3524576089577713e-04 0.0000000000000000e+00  3.4499045561506807e-05 2.2079032733097873e-04 0.0000000000000000e+00  3.3700756127724045e-05 2.0641283437445828e-04 0.0000000000000000e+00  3.2870787079784075e-05 1.9218600047139130e-04 0.0000000000000000e+00  3.1971483477939686e-05 1.7808439166390033e-04 0.0000000000000000e+00  3.1038474889167558e-05 1.6419103897073192e-04 0.0000000000000000e+00  3.0026349914794250e-05 1.5048294681890506e-04 0.0000000000000000e+00  2.8980433916059209e-05 1.3703738415043594e-04 0.0000000000000000e+00  2.7801847166627776e-05 1.2390095008975782e-04 0.0000000000000000e+00  2.6644733500506689e-05 1.1104331221196528e-04 0.0000000000000000e+00  2.5425058214443467e-05 9.8629744379329830e-05 0.0000000000000000e+00  2.4037425991459349e-05 8.6546263879194558e-05 0.0000000000000000e+00  2.2633296833347227e-05 7.5015585385853587e-05 0.0000000000000000e+00  2.1083889215539222e-05 6.3988032239559395e-05 0.0000000000000000e+00  1.9508215833670635e-05 5.3585803484310894e-05 0.0000000000000000e+00  1.7681477318913780e-05 4.3929067923796855e-05 0.0000000000000000e+00  1.5944460504192476e-05 3.4915096641752991e-05 0.0000000000000000e+00  1.4117826970447205e-05 2.6892344397060308e-05 0.0000000000000000e+00  1.1960061029784100e-05 1.9609375017208464e-05 0.0000000000000000e+00  9.8459576053978976e-06 1.3469337694582575e-05 0.0000000000000000e+00  7.4059812761715523e-06 8.4615892221460578e-06 0.0000000000000000e+00  5.0881242440562835e-06 4.7296886765008089e-06 0.0000000000000000e+00  2.4468133929552159e-06 2.2886317412799396e-06 0.0000000000000000e+00  7.8097938902050784e-07 1.8071953781922915e-06 0.0000000000000000e+00  2.3844426066968474e-05 5.6540163925412185e-04 0.0000000000000000e+00  2.3518663833313945e-05 5.3737175126471507e-04 0.0000000000000000e+00  2.3123641541752616e-05 4.9155903979867697e-04 0.0000000000000000e+00  2.2248462184469924e-06 9.2572826245636682e-06 0.0000000000000000e+00  2.2842989052948797e-05 4.6271209612708697e-04 0.0000000000000000e+00  3.7082797109374393e-06 2.1091900555271588e-05 0.0000000000000000e+00  2.2235400290651716e-05 4.3329734342363081e-04 0.0000000000000000e+00  6.0296075069994419e-06 4.7792114144263491e-05 0.0000000000000000e+00  7.2853249507667813e-06 6.8237199903302588e-05 0.0000000000000000e+00  2.1530204792807613e-05 4.0383505776703119e-04 0.0000000000000000e+00  1.1138802130204351e-05 1.2998540478864219e-04 0.0000000000000000e+00  1.9844791748972403e-05 3.4478227129531100e-04 0.0000000000000000e+00  8.8862554644093898e-06 9.0437355308738244e-05 0.0000000000000000e+00  1.2255155182122701e-05 1.5636767830619900e-04 0.0000000000000000e+00  1.8873418691020162e-05 3.1523552639991034e-04 0.0000000000000000e+00  2.0731928707387765e-05 3.7432562791225594e-04 0.0000000000000000e+00  1.3594626886951684e-05 1.8423365922920335e-04 0.0000000000000000e+00  1.7822796728457046e-05 2.8573571714253455e-04 0.0000000000000000e+00  1.5084062721087286e-05 2.1161046301249950e-04 0.0000000000000000e+00  1.6474642284023555e-05 2.5695548061984867e-04 0.0000000000000000e+00  1.5758621303601727e-05 2.3329086543542884e-04 0.0000000000000000e+00  9.7155060088678303e-06 1.0893829192752509e-04 0.0000000000000000e+00  2.3700671517702199e-05 5.1538639202966627e-04 0.0000000000000000e+00  4.6824938946768180e-06 3.3007814223670858e-05 0.0000000000000000e+00  3.0598854281988927e-05 5.5136069158575978e-04 0.0000000000000000e+00  3.1960907297322336e-06 5.2468397260401830e-06 0.0000000000000000e+00  2.8281671755245853e-05 4.4813405915736145e-04 0.0000000000000000e+00  2.8832532967549723e-05 4.7751395970204347e-04 0.0000000000000000e+00  1.3614570400576445e-07 1.4710678888608695e-05 0.0000000000000000e+00  2.5617684603798864e-06 5.7309051011220119e-05 0.0000000000000000e+00  2.6048779186217344e-05 3.5972099342525894e-04 0.0000000000000000e+00  2.7632691894166837e-05 4.1871003903860539e-04 0.0000000000000000e+00  6.3604955450563850e-06 1.4255476777980466e-04 0.0000000000000000e+00  2.5116719462346451e-05 3.3018386757732401e-04 0.0000000000000000e+00  3.5772142240470473e-06 7.9377026576371064e-05 0.0000000000000000e+00  7.5412553373173589e-06 1.6999721034899296e-04 0.0000000000000000e+00  2.4092382555850088e-05 3.0066552428794870e-04 0.0000000000000000e+00  2.6887748884564389e-05 3.8923707189901784e-04 0.0000000000000000e+00  7.5006028836224576e-06 1.9801778975633331e-04 0.0000000000000000e+00  2.2976963635673964e-05 2.7122775477568647e-04 0.0000000000000000e+00  -2.1702840528730623e-08 2.7307674653556978e-07 0.0000000000000000e+00  5.7380968925509965e-07 5.6530471055515857e-07 0.0000000000000000e+00  1.9362336874076508e-05 5.7688599648445687e-04 0.0000000000000000e+00  -3.8001266249702140e-07 4.6539100122628766e-06 0.0000000000000000e+00  2.3240803668342129e-05 2.4528139966031339e-04 0.0000000000000000e+00  1.6505311552545229e-05 1.1970043978442046e-04 