<?xml version="1.0"?>
<VTKFile type="UnstructuredGrid"  version="0.1"  >
<UnstructuredGrid>
<Piece  NumberOfPoints="1419" NumberOfCells="2698">
<Points>
<DataArray  type="Float64"  NumberOfComponents="3"  format="ascii">0 0 0  0 0.41 0  2.5 0 0  2.5 0.41 0  0.6 0.19 0  0.6 0.21 0  0.25 0.2 0  0.15 0.2 0  0.2489897948556636 0.21 0  0.2489897948556636 0.19 0  0.6 0.2 0  0 0.3807142857143437 0  0 0.3514285714286952 0  0 0.3221428571430699 0  0 0.29285714285744 0  0 0.2635714285718054 0  0 0.2342857142861561 0  0 0.2050000000005308 0  0 0.175714285714732 0  0 0.1464285714289574 0  0 0.1171428571431897 0  0 0.08785714285737878 0  0 0.05857142857161107 0  0 0.02928571428580012 0  0.03015443760436003 0 0  0.06140001986583606 0 0  0.09377624077125973 0 0  0.1273239957535082 0 0  0.1620856860351972 0 0  0.1981052433264291 0 0  0.235428184091502 0 0  0.2741016576309132 0 0  0.3141745521465447 0 0  0.3556974926295285 0 0  0.3987229542472677 0 0  0.4433053055141081 0 0  0.4895008759286886 0 0  0.5373680609405097 0 0  0.5869673343216626 0 0  0.6383613676634521 0 0  0.6916151138468254 0 0  0.7467958595648856 0 0  0.8039733463919316 0 0  0.8632198139502143 0 0  0.9246101326867038 0 0  0.9882218810934433 0 0  1.054135445558498 0 0  1.122434100542598 0 0  1.193204177141305 0 0  1.266535089879536 0 0  1.342519516046404 0 0  1.421253448503939 0 0  1.502836389106271 0 0  1.587371439758838 0 0  1.674965418777374 0 0  1.765729001825544 0 0  1.859776908880082 0 0  1.957227977487062 0 0  2.058205329869943 0 0  2.162836591189951 0 0  2.271253957290865 0 0  2.383594446803425 0 0  2.5 0.1024999999997612 0  2.5 0.2049999999994743 0  2.5 0.3074999999997183 0  2.383594446803656 0.41 0  2.271253957291315 0.41 0  2.162836591190598 0.41 0  2.058205329870775 0.41 0  1.957227977488067 0.41 0  1.859776908881246 0.41 0  1.765729001826854 0.41 0  1.674965418778818 0.41 0  1.58737143976041 0.41 0  1.502836389107956 0.41 0  1.421253448505726 0.41 0  1.342519516048286 0.41 0  1.266535089881505 0.41 0  1.193204177143353 0.41 0  1.122434100544716 0.41 0  1.05413544556068 0.41 0  0.9882218810956305 0.41 0  0.9246101326886647 0.41 0  0.8632198139519631 0.41 0  0.8039733463934788 0.41 0  0.7467958595662458 0.41 0  0.6916151138480078 0.41 0  0.6383613676644679 0.41 0  0.5869673343225223 0.41 0  0.5373680609412221 0.41 0  0.4895008759292634 0.41 0  0.4433053055145528 0.41 0  0.3987229542475914 0.41 0  0.3556974926297398 0.41 0  0.3141745521466497 0.41 0  0.2741016576310038 0.41 0  0.2354281840915826 0.41 0  0.1981052433265003 0.41 0  0.1620856860352591 0.41 0  0.1273239957535623 0.41 0  0.09377624077128965 0.41 0  0.06140001986584975 0.41 0  0.03015443760436654 0.41 0  0.2497468076502589 0.2050254481002335 0  0.2497468076502614 0.1949745518997913 0  0.2469965252529372 0.1829317073451959 0  0.2439893735792749 0.1762316384219906 0  0.2400332147834255 0.1700443375285386 0  0.2352133972704371 0.1645032867342007 0  0.2296339016332438 0.1597280261969788 0  0.2234150974217223 0.1558215752574715 0  0.2166911463437691 0.1528682099456123 0  0.2096071079204251 0.1509316448471593 0  0.2023158100364996 0.1500536585536553 0  0.194974551899914 0.1502531923497262 0  0.1877417105387872 0.1515259415822739 0  0.1807733240461124 0.153844448527136 0  0.1742197252835808 0.15715869474974 0  0.1682222986673531 0.1613971801805478 0  0.162910430003803 0.1664684656256651 0  0.1583987151779087 0.1722631454351573 0  0.1547844879126891 0.178656207771761 0  0.1521457199348551 0.1855097315605723 0  0.1505393388476355 0.1926758619366523 0  0.1505393388476328 0.2073241380633295 0  0.1521457199348437 0.2144902684393899 0  0.1547844879126531 0.221343792228163 0  0.1583987151778488 0.2277368545647528 0  0.1629104300036858 0.2335315343742052 0  0.1682222986671726 0.2386028198193036 0  0.1742197252833576 0.2428413052501257 0  0.1807733240458683 0.2461555514727623 0  0.1877417105384929 0.2484740584176516 0  0.1949745518995776 0.2497468076502398 0  0.202315810036185 0.2499463414463592 0  0.2096071079201568 0.2490683551528932 0  0.2166911463435495 0.2471317900544655 0  0.2234150974215506 0.2441784247426195 0  0.2296339016331197 0.2402719738031125 0  0.2352133972703547 0.2354967132658811 0  0.2400332147833751 0.2299556624715287 0  0.2439893735792577 0.2237683615780412 0  0.246996525252926 0.2170682926548348 0  0.25645809709277 0.21 0  0.2639263993298655 0.21 0  0.271394701566961 0.21 0  0.2788630038040554 0.21 0  0.2863313060411479 0.21 0  0.2937996082782405 0.21 0  0.301267910515333 0.21 0  0.3087362127524279 0.21 0  0.3162045149895234 0.21 0  0.3236728172265972 0.21 0  0.3311411194636928 0.21 0  0.3386094217007701 0.21 0  0.3460777239378666 0.21 0  0.3535460261749672 0.21 0  0.3610143284120516 0.21 0  0.3684826306491596 0.21 0  0.3759509328862226 0.21 0  0.383419235123329 0.21 0  0.3908875373604028 0.21 0  0.3983558395975142 0.21 0  0.4058241418345938 0.21 0  0.4132924440716992 0.21 0  0.4207607463087888 0.21 0  0.4282290485459029 0.21 0  0.4356973507830418 0.21 0  0.4431656530201649 0.21 0  0.4506339552573136 0.21 0  0.4581022574944306 0.21 0  0.4655705597315852 0.21 0  0.4730388619686996 0.21 0  0.480507164205851 0.21 0  0.4879754664429498 0.21 0  0.4954437686800938 0.21 0  0.502912070917267 0.21 0  0.5103803731544119 0.21 0  0.5178486753915261 0.21 0  0.5253169776286404 0.21 0  0.5327852798657868 0.21 0  0.5402535821029386 0.21 0  0.54772188434007 0.21 0  0.5551901865771842 0.21 0  0.5626584888143201 0.21 0  0.5701267910514778 0.21 0  0.5775950932886138 0.21 0  0.5850633955257281 0.21 0  0.5925316977628483 0.21 0  0.6 0.2050000000000054 0  0.6 0.1950000000000217 0  0.5925316977628897 0.19 0  0.5850633955257988 0.19 0  0.5775950932887378 0.19 0  0.5701267910515998 0.19 0  0.5626584888145268 0.19 0  0.5551901865773963 0.19 0  0.547721884340339 0.19 0  0.5402535821032429 0.19 0  0.5327852798661811 0.19 0  0.5253169776290537 0.19 0  0.5178486753919799 0.19 0  0.5103803731549078 0.19 0  0.502912070917822 0.19 0  0.4954437686807294 0.19 0  0.4879754664436223 0.19 0  0.4805071642065402 0.19 0  0.4730388619694271 0.19 0  0.4655705597323621 0.19 0  0.4581022574952563 0.19 0  0.4506339552581777 0.19 0  0.4431656530210671 0.19 0  0.4356973507839815 0.19 0  0.4282290485468779 0.19 0  0.4207607463097617 0.19 0  0.4132924440726327 0.19 0  0.4058241418354857 0.19 0  0.3983558395983636 0.19 0  0.3908875373612097 0.19 0  0.3834192351240934 0.19 0  0.3759509328869369 0.19 0  0.3684826306498175 0.19 0  0.361014328412667 0.19 0  0.3535460261755617 0.19 0  0.3460777239384295 0.19 0  0.3386094217012945 0.19 0  0.3311411194641595 0.19 0  0.3236728172270245 0.19 0  0.3162045149898895 0.19 0  0.3087362127527544 0.19 0  0.3012679105156187 0.19 0  0.2937996082784807 0.19 0  0.2863313060413428 0.19 0  0.2788630038042048 0.19 0  0.2713947015670686 0.19 0  0.2639263993299336 0.19 0  0.2564580970927985 0.19 0  0.2607803159922026 0.2000727136295815 0  0.5887803774232762 0.2001272386983733 0  0.5745072403740523 0.2002044435018727 0  0.5511891430099709 0.2001122610077113 0  0.2751288526855082 0.20000000000002 0  0.5365194309847112 0.1999999999999436 0  0.2894621222999649 0.1998691686390484 0  0.5215828265105155 0.1999999999999228 0  0.3127789816668748 0.1998657885438805 0  0.3274069683451451 0.2000000000000796 0  0.5066462220363641 0.199999999999908 0  0.3650630746574081 0.199866017807523 0  0.476773013087985 0.1999999999998713 0  0.3417402379596385 0.1998691686391011 0  0.3796850840047755 0.200000000000134 0  0.4618364086138087 0.1999999999998546 0  0.4917096175621762 0.1999999999998808 0  0.3946216884789568 0.2000000000001512 0  0.446899804139621 0.1999999999998389 0  0.4089549580935208 0.1998691686391595 0  0.4322718174608562 0.200127451265745 0  0.4201487168029707 0.1999966199048527 0  0.3528922713220932 0.2000185703532356 0  0.5633122436674589 0.1999814296467508 0  0.3006558810093873 0.1999966199048318 0  0.5815926498168407 0.1966545283159175 0  0.2677053789419034 0.1964246479135325 0  0.5290511287476175 0.1970915826863981 0  0.5439877332217911 0.197091582686394 0  0.2825131256993216 0.2035478995978015 0  0.3199386661080599 0.202908417313604 0  0.4842413153250809 0.1970915826863873 0  0.5141145242734466 0.1970915826863843 0  0.3722167817676917 0.2029084173136195 0  0.4693047108508938 0.1970915826863783 0  0.3348752705822316 0.202908417313609 0  0.3871533862418661 0.2029084173136212 0  0.4543681063767183 0.1970915826863795 0  0.4991779197992749 0.1970915826863902 0  0.4020059614928624 0.203547899597858 0  0.4394315019025246 0.1970915826863714 0  0.2550657455369551 0.2034088125358657 0  0.2548908499171161 0.1966940311614271 0  0.5946539510196798 0.2024302972968126 0  0.267698176732111 0.2039977513680092 0  0.4261685417851465 0.196409292431739 0  0.3590076176283495 0.196411355804271 0  0.5571672426447437 0.2036011176410121 0  0.3066757059912147 0.1964092924317024 0  0.594380730180568 0.1966558399668133 0  0.4842413153245942 0.2040749161535287 0  0.4693047108503577 0.2040749161535231 0  0.3871533862424271 0.1959250838464788 0  0.372246743208829 0.1959123236376545 0  0.5141145242731028 0.2040749161535395 0  0.4543681063761134 0.2040749161535186 0  0.4019979587101454 0.1959834479682427 0  0.4394608940728603 0.2040870543693135 0  0.5439623148931173 0.2040856076781014 0  0.5290511287473298 0.2040749161535501 0  0.4991779197988497 0.2040749161535382 0  0.3347912413592433 0.1959225448935183 0  0.3199680582793816 0.1959123018030061 0  0.2825051229162361 0.1959834479681729 0  0.3590471196690275 0.2036304442587945 0  0.5571594006495384 0.1963685282145804 0  0.3067669986803285 0.203627750582736 0  0.4262598344738712 0.2036568242185335 0  0.5814408164431408 0.2041285596160068 0  0.5688286748170428 0.1961819304477386 0  0.4145905603063645 0.2038180695522843 0  0.3473758401724931 0.2038180695522752 0  0.2950977245128307 0.2038180695522663 0  0.5688286748170693 0.203818069552238 0  0.2950977245127906 0.1961819304477774 0  0.3473758401723931 0.1961819304478349 0  0.4145905603061963 0.1961819304479011 0  0.2601812407614425 0.2056861609747042
[...]
<PointData  Vectors="f_40-1"> 
<DataArray  type="Float64"  Name="f_40-1"  NumberOfComponents="3" format="ascii">0.0000000000000000e+00 0.0000000000000000e+00 0.0000000000000000e+00  0.0000000000000000e+00 0.0000000000000000e+00 0.0000000000000000e+00  0.0000000000000000e+00 0.0000000000000000e+00 0.0000000000000000e+00  0.0000000000000000e+00 0.0000000000000000e+00 0.0000000000000000e+00  1.5486890550498447e-05 -3.1494533958734123e-04 0.0000000000000000e+00  4.0875764366041372e-05 -3.1610110171892181e-04 0.0000000000000000e+00  0.0000000000000000e+00 0.0000000000000000e+00 0.0000000000000000e+00  0.0000000000000000e+00 0.0000000000000000e+00 0.0000000000000000e+00  0.0000000000000000e+00 0.0000000000000000e+00 0.0000000000000000e+00  0.0000000000000000e+00 0.0000000000000000e+00 0.0000000000000000e+00  2.7877960083774520e-05 -3.1552219236823483e-04 0.0000000000000000e+00  0.0000000000000000e+00 0.0000000000000000e+00 0.0000000000000000e+00  0.0000000000000000e+00 0.0000000000000000e+00 0.0000000000000000e+00  0.0000000000000000e+00 0.0000000000000000e+00 0.0000000000000000e+00  0.0000000000000000e+00 0.0000000000000000e+00 0.0000000000000000e+00  0.0000000000000000e+00 0.0000000000000000e+00 0.0000000000000000e+00  0.0000000000000000e+00 0.0000000000000000e+00 0.0000000000000000e+00  0.0000000000000000e+00 0.0000000000000000e+00 0.0000000000000000e+00  0.0000000000000000e+00 0.0000000000000000e+00 0.0000000000000000e+00  0.0000000000000000e+00 0.0000000000000000e+00 0.0000000000000000e+00  0.0000000000000000e+00 0.0000000000000000e+00 0.0000000000000000e+00  0.0000000000000000e+00 0.0000000000000000e+00 0.0000000000000000e+00  0.0000000000000000e+00 0.0000000000000000e+00 0.0000000000000000e+00  0.0000000000000000e+00 0.0000000000000000e+00 0.0000000000000000e+00  0.0000000000000000e+00 0.0000000000000000e+00 0.0000000000000000e+00  0.0000000000000000e+00 0.0000000000000000e+00 0.0000000000000000e+00  0.0000000000000000e+00 0.0000000000000000e+00 0.0000000000000000e+00  0.0000000000000000e+00 0.0000000000000000e+00 0.0000000000000000e+00  0.0000000000000000e+00 0.0000000000000000e+00 0.0000000000000000e+00  0.0000000000000000e+00 0.0000000000000000e+00 0.0000000000000000e+00  0.0000000000000000e+00 0.0000000000000000e+00 0.0000000000000000e+00  0.0000000000000000e+00 0.0000000000000000e+00 0.0000000000000000e+00  0.0000000000000000e+00 0.0000000000000000e+00 0.0000000000000000e+00  0.0000000000000000e+00 0.0000000000000000e+00 0.0000000000000000e+00  0.0000000000000000e+00 0.0000000000000000e+00 0.0000000000000000e+00  0.0000000000000000e+00 0.0000000000000000e+00 0.0000000000000000e+00  0.0000000000000000e+00 0.0000000000000000e+00 0.0000000000000000e+00  0.0000000000000000e+00 0.0000000000000000e+00 0.0000000000000000e+00  0.0000000000000000e+00 0.0000000000000000e+00 0.0000000000000000e+00  0.0000000000000000e+00 0.0000000000000000e+00 0.0000000000000000e+00  0.0000000000000000e+00 0.0000000000000000e+00 0.0000000000000000e+00  0.0000000000000000e+00 0.0000000000000000e+00 0.0000000000000000e+00  0.0000000000000000e+00 0.0000000000000000e+00 0.0000000000000000e+00  0.0000000000000000e+00 0.0000000000000000e+00 0.0000000000000000e+00  0.0000000000000000e+00 0.0000000000000000e+00 0.0000000000000000e+00  0.0000000000000000e+00 0.0000000000000000e+00 0.0000000000000000e+00  0.0000000000000000e+00 0.0000000000000000e+00 0.0000000000000000e+00  0.0000000000000000e+00 0.0000000000000000e+00 0.0000000000000000e+00  0.0000000000000000e+00 0.0000000000000000e+00 0.0000000000000000e+00  0.0000000000000000e+00 0.0000000000000000e+00 0.0000000000000000e+00  0.0000000000000000e+00 0.0000000000000000e+00 0.0000000000000000e+00  0.0000000000000000e+00 0.0000000000000000e+00 0.0000000000000000e+00  0.0000000000000000e+00 0.0000000000000000e+00 0.0000000000000000e+00  0.0000000000000000e+00 0.0000000000000000e+00 0.0000000000000000e+00  0.0000000000000000e+00 0.0000000000000000e+00 0.0000000000000000e+00  0.0000000000000000e+00 0.0000000000000000e+00 0.0000000000000000e+00  0.0000000000000000e+00 0.0000000000000000e+00 0.0000000000000000e+00  0.0000000000000000e+00 0.0000000000000000e+00 0.0000000000000000e+00  0.0000000000000000e+00 0.0000000000000000e+00 0.0000000000000000e+00  0.0000000000000000e+00 0.0000000000000000e+00 0.0000000000000000e+00  0.0000000000000000e+00 0.0000000000000000e+00 0.0000000000000000e+00  0.0000000000000000e+00 0.0000000000000000e+00 0.0000000000000000e+00  0.0000000000000000e+00 0.0000000000000000e+00 0.0000000000000000e+00  0.0000000000000000e+00 0.0000000000000000e+00 0.0000000000000000e+00  0.0000000000000000e+00 0.0000000000000000e+00 0.0000000000000000e+00  0.0000000000000000e+00 0.0000000000000000e+00 0.0000000000000000e+00  0.0000000000000000e+00 0.0000000000000000e+00 0.0000000000000000e+00  0.0000000000000000e+00 0.0000000000000000e+00 0.0000000000000000e+00  0.0000000000000000e+00 0.0000000000000000e+00 0.0000000000000000e+00  0.0000000000000000e+00 0.0000000000000000e+00 0.0000000000000000e+00  0.0000000000000000e+00 0.0000000000000000e+00 0.0000000000000000e+00  0.0000000000000000e+00 0.0000000000000000e+00 0.0000000000000000e+00  0.0000000000000000e+00 0.0000000000000000e+00 0.0000000000000000e+00  0.0000000000000000e+00 0.0000000000000000e+00 0.0000000000000000e+00  0.0000000000000000e+00 0.0000000000000000e+00 0.0000000000000000e+00  0.0000000000000000e+00 0.0000000000000000e+00 0.0000000000000000e+00  0.0000000000000000e+00 0.0000000000000000e+00 0.0000000000000000e+00  0.0000000000000000e+00 0.0000000000000000e+00 0.0000000000000000e+00  0.0000000000000000e+00 0.0000000000000000e+00 0.0000000000000000e+00  0.0000000000000000e+00 0.0000000000000000e+00 0.0000000000000000e+00  0.0000000000000000e+00 0.0000000000000000e+00 0.0000000000000000e+00  0.0000000000000000e+00 0.0000000000000000e+00 0.0000000000000000e+00  0.0000000000000000e+00 0.0000000000000000e+00 0.0000000000000000e+00  0.0000000000000000e+00 0.0000000000000000e+00 0.0000000000000000e+00  0.0000000000000000e+00 0.0000000000000000e+00 0.0000000000000000e+00  0.0000000000000000e+00 0.0000000000000000e+00 0.0000000000000000e+00  0.0000000000000000e+00 0.0000000000000000e+00 0.0000000000000000e+00  0.0000000000000000e+00 0.0000000000000000e+00 0.0000000000000000e+00  0.0000000000000000e+00 0.0000000000000000e+00 0.0000000000000000e+00  0.0000000000000000e+00 0.0000000000000000e+00 0.0000000000000000e+00  0.0000000000000000e+00 0.0000000000000000e+00 0.0000000000000000e+00  0.0000000000000000e+00 0.0000000000000000e+00 0.0000000000000000e+00  0.0000000000000000e+00 0.0000000000000000e+00 0.0000000000000000e+00  0.0000000000000000e+00 0.0000000000000000e+00 0.0000000000000000e+00  0.0000000000000000e+00 0.0000000000000000e+00 0.0000000000000000e+00  0.0000000000000000e+00 0.0000000000000000e+00 0.0000000000000000e+00  0.0000000000000000e+00 0.0000000000000000e+00 0.0000000000000000e+00  0.0000000000000000e+00 0.0000000000000000e+00 0.0000000000000000e+00  0.0000000000000000e+00 0.0000000000000000e+00 0.0000000000000000e+00  0.0000000000000000e+00 0.0000000000000000e+00 0.0000000000000000e+00  0.0000000000000000e+00 0.0000000000000000e+00 0.0000000000000000e+00  0.0000000000000000e+00 0.0000000000000000e+00 0.0000000000000000e+00  0.0000000000000000e+00 0.0000000000000000e+00 0.0000000000000000e+00  0.0000000000000000e+00 0.0000000000000000e+00 0.0000000000000000e+00  0.0000000000000000e+00 0.0000000000000000e+00 0.0000000000000000e+00  0.0000000000000000e+00 0.0000000000000000e+00 0.0000000000000000e+00  0.0000000000000000e+00 0.0000000000000000e+00 0.0000000000000000e+00  0.0000000000000000e+00 0.0000000000000000e+00 0.0000000000000000e+00  0.0000000000000000e+00 0.0000000000000000e+00 0.0000000000000000e+00  0.0000000000000000e+00 0.0000000000000000e+00 0.0000000000000000e+00  0.0000000000000000e+00 0.0000000000000000e+00 0.0000000000000000e+00  0.0000000000000000e+00 0.0000000000000000e+00 0.0000000000000000e+00  0.0000000000000000e+00 0.0000000000000000e+00 0.0000000000000000e+00  0.0000000000000000e+00 0.0000000000000000e+00 0.0000000000000000e+00  0.0000000000000000e+00 0.0000000000000000e+00 0.0000000000000000e+00  0.0000000000000000e+00 0.0000000000000000e+00 0.0000000000000000e+00  0.0000000000000000e+00 0.0000000000000000e+00 0.0000000000000000e+00  0.0000000000000000e+00 0.0000000000000000e+00 0.0000000000000000e+00  0.0000000000000000e+00 0.0000000000000000e+00 0.0000000000000000e+00  0.0000000000000000e+00 0.0000000000000000e+00 0.0000000000000000e+00  0.0000000000000000e+00 0.0000000000000000e+00 0.0000000000000000e+00  0.0000000000000000e+00 0.0000000000000000e+00 0.0000000000000000e+00  0.0000000000000000e+00 0.0000000000000000e+00 0.0000000000000000e+00  0.0000000000000000e+00 0.0000000000000000e+00 0.0000000000000000e+00  0.0000000000000000e+00 0.0000000000000000e+00 0.0000000000000000e+00  0.0000000000000000e+00 0.0000000000000000e+00 0.0000000000000000e+00  0.0000000000000000e+00 0.0000000000000000e+00 0.0000000000000000e+00  0.0000000000000000e+00 0.0000000000000000e+00 0.0000000000000000e+00  0.0000000000000000e+00 0.0000000000000000e+00 0.0000000000000000e+00  0.0000000000000000e+00 0.0000000000000000e+00 0.0000000000000000e+00  0.0000000000000000e+00 0.0000000000000000e+00 0.0000000000000000e+00  0.0000000000000000e+00 0.0000000000000000e+00 0.0000000000000000e+00  0.0000000000000000e+00 0.0000000000000000e+00 0.0000000000000000e+00  0.0000000000000000e+00 0.0000000000000000e+00 0.0000000000000000e+00  0.0000000000000000e+00 0.0000000000000000e+00 0.0000000000000000e+00  0.0000000000000000e+00 0.0000000000000000e+00 0.0000000000000000e+00  0.0000000000000000e+00 0.0000000000000000e+00 0.0000000000000000e+00  0.0000000000000000e+00 0.0000000000000000e+00 0.0000000000000000e+00  0.0000000000000000e+00 0.0000000000000000e+00 0.0000000000000000e+00  0.0000000000000000e+00 0.0000000000000000e+00 0.0000000000000000e+00  0.0000000000000000e+00 0.0000000000000000e+00 0.0000000000000000e+00  0.0000000000000000e+00 0.0000000000000000e+00 0.0000000000000000e+00  0.0000000000000000e+00 0.0000000000000000e+00 0.0000000000000000e+00  1.2221735276514983e-06 -1.6981461376634579e-06 0.0000000000000000e+00  2.6214511221488425e-06 -2.3055220832041497e-06 0.0000000000000000e+00  4.0831240611303997e-06 -3.2321544042459597e-06 0.0000000000000000e+00  5.6622474215263875e-06 -4.5383512063349980e-06 0.0000000000000000e+00  7.1838714425004545e-06 -6.2416113545905446e-06 0.0000000000000000e+00  8.8072265722824003e-06 -8.3884320637382332e-06 0.0000000000000000e+00  1.0320987156884723e-05 -1.0876141378034356e-05 0.0000000000000000e+00  1.1833378759917619e-05 -1.3826899867917575e-05 0.0000000000000000e+00  1.3439130267965078e-05 -1.7143202194171381e-05 0.0000000000000000e+00  1.4895526607042239e-05 -2.0847825603311409e-05 0.0000000000000000e+00  1.6467029524789995e-05 -2.4955357223336683e-05 0.0000000000000000e+00  1.7876001906460029e-05 -2.9431328099840879e-05 0.0000000000000000e+00  1.9366342752501674e-05 -3.4284456099491819e-05 0.0000000000000000e+00  2.0726408512855048e-05 -3.9444650880800243e-05 0.0000000000000000e+00  2.2055305894298472e-05 -4.4990528186394607e-05 0.0000000000000000e+00  2.3433141833759517e-05 -5.0837682713388618e-05 0.0000000000000000e+00  2.4660935495222927e-05 -5.6983422455552528e-05 0.0000000000000000e+00  2.5946324363242481e-05 -6.3451600559414725e-05 0.0000000000000000e+00  2.7082825349645168e-05 -7.0177514492539733e-05 0.0000000000000000e+00  2.8258607815115621e-05 -7.7184175595116909e-05 0.0000000000000000e+00  2.9316529603987138e-05 -8.4426217560070892e-05 0.0000000000000000e+00  3.0375218352696533e-05 -9.1924600718975522e-05 0.0000000000000000e+00  3.1334341753715078e-05 -9.9602370279538747e-05 0.0000000000000000e+00  3.2245763289735285e-05 -1.0751069060764979e-04 0.0000000000000000e+00  3.3158151844014098e-05 -1.1558308798313678e-04 0.0000000000000000e+00  3.3978485553111585e-05 -1.2382590397531343e-04 0.0000000000000000e+00  3.4762752960913241e-05 -1.3224823263787282e-04 0.0000000000000000e+00  3.5482376537719187e-05 -1.4078182648579805e-04 0.0000000000000000e+00  3.6164048877174370e-05 -1.4947139829675211e-04 0.0000000000000000e+00  3.6785670575200458e-05 -1.5824636543012387e-04 0.0000000000000000e+00  3.7368396599863511e-05 -1.6715102338696957e-04 0.0000000000000000e+00  3.7894636682810213e-05 -1.7611680255705673e-04 0.0000000000000000e+00  3.8382150672689914e-05 -1.8518895104773398e-04 0.0000000000000000e+00  3.8816678126010270e-05 -1.9430081893179492e-04 0.0000000000000000e+00  3.9211393754371063e-05 -2.0349978721089773e-04 0.0000000000000000e+00  3.9557597389674669e-05 -2.1272158396390062e-04 0.0000000000000000e+00  3.9865294252074006e-05 -2.2201236537247742e-04 0.0000000000000000e+00  4.0127474251508362e-05 -2.3131265600292278e-04 0.0000000000000000e+00  4.0350794093759050e-05 -2.4066801788228762e-04 0.0000000000000000e+00  4.0529559427121080e-05 -2.5002094915355311e-04 0.0000000000000000e+00  4.0665020482413276e-05 -2.5941069028467920e-04 0.0000000000000000e+00  4.0765855162528512e-05 -2.6880366072894049e-04 0.0000000000000000e+00  4.0824351047696067e-05 -2.7821265834004081e-04 0.0000000000000000e+00  4.0860753450356364e-05 -2.8762767631677671e-04 0.0000000000000000e+00  4.0850905814071832e-05 -2.9703461802333775e-04 0.0000000000000000e+00  4.0834791350759189e-05 -3.0648267848616353e-04 0.0000000000000000e+00  3.4270692136170760e-05 -3.1580890702145880e-04 0.0000000000000000e+00  2.1589449131939250e-05 -3.1523992799852702e-04 0.0000000000000000e+00  1.5461661782493741e-05 -3.0561071583577433e-04 0.0000000000000000e+00  1.5502940205994753e-05 -2.9611056172904710e-04 0.0000000000000000e+00  1.5534201073441494e-05 -2.8659324694750295e-04 0.0000000000000000e+00  1.5529261183870149e-05 -2.7710076566929003e-04 0.0000000000000000e+00  1.5501596026973669e-05 -2.6761650829252171e-04 0.0000000000000000e+00  1.5437532814752169e-05 -2.5814636073272018e-04 0.0000000000000000e+00  1.5354396110585693e-05 -2.4869673027120263e-04 0.0000000000000000e+00  1.5231081041284217e-05 -2.3925188135546363e-04 0.0000000000000000e+00  1.5089232773496269e-05 -2.2985297936428380e-04 0.0000000000000000e+00  1.4910688869263301e-05 -2.2046093787540281e-04 0.0000000000000000e+00  1.4720689299277377e-05 -2.1112676336683633e-04 0.0000000000000000e+00  1.4491971485421397e-05 -2.0181331360066452e-04 0.0000000000000000e+00  1.4259200861807271e-05 -1.9257182566462895e-04 0.0000000000000000e+00  1.3984689250960357e-05 -1.8336865767375158e-04 0.0000000000000000e+00  1.3715078832658525e-05 -1.7425450971254749e-04 0.0000000000000000e+00  1.3399031004039673e-05 -1.6519886282249623e-04 0.0000000000000000e+00  1.3097487122705896e-05 -1.5625267830143976e-04 0.0000000000000000e+00  1.2743887610006753e-05 -1.4738842382681252e-04 0.0000000000000000e+00  1.2415448348713294e-05 -1.3865773686650825e-04 0.0000000000000000e+00  1.2028203808589526e-05 -1.3003591990143456e-04 0.0000000000000000e+00  1.1678554045585534e-05 -1.2157488683121735e-04 0.0000000000000000e+00  1.1262437859353150e-05 -1.1325361224111273e-04 0.0000000000000000e+00  1.0886731199126202e-05 -1.0511840819420639e-04 0.0000000000000000e+00  1.0456792094093688e-05 -9.7148030639816868e-05 0.0000000000000000e+00  1.0009982379633297e-05 -8.9413990141116022e-05 0.0000000000000000e+00  9.6111720157708764e-06 -8.1856133371647626e-05 0.0000000000000000e+00  9.1592824826413771e-06 -7.4549895085595900e-05 0.0000000000000000e+00  8.7295936140568293e-06 -6.7497172344600919e-05 0.0000000000000000e+00  8.2635927645518280e-06 -6.0705032202650461e-05 0.0000000000000000e+00  7.8182085900572874e-06 -5.4205086602220729e-05 0.0000000000000000e+00  7.3379522174132941e-06 -4.7984041787109051e-05 0.0000000000000000e+00  6.9098403579027424e-06 -4.2120524383819851e-05 0.0000000000000000e+00  6.4041065209330485e-06 -3.6527520401465211e-05 0.0000000000000000e+00  5.8885779286240272e-06 -3.1336993868601702e-05 0.0000000000000000e+00  5.4533654826193701e-06 -2.6432193233414059e-05 0.0000000000000000e+00  4.9588965043632612e-06 -2.1934219746617316e-05 0.0000000000000000e+00  4.4982133549276564e-06 -1.7814418548376929e-05 0.0000000000000000e+00  3.9979105784650409e-06 -1.4070915232074494e-05 0.0000000000000000e+00  3.5667504831697191e-06 -1.0771596021227929e-05 0.0000000000000000e+00  3.0444835478177455e-06 -7.8096123534713348e-06 0.0000000000000000e+00  2.5150247030519841e-06 -5.3240900310391790e-06 0.0000000000000000e+00  2.0818210990715189e-06 -3.1740374792004585e-06 0.0000000000000000e+00  1.5720201816070291e-06 -1.4585471613325786e-06 0.0000000000000000e+00  1.1450015420587821e-06 -1.6236381306518468e-07 0.0000000000000000e+00  6.6954152792112247e-07 6.9710947983267102e-07 0.0000000000000000e+00  3.3665803707304571e-07 1.0814628563907652e-06 0.0000000000000000e+00  1.0104325653847376e-06 -2.8950736186203794e-07 0.0000000000000000e+00  2.8201474774429647e-05 -3.0128633204088860e-04 0.0000000000000000e+00  2.8401598901263981e-05 -2.8320295081138945e-04 0.0000000000000000e+00  2.8090699386666355e-05 -2.5372445045291150e-04 0.0000000000000000e+00  3.0969657923201951e-06 -2.0353427349404476e-06 0.0000000000000000e+00  2.7648657746029541e-05 -2.3524917093954497e-04 0.0000000000000000e+00  5.0216248924006868e-06 -5.2628231290580931e-06 0.0000000000000000e+00  2.7213500281705177e-05 -2.1654861375945030e-04 0.0000000000000000e+00  8.1668319696373912e-06 -1.3757748897211381e-05 0.0000000000000000e+00  1.0178861032557334e-05 -2.1095678032253807e-05 0.0000000000000000e+00  2.6645110183142710e-05 -1.9800272885096297e-04 0.0000000000000000e+00  1.4830847017785541e-05 -4.6459600559038633e-05 0.0000000000000000e+00  2.5113611536091919e-05 -1.6163658125848765e-04 0.0000000000000000e+00  1.1963222946929780e-05 -2.9668679647020962e-05 0.0000000000000000e+00  1.6633219948802256e-05 -5.8613203839896910e-05 0.0000000000000000e+00  2.4152805982867620e-05 -1.4397996675410212e-04 0.0000000000000000e+00  2.5944783761698599e-05 -1.7967357258198133e-04 0.0000000000000000e+00  1.8268002843551307e-05 -7.2150549465685332e-05 0.0000000000000000e+00  2.3062394038999076e-05 -1.2680573283156989e-04 0.0000000000000000e+00  1.9603388665816276e-05 -8.6096847880572064e-05 0.0000000000000000e+00  2.2014623297413926e-05 -1.1057539866903945e-04 0.0000000000000000e+00  2.0782515916734141e-05 -9.7636644852954656e-05 0.0000000000000000e+00  1.3456489970653312e-05 -3.7358157293199845e-05 0.0000000000000000e+00  2.8053002182567455e-05 -2.6902869382692911e-04 0.0000000000000000e+00  6.5766796031774745e-06 -8.9294583481804772e-06 0.0000000000000000e+00  2.3879773079933280e-05 -2.9201370416083889e-04 0.0000000000000000e+00  1.6075989597852709e-06 -4.1789971409167218e-07 0.0000000000000000e+00  2.3814995144491154e-05 -2.2566739115825410e-04 0.0000000000000000e+00  2.4161799526947199e-05 -2.4444382111022544e-04 0.0000000000000000e+00  4.9147329998753676e-06 -4.1078168315592506e-06 0.0000000000000000e+00  1.0636382432227756e-05 -1.7647939153968344e-05 0.0000000000000000e+00  2.2047261859461182e-05 -1.7034403930041444e-04 0.0000000000000000e+00  2.3344930097935714e-05 -2.0701879304069786e-04 0.0000000000000000e+00  1.8176420833420388e-05 -5.2704399859091986e-05 0.0000000000000000e+00  2.1227058229998252e-05 -1.5246830643946452e-04 0.0000000000000000e+00  1.2890007101888566e-05 -2.5872218726640850e-05 0.0000000000000000e+00  2.0081517202371683e-05 -6.5665028206288653e-05 0.0000000000000000e+00  2.0296669528107970e-05 -1.3502267767677019e-04 0.0000000000000000e+00  2.2754380791637611e-05 -1.8855464646120064e-04 0.0000000000000000e+00  2.2470794651023000e-05 -7.9722606473311763e-05 0.0000000000000000e+00  1.9257697602790220e-05 -1.1811517302961656e-04 0.0000000000000000e+00  3.9747704813212409e-07 -3.7819357025942539e-07 0.0000000000000000e+00  2.2948777551112125e-07 2.8576283674354368e-07 0.0000000000000000e+00  3.1040383172713144e-05 -3.0884307554802183e-04 0.0000000000000000e+00  2.5537900259787213e-06 -1.6267680982205400e-06 0.0000000000000000e+00  1.7526905