<?xml version="1.0"?>
<VTKFile type="UnstructuredGrid"  version="0.1"  >
<UnstructuredGrid>
<Piece  NumberOfPoints="1419" NumberOfCells="2698">
<Points>
<DataArray  type="Float64"  NumberOfComponents="3"  format="ascii">0 0 0  0 0.41 0  2.5 0 0  2.5 0.41 0  0.6 0.19 0  0.6 0.21 0  0.25 0.2 0  0.15 0.2 0  0.2489897948556636 0.21 0  0.2489897948556636 0.19 0  0.6 0.2 0  0 0.3807142857143437 0  0 0.3514285714286952 0  0 0.3221428571430699 0  0 0.29285714285744 0  0 0.2635714285718054 0  0 0.2342857142861561 0  0 0.2050000000005308 0  0 0.175714285714732 0  0 0.1464285714289574 0  0 0.1171428571431897 0  0 0.08785714285737878 0  0 0.05857142857161107 0  0 0.02928571428580012 0  0.03015443760436003 0 0  0.06140001986583606 0 0  0.09377624077125973 0 0  0.1273239957535082 0 0  0.1620856860351972 0 0  0.1981052433264291 0 0  0.235428184091502 0 0  0.2741016576309132 0 0  0.3141745521465447 0 0  0.3556974926295285 0 0  0.3987229542472677 0 0  0.4433053055141081 0 0  0.4895008759286886 0 0  0.5373680609405097 0 0  0.5869673343216626 0 0  0.6383613676634521 0 0  0.6916151138468254 0 0  0.7467958595648856 0 0  0.8039733463919316 0 0  0.8632198139502143 0 0  0.9246101326867038 0 0  0.9882218810934433 0 0  1.054135445558498 0 0  1.122434100542598 0 0  1.193204177141305 0 0  1.266535089879536 0 0  1.342519516046404 0 0  1.421253448503939 0 0  1.502836389106271 0 0  1.587371439758838 0 0  1.674965418777374 0 0  1.765729001825544 0 0  1.859776908880082 0 0  1.957227977487062 0 0  2.058205329869943 0 0  2.162836591189951 0 0  2.271253957290865 0 0  2.383594446803425 0 0  2.5 0.1024999999997612 0  2.5 0.2049999999994743 0  2.5 0.3074999999997183 0  2.383594446803656 0.41 0  2.271253957291315 0.41 0  2.162836591190598 0.41 0  2.058205329870775 0.41 0  1.957227977488067 0.41 0  1.859776908881246 0.41 0  1.765729001826854 0.41 0  1.674965418778818 0.41 0  1.58737143976041 0.41 0  1.502836389107956 0.41 0  1.421253448505726 0.41 0  1.342519516048286 0.41 0  1.266535089881505 0.41 0  1.193204177143353 0.41 0  1.122434100544716 0.41 0  1.05413544556068 0.41 0  0.9882218810956305 0.41 0  0.9246101326886647 0.41 0  0.8632198139519631 0.41 0  0.8039733463934788 0.41 0  0.7467958595662458 0.41 0  0.6916151138480078 0.41 0  0.6383613676644679 0.41 0  0.5869673343225223 0.41 0  0.5373680609412221 0.41 0  0.4895008759292634 0.41 0  0.4433053055145528 0.41 0  0.3987229542475914 0.41 0  0.3556974926297398 0.41 0  0.3141745521466497 0.41 0  0.2741016576310038 0.41 0  0.2354281840915826 0.41 0  0.1981052433265003 0.41 0  0.1620856860352591 0.41 0  0.1273239957535623 0.41 0  0.09377624077128965 0.41 0  0.06140001986584975 0.41 0  0.03015443760436654 0.41 0  0.2497468076502589 0.2050254481002335 0  0.2497468076502614 0.1949745518997913 0  0.2469965252529372 0.1829317073451959 0  0.2439893735792749 0.1762316384219906 0  0.2400332147834255 0.1700443375285386 0  0.2352133972704371 0.1645032867342007 0  0.2296339016332438 0.1597280261969788 0  0.2234150974217223 0.1558215752574715 0  0.2166911463437691 0.1528682099456123 0  0.2096071079204251 0.1509316448471593 0  0.2023158100364996 0.1500536585536553 0  0.194974551899914 0.1502531923497262 0  0.1877417105387872 0.1515259415822739 0  0.1807733240461124 0.153844448527136 0  0.1742197252835808 0.15715869474974 0  0.1682222986673531 0.1613971801805478 0  0.162910430003803 0.1664684656256651 0  0.1583987151779087 0.1722631454351573 0  0.1547844879126891 0.178656207771761 0  0.1521457199348551 0.1855097315605723 0  0.1505393388476355 0.1926758619366523 0  0.1505393388476328 0.2073241380633295 0  0.1521457199348437 0.2144902684393899 0  0.1547844879126531 0.221343792228163 0  0.1583987151778488 0.2277368545647528 0  0.1629104300036858 0.2335315343742052 0  0.1682222986671726 0.2386028198193036 0  0.1742197252833576 0.2428413052501257 0  0.1807733240458683 0.2461555514727623 0  0.1877417105384929 0.2484740584176516 0  0.1949745518995776 0.2497468076502398 0  0.202315810036185 0.2499463414463592 0  0.2096071079201568 0.2490683551528932 0  0.2166911463435495 0.2471317900544655 0  0.2234150974215506 0.2441784247426195 0  0.2296339016331197 0.2402719738031125 0  0.2352133972703547 0.2354967132658811 0  0.2400332147833751 0.2299556624715287 0  0.2439893735792577 0.2237683615780412 0  0.246996525252926 0.2170682926548348 0  0.25645809709277 0.21 0  0.2639263993298655 0.21 0  0.271394701566961 0.21 0  0.2788630038040554 0.21 0  0.2863313060411479 0.21 0  0.2937996082782405 0.21 0  0.301267910515333 0.21 0  0.3087362127524279 0.21 0  0.3162045149895234 0.21 0  0.3236728172265972 0.21 0  0.3311411194636928 0.21 0  0.3386094217007701 0.21 0  0.3460777239378666 0.21 0  0.3535460261749672 0.21 0  0.3610143284120516 0.21 0  0.3684826306491596 0.21 0  0.3759509328862226 0.21 0  0.383419235123329 0.21 0  0.3908875373604028 0.21 0  0.3983558395975142 0.21 0  0.4058241418345938 0.21 0  0.4132924440716992 0.21 0  0.4207607463087888 0.21 0  0.4282290485459029 0.21 0  0.4356973507830418 0.21 0  0.4431656530201649 0.21 0  0.4506339552573136 0.21 0  0.4581022574944306 0.21 0  0.4655705597315852 0.21 0  0.4730388619686996 0.21 0  0.480507164205851 0.21 0  0.4879754664429498 0.21 0  0.4954437686800938 0.21 0  0.502912070917267 0.21 0  0.5103803731544119 0.21 0  0.5178486753915261 0.21 0  0.5253169776286404 0.21 0  0.5327852798657868 0.21 0  0.5402535821029386 0.21 0  0.54772188434007 0.21 0  0.5551901865771842 0.21 0  0.5626584888143201 0.21 0  0.5701267910514778 0.21 0  0.5775950932886138 0.21 0  0.5850633955257281 0.21 0  0.5925316977628483 0.21 0  0.6 0.2050000000000054 0  0.6 0.1950000000000217 0  0.5925316977628897 0.19 0  0.5850633955257988 0.19 0  0.5775950932887378 0.19 0  0.5701267910515998 0.19 0  0.5626584888145268 0.19 0  0.5551901865773963 0.19 0  0.547721884340339 0.19 0  0.5402535821032429 0.19 0  0.5327852798661811 0.19 0  0.5253169776290537 0.19 0  0.5178486753919799 0.19 0  0.5103803731549078 0.19 0  0.502912070917822 0.19 0  0.4954437686807294 0.19 0  0.4879754664436223 0.19 0  0.4805071642065402 0.19 0  0.4730388619694271 0.19 0  0.4655705597323621 0.19 0  0.4581022574952563 0.19 0  0.4506339552581777 0.19 0  0.4431656530210671 0.19 0  0.4356973507839815 0.19 0  0.4282290485468779 0.19 0  0.4207607463097617 0.19 0  0.4132924440726327 0.19 0  0.4058241418354857 0.19 0  0.3983558395983636 0.19 0  0.3908875373612097 0.19 0  0.3834192351240934 0.19 0  0.3759509328869369 0.19 0  0.3684826306498175 0.19 0  0.361014328412667 0.19 0  0.3535460261755617 0.19 0  0.3460777239384295 0.19 0  0.3386094217012945 0.19 0  0.3311411194641595 0.19 0  0.3236728172270245 0.19 0  0.3162045149898895 0.19 0  0.3087362127527544 0.19 0  0.3012679105156187 0.19 0  0.2937996082784807 0.19 0  0.2863313060413428 0.19 0  0.2788630038042048 0.19 0  0.2713947015670686 0.19 0  0.2639263993299336 0.19 0  0.2564580970927985 0.19 0  0.2607803159922026 0.2000727136295815 0  0.5887803774232762 0.2001272386983733 0  0.5745072403740523 0.2002044435018727 0  0.5511891430099709 0.2001122610077113 0  0.2751288526855082 0.20000000000002 0  0.5365194309847112 0.1999999999999436 0  0.2894621222999649 0.1998691686390484 0  0.5215828265105155 0.1999999999999228 0  0.3127789816668748 0.1998657885438805 0  0.3274069683451451 0.2000000000000796 0  0.5066462220363641 0.199999999999908 0  0.3650630746574081 0.199866017807523 0  0.476773013087985 0.1999999999998713 0  0.3417402379596385 0.1998691686391011 0  0.3796850840047755 0.200000000000134 0  0.4618364086138087 0.1999999999998546 0  0.4917096175621762 0.1999999999998808 0  0.3946216884789568 0.2000000000001512 0  0.446899804139621 0.1999999999998389 0  0.4089549580935208 0.1998691686391595 0  0.4322718174608562 0.200127451265745 0  0.4201487168029707 0.1999966199048527 0  0.3528922713220932 0.2000185703532356 0  0.5633122436674589 0.1999814296467508 0  0.3006558810093873 0.1999966199048318 0  0.5815926498168407 0.1966545283159175 0  0.2677053789419034 0.1964246479135325 0  0.5290511287476175 0.1970915826863981 0  0.5439877332217911 0.197091582686394 0  0.2825131256993216 0.2035478995978015 0  0.3199386661080599 0.202908417313604 0  0.4842413153250809 0.1970915826863873 0  0.5141145242734466 0.1970915826863843 0  0.3722167817676917 0.2029084173136195 0  0.4693047108508938 0.1970915826863783 0  0.3348752705822316 0.202908417313609 0  0.3871533862418661 0.2029084173136212 0  0.4543681063767183 0.1970915826863795 0  0.4991779197992749 0.1970915826863902 0  0.4020059614928624 0.203547899597858 0  0.4394315019025246 0.1970915826863714 0  0.2550657455369551 0.2034088125358657 0  0.2548908499171161 0.1966940311614271 0  0.5946539510196798 0.2024302972968126 0  0.267698176732111 0.2039977513680092 0  0.4261685417851465 0.196409292431739 0  0.3590076176283495 0.196411355804271 0  0.5571672426447437 0.2036011176410121 0  0.3066757059912147 0.1964092924317024 0  0.594380730180568 0.1966558399668133 0  0.4842413153245942 0.2040749161535287 0  0.4693047108503577 0.2040749161535231 0  0.3871533862424271 0.1959250838464788 0  0.372246743208829 0.1959123236376545 0  0.5141145242731028 0.2040749161535395 0  0.4543681063761134 0.2040749161535186 0  0.4019979587101454 0.1959834479682427 0  0.4394608940728603 0.2040870543693135 0  0.5439623148931173 0.2040856076781014 0  0.5290511287473298 0.2040749161535501 0  0.4991779197988497 0.2040749161535382 0  0.3347912413592433 0.1959225448935183 0  0.3199680582793816 0.1959123018030061 0  0.2825051229162361 0.1959834479681729 0  0.3590471196690275 0.2036304442587945 0  0.5571594006495384 0.1963685282145804 0  0.3067669986803285 0.203627750582736 0  0.4262598344738712 0.2036568242185335 0  0.5814408164431408 0.2041285596160068 0  0.5688286748170428 0.1961819304477386 0  0.4145905603063645 0.2038180695522843 0  0.3473758401724931 0.2038180695522752 0  0.2950977245128307 0.2038180695522663 0  0.5688286748170693 0.203818069552238 0  0.2950977245127906 0.1961819304477774 0  0.3473758401723931 0.1961819304478349 0  0.4145905603061963 0.1961819304479011 0  0.2601812407614425 0.2056861609747042
[...]
<PointData  Vectors="f_40-1"> 
<DataArray  type="Float64"  Name="f_40-1"  NumberOfComponents="3" format="ascii">0.0000000000000000e+00 0.0000000000000000e+00 0.0000000000000000e+00  0.0000000000000000e+00 0.0000000000000000e+00 0.0000000000000000e+00  0.0000000000000000e+00 0.0000000000000000e+00 0.0000000000000000e+00  0.0000000000000000e+00 0.0000000000000000e+00 0.0000000000000000e+00  -5.6468203627689721e-07 -4.6296978209333877e-08 0.0000000000000000e+00  -5.5525898023118024e-07 -8.6841634498960243e-08 0.0000000000000000e+00  0.0000000000000000e+00 0.0000000000000000e+00 0.0000000000000000e+00  0.0000000000000000e+00 0.0000000000000000e+00 0.0000000000000000e+00  0.0000000000000000e+00 0.0000000000000000e+00 0.0000000000000000e+00  0.0000000000000000e+00 0.0000000000000000e+00 0.0000000000000000e+00  -5.6002006131281188e-07 -6.6572113403840449e-08 0.0000000000000000e+00  0.0000000000000000e+00 0.0000000000000000e+00 0.0000000000000000e+00  0.0000000000000000e+00 0.0000000000000000e+00 0.0000000000000000e+00  0.0000000000000000e+00 0.0000000000000000e+00 0.0000000000000000e+00  0.0000000000000000e+00 0.0000000000000000e+00 0.0000000000000000e+00  0.0000000000000000e+00 0.0000000000000000e+00 0.0000000000000000e+00  0.0000000000000000e+00 0.0000000000000000e+00 0.0000000000000000e+00  0.0000000000000000e+00 0.0000000000000000e+00 0.0000000000000000e+00  0.0000000000000000e+00 0.0000000000000000e+00 0.0000000000000000e+00  0.0000000000000000e+00 0.0000000000000000e+00 0.0000000000000000e+00  0.0000000000000000e+00 0.0000000000000000e+00 0.0000000000000000e+00  0.0000000000000000e+00 0.0000000000000000e+00 0.0000000000000000e+00  0.0000000000000000e+00 0.0000000000000000e+00 0.0000000000000000e+00  0.0000000000000000e+00 0.0000000000000000e+00 0.0000000000000000e+00  0.0000000000000000e+00 0.0000000000000000e+00 0.0000000000000000e+00  0.0000000000000000e+00 0.0000000000000000e+00 0.0000000000000000e+00  0.0000000000000000e+00 0.0000000000000000e+00 0.0000000000000000e+00  0.0000000000000000e+00 0.0000000000000000e+00 0.0000000000000000e+00  0.0000000000000000e+00 0.0000000000000000e+00 0.0000000000000000e+00  0.0000000000000000e+00 0.0000000000000000e+00 0.0000000000000000e+00  0.0000000000000000e+00 0.0000000000000000e+00 0.0000000000000000e+00  0.0000000000000000e+00 0.0000000000000000e+00 0.0000000000000000e+00  0.0000000000000000e+00 0.0000000000000000e+00 0.0000000000000000e+00  0.0000000000000000e+00 0.0000000000000000e+00 0.0000000000000000e+00  0.0000000000000000e+00 0.0000000000000000e+00 0.0000000000000000e+00  0.0000000000000000e+00 0.0000000000000000e+00 0.0000000000000000e+00  0.0000000000000000e+00 0.0000000000000000e+00 0.0000000000000000e+00  0.0000000000000000e+00 0.0000000000000000e+00 0.0000000000000000e+00  0.0000000000000000e+00 0.0000000000000000e+00 0.0000000000000000e+00  0.0000000000000000e+00 0.0000000000000000e+00 0.0000000000000000e+00  0.0000000000000000e+00 0.0000000000000000e+00 0.0000000000000000e+00  0.0000000000000000e+00 0.0000000000000000e+00 0.0000000000000000e+00  0.0000000000000000e+00 0.0000000000000000e+00 0.0000000000000000e+00  0.0000000000000000e+00 0.0000000000000000e+00 0.0000000000000000e+00  0.0000000000000000e+00 0.0000000000000000e+00 0.0000000000000000e+00  0.0000000000000000e+00 0.0000000000000000e+00 0.0000000000000000e+00  0.0000000000000000e+00 0.0000000000000000e+00 0.0000000000000000e+00  0.0000000000000000e+00 0.0000000000000000e+00 0.0000000000000000e+00  0.0000000000000000e+00 0.0000000000000000e+00 0.0000000000000000e+00  0.0000000000000000e+00 0.0000000000000000e+00 0.0000000000000000e+00  0.0000000000000000e+00 0.0000000000000000e+00 0.0000000000000000e+00  0.0000000000000000e+00 0.0000000000000000e+00 0.0000000000000000e+00  0.0000000000000000e+00 0.0000000000000000e+00 0.0000000000000000e+00  0.0000000000000000e+00 0.0000000000000000e+00 0.0000000000000000e+00  0.0000000000000000e+00 0.0000000000000000e+00 0.0000000000000000e+00  0.0000000000000000e+00 0.0000000000000000e+00 0.0000000000000000e+00  0.0000000000000000e+00 0.0000000000000000e+00 0.0000000000000000e+00  0.0000000000000000e+00 0.0000000000000000e+00 0.0000000000000000e+00  0.0000000000000000e+00 0.0000000000000000e+00 0.0000000000000000e+00  0.0000000000000000e+00 0.0000000000000000e+00 0.0000000000000000e+00  0.0000000000000000e+00 0.0000000000000000e+00 0.0000000000000000e+00  0.0000000000000000e+00 0.0000000000000000e+00 0.0000000000000000e+00  0.0000000000000000e+00 0.0000000000000000e+00 0.0000000000000000e+00  0.0000000000000000e+00 0.0000000000000000e+00 0.0000000000000000e+00  0.0000000000000000e+00 0.0000000000000000e+00 0.0000000000000000e+00  0.0000000000000000e+00 0.0000000000000000e+00 0.0000000000000000e+00  0.0000000000000000e+00 0.0000000000000000e+00 0.0000000000000000e+00  0.0000000000000000e+00 0.0000000000000000e+00 0.0000000000000000e+00  0.0000000000000000e+00 0.0000000000000000e+00 0.0000000000000000e+00  0.0000000000000000e+00 0.0000000000000000e+00 0.0000000000000000e+00  0.0000000000000000e+00 0.0000000000000000e+00 0.0000000000000000e+00  0.0000000000000000e+00 0.0000000000000000e+00 0.0000000000000000e+00  0.0000000000000000e+00 0.0000000000000000e+00 0.0000000000000000e+00  0.0000000000000000e+00 0.0000000000000000e+00 0.0000000000000000e+00  0.0000000000000000e+00 0.0000000000000000e+00 0.0000000000000000e+00  0.0000000000000000e+00 0.0000000000000000e+00 0.0000000000000000e+00  0.0000000000000000e+00 0.0000000000000000e+00 0.0000000000000000e+00  0.0000000000000000e+00 0.0000000000000000e+00 0.0000000000000000e+00  0.0000000000000000e+00 0.0000000000000000e+00 0.0000000000000000e+00  0.0000000000000000e+00 0.0000000000000000e+00 0.0000000000000000e+00  0.0000000000000000e+00 0.0000000000000000e+00 0.0000000000000000e+00  0.0000000000000000e+00 0.0000000000000000e+00 0.0000000000000000e+00  0.0000000000000000e+00 0.0000000000000000e+00 0.0000000000000000e+00  0.0000000000000000e+00 0.0000000000000000e+00 0.0000000000000000e+00  0.0000000000000000e+00 0.0000000000000000e+00 0.0000000000000000e+00  0.0000000000000000e+00 0.0000000000000000e+00 0.0000000000000000e+00  0.0000000000000000e+00 0.0000000000000000e+00 0.0000000000000000e+00  0.0000000000000000e+00 0.0000000000000000e+00 0.0000000000000000e+00  0.0000000000000000e+00 0.0000000000000000e+00 0.0000000000000000e+00  0.0000000000000000e+00 0.0000000000000000e+00 0.0000000000000000e+00  0.0000000000000000e+00 0.0000000000000000e+00 0.0000000000000000e+00  0.0000000000000000e+00 0.0000000000000000e+00 0.0000000000000000e+00  0.0000000000000000e+00 0.0000000000000000e+00 0.0000000000000000e+00  0.0000000000000000e+00 0.0000000000000000e+00 0.0000000000000000e+00  0.0000000000000000e+00 0.0000000000000000e+00 0.0000000000000000e+00  0.0000000000000000e+00 0.0000000000000000e+00 0.0000000000000000e+00  0.0000000000000000e+00 0.0000000000000000e+00 0.0000000000000000e+00  0.0000000000000000e+00 0.0000000000000000e+00 0.0000000000000000e+00  0.0000000000000000e+00 0.0000000000000000e+00 0.0000000000000000e+00  0.0000000000000000e+00 0.0000000000000000e+00 0.0000000000000000e+00  0.0000000000000000e+00 0.0000000000000000e+00 0.0000000000000000e+00  0.0000000000000000e+00 0.0000000000000000e+00 0.0000000000000000e+00  0.0000000000000000e+00 0.0000000000000000e+00 0.0000000000000000e+00  0.0000000000000000e+00 0.0000000000000000e+00 0.0000000000000000e+00  0.0000000000000000e+00 0.0000000000000000e+00 0.0000000000000000e+00  0.0000000000000000e+00 0.0000000000000000e+00 0.0000000000000000e+00  0.0000000000000000e+00 0.0000000000000000e+00 0.0000000000000000e+00  0.0000000000000000e+00 0.0000000000000000e+00 0.0000000000000000e+00  0.0000000000000000e+00 0.0000000000000000e+00 0.0000000000000000e+00  0.0000000000000000e+00 0.0000000000000000e+00 0.0000000000000000e+00  0.0000000000000000e+00 0.0000000000000000e+00 0.0000000000000000e+00  0.0000000000000000e+00 0.0000000000000000e+00 0.0000000000000000e+00  0.0000000000000000e+00 0.0000000000000000e+00 0.0000000000000000e+00  0.0000000000000000e+00 0.0000000000000000e+00 0.0000000000000000e+00  0.0000000000000000e+00 0.0000000000000000e+00 0.0000000000000000e+00  0.0000000000000000e+00 0.0000000000000000e+00 0.0000000000000000e+00  0.0000000000000000e+00 0.0000000000000000e+00 0.0000000000000000e+00  0.0000000000000000e+00 0.0000000000000000e+00 0.0000000000000000e+00  0.0000000000000000e+00 0.0000000000000000e+00 0.0000000000000000e+00  0.0000000000000000e+00 0.0000000000000000e+00 0.0000000000000000e+00  0.0000000000000000e+00 0.0000000000000000e+00 0.0000000000000000e+00  0.0000000000000000e+00 0.0000000000000000e+00 0.0000000000000000e+00  0.0000000000000000e+00 0.0000000000000000e+00 0.0000000000000000e+00  0.0000000000000000e+00 0.0000000000000000e+00 0.0000000000000000e+00  0.0000000000000000e+00 0.0000000000000000e+00 0.0000000000000000e+00  0.0000000000000000e+00 0.0000000000000000e+00 0.0000000000000000e+00  0.0000000000000000e+00 0.0000000000000000e+00 0.0000000000000000e+00  0.0000000000000000e+00 0.0000000000000000e+00 0.0000000000000000e+00  0.0000000000000000e+00 0.0000000000000000e+00 0.0000000000000000e+00  0.0000000000000000e+00 0.0000000000000000e+00 0.0000000000000000e+00  0.0000000000000000e+00 0.0000000000000000e+00 0.0000000000000000e+00  0.0000000000000000e+00 0.0000000000000000e+00 0.0000000000000000e+00  0.0000000000000000e+00 0.0000000000000000e+00 0.0000000000000000e+00  0.0000000000000000e+00 0.0000000000000000e+00 0.0000000000000000e+00  0.0000000000000000e+00 0.0000000000000000e+00 0.0000000000000000e+00  0.0000000000000000e+00 0.0000000000000000e+00 0.0000000000000000e+00  0.0000000000000000e+00 0.0000000000000000e+00 0.0000000000000000e+00  0.0000000000000000e+00 0.0000000000000000e+00 0.0000000000000000e+00  0.0000000000000000e+00 0.0000000000000000e+00 0.0000000000000000e+00  0.0000000000000000e+00 0.0000000000000000e+00 0.0000000000000000e+00  0.0000000000000000e+00 0.0000000000000000e+00 0.0000000000000000e+00  0.0000000000000000e+00 0.0000000000000000e+00 0.0000000000000000e+00  0.0000000000000000e+00 0.0000000000000000e+00 0.0000000000000000e+00  -2.1480908249254720e-08 -4.4654892324963357e-09 0.0000000000000000e+00  -4.2043085793445976e-08 -6.9686208850502342e-09 0.0000000000000000e+00  -6.1665214588298235e-08 -1.1216563792292270e-08 0.0000000000000000e+00  -7.9748847049636153e-08 -1.3602068299885345e-08 0.0000000000000000e+00  -9.6825113950552650e-08 -1.6651195355135313e-08 0.0000000000000000e+00  -1.1253759090811419e-07 -1.8671736430535169e-08 0.0000000000000000e+00  -1.2753625238010196e-07 -2.2415625199423548e-08 0.0000000000000000e+00  -1.3982860215268850e-07 -2.5717542552181105e-08 0.0000000000000000e+00  -1.5137845314473302e-07 -2.6523615136773338e-08 0.0000000000000000e+00  -1.6218199051262085e-07 -2.7040045091182296e-08 0.0000000000000000e+00  -1.7260763179341329e-07 -2.6840877795334287e-08 0.0000000000000000e+00  -1.8274153998636058e-07 -2.6533155186828181e-08 0.0000000000000000e+00  -1.9268937208318966e-07 -2.6023130073426552e-08 0.0000000000000000e+00  -2.0251410470273934e-07 -2.5671258148697155e-08 0.0000000000000000e+00  -2.1203714024903781e-07 -2.5300182755443212e-08 0.0000000000000000e+00  -2.2144260864516775e-07 -2.4731357941216264e-08 0.0000000000000000e+00  -2.3075874223891859e-07 -2.4236974080047819e-08 0.0000000000000000e+00  -2.3996467263311874e-07 -2.3760083166034107e-08 0.0000000000000000e+00  -2.4915190645805700e-07 -2.3427655659125648e-08 0.0000000000000000e+00  -2.5826008551316652e-07 -2.3206806452047877e-08 0.0000000000000000e+00  -2.6739397100280455e-07 -2.3166083907514052e-08 0.0000000000000000e+00  -2.7651262771405590e-07 -2.3324746876511448e-08 0.0000000000000000e+00  -2.8571946141410890e-07 -2.3536294018713242e-08 0.0000000000000000e+00  -2.9518954984787367e-07 -2.4068996465394064e-08 0.0000000000000000e+00  -3.0470552122204131e-07 -2.5116632290756600e-08 0.0000000000000000e+00  -3.1439708295949596e-07 -2.6391879281068349e-08 0.0000000000000000e+00  -3.2420790441914275e-07 -2.8063106769052565e-08 0.0000000000000000e+00  -3.3416867528332870e-07 -2.9873722832605737e-08 0.0000000000000000e+00  -3.4425479187659624e-07 -3.2034693526263211e-08 0.0000000000000000e+00  -3.5449956850226002e-07 -3.4277290158099113e-08 0.0000000000000000e+00  -3.6488419005482667e-07 -3.6841564186495678e-08 0.0000000000000000e+00  -3.7543686309555912e-07 -3.9435836698778356e-08 0.0000000000000000e+00  -3.8614068706442156e-07 -4.2320248935784144e-08 0.0000000000000000e+00  -3.9701675445808365e-07 -4.5188640882450895e-08 0.0000000000000000e+00  -4.0804959463401709e-07 -4.8310640209619471e-08 0.0000000000000000e+00  -4.1925398179518234e-07 -5.1376300572237287e-08 0.0000000000000000e+00  -4.3061741676562945e-07 -5.4653474401937845e-08 0.0000000000000000e+00  -4.4215040856603450e-07 -5.7833274743838348e-08 0.0000000000000000e+00  -4.5385171833033887e-07 -6.1174400830681768e-08 0.0000000000000000e+00  -4.6574348657303990e-07 -6.4339476067708463e-08 0.0000000000000000e+00  -4.7785413492390105e-07 -6.7599474145635411e-08 0.0000000000000000e+00  -4.9014079482893105e-07 -7.0423022436329536e-08 0.0000000000000000e+00  -5.0295776117706036e-07 -7.3286289245688777e-08 0.0000000000000000e+00  -5.1588802357042467e-07 -7.6586510450740899e-08 0.0000000000000000e+00  -5.2895720991579692e-07 -7.9944103005096366e-08 0.0000000000000000e+00  -5.4209553144661533e-07 -8.3382446488463891e-08 0.0000000000000000e+00  -5.5765086971760414e-07 -7.6705535139898390e-08 0.0000000000000000e+00  -5.6236398456335453e-07 -5.6435742012626085e-08 0.0000000000000000e+00  -5.5152493811944231e-07 -4.2839746405574910e-08 0.0000000000000000e+00  -5.3839367683485096e-07 -3.9354092350820830e-08 0.0000000000000000e+00  -5.2532182194738595e-07 -3.5761901955631145e-08 0.0000000000000000e+00  -5.1238182355256552e-07 -3.2086214796183907e-08 0.0000000000000000e+00  -4.9954979595646319e-07 -2.7930524730073706e-08 0.0000000000000000e+00  -4.8723947919132773e-07 -2.3683752380246688e-08 0.0000000000000000e+00  -4.7508856677100035e-07 -1.9865297651782203e-08 0.0000000000000000e+00  -4.6314171848627954e-07 -1.5975232796910762e-08 0.0000000000000000e+00  -4.5132540902355342e-07 -1.2267018770659231e-08 0.0000000000000000e+00  -4.3965874367070552e-07 -8.4779506277533247e-09 0.0000000000000000e+00  -4.2808917766254033e-07 -4.8615161513914414e-09 0.0000000000000000e+00  -4.1666255743685162e-07 -1.1895701549868251e-09 0.0000000000000000e+00  -4.0531847802532900e-07 2.2734125129026245e-09 0.0000000000000000e+00  -3.9412351282724352e-07 5.7489323484878177e-09 0.0000000000000000e+00  -3.8299708335469206e-07 8.9696087444906285e-09 0.0000000000000000e+00  -3.7202684194209033e-07 1.2150313255605392e-08 0.0000000000000000e+00  -3.6110909061456440e-07 1.5032695792752692e-08 0.0000000000000000e+00  -3.5035184835691802e-07 1.7819609496295207e-08 0.0000000000000000e+00  -3.3963081457385902e-07 2.0272450974788649e-08 0.0000000000000000e+00  -3.2907373013848115e-07 2.2580377544208870e-08 0.0000000000000000e+00  -3.1854368502589000e-07 2.4529711731966032e-08 0.0000000000000000e+00  -3.0819083031050068e-07 2.6310741567618109e-08 0.0000000000000000e+00  -2.9789814503468291e-07 2.7717105257833100e-08 0.0000000000000000e+00  -2.8776779217493234e-07 2.9039396498700025e-08 0.0000000000000000e+00  -2.7794806090345712e-07 2.9927108592056047e-08 0.0000000000000000e+00  -2.6816340158726604e-07 3.0286455615798492e-08 0.0000000000000000e+00  -2.5851100340003576e-07 3.0346516751709585e-08 0.0000000000000000e+00  -2.4890625154099748e-07 3.0140649284753930e-08 0.0000000000000000e+00  -2.3935142396785273e-07 2.9755721768068445e-08 0.0000000000000000e+00  -2.2981719206709788e-07 2.9205655497690986e-08 0.0000000000000000e+00  -2.2028500870236673e-07 2.8506128145353251e-08 0.0000000000000000e+00  -2.1072655644980074e-07 2.7723934016521791e-08 0.0000000000000000e+00  -2.0113295717423905e-07 2.6731801329085313e-08 0.0000000000000000e+00  -1.9132153269450674e-07 2.5725091437030166e-08 0.0000000000000000e+00  -1.8145031862586411e-07 2.4897371782306353e-08 0.0000000000000000e+00  -1.7143220270649868e-07 2.3994006134384320e-08 0.0000000000000000e+00  -1.6120478894542153e-07 2.3137516773978380e-08 0.0000000000000000e+00  -1.5055824224527953e-07 2.1736784221655488e-08 0.0000000000000000e+00  -1.3924454656887034e-07 2.0330748151030399e-08 0.0000000000000000e+00  -1.2717239488126694e-07 1.6850864451895094e-08 0.0000000000000000e+00  -1.1237706229397597e-07 1.3375739990640025e-08 0.0000000000000000e+00  -9.6872001047076661e-08 1.1960222789309758e-08 0.0000000000000000e+00  -7.9933776822110261e-08 9.7788024979533957e-09 0.0000000000000000e+00  -6.1909231836196768e-08 8.4309705254488336e-09 0.0000000000000000e+00  -4.2292605550506747e-08 5.1246712199546253e-09 0.0000000000000000e+00  -2.1642434478944790e-08 3.5158543540487465e-09 0.0000000000000000e+00  -3.4321767033737841e-08 -7.3284700655991550e-10 0.0000000000000000e+00  -5.4016410248892377e-07 -6.1635004027742152e-08 0.0000000000000000e+00  -5.1501591624077925e-07 -5.5151087537528829e-08 0.0000000000000000e+00  -4.7576327566558265e-07 -4.3988924672074361e-08 0.0000000000000000e+00  -7.2396388462087416e-08 -1.6585568664610151e-09 0.0000000000000000e+00  -4.5249066055610753e-07 -3.6789452069916758e-08 0.0000000000000000e+00  -1.0508903365226473e-07 -2.3380768100697614e-09 0.0000000000000000e+00  -4.2929813713615391e-07 -2.9795718700468077e-08 0.0000000000000000e+00  -1.4680087495802556e-07 -2.2628085131807172e-09 0.0000000000000000e+00  -1.6718313246106187e-07 -1.7346485488612624e-09 0.0000000000000000e+00  -4.0665550722179555e-07 -2.3029656643659554e-08 0.0000000000000000e+00  -2.1661165193781247e-07 1.9774441227632563e-09 0.0000000000000000e+00  -3.6303018128683607e-07 -1.0851046561060116e-08 0.0000000000000000e+00  -1.8639037069658858e-07 -2.2382047764838864e-10 0.0000000000000000e+00  -2.3501132377480498e-07 2.8248393976060956e-09 0.0000000000000000e+00  -3.4200967862508853e-07 -5.7937116037836386e-09 0.0000000000000000e+00  -3.8456883026450700e-07 -1.6655835674862348e-08 0.0000000000000000e+00  -2.5370789507157121e-07 3.5925903141366445e-09 0.0000000000000000e+00  -3.2146302854377185e-07 -1.6542037610060873e-09 0.0000000000000000e+00  -2.7166567314410071e-07 3.9704217084045138e-09 0.0000000000000000e+00  -3.0174245492071752e-07 1.0264166135958044e-09 0.0000000000000000e+00  -2.8589196125872023e-07 2.9147234583294642e-09 0.0000000000000000e+00  -2.0103383638885902e-07 4.2607429489525186e-10 0.0000000000000000e+00  -4.9584932369673231e-07 -4.9442346100635149e-08 0.0000000000000000e+00  -1.2715898547668482e-07 -2.7770458377007871e-09 0.0000000000000000e+00  -5.2914430468388829e-07 -5.1244650988968684e-08 0.0000000000000000e+00  -5.3296816896899463e-08 1.6723171669242959e-09 0.0000000000000000e+00  -4.4216222109593495e-07 -2.6606885657627269e-08 0.0000000000000000e+00  -4.6566652998157791e-07 -3.3800042239837483e-08 0.0000000000000000e+00  -8.9484207299125734e-08 -6.7572526765758713e-09 0.0000000000000000e+00  -1.5700394902005466e-07 -9.4401925663750542e-09 0.0000000000000000e+00  -3.7481257444001665e-07 -6.6013000364159105e-09 0.0000000000000000e+00  -4.1918770895167046e-07 -1.9573488090042282e-08 0.0000000000000000e+00  -2.2577526782695349e-07 -5.5199415763179675e-09 0.0000000000000000e+00  -3.5339208917772882e-07 -1.0220598845702568e-09 0.0000000000000000e+00  -1.7740140357221636e-07 -8.6025277474135172e-09 0.0000000000000000e+00  -2.4442043798138604e-07 -4.5152240990398581e-09 0.0000000000000000e+00  -3.3244058073569281e-07 3.7125984430877476e-09 0.0000000000000000e+00  -3.9673816342691133e-07 -1.2846621262535694e-08 0.0000000000000000e+00  -2.6285944959660869e-07 -5.8039241405350793e-09 0.0000000000000000e+00  -3.1192268735876860e-07 7.4422928438364932e-09 0.0000000000000000e+00  -1.6849051814707183e-08 -1.0583659591187536e-09 0.0000000000000000e+00  -1.6320464085496282e-08 2.8439477168205377e-10 0.0000000000000000e+00  -5.4943789284479456e-07 -6.9022211103268396e-08 0.000