<?xml version="1.0"?>
<VTKFile type="UnstructuredGrid"  version="0.1"  >
<UnstructuredGrid>
<Piece  NumberOfPoints="1419" NumberOfCells="2698">
<Points>
<DataArray  type="Float64"  NumberOfComponents="3"  format="ascii">0 0 0  0 0.41 0  2.5 0 0  2.5 0.41 0  0.6 0.19 0  0.6 0.21 0  0.25 0.2 0  0.15 0.2 0  0.2489897948556636 0.21 0  0.2489897948556636 0.19 0  0.6 0.2 0  0 0.3807142857143437 0  0 0.3514285714286952 0  0 0.3221428571430699 0  0 0.29285714285744 0  0 0.2635714285718054 0  0 0.2342857142861561 0  0 0.2050000000005308 0  0 0.175714285714732 0  0 0.1464285714289574 0  0 0.1171428571431897 0  0 0.08785714285737878 0  0 0.05857142857161107 0  0 0.02928571428580012 0  0.03015443760436003 0 0  0.06140001986583606 0 0  0.09377624077125973 0 0  0.1273239957535082 0 0  0.1620856860351972 0 0  0.1981052433264291 0 0  0.235428184091502 0 0  0.2741016576309132 0 0  0.3141745521465447 0 0  0.3556974926295285 0 0  0.3987229542472677 0 0  0.4433053055141081 0 0  0.4895008759286886 0 0  0.5373680609405097 0 0  0.5869673343216626 0 0  0.6383613676634521 0 0  0.6916151138468254 0 0  0.7467958595648856 0 0  0.8039733463919316 0 0  0.8632198139502143 0 0  0.9246101326867038 0 0  0.9882218810934433 0 0  1.054135445558498 0 0  1.122434100542598 0 0  1.193204177141305 0 0  1.266535089879536 0 0  1.342519516046404 0 0  1.421253448503939 0 0  1.502836389106271 0 0  1.587371439758838 0 0  1.674965418777374 0 0  1.765729001825544 0 0  1.859776908880082 0 0  1.957227977487062 0 0  2.058205329869943 0 0  2.162836591189951 0 0  2.271253957290865 0 0  2.383594446803425 0 0  2.5 0.1024999999997612 0  2.5 0.2049999999994743 0  2.5 0.3074999999997183 0  2.383594446803656 0.41 0  2.271253957291315 0.41 0  2.162836591190598 0.41 0  2.058205329870775 0.41 0  1.957227977488067 0.41 0  1.859776908881246 0.41 0  1.765729001826854 0.41 0  1.674965418778818 0.41 0  1.58737143976041 0.41 0  1.502836389107956 0.41 0  1.421253448505726 0.41 0  1.342519516048286 0.41 0  1.266535089881505 0.41 0  1.193204177143353 0.41 0  1.122434100544716 0.41 0  1.05413544556068 0.41 0  0.9882218810956305 0.41 0  0.9246101326886647 0.41 0  0.8632198139519631 0.41 0  0.8039733463934788 0.41 0  0.7467958595662458 0.41 0  0.6916151138480078 0.41 0  0.6383613676644679 0.41 0  0.5869673343225223 0.41 0  0.5373680609412221 0.41 0  0.4895008759292634 0.41 0  0.4433053055145528 0.41 0  0.3987229542475914 0.41 0  0.3556974926297398 0.41 0  0.3141745521466497 0.41 0  0.2741016576310038 0.41 0  0.2354281840915826 0.41 0  0.1981052433265003 0.41 0  0.1620856860352591 0.41 0  0.1273239957535623 0.41 0  0.09377624077128965 0.41 0  0.06140001986584975 0.41 0  0.03015443760436654 0.41 0  0.2497468076502589 0.2050254481002335 0  0.2497468076502614 0.1949745518997913 0  0.2469965252529372 0.1829317073451959 0  0.2439893735792749 0.1762316384219906 0  0.2400332147834255 0.1700443375285386 0  0.2352133972704371 0.1645032867342007 0  0.2296339016332438 0.1597280261969788 0  0.2234150974217223 0.1558215752574715 0  0.2166911463437691 0.1528682099456123 0  0.2096071079204251 0.1509316448471593 0  0.2023158100364996 0.1500536585536553 0  0.194974551899914 0.1502531923497262 0  0.1877417105387872 0.1515259415822739 0  0.1807733240461124 0.153844448527136 0  0.1742197252835808 0.15715869474974 0  0.1682222986673531 0.1613971801805478 0  0.162910430003803 0.1664684656256651 0  0.1583987151779087 0.1722631454351573 0  0.1547844879126891 0.178656207771761 0  0.1521457199348551 0.1855097315605723 0  0.1505393388476355 0.1926758619366523 0  0.1505393388476328 0.2073241380633295 0  0.1521457199348437 0.2144902684393899 0  0.1547844879126531 0.221343792228163 0  0.1583987151778488 0.2277368545647528 0  0.1629104300036858 0.2335315343742052 0  0.1682222986671726 0.2386028198193036 0  0.1742197252833576 0.2428413052501257 0  0.1807733240458683 0.2461555514727623 0  0.1877417105384929 0.2484740584176516 0  0.1949745518995776 0.2497468076502398 0  0.202315810036185 0.2499463414463592 0  0.2096071079201568 0.2490683551528932 0  0.2166911463435495 0.2471317900544655 0  0.2234150974215506 0.2441784247426195 0  0.2296339016331197 0.2402719738031125 0  0.2352133972703547 0.2354967132658811 0  0.2400332147833751 0.2299556624715287 0  0.2439893735792577 0.2237683615780412 0  0.246996525252926 0.2170682926548348 0  0.25645809709277 0.21 0  0.2639263993298655 0.21 0  0.271394701566961 0.21 0  0.2788630038040554 0.21 0  0.2863313060411479 0.21 0  0.2937996082782405 0.21 0  0.301267910515333 0.21 0  0.3087362127524279 0.21 0  0.3162045149895234 0.21 0  0.3236728172265972 0.21 0  0.3311411194636928 0.21 0  0.3386094217007701 0.21 0  0.3460777239378666 0.21 0  0.3535460261749672 0.21 0  0.3610143284120516 0.21 0  0.3684826306491596 0.21 0  0.3759509328862226 0.21 0  0.383419235123329 0.21 0  0.3908875373604028 0.21 0  0.3983558395975142 0.21 0  0.4058241418345938 0.21 0  0.4132924440716992 0.21 0  0.4207607463087888 0.21 0  0.4282290485459029 0.21 0  0.4356973507830418 0.21 0  0.4431656530201649 0.21 0  0.4506339552573136 0.21 0  0.4581022574944306 0.21 0  0.4655705597315852 0.21 0  0.4730388619686996 0.21 0  0.480507164205851 0.21 0  0.4879754664429498 0.21 0  0.4954437686800938 0.21 0  0.502912070917267 0.21 0  0.5103803731544119 0.21 0  0.5178486753915261 0.21 0  0.5253169776286404 0.21 0  0.5327852798657868 0.21 0  0.5402535821029386 0.21 0  0.54772188434007 0.21 0  0.5551901865771842 0.21 0  0.5626584888143201 0.21 0  0.5701267910514778 0.21 0  0.5775950932886138 0.21 0  0.5850633955257281 0.21 0  0.5925316977628483 0.21 0  0.6 0.2050000000000054 0  0.6 0.1950000000000217 0  0.5925316977628897 0.19 0  0.5850633955257988 0.19 0  0.5775950932887378 0.19 0  0.5701267910515998 0.19 0  0.5626584888145268 0.19 0  0.5551901865773963 0.19 0  0.547721884340339 0.19 0  0.5402535821032429 0.19 0  0.5327852798661811 0.19 0  0.5253169776290537 0.19 0  0.5178486753919799 0.19 0  0.5103803731549078 0.19 0  0.502912070917822 0.19 0  0.4954437686807294 0.19 0  0.4879754664436223 0.19 0  0.4805071642065402 0.19 0  0.4730388619694271 0.19 0  0.4655705597323621 0.19 0  0.4581022574952563 0.19 0  0.4506339552581777 0.19 0  0.4431656530210671 0.19 0  0.4356973507839815 0.19 0  0.4282290485468779 0.19 0  0.4207607463097617 0.19 0  0.4132924440726327 0.19 0  0.4058241418354857 0.19 0  0.3983558395983636 0.19 0  0.3908875373612097 0.19 0  0.3834192351240934 0.19 0  0.3759509328869369 0.19 0  0.3684826306498175 0.19 0  0.361014328412667 0.19 0  0.3535460261755617 0.19 0  0.3460777239384295 0.19 0  0.3386094217012945 0.19 0  0.3311411194641595 0.19 0  0.3236728172270245 0.19 0  0.3162045149898895 0.19 0  0.3087362127527544 0.19 0  0.3012679105156187 0.19 0  0.2937996082784807 0.19 0  0.2863313060413428 0.19 0  0.2788630038042048 0.19 0  0.2713947015670686 0.19 0  0.2639263993299336 0.19 0  0.2564580970927985 0.19 0  0.2607803159922026 0.2000727136295815 0  0.5887803774232762 0.2001272386983733 0  0.5745072403740523 0.2002044435018727 0  0.5511891430099709 0.2001122610077113 0  0.2751288526855082 0.20000000000002 0  0.5365194309847112 0.1999999999999436 0  0.2894621222999649 0.1998691686390484 0  0.5215828265105155 0.1999999999999228 0  0.3127789816668748 0.1998657885438805 0  0.3274069683451451 0.2000000000000796 0  0.5066462220363641 0.199999999999908 0  0.3650630746574081 0.199866017807523 0  0.476773013087985 0.1999999999998713 0  0.3417402379596385 0.1998691686391011 0  0.3796850840047755 0.200000000000134 0  0.4618364086138087 0.1999999999998546 0  0.4917096175621762 0.1999999999998808 0  0.3946216884789568 0.2000000000001512 0  0.446899804139621 0.1999999999998389 0  0.4089549580935208 0.1998691686391595 0  0.4322718174608562 0.200127451265745 0  0.4201487168029707 0.1999966199048527 0  0.3528922713220932 0.2000185703532356 0  0.5633122436674589 0.1999814296467508 0  0.3006558810093873 0.1999966199048318 0  0.5815926498168407 0.1966545283159175 0  0.2677053789419034 0.1964246479135325 0  0.5290511287476175 0.1970915826863981 0  0.5439877332217911 0.197091582686394 0  0.2825131256993216 0.2035478995978015 0  0.3199386661080599 0.202908417313604 0  0.4842413153250809 0.1970915826863873 0  0.5141145242734466 0.1970915826863843 0  0.3722167817676917 0.2029084173136195 0  0.4693047108508938 0.1970915826863783 0  0.3348752705822316 0.202908417313609 0  0.3871533862418661 0.2029084173136212 0  0.4543681063767183 0.1970915826863795 0  0.4991779197992749 0.1970915826863902 0  0.4020059614928624 0.203547899597858 0  0.4394315019025246 0.1970915826863714 0  0.2550657455369551 0.2034088125358657 0  0.2548908499171161 0.1966940311614271 0  0.5946539510196798 0.2024302972968126 0  0.267698176732111 0.2039977513680092 0  0.4261685417851465 0.196409292431739 0  0.3590076176283495 0.196411355804271 0  0.5571672426447437 0.2036011176410121 0  0.3066757059912147 0.1964092924317024 0  0.594380730180568 0.1966558399668133 0  0.4842413153245942 0.2040749161535287 0  0.4693047108503577 0.2040749161535231 0  0.3871533862424271 0.1959250838464788 0  0.372246743208829 0.1959123236376545 0  0.5141145242731028 0.2040749161535395 0  0.4543681063761134 0.2040749161535186 0  0.4019979587101454 0.1959834479682427 0  0.4394608940728603 0.2040870543693135 0  0.5439623148931173 0.2040856076781014 0  0.5290511287473298 0.2040749161535501 0  0.4991779197988497 0.2040749161535382 0  0.3347912413592433 0.1959225448935183 0  0.3199680582793816 0.1959123018030061 0  0.2825051229162361 0.1959834479681729 0  0.3590471196690275 0.2036304442587945 0  0.5571594006495384 0.1963685282145804 0  0.3067669986803285 0.203627750582736 0  0.4262598344738712 0.2036568242185335 0  0.5814408164431408 0.2041285596160068 0  0.5688286748170428 0.1961819304477386 0  0.4145905603063645 0.2038180695522843 0  0.3473758401724931 0.2038180695522752 0  0.2950977245128307 0.2038180695522663 0  0.5688286748170693 0.203818069552238 0  0.2950977245127906 0.1961819304477774 0  0.3473758401723931 0.1961819304478349 0  0.4145905603061963 0.1961819304479011 0  0.2601812407614425 0.2056861609747042
[...]
<PointData  Vectors="f_40-0"> 
<DataArray  type="Float64"  Name="f_40-0"  NumberOfComponents="3" format="ascii">0.0000000000000000e+00 0.0000000000000000e+00 0.0000000000000000e+00  0.0000000000000000e+00 0.0000000000000000e+00 0.0000000000000000e+00  0.0000000000000000e+00 0.0000000000000000e+00 0.0000000000000000e+00  0.0000000000000000e+00 0.0000000000000000e+00 0.0000000000000000e+00  -6.3806889132519670e-07 1.0807778948592071e-06 0.0000000000000000e+00  3.5254518788819766e-07 1.0932649558960463e-06 0.0000000000000000e+00  0.0000000000000000e+00 0.0000000000000000e+00 0.0000000000000000e+00  0.0000000000000000e+00 0.0000000000000000e+00 0.0000000000000000e+00  0.0000000000000000e+00 0.0000000000000000e+00 0.0000000000000000e+00  0.0000000000000000e+00 0.0000000000000000e+00 0.0000000000000000e+00  -1.3834843054958112e-07 1.0811533733312310e-06 0.0000000000000000e+00  7.9591836734548407e-02 0.0000000000000000e+00 0.0000000000000000e+00  1.4693877550994527e-01 0.0000000000000000e+00 0.0000000000000000e+00  2.0204081632617479e-01 0.0000000000000000e+00 0.0000000000000000e+00  2.4489795918330076e-01 0.0000000000000000e+00 0.0000000000000000e+00  2.7551020408131754e-01 0.0000000000000000e+00 0.0000000000000000e+00  2.9387755102022350e-01 0.0000000000000000e+00 0.0000000000000000e+00  3.0000000000000004e-01 0.0000000000000000e+00 0.0000000000000000e+00  2.9387755102059482e-01 0.0000000000000000e+00 0.0000000000000000e+00  2.7551020408195548e-01 0.0000000000000000e+00 0.0000000000000000e+00  2.4489795918409071e-01 0.0000000000000000e+00 0.0000000000000000e+00  2.0204081632692525e-01 0.0000000000000000e+00 0.0000000000000000e+00  1.4693877551058568e-01 0.0000000000000000e+00 0.0000000000000000e+00  7.9591836734909230e-02 0.0000000000000000e+00 0.0000000000000000e+00  0.0000000000000000e+00 0.0000000000000000e+00 0.0000000000000000e+00  0.0000000000000000e+00 0.0000000000000000e+00 0.0000000000000000e+00  0.0000000000000000e+00 0.0000000000000000e+00 0.0000000000000000e+00  0.0000000000000000e+00 0.0000000000000000e+00 0.0000000000000000e+00  0.0000000000000000e+00 0.0000000000000000e+00 0.0000000000000000e+00  0.0000000000000000e+00 0.0000000000000000e+00 0.0000000000000000e+00  0.0000000000000000e+00 0.0000000000000000e+00 0.0000000000000000e+00  0.0000000000000000e+00 0.0000000000000000e+00 0.0000000000000000e+00  0.0000000000000000e+00 0.0000000000000000e+00 0.0000000000000000e+00  0.0000000000000000e+00 0.0000000000000000e+00 0.0000000000000000e+00  0.0000000000000000e+00 0.0000000000000000e+00 0.0000000000000000e+00  0.0000000000000000e+00 0.0000000000000000e+00 0.0000000000000000e+00  0.0000000000000000e+00 0.0000000000000000e+00 0.0000000000000000e+00  0.0000000000000000e+00 0.0000000000000000e+00 0.0000000000000000e+00  0.0000000000000000e+00 0.0000000000000000e+00 0.0000000000000000e+00  0.0000000000000000e+00 0.0000000000000000e+00 0.0000000000000000e+00  0.0000000000000000e+00 0.0000000000000000e+00 0.0000000000000000e+00  0.0000000000000000e+00 0.0000000000000000e+00 0.0000000000000000e+00  0.0000000000000000e+00 0.0000000000000000e+00 0.0000000000000000e+00  0.0000000000000000e+00 0.0000000000000000e+00 0.0000000000000000e+00  0.0000000000000000e+00 0.0000000000000000e+00 0.0000000000000000e+00  0.0000000000000000e+00 0.0000000000000000e+00 0.0000000000000000e+00  0.0000000000000000e+00 0.0000000000000000e+00 0.0000000000000000e+00  0.0000000000000000e+00 0.0000000000000000e+00 0.0000000000000000e+00  0.0000000000000000e+00 0.0000000000000000e+00 0.0000000000000000e+00  0.0000000000000000e+00 0.0000000000000000e+00 0.0000000000000000e+00  0.0000000000000000e+00 0.0000000000000000e+00 0.0000000000000000e+00  0.0000000000000000e+00 0.0000000000000000e+00 0.0000000000000000e+00  0.0000000000000000e+00 0.0000000000000000e+00 0.0000000000000000e+00  0.0000000000000000e+00 0.0000000000000000e+00 0.0000000000000000e+00  0.0000000000000000e+00 0.0000000000000000e+00 0.0000000000000000e+00  0.0000000000000000e+00 0.0000000000000000e+00 0.0000000000000000e+00  0.0000000000000000e+00 0.0000000000000000e+00 0.0000000000000000e+00  0.0000000000000000e+00 0.0000000000000000e+00 0.0000000000000000e+00  0.0000000000000000e+00 0.0000000000000000e+00 0.0000000000000000e+00  0.0000000000000000e+00 0.0000000000000000e+00 0.0000000000000000e+00  0.0000000000000000e+00 0.0000000000000000e+00 0.0000000000000000e+00  0.0000000000000000e+00 0.0000000000000000e+00 0.0000000000000000e+00  2.3796228862822261e-01 -5.1130415657524358e-03 0.0000000000000000e+00  3.0372510856035845e-01 1.8488600369070682e-03 0.0000000000000000e+00  2.4065610220723990e-01 1.1618746843298968e-02 0.0000000000000000e+00  0.0000000000000000e+00 0.0000000000000000e+00 0.0000000000000000e+00  0.0000000000000000e+00 0.0000000000000000e+00 0.0000000000000000e+00  0.0000000000000000e+00 0.0000000000000000e+00 0.0000000000000000e+00  0.0000000000000000e+00 0.0000000000000000e+00 0.0000000000000000e+00  0.0000000000000000e+00 0.0000000000000000e+00 0.0000000000000000e+00  0.0000000000000000e+00 0.0000000000000000e+00 0.0000000000000000e+00  0.0000000000000000e+00 0.0000000000000000e+00 0.0000000000000000e+00  0.0000000000000000e+00 0.0000000000000000e+00 0.0000000000000000e+00  0.0000000000000000e+00 0.0000000000000000e+00 0.0000000000000000e+00  0.0000000000000000e+00 0.0000000000000000e+00 0.0000000000000000e+00  0.0000000000000000e+00 0.0000000000000000e+00 0.0000000000000000e+00  0.0000000000000000e+00 0.0000000000000000e+00 0.0000000000000000e+00  0.0000000000000000e+00 0.0000000000000000e+00 0.0000000000000000e+00  0.0000000000000000e+00 0.0000000000000000e+00 0.0000000000000000e+00  0.0000000000000000e+00 0.0000000000000000e+00 0.0000000000000000e+00  0.0000000000000000e+00 0.0000000000000000e+00 0.0000000000000000e+00  0.0000000000000000e+00 0.0000000000000000e+00 0.0000000000000000e+00  0.0000000000000000e+00 0.0000000000000000e+00 0.0000000000000000e+00  0.0000000000000000e+00 0.0000000000000000e+00 0.0000000000000000e+00  0.0000000000000000e+00 0.0000000000000000e+00 0.0000000000000000e+00  0.0000000000000000e+00 0.0000000000000000e+00 0.0000000000000000e+00  0.0000000000000000e+00 0.0000000000000000e+00 0.0000000000000000e+00  0.0000000000000000e+00 0.0000000000000000e+00 0.0000000000000000e+00  0.0000000000000000e+00 0.0000000000000000e+00 0.0000000000000000e+00  0.0000000000000000e+00 0.0000000000000000e+00 0.0000000000000000e+00  0.0000000000000000e+00 0.0000000000000000e+00 0.0000000000000000e+00  0.0000000000000000e+00 0.0000000000000000e+00 0.0000000000000000e+00  0.0000000000000000e+00 0.0000000000000000e+00 0.0000000000000000e+00  0.0000000000000000e+00 0.0000000000000000e+00 0.0000000000000000e+00  0.0000000000000000e+00 0.0000000000000000e+00 0.0000000000000000e+00  0.0000000000000000e+00 0.0000000000000000e+00 0.0000000000000000e+00  0.0000000000000000e+00 0.0000000000000000e+00 0.0000000000000000e+00  0.0000000000000000e+00 0.0000000000000000e+00 0.0000000000000000e+00  0.0000000000000000e+00 0.0000000000000000e+00 0.0000000000000000e+00  0.0000000000000000e+00 0.0000000000000000e+00 0.0000000000000000e+00  0.0000000000000000e+00 0.0000000000000000e+00 0.0000000000000000e+00  0.0000000000000000e+00 0.0000000000000000e+00 0.0000000000000000e+00  0.0000000000000000e+00 0.0000000000000000e+00 0.0000000000000000e+00  0.0000000000000000e+00 0.0000000000000000e+00 0.0000000000000000e+00  0.0000000000000000e+00 0.0000000000000000e+00 0.0000000000000000e+00  0.0000000000000000e+00 0.0000000000000000e+00 0.0000000000000000e+00  0.0000000000000000e+00 0.0000000000000000e+00 0.0000000000000000e+00  0.0000000000000000e+00 0.0000000000000000e+00 0.0000000000000000e+00  0.0000000000000000e+00 0.0000000000000000e+00 0.0000000000000000e+00  0.0000000000000000e+00 0.0000000000000000e+00 0.0000000000000000e+00  0.0000000000000000e+00 0.0000000000000000e+00 0.0000000000000000e+00  0.0000000000000000e+00 0.0000000000000000e+00 0.0000000000000000e+00  0.0000000000000000e+00 0.0000000000000000e+00 0.0000000000000000e+00  0.0000000000000000e+00 0.0000000000000000e+00 0.0000000000000000e+00  0.0000000000000000e+00 0.0000000000000000e+00 0.0000000000000000e+00  0.0000000000000000e+00 0.0000000000000000e+00 0.0000000000000000e+00  0.0000000000000000e+00 0.0000000000000000e+00 0.0000000000000000e+00  0.0000000000000000e+00 0.0000000000000000e+00 0.0000000000000000e+00  0.0000000000000000e+00 0.0000000000000000e+00 0.0000000000000000e+00  0.0000000000000000e+00 0.0000000000000000e+00 0.0000000000000000e+00  0.0000000000000000e+00 0.0000000000000000e+00 0.0000000000000000e+00  0.0000000000000000e+00 0.0000000000000000e+00 0.0000000000000000e+00  0.0000000000000000e+00 0.0000000000000000e+00 0.0000000000000000e+00  0.0000000000000000e+00 0.0000000000000000e+00 0.0000000000000000e+00  0.0000000000000000e+00 0.0000000000000000e+00 0.0000000000000000e+00  0.0000000000000000e+00 0.0000000000000000e+00 0.0000000000000000e+00  0.0000000000000000e+00 0.0000000000000000e+00 0.0000000000000000e+00  0.0000000000000000e+00 0.0000000000000000e+00 0.0000000000000000e+00  0.0000000000000000e+00 0.0000000000000000e+00 0.0000000000000000e+00  0.0000000000000000e+00 0.0000000000000000e+00 0.0000000000000000e+00  0.0000000000000000e+00 0.0000000000000000e+00 0.0000000000000000e+00  0.0000000000000000e+00 0.0000000000000000e+00 0.0000000000000000e+00  0.0000000000000000e+00 0.0000000000000000e+00 0.0000000000000000e+00  0.0000000000000000e+00 0.0000000000000000e+00 0.0000000000000000e+00  0.0000000000000000e+00 0.0000000000000000e+00 0.0000000000000000e+00  0.0000000000000000e+00 0.0000000000000000e+00 0.0000000000000000e+00  0.0000000000000000e+00 0.0000000000000000e+00 0.0000000000000000e+00  0.0000000000000000e+00 0.0000000000000000e+00 0.0000000000000000e+00  0.0000000000000000e+00 0.0000000000000000e+00 0.0000000000000000e+00  0.0000000000000000e+00 0.0000000000000000e+00 0.0000000000000000e+00  0.0000000000000000e+00 0.0000000000000000e+00 0.0000000000000000e+00  0.0000000000000000e+00 0.0000000000000000e+00 0.0000000000000000e+00  0.0000000000000000e+00 0.0000000000000000e+00 0.0000000000000000e+00  -1.2159123234376357e-07 1.2069318145226499e-07 0.0000000000000000e+00  -2.4360552582772003e-07 2.8112196765501641e-07 0.0000000000000000e+00  -3.3728121423593332e-07 5.1248650839242490e-07 0.0000000000000000e+00  -4.2407031029616065e-07 8.1623234423074652e-07 0.0000000000000000e+00  -4.8517666998740017e-07 1.1629125227278194e-06 0.0000000000000000e+00  -5.3991601032617107e-07 1.5536033813764008e-06 0.0000000000000000e+00  -5.7509991789489965e-07 1.9668674710581704e-06 0.0000000000000000e+00  -5.9926349107053777e-07 2.4024825866462811e-06 0.0000000000000000e+00  -6.1600350574580766e-07 2.8477953714052692e-06 0.0000000000000000e+00  -6.2052777669628818e-07 3.2943076429432685e-06 0.0000000000000000e+00  -6.1490111702006765e-07 3.7380972152744399e-06 0.0000000000000000e+00  -6.0439910047854673e-07 4.1685308126469582e-06 0.0000000000000000e+00  -5.8156549791389567e-07 4.5827803896365837e-06 0.0000000000000000e+00  -5.5861631971620357e-07 4.9776606088263772e-06 0.0000000000000000e+00  -5.3022438463759607e-07 5.3433888224292575e-06 0.0000000000000000e+00  -4.9020811586734944e-07 5.6824960601970799e-06 0.0000000000000000e+00  -4.5610577416103726e-07 5.9884450955402257e-06 0.0000000000000000e+00  -4.0738870062826895e-07 6.2599959185488723e-06 0.0000000000000000e+00  -3.6885151286989241e-07 6.4935774627526647e-06 0.0000000000000000e+00  -3.1669268461421340e-07 6.6912662857979594e-06 0.0000000000000000e+00  -2.7333328314284107e-07 6.8476851590338379e-06 0.0000000000000000e+00  -2.1977008399867207e-07 6.9633529727160768e-06 0.0000000000000000e+00  -1.7646745588396866e-07 7.0454335822065155e-06 0.0000000000000000e+00  -1.3283893256597644e-07 7.0825072887259815e-06 0.0000000000000000e+00  -8.1392040113263689e-08 7.0872731227236495e-06 0.0000000000000000e+00  -3.8044365392067603e-08 7.0510586938111705e-06 0.0000000000000000e+00  7.1848838911911002e-09 6.9791952271932537e-06 0.0000000000000000e+00  4.7136481412388900e-08 6.8736063340612880e-06 0.0000000000000000e+00  8.7907943499567420e-08 6.7344135963389445e-06 0.0000000000000000e+00  1.2334271896151570e-07 6.5654662619180071e-06 0.0000000000000000e+00  1.5876765319659078e-07 6.3666711533922578e-06 0.0000000000000000e+00  1.8892755099089368e-07 6.1425391017041634e-06 0.0000000000000000e+00  2.1843673318111271e-07 5.8929572410186275e-06 0.0000000000000000e+00  2.4293871920379866e-07 5.6227262848168765e-06 0.0000000000000000e+00  2.6631726099905755e-07 5.3317325074348781e-06 0.0000000000000000e+00  2.8515274969716328e-07 5.0247719096156924e-06 0.0000000000000000e+00  3.0252383261895844e-07 4.7017588665215429e-06 0.0000000000000000e+00  3.1595736458817544e-07 4.3672662127619878e-06 0.0000000000000000e+00  3.2777258850247910e-07 4.0212449906524784e-06 0.0000000000000000e+00  3.3641528961683152e-07 3.6677608093902729e-06 0.0000000000000000e+00  3.4376947747267707e-07 3.3064770740575318e-06 0.0000000000000000e+00  3.4829059170047018e-07 2.9412426530286178e-06 0.0000000000000000e+00  3.5128036126960470e-07 2.5724426460832320e-06 0.0000000000000000e+00  3.5371459089371757e-07 2.2016093731667997e-06 0.0000000000000000e+00  3.5477576497192890e-07 1.8293755148812045e-06 0.0000000000000000e+00  3.5483135030047449e-07 1.4574838590306774e-06 0.0000000000000000e+00  1.0896617800102330e-07 1.0842801661226273e-06 0.0000000000000000e+00  -3.8736918628350888e-07 1.0778631461797313e-06 0.0000000000000000e+00  -6.3774652038305491e-07 1.4479849409811972e-06 0.0000000000000000e+00  -6.3678908477159628e-07 1.8196019130474872e-06 0.0000000000000000e+00  -6.3530350315158171e-07 2.1906750673345038e-06 0.0000000000000000e+00  -6.3163141614949978e-07 2.5610759230574449e-06 0.0000000000000000e+00  -6.2712481491079908e-07 2.9294232735068564e-06 0.0000000000000000e+00  -6.2056045638177337e-07 3.2944267810684706e-06 0.0000000000000000e+00  -6.1045919213285903e-07 3.6549979041728957e-06 0.0000000000000000e+00  -5.9995371153995797e-07 4.0085510845985686e-06 0.0000000000000000e+00  -5.8367655310303773e-07 4.3544054004569449e-06 0.0000000000000000e+00  -5.6834091650391780e-07 4.6889049568850265e-06 0.0000000000000000e+00  -5.4550067569572874e-07 5.0117580779300645e-06 0.0000000000000000e+00  -5.2480736234482411e-07 5.3188380205549379e-06 0.0000000000000000e+00  -4.9491336669595690e-07 5.6097273219706296e-06 0.0000000000000000e+00  -4.6863117287886016e-07 5.8801563811623314e-06 0.0000000000000000e+00  -4.3153631311718476e-07 6.1296805997338858e-06 0.0000000000000000e+00  -3.9969292415246399e-07 6.3540619387214007e-06 0.0000000000000000e+00  -3.5562776998370682e-07 6.5528608090035423e-06 0.0000000000000000e+00  -3.1855377803290553e-07 6.7221108740875364e-06 0.0000000000000000e+00  -2.6811703589747099e-07 6.8613965886760153e-06 0.0000000000000000e+00  -2.2641560282990289e-07 6.9673167970148468e-06 0.0000000000000000e+00  -1.7026990457225652e-07 7.0392611400975508e-06 0.0000000000000000e+00  -1.2440775911530796e-07 7.0743570631344938e-06 0.0000000000000000e+00  -6.4965190942037977e-08 7.0720003239207983e-06 0.0000000000000000e+00  -1.4292120937535316e-08 7.0344413641906913e-06 0.0000000000000000e+00  3.6589442938993567e-08 6.9520714917721018e-06 0.0000000000000000e+00  9.6938199720624978e-08 6.8376331501476130e-06 0.0000000000000000e+00  1.5006904821682991e-07 6.6798442290892902e-06 0.0000000000000000e+00  2.0703100870128385e-07 6.4840189844998226e-06 0.0000000000000000e+00  2.5835513072494115e-07 6.2499784063866139e-06 0.0000000000000000e+00  3.1097011563511190e-07 5.9784676346770535e-06 0.0000000000000000e+00  3.5746607783590102e-07 5.6738889059889761e-06 0.0000000000000000e+00  4.0528025688697141e-07 5.3329104948004524e-06 0.0000000000000000e+00  4.4258200065781779e-07 4.9677700170068416e-06 0.0000000000000000e+00  4.7457625062425095e-07 4.5728106612045221e-06 0.0000000000000000e+00  5.0627782911880841e-07 4.1594468030922944e-06 0.0000000000000000e+00  5.2729383501361330e-07 3.7286812526915640e-06 0.0000000000000000e+00  5.4131218200509612e-07 3.2842719633605833e-06 0.0000000000000000e+00  5.4599669558664371e-07 2.8376797752540323e-06 0.0000000000000000e+00  5.3772384762012516e-07 2.3923951533563835e-06 0.0000000000000000e+00  5.2243478760521653e-07 1.9566628151693449e-06 0.0000000000000000e+00  4.9590065532455002e-07 1.5433520661260623e-06 0.0000000000000000e+00  4.5073090453138332e-07 1.1512553058980233e-06 0.0000000000000000e+00  3.9608986769108035e-07 8.0319199043321103e-07 0.0000000000000000e+00  3.1608253283842972e-07 5.0231266060492427e-07 0.0000000000000000e+00  2.3171671720930810e-07 2.7024605273156383e-07 0.0000000000000000e+00  1.1642610449944437e-07 1.0932072103321279e-07 0.0000000000000000e+00  -4.5677700834735231e-09 1.3896006849427959e-07 0.0000000000000000e+00  -1.3330221620239686e-07 1.6392424941653206e-06 0.0000000000000000e+00  -1.2997939640650086e-07 2.3506607392622115e-06 0.0000000000000000e+00  -1.3213985388631845e-07 3.4984654529630761e-06 0.0000000000000000e+00  -1.1267314806377829e-08 6.1275145493654089e-07 0.0000000000000000e+00  -1.3472641534350226e-07 4.1951566079579476e-06 0.0000000000000000e+00  -1.3136654158326518e-08 1.2920594798137648e-06 0.0000000000000000e+00  -1.3142946040831139e-07 4.8673790241981849e-06 0.0000000000000000e+00  -2.5301277636069662e-08 2.6325878932470736e-06 0.0000000000000000e+00  -4.1928766337526188e-08 3.5163094581727205e-06 0.0000000000000000e+00  -1.2756531417820612e-07 5.4848460671873356e-06 0.0000000000000000e+00  -5.9137536907456811e-08 5.5460204242580752e-06 0.0000000000000000e+00  -1.1833191458632353e-07 6.4808922354086341e-06 0.0000000000000000e+00  -4.3672035880317501e-08 4.3515165331511855e-06 0.0000000000000000e+00  -7.3466767097229357e-08 6.1460065458293219e-06 0.0000000000000000e+00  -1.1295176968950192e-07 6.8221476988544660e-06 0.0000000000000000e+00  -1.2320008931969170e-07 6.0290032950321542e-06 0.0000000000000000e+00  -8.1776739271296631e-08 6.6164695000931762e-06 0.0000000000000000e+00  -1.0720922276609722e-07 7.0359857653896487e-06 0.0000000000000000e+00  -8.7390933558752695e-08 6.9218889322732459e-06 0.0000000000000000e+00  -1.0081243157016176e-07 7.1085105746973023e-06 0.0000000000000000e+00  -9.4894295380478730e-08 7.0530667446294310e-06 0.0000000000000000e+00  -5.8697588574971293e-08 4.9503720466773499e-06 0.0000000000000000e+00  -1.3993099037628991e-07 2.9047121402707303e-06 0.0000000000000000e+00  -2.5631197702663159e-08 1.9160814586925418e-06 0.0000000000000000e+00  -3.0573794926654434e-07 1.9955904020599451e-06 0.0000000000000000e+00  9.2677898400641626e-08 3.4270678640058265e-07 0.0000000000000000e+00  -2.6163468624453730e-07 4.5339039487703962e-06 0.0000000000000000e+00  -2.7218757176359139e-07 3.8412388157611070e-06 0.0000000000000000e+00  -1.6855966260152197e-07 9.5025047576040176e-07 0.0000000000000000e+00  -2.0547171917363555e-07 3.0675902429416127e-06 0.0000000000000000e+00  -2.0626422270315202e-07 6.2634375121445883e-06 0.0000000000000000e+00  -2.4719965221633650e-07 5.1806187898785513e-06 0.0000000000000000e+00  -1.8578882544758634e-07 5.8544493216806137e-06 0.0000000000000000e+00  -1.7982531219050031e-07 6.6619052740781752e-06 0.0000000000000000e+00  -2.0998618478557331e-07 3.9585395480270282e-06 0.0000000000000000e+00  -1.6795991333943911e-07 6.3982735543850432e-06 0.0000000000000000e+00  -1.4978597462169894e-07 6.9411994626189004e-06 0.0000000000000000e+00  -2.2875999734513944e-07 5.7634152283202398e-06 0.0000000000000000e+00  -1.6103481385840555e-07 6.7898260761718180e-06 0.0000000000000000e+00  -1.1715716647906942e-07 7.0856904154432433e-06 0.0000000000000000e+00  -2.0828939325859204e-08 4.1145490217235734e-08 0.0000000000000000e+00  1.6469320202190900e-08 3.6051666097921664e-08 0.0000000000000000e+00  -1.8441150858911550e-08 1.3474608092461283e-06 0.0000000000000000e+00  -1.1897193252118394e-07 3.4732251322133926e-07 0.0000000000000000e+00  -8.2688191451670814e-08 7.0892947496576639e-06 0.00