<?xml version="1.0"?>
<VTKFile type="UnstructuredGrid"  version="0.1"  >
<UnstructuredGrid>
<Piece  NumberOfPoints="1419" NumberOfCells="2698">
<Points>
<DataArray  type="Float64"  NumberOfComponents="3"  format="ascii">0 0 0  0 0.41 0  2.5 0 0  2.5 0.41 0  0.6 0.19 0  0.6 0.21 0  0.25 0.2 0  0.15 0.2 0  0.2489897948556636 0.21 0  0.2489897948556636 0.19 0  0.6 0.2 0  0 0.3807142857143437 0  0 0.3514285714286952 0  0 0.3221428571430699 0  0 0.29285714285744 0  0 0.2635714285718054 0  0 0.2342857142861561 0  0 0.2050000000005308 0  0 0.175714285714732 0  0 0.1464285714289574 0  0 0.1171428571431897 0  0 0.08785714285737878 0  0 0.05857142857161107 0  0 0.02928571428580012 0  0.03015443760436003 0 0  0.06140001986583606 0 0  0.09377624077125973 0 0  0.1273239957535082 0 0  0.1620856860351972 0 0  0.1981052433264291 0 0  0.235428184091502 0 0  0.2741016576309132 0 0  0.3141745521465447 0 0  0.3556974926295285 0 0  0.3987229542472677 0 0  0.4433053055141081 0 0  0.4895008759286886 0 0  0.5373680609405097 0 0  0.5869673343216626 0 0  0.6383613676634521 0 0  0.6916151138468254 0 0  0.7467958595648856 0 0  0.8039733463919316 0 0  0.8632198139502143 0 0  0.9246101326867038 0 0  0.9882218810934433 0 0  1.054135445558498 0 0  1.122434100542598 0 0  1.193204177141305 0 0  1.266535089879536 0 0  1.342519516046404 0 0  1.421253448503939 0 0  1.502836389106271 0 0  1.587371439758838 0 0  1.674965418777374 0 0  1.765729001825544 0 0  1.859776908880082 0 0  1.957227977487062 0 0  2.058205329869943 0 0  2.162836591189951 0 0  2.271253957290865 0 0  2.383594446803425 0 0  2.5 0.1024999999997612 0  2.5 0.2049999999994743 0  2.5 0.3074999999997183 0  2.383594446803656 0.41 0  2.271253957291315 0.41 0  2.162836591190598 0.41 0  2.058205329870775 0.41 0  1.957227977488067 0.41 0  1.859776908881246 0.41 0  1.765729001826854 0.41 0  1.674965418778818 0.41 0  1.58737143976041 0.41 0  1.502836389107956 0.41 0  1.421253448505726 0.41 0  1.342519516048286 0.41 0  1.266535089881505 0.41 0  1.193204177143353 0.41 0  1.122434100544716 0.41 0  1.05413544556068 0.41 0  0.9882218810956305 0.41 0  0.9246101326886647 0.41 0  0.8632198139519631 0.41 0  0.8039733463934788 0.41 0  0.7467958595662458 0.41 0  0.6916151138480078 0.41 0  0.6383613676644679 0.41 0  0.5869673343225223 0.41 0  0.5373680609412221 0.41 0  0.4895008759292634 0.41 0  0.4433053055145528 0.41 0  0.3987229542475914 0.41 0  0.3556974926297398 0.41 0  0.3141745521466497 0.41 0  0.2741016576310038 0.41 0  0.2354281840915826 0.41 0  0.1981052433265003 0.41 0  0.1620856860352591 0.41 0  0.1273239957535623 0.41 0  0.09377624077128965 0.41 0  0.06140001986584975 0.41 0  0.03015443760436654 0.41 0  0.2497468076502589 0.2050254481002335 0  0.2497468076502614 0.1949745518997913 0  0.2469965252529372 0.1829317073451959 0  0.2439893735792749 0.1762316384219906 0  0.2400332147834255 0.1700443375285386 0  0.2352133972704371 0.1645032867342007 0  0.2296339016332438 0.1597280261969788 0  0.2234150974217223 0.1558215752574715 0  0.2166911463437691 0.1528682099456123 0  0.2096071079204251 0.1509316448471593 0  0.2023158100364996 0.1500536585536553 0  0.194974551899914 0.1502531923497262 0  0.1877417105387872 0.1515259415822739 0  0.1807733240461124 0.153844448527136 0  0.1742197252835808 0.15715869474974 0  0.1682222986673531 0.1613971801805478 0  0.162910430003803 0.1664684656256651 0  0.1583987151779087 0.1722631454351573 0  0.1547844879126891 0.178656207771761 0  0.1521457199348551 0.1855097315605723 0  0.1505393388476355 0.1926758619366523 0  0.1505393388476328 0.2073241380633295 0  0.1521457199348437 0.2144902684393899 0  0.1547844879126531 0.221343792228163 0  0.1583987151778488 0.2277368545647528 0  0.1629104300036858 0.2335315343742052 0  0.1682222986671726 0.2386028198193036 0  0.1742197252833576 0.2428413052501257 0  0.1807733240458683 0.2461555514727623 0  0.1877417105384929 0.2484740584176516 0  0.1949745518995776 0.2497468076502398 0  0.202315810036185 0.2499463414463592 0  0.2096071079201568 0.2490683551528932 0  0.2166911463435495 0.2471317900544655 0  0.2234150974215506 0.2441784247426195 0  0.2296339016331197 0.2402719738031125 0  0.2352133972703547 0.2354967132658811 0  0.2400332147833751 0.2299556624715287 0  0.2439893735792577 0.2237683615780412 0  0.246996525252926 0.2170682926548348 0  0.25645809709277 0.21 0  0.2639263993298655 0.21 0  0.271394701566961 0.21 0  0.2788630038040554 0.21 0  0.2863313060411479 0.21 0  0.2937996082782405 0.21 0  0.301267910515333 0.21 0  0.3087362127524279 0.21 0  0.3162045149895234 0.21 0  0.3236728172265972 0.21 0  0.3311411194636928 0.21 0  0.3386094217007701 0.21 0  0.3460777239378666 0.21 0  0.3535460261749672 0.21 0  0.3610143284120516 0.21 0  0.3684826306491596 0.21 0  0.3759509328862226 0.21 0  0.383419235123329 0.21 0  0.3908875373604028 0.21 0  0.3983558395975142 0.21 0  0.4058241418345938 0.21 0  0.4132924440716992 0.21 0  0.4207607463087888 0.21 0  0.4282290485459029 0.21 0  0.4356973507830418 0.21 0  0.4431656530201649 0.21 0  0.4506339552573136 0.21 0  0.4581022574944306 0.21 0  0.4655705597315852 0.21 0  0.4730388619686996 0.21 0  0.480507164205851 0.21 0  0.4879754664429498 0.21 0  0.4954437686800938 0.21 0  0.502912070917267 0.21 0  0.5103803731544119 0.21 0  0.5178486753915261 0.21 0  0.5253169776286404 0.21 0  0.5327852798657868 0.21 0  0.5402535821029386 0.21 0  0.54772188434007 0.21 0  0.5551901865771842 0.21 0  0.5626584888143201 0.21 0  0.5701267910514778 0.21 0  0.5775950932886138 0.21 0  0.5850633955257281 0.21 0  0.5925316977628483 0.21 0  0.6 0.2050000000000054 0  0.6 0.1950000000000217 0  0.5925316977628897 0.19 0  0.5850633955257988 0.19 0  0.5775950932887378 0.19 0  0.5701267910515998 0.19 0  0.5626584888145268 0.19 0  0.5551901865773963 0.19 0  0.547721884340339 0.19 0  0.5402535821032429 0.19 0  0.5327852798661811 0.19 0  0.5253169776290537 0.19 0  0.5178486753919799 0.19 0  0.5103803731549078 0.19 0  0.502912070917822 0.19 0  0.4954437686807294 0.19 0  0.4879754664436223 0.19 0  0.4805071642065402 0.19 0  0.4730388619694271 0.19 0  0.4655705597323621 0.19 0  0.4581022574952563 0.19 0  0.4506339552581777 0.19 0  0.4431656530210671 0.19 0  0.4356973507839815 0.19 0  0.4282290485468779 0.19 0  0.4207607463097617 0.19 0  0.4132924440726327 0.19 0  0.4058241418354857 0.19 0  0.3983558395983636 0.19 0  0.3908875373612097 0.19 0  0.3834192351240934 0.19 0  0.3759509328869369 0.19 0  0.3684826306498175 0.19 0  0.361014328412667 0.19 0  0.3535460261755617 0.19 0  0.3460777239384295 0.19 0  0.3386094217012945 0.19 0  0.3311411194641595 0.19 0  0.3236728172270245 0.19 0  0.3162045149898895 0.19 0  0.3087362127527544 0.19 0  0.3012679105156187 0.19 0  0.2937996082784807 0.19 0  0.2863313060413428 0.19 0  0.2788630038042048 0.19 0  0.2713947015670686 0.19 0  0.2639263993299336 0.19 0  0.2564580970927985 0.19 0  0.2607803159922026 0.2000727136295815 0  0.5887803774232762 0.2001272386983733 0  0.5745072403740523 0.2002044435018727 0  0.5511891430099709 0.2001122610077113 0  0.2751288526855082 0.20000000000002 0  0.5365194309847112 0.1999999999999436 0  0.2894621222999649 0.1998691686390484 0  0.5215828265105155 0.1999999999999228 0  0.3127789816668748 0.1998657885438805 0  0.3274069683451451 0.2000000000000796 0  0.5066462220363641 0.199999999999908 0  0.3650630746574081 0.199866017807523 0  0.476773013087985 0.1999999999998713 0  0.3417402379596385 0.1998691686391011 0  0.3796850840047755 0.200000000000134 0  0.4618364086138087 0.1999999999998546 0  0.4917096175621762 0.1999999999998808 0  0.3946216884789568 0.2000000000001512 0  0.446899804139621 0.1999999999998389 0  0.4089549580935208 0.1998691686391595 0  0.4322718174608562 0.200127451265745 0  0.4201487168029707 0.1999966199048527 0  0.3528922713220932 0.2000185703532356 0  0.5633122436674589 0.1999814296467508 0  0.3006558810093873 0.1999966199048318 0  0.5815926498168407 0.1966545283159175 0  0.2677053789419034 0.1964246479135325 0  0.5290511287476175 0.1970915826863981 0  0.5439877332217911 0.197091582686394 0  0.2825131256993216 0.2035478995978015 0  0.3199386661080599 0.202908417313604 0  0.4842413153250809 0.1970915826863873 0  0.5141145242734466 0.1970915826863843 0  0.3722167817676917 0.2029084173136195 0  0.4693047108508938 0.1970915826863783 0  0.3348752705822316 0.202908417313609 0  0.3871533862418661 0.2029084173136212 0  0.4543681063767183 0.1970915826863795 0  0.4991779197992749 0.1970915826863902 0  0.4020059614928624 0.203547899597858 0  0.4394315019025246 0.1970915826863714 0  0.2550657455369551 0.2034088125358657 0  0.2548908499171161 0.1966940311614271 0  0.5946539510196798 0.2024302972968126 0  0.267698176732111 0.2039977513680092 0  0.4261685417851465 0.196409292431739 0  0.3590076176283495 0.196411355804271 0  0.5571672426447437 0.2036011176410121 0  0.3066757059912147 0.1964092924317024 0  0.594380730180568 0.1966558399668133 0  0.4842413153245942 0.2040749161535287 0  0.4693047108503577 0.2040749161535231 0  0.3871533862424271 0.1959250838464788 0  0.372246743208829 0.1959123236376545 0  0.5141145242731028 0.2040749161535395 0  0.4543681063761134 0.2040749161535186 0  0.4019979587101454 0.1959834479682427 0  0.4394608940728603 0.2040870543693135 0  0.5439623148931173 0.2040856076781014 0  0.5290511287473298 0.2040749161535501 0  0.4991779197988497 0.2040749161535382 0  0.3347912413592433 0.1959225448935183 0  0.3199680582793816 0.1959123018030061 0  0.2825051229162361 0.1959834479681729 0  0.3590471196690275 0.2036304442587945 0  0.5571594006495384 0.1963685282145804 0  0.3067669986803285 0.203627750582736 0  0.4262598344738712 0.2036568242185335 0  0.5814408164431408 0.2041285596160068 0  0.5688286748170428 0.1961819304477386 0  0.4145905603063645 0.2038180695522843 0  0.3473758401724931 0.2038180695522752 0  0.2950977245128307 0.2038180695522663 0  0.5688286748170693 0.203818069552238 0  0.2950977245127906 0.1961819304477774 0  0.3473758401723931 0.1961819304478349 0  0.4145905603061963 0.1961819304479011 0  0.2601812407614425 0.2056861609747042
[...]
<PointData  Vectors="f_40-0"> 
<DataArray  type="Float64"  Name="f_40-0"  NumberOfComponents="3" format="ascii">0.0000000000000000e+00 0.0000000000000000e+00 0.0000000000000000e+00  0.0000000000000000e+00 0.0000000000000000e+00 0.0000000000000000e+00  0.0000000000000000e+00 0.0000000000000000e+00 0.0000000000000000e+00  0.0000000000000000e+00 0.0000000000000000e+00 0.0000000000000000e+00  -2.6202797709017502e-06 3.2616740705576782e-04 0.0000000000000000e+00  -2.1559932795900395e-05 3.2636396972379137e-04 0.0000000000000000e+00  0.0000000000000000e+00 0.0000000000000000e+00 0.0000000000000000e+00  0.0000000000000000e+00 0.0000000000000000e+00 0.0000000000000000e+00  0.0000000000000000e+00 0.0000000000000000e+00 0.0000000000000000e+00  0.0000000000000000e+00 0.0000000000000000e+00 0.0000000000000000e+00  -1.2026293520528741e-05 3.2626922322541723e-04 0.0000000000000000e+00  7.9591836734548407e-02 0.0000000000000000e+00 0.0000000000000000e+00  1.4693877550994527e-01 0.0000000000000000e+00 0.0000000000000000e+00  2.0204081632617479e-01 0.0000000000000000e+00 0.0000000000000000e+00  2.4489795918330076e-01 0.0000000000000000e+00 0.0000000000000000e+00  2.7551020408131754e-01 0.0000000000000000e+00 0.0000000000000000e+00  2.9387755102022350e-01 0.0000000000000000e+00 0.0000000000000000e+00  3.0000000000000004e-01 0.0000000000000000e+00 0.0000000000000000e+00  2.9387755102059482e-01 0.0000000000000000e+00 0.0000000000000000e+00  2.7551020408195548e-01 0.0000000000000000e+00 0.0000000000000000e+00  2.4489795918409071e-01 0.0000000000000000e+00 0.0000000000000000e+00  2.0204081632692525e-01 0.0000000000000000e+00 0.0000000000000000e+00  1.4693877551058568e-01 0.0000000000000000e+00 0.0000000000000000e+00  7.9591836734909230e-02 0.0000000000000000e+00 0.0000000000000000e+00  0.0000000000000000e+00 0.0000000000000000e+00 0.0000000000000000e+00  0.0000000000000000e+00 0.0000000000000000e+00 0.0000000000000000e+00  0.0000000000000000e+00 0.0000000000000000e+00 0.0000000000000000e+00  0.0000000000000000e+00 0.0000000000000000e+00 0.0000000000000000e+00  0.0000000000000000e+00 0.0000000000000000e+00 0.0000000000000000e+00  0.0000000000000000e+00 0.0000000000000000e+00 0.0000000000000000e+00  0.0000000000000000e+00 0.0000000000000000e+00 0.0000000000000000e+00  0.0000000000000000e+00 0.0000000000000000e+00 0.0000000000000000e+00  0.0000000000000000e+00 0.0000000000000000e+00 0.0000000000000000e+00  0.0000000000000000e+00 0.0000000000000000e+00 0.0000000000000000e+00  0.0000000000000000e+00 0.0000000000000000e+00 0.0000000000000000e+00  0.0000000000000000e+00 0.0000000000000000e+00 0.0000000000000000e+00  0.0000000000000000e+00 0.0000000000000000e+00 0.0000000000000000e+00  0.0000000000000000e+00 0.0000000000000000e+00 0.0000000000000000e+00  0.0000000000000000e+00 0.0000000000000000e+00 0.0000000000000000e+00  0.0000000000000000e+00 0.0000000000000000e+00 0.0000000000000000e+00  0.0000000000000000e+00 0.0000000000000000e+00 0.0000000000000000e+00  0.0000000000000000e+00 0.0000000000000000e+00 0.0000000000000000e+00  0.0000000000000000e+00 0.0000000000000000e+00 0.0000000000000000e+00  0.0000000000000000e+00 0.0000000000000000e+00 0.0000000000000000e+00  0.0000000000000000e+00 0.0000000000000000e+00 0.0000000000000000e+00  0.0000000000000000e+00 0.0000000000000000e+00 0.0000000000000000e+00  0.0000000000000000e+00 0.0000000000000000e+00 0.0000000000000000e+00  0.0000000000000000e+00 0.0000000000000000e+00 0.0000000000000000e+00  0.0000000000000000e+00 0.0000000000000000e+00 0.0000000000000000e+00  0.0000000000000000e+00 0.0000000000000000e+00 0.0000000000000000e+00  0.0000000000000000e+00 0.0000000000000000e+00 0.0000000000000000e+00  0.0000000000000000e+00 0.0000000000000000e+00 0.0000000000000000e+00  0.0000000000000000e+00 0.0000000000000000e+00 0.0000000000000000e+00  0.0000000000000000e+00 0.0000000000000000e+00 0.0000000000000000e+00  0.0000000000000000e+00 0.0000000000000000e+00 0.0000000000000000e+00  0.0000000000000000e+00 0.0000000000000000e+00 0.0000000000000000e+00  0.0000000000000000e+00 0.0000000000000000e+00 0.0000000000000000e+00  0.0000000000000000e+00 0.0000000000000000e+00 0.0000000000000000e+00  0.0000000000000000e+00 0.0000000000000000e+00 0.0000000000000000e+00  0.0000000000000000e+00 0.0000000000000000e+00 0.0000000000000000e+00  0.0000000000000000e+00 0.0000000000000000e+00 0.0000000000000000e+00  0.0000000000000000e+00 0.0000000000000000e+00 0.0000000000000000e+00  2.6121258934791419e-01 -9.7345466850264264e-03 0.0000000000000000e+00  2.5538499716364799e-01 2.9997107363571259e-03 0.0000000000000000e+00  2.6325261011315004e-01 1.0687111129640089e-02 0.0000000000000000e+00  0.0000000000000000e+00 0.0000000000000000e+00 0.0000000000000000e+00  0.0000000000000000e+00 0.0000000000000000e+00 0.0000000000000000e+00  0.0000000000000000e+00 0.0000000000000000e+00 0.0000000000000000e+00  0.0000000000000000e+00 0.0000000000000000e+00 0.0000000000000000e+00  0.0000000000000000e+00 0.0000000000000000e+00 0.0000000000000000e+00  0.0000000000000000e+00 0.0000000000000000e+00 0.0000000000000000e+00  0.0000000000000000e+00 0.0000000000000000e+00 0.0000000000000000e+00  0.0000000000000000e+00 0.0000000000000000e+00 0.0000000000000000e+00  0.0000000000000000e+00 0.0000000000000000e+00 0.0000000000000000e+00  0.0000000000000000e+00 0.0000000000000000e+00 0.0000000000000000e+00  0.0000000000000000e+00 0.0000000000000000e+00 0.0000000000000000e+00  0.0000000000000000e+00 0.0000000000000000e+00 0.0000000000000000e+00  0.0000000000000000e+00 0.0000000000000000e+00 0.0000000000000000e+00  0.0000000000000000e+00 0.0000000000000000e+00 0.0000000000000000e+00  0.0000000000000000e+00 0.0000000000000000e+00 0.0000000000000000e+00  0.0000000000000000e+00 0.0000000000000000e+00 0.0000000000000000e+00  0.0000000000000000e+00 0.0000000000000000e+00 0.0000000000000000e+00  0.0000000000000000e+00 0.0000000000000000e+00 0.0000000000000000e+00  0.0000000000000000e+00 0.0000000000000000e+00 0.0000000000000000e+00  0.0000000000000000e+00 0.0000000000000000e+00 0.0000000000000000e+00  0.0000000000000000e+00 0.0000000000000000e+00 0.0000000000000000e+00  0.0000000000000000e+00 0.0000000000000000e+00 0.0000000000000000e+00  0.0000000000000000e+00 0.0000000000000000e+00 0.0000000000000000e+00  0.0000000000000000e+00 0.0000000000000000e+00 0.0000000000000000e+00  0.0000000000000000e+00 0.0000000000000000e+00 0.0000000000000000e+00  0.0000000000000000e+00 0.0000000000000000e+00 0.0000000000000000e+00  0.0000000000000000e+00 0.0000000000000000e+00 0.0000000000000000e+00  0.0000000000000000e+00 0.0000000000000000e+00 0.0000000000000000e+00  0.0000000000000000e+00 0.0000000000000000e+00 0.0000000000000000e+00  0.0000000000000000e+00 0.0000000000000000e+00 0.0000000000000000e+00  0.0000000000000000e+00 0.0000000000000000e+00 0.0000000000000000e+00  0.0000000000000000e+00 0.0000000000000000e+00 0.0000000000000000e+00  0.0000000000000000e+00 0.0000000000000000e+00 0.0000000000000000e+00  0.0000000000000000e+00 0.0000000000000000e+00 0.0000000000000000e+00  0.0000000000000000e+00 0.0000000000000000e+00 0.0000000000000000e+00  0.0000000000000000e+00 0.0000000000000000e+00 0.0000000000000000e+00  0.0000000000000000e+00 0.0000000000000000e+00 0.0000000000000000e+00  0.0000000000000000e+00 0.0000000000000000e+00 0.0000000000000000e+00  0.0000000000000000e+00 0.0000000000000000e+00 0.0000000000000000e+00  0.0000000000000000e+00 0.0000000000000000e+00 0.0000000000000000e+00  0.0000000000000000e+00 0.0000000000000000e+00 0.0000000000000000e+00  0.0000000000000000e+00 0.0000000000000000e+00 0.0000000000000000e+00  0.0000000000000000e+00 0.0000000000000000e+00 0.0000000000000000e+00  0.0000000000000000e+00 0.0000000000000000e+00 0.0000000000000000e+00  0.0000000000000000e+00 0.0000000000000000e+00 0.0000000000000000e+00  0.0000000000000000e+00 0.0000000000000000e+00 0.0000000000000000e+00  0.0000000000000000e+00 0.0000000000000000e+00 0.0000000000000000e+00  0.0000000000000000e+00 0.0000000000000000e+00 0.0000000000000000e+00  0.0000000000000000e+00 0.0000000000000000e+00 0.0000000000000000e+00  0.0000000000000000e+00 0.0000000000000000e+00 0.0000000000000000e+00  0.0000000000000000e+00 0.0000000000000000e+00 0.0000000000000000e+00  0.0000000000000000e+00 0.0000000000000000e+00 0.0000000000000000e+00  0.0000000000000000e+00 0.0000000000000000e+00 0.0000000000000000e+00  0.0000000000000000e+00 0.0000000000000000e+00 0.0000000000000000e+00  0.0000000000000000e+00 0.0000000000000000e+00 0.0000000000000000e+00  0.0000000000000000e+00 0.0000000000000000e+00 0.0000000000000000e+00  0.0000000000000000e+00 0.0000000000000000e+00 0.0000000000000000e+00  0.0000000000000000e+00 0.0000000000000000e+00 0.0000000000000000e+00  0.0000000000000000e+00 0.0000000000000000e+00 0.0000000000000000e+00  0.0000000000000000e+00 0.0000000000000000e+00 0.0000000000000000e+00  0.0000000000000000e+00 0.0000000000000000e+00 0.0000000000000000e+00  0.0000000000000000e+00 0.0000000000000000e+00 0.0000000000000000e+00  0.0000000000000000e+00 0.0000000000000000e+00 0.0000000000000000e+00  0.0000000000000000e+00 0.0000000000000000e+00 0.0000000000000000e+00  0.0000000000000000e+00 0.0000000000000000e+00 0.0000000000000000e+00  0.0000000000000000e+00 0.0000000000000000e+00 0.0000000000000000e+00  0.0000000000000000e+00 0.0000000000000000e+00 0.0000000000000000e+00  0.0000000000000000e+00 0.0000000000000000e+00 0.0000000000000000e+00  0.0000000000000000e+00 0.0000000000000000e+00 0.0000000000000000e+00  0.0000000000000000e+00 0.0000000000000000e+00 0.0000000000000000e+00  0.0000000000000000e+00 0.0000000000000000e+00 0.0000000000000000e+00  0.0000000000000000e+00 0.0000000000000000e+00 0.0000000000000000e+00  0.0000000000000000e+00 0.0000000000000000e+00 0.0000000000000000e+00  0.0000000000000000e+00 0.0000000000000000e+00 0.0000000000000000e+00  0.0000000000000000e+00 0.0000000000000000e+00 0.0000000000000000e+00  0.0000000000000000e+00 0.0000000000000000e+00 0.0000000000000000e+00  0.0000000000000000e+00 0.0000000000000000e+00 0.0000000000000000e+00  0.0000000000000000e+00 0.0000000000000000e+00 0.0000000000000000e+00  -1.7518486549373065e-06 1.6876074095794892e-06 0.0000000000000000e+00  -3.6413755265958169e-06 3.3660682391135972e-06 0.0000000000000000e+00  -5.3318685738673566e-06 5.9125002204027854e-06 0.0000000000000000e+00  -7.0612272978075736e-06 9.3795394882671947e-06 0.0000000000000000e+00  -8.5323736538316109e-06 1.3539307270217835e-05 0.0000000000000000e+00  -1.0051618550826147e-05 1.8448509952882714e-05 0.0000000000000000e+00  -1.1317315117804638e-05 2.3855076465293340e-05 0.0000000000000000e+00  -1.2494482114695210e-05 2.9879336534802192e-05 0.0000000000000000e+00  -1.3704982493178236e-05 3.6335133297946632e-05 0.0000000000000000e+00  -1.4674159107935916e-05 4.3182070957590187e-05 0.0000000000000000e+00  -1.5678513748235012e-05 5.0410969557834152e-05 0.0000000000000000e+00  -1.6483514065933025e-05 5.7907304401905002e-05 0.0000000000000000e+00  -1.7276394165116821e-05 6.5663519886030233e-05 0.0000000000000000e+00  -1.7938661807311132e-05 7.3587040610805353e-05 0.0000000000000000e+00  -1.8529115353870832e-05 8.1685459388567796e-05 0.0000000000000000e+00  -1.9086035329659865e-05 8.9895209567495226e-05 0.0000000000000000e+00  -1.9538298688087903e-05 9.8168331274358842e-05 0.0000000000000000e+00  -1.9946913226953136e-05 1.0651764763343098e-04 0.0000000000000000e+00  -2.0285654093630997e-05 1.1486076389650132e-04 0.0000000000000000e+00  -2.0573545886988215e-05 1.2322765220822523e-04 0.0000000000000000e+00  -2.0815438665328461e-05 1.3154734395158993e-04 0.0000000000000000e+00  -2.0998499913304415e-05 1.3983758543667095e-04 0.0000000000000000e+00  -2.1164444643918960e-05 1.4807836698577247e-04 0.0000000000000000e+00  -2.1293985243838107e-05 1.5624164987483656e-04 0.0000000000000000e+00  -2.1383395185736645e-05 1.6434832024915264e-04 0.0000000000000000e+00  -2.1455891998553705e-05 1.7235753904995744e-04 0.0000000000000000e+00  -2.1499108366754855e-05 1.8029760945322679e-04 0.0000000000000000e+00  -2.1533255481075364e-05 1.8814005891771215e-04 0.0000000000000000e+00  -2.1544965532938984e-05 1.9590585436537504e-04 0.0000000000000000e+00  -2.1555519543062129e-05 2.0358051848964515e-04 0.0000000000000000e+00  -2.1549821733230875e-05 2.1117983252949058e-04 0.0000000000000000e+00  -2.1547498963950258e-05 2.1869695534123228e-04 0.0000000000000000e+00  -2.1535017503681748e-05 2.2614571502634098e-04 0.0000000000000000e+00  -2.1527614196300101e-05 2.3352496806890258e-04 0.0000000000000000e+00  -2.1514752271173002e-05 2.4084673569405371e-04 0.0000000000000000e+00  -2.1509207370266880e-05 2.4811422675574072e-04 0.0000000000000000e+00  -2.1501240750671223e-05 2.5533658725840997e-04 0.0000000000000000e+00  -2.1500127576298156e-05 2.6251925737653801e-04 0.0000000000000000e+00  -2.1497982076914187e-05 2.6966992834769353e-04 0.0000000000000000e+00  -2.1501125868015022e-05 2.7679386081364666e-04 0.0000000000000000e+00  -2.1502335181747885e-05 2.8389506941262885e-04 0.0000000000000000e+00  -2.1509069345308674e-05 2.9098375644163690e-04 0.0000000000000000e+00  -2.1515893337835099e-05 2.9805960956116097e-04 0.0000000000000000e+00  -2.1521735432124876e-05 3.0512968991297469e-04 0.0000000000000000e+00  -2.1526853144227536e-05 3.1219296421606667e-04 0.0000000000000000e+00  -2.1535816015497578e-05 3.1926136644524843e-04 0.0000000000000000e+00  -1.6771805483659324e-05 3.2631699157549570e-04 0.0000000000000000e+00  -7.3030470453368342e-06 3.2622164375381671e-04 0.0000000000000000e+00  -2.5934851480641743e-06 3.1913277463608289e-04 0.0000000000000000e+00  -2.5813854522480491e-06 3.1205771682344243e-04 0.0000000000000000e+00  -2.5675261546124249e-06 3.0497710817458773e-04 0.0000000000000000e+00  -2.5415729140878654e-06 2.9789604749176553e-04 0.0000000000000000e+00  -2.5103353188345878e-06 2.9080977286520174e-04 0.0000000000000000e+00  -2.4677497514340945e-06 2.8371070357048302e-04 0.0000000000000000e+00  -2.4102650002351970e-06 2.7659944587471409e-04 0.0000000000000000e+00  -2.3459875741995094e-06 2.6946295789340304e-04 0.0000000000000000e+00  -2.2588489810547425e-06 2.6230534790344130e-04 0.0000000000000000e+00  -2.1693153089369046e-06 2.5510740056674131e-04 0.0000000000000000e+00  -2.0514402054105878e-06 2.4787652334185164e-04 0.0000000000000000e+00  -1.9335954208235213e-06 2.4059038605493604e-04 0.0000000000000000e+00  -1.7814088823031459e-06 2.3325804180000662e-04 0.0000000000000000e+00  -1.6327277106989290e-06 2.2585577463431298e-04 0.0000000000000000e+00  -1.4454074479015160e-06 2.1839417519491905e-04 0.0000000000000000e+00  -1.2653782370295900e-06 2.1084933150285946e-04 0.0000000000000000e+00  -1.0438025884264632e-06 2.0323448371315690e-04 0.0000000000000000e+00  -8.3253577819884241e-07 1.9552573655371691e-04 0.0000000000000000e+00  -5.7805293566852634e-07 1.8774089135615576e-04 0.0000000000000000e+00  -3.3644984023569663e-07 1.7985771068824383e-04 0.0000000000000000e+00  -5.3016561372055146e-08 1.7189649184448460e-04 0.0000000000000000e+00  2.1638323413162547e-07 1.6383790624873294e-04 0.0000000000000000e+00  5.2146619577021795e-07 1.5570320764051360e-04 0.0000000000000000e+00  8.1475397102972749e-07 1.4749518410156994e-04 0.0000000000000000e+00  1.1161957698149401e-06 1.3921272051195456e-04 0.0000000000000000e+00  1.4296982820429462e-06 1.3088321751751313e-04 0.0000000000000000e+00  1.7387354971646193e-06 1.2250407679175785e-04 0.0000000000000000e+00  2.0469770728808892e-06 1.1410701189320814e-04 0.0000000000000000e+00  2.3486548831112510e-06 1.0570241439106569e-04 0.0000000000000000e+00  2.6363670244514843e-06 9.7321109079738757e-05 0.0000000000000000e+00  2.9153482507495947e-06 8.8982950795659825e-05 0.0000000000000000e+00  3.1518437501654862e-06 8.0740890028595559e-05 0.0000000000000000e+00  3.3921074117550430e-06 7.2593820114608089e-05 0.0000000000000000e+00  3.6075572776616766e-06 6.4633743450430805e-05 0.0000000000000000e+00  3.7429235434560393e-06 5.6824798128072845e-05 0.0000000000000000e+00  3.8668026123919998e-06 4.9293072173782369e-05 0.0000000000000000e+00  3.9117996634876476e-06 4.2039958214148742e-05 0.0000000000000000e+00  3.9359744420668406e-06 3.5140322465261130e-05 0.0000000000000000e+00  3.8059667876068000e-06 2.8690856994770289e-05 0.0000000000000000e+00  3.7217894737595348e-06 2.2641564225244673e-05 0.0000000000000000e+00  3.5724743173710826e-06 1.7224604256835628e-05 0.0000000000000000e+00  3.2001157789608292e-06 1.2291315999503246e-05 0.0000000000000000e+00  2.8427091209766272e-06 8.1075739016272662e-06 0.0000000000000000e+00  2.2415200968758110e-06 4.6802626771747013e-06 0.0000000000000000e+00  1.6827241562356843e-06 2.1499929681448524e-06 0.0000000000000000e+00  8.1891403257055989e-07 5.5402188624244073e-07 0.0000000000000000e+00  -6.5951352621103565e-07 1.2677832065540807e-06 0.0000000000000000e+00  -1.2155123456563929e-05 3.1564684401921156e-04 0.0000000000000000e+00  -1.2223295373618947e-05 3.0213476417746926e-04 0.0000000000000000e+00  -1.2068632631728203e-05 2.8001264714318778e-04 0.0000000000000000e+00  -1.8013527765144525e-06 6.3827222163049674e-06 0.0000000000000000e+00  -1.1890825376226082e-05 2.6601331415026451e-04 0.0000000000000000e+00  -2.8168515882765514e-06 1.4440149617226032e-05 0.0000000000000000e+00  -1.1797282590368407e-05 2.5164249300022468e-04 0.0000000000000000e+00  -4.4945827916725247e-06 3.2419932356434065e-05 0.0000000000000000e+00  -5.6164523364405311e-06 4.5977490277477650e-05 0.0000000000000000e+00  -1.1677432589320947e-05 2.3709924296383265e-04 0.0000000000000000e+00  -7.7287532392919569e-06 8.5584384168641505e-05 0.0000000000000000e+00  -1.1337307212180942e-05 2.0727162764997244e-04 0.0000000000000000e+00  -6.4086143384605988e-06 6.0435801234978477e-05 0.0000000000000000e+00  -8.5930870460570711e-06 1.0189448953751336e-04 0.0000000000000000e+00  -1.1103028219788540e-05 1.9189280367700522e-04 0.0000000000000000e+00  -1.1526181102050441e-05 2.2232657148904135e-04 0.0000000000000000e+00  -9.2376506567057616e-06 1.1867924772522340e-04 0.0000000000000000e+00  -1.0814333837753338e-05 1.7616595289179823e-04 0.0000000000000000e+00  -9.6280396792744366e-06 1.3472736034585194e-04 0.0000000000000000e+00  -1.0609631330405629e-05 1.6042965269106820e-04 0.0000000000000000e+00  -1.0119729251530815e-05 1.4713971352145453e-04 0.0000000000000000e+00  -7.2170353161677408e-06 7.2306843133069934e-05 0.0000000000000000e+00  -1.1983163604808165e-05 2.9152283274554727e-04 0.0000000000000000e+00  -3.7206566271118961e-06 2.2513092106212495e-05 0.0000000000000000e+00  -8.8667427192908286e-06 3.0881891753918367e-04 0.0000000000000000e+00  -6.5956057126897586e-08 3.2032577459030809e-06 0.0000000000000000e+00  -9.0418898595971620e-06 2.5881035577996359e-04 0.0000000000000000e+00  -9.1477719299146940e-06 2.7311946998303063e-04 0.0000000000000000e+00  -4.2607987683521545e-06 1.0512864546543732e-05 0.0000000000000000e+00  -7.7440282028332360e-06 3.9082468815072195e-05 0.0000000000000000e+00  -8.5000761180511067e-06 2.1478468584861386e-04 0.0000000000000000e+00  -8.9017975059471419e-06 2.4435547495276486e-04 0.0000000000000000e+00  -1.1447035957370318e-05 9.3671405591929174e-05 0.0000000000000000e+00  -8.2290534059795038e-06 1.9956454678377017e-04 0.0000000000000000e+00  -8.9877527436896177e-06 5.3578314289368667e-05 0.0000000000000000e+00  -1.2169097043298929e-05 1.1040032579336325e-04 0.0000000000000000e+00  -7.9040743097549919e-06 1.8400540350616722e-04 0.0000000000000000e+00  -8.7227424107811810e-06 2.2969898338027239e-04 0.0000000000000000e+00  -1.3474982697158297e-05 1.2708762112924484e-04 0.0000000000000000e+00  -7.5221724401223740e-06 1.6809383379786774e-04 0.0000000000000000e+00  -4.6463415073469580e-07 4.5570943476277838e-07 0.0000000000000000e+00  -3.7812984648232519e-08 1.6167470444882715e-07 0.0000000000000000e+00  -1.4331977112858187e-05 3.2122311625265484e-04 0.0000000000000000e+00  -2.5103865152561813e-06 3.6945085637339742e-06 0.0000000000000000e+00  -6.3856079947873640e-06 1.5365