<?xml version="1.0"?>
<VTKFile type="UnstructuredGrid"  version="0.1"  >
<UnstructuredGrid>
<Piece  NumberOfPoints="1419" NumberOfCells="2698">
<Points>
<DataArray  type="Float64"  NumberOfComponents="3"  format="ascii">0 0 0  0 0.41 0  2.5 0 0  2.5 0.41 0  0.6 0.19 0  0.6 0.21 0  0.25 0.2 0  0.15 0.2 0  0.2489897948556636 0.21 0  0.2489897948556636 0.19 0  0.6 0.2 0  0 0.3807142857143437 0  0 0.3514285714286952 0  0 0.3221428571430699 0  0 0.29285714285744 0  0 0.2635714285718054 0  0 0.2342857142861561 0  0 0.2050000000005308 0  0 0.175714285714732 0  0 0.1464285714289574 0  0 0.1171428571431897 0  0 0.08785714285737878 0  0 0.05857142857161107 0  0 0.02928571428580012 0  0.03015443760436003 0 0  0.06140001986583606 0 0  0.09377624077125973 0 0  0.1273239957535082 0 0  0.1620856860351972 0 0  0.1981052433264291 0 0  0.235428184091502 0 0  0.2741016576309132 0 0  0.3141745521465447 0 0  0.3556974926295285 0 0  0.3987229542472677 0 0  0.4433053055141081 0 0  0.4895008759286886 0 0  0.5373680609405097 0 0  0.5869673343216626 0 0  0.6383613676634521 0 0  0.6916151138468254 0 0  0.7467958595648856 0 0  0.8039733463919316 0 0  0.8632198139502143 0 0  0.9246101326867038 0 0  0.9882218810934433 0 0  1.054135445558498 0 0  1.122434100542598 0 0  1.193204177141305 0 0  1.266535089879536 0 0  1.342519516046404 0 0  1.421253448503939 0 0  1.502836389106271 0 0  1.587371439758838 0 0  1.674965418777374 0 0  1.765729001825544 0 0  1.859776908880082 0 0  1.957227977487062 0 0  2.058205329869943 0 0  2.162836591189951 0 0  2.271253957290865 0 0  2.383594446803425 0 0  2.5 0.1024999999997612 0  2.5 0.2049999999994743 0  2.5 0.3074999999997183 0  2.383594446803656 0.41 0  2.271253957291315 0.41 0  2.162836591190598 0.41 0  2.058205329870775 0.41 0  1.957227977488067 0.41 0  1.859776908881246 0.41 0  1.765729001826854 0.41 0  1.674965418778818 0.41 0  1.58737143976041 0.41 0  1.502836389107956 0.41 0  1.421253448505726 0.41 0  1.342519516048286 0.41 0  1.266535089881505 0.41 0  1.193204177143353 0.41 0  1.122434100544716 0.41 0  1.05413544556068 0.41 0  0.9882218810956305 0.41 0  0.9246101326886647 0.41 0  0.8632198139519631 0.41 0  0.8039733463934788 0.41 0  0.7467958595662458 0.41 0  0.6916151138480078 0.41 0  0.6383613676644679 0.41 0  0.5869673343225223 0.41 0  0.5373680609412221 0.41 0  0.4895008759292634 0.41 0  0.4433053055145528 0.41 0  0.3987229542475914 0.41 0  0.3556974926297398 0.41 0  0.3141745521466497 0.41 0  0.2741016576310038 0.41 0  0.2354281840915826 0.41 0  0.1981052433265003 0.41 0  0.1620856860352591 0.41 0  0.1273239957535623 0.41 0  0.09377624077128965 0.41 0  0.06140001986584975 0.41 0  0.03015443760436654 0.41 0  0.2497468076502589 0.2050254481002335 0  0.2497468076502614 0.1949745518997913 0  0.2469965252529372 0.1829317073451959 0  0.2439893735792749 0.1762316384219906 0  0.2400332147834255 0.1700443375285386 0  0.2352133972704371 0.1645032867342007 0  0.2296339016332438 0.1597280261969788 0  0.2234150974217223 0.1558215752574715 0  0.2166911463437691 0.1528682099456123 0  0.2096071079204251 0.1509316448471593 0  0.2023158100364996 0.1500536585536553 0  0.194974551899914 0.1502531923497262 0  0.1877417105387872 0.1515259415822739 0  0.1807733240461124 0.153844448527136 0  0.1742197252835808 0.15715869474974 0  0.1682222986673531 0.1613971801805478 0  0.162910430003803 0.1664684656256651 0  0.1583987151779087 0.1722631454351573 0  0.1547844879126891 0.178656207771761 0  0.1521457199348551 0.1855097315605723 0  0.1505393388476355 0.1926758619366523 0  0.1505393388476328 0.2073241380633295 0  0.1521457199348437 0.2144902684393899 0  0.1547844879126531 0.221343792228163 0  0.1583987151778488 0.2277368545647528 0  0.1629104300036858 0.2335315343742052 0  0.1682222986671726 0.2386028198193036 0  0.1742197252833576 0.2428413052501257 0  0.1807733240458683 0.2461555514727623 0  0.1877417105384929 0.2484740584176516 0  0.1949745518995776 0.2497468076502398 0  0.202315810036185 0.2499463414463592 0  0.2096071079201568 0.2490683551528932 0  0.2166911463435495 0.2471317900544655 0  0.2234150974215506 0.2441784247426195 0  0.2296339016331197 0.2402719738031125 0  0.2352133972703547 0.2354967132658811 0  0.2400332147833751 0.2299556624715287 0  0.2439893735792577 0.2237683615780412 0  0.246996525252926 0.2170682926548348 0  0.25645809709277 0.21 0  0.2639263993298655 0.21 0  0.271394701566961 0.21 0  0.2788630038040554 0.21 0  0.2863313060411479 0.21 0  0.2937996082782405 0.21 0  0.301267910515333 0.21 0  0.3087362127524279 0.21 0  0.3162045149895234 0.21 0  0.3236728172265972 0.21 0  0.3311411194636928 0.21 0  0.3386094217007701 0.21 0  0.3460777239378666 0.21 0  0.3535460261749672 0.21 0  0.3610143284120516 0.21 0  0.3684826306491596 0.21 0  0.3759509328862226 0.21 0  0.383419235123329 0.21 0  0.3908875373604028 0.21 0  0.3983558395975142 0.21 0  0.4058241418345938 0.21 0  0.4132924440716992 0.21 0  0.4207607463087888 0.21 0  0.4282290485459029 0.21 0  0.4356973507830418 0.21 0  0.4431656530201649 0.21 0  0.4506339552573136 0.21 0  0.4581022574944306 0.21 0  0.4655705597315852 0.21 0  0.4730388619686996 0.21 0  0.480507164205851 0.21 0  0.4879754664429498 0.21 0  0.4954437686800938 0.21 0  0.502912070917267 0.21 0  0.5103803731544119 0.21 0  0.5178486753915261 0.21 0  0.5253169776286404 0.21 0  0.5327852798657868 0.21 0  0.5402535821029386 0.21 0  0.54772188434007 0.21 0  0.5551901865771842 0.21 0  0.5626584888143201 0.21 0  0.5701267910514778 0.21 0  0.5775950932886138 0.21 0  0.5850633955257281 0.21 0  0.5925316977628483 0.21 0  0.6 0.2050000000000054 0  0.6 0.1950000000000217 0  0.5925316977628897 0.19 0  0.5850633955257988 0.19 0  0.5775950932887378 0.19 0  0.5701267910515998 0.19 0  0.5626584888145268 0.19 0  0.5551901865773963 0.19 0  0.547721884340339 0.19 0  0.5402535821032429 0.19 0  0.5327852798661811 0.19 0  0.5253169776290537 0.19 0  0.5178486753919799 0.19 0  0.5103803731549078 0.19 0  0.502912070917822 0.19 0  0.4954437686807294 0.19 0  0.4879754664436223 0.19 0  0.4805071642065402 0.19 0  0.4730388619694271 0.19 0  0.4655705597323621 0.19 0  0.4581022574952563 0.19 0  0.4506339552581777 0.19 0  0.4431656530210671 0.19 0  0.4356973507839815 0.19 0  0.4282290485468779 0.19 0  0.4207607463097617 0.19 0  0.4132924440726327 0.19 0  0.4058241418354857 0.19 0  0.3983558395983636 0.19 0  0.3908875373612097 0.19 0  0.3834192351240934 0.19 0  0.3759509328869369 0.19 0  0.3684826306498175 0.19 0  0.361014328412667 0.19 0  0.3535460261755617 0.19 0  0.3460777239384295 0.19 0  0.3386094217012945 0.19 0  0.3311411194641595 0.19 0  0.3236728172270245 0.19 0  0.3162045149898895 0.19 0  0.3087362127527544 0.19 0  0.3012679105156187 0.19 0  0.2937996082784807 0.19 0  0.2863313060413428 0.19 0  0.2788630038042048 0.19 0  0.2713947015670686 0.19 0  0.2639263993299336 0.19 0  0.2564580970927985 0.19 0  0.2607803159922026 0.2000727136295815 0  0.5887803774232762 0.2001272386983733 0  0.5745072403740523 0.2002044435018727 0  0.5511891430099709 0.2001122610077113 0  0.2751288526855082 0.20000000000002 0  0.5365194309847112 0.1999999999999436 0  0.2894621222999649 0.1998691686390484 0  0.5215828265105155 0.1999999999999228 0  0.3127789816668748 0.1998657885438805 0  0.3274069683451451 0.2000000000000796 0  0.5066462220363641 0.199999999999908 0  0.3650630746574081 0.199866017807523 0  0.476773013087985 0.1999999999998713 0  0.3417402379596385 0.1998691686391011 0  0.3796850840047755 0.200000000000134 0  0.4618364086138087 0.1999999999998546 0  0.4917096175621762 0.1999999999998808 0  0.3946216884789568 0.2000000000001512 0  0.446899804139621 0.1999999999998389 0  0.4089549580935208 0.1998691686391595 0  0.4322718174608562 0.200127451265745 0  0.4201487168029707 0.1999966199048527 0  0.3528922713220932 0.2000185703532356 0  0.5633122436674589 0.1999814296467508 0  0.3006558810093873 0.1999966199048318 0  0.5815926498168407 0.1966545283159175 0  0.2677053789419034 0.1964246479135325 0  0.5290511287476175 0.1970915826863981 0  0.5439877332217911 0.197091582686394 0  0.2825131256993216 0.2035478995978015 0  0.3199386661080599 0.202908417313604 0  0.4842413153250809 0.1970915826863873 0  0.5141145242734466 0.1970915826863843 0  0.3722167817676917 0.2029084173136195 0  0.4693047108508938 0.1970915826863783 0  0.3348752705822316 0.202908417313609 0  0.3871533862418661 0.2029084173136212 0  0.4543681063767183 0.1970915826863795 0  0.4991779197992749 0.1970915826863902 0  0.4020059614928624 0.203547899597858 0  0.4394315019025246 0.1970915826863714 0  0.2550657455369551 0.2034088125358657 0  0.2548908499171161 0.1966940311614271 0  0.5946539510196798 0.2024302972968126 0  0.267698176732111 0.2039977513680092 0  0.4261685417851465 0.196409292431739 0  0.3590076176283495 0.196411355804271 0  0.5571672426447437 0.2036011176410121 0  0.3066757059912147 0.1964092924317024 0  0.594380730180568 0.1966558399668133 0  0.4842413153245942 0.2040749161535287 0  0.4693047108503577 0.2040749161535231 0  0.3871533862424271 0.1959250838464788 0  0.372246743208829 0.1959123236376545 0  0.5141145242731028 0.2040749161535395 0  0.4543681063761134 0.2040749161535186 0  0.4019979587101454 0.1959834479682427 0  0.4394608940728603 0.2040870543693135 0  0.5439623148931173 0.2040856076781014 0  0.5290511287473298 0.2040749161535501 0  0.4991779197988497 0.2040749161535382 0  0.3347912413592433 0.1959225448935183 0  0.3199680582793816 0.1959123018030061 0  0.2825051229162361 0.1959834479681729 0  0.3590471196690275 0.2036304442587945 0  0.5571594006495384 0.1963685282145804 0  0.3067669986803285 0.203627750582736 0  0.4262598344738712 0.2036568242185335 0  0.5814408164431408 0.2041285596160068 0  0.5688286748170428 0.1961819304477386 0  0.4145905603063645 0.2038180695522843 0  0.3473758401724931 0.2038180695522752 0  0.2950977245128307 0.2038180695522663 0  0.5688286748170693 0.203818069552238 0  0.2950977245127906 0.1961819304477774 0  0.3473758401723931 0.1961819304478349 0  0.4145905603061963 0.1961819304479011 0  0.2601812407614425 0.2056861609747042
[...]
<PointData  Vectors="f_40-0"> 
<DataArray  type="Float64"  Name="f_40-0"  NumberOfComponents="3" format="ascii">0.0000000000000000e+00 0.0000000000000000e+00 0.0000000000000000e+00  0.0000000000000000e+00 0.0000000000000000e+00 0.0000000000000000e+00  0.0000000000000000e+00 0.0000000000000000e+00 0.0000000000000000e+00  0.0000000000000000e+00 0.0000000000000000e+00 0.0000000000000000e+00  9.1289040381906691e-04 -1.1415638571774429e-03 0.0000000000000000e+00  -6.8998205424702713e-04 -8.9155115886478795e-04 0.0000000000000000e+00  0.0000000000000000e+00 0.0000000000000000e+00 0.0000000000000000e+00  0.0000000000000000e+00 0.0000000000000000e+00 0.0000000000000000e+00  0.0000000000000000e+00 0.0000000000000000e+00 0.0000000000000000e+00  0.0000000000000000e+00 0.0000000000000000e+00 0.0000000000000000e+00  -2.0260884628614671e-03 -8.5304407307611142e-04 0.0000000000000000e+00  3.7874948508351603e-03 0.0000000000000000e+00 0.0000000000000000e+00  6.9922981861576814e-03 0.0000000000000000e+00 0.0000000000000000e+00  9.6144100059668142e-03 0.0000000000000000e+00 0.0000000000000000e+00  1.1653830310265593e-02 0.0000000000000000e+00 0.0000000000000000e+00  1.3110559099053752e-02 0.0000000000000000e+00 0.0000000000000000e+00  1.3984596372331206e-02 0.0000000000000000e+00 0.0000000000000000e+00  1.4275942130097080e-02 0.0000000000000000e+00 0.0000000000000000e+00  1.3984596372348879e-02 0.0000000000000000e+00 0.0000000000000000e+00  1.3110559099084106e-02 0.0000000000000000e+00 0.0000000000000000e+00  1.1653830310303185e-02 0.0000000000000000e+00 0.0000000000000000e+00  9.6144100060025252e-03 0.0000000000000000e+00 0.0000000000000000e+00  6.9922981861881553e-03 0.0000000000000000e+00 0.0000000000000000e+00  3.7874948508523302e-03 0.0000000000000000e+00 0.0000000000000000e+00  0.0000000000000000e+00 0.0000000000000000e+00 0.0000000000000000e+00  0.0000000000000000e+00 0.0000000000000000e+00 0.0000000000000000e+00  0.0000000000000000e+00 0.0000000000000000e+00 0.0000000000000000e+00  0.0000000000000000e+00 0.0000000000000000e+00 0.0000000000000000e+00  0.0000000000000000e+00 0.0000000000000000e+00 0.0000000000000000e+00  0.0000000000000000e+00 0.0000000000000000e+00 0.0000000000000000e+00  0.0000000000000000e+00 0.0000000000000000e+00 0.0000000000000000e+00  0.0000000000000000e+00 0.0000000000000000e+00 0.0000000000000000e+00  0.0000000000000000e+00 0.0000000000000000e+00 0.0000000000000000e+00  0.0000000000000000e+00 0.0000000000000000e+00 0.0000000000000000e+00  0.0000000000000000e+00 0.0000000000000000e+00 0.0000000000000000e+00  0.0000000000000000e+00 0.0000000000000000e+00 0.0000000000000000e+00  0.0000000000000000e+00 0.0000000000000000e+00 0.0000000000000000e+00  0.0000000000000000e+00 0.0000000000000000e+00 0.0000000000000000e+00  0.0000000000000000e+00 0.0000000000000000e+00 0.0000000000000000e+00  0.0000000000000000e+00 0.0000000000000000e+00 0.0000000000000000e+00  0.0000000000000000e+00 0.0000000000000000e+00 0.0000000000000000e+00  0.0000000000000000e+00 0.0000000000000000e+00 0.0000000000000000e+00  0.0000000000000000e+00 0.0000000000000000e+00 0.0000000000000000e+00  0.0000000000000000e+00 0.0000000000000000e+00 0.0000000000000000e+00  0.0000000000000000e+00 0.0000000000000000e+00 0.0000000000000000e+00  0.0000000000000000e+00 0.0000000000000000e+00 0.0000000000000000e+00  0.0000000000000000e+00 0.0000000000000000e+00 0.0000000000000000e+00  0.0000000000000000e+00 0.0000000000000000e+00 0.0000000000000000e+00  0.0000000000000000e+00 0.0000000000000000e+00 0.0000000000000000e+00  0.0000000000000000e+00 0.0000000000000000e+00 0.0000000000000000e+00  0.0000000000000000e+00 0.0000000000000000e+00 0.0000000000000000e+00  0.0000000000000000e+00 0.0000000000000000e+00 0.0000000000000000e+00  0.0000000000000000e+00 0.0000000000000000e+00 0.0000000000000000e+00  0.0000000000000000e+00 0.0000000000000000e+00 0.0000000000000000e+00  0.0000000000000000e+00 0.0000000000000000e+00 0.0000000000000000e+00  0.0000000000000000e+00 0.0000000000000000e+00 0.0000000000000000e+00  0.0000000000000000e+00 0.0000000000000000e+00 0.0000000000000000e+00  0.0000000000000000e+00 0.0000000000000000e+00 0.0000000000000000e+00  0.0000000000000000e+00 0.0000000000000000e+00 0.0000000000000000e+00  0.0000000000000000e+00 0.0000000000000000e+00 0.0000000000000000e+00  0.0000000000000000e+00 0.0000000000000000e+00 0.0000000000000000e+00  0.0000000000000000e+00 0.0000000000000000e+00 0.0000000000000000e+00  1.6167431010716950e-03 2.5353203114611918e-05 0.0000000000000000e+00  1.6737268638165178e-03 1.2367754178943842e-06 0.0000000000000000e+00  1.6079529998356957e-03 -2.1565557208194689e-05 0.0000000000000000e+00  0.0000000000000000e+00 0.0000000000000000e+00 0.0000000000000000e+00  0.0000000000000000e+00 0.0000000000000000e+00 0.0000000000000000e+00  0.0000000000000000e+00 0.0000000000000000e+00 0.0000000000000000e+00  0.0000000000000000e+00 0.0000000000000000e+00 0.0000000000000000e+00  0.0000000000000000e+00 0.0000000000000000e+00 0.0000000000000000e+00  0.0000000000000000e+00 0.0000000000000000e+00 0.0000000000000000e+00  0.0000000000000000e+00 0.0000000000000000e+00 0.0000000000000000e+00  0.0000000000000000e+00 0.0000000000000000e+00 0.0000000000000000e+00  0.0000000000000000e+00 0.0000000000000000e+00 0.0000000000000000e+00  0.0000000000000000e+00 0.0000000000000000e+00 0.0000000000000000e+00  0.0000000000000000e+00 0.0000000000000000e+00 0.0000000000000000e+00  0.0000000000000000e+00 0.0000000000000000e+00 0.0000000000000000e+00  0.0000000000000000e+00 0.0000000000000000e+00 0.0000000000000000e+00  0.0000000000000000e+00 0.0000000000000000e+00 0.0000000000000000e+00  0.0000000000000000e+00 0.0000000000000000e+00 0.0000000000000000e+00  0.0000000000000000e+00 0.0000000000000000e+00 0.0000000000000000e+00  0.0000000000000000e+00 0.0000000000000000e+00 0.0000000000000000e+00  0.0000000000000000e+00 0.0000000000000000e+00 0.0000000000000000e+00  0.0000000000000000e+00 0.0000000000000000e+00 0.0000000000000000e+00  0.0000000000000000e+00 0.0000000000000000e+00 0.0000000000000000e+00  0.0000000000000000e+00 0.0000000000000000e+00 0.0000000000000000e+00  0.0000000000000000e+00 0.0000000000000000e+00 0.0000000000000000e+00  0.0000000000000000e+00 0.0000000000000000e+00 0.0000000000000000e+00  0.0000000000000000e+00 0.0000000000000000e+00 0.0000000000000000e+00  0.0000000000000000e+00 0.0000000000000000e+00 0.0000000000000000e+00  0.0000000000000000e+00 0.0000000000000000e+00 0.0000000000000000e+00  0.0000000000000000e+00 0.0000000000000000e+00 0.0000000000000000e+00  0.0000000000000000e+00 0.0000000000000000e+00 0.0000000000000000e+00  0.0000000000000000e+00 0.0000000000000000e+00 0.0000000000000000e+00  0.0000000000000000e+00 0.0000000000000000e+00 0.0000000000000000e+00  0.0000000000000000e+00 0.0000000000000000e+00 0.0000000000000000e+00  0.0000000000000000e+00 0.0000000000000000e+00 0.0000000000000000e+00  0.0000000000000000e+00 0.0000000000000000e+00 0.0000000000000000e+00  0.0000000000000000e+00 0.0000000000000000e+00 0.0000000000000000e+00  0.0000000000000000e+00 0.0000000000000000e+00 0.0000000000000000e+00  0.0000000000000000e+00 0.0000000000000000e+00 0.0000000000000000e+00  0.0000000000000000e+00 0.0000000000000000e+00 0.0000000000000000e+00  0.0000000000000000e+00 0.0000000000000000e+00 0.0000000000000000e+00  0.0000000000000000e+00 0.0000000000000000e+00 0.0000000000000000e+00  0.0000000000000000e+00 0.0000000000000000e+00 0.0000000000000000e+00  0.0000000000000000e+00 0.0000000000000000e+00 0.0000000000000000e+00  0.0000000000000000e+00 0.0000000000000000e+00 0.0000000000000000e+00  0.0000000000000000e+00 0.0000000000000000e+00 0.0000000000000000e+00  0.0000000000000000e+00 0.0000000000000000e+00 0.0000000000000000e+00  0.0000000000000000e+00 0.0000000000000000e+00 0.0000000000000000e+00  0.0000000000000000e+00 0.0000000000000000e+00 0.0000000000000000e+00  0.0000000000000000e+00 0.0000000000000000e+00 0.0000000000000000e+00  0.0000000000000000e+00 0.0000000000000000e+00 0.0000000000000000e+00  0.0000000000000000e+00 0.0000000000000000e+00 0.0000000000000000e+00  0.0000000000000000e+00 0.0000000000000000e+00 0.0000000000000000e+00  0.0000000000000000e+00 0.0000000000000000e+00 0.0000000000000000e+00  0.0000000000000000e+00 0.0000000000000000e+00 0.0000000000000000e+00  0.0000000000000000e+00 0.0000000000000000e+00 0.0000000000000000e+00  0.0000000000000000e+00 0.0000000000000000e+00 0.0000000000000000e+00  0.0000000000000000e+00 0.0000000000000000e+00 0.0000000000000000e+00  0.0000000000000000e+00 0.0000000000000000e+00 0.0000000000000000e+00  0.0000000000000000e+00 0.0000000000000000e+00 0.0000000000000000e+00  0.0000000000000000e+00 0.0000000000000000e+00 0.0000000000000000e+00  0.0000000000000000e+00 0.0000000000000000e+00 0.0000000000000000e+00  0.0000000000000000e+00 0.0000000000000000e+00 0.0000000000000000e+00  0.0000000000000000e+00 0.0000000000000000e+00 0.0000000000000000e+00  0.0000000000000000e+00 0.0000000000000000e+00 0.0000000000000000e+00  0.0000000000000000e+00 0.0000000000000000e+00 0.0000000000000000e+00  0.0000000000000000e+00 0.0000000000000000e+00 0.0000000000000000e+00  0.0000000000000000e+00 0.0000000000000000e+00 0.0000000000000000e+00  0.0000000000000000e+00 0.0000000000000000e+00 0.0000000000000000e+00  0.0000000000000000e+00 0.0000000000000000e+00 0.0000000000000000e+00  0.0000000000000000e+00 0.0000000000000000e+00 0.0000000000000000e+00  0.0000000000000000e+00 0.0000000000000000e+00 0.0000000000000000e+00  0.0000000000000000e+00 0.0000000000000000e+00 0.0000000000000000e+00  0.0000000000000000e+00 0.0000000000000000e+00 0.0000000000000000e+00  0.0000000000000000e+00 0.0000000000000000e+00 0.0000000000000000e+00  0.0000000000000000e+00 0.0000000000000000e+00 0.0000000000000000e+00  0.0000000000000000e+00 0.0000000000000000e+00 0.0000000000000000e+00  0.0000000000000000e+00 0.0000000000000000e+00 0.0000000000000000e+00  0.0000000000000000e+00 0.0000000000000000e+00 0.0000000000000000e+00  0.0000000000000000e+00 0.0000000000000000e+00 0.0000000000000000e+00  0.0000000000000000e+00 0.0000000000000000e+00 0.0000000000000000e+00  4.5482989156843175e-03 -3.0489897029844820e-02 0.0000000000000000e+00  1.7172331489128500e-03 -3.6172048558504359e-02 0.0000000000000000e+00  3.3266300499500473e-03 -3.1439487655328315e-02 0.0000000000000000e+00  -2.4326805545413321e-03 -2.7570255810408142e-02 0.0000000000000000e+00  -2.2374171519275268e-03 -2.3014890958438585e-02 0.0000000000000000e+00  -8.1951831908449128e-03 -1.8085250278289999e-02 0.0000000000000000e+00  -8.4758866932813925e-03 -9.6074296941869933e-03 0.0000000000000000e+00  -1.4705146478211591e-02 -2.7533178016179460e-03 0.0000000000000000e+00  -1.9787834402615206e-02 -2.6820324941189918e-03 0.0000000000000000e+00  -1.9101028660367440e-02 -6.0681697045546689e-04 0.0000000000000000e+00  -2.0935836750540365e-02 -9.8482579652785229e-04 0.0000000000000000e+00  -1.9343887464737357e-02 1.4385517662140638e-04 0.0000000000000000e+00  -2.0383781025528059e-02 -9.8436062053586237e-04 0.0000000000000000e+00  -1.4817798724408537e-02 -1.1778845787426841e-03 0.0000000000000000e+00  -1.8999871007930789e-02 -8.3813032565983935e-04 0.0000000000000000e+00  -1.5068587033312774e-02 -2.4042774345351663e-03 0.0000000000000000e+00  -1.6511603941281764e-02 1.1226286823593065e-03 0.0000000000000000e+00  -1.2960679464278072e-02 -8.9624991867411888e-04 0.0000000000000000e+00  -1.5391028454373869e-02 2.4384276611463798e-03 0.0000000000000000e+00  -1.0208743954162082e-02 2.6472540336595538e-04 0.0000000000000000e+00  -1.1521805674506357e-02 2.8819640337934462e-03 0.0000000000000000e+00  -2.6885685747791788e-03 -9.3451673522036412e-04 0.0000000000000000e+00  4.5391494397455847e-03 9.9934856193778813e-04 0.0000000000000000e+00  6.2005899369933877e-03 1.8186065897931672e-03 0.0000000000000000e+00  1.5629981108596872e-02 4.4085139852008100e-03 0.0000000000000000e+00  1.0682880928248905e-02 1.4018006785417954e-03 0.0000000000000000e+00  1.9269465812244986e-02 2.1958588117236989e-03 0.0000000000000000e+00  1.2873082535133503e-02 -3.0145024047027404e-05 0.0000000000000000e+00  1.9836103599452377e-02 7.2581680978417971e-04 0.0000000000000000e+00  1.3537577242539312e-02 -5.0025505345284384e-04 0.0000000000000000e+00  1.8752977406326643e-02 2.1099563383819816e-04 0.0000000000000000e+00  1.3175673885314588e-02 -4.6922997007330368e-04 0.0000000000000000e+00  1.6774623719856593e-02 5.8753261295802395e-04 0.0000000000000000e+00  1.2163010552026940e-02 -7.7873063606150386e-04 0.0000000000000000e+00  1.4973552037763828e-02 3.8176134287270516e-04 0.0000000000000000e+00  1.0406332050039090e-02 -2.6899338926111296e-04 0.0000000000000000e+00  1.2097513088399346e-02 6.9283638882333470e-04 0.0000000000000000e+00  8.3825115789842638e-03 -6.8923317955754055e-05 0.0000000000000000e+00  8.7964094838057054e-03 4.3875339357620641e-04 0.0000000000000000e+00  6.1850735212958668e-03 2.7227297967887237e-04 0.0000000000000000e+00  5.7744528271027520e-03 9.0591970484063381e-04 0.0000000000000000e+00  1.7823396573240498e-03 1.7481696761413841e-03 0.0000000000000000e+00  1.3339680658566440e-03 9.5143802547853200e-05 0.0000000000000000e+00  5.5362258559348270e-04 3.5498645384549060e-04 0.0000000000000000e+00  -3.1069295605736685e-04 4.5667266716981780e-04 0.0000000000000000e+00  -5.0511730236470643e-04 5.3231187813281889e-04 0.0000000000000000e+00  -1.5836591918607259e-03 -9.9530779138265924e-04 0.0000000000000000e+00  -2.5007566788531354e-03 -1.2427776371756677e-03 0.0000000000000000e+00  3.5868917652886749e-03 1.2550289146126543e-03 0.0000000000000000e+00  3.0586881197318038e-03 1.8438137592190781e-03 0.0000000000000000e+00  2.0720516101406113e-03 2.0367475043186981e-03 0.0000000000000000e+00  9.6927382692063883e-04 1.9631991032530022e-03 0.0000000000000000e+00  1.4786453371524517e-04 3.0046442753467197e-03 0.0000000000000000e+00  -3.4572480248422762e-03 1.4176881553867287e-03 0.0000000000000000e+00  -3.3929343745770831e-03 1.1823375335721900e-03 0.0000000000000000e+00  -6.0518894507549182e-03 1.6300557973797413e-03 0.0000000000000000e+00  -5.9633166441665055e-03 1.0555826820968989e-03 0.0000000000000000e+00  -8.9678684627272631e-03 1.7765117580760363e-03 0.0000000000000000e+00  -8.2323032777549040e-03 1.3971716211835785e-03 0.0000000000000000e+00  -1.1919924428270043e-02 2.2037650726859279e-03 0.0000000000000000e+00  -1.0132216879361314e-02 1.7112866317460320e-03 0.0000000000000000e+00  -1.4215958243040573e-02 2.2790558674034528e-03 0.0000000000000000e+00  -1.1452560264166625e-02 1.6929033881576746e-03 0.0000000000000000e+00  -1.5616272497281746e-02 2.0890000647350074e-03 0.0000000000000000e+00  -1.2018530628699382e-02 1.8002826698590166e-03 0.0000000000000000e+00  -1.6433522719998074e-02 2.1857531183439574e-03 0.0000000000000000e+00  -1.1536594110447888e-02 2.1033907220532706e-03 0.0000000000000000e+00  -1.5874750990022488e-02 1.7167432792887293e-03 0.0000000000000000e+00  -1.0091664370384876e-02 1.7254369163826086e-03 0.0000000000000000e+00  -1.3404584470514087e-02 -7.2915509649970145e-04 0.0000000000000000e+00  -3.8954348205398133e-03 -3.6770129198014151e-03 0.0000000000000000e+00  -1.0628447508687371e-03 -2.4700333571787184e-03 0.0000000000000000e+00  2.9031028641990893e-03 -1.8477950077772471e-03 0.0000000000000000e+00  1.2761692350107592e-02 2.3419026488643952e-03 0.0000000000000000e+00  1.0492783437891031e-02 1.3791969169194204e-03 0.0000000000000000e+00  1.6152652141466953e-02 3.2769366271894760e-03 0.0000000000000000e+00  1.2849684025935807e-02 1.6561758903770867e-03 0.0000000000000000e+00  1.7330471864244728e-02 3.6264554802045526e-03 0.0000000000000000e+00  1.5216734032481851e-02 3.0122245077625251e-03 0.0000000000000000e+00  1.7281360966301635e-02 5.0121732910595644e-03 0.0000000000000000e+00  1.1430809794960877e-02 2.6208368673305118e-03 0.0000000000000000e+00  1.7643150387797169e-02 4.3486112603097812e-04 0.0000000000000000e+00  1.6172685744312954e-02 1.7743053268566278e-03 0.0000000000000000e+00  1.6686476884857117e-02 1.1444391036590841e-03 0.0000000000000000e+00  1.3666713658329603e-02 2.2635686576705102e-03 0.0000000000000000e+00  1.4185647957599535e-02 2.6725803292351057e-03 0.0000000000000000e+00  1.0779871221802004e-02 5.8486269013824652e-03 0.0000000000000000e+00  8.5854079709975408e-03 1.3406276701057129e-02 0.0000000000000000e+00  5.4256415952874965e-03 1.9930104391010041e-02 0.0000000000000000e+00  -1.8714703100355381e-04 2.1678354540642493e-02 0.0000000000000000e+00  1.2684705664178198e-03 2.7113215732113193e-02 0.0000000000000000e+00  -1.3202441904232299e-03 2.8981533823588635e-02 0.0000000000000000e+00  1.4922360129898877e-04 3.4477432175105946e-02 0.0000000000000000e+00  -6.6036346717450508e-03 3.2474762547584052e-02 0.0000000000000000e+00  3.2909488919899331e-02 3.9006478847017638e-03 0.0000000000000000e+00  -6.2986567807811250e-04 6.7792880871603712e-04 0.0000000000000000e+00  -3.2507492728446686e-03 3.6864570634772748e-03 0.0000000000000000e+00  -4.4825919701758843e-03 7.6663056469128072e-03 0.0000000000000000e+00  1.9666248764208475e-02 3.4886491222583336e-03 0.0000000000000000e+00  -1.7115985198805266e-03 8.4920509025686909e-03 0.0000000000000000e+00  2.9199365054976646e-02 5.7078057302056735e-03 0.0000000000000000e+00  -1.4504786365160879e-03 9.3232504959285239e-03 0.0000000000000000e+00  2.0533681308515319e-02 4.2653878311904271e-03 0.0000000000000000e+00  3.0931980958780465e-03 1.9388566206564751e-03 0.0000000000000000e+00  -1.4219340053517136e-03 9.4555695972122558e-03 0.0000000000000000e+00  3.2403954866279372e-03 -2.1719100592786631e-03 0.0000000000000000e+00  -1.3051165109196341e-03 7.7104304913812420e-03 0.0000000000000000e+00  1.5241184459572623e-04 -1.3690516159467715e-03 0.0000000000000000e+00  1.6981040265472180e-03 -2.8110695427238267e-04 0.0000000000000000e+00  -1.4223076850392070e-03 5.8832644701115513e-03 0.0000000000000000e+00  -1.3856149540729670e-03 8.9260141839414206e-03 0.0000000000000000e+00  -1.2121453998590044e-03 -6.0876256866070132e-04 0.0000000000000000e+00  -2.1310761871732721e-03 3.5711489261173431e-03 0.0000000000000000e+00  -2.8478477016475917e-03 -6.2225306259489433e-03 0.0000000000000000e+00  -5.8659501632812375e-03 -3.0624347957457052e-03 0.0000000000000000e+00  -3.8601228145034651e-04 1.8693274475927613e-02 0.0000000000000000e+00  7.2010720959119943e-04 6.4355253237562554e-03 0.0000000000000000e+00  9.0683423337248448e-05 5.2267581320456702e-03 0.0000000000000000e+00  -5.2017950112480471e-03 -7.9600616150775154e-04 0.0000000000000000e+00  -2.5445282122981204e-03 1.9987872475426415e-03 0.0000000000000000e+00  -1.4363491356767907e-05 2.9957156698661902e-03 0.0000000000000000e+00  5.8433802564038196e-04 1.1214573738234940e-02 0.0000000000000000e+00  -1.7057729072963166e-04 8.5933427089267787e-03 0.0000000000000000e+00  4.9911377046267429e-03 -4.5529870211698381e-03 0.0000000000000000e+00  8.3902982525842166e-03 3.2616653026798221e-03 0.0000000000000000e+00  2.2826465530821883e-03 1.6280484903392449e-02 0.0000000000000000e+00  1.3024847432229405e-03 1.3404976088035364e-02 0.0000000000000000e+00  1.3694478578174987e-03 6.8053204769458354e-03 0.0000000000000000e+00  2.4918919029436144e-03 1.6883959097100797e-02 0.0000000000000000e+00  5.9369709732621538e-03 2.5215724598195428e-03 0.0000000000000000e+00  3.8197184086870644e-03 1.0225983317689003e-02 0.0000000000000000e+00  2.3516149143427124e-03 1.6992862932795290e-02 0.0000000000000000e+00  1.9154795551268855e-03 1.5108632432377088e-02 0.0000000000000000e+00  5.8977984009138092e-03 1.0472924625503839e-02 0.0000000000000000e+00  5.1442641994956708e-03 1.4968528365734849e-02 0.0000000000000000e+00  -2.5427915691617595e-02 -4.4090194514822531e-04 0.0000000000000000e+00  -2.3556873991178052e-02 -1.5725279639821434e-02 0.0000000000000000e+00  -1.6984173536765021e-04 -1.0950995533919009e-03 0.0000000000000000e+00  2.3230970118029060e-03 -1.5931922043373964e-03 0.0000000000000000e+00  -2.0104165307466060e-02 8.808557692