<?xml version="1.0"?>
<VTKFile type="UnstructuredGrid"  version="0.1"  >
<UnstructuredGrid>
<Piece  NumberOfPoints="1419" NumberOfCells="2698">
<Points>
<DataArray  type="Float64"  NumberOfComponents="3"  format="ascii">0 0 0  0 0.41 0  2.5 0 0  2.5 0.41 0  0.6 0.19 0  0.6 0.21 0  0.25 0.2 0  0.15 0.2 0  0.2489897948556636 0.21 0  0.2489897948556636 0.19 0  0.6 0.2 0  0 0.3807142857143437 0  0 0.3514285714286952 0  0 0.3221428571430699 0  0 0.29285714285744 0  0 0.2635714285718054 0  0 0.2342857142861561 0  0 0.2050000000005308 0  0 0.175714285714732 0  0 0.1464285714289574 0  0 0.1171428571431897 0  0 0.08785714285737878 0  0 0.05857142857161107 0  0 0.02928571428580012 0  0.03015443760436003 0 0  0.06140001986583606 0 0  0.09377624077125973 0 0  0.1273239957535082 0 0  0.1620856860351972 0 0  0.1981052433264291 0 0  0.235428184091502 0 0  0.2741016576309132 0 0  0.3141745521465447 0 0  0.3556974926295285 0 0  0.3987229542472677 0 0  0.4433053055141081 0 0  0.4895008759286886 0 0  0.5373680609405097 0 0  0.5869673343216626 0 0  0.6383613676634521 0 0  0.6916151138468254 0 0  0.7467958595648856 0 0  0.8039733463919316 0 0  0.8632198139502143 0 0  0.9246101326867038 0 0  0.9882218810934433 0 0  1.054135445558498 0 0  1.122434100542598 0 0  1.193204177141305 0 0  1.266535089879536 0 0  1.342519516046404 0 0  1.421253448503939 0 0  1.502836389106271 0 0  1.587371439758838 0 0  1.674965418777374 0 0  1.765729001825544 0 0  1.859776908880082 0 0  1.957227977487062 0 0  2.058205329869943 0 0  2.162836591189951 0 0  2.271253957290865 0 0  2.383594446803425 0 0  2.5 0.1024999999997612 0  2.5 0.2049999999994743 0  2.5 0.3074999999997183 0  2.383594446803656 0.41 0  2.271253957291315 0.41 0  2.162836591190598 0.41 0  2.058205329870775 0.41 0  1.957227977488067 0.41 0  1.859776908881246 0.41 0  1.765729001826854 0.41 0  1.674965418778818 0.41 0  1.58737143976041 0.41 0  1.502836389107956 0.41 0  1.421253448505726 0.41 0  1.342519516048286 0.41 0  1.266535089881505 0.41 0  1.193204177143353 0.41 0  1.122434100544716 0.41 0  1.05413544556068 0.41 0  0.9882218810956305 0.41 0  0.9246101326886647 0.41 0  0.8632198139519631 0.41 0  0.8039733463934788 0.41 0  0.7467958595662458 0.41 0  0.6916151138480078 0.41 0  0.6383613676644679 0.41 0  0.5869673343225223 0.41 0  0.5373680609412221 0.41 0  0.4895008759292634 0.41 0  0.4433053055145528 0.41 0  0.3987229542475914 0.41 0  0.3556974926297398 0.41 0  0.3141745521466497 0.41 0  0.2741016576310038 0.41 0  0.2354281840915826 0.41 0  0.1981052433265003 0.41 0  0.1620856860352591 0.41 0  0.1273239957535623 0.41 0  0.09377624077128965 0.41 0  0.06140001986584975 0.41 0  0.03015443760436654 0.41 0  0.2497468076502589 0.2050254481002335 0  0.2497468076502614 0.1949745518997913 0  0.2469965252529372 0.1829317073451959 0  0.2439893735792749 0.1762316384219906 0  0.2400332147834255 0.1700443375285386 0  0.2352133972704371 0.1645032867342007 0  0.2296339016332438 0.1597280261969788 0  0.2234150974217223 0.1558215752574715 0  0.2166911463437691 0.1528682099456123 0  0.2096071079204251 0.1509316448471593 0  0.2023158100364996 0.1500536585536553 0  0.194974551899914 0.1502531923497262 0  0.1877417105387872 0.1515259415822739 0  0.1807733240461124 0.153844448527136 0  0.1742197252835808 0.15715869474974 0  0.1682222986673531 0.1613971801805478 0  0.162910430003803 0.1664684656256651 0  0.1583987151779087 0.1722631454351573 0  0.1547844879126891 0.178656207771761 0  0.1521457199348551 0.1855097315605723 0  0.1505393388476355 0.1926758619366523 0  0.1505393388476328 0.2073241380633295 0  0.1521457199348437 0.2144902684393899 0  0.1547844879126531 0.221343792228163 0  0.1583987151778488 0.2277368545647528 0  0.1629104300036858 0.2335315343742052 0  0.1682222986671726 0.2386028198193036 0  0.1742197252833576 0.2428413052501257 0  0.1807733240458683 0.2461555514727623 0  0.1877417105384929 0.2484740584176516 0  0.1949745518995776 0.2497468076502398 0  0.202315810036185 0.2499463414463592 0  0.2096071079201568 0.2490683551528932 0  0.2166911463435495 0.2471317900544655 0  0.2234150974215506 0.2441784247426195 0  0.2296339016331197 0.2402719738031125 0  0.2352133972703547 0.2354967132658811 0  0.2400332147833751 0.2299556624715287 0  0.2439893735792577 0.2237683615780412 0  0.246996525252926 0.2170682926548348 0  0.25645809709277 0.21 0  0.2639263993298655 0.21 0  0.271394701566961 0.21 0  0.2788630038040554 0.21 0  0.2863313060411479 0.21 0  0.2937996082782405 0.21 0  0.301267910515333 0.21 0  0.3087362127524279 0.21 0  0.3162045149895234 0.21 0  0.3236728172265972 0.21 0  0.3311411194636928 0.21 0  0.3386094217007701 0.21 0  0.3460777239378666 0.21 0  0.3535460261749672 0.21 0  0.3610143284120516 0.21 0  0.3684826306491596 0.21 0  0.3759509328862226 0.21 0  0.383419235123329 0.21 0  0.3908875373604028 0.21 0  0.3983558395975142 0.21 0  0.4058241418345938 0.21 0  0.4132924440716992 0.21 0  0.4207607463087888 0.21 0  0.4282290485459029 0.21 0  0.4356973507830418 0.21 0  0.4431656530201649 0.21 0  0.4506339552573136 0.21 0  0.4581022574944306 0.21 0  0.4655705597315852 0.21 0  0.4730388619686996 0.21 0  0.480507164205851 0.21 0  0.4879754664429498 0.21 0  0.4954437686800938 0.21 0  0.502912070917267 0.21 0  0.5103803731544119 0.21 0  0.5178486753915261 0.21 0  0.5253169776286404 0.21 0  0.5327852798657868 0.21 0  0.5402535821029386 0.21 0  0.54772188434007 0.21 0  0.5551901865771842 0.21 0  0.5626584888143201 0.21 0  0.5701267910514778 0.21 0  0.5775950932886138 0.21 0  0.5850633955257281 0.21 0  0.5925316977628483 0.21 0  0.6 0.2050000000000054 0  0.6 0.1950000000000217 0  0.5925316977628897 0.19 0  0.5850633955257988 0.19 0  0.5775950932887378 0.19 0  0.5701267910515998 0.19 0  0.5626584888145268 0.19 0  0.5551901865773963 0.19 0  0.547721884340339 0.19 0  0.5402535821032429 0.19 0  0.5327852798661811 0.19 0  0.5253169776290537 0.19 0  0.5178486753919799 0.19 0  0.5103803731549078 0.19 0  0.502912070917822 0.19 0  0.4954437686807294 0.19 0  0.4879754664436223 0.19 0  0.4805071642065402 0.19 0  0.4730388619694271 0.19 0  0.4655705597323621 0.19 0  0.4581022574952563 0.19 0  0.4506339552581777 0.19 0  0.4431656530210671 0.19 0  0.4356973507839815 0.19 0  0.4282290485468779 0.19 0  0.4207607463097617 0.19 0  0.4132924440726327 0.19 0  0.4058241418354857 0.19 0  0.3983558395983636 0.19 0  0.3908875373612097 0.19 0  0.3834192351240934 0.19 0  0.3759509328869369 0.19 0  0.3684826306498175 0.19 0  0.361014328412667 0.19 0  0.3535460261755617 0.19 0  0.3460777239384295 0.19 0  0.3386094217012945 0.19 0  0.3311411194641595 0.19 0  0.3236728172270245 0.19 0  0.3162045149898895 0.19 0  0.3087362127527544 0.19 0  0.3012679105156187 0.19 0  0.2937996082784807 0.19 0  0.2863313060413428 0.19 0  0.2788630038042048 0.19 0  0.2713947015670686 0.19 0  0.2639263993299336 0.19 0  0.2564580970927985 0.19 0  0.2607803159922026 0.2000727136295815 0  0.5887803774232762 0.2001272386983733 0  0.5745072403740523 0.2002044435018727 0  0.5511891430099709 0.2001122610077113 0  0.2751288526855082 0.20000000000002 0  0.5365194309847112 0.1999999999999436 0  0.2894621222999649 0.1998691686390484 0  0.5215828265105155 0.1999999999999228 0  0.3127789816668748 0.1998657885438805 0  0.3274069683451451 0.2000000000000796 0  0.5066462220363641 0.199999999999908 0  0.3650630746574081 0.199866017807523 0  0.476773013087985 0.1999999999998713 0  0.3417402379596385 0.1998691686391011 0  0.3796850840047755 0.200000000000134 0  0.4618364086138087 0.1999999999998546 0  0.4917096175621762 0.1999999999998808 0  0.3946216884789568 0.2000000000001512 0  0.446899804139621 0.1999999999998389 0  0.4089549580935208 0.1998691686391595 0  0.4322718174608562 0.200127451265745 0  0.4201487168029707 0.1999966199048527 0  0.3528922713220932 0.2000185703532356 0  0.5633122436674589 0.1999814296467508 0  0.3006558810093873 0.1999966199048318 0  0.5815926498168407 0.1966545283159175 0  0.2677053789419034 0.1964246479135325 0  0.5290511287476175 0.1970915826863981 0  0.5439877332217911 0.197091582686394 0  0.2825131256993216 0.2035478995978015 0  0.3199386661080599 0.202908417313604 0  0.4842413153250809 0.1970915826863873 0  0.5141145242734466 0.1970915826863843 0  0.3722167817676917 0.2029084173136195 0  0.4693047108508938 0.1970915826863783 0  0.3348752705822316 0.202908417313609 0  0.3871533862418661 0.2029084173136212 0  0.4543681063767183 0.1970915826863795 0  0.4991779197992749 0.1970915826863902 0  0.4020059614928624 0.203547899597858 0  0.4394315019025246 0.1970915826863714 0  0.2550657455369551 0.2034088125358657 0  0.2548908499171161 0.1966940311614271 0  0.5946539510196798 0.2024302972968126 0  0.267698176732111 0.2039977513680092 0  0.4261685417851465 0.196409292431739 0  0.3590076176283495 0.196411355804271 0  0.5571672426447437 0.2036011176410121 0  0.3066757059912147 0.1964092924317024 0  0.594380730180568 0.1966558399668133 0  0.4842413153245942 0.2040749161535287 0  0.4693047108503577 0.2040749161535231 0  0.3871533862424271 0.1959250838464788 0  0.372246743208829 0.1959123236376545 0  0.5141145242731028 0.2040749161535395 0  0.4543681063761134 0.2040749161535186 0  0.4019979587101454 0.1959834479682427 0  0.4394608940728603 0.2040870543693135 0  0.5439623148931173 0.2040856076781014 0  0.5290511287473298 0.2040749161535501 0  0.4991779197988497 0.2040749161535382 0  0.3347912413592433 0.1959225448935183 0  0.3199680582793816 0.1959123018030061 0  0.2825051229162361 0.1959834479681729 0  0.3590471196690275 0.2036304442587945 0  0.5571594006495384 0.1963685282145804 0  0.3067669986803285 0.203627750582736 0  0.4262598344738712 0.2036568242185335 0  0.5814408164431408 0.2041285596160068 0  0.5688286748170428 0.1961819304477386 0  0.4145905603063645 0.2038180695522843 0  0.3473758401724931 0.2038180695522752 0  0.2950977245128307 0.2038180695522663 0  0.5688286748170693 0.203818069552238 0  0.2950977245127906 0.1961819304477774 0  0.3473758401723931 0.1961819304478349 0  0.4145905603061963 0.1961819304479011 0  0.2601812407614425 0.2056861609747042
[...]
<PointData  Vectors="f_40-0"> 
<DataArray  type="Float64"  Name="f_40-0"  NumberOfComponents="3" format="ascii">0.0000000000000000e+00 0.0000000000000000e+00 0.0000000000000000e+00  0.0000000000000000e+00 0.0000000000000000e+00 0.0000000000000000e+00  0.0000000000000000e+00 0.0000000000000000e+00 0.0000000000000000e+00  0.0000000000000000e+00 0.0000000000000000e+00 0.0000000000000000e+00  1.1004784223809943e-05 3.4625157982970498e-04 0.0000000000000000e+00  -1.3713002158404949e-05 3.4620739387303137e-04 0.0000000000000000e+00  0.0000000000000000e+00 0.0000000000000000e+00 0.0000000000000000e+00  0.0000000000000000e+00 0.0000000000000000e+00 0.0000000000000000e+00  0.0000000000000000e+00 0.0000000000000000e+00 0.0000000000000000e+00  0.0000000000000000e+00 0.0000000000000000e+00 0.0000000000000000e+00  -1.3427429504302371e-06 3.4622135377510477e-04 0.0000000000000000e+00  7.9591836734548407e-02 0.0000000000000000e+00 0.0000000000000000e+00  1.4693877550994527e-01 0.0000000000000000e+00 0.0000000000000000e+00  2.0204081632617479e-01 0.0000000000000000e+00 0.0000000000000000e+00  2.4489795918330076e-01 0.0000000000000000e+00 0.0000000000000000e+00  2.7551020408131754e-01 0.0000000000000000e+00 0.0000000000000000e+00  2.9387755102022350e-01 0.0000000000000000e+00 0.0000000000000000e+00  3.0000000000000004e-01 0.0000000000000000e+00 0.0000000000000000e+00  2.9387755102059482e-01 0.0000000000000000e+00 0.0000000000000000e+00  2.7551020408195548e-01 0.0000000000000000e+00 0.0000000000000000e+00  2.4489795918409071e-01 0.0000000000000000e+00 0.0000000000000000e+00  2.0204081632692525e-01 0.0000000000000000e+00 0.0000000000000000e+00  1.4693877551058568e-01 0.0000000000000000e+00 0.0000000000000000e+00  7.9591836734909230e-02 0.0000000000000000e+00 0.0000000000000000e+00  0.0000000000000000e+00 0.0000000000000000e+00 0.0000000000000000e+00  0.0000000000000000e+00 0.0000000000000000e+00 0.0000000000000000e+00  0.0000000000000000e+00 0.0000000000000000e+00 0.0000000000000000e+00  0.0000000000000000e+00 0.0000000000000000e+00 0.0000000000000000e+00  0.0000000000000000e+00 0.0000000000000000e+00 0.0000000000000000e+00  0.0000000000000000e+00 0.0000000000000000e+00 0.0000000000000000e+00  0.0000000000000000e+00 0.0000000000000000e+00 0.0000000000000000e+00  0.0000000000000000e+00 0.0000000000000000e+00 0.0000000000000000e+00  0.0000000000000000e+00 0.0000000000000000e+00 0.0000000000000000e+00  0.0000000000000000e+00 0.0000000000000000e+00 0.0000000000000000e+00  0.0000000000000000e+00 0.0000000000000000e+00 0.0000000000000000e+00  0.0000000000000000e+00 0.0000000000000000e+00 0.0000000000000000e+00  0.0000000000000000e+00 0.0000000000000000e+00 0.0000000000000000e+00  0.0000000000000000e+00 0.0000000000000000e+00 0.0000000000000000e+00  0.0000000000000000e+00 0.0000000000000000e+00 0.0000000000000000e+00  0.0000000000000000e+00 0.0000000000000000e+00 0.0000000000000000e+00  0.0000000000000000e+00 0.0000000000000000e+00 0.0000000000000000e+00  0.0000000000000000e+00 0.0000000000000000e+00 0.0000000000000000e+00  0.0000000000000000e+00 0.0000000000000000e+00 0.0000000000000000e+00  0.0000000000000000e+00 0.0000000000000000e+00 0.0000000000000000e+00  0.0000000000000000e+00 0.0000000000000000e+00 0.0000000000000000e+00  0.0000000000000000e+00 0.0000000000000000e+00 0.0000000000000000e+00  0.0000000000000000e+00 0.0000000000000000e+00 0.0000000000000000e+00  0.0000000000000000e+00 0.0000000000000000e+00 0.0000000000000000e+00  0.0000000000000000e+00 0.0000000000000000e+00 0.0000000000000000e+00  0.0000000000000000e+00 0.0000000000000000e+00 0.0000000000000000e+00  0.0000000000000000e+00 0.0000000000000000e+00 0.0000000000000000e+00  0.0000000000000000e+00 0.0000000000000000e+00 0.0000000000000000e+00  0.0000000000000000e+00 0.0000000000000000e+00 0.0000000000000000e+00  0.0000000000000000e+00 0.0000000000000000e+00 0.0000000000000000e+00  0.0000000000000000e+00 0.0000000000000000e+00 0.0000000000000000e+00  0.0000000000000000e+00 0.0000000000000000e+00 0.0000000000000000e+00  0.0000000000000000e+00 0.0000000000000000e+00 0.0000000000000000e+00  0.0000000000000000e+00 0.0000000000000000e+00 0.0000000000000000e+00  0.0000000000000000e+00 0.0000000000000000e+00 0.0000000000000000e+00  0.0000000000000000e+00 0.0000000000000000e+00 0.0000000000000000e+00  0.0000000000000000e+00 0.0000000000000000e+00 0.0000000000000000e+00  0.0000000000000000e+00 0.0000000000000000e+00 0.0000000000000000e+00  2.3944426529111568e-01 -4.9445424678942846e-03 0.0000000000000000e+00  2.9971744191888999e-01 2.3938185318896164e-03 0.0000000000000000e+00  2.4290102095815089e-01 1.1004454896787258e-02 0.0000000000000000e+00  0.0000000000000000e+00 0.0000000000000000e+00 0.0000000000000000e+00  0.0000000000000000e+00 0.0000000000000000e+00 0.0000000000000000e+00  0.0000000000000000e+00 0.0000000000000000e+00 0.0000000000000000e+00  0.0000000000000000e+00 0.0000000000000000e+00 0.0000000000000000e+00  0.0000000000000000e+00 0.0000000000000000e+00 0.0000000000000000e+00  0.0000000000000000e+00 0.0000000000000000e+00 0.0000000000000000e+00  0.0000000000000000e+00 0.0000000000000000e+00 0.0000000000000000e+00  0.0000000000000000e+00 0.0000000000000000e+00 0.0000000000000000e+00  0.0000000000000000e+00 0.0000000000000000e+00 0.0000000000000000e+00  0.0000000000000000e+00 0.0000000000000000e+00 0.0000000000000000e+00  0.0000000000000000e+00 0.0000000000000000e+00 0.0000000000000000e+00  0.0000000000000000e+00 0.0000000000000000e+00 0.0000000000000000e+00  0.0000000000000000e+00 0.0000000000000000e+00 0.0000000000000000e+00  0.0000000000000000e+00 0.0000000000000000e+00 0.0000000000000000e+00  0.0000000000000000e+00 0.0000000000000000e+00 0.0000000000000000e+00  0.0000000000000000e+00 0.0000000000000000e+00 0.0000000000000000e+00  0.0000000000000000e+00 0.0000000000000000e+00 0.0000000000000000e+00  0.0000000000000000e+00 0.0000000000000000e+00 0.0000000000000000e+00  0.0000000000000000e+00 0.0000000000000000e+00 0.0000000000000000e+00  0.0000000000000000e+00 0.0000000000000000e+00 0.0000000000000000e+00  0.0000000000000000e+00 0.0000000000000000e+00 0.0000000000000000e+00  0.0000000000000000e+00 0.0000000000000000e+00 0.0000000000000000e+00  0.0000000000000000e+00 0.0000000000000000e+00 0.0000000000000000e+00  0.0000000000000000e+00 0.0000000000000000e+00 0.0000000000000000e+00  0.0000000000000000e+00 0.0000000000000000e+00 0.0000000000000000e+00  0.0000000000000000e+00 0.0000000000000000e+00 0.0000000000000000e+00  0.0000000000000000e+00 0.0000000000000000e+00 0.0000000000000000e+00  0.0000000000000000e+00 0.0000000000000000e+00 0.0000000000000000e+00  0.0000000000000000e+00 0.0000000000000000e+00 0.0000000000000000e+00  0.0000000000000000e+00 0.0000000000000000e+00 0.0000000000000000e+00  0.0000000000000000e+00 0.0000000000000000e+00 0.0000000000000000e+00  0.0000000000000000e+00 0.0000000000000000e+00 0.0000000000000000e+00  0.0000000000000000e+00 0.0000000000000000e+00 0.0000000000000000e+00  0.0000000000000000e+00 0.0000000000000000e+00 0.0000000000000000e+00  0.0000000000000000e+00 0.0000000000000000e+00 0.0000000000000000e+00  0.0000000000000000e+00 0.0000000000000000e+00 0.0000000000000000e+00  0.0000000000000000e+00 0.0000000000000000e+00 0.0000000000000000e+00  0.0000000000000000e+00 0.0000000000000000e+00 0.0000000000000000e+00  0.0000000000000000e+00 0.0000000000000000e+00 0.0000000000000000e+00  0.0000000000000000e+00 0.0000000000000000e+00 0.0000000000000000e+00  0.0000000000000000e+00 0.0000000000000000e+00 0.0000000000000000e+00  0.0000000000000000e+00 0.0000000000000000e+00 0.0000000000000000e+00  0.0000000000000000e+00 0.0000000000000000e+00 0.0000000000000000e+00  0.0000000000000000e+00 0.0000000000000000e+00 0.0000000000000000e+00  0.0000000000000000e+00 0.0000000000000000e+00 0.0000000000000000e+00  0.0000000000000000e+00 0.0000000000000000e+00 0.0000000000000000e+00  0.0000000000000000e+00 0.0000000000000000e+00 0.0000000000000000e+00  0.0000000000000000e+00 0.0000000000000000e+00 0.0000000000000000e+00  0.0000000000000000e+00 0.0000000000000000e+00 0.0000000000000000e+00  0.0000000000000000e+00 0.0000000000000000e+00 0.0000000000000000e+00  0.0000000000000000e+00 0.0000000000000000e+00 0.0000000000000000e+00  0.0000000000000000e+00 0.0000000000000000e+00 0.0000000000000000e+00  0.0000000000000000e+00 0.0000000000000000e+00 0.0000000000000000e+00  0.0000000000000000e+00 0.0000000000000000e+00 0.0000000000000000e+00  0.0000000000000000e+00 0.0000000000000000e+00 0.0000000000000000e+00  0.0000000000000000e+00 0.0000000000000000e+00 0.0000000000000000e+00  0.0000000000000000e+00 0.0000000000000000e+00 0.0000000000000000e+00  0.0000000000000000e+00 0.0000000000000000e+00 0.0000000000000000e+00  0.0000000000000000e+00 0.0000000000000000e+00 0.0000000000000000e+00  0.0000000000000000e+00 0.0000000000000000e+00 0.0000000000000000e+00  0.0000000000000000e+00 0.0000000000000000e+00 0.0000000000000000e+00  0.0000000000000000e+00 0.0000000000000000e+00 0.0000000000000000e+00  0.0000000000000000e+00 0.0000000000000000e+00 0.0000000000000000e+00  0.0000000000000000e+00 0.0000000000000000e+00 0.0000000000000000e+00  0.0000000000000000e+00 0.0000000000000000e+00 0.0000000000000000e+00  0.0000000000000000e+00 0.0000000000000000e+00 0.0000000000000000e+00  0.0000000000000000e+00 0.0000000000000000e+00 0.0000000000000000e+00  0.0000000000000000e+00 0.0000000000000000e+00 0.0000000000000000e+00  0.0000000000000000e+00 0.0000000000000000e+00 0.0000000000000000e+00  0.0000000000000000e+00 0.0000000000000000e+00 0.0000000000000000e+00  0.0000000000000000e+00 0.0000000000000000e+00 0.0000000000000000e+00  0.0000000000000000e+00 0.0000000000000000e+00 0.0000000000000000e+00  0.0000000000000000e+00 0.0000000000000000e+00 0.0000000000000000e+00  0.0000000000000000e+00 0.0000000000000000e+00 0.0000000000000000e+00  0.0000000000000000e+00 0.0000000000000000e+00 0.0000000000000000e+00  0.0000000000000000e+00 0.0000000000000000e+00 0.0000000000000000e+00  0.0000000000000000e+00 0.0000000000000000e+00 0.0000000000000000e+00  0.0000000000000000e+00 0.0000000000000000e+00 0.0000000000000000e+00  -8.9773453678020694e-07 7.5496665061976068e-07 0.0000000000000000e+00  -1.8932006246523554e-06 1.8556503525454267e-06 0.0000000000000000e+00  -2.7448046582592053e-06 3.6197090401646903e-06 0.0000000000000000e+00  -3.6461805090248357e-06 6.0782170055714951e-06 0.0000000000000000e+00  -4.3759462899609779e-06 9.0921659948883216e-06 0.0000000000000000e+00  -5.1875971472067032e-06 1.2708112563868238e-05 0.0000000000000000e+00  -5.8205570996803074e-06 1.6756007869930063e-05 0.0000000000000000e+00  -6.4189511196625637e-06 2.1360808830323643e-05 0.0000000000000000e+00  -7.0942911372210378e-06 2.6375772977975566e-05 0.0000000000000000e+00  -7.5896058645718042e-06 3.1806025714800698e-05 0.0000000000000000e+00  -8.1835429402158960e-06 3.7636249367115360e-05 0.0000000000000000e+00  -8.6128378264756418e-06 4.3819915799963548e-05 0.0000000000000000e+00  -9.1087666573475304e-06 5.0338314871556181e-05 0.0000000000000000e+00  -9.4892899566819610e-06 5.7118681160677346e-05 0.0000000000000000e+00  -9.8463699259591381e-06 6.4214484443450055e-05 0.0000000000000000e+00  -1.0240920245334825e-05 7.1539310486528747e-05 0.0000000000000000e+00  -1.0529635466176645e-05 7.9092578596228337e-05 0.0000000000000000e+00  -1.0864738609858965e-05 8.6862197125751618e-05 0.0000000000000000e+00  -1.1106307463949827e-05 9.4815412629446636e-05 0.0000000000000000e+00  -1.1380807740108240e-05 1.0293727055651772e-04 0.0000000000000000e+00  -1.1591714185527445e-05 1.1121278913909308e-04 0.0000000000000000e+00  -1.1814222734614077e-05 1.1963109577233534e-04 0.0000000000000000e+00  -1.1987793447118674e-05 1.2814851390425562e-04 0.0000000000000000e+00  -1.2147081036854994e-05 1.3678949777637078e-04 0.0000000000000000e+00  -1.2313839853216197e-05 1.4550898198446263e-04 0.0000000000000000e+00  -1.2447714388470580e-05 1.5431632762848127e-04 0.0000000000000000e+00  -1.2575492633295955e-05 1.6319584378695341e-04 0.0000000000000000e+00  -1.2684871516685182e-05 1.7213055523668537e-04 0.0000000000000000e+00  -1.2788254517237552e-05 1.8112101631242520e-04 0.0000000000000000e+00  -1.2877432584038921e-05 1.9015056988607698e-04 0.0000000000000000e+00  -1.2961390300138405e-05 1.9922018332332904e-04 0.0000000000000000e+00  -1.3034522574726265e-05 2.0831653598414623e-04 0.0000000000000000e+00  -1.3103347583342914e-05 2.1744049353638771e-04 0.0000000000000000e+00  -1.3164293493899793e-05 2.2658197941015520e-04 0.0000000000000000e+00  -1.3221806297456481e-05 2.3574180206800861e-04 0.0000000000000000e+00  -1.3273679989826977e-05 2.4491256802470194e-04 0.0000000000000000e+00  -1.3323072481656625e-05 2.5409511046478757e-04 0.0000000000000000e+00  -1.3368602745286062e-05 2.6328436070293288e-04 0.0000000000000000e+00  -1.3412518406682338e-05 2.7248117681943386e-04 0.0000000000000000e+00  -1.3453711724637367e-05 2.8168204202047808e-04 0.0000000000000000e+00  -1.3494028704301934e-05 2.9088844951792093e-04 0.0000000000000000e+00  -1.3532118847369017e-05 3.0009724492345140e-04 0.0000000000000000e+00  -1.3568829925461387e-05 3.0931075994434398e-04 0.0000000000000000e+00  -1.3605655729233329e-05 3.1852651476885208e-04 0.0000000000000000e+00  -1.3640277418863541e-05 3.2774527402104072e-04 0.0000000000000000e+00  -1.3675225108961467e-05 3.3696886350324822e-04 0.0000000000000000e+00  -7.5223229679766552e-06 3.4621083554225258e-04 0.0000000000000000e+00  4.8324954642201434e-06 3.4623303437907287e-04 0.0000000000000000e+00  1.1032305685278790e-05 3.3702218719480932e-04 0.0000000000000000e+00  1.1058196219394567e-05 3.2779747050936580e-04 0.0000000000000000e+00  1.1084324423114865e-05 3.1857535701217647e-04 0.0000000000000000e+00  1.1110364193119297e-05 3.0935750336316675e-04 0.0000000000000000e+00  1.1137531396962663e-05 3.0014228596496388e-04 0.0000000000000000e+00  1.1165108110555082e-05 2.9093188951777598e-04 0.0000000000000000e+00  1.1191436994296211e-05 2.8172483572155670e-04 0.0000000000000000e+00  1.1218984931295339e-05 2.7252234494014880e-04 0.0000000000000000e+00  1.1243482589000425e-05 2.6332523023549231e-04 0.0000000000000000e+00  1.1268978245896100e-05 2.5413486726185152e-04 0.0000000000000000e+00  1.1289019439455648e-05 2.4495223077509808e-04 0.0000000000000000e+00  1.1309927334292031e-05 2.3578052815891701e-04 0.0000000000000000e+00  1.1321999006782061e-05 2.2662077879474221e-04 0.0000000000000000e+00  1.1335389373854097e-05 2.1747843089032706e-04 0.0000000000000000e+00  1.1335495293430188e-05 2.0835464189817196e-04 0.0000000000000000e+00  1.1338015486866750e-05 1.9925737076730726e-04 0.0000000000000000e+00  1.1321538946282875e-05 1.9018798868034940e-04 0.0000000000000000e+00  1.1309328889789072e-05 1.8115732034299940e-04 0.0000000000000000e+00  1.1271016737332717e-05 1.7216699268623987e-04 0.0000000000000000e+00  1.1239824864557111e-05 1.6323082143316863e-04 0.0000000000000000e+00  1.1173235012445705e-05 1.5435144442488716e-04 0.0000000000000000e+00  1.1117481144286656e-05 1.4554603086770851e-04 0.0000000000000000e+00  1.1017812945162522e-05 1.3682046385699126e-04 0.0000000000000000e+00  1.0926843572074954e-05 1.2818013343226208e-04 0.0000000000000000e+00  1.0819904274643010e-05 1.1966293812051212e-04 0.0000000000000000e+00  1.0666954611468443e-05 1.1123955859451599e-04 0.0000000000000000e+00  1.0513562936343164e-05 1.0296907707929658e-04 0.0000000000000000e+00  1.0318617853130347e-05 9.4837002489514901e-05 0.0000000000000000e+00  1.0117230387560671e-05 8.6886403828891152e-05 0.0000000000000000e+00  9.8705308500461333e-06 7.9112435528428288e-05 0.0000000000000000e+00  9.6167874841345053e-06 7.1548574410646259e-05 0.0000000000000000e+00  9.2840212778858300e-06 6.4235794863566918e-05 0.0000000000000000e+00  8.9836654230326342e-06 5.7134380557157644e-05 0.0000000000000000e+00  8.6554614136727433e-06 5.0356288932609572e-05 0.0000000000000000e+00  8.2267863749431937e-06 4.3813643027790962e-05 0.0000000000000000e+00  7.8067276026121153e-06 3.7640932181238361e-05 0.0000000000000000e+00  7.3111004011607493e-06 3.1803694830533842e-05 0.0000000000000000e+00  6.8148043590256496e-06 2.6354679613763078e-05 0.0000000000000000e+00  6.1886206551112006e-06 2.1361816254114729e-05 0.0000000000000000e+00  5.6284040356324445e-06 1.6747273260599550e-05 0.0000000000000000e+00  5.0315317987111684e-06 1.2698091123395851e-05 0.0000000000000000e+00  4.2669166685468187e-06 9.0627511004219053e-06 0.0000000000000000e+00  3.5447250403288503e-06 6.0381728293196013e-06 0.0000000000000000e+00  2.6658265659205322e-06 3.6106965467326881e-06 0.0000000000000000e+00  1.8575750915692707e-06 1.8357090707369351e-06 0.0000000000000000e+00  8.8375223176426327e-07 7.2551706063906924e-07 0.0000000000000000e+00  -2.0675496802068386e-08 8.0514233513805427e-07 0.0000000000000000e+00  -1.4589225137217857e-06 3.3235898651426019e-04 0.0000000000000000e+00  -1.4985654102681929e-06 3.1473625461440994e-04 0.0000000000000000e+00  -1.2838143866972254e-06 2.8597336694506008e-04 0.0000000000000000e+00  -3.5535720828473077e-08 4.3502523438900547e-06 0.0000000000000000e+00  -1.0786192452975762e-06 2.6789772403702376e-04 0.0000000000000000e+00  -7.3820677721638773e-09 1.0159509646365559e-05 0.0000000000000000e+00  -1.0088197057300956e-06 2.4951545015179530e-04 0.0000000000000000e+00  -3.2249958744216734e-08 2.3727349194441380e-05 0.0000000000000000e+00  -1.6424282741256702e-07 3.4434191625375557e-05 0.0000000000000000e+00  -9.3782292657207418e-07 2.3116870631321155e-04 0.0000000000000000e+00  -1.6332505026306888e-07 6.8001801592135878e-05 0.0000000000000000e+00  -7.9428915610114760e-07 1.9467671417494625e-04 0.0000000000000000e+00  -9.8319258615276148e-08 4.6298732910079932e-05 0.0000000000000000e+00  -3.5271482363598808e-07 8.2833619987933196e-05 0.0000000000000000e+00  -7.2269516025870398e-07 1.7660559713349972e-04 0.0000000000000000e+00  -8.6615517390847066e-07 2.1287871518795986e-04 0.0000000000000000e+00  -4.1510662876293180e-07 9.8762353329184759e-05 0.0000000000000000e+00  -6.5139152093892307e-07 1.5872164334168156e-04 0.0000000000000000e+00  -3.3061931430697261e-07 1.1465090926197163e-04 0.0000000000000000e+00  -7.3159198759437049e-07 1.4145660167777762e-04 0.0000000000000000e+00  -5.2399468805631433e-07 1.2740824777048094e-04 0.0000000000000000e+00  -2.6666203678210571e-07 5.6385656886673572e-05 0.0000000000000000e+00  -1.1754789654802648e-06 3.0092393504837990e-04 0.0000000000000000e+00  -8.7360540730206745e-08 1.6162736145718905e-05 0.0000000000000000e+00  2.8561582879651537e-06 3.2349217257092000e-04 0.0000000000000000e+00  8.0032345043018244e-07 2.2891385449512755e-06 0.0000000000000000e+00  2.5335015744653988e-06 2.5870971782460274e-04 0.0000000000000000e+00  2.4698246696153661e-06 2.7710442581331107e-04 0.0000000000000000e+00  -1.4377748848879755e-06 7.1499684123627507e-06 0.0000000000000000e+00  -2.2402769112240400e-06 2.8812422034214892e-05 0.0000000000000000e+00  2.7078418980592731e-06 2.0377252450452668e-04 0.0000000000000000e+00  2.5958616243105533e-06 2.4034340843570015e-04 0.0000000000000000e+00  -3.2508392427820432e-06 7.5170900522266525e-05 0.0000000000000000e+00  2.7523062666410163e-06 1.8563086625455861e-04 0.0000000000000000e+00  -2.5642682807968537e-06 4.0491068177474939e-05 0.0000000000000000e+00  -3.4636135618102782e-06 9.0722842676971106e-05 0.0000000000000000e+00  2.7852584406977737e-06 1.6764660529224135e-04 0.0000000000000000e+00  2.6547840287241696e-06 2.2202231274730036e-04 0.0000000000000000e+00  -4.3569196370636966e-06 1.0689346869184150e-04 0.0000000000000000e+00  2.8047652153357964e-06 1.4988327088136309e-04 0.0000000000000000e+00  -1.6007714821656334e-07 1.8643376874879062e-07 0.0000000000000000e+00  1.3315298271225845e-07 1.6511646042220784e-07 0.0000000000000000e+00  -4.3256096128685470e-06 3.3960874365800305e-04 0.0000000000000000e+00  -9.4163322197949750e-07 2.2994146189283310e-06 0.0000000000000000e+00  3.5958787750771456e-06 1.3436272413885406e-04 0.0000000000000000