<?xml version="1.0"?>
<VTKFile type="UnstructuredGrid"  version="0.1"  >
<UnstructuredGrid>
<Piece  NumberOfPoints="1419" NumberOfCells="2698">
<Points>
<DataArray  type="Float64"  NumberOfComponents="3"  format="ascii">0 0 0  0 0.41 0  2.5 0 0  2.5 0.41 0  0.6 0.19 0  0.6 0.21 0  0.25 0.2 0  0.15 0.2 0  0.2489897948556636 0.21 0  0.2489897948556636 0.19 0  0.6 0.2 0  0 0.3807142857143437 0  0 0.3514285714286952 0  0 0.3221428571430699 0  0 0.29285714285744 0  0 0.2635714285718054 0  0 0.2342857142861561 0  0 0.2050000000005308 0  0 0.175714285714732 0  0 0.1464285714289574 0  0 0.1171428571431897 0  0 0.08785714285737878 0  0 0.05857142857161107 0  0 0.02928571428580012 0  0.03015443760436003 0 0  0.06140001986583606 0 0  0.09377624077125973 0 0  0.1273239957535082 0 0  0.1620856860351972 0 0  0.1981052433264291 0 0  0.235428184091502 0 0  0.2741016576309132 0 0  0.3141745521465447 0 0  0.3556974926295285 0 0  0.3987229542472677 0 0  0.4433053055141081 0 0  0.4895008759286886 0 0  0.5373680609405097 0 0  0.5869673343216626 0 0  0.6383613676634521 0 0  0.6916151138468254 0 0  0.7467958595648856 0 0  0.8039733463919316 0 0  0.8632198139502143 0 0  0.9246101326867038 0 0  0.9882218810934433 0 0  1.054135445558498 0 0  1.122434100542598 0 0  1.193204177141305 0 0  1.266535089879536 0 0  1.342519516046404 0 0  1.421253448503939 0 0  1.502836389106271 0 0  1.587371439758838 0 0  1.674965418777374 0 0  1.765729001825544 0 0  1.859776908880082 0 0  1.957227977487062 0 0  2.058205329869943 0 0  2.162836591189951 0 0  2.271253957290865 0 0  2.383594446803425 0 0  2.5 0.1024999999997612 0  2.5 0.2049999999994743 0  2.5 0.3074999999997183 0  2.383594446803656 0.41 0  2.271253957291315 0.41 0  2.162836591190598 0.41 0  2.058205329870775 0.41 0  1.957227977488067 0.41 0  1.859776908881246 0.41 0  1.765729001826854 0.41 0  1.674965418778818 0.41 0  1.58737143976041 0.41 0  1.502836389107956 0.41 0  1.421253448505726 0.41 0  1.342519516048286 0.41 0  1.266535089881505 0.41 0  1.193204177143353 0.41 0  1.122434100544716 0.41 0  1.05413544556068 0.41 0  0.9882218810956305 0.41 0  0.9246101326886647 0.41 0  0.8632198139519631 0.41 0  0.8039733463934788 0.41 0  0.7467958595662458 0.41 0  0.6916151138480078 0.41 0  0.6383613676644679 0.41 0  0.5869673343225223 0.41 0  0.5373680609412221 0.41 0  0.4895008759292634 0.41 0  0.4433053055145528 0.41 0  0.3987229542475914 0.41 0  0.3556974926297398 0.41 0  0.3141745521466497 0.41 0  0.2741016576310038 0.41 0  0.2354281840915826 0.41 0  0.1981052433265003 0.41 0  0.1620856860352591 0.41 0  0.1273239957535623 0.41 0  0.09377624077128965 0.41 0  0.06140001986584975 0.41 0  0.03015443760436654 0.41 0  0.2497468076502589 0.2050254481002335 0  0.2497468076502614 0.1949745518997913 0  0.2469965252529372 0.1829317073451959 0  0.2439893735792749 0.1762316384219906 0  0.2400332147834255 0.1700443375285386 0  0.2352133972704371 0.1645032867342007 0  0.2296339016332438 0.1597280261969788 0  0.2234150974217223 0.1558215752574715 0  0.2166911463437691 0.1528682099456123 0  0.2096071079204251 0.1509316448471593 0  0.2023158100364996 0.1500536585536553 0  0.194974551899914 0.1502531923497262 0  0.1877417105387872 0.1515259415822739 0  0.1807733240461124 0.153844448527136 0  0.1742197252835808 0.15715869474974 0  0.1682222986673531 0.1613971801805478 0  0.162910430003803 0.1664684656256651 0  0.1583987151779087 0.1722631454351573 0  0.1547844879126891 0.178656207771761 0  0.1521457199348551 0.1855097315605723 0  0.1505393388476355 0.1926758619366523 0  0.1505393388476328 0.2073241380633295 0  0.1521457199348437 0.2144902684393899 0  0.1547844879126531 0.221343792228163 0  0.1583987151778488 0.2277368545647528 0  0.1629104300036858 0.2335315343742052 0  0.1682222986671726 0.2386028198193036 0  0.1742197252833576 0.2428413052501257 0  0.1807733240458683 0.2461555514727623 0  0.1877417105384929 0.2484740584176516 0  0.1949745518995776 0.2497468076502398 0  0.202315810036185 0.2499463414463592 0  0.2096071079201568 0.2490683551528932 0  0.2166911463435495 0.2471317900544655 0  0.2234150974215506 0.2441784247426195 0  0.2296339016331197 0.2402719738031125 0  0.2352133972703547 0.2354967132658811 0  0.2400332147833751 0.2299556624715287 0  0.2439893735792577 0.2237683615780412 0  0.246996525252926 0.2170682926548348 0  0.25645809709277 0.21 0  0.2639263993298655 0.21 0  0.271394701566961 0.21 0  0.2788630038040554 0.21 0  0.2863313060411479 0.21 0  0.2937996082782405 0.21 0  0.301267910515333 0.21 0  0.3087362127524279 0.21 0  0.3162045149895234 0.21 0  0.3236728172265972 0.21 0  0.3311411194636928 0.21 0  0.3386094217007701 0.21 0  0.3460777239378666 0.21 0  0.3535460261749672 0.21 0  0.3610143284120516 0.21 0  0.3684826306491596 0.21 0  0.3759509328862226 0.21 0  0.383419235123329 0.21 0  0.3908875373604028 0.21 0  0.3983558395975142 0.21 0  0.4058241418345938 0.21 0  0.4132924440716992 0.21 0  0.4207607463087888 0.21 0  0.4282290485459029 0.21 0  0.4356973507830418 0.21 0  0.4431656530201649 0.21 0  0.4506339552573136 0.21 0  0.4581022574944306 0.21 0  0.4655705597315852 0.21 0  0.4730388619686996 0.21 0  0.480507164205851 0.21 0  0.4879754664429498 0.21 0  0.4954437686800938 0.21 0  0.502912070917267 0.21 0  0.5103803731544119 0.21 0  0.5178486753915261 0.21 0  0.5253169776286404 0.21 0  0.5327852798657868 0.21 0  0.5402535821029386 0.21 0  0.54772188434007 0.21 0  0.5551901865771842 0.21 0  0.5626584888143201 0.21 0  0.5701267910514778 0.21 0  0.5775950932886138 0.21 0  0.5850633955257281 0.21 0  0.5925316977628483 0.21 0  0.6 0.2050000000000054 0  0.6 0.1950000000000217 0  0.5925316977628897 0.19 0  0.5850633955257988 0.19 0  0.5775950932887378 0.19 0  0.5701267910515998 0.19 0  0.5626584888145268 0.19 0  0.5551901865773963 0.19 0  0.547721884340339 0.19 0  0.5402535821032429 0.19 0  0.5327852798661811 0.19 0  0.5253169776290537 0.19 0  0.5178486753919799 0.19 0  0.5103803731549078 0.19 0  0.502912070917822 0.19 0  0.4954437686807294 0.19 0  0.4879754664436223 0.19 0  0.4805071642065402 0.19 0  0.4730388619694271 0.19 0  0.4655705597323621 0.19 0  0.4581022574952563 0.19 0  0.4506339552581777 0.19 0  0.4431656530210671 0.19 0  0.4356973507839815 0.19 0  0.4282290485468779 0.19 0  0.4207607463097617 0.19 0  0.4132924440726327 0.19 0  0.4058241418354857 0.19 0  0.3983558395983636 0.19 0  0.3908875373612097 0.19 0  0.3834192351240934 0.19 0  0.3759509328869369 0.19 0  0.3684826306498175 0.19 0  0.361014328412667 0.19 0  0.3535460261755617 0.19 0  0.3460777239384295 0.19 0  0.3386094217012945 0.19 0  0.3311411194641595 0.19 0  0.3236728172270245 0.19 0  0.3162045149898895 0.19 0  0.3087362127527544 0.19 0  0.3012679105156187 0.19 0  0.2937996082784807 0.19 0  0.2863313060413428 0.19 0  0.2788630038042048 0.19 0  0.2713947015670686 0.19 0  0.2639263993299336 0.19 0  0.2564580970927985 0.19 0  0.2607803159922026 0.2000727136295815 0  0.5887803774232762 0.2001272386983733 0  0.5745072403740523 0.2002044435018727 0  0.5511891430099709 0.2001122610077113 0  0.2751288526855082 0.20000000000002 0  0.5365194309847112 0.1999999999999436 0  0.2894621222999649 0.1998691686390484 0  0.5215828265105155 0.1999999999999228 0  0.3127789816668748 0.1998657885438805 0  0.3274069683451451 0.2000000000000796 0  0.5066462220363641 0.199999999999908 0  0.3650630746574081 0.199866017807523 0  0.476773013087985 0.1999999999998713 0  0.3417402379596385 0.1998691686391011 0  0.3796850840047755 0.200000000000134 0  0.4618364086138087 0.1999999999998546 0  0.4917096175621762 0.1999999999998808 0  0.3946216884789568 0.2000000000001512 0  0.446899804139621 0.1999999999998389 0  0.4089549580935208 0.1998691686391595 0  0.4322718174608562 0.200127451265745 0  0.4201487168029707 0.1999966199048527 0  0.3528922713220932 0.2000185703532356 0  0.5633122436674589 0.1999814296467508 0  0.3006558810093873 0.1999966199048318 0  0.5815926498168407 0.1966545283159175 0  0.2677053789419034 0.1964246479135325 0  0.5290511287476175 0.1970915826863981 0  0.5439877332217911 0.197091582686394 0  0.2825131256993216 0.2035478995978015 0  0.3199386661080599 0.202908417313604 0  0.4842413153250809 0.1970915826863873 0  0.5141145242734466 0.1970915826863843 0  0.3722167817676917 0.2029084173136195 0  0.4693047108508938 0.1970915826863783 0  0.3348752705822316 0.202908417313609 0  0.3871533862418661 0.2029084173136212 0  0.4543681063767183 0.1970915826863795 0  0.4991779197992749 0.1970915826863902 0  0.4020059614928624 0.203547899597858 0  0.4394315019025246 0.1970915826863714 0  0.2550657455369551 0.2034088125358657 0  0.2548908499171161 0.1966940311614271 0  0.5946539510196798 0.2024302972968126 0  0.267698176732111 0.2039977513680092 0  0.4261685417851465 0.196409292431739 0  0.3590076176283495 0.196411355804271 0  0.5571672426447437 0.2036011176410121 0  0.3066757059912147 0.1964092924317024 0  0.594380730180568 0.1966558399668133 0  0.4842413153245942 0.2040749161535287 0  0.4693047108503577 0.2040749161535231 0  0.3871533862424271 0.1959250838464788 0  0.372246743208829 0.1959123236376545 0  0.5141145242731028 0.2040749161535395 0  0.4543681063761134 0.2040749161535186 0  0.4019979587101454 0.1959834479682427 0  0.4394608940728603 0.2040870543693135 0  0.5439623148931173 0.2040856076781014 0  0.5290511287473298 0.2040749161535501 0  0.4991779197988497 0.2040749161535382 0  0.3347912413592433 0.1959225448935183 0  0.3199680582793816 0.1959123018030061 0  0.2825051229162361 0.1959834479681729 0  0.3590471196690275 0.2036304442587945 0  0.5571594006495384 0.1963685282145804 0  0.3067669986803285 0.203627750582736 0  0.4262598344738712 0.2036568242185335 0  0.5814408164431408 0.2041285596160068 0  0.5688286748170428 0.1961819304477386 0  0.4145905603063645 0.2038180695522843 0  0.3473758401724931 0.2038180695522752 0  0.2950977245128307 0.2038180695522663 0  0.5688286748170693 0.203818069552238 0  0.2950977245127906 0.1961819304477774 0  0.3473758401723931 0.1961819304478349 0  0.4145905603061963 0.1961819304479011 0  0.2601812407614425 0.2056861609747042
[...]
<PointData  Vectors="f_40-0"> 
<DataArray  type="Float64"  Name="f_40-0"  NumberOfComponents="3" format="ascii">0.0000000000000000e+00 0.0000000000000000e+00 0.0000000000000000e+00  0.0000000000000000e+00 0.0000000000000000e+00 0.0000000000000000e+00  0.0000000000000000e+00 0.0000000000000000e+00 0.0000000000000000e+00  0.0000000000000000e+00 0.0000000000000000e+00 0.0000000000000000e+00  1.1394738688755858e-05 3.5760539557015274e-04 0.0000000000000000e+00  -1.4184600422184768e-05 3.5755963336537265e-04 0.0000000000000000e+00  0.0000000000000000e+00 0.0000000000000000e+00 0.0000000000000000e+00  0.0000000000000000e+00 0.0000000000000000e+00 0.0000000000000000e+00  0.0000000000000000e+00 0.0000000000000000e+00 0.0000000000000000e+00  0.0000000000000000e+00 0.0000000000000000e+00 0.0000000000000000e+00  -1.3833330295195349e-06 3.5757431264956129e-04 0.0000000000000000e+00  7.9591836734548407e-02 0.0000000000000000e+00 0.0000000000000000e+00  1.4693877550994527e-01 0.0000000000000000e+00 0.0000000000000000e+00  2.0204081632617479e-01 0.0000000000000000e+00 0.0000000000000000e+00  2.4489795918330076e-01 0.0000000000000000e+00 0.0000000000000000e+00  2.7551020408131754e-01 0.0000000000000000e+00 0.0000000000000000e+00  2.9387755102022350e-01 0.0000000000000000e+00 0.0000000000000000e+00  3.0000000000000004e-01 0.0000000000000000e+00 0.0000000000000000e+00  2.9387755102059482e-01 0.0000000000000000e+00 0.0000000000000000e+00  2.7551020408195548e-01 0.0000000000000000e+00 0.0000000000000000e+00  2.4489795918409071e-01 0.0000000000000000e+00 0.0000000000000000e+00  2.0204081632692525e-01 0.0000000000000000e+00 0.0000000000000000e+00  1.4693877551058568e-01 0.0000000000000000e+00 0.0000000000000000e+00  7.9591836734909230e-02 0.0000000000000000e+00 0.0000000000000000e+00  0.0000000000000000e+00 0.0000000000000000e+00 0.0000000000000000e+00  0.0000000000000000e+00 0.0000000000000000e+00 0.0000000000000000e+00  0.0000000000000000e+00 0.0000000000000000e+00 0.0000000000000000e+00  0.0000000000000000e+00 0.0000000000000000e+00 0.0000000000000000e+00  0.0000000000000000e+00 0.0000000000000000e+00 0.0000000000000000e+00  0.0000000000000000e+00 0.0000000000000000e+00 0.0000000000000000e+00  0.0000000000000000e+00 0.0000000000000000e+00 0.0000000000000000e+00  0.0000000000000000e+00 0.0000000000000000e+00 0.0000000000000000e+00  0.0000000000000000e+00 0.0000000000000000e+00 0.0000000000000000e+00  0.0000000000000000e+00 0.0000000000000000e+00 0.0000000000000000e+00  0.0000000000000000e+00 0.0000000000000000e+00 0.0000000000000000e+00  0.0000000000000000e+00 0.0000000000000000e+00 0.0000000000000000e+00  0.0000000000000000e+00 0.0000000000000000e+00 0.0000000000000000e+00  0.0000000000000000e+00 0.0000000000000000e+00 0.0000000000000000e+00  0.0000000000000000e+00 0.0000000000000000e+00 0.0000000000000000e+00  0.0000000000000000e+00 0.0000000000000000e+00 0.0000000000000000e+00  0.0000000000000000e+00 0.0000000000000000e+00 0.0000000000000000e+00  0.0000000000000000e+00 0.0000000000000000e+00 0.0000000000000000e+00  0.0000000000000000e+00 0.0000000000000000e+00 0.0000000000000000e+00  0.0000000000000000e+00 0.0000000000000000e+00 0.0000000000000000e+00  0.0000000000000000e+00 0.0000000000000000e+00 0.0000000000000000e+00  0.0000000000000000e+00 0.0000000000000000e+00 0.0000000000000000e+00  0.0000000000000000e+00 0.0000000000000000e+00 0.0000000000000000e+00  0.0000000000000000e+00 0.0000000000000000e+00 0.0000000000000000e+00  0.0000000000000000e+00 0.0000000000000000e+00 0.0000000000000000e+00  0.0000000000000000e+00 0.0000000000000000e+00 0.0000000000000000e+00  0.0000000000000000e+00 0.0000000000000000e+00 0.0000000000000000e+00  0.0000000000000000e+00 0.0000000000000000e+00 0.0000000000000000e+00  0.0000000000000000e+00 0.0000000000000000e+00 0.0000000000000000e+00  0.0000000000000000e+00 0.0000000000000000e+00 0.0000000000000000e+00  0.0000000000000000e+00 0.0000000000000000e+00 0.0000000000000000e+00  0.0000000000000000e+00 0.0000000000000000e+00 0.0000000000000000e+00  0.0000000000000000e+00 0.0000000000000000e+00 0.0000000000000000e+00  0.0000000000000000e+00 0.0000000000000000e+00 0.0000000000000000e+00  0.0000000000000000e+00 0.0000000000000000e+00 0.0000000000000000e+00  0.0000000000000000e+00 0.0000000000000000e+00 0.0000000000000000e+00  0.0000000000000000e+00 0.0000000000000000e+00 0.0000000000000000e+00  0.0000000000000000e+00 0.0000000000000000e+00 0.0000000000000000e+00  2.3948904225217671e-01 -4.9444334836758761e-03 0.0000000000000000e+00  2.9959648492305757e-01 2.3998138539734625e-03 0.0000000000000000e+00  2.4297037281082975e-01 1.0984597449246028e-02 0.0000000000000000e+00  0.0000000000000000e+00 0.0000000000000000e+00 0.0000000000000000e+00  0.0000000000000000e+00 0.0000000000000000e+00 0.0000000000000000e+00  0.0000000000000000e+00 0.0000000000000000e+00 0.0000000000000000e+00  0.0000000000000000e+00 0.0000000000000000e+00 0.0000000000000000e+00  0.0000000000000000e+00 0.0000000000000000e+00 0.0000000000000000e+00  0.0000000000000000e+00 0.0000000000000000e+00 0.0000000000000000e+00  0.0000000000000000e+00 0.0000000000000000e+00 0.0000000000000000e+00  0.0000000000000000e+00 0.0000000000000000e+00 0.0000000000000000e+00  0.0000000000000000e+00 0.0000000000000000e+00 0.0000000000000000e+00  0.0000000000000000e+00 0.0000000000000000e+00 0.0000000000000000e+00  0.0000000000000000e+00 0.0000000000000000e+00 0.0000000000000000e+00  0.0000000000000000e+00 0.0000000000000000e+00 0.0000000000000000e+00  0.0000000000000000e+00 0.0000000000000000e+00 0.0000000000000000e+00  0.0000000000000000e+00 0.0000000000000000e+00 0.0000000000000000e+00  0.0000000000000000e+00 0.0000000000000000e+00 0.0000000000000000e+00  0.0000000000000000e+00 0.0000000000000000e+00 0.0000000000000000e+00  0.0000000000000000e+00 0.0000000000000000e+00 0.0000000000000000e+00  0.0000000000000000e+00 0.0000000000000000e+00 0.0000000000000000e+00  0.0000000000000000e+00 0.0000000000000000e+00 0.0000000000000000e+00  0.0000000000000000e+00 0.0000000000000000e+00 0.0000000000000000e+00  0.0000000000000000e+00 0.0000000000000000e+00 0.0000000000000000e+00  0.0000000000000000e+00 0.0000000000000000e+00 0.0000000000000000e+00  0.0000000000000000e+00 0.0000000000000000e+00 0.0000000000000000e+00  0.0000000000000000e+00 0.0000000000000000e+00 0.0000000000000000e+00  0.0000000000000000e+00 0.0000000000000000e+00 0.0000000000000000e+00  0.0000000000000000e+00 0.0000000000000000e+00 0.0000000000000000e+00  0.0000000000000000e+00 0.0000000000000000e+00 0.0000000000000000e+00  0.0000000000000000e+00 0.0000000000000000e+00 0.0000000000000000e+00  0.0000000000000000e+00 0.0000000000000000e+00 0.0000000000000000e+00  0.0000000000000000e+00 0.0000000000000000e+00 0.0000000000000000e+00  0.0000000000000000e+00 0.0000000000000000e+00 0.0000000000000000e+00  0.0000000000000000e+00 0.0000000000000000e+00 0.0000000000000000e+00  0.0000000000000000e+00 0.0000000000000000e+00 0.0000000000000000e+00  0.0000000000000000e+00 0.0000000000000000e+00 0.0000000000000000e+00  0.0000000000000000e+00 0.0000000000000000e+00 0.0000000000000000e+00  0.0000000000000000e+00 0.0000000000000000e+00 0.0000000000000000e+00  0.0000000000000000e+00 0.0000000000000000e+00 0.0000000000000000e+00  0.0000000000000000e+00 0.0000000000000000e+00 0.0000000000000000e+00  0.0000000000000000e+00 0.0000000000000000e+00 0.0000000000000000e+00  0.0000000000000000e+00 0.0000000000000000e+00 0.0000000000000000e+00  0.0000000000000000e+00 0.0000000000000000e+00 0.0000000000000000e+00  0.0000000000000000e+00 0.0000000000000000e+00 0.0000000000000000e+00  0.0000000000000000e+00 0.0000000000000000e+00 0.0000000000000000e+00  0.0000000000000000e+00 0.0000000000000000e+00 0.0000000000000000e+00  0.0000000000000000e+00 0.0000000000000000e+00 0.0000000000000000e+00  0.0000000000000000e+00 0.0000000000000000e+00 0.0000000000000000e+00  0.0000000000000000e+00 0.0000000000000000e+00 0.0000000000000000e+00  0.0000000000000000e+00 0.0000000000000000e+00 0.0000000000000000e+00  0.0000000000000000e+00 0.0000000000000000e+00 0.0000000000000000e+00  0.0000000000000000e+00 0.0000000000000000e+00 0.0000000000000000e+00  0.0000000000000000e+00 0.0000000000000000e+00 0.0000000000000000e+00  0.0000000000000000e+00 0.0000000000000000e+00 0.0000000000000000e+00  0.0000000000000000e+00 0.0000000000000000e+00 0.0000000000000000e+00  0.0000000000000000e+00 0.0000000000000000e+00 0.0000000000000000e+00  0.0000000000000000e+00 0.0000000000000000e+00 0.0000000000000000e+00  0.0000000000000000e+00 0.0000000000000000e+00 0.0000000000000000e+00  0.0000000000000000e+00 0.0000000000000000e+00 0.0000000000000000e+00  0.0000000000000000e+00 0.0000000000000000e+00 0.0000000000000000e+00  0.0000000000000000e+00 0.0000000000000000e+00 0.0000000000000000e+00  0.0000000000000000e+00 0.0000000000000000e+00 0.0000000000000000e+00  0.0000000000000000e+00 0.0000000000000000e+00 0.0000000000000000e+00  0.0000000000000000e+00 0.0000000000000000e+00 0.0000000000000000e+00  0.0000000000000000e+00 0.0000000000000000e+00 0.0000000000000000e+00  0.0000000000000000e+00 0.0000000000000000e+00 0.0000000000000000e+00  0.0000000000000000e+00 0.0000000000000000e+00 0.0000000000000000e+00  0.0000000000000000e+00 0.0000000000000000e+00 0.0000000000000000e+00  0.0000000000000000e+00 0.0000000000000000e+00 0.0000000000000000e+00  0.0000000000000000e+00 0.0000000000000000e+00 0.0000000000000000e+00  0.0000000000000000e+00 0.0000000000000000e+00 0.0000000000000000e+00  0.0000000000000000e+00 0.0000000000000000e+00 0.0000000000000000e+00  0.0000000000000000e+00 0.0000000000000000e+00 0.0000000000000000e+00  0.0000000000000000e+00 0.0000000000000000e+00 0.0000000000000000e+00  0.0000000000000000e+00 0.0000000000000000e+00 0.0000000000000000e+00  0.0000000000000000e+00 0.0000000000000000e+00 0.0000000000000000e+00  0.0000000000000000e+00 0.0000000000000000e+00 0.0000000000000000e+00  0.0000000000000000e+00 0.0000000000000000e+00 0.0000000000000000e+00  0.0000000000000000e+00 0.0000000000000000e+00 0.0000000000000000e+00  0.0000000000000000e+00 0.0000000000000000e+00 0.0000000000000000e+00  -9.2203859266773899e-07 7.7469491360129550e-07 0.0000000000000000e+00  -1.9449803082301403e-06 1.9045629286685298e-06 0.0000000000000000e+00  -2.8205633176539323e-06 3.7164435094738534e-06 0.0000000000000000e+00  -3.7478287823916222e-06 6.2423684328354155e-06 0.0000000000000000e+00  -4.4989667362394732e-06 9.3400362648965918e-06 0.0000000000000000e+00  -5.3349267203992057e-06 1.3057481510880800e-05 0.0000000000000000e+00  -5.9871913992312746e-06 1.7220010265819761e-05 0.0000000000000000e+00  -6.6042282639272351e-06 2.1956673252146942e-05 0.0000000000000000e+00  -7.3010429068211938e-06 2.7116480502728930e-05 0.0000000000000000e+00  -7.8124751662974128e-06 3.2705093745641220e-05 0.0000000000000000e+00  -8.4261970638877455e-06 3.8706870372156690e-05 0.0000000000000000e+00  -8.8701068561436452e-06 4.5074230425307465e-05 0.0000000000000000e+00  -9.3833784822542212e-06 5.1787984783084801e-05 0.0000000000000000e+00  -9.7774782824073548e-06 5.8773131984073886e-05 0.0000000000000000e+00  -1.0147615267764035e-05 6.6085338487785722e-05 0.0000000000000000e+00  -1.0556979427266739e-05 7.3635257469340101e-05 0.0000000000000000e+00  -1.0856786476132325e-05 8.1422595753931438e-05 0.0000000000000000e+00  -1.1205176860073008e-05 8.9434929259090993e-05 0.0000000000000000e+00  -1.1456515994919623e-05 9.7638614300394464e-05 0.0000000000000000e+00  -1.1742506761434484e-05 1.0601811530199049e-04 0.0000000000000000e+00  -1.1962426748468277e-05 1.1455823050857125e-04 0.0000000000000000e+00  -1.2194823530336319e-05 1.2324771637121763e-04 0.0000000000000000e+00  -1.2376208712000883e-05 1.3204114186942924e-04 0.0000000000000000e+00  -1.2542872352123931e-05 1.4096431873530539e-04 0.0000000000000000e+00  -1.2717638107318421e-05 1.4997010896175152e-04 0.0000000000000000e+00  -1.2858069966505220e-05 1.5906861304870547e-04 0.0000000000000000e+00  -1.2992308986949828e-05 1.6824337517942035e-04 0.0000000000000000e+00  -1.3107300816738547e-05 1.7747679103939288e-04 0.0000000000000000e+00  -1.3216151008290306e-05 1.8676942891744734e-04 0.0000000000000000e+00  -1.3310074946516041e-05 1.9610391246174303e-04 0.0000000000000000e+00  -1.3398614707141347e-05 2.0548124957017278e-04 0.0000000000000000e+00  -1.3475714745132494e-05 2.1488746862384332e-04 0.0000000000000000e+00  -1.3548336752669852e-05 2.2432347596368921e-04 0.0000000000000000e+00  -1.3612569398056350e-05 2.3377862752481013e-04 0.0000000000000000e+00  -1.3673197063116828e-05 2.4325377298984132e-04 0.0000000000000000e+00  -1.3727764830594353e-05 2.5274102994932905e-04 0.0000000000000000e+00  -1.3779689703923462e-05 2.6224127556758793e-04 0.0000000000000000e+00  -1.3827415656795173e-05 2.7174903274510351e-04 0.0000000000000000e+00  -1.3873382064946194e-05 2.8126520416514638e-04 0.0000000000000000e+00  -1.3916360975758345e-05 2.9078593523852259e-04 0.0000000000000000e+00  -1.3958354519417296e-05 3.0031279956308052e-04 0.0000000000000000e+00  -1.3997891001244738e-05 3.0984232682634280e-04 0.0000000000000000e+00  -1.4035909166592775e-05 3.1937692448506333e-04 0.0000000000000000e+00  -1.4074008337426753e-05 3.2891393639810853e-04 0.0000000000000000e+00  -1.4109743488212251e-05 3.3845411873777804e-04 0.0000000000000000e+00  -1.4145757634609305e-05 3.4799929090592303e-04 0.0000000000000000e+00  -7.7782941046280880e-06 3.5756341972068798e-04 0.0000000000000000e+00  5.0071993928175253e-06 3.5758641433226843e-04 0.0000000000000000e+00  1.1423051301564522e-05 3.4805438339199755e-04 0.0000000000000000e+00  1.1449651439920011e-05 3.3850804151560324e-04 0.0000000000000000e+00  1.1476476568381275e-05 3.2896441063716626e-04 0.0000000000000000e+00  1.1503113698497779e-05 3.1942522462372384e-04 0.0000000000000000e+00  1.1530882140883618e-05 3.0988886255940452e-04 0.0000000000000000e+00  1.1558984285873567e-05 3.0035766376859744e-04 0.0000000000000000e+00  1.1585626021812444e-05 2.9083014522794041e-04 0.0000000000000000e+00  1.1613522436337105e-05 2.8130769993238685e-04 0.0000000000000000e+00  1.1637985379258047e-05 2.7179121495719952e-04 0.0000000000000000e+00  1.1663541411298801e-05 2.6228228053239269e-04 0.0000000000000000e+00  1.1683094546508375e-05 2.5278193529148569e-04 0.0000000000000000e+00  1.1703665404223764e-05 2.4329368303238131e-04 0.0000000000000000e+00  1.1714657665400810e-05 2.3381861179813375e-04 0.0000000000000000e+00  1.1727207563914056e-05 2.2436254530331992e-04 0.0000000000000000e+00  1.1725508483052110e-05 2.1492671202578040e-04 0.0000000000000000e+00  1.1726579969626592e-05 2.0551952371013383e-04 0.0000000000000000e+00  1.1707439269831436e-05 1.9614242658444109e-04 0.0000000000000000e+00  1.1693065370008575e-05 1.8680677556677221e-04 0.0000000000000000e+00  1.1651091994780607e-05 1.7751427553342798e-04 0.0000000000000000e+00  1.1616915476808456e-05 1.6827934010599227e-04 0.0000000000000000e+00  1.1545496113676250e-05 1.5910472475181591e-04 0.0000000000000000e+00  1.1485782047862042e-05 1.5000827735434574e-04 0.0000000000000000e+00  1.1380082285850625e-05 1.4099610031366799e-04 0.0000000000000000e+00  1.1283801765580600e-05 1.3207363247504081e-04 0.0000000000000000e+00  1.1171036233184754e-05 1.2328046179572167e-04 0.0000000000000000e+00  1.1010323294309410e-05 1.1458569280305622e-04 0.0000000000000000e+00  1.0849514216779519e-05 1.0605085642461351e-04 0.0000000000000000e+00  1.0645631426746392e-05 9.7660732491258129e-05 0.0000000000000000e+00  1.0435375282604676e-05 8.9459784610737328e-05 0.0000000000000000e+00  1.0178282806944804e-05 8.1442973085249542e-05 0.0000000000000000e+00  9.9142129847872286e-06 7.3644646701873979e-05 0.0000000000000000e+00  9.5684941552412138e-06 6.6107269865072925e-05 0.0000000000000000e+00  9.2567338683209445e-06 5.8789255931290133e-05 0.0000000000000000e+00  8.9164679043295760e-06 5.1806474983902286e-05 0.0000000000000000e+00  8.4724688955239010e-06 4.5067657951353665e-05 0.0000000000000000e+00  8.0378570260190552e-06 3.8711640412405190e-05 0.0000000000000000e+00  7.5255246382056757e-06 3.2702664649838306e-05 0.0000000000000000e+00  7.0129209814905684e-06 2.7094691977609251e-05 0.0000000000000000e+00  6.3667565498805988e-06 2.1957723321164547e-05 0.0000000000000000e+00  5.7890252055403077e-06 1.7211017573668088e-05 0.0000000000000000e+00  5.1739316045784070e-06 1.3047173845117129e-05 0.0000000000000000e+00  4.3864174236997503e-06 9.3097753462325287e-06 0.0000000000000000e+00  3.6431194456499445e-06 6.2011974263995063e-06 0.0000000000000000e+00  2.7390735525394193e-06 3.7072026492592379e-06 0.0000000000000000e+00  1.9081595871223609e-06 1.8840786894523592e-06 0.0000000000000000e+00  9.0756076142849816e-07 7.4444298571946353e-07 0.0000000000000000e+00  -2.1335542228016574e-08 8.2558848988004917e-07 0.0000000000000000e+00  -1.5037494058495983e-06 3.4322865200838424e-04 0.0000000000000000e+00  -1.5450333734567884e-06 3.2499145164265487e-04 0.0000000000000000e+00  -1.3232728929062853e-06 2.9522635891177394e-04 0.0000000000000000e+00  -3.6710263656291891e-08 4.4664204201900277e-06 0.0000000000000000e+00  -1.1112377698593911e-06 2.7652217179899291e-04 0.0000000000000000e+00  -7.8390065144360871e-09 1.0436564560088846e-05 0.0000000000000000e+00  -1.0392955405227782e-06 2.5750257126365970e-04 0.0000000000000000e+00  -3.3416827595893788e-08 2.4390493408178812e-05 0.0000000000000000e+00  -1.6924367259150619e-07 3.5409412703953070e-05 0.0000000000000000e+00  -9.6610415548857187e-07 2.3852247800327657e-04 0.0000000000000000e+00  -1.6804879191959477e-07 6.9987540647811885e-05 0.0000000000000000e+00  -8.1811167607194693e-07 2.0078251602219721e-04 0.0000000000000000e+00  -1.0129403820246749e-07 4.7625971843438812e-05 0.0000000000000000e+00  -3.6318013878973294e-07 8.5278994082761480e-05 0.0000000000000000e+00  -7.4429901254113825e-07 1.8210099147386328e-04 0.0000000000000000e+00  -8.9221108558224292e-07 2.1960473264514497e-04 0.0000000000000000e+00  -4.2740613945790099e-07 1.0170921464270675e-04 0.0000000000000000e+00  -6.7079036238045033e-07 1.6361904301486768e-04 0.0000000000000000e+00  -3.4003446662505273e-07 1.1810551064296730e-04 0.0000000000000000e+00  -7.5378954716077233e-07 1.4578319811380905e-04 0.0000000000000000e+00  -5.3952741334021205e-07 1.3127584888446338e-04 0.0000000000000000e+00  -2.7464064865970568e-07 5.8017026858088003e-05 0.0000000000000000e+00  -1.2109201861534577e-06 3.1069770283287856e-04 0.0000000000000000e+00  -9.0103796522511674e-08 1.6609320527333299e-05 0.0000000000000000e+00  2.9616063858734434e-06 3.3405266102456906e-04 0.0000000000000000e+00  8.2219743162641151e-07 2.3493650289425648e-06 0.0000000000000000e+00  2.6258595263823562e-06 2.6701536381334697e-04 0.0000000000000000e+00  2.5606373756448553e-06 2.8604886806110754e-04 0.0000000000000000e+00  -1.4782141717866195e-06 7.3433203457246588e-06 0.0000000000000000e+00  -2.3060167778994912e-06 2.9623195944269830e-05 0.0000000000000000e+00  2.8033464409807136e-06 2.1018772527620509e-04 0.0000000000000000e+00  2.6895703893582938e-06 2.4801355841423266e-04 0.0000000000000000e+00  -3.3512668480816108e-06 7.7378067458662276e-05 0.0000000000000000e+00  2.8480843895863788e-06 1.9143050018226906e-04 0.0000000000000000e+00  -2.6406387071096256e-06 4.1645380436468513e-05 0.0000000000000000e+00  -3.5720012835357881e-06 9.3415805732348232e-05 0.0000000000000000e+00  2.8807844943244194e-06 1.7284174077984496e-04 0.0000000000000000e+00  2.7495700975337936e-06 2.2906172009910203e-04 0.0000000000000000e+00  -4.4951241912897231e-06 1.1009949705122271e-04 0.0000000000000000e+00  2.8994993297864332e-06 1.5448774929506889e-04 0.0000000000000000e+00  -1.6448935486777268e-07 1.9083763958261530e-07 0.0000000000000000e+00  1.3674018465283063e-07 1.6896215123333205e-07 0.0000000000000000e+00  -4.4702656010353664e-06 3.5073120412331597e-04 0.0000000000000000e+00  -9.6767877302970972e-07 2.3599234794646283e-06 0.0000000000000000e+00  3.7150990385638409e-06 1.3845700207556520e-04 0.0000000000000000