<?xml version="1.0"?>
<VTKFile type="UnstructuredGrid"  version="0.1"  >
<UnstructuredGrid>
<Piece  NumberOfPoints="1419" NumberOfCells="2698">
<Points>
<DataArray  type="Float64"  NumberOfComponents="3"  format="ascii">0 0 0  0 0.41 0  2.5 0 0  2.5 0.41 0  0.6 0.19 0  0.6 0.21 0  0.25 0.2 0  0.15 0.2 0  0.2489897948556636 0.21 0  0.2489897948556636 0.19 0  0.6 0.2 0  0 0.3807142857143437 0  0 0.3514285714286952 0  0 0.3221428571430699 0  0 0.29285714285744 0  0 0.2635714285718054 0  0 0.2342857142861561 0  0 0.2050000000005308 0  0 0.175714285714732 0  0 0.1464285714289574 0  0 0.1171428571431897 0  0 0.08785714285737878 0  0 0.05857142857161107 0  0 0.02928571428580012 0  0.03015443760436003 0 0  0.06140001986583606 0 0  0.09377624077125973 0 0  0.1273239957535082 0 0  0.1620856860351972 0 0  0.1981052433264291 0 0  0.235428184091502 0 0  0.2741016576309132 0 0  0.3141745521465447 0 0  0.3556974926295285 0 0  0.3987229542472677 0 0  0.4433053055141081 0 0  0.4895008759286886 0 0  0.5373680609405097 0 0  0.5869673343216626 0 0  0.6383613676634521 0 0  0.6916151138468254 0 0  0.7467958595648856 0 0  0.8039733463919316 0 0  0.8632198139502143 0 0  0.9246101326867038 0 0  0.9882218810934433 0 0  1.054135445558498 0 0  1.122434100542598 0 0  1.193204177141305 0 0  1.266535089879536 0 0  1.342519516046404 0 0  1.421253448503939 0 0  1.502836389106271 0 0  1.587371439758838 0 0  1.674965418777374 0 0  1.765729001825544 0 0  1.859776908880082 0 0  1.957227977487062 0 0  2.058205329869943 0 0  2.162836591189951 0 0  2.271253957290865 0 0  2.383594446803425 0 0  2.5 0.1024999999997612 0  2.5 0.2049999999994743 0  2.5 0.3074999999997183 0  2.383594446803656 0.41 0  2.271253957291315 0.41 0  2.162836591190598 0.41 0  2.058205329870775 0.41 0  1.957227977488067 0.41 0  1.859776908881246 0.41 0  1.765729001826854 0.41 0  1.674965418778818 0.41 0  1.58737143976041 0.41 0  1.502836389107956 0.41 0  1.421253448505726 0.41 0  1.342519516048286 0.41 0  1.266535089881505 0.41 0  1.193204177143353 0.41 0  1.122434100544716 0.41 0  1.05413544556068 0.41 0  0.9882218810956305 0.41 0  0.9246101326886647 0.41 0  0.8632198139519631 0.41 0  0.8039733463934788 0.41 0  0.7467958595662458 0.41 0  0.6916151138480078 0.41 0  0.6383613676644679 0.41 0  0.5869673343225223 0.41 0  0.5373680609412221 0.41 0  0.4895008759292634 0.41 0  0.4433053055145528 0.41 0  0.3987229542475914 0.41 0  0.3556974926297398 0.41 0  0.3141745521466497 0.41 0  0.2741016576310038 0.41 0  0.2354281840915826 0.41 0  0.1981052433265003 0.41 0  0.1620856860352591 0.41 0  0.1273239957535623 0.41 0  0.09377624077128965 0.41 0  0.06140001986584975 0.41 0  0.03015443760436654 0.41 0  0.2497468076502589 0.2050254481002335 0  0.2497468076502614 0.1949745518997913 0  0.2469965252529372 0.1829317073451959 0  0.2439893735792749 0.1762316384219906 0  0.2400332147834255 0.1700443375285386 0  0.2352133972704371 0.1645032867342007 0  0.2296339016332438 0.1597280261969788 0  0.2234150974217223 0.1558215752574715 0  0.2166911463437691 0.1528682099456123 0  0.2096071079204251 0.1509316448471593 0  0.2023158100364996 0.1500536585536553 0  0.194974551899914 0.1502531923497262 0  0.1877417105387872 0.1515259415822739 0  0.1807733240461124 0.153844448527136 0  0.1742197252835808 0.15715869474974 0  0.1682222986673531 0.1613971801805478 0  0.162910430003803 0.1664684656256651 0  0.1583987151779087 0.1722631454351573 0  0.1547844879126891 0.178656207771761 0  0.1521457199348551 0.1855097315605723 0  0.1505393388476355 0.1926758619366523 0  0.1505393388476328 0.2073241380633295 0  0.1521457199348437 0.2144902684393899 0  0.1547844879126531 0.221343792228163 0  0.1583987151778488 0.2277368545647528 0  0.1629104300036858 0.2335315343742052 0  0.1682222986671726 0.2386028198193036 0  0.1742197252833576 0.2428413052501257 0  0.1807733240458683 0.2461555514727623 0  0.1877417105384929 0.2484740584176516 0  0.1949745518995776 0.2497468076502398 0  0.202315810036185 0.2499463414463592 0  0.2096071079201568 0.2490683551528932 0  0.2166911463435495 0.2471317900544655 0  0.2234150974215506 0.2441784247426195 0  0.2296339016331197 0.2402719738031125 0  0.2352133972703547 0.2354967132658811 0  0.2400332147833751 0.2299556624715287 0  0.2439893735792577 0.2237683615780412 0  0.246996525252926 0.2170682926548348 0  0.25645809709277 0.21 0  0.2639263993298655 0.21 0  0.271394701566961 0.21 0  0.2788630038040554 0.21 0  0.2863313060411479 0.21 0  0.2937996082782405 0.21 0  0.301267910515333 0.21 0  0.3087362127524279 0.21 0  0.3162045149895234 0.21 0  0.3236728172265972 0.21 0  0.3311411194636928 0.21 0  0.3386094217007701 0.21 0  0.3460777239378666 0.21 0  0.3535460261749672 0.21 0  0.3610143284120516 0.21 0  0.3684826306491596 0.21 0  0.3759509328862226 0.21 0  0.383419235123329 0.21 0  0.3908875373604028 0.21 0  0.3983558395975142 0.21 0  0.4058241418345938 0.21 0  0.4132924440716992 0.21 0  0.4207607463087888 0.21 0  0.4282290485459029 0.21 0  0.4356973507830418 0.21 0  0.4431656530201649 0.21 0  0.4506339552573136 0.21 0  0.4581022574944306 0.21 0  0.4655705597315852 0.21 0  0.4730388619686996 0.21 0  0.480507164205851 0.21 0  0.4879754664429498 0.21 0  0.4954437686800938 0.21 0  0.502912070917267 0.21 0  0.5103803731544119 0.21 0  0.5178486753915261 0.21 0  0.5253169776286404 0.21 0  0.5327852798657868 0.21 0  0.5402535821029386 0.21 0  0.54772188434007 0.21 0  0.5551901865771842 0.21 0  0.5626584888143201 0.21 0  0.5701267910514778 0.21 0  0.5775950932886138 0.21 0  0.5850633955257281 0.21 0  0.5925316977628483 0.21 0  0.6 0.2050000000000054 0  0.6 0.1950000000000217 0  0.5925316977628897 0.19 0  0.5850633955257988 0.19 0  0.5775950932887378 0.19 0  0.5701267910515998 0.19 0  0.5626584888145268 0.19 0  0.5551901865773963 0.19 0  0.547721884340339 0.19 0  0.5402535821032429 0.19 0  0.5327852798661811 0.19 0  0.5253169776290537 0.19 0  0.5178486753919799 0.19 0  0.5103803731549078 0.19 0  0.502912070917822 0.19 0  0.4954437686807294 0.19 0  0.4879754664436223 0.19 0  0.4805071642065402 0.19 0  0.4730388619694271 0.19 0  0.4655705597323621 0.19 0  0.4581022574952563 0.19 0  0.4506339552581777 0.19 0  0.4431656530210671 0.19 0  0.4356973507839815 0.19 0  0.4282290485468779 0.19 0  0.4207607463097617 0.19 0  0.4132924440726327 0.19 0  0.4058241418354857 0.19 0  0.3983558395983636 0.19 0  0.3908875373612097 0.19 0  0.3834192351240934 0.19 0  0.3759509328869369 0.19 0  0.3684826306498175 0.19 0  0.361014328412667 0.19 0  0.3535460261755617 0.19 0  0.3460777239384295 0.19 0  0.3386094217012945 0.19 0  0.3311411194641595 0.19 0  0.3236728172270245 0.19 0  0.3162045149898895 0.19 0  0.3087362127527544 0.19 0  0.3012679105156187 0.19 0  0.2937996082784807 0.19 0  0.2863313060413428 0.19 0  0.2788630038042048 0.19 0  0.2713947015670686 0.19 0  0.2639263993299336 0.19 0  0.2564580970927985 0.19 0  0.2607803159922026 0.2000727136295815 0  0.5887803774232762 0.2001272386983733 0  0.5745072403740523 0.2002044435018727 0  0.5511891430099709 0.2001122610077113 0  0.2751288526855082 0.20000000000002 0  0.5365194309847112 0.1999999999999436 0  0.2894621222999649 0.1998691686390484 0  0.5215828265105155 0.1999999999999228 0  0.3127789816668748 0.1998657885438805 0  0.3274069683451451 0.2000000000000796 0  0.5066462220363641 0.199999999999908 0  0.3650630746574081 0.199866017807523 0  0.476773013087985 0.1999999999998713 0  0.3417402379596385 0.1998691686391011 0  0.3796850840047755 0.200000000000134 0  0.4618364086138087 0.1999999999998546 0  0.4917096175621762 0.1999999999998808 0  0.3946216884789568 0.2000000000001512 0  0.446899804139621 0.1999999999998389 0  0.4089549580935208 0.1998691686391595 0  0.4322718174608562 0.200127451265745 0  0.4201487168029707 0.1999966199048527 0  0.3528922713220932 0.2000185703532356 0  0.5633122436674589 0.1999814296467508 0  0.3006558810093873 0.1999966199048318 0  0.5815926498168407 0.1966545283159175 0  0.2677053789419034 0.1964246479135325 0  0.5290511287476175 0.1970915826863981 0  0.5439877332217911 0.197091582686394 0  0.2825131256993216 0.2035478995978015 0  0.3199386661080599 0.202908417313604 0  0.4842413153250809 0.1970915826863873 0  0.5141145242734466 0.1970915826863843 0  0.3722167817676917 0.2029084173136195 0  0.4693047108508938 0.1970915826863783 0  0.3348752705822316 0.202908417313609 0  0.3871533862418661 0.2029084173136212 0  0.4543681063767183 0.1970915826863795 0  0.4991779197992749 0.1970915826863902 0  0.4020059614928624 0.203547899597858 0  0.4394315019025246 0.1970915826863714 0  0.2550657455369551 0.2034088125358657 0  0.2548908499171161 0.1966940311614271 0  0.5946539510196798 0.2024302972968126 0  0.267698176732111 0.2039977513680092 0  0.4261685417851465 0.196409292431739 0  0.3590076176283495 0.196411355804271 0  0.5571672426447437 0.2036011176410121 0  0.3066757059912147 0.1964092924317024 0  0.594380730180568 0.1966558399668133 0  0.4842413153245942 0.2040749161535287 0  0.4693047108503577 0.2040749161535231 0  0.3871533862424271 0.1959250838464788 0  0.372246743208829 0.1959123236376545 0  0.5141145242731028 0.2040749161535395 0  0.4543681063761134 0.2040749161535186 0  0.4019979587101454 0.1959834479682427 0  0.4394608940728603 0.2040870543693135 0  0.5439623148931173 0.2040856076781014 0  0.5290511287473298 0.2040749161535501 0  0.4991779197988497 0.2040749161535382 0  0.3347912413592433 0.1959225448935183 0  0.3199680582793816 0.1959123018030061 0  0.2825051229162361 0.1959834479681729 0  0.3590471196690275 0.2036304442587945 0  0.5571594006495384 0.1963685282145804 0  0.3067669986803285 0.203627750582736 0  0.4262598344738712 0.2036568242185335 0  0.5814408164431408 0.2041285596160068 0  0.5688286748170428 0.1961819304477386 0  0.4145905603063645 0.2038180695522843 0  0.3473758401724931 0.2038180695522752 0  0.2950977245128307 0.2038180695522663 0  0.5688286748170693 0.203818069552238 0  0.2950977245127906 0.1961819304477774 0  0.3473758401723931 0.1961819304478349 0  0.4145905603061963 0.1961819304479011 0  0.2601812407614425 0.2056861609747042
[...]
<PointData  Vectors="f_40-0"> 
<DataArray  type="Float64"  Name="f_40-0"  NumberOfComponents="3" format="ascii">0.0000000000000000e+00 0.0000000000000000e+00 0.0000000000000000e+00  0.0000000000000000e+00 0.0000000000000000e+00 0.0000000000000000e+00  0.0000000000000000e+00 0.0000000000000000e+00 0.0000000000000000e+00  0.0000000000000000e+00 0.0000000000000000e+00 0.0000000000000000e+00  1.3000464068367982e-05 7.6743485086866583e-05 0.0000000000000000e+00  1.2103751466624994e-05 7.9018172593085475e-05 0.0000000000000000e+00  0.0000000000000000e+00 0.0000000000000000e+00 0.0000000000000000e+00  0.0000000000000000e+00 0.0000000000000000e+00 0.0000000000000000e+00  0.0000000000000000e+00 0.0000000000000000e+00 0.0000000000000000e+00  0.0000000000000000e+00 0.0000000000000000e+00 0.0000000000000000e+00  1.2633170366236414e-05 7.7884316317453677e-05 0.0000000000000000e+00  7.9194819031432565e-02 0.0000000000000000e+00 0.0000000000000000e+00  1.4620581975034674e-01 0.0000000000000000e+00 0.0000000000000000e+00  2.0103300215672681e-01 0.0000000000000000e+00 0.0000000000000000e+00  2.4367636625063627e-01 0.0000000000000000e+00 0.0000000000000000e+00  2.7413591203206950e-01 0.0000000000000000e+00 0.0000000000000000e+00  2.9241163950102478e-01 0.0000000000000000e+00 0.0000000000000000e+00  2.9850354865748374e-01 0.0000000000000000e+00 0.0000000000000000e+00  2.9241163950139426e-01 0.0000000000000000e+00 0.0000000000000000e+00  2.7413591203270415e-01 0.0000000000000000e+00 0.0000000000000000e+00  2.4367636625142225e-01 0.0000000000000000e+00 0.0000000000000000e+00  2.0103300215747349e-01 0.0000000000000000e+00 0.0000000000000000e+00  1.4620581975098393e-01 0.0000000000000000e+00 0.0000000000000000e+00  7.9194819031791583e-02 0.0000000000000000e+00 0.0000000000000000e+00  0.0000000000000000e+00 0.0000000000000000e+00 0.0000000000000000e+00  0.0000000000000000e+00 0.0000000000000000e+00 0.0000000000000000e+00  0.0000000000000000e+00 0.0000000000000000e+00 0.0000000000000000e+00  0.0000000000000000e+00 0.0000000000000000e+00 0.0000000000000000e+00  0.0000000000000000e+00 0.0000000000000000e+00 0.0000000000000000e+00  0.0000000000000000e+00 0.0000000000000000e+00 0.0000000000000000e+00  0.0000000000000000e+00 0.0000000000000000e+00 0.0000000000000000e+00  0.0000000000000000e+00 0.0000000000000000e+00 0.0000000000000000e+00  0.0000000000000000e+00 0.0000000000000000e+00 0.0000000000000000e+00  0.0000000000000000e+00 0.0000000000000000e+00 0.0000000000000000e+00  0.0000000000000000e+00 0.0000000000000000e+00 0.0000000000000000e+00  0.0000000000000000e+00 0.0000000000000000e+00 0.0000000000000000e+00  0.0000000000000000e+00 0.0000000000000000e+00 0.0000000000000000e+00  0.0000000000000000e+00 0.0000000000000000e+00 0.0000000000000000e+00  0.0000000000000000e+00 0.0000000000000000e+00 0.0000000000000000e+00  0.0000000000000000e+00 0.0000000000000000e+00 0.0000000000000000e+00  0.0000000000000000e+00 0.0000000000000000e+00 0.0000000000000000e+00  0.0000000000000000e+00 0.0000000000000000e+00 0.0000000000000000e+00  0.0000000000000000e+00 0.0000000000000000e+00 0.0000000000000000e+00  0.0000000000000000e+00 0.0000000000000000e+00 0.0000000000000000e+00  0.0000000000000000e+00 0.0000000000000000e+00 0.0000000000000000e+00  0.0000000000000000e+00 0.0000000000000000e+00 0.0000000000000000e+00  0.0000000000000000e+00 0.0000000000000000e+00 0.0000000000000000e+00  0.0000000000000000e+00 0.0000000000000000e+00 0.0000000000000000e+00  0.0000000000000000e+00 0.0000000000000000e+00 0.0000000000000000e+00  0.0000000000000000e+00 0.0000000000000000e+00 0.0000000000000000e+00  0.0000000000000000e+00 0.0000000000000000e+00 0.0000000000000000e+00  0.0000000000000000e+00 0.0000000000000000e+00 0.0000000000000000e+00  0.0000000000000000e+00 0.0000000000000000e+00 0.0000000000000000e+00  0.0000000000000000e+00 0.0000000000000000e+00 0.0000000000000000e+00  0.0000000000000000e+00 0.0000000000000000e+00 0.0000000000000000e+00  0.0000000000000000e+00 0.0000000000000000e+00 0.0000000000000000e+00  0.0000000000000000e+00 0.0000000000000000e+00 0.0000000000000000e+00  0.0000000000000000e+00 0.0000000000000000e+00 0.0000000000000000e+00  0.0000000000000000e+00 0.0000000000000000e+00 0.0000000000000000e+00  0.0000000000000000e+00 0.0000000000000000e+00 0.0000000000000000e+00  0.0000000000000000e+00 0.0000000000000000e+00 0.0000000000000000e+00  0.0000000000000000e+00 0.0000000000000000e+00 0.0000000000000000e+00  2.6299272251915284e-01 -9.4039653218251605e-03 0.0000000000000000e+00  2.4310323831118974e-01 2.6076053730946999e-03 0.0000000000000000e+00  2.6565079334515457e-01 9.9440448773040150e-03 0.0000000000000000e+00  0.0000000000000000e+00 0.0000000000000000e+00 0.0000000000000000e+00  0.0000000000000000e+00 0.0000000000000000e+00 0.0000000000000000e+00  0.0000000000000000e+00 0.0000000000000000e+00 0.0000000000000000e+00  0.0000000000000000e+00 0.0000000000000000e+00 0.0000000000000000e+00  0.0000000000000000e+00 0.0000000000000000e+00 0.0000000000000000e+00  0.0000000000000000e+00 0.0000000000000000e+00 0.0000000000000000e+00  0.0000000000000000e+00 0.0000000000000000e+00 0.0000000000000000e+00  0.0000000000000000e+00 0.0000000000000000e+00 0.0000000000000000e+00  0.0000000000000000e+00 0.0000000000000000e+00 0.0000000000000000e+00  0.0000000000000000e+00 0.0000000000000000e+00 0.0000000000000000e+00  0.0000000000000000e+00 0.0000000000000000e+00 0.0000000000000000e+00  0.0000000000000000e+00 0.0000000000000000e+00 0.0000000000000000e+00  0.0000000000000000e+00 0.0000000000000000e+00 0.0000000000000000e+00  0.0000000000000000e+00 0.0000000000000000e+00 0.0000000000000000e+00  0.0000000000000000e+00 0.0000000000000000e+00 0.0000000000000000e+00  0.0000000000000000e+00 0.0000000000000000e+00 0.0000000000000000e+00  0.0000000000000000e+00 0.0000000000000000e+00 0.0000000000000000e+00  0.0000000000000000e+00 0.0000000000000000e+00 0.0000000000000000e+00  0.0000000000000000e+00 0.0000000000000000e+00 0.0000000000000000e+00  0.0000000000000000e+00 0.0000000000000000e+00 0.0000000000000000e+00  0.0000000000000000e+00 0.0000000000000000e+00 0.0000000000000000e+00  0.0000000000000000e+00 0.0000000000000000e+00 0.0000000000000000e+00  0.0000000000000000e+00 0.0000000000000000e+00 0.0000000000000000e+00  0.0000000000000000e+00 0.0000000000000000e+00 0.0000000000000000e+00  0.0000000000000000e+00 0.0000000000000000e+00 0.0000000000000000e+00  0.0000000000000000e+00 0.0000000000000000e+00 0.0000000000000000e+00  0.0000000000000000e+00 0.0000000000000000e+00 0.0000000000000000e+00  0.0000000000000000e+00 0.0000000000000000e+00 0.0000000000000000e+00  0.0000000000000000e+00 0.0000000000000000e+00 0.0000000000000000e+00  0.0000000000000000e+00 0.0000000000000000e+00 0.0000000000000000e+00  0.0000000000000000e+00 0.0000000000000000e+00 0.0000000000000000e+00  0.0000000000000000e+00 0.0000000000000000e+00 0.0000000000000000e+00  0.0000000000000000e+00 0.0000000000000000e+00 0.0000000000000000e+00  0.0000000000000000e+00 0.0000000000000000e+00 0.0000000000000000e+00  0.0000000000000000e+00 0.0000000000000000e+00 0.0000000000000000e+00  0.0000000000000000e+00 0.0000000000000000e+00 0.0000000000000000e+00  0.0000000000000000e+00 0.0000000000000000e+00 0.0000000000000000e+00  0.0000000000000000e+00 0.0000000000000000e+00 0.0000000000000000e+00  0.0000000000000000e+00 0.0000000000000000e+00 0.0000000000000000e+00  0.0000000000000000e+00 0.0000000000000000e+00 0.0000000000000000e+00  0.0000000000000000e+00 0.0000000000000000e+00 0.0000000000000000e+00  0.0000000000000000e+00 0.0000000000000000e+00 0.0000000000000000e+00  0.0000000000000000e+00 0.0000000000000000e+00 0.0000000000000000e+00  0.0000000000000000e+00 0.0000000000000000e+00 0.0000000000000000e+00  0.0000000000000000e+00 0.0000000000000000e+00 0.0000000000000000e+00  0.0000000000000000e+00 0.0000000000000000e+00 0.0000000000000000e+00  0.0000000000000000e+00 0.0000000000000000e+00 0.0000000000000000e+00  0.0000000000000000e+00 0.0000000000000000e+00 0.0000000000000000e+00  0.0000000000000000e+00 0.0000000000000000e+00 0.0000000000000000e+00  0.0000000000000000e+00 0.0000000000000000e+00 0.0000000000000000e+00  0.0000000000000000e+00 0.0000000000000000e+00 0.0000000000000000e+00  0.0000000000000000e+00 0.0000000000000000e+00 0.0000000000000000e+00  0.0000000000000000e+00 0.0000000000000000e+00 0.0000000000000000e+00  0.0000000000000000e+00 0.0000000000000000e+00 0.0000000000000000e+00  0.0000000000000000e+00 0.0000000000000000e+00 0.0000000000000000e+00  0.0000000000000000e+00 0.0000000000000000e+00 0.0000000000000000e+00  0.0000000000000000e+00 0.0000000000000000e+00 0.0000000000000000e+00  0.0000000000000000e+00 0.0000000000000000e+00 0.0000000000000000e+00  0.0000000000000000e+00 0.0000000000000000e+00 0.0000000000000000e+00  0.0000000000000000e+00 0.0000000000000000e+00 0.0000000000000000e+00  0.0000000000000000e+00 0.0000000000000000e+00 0.0000000000000000e+00  0.0000000000000000e+00 0.0000000000000000e+00 0.0000000000000000e+00  0.0000000000000000e+00 0.0000000000000000e+00 0.0000000000000000e+00  0.0000000000000000e+00 0.0000000000000000e+00 0.0000000000000000e+00  0.0000000000000000e+00 0.0000000000000000e+00 0.0000000000000000e+00  0.0000000000000000e+00 0.0000000000000000e+00 0.0000000000000000e+00  0.0000000000000000e+00 0.0000000000000000e+00 0.0000000000000000e+00  0.0000000000000000e+00 0.0000000000000000e+00 0.0000000000000000e+00  0.0000000000000000e+00 0.0000000000000000e+00 0.0000000000000000e+00  0.0000000000000000e+00 0.0000000000000000e+00 0.0000000000000000e+00  0.0000000000000000e+00 0.0000000000000000e+00 0.0000000000000000e+00  0.0000000000000000e+00 0.0000000000000000e+00 0.0000000000000000e+00  0.0000000000000000e+00 0.0000000000000000e+00 0.0000000000000000e+00  0.0000000000000000e+00 0.0000000000000000e+00 0.0000000000000000e+00  0.0000000000000000e+00 0.0000000000000000e+00 0.0000000000000000e+00  0.0000000000000000e+00 0.0000000000000000e+00 0.0000000000000000e+00  0.0000000000000000e+00 0.0000000000000000e+00 0.0000000000000000e+00  0.0000000000000000e+00 0.0000000000000000e+00 0.0000000000000000e+00  -8.4126974312070647e-07 2.9456589682914732e-06 0.0000000000000000e+00  -1.7697675651787605e-06 4.1479870477952996e-06 0.0000000000000000e+00  -2.6345965443113840e-06 5.7138565056925855e-06 0.0000000000000000e+00  -3.5186404704727220e-06 7.7140899273306977e-06 0.0000000000000000e+00  -4.2402485448922886e-06 1.0029049815325816e-05 0.0000000000000000e+00  -4.9115797351404986e-06 1.2701770174282245e-05 0.0000000000000000e+00  -5.4257957974224582e-06 1.5561927621809981e-05 0.0000000000000000e+00  -5.8372094626999241e-06 1.8632916081436779e-05 0.0000000000000000e+00  -6.1962275511633966e-06 2.1828183513204089e-05 0.0000000000000000e+00  -6.4169449464441584e-06 2.5084631624548338e-05 0.0000000000000000e+00  -6.5644765472267068e-06 2.8415422553773748e-05 0.0000000000000000e+00  -6.6188513808111870e-06 3.1712135444118673e-05 0.0000000000000000e+00  -6.5763490064258688e-06 3.4993654899068354e-05 0.0000000000000000e+00  -6.4838061476838631e-06 3.8218661670086803e-05 0.0000000000000000e+00  -6.3144558283532362e-06 4.1341557740764688e-05 0.0000000000000000e+00  -6.0641958795869594e-06 4.4376037207889578e-05 0.0000000000000000e+00  -5.7859889399255690e-06 4.7263663199447201e-05 0.0000000000000000e+00  -5.4075771914262334e-06 5.0038057346602453e-05 0.0000000000000000e+00  -5.0339874881433772e-06 5.2632114629307369e-05 0.0000000000000000e+00  -4.5690096583057762e-06 5.5100191104050205e-05 0.0000000000000000e+00  -4.1092237588483962e-06 5.7375578603437974e-05 0.0000000000000000e+00  -3.5721778953947604e-06 5.9492501889595685e-05 0.0000000000000000e+00  -3.0609252412587264e-06 6.1470331668800367e-05 0.0000000000000000e+00  -2.5187368605513113e-06 6.3258209708682856e-05 0.0000000000000000e+00  -1.9285400753713202e-06 6.4921423639316861e-05 0.0000000000000000e+00  -1.3476196130198768e-06 6.6409128058187610e-05 0.0000000000000000e+00  -7.4084313711297085e-07 6.7769281421265070e-05 0.0000000000000000e+00  -1.3891622205118753e-07 6.8985555050930650e-05 0.0000000000000000e+00  4.8211375714471922e-07 7.0083557225667070e-05 0.0000000000000000e+00  1.0950600362530682e-06 7.1061728406793368e-05 0.0000000000000000e+00  1.7220819884501829e-06 7.1938706020897319e-05 0.0000000000000000e+00  2.3413432741231327e-06 7.2717108435486422e-05 0.0000000000000000e+00  2.9699605839162616e-06 7.3414481388465994e-05 0.0000000000000000e+00  3.5933264306594172e-06 7.4032925454848970e-05 0.0000000000000000e+00  4.2248412524249657e-06 7.4591261677437427e-05 0.0000000000000000e+00  4.8518005196147703e-06 7.5091051096545347e-05 0.0000000000000000e+00  5.4852150606470811e-06 7.5547891046255118e-05 0.0000000000000000e+00  6.1175236597633883e-06 7.5963185723175341e-05 0.0000000000000000e+00  6.7572885642830209e-06 7.6351627604656424e-05 0.0000000000000000e+00  7.4001320345741516e-06 7.6712216986736772e-05 0.0000000000000000e+00  8.0536964404314518e-06 7.7054998844222324e-05 0.0000000000000000e+00  8.7087172403303115e-06 7.7385643307338435e-05 0.0000000000000000e+00  9.3765777326521911e-06 7.7706046648276582e-05 0.0000000000000000e+00  1.0050735210762420e-05 7.8021422392296206e-05 0.0000000000000000e+00  1.0736888085814976e-05 7.8328584290954161e-05 0.0000000000000000e+00  1.1426614390891722e-05 7.8645584301542727e-05 0.0000000000000000e+00  1.2397851068797977e-05 7.8452435903666028e-05 0.0000000000000000e+00  1.2843671529290241e-05 7.7316512357676728e-05 0.0000000000000000e+00  1.2324617823245084e-05 7.6453554718775940e-05 0.0000000000000000e+00  1.1635871586566737e-05 7.6101855425355153e-05 0.0000000000000000e+00  1.0955873627931298e-05 7.5742093056558506e-05 0.0000000000000000e+00  1.0297454664867338e-05 7.5384778760740311e-05 0.0000000000000000e+00  9.6497464249336420e-06 7.5023841574051417e-05 0.0000000000000000e+00  9.0257160318206098e-06 7.4652825526653075e-05 0.0000000000000000e+00  8.4221392403639644e-06 7.4272972067980508e-05 0.0000000000000000e+00  7.8351418127266910e-06 7.3869739076983933e-05 0.0000000000000000e+00  7.2789873490696158e-06 7.3451054025499811e-05 0.0000000000000000e+00  6.7340850178979140e-06 7.2991494970291350e-05 0.0000000000000000e+00  6.2269139626008658e-06 7.2504059430488873e-05 0.0000000000000000e+00  5.7282514585619875e-06 7.1959143645379737e-05 0.0000000000000000e+00  5.2751647231124868e-06 7.1369717768548550e-05 0.0000000000000000e+00  4.8260866706984240e-06 7.0703426937022658e-05 0.0000000000000000e+00  4.4304716454963576e-06 6.9973440664538295e-05 0.0000000000000000e+00  4.0340088103217508e-06 6.9145061706423123e-05 0.0000000000000000e+00  3.6993435543885473e-06 6.8232759155493561e-05 0.0000000000000000e+00  3.3588200858042640e-06 6.7199512400803596e-05 0.0000000000000000e+00  3.0883310644554337e-06 6.6063176344182184e-05 0.0000000000000000e+00  2.8063979550943263e-06 6.4785115639801009e-05 0.0000000000000000e+00  2.6023232364550512e-06 6.3384233221447852e-05 0.0000000000000000e+00  2.3819890368802140e-06 6.1821634533915771e-05 0.0000000000000000e+00  2.2429036469703017e-06 6.0112956289292236e-05 0.0000000000000000e+00  2.0899885891018823e-06 5.8253959951528972e-05 0.0000000000000000e+00  1.9698220024306135e-06 5.6207739424969739e-05 0.0000000000000000e+00  1.9081317413132750e-06 5.4027991044931141e-05 0.0000000000000000e+00  1.8512373368684126e-06 5.1653577364891480e-05 0.0000000000000000e+00  1.8388360841671640e-06 4.9136087981973037e-05 0.0000000000000000e+00  1.8342398217976042e-06 4.6435350053806632e-05 0.0000000000000000e+00  1.8655225744400128e-06 4.3599938402676061e-05 0.0000000000000000e+00  1.9037522716869808e-06 4.0607018794979366e-05 0.0000000000000000e+00  1.9796783336789434e-06 3.7487499193210635e-05 0.0000000000000000e+00  2.0362038057049057e-06 3.4269329405907743e-05 0.0000000000000000e+00  2.1058948303272187e-06 3.0956280496126258e-05 0.0000000000000000e+00  2.1851631229150867e-06 2.7588287387269555e-05 0.0000000000000000e+00  2.2574597600401287e-06 2.4183290355417917e-05 0.0000000000000000e+00  2.3200581372680763e-06 2.0786999204363592e-05 0.0000000000000000e+00  2.3711477225936047e-06 1.7425308796378753e-05 0.0000000000000000e+00  2.3738773470574690e-06 1.4164323064151809e-05 0.0000000000000000e+00  2.3754474674476392e-06 1.1016531828872370e-05 0.0000000000000000e+00  2.3479879558344315e-06 8.0906813765516765e-06 0.0000000000000000e+00  2.2131818695678187e-06 5.3562479362788592e-06 0.0000000000000000e+00  2.0672546093773194e-06 2.9437044723682641e-06 0.0000000000000000e+00  1.7538367990637786e-06 9.0029589930474015e-07 0.0000000000000000e+00  1.3895859431932562e-06 -5.9461075135308328e-07 0.0000000000000000e+00  7.3049674971765438e-07 -1.4628575397411354e-06 0.0000000000000000e+00  2.9067066436951873e-07 8.8761541845620655e-07 0.0000000000000000e+00  1.1552435913797384e-05 7.7395939371413501e-05 0.0000000000000000e+00  1.0221850097984252e-05 7.6770123882722194e-05 0.0000000000000000e+00  8.1993634931296869e-06 7.5688042432612543e-05 0.0000000000000000e+00  -5.4595111242055795e-07 3.9909016348943177e-06 0.0000000000000000e+00  7.0018199252963952e-06 7.4931440281460708e-05 0.0000000000000000e+00  -1.0661890336926438e-06 8.5641397148783721e-06 0.0000000000000000e+00  5.8287351630126635e-06 7.4067722413511289e-05 0.0000000000000000e+00  -1.7445042954832713e-06 1.8025928692234704e-05 0.0000000000000000e+00  -2.0658008223823151e-06 2.4593735134715918e-05 0.0000000000000000e+00  4.7101724563487339e-06 7.3036263933122804e-05 0.0000000000000000e+00  -2.0419979388751841e-06 4.1145016953625325e-05 0.0000000000000000e+00  2.6450563999876809e-06 7.0172879791837817e-05 0.0000000000000000e+00  -2.1390207881358999e-06 3.1045699087937101e-05 0.0000000000000000e+00  -1.8424215990729942e-06 4.6942107340042310e-05 0.0000000000000000e+00  1.7072213399526947e-06 6.8176792388699312e-05 0.0000000000000000e+00  3.6478198470692400e-06 7.1764705438359962e-05 0.0000000000000000e+00  -1.4509162361597044e-06 5.2251746632350494e-05 0.0000000000000000e+00  8.4173548721988817e-07 6.5693926160356655e-05 0.0000000000000000e+00  -9.1997789646003212e-07 5.6710141633359687e-05 0.0000000000000000e+00  4.3913551117870376e-08 6.2737609255783742e-05 0.0000000000000000e+00  -4.8395282072259820e-07 5.9779368242630228e-05 0.0000000000000000e+00  -2.1887419214785493e-06 3.5999175558328636e-05 0.0000000000000000e+00  9.2462529709793075e-06 7.6237923394353109e-05 0.0000000000000000e+00  -1.4638303056871457e-06 1.2943841303156345e-05 0.0000000000000000e+00  1.1031754540283847e-05 7.6688208334780412e-05 0.0000000000000000e+00  4.9560468594294801e-07 1.3172022858085347e-06 0.0000000000000000e+00  6.5851556052721414e-06 7.4144609395928129e-05 0.0000000000000000e+00  7.7624577847262316e-06 7.4959528069699200e-05 0.0000000000000000e+00  -1.8979810881959762e-06 7.0855880558737085e-06 0.0000000000000000e+00  -3.2011709298178030e-06 2.1866183816153153e-05 0.0000000000000000e+00  3.4605313447282141e-06 7.0603149452274139e-05 0.0000000000000000e+00  5.4735332288211290e-06 7.3192906195513282e-05 0.0000000000000000e+00  -3.1199486393396855e-06 4.4589075486669300e-05 0.0000000000000000e+00  2.5677992643805157e-06 6.8804994620913598e-05 0.0000000000000000e+00  -3.4279670609243649e-06 2.8586445203864148e-05 0.0000000000000000e+00  -2.6890033378882069e-06 5.0179616376979115e-05 0.0000000000000000e+00  1.7591715258724541e-06 6.6560295101810799e-05 0.0000000000000000e+00  4.4307787587210328e-06 7.2038096848814264e-05 0.0000000000000000e+00  -2.3179080241061486e-06 5.5224101664349382e-05 0.0000000000000000e+00  1.0388559963068796e-06 6.3788412332535120e-05 0.0000000000000000e+00  2.7210493066668894e-07 7.7371213395642891e-07 0.0000000000000000e+00  5.1403362974157384e-07 -2.5449070105554149e-07 0.0000000000000000e+00  1.2011780879633950e-05 7.7912158757577121e-05 0.0000000000000000e+00  -9.3347097462839553e-07 3.2193003582833440e-06 0.0000000000000000e+00  6.4722335206541617e-07 6.0712729161477526e-05 0.0000000000000000e+00  -6.6333059407447302e-07 3.7