<?xml version="1.0"?>
<VTKFile type="UnstructuredGrid"  version="0.1"  >
<UnstructuredGrid>
<Piece  NumberOfPoints="1419" NumberOfCells="2698">
<Points>
<DataArray  type="Float64"  NumberOfComponents="3"  format="ascii">0 0 0  0 0.41 0  2.5 0 0  2.5 0.41 0  0.6 0.19 0  0.6 0.21 0  0.25 0.2 0  0.15 0.2 0  0.2489897948556636 0.21 0  0.2489897948556636 0.19 0  0.6 0.2 0  0 0.3807142857143437 0  0 0.3514285714286952 0  0 0.3221428571430699 0  0 0.29285714285744 0  0 0.2635714285718054 0  0 0.2342857142861561 0  0 0.2050000000005308 0  0 0.175714285714732 0  0 0.1464285714289574 0  0 0.1171428571431897 0  0 0.08785714285737878 0  0 0.05857142857161107 0  0 0.02928571428580012 0  0.03015443760436003 0 0  0.06140001986583606 0 0  0.09377624077125973 0 0  0.1273239957535082 0 0  0.1620856860351972 0 0  0.1981052433264291 0 0  0.235428184091502 0 0  0.2741016576309132 0 0  0.3141745521465447 0 0  0.3556974926295285 0 0  0.3987229542472677 0 0  0.4433053055141081 0 0  0.4895008759286886 0 0  0.5373680609405097 0 0  0.5869673343216626 0 0  0.6383613676634521 0 0  0.6916151138468254 0 0  0.7467958595648856 0 0  0.8039733463919316 0 0  0.8632198139502143 0 0  0.9246101326867038 0 0  0.9882218810934433 0 0  1.054135445558498 0 0  1.122434100542598 0 0  1.193204177141305 0 0  1.266535089879536 0 0  1.342519516046404 0 0  1.421253448503939 0 0  1.502836389106271 0 0  1.587371439758838 0 0  1.674965418777374 0 0  1.765729001825544 0 0  1.859776908880082 0 0  1.957227977487062 0 0  2.058205329869943 0 0  2.162836591189951 0 0  2.271253957290865 0 0  2.383594446803425 0 0  2.5 0.1024999999997612 0  2.5 0.2049999999994743 0  2.5 0.3074999999997183 0  2.383594446803656 0.41 0  2.271253957291315 0.41 0  2.162836591190598 0.41 0  2.058205329870775 0.41 0  1.957227977488067 0.41 0  1.859776908881246 0.41 0  1.765729001826854 0.41 0  1.674965418778818 0.41 0  1.58737143976041 0.41 0  1.502836389107956 0.41 0  1.421253448505726 0.41 0  1.342519516048286 0.41 0  1.266535089881505 0.41 0  1.193204177143353 0.41 0  1.122434100544716 0.41 0  1.05413544556068 0.41 0  0.9882218810956305 0.41 0  0.9246101326886647 0.41 0  0.8632198139519631 0.41 0  0.8039733463934788 0.41 0  0.7467958595662458 0.41 0  0.6916151138480078 0.41 0  0.6383613676644679 0.41 0  0.5869673343225223 0.41 0  0.5373680609412221 0.41 0  0.4895008759292634 0.41 0  0.4433053055145528 0.41 0  0.3987229542475914 0.41 0  0.3556974926297398 0.41 0  0.3141745521466497 0.41 0  0.2741016576310038 0.41 0  0.2354281840915826 0.41 0  0.1981052433265003 0.41 0  0.1620856860352591 0.41 0  0.1273239957535623 0.41 0  0.09377624077128965 0.41 0  0.06140001986584975 0.41 0  0.03015443760436654 0.41 0  0.2497468076502589 0.2050254481002335 0  0.2497468076502614 0.1949745518997913 0  0.2469965252529372 0.1829317073451959 0  0.2439893735792749 0.1762316384219906 0  0.2400332147834255 0.1700443375285386 0  0.2352133972704371 0.1645032867342007 0  0.2296339016332438 0.1597280261969788 0  0.2234150974217223 0.1558215752574715 0  0.2166911463437691 0.1528682099456123 0  0.2096071079204251 0.1509316448471593 0  0.2023158100364996 0.1500536585536553 0  0.194974551899914 0.1502531923497262 0  0.1877417105387872 0.1515259415822739 0  0.1807733240461124 0.153844448527136 0  0.1742197252835808 0.15715869474974 0  0.1682222986673531 0.1613971801805478 0  0.162910430003803 0.1664684656256651 0  0.1583987151779087 0.1722631454351573 0  0.1547844879126891 0.178656207771761 0  0.1521457199348551 0.1855097315605723 0  0.1505393388476355 0.1926758619366523 0  0.1505393388476328 0.2073241380633295 0  0.1521457199348437 0.2144902684393899 0  0.1547844879126531 0.221343792228163 0  0.1583987151778488 0.2277368545647528 0  0.1629104300036858 0.2335315343742052 0  0.1682222986671726 0.2386028198193036 0  0.1742197252833576 0.2428413052501257 0  0.1807733240458683 0.2461555514727623 0  0.1877417105384929 0.2484740584176516 0  0.1949745518995776 0.2497468076502398 0  0.202315810036185 0.2499463414463592 0  0.2096071079201568 0.2490683551528932 0  0.2166911463435495 0.2471317900544655 0  0.2234150974215506 0.2441784247426195 0  0.2296339016331197 0.2402719738031125 0  0.2352133972703547 0.2354967132658811 0  0.2400332147833751 0.2299556624715287 0  0.2439893735792577 0.2237683615780412 0  0.246996525252926 0.2170682926548348 0  0.25645809709277 0.21 0  0.2639263993298655 0.21 0  0.271394701566961 0.21 0  0.2788630038040554 0.21 0  0.2863313060411479 0.21 0  0.2937996082782405 0.21 0  0.301267910515333 0.21 0  0.3087362127524279 0.21 0  0.3162045149895234 0.21 0  0.3236728172265972 0.21 0  0.3311411194636928 0.21 0  0.3386094217007701 0.21 0  0.3460777239378666 0.21 0  0.3535460261749672 0.21 0  0.3610143284120516 0.21 0  0.3684826306491596 0.21 0  0.3759509328862226 0.21 0  0.383419235123329 0.21 0  0.3908875373604028 0.21 0  0.3983558395975142 0.21 0  0.4058241418345938 0.21 0  0.4132924440716992 0.21 0  0.4207607463087888 0.21 0  0.4282290485459029 0.21 0  0.4356973507830418 0.21 0  0.4431656530201649 0.21 0  0.4506339552573136 0.21 0  0.4581022574944306 0.21 0  0.4655705597315852 0.21 0  0.4730388619686996 0.21 0  0.480507164205851 0.21 0  0.4879754664429498 0.21 0  0.4954437686800938 0.21 0  0.502912070917267 0.21 0  0.5103803731544119 0.21 0  0.5178486753915261 0.21 0  0.5253169776286404 0.21 0  0.5327852798657868 0.21 0  0.5402535821029386 0.21 0  0.54772188434007 0.21 0  0.5551901865771842 0.21 0  0.5626584888143201 0.21 0  0.5701267910514778 0.21 0  0.5775950932886138 0.21 0  0.5850633955257281 0.21 0  0.5925316977628483 0.21 0  0.6 0.2050000000000054 0  0.6 0.1950000000000217 0  0.5925316977628897 0.19 0  0.5850633955257988 0.19 0  0.5775950932887378 0.19 0  0.5701267910515998 0.19 0  0.5626584888145268 0.19 0  0.5551901865773963 0.19 0  0.547721884340339 0.19 0  0.5402535821032429 0.19 0  0.5327852798661811 0.19 0  0.5253169776290537 0.19 0  0.5178486753919799 0.19 0  0.5103803731549078 0.19 0  0.502912070917822 0.19 0  0.4954437686807294 0.19 0  0.4879754664436223 0.19 0  0.4805071642065402 0.19 0  0.4730388619694271 0.19 0  0.4655705597323621 0.19 0  0.4581022574952563 0.19 0  0.4506339552581777 0.19 0  0.4431656530210671 0.19 0  0.4356973507839815 0.19 0  0.4282290485468779 0.19 0  0.4207607463097617 0.19 0  0.4132924440726327 0.19 0  0.4058241418354857 0.19 0  0.3983558395983636 0.19 0  0.3908875373612097 0.19 0  0.3834192351240934 0.19 0  0.3759509328869369 0.19 0  0.3684826306498175 0.19 0  0.361014328412667 0.19 0  0.3535460261755617 0.19 0  0.3460777239384295 0.19 0  0.3386094217012945 0.19 0  0.3311411194641595 0.19 0  0.3236728172270245 0.19 0  0.3162045149898895 0.19 0  0.3087362127527544 0.19 0  0.3012679105156187 0.19 0  0.2937996082784807 0.19 0  0.2863313060413428 0.19 0  0.2788630038042048 0.19 0  0.2713947015670686 0.19 0  0.2639263993299336 0.19 0  0.2564580970927985 0.19 0  0.2607803159922026 0.2000727136295815 0  0.5887803774232762 0.2001272386983733 0  0.5745072403740523 0.2002044435018727 0  0.5511891430099709 0.2001122610077113 0  0.2751288526855082 0.20000000000002 0  0.5365194309847112 0.1999999999999436 0  0.2894621222999649 0.1998691686390484 0  0.5215828265105155 0.1999999999999228 0  0.3127789816668748 0.1998657885438805 0  0.3274069683451451 0.2000000000000796 0  0.5066462220363641 0.199999999999908 0  0.3650630746574081 0.199866017807523 0  0.476773013087985 0.1999999999998713 0  0.3417402379596385 0.1998691686391011 0  0.3796850840047755 0.200000000000134 0  0.4618364086138087 0.1999999999998546 0  0.4917096175621762 0.1999999999998808 0  0.3946216884789568 0.2000000000001512 0  0.446899804139621 0.1999999999998389 0  0.4089549580935208 0.1998691686391595 0  0.4322718174608562 0.200127451265745 0  0.4201487168029707 0.1999966199048527 0  0.3528922713220932 0.2000185703532356 0  0.5633122436674589 0.1999814296467508 0  0.3006558810093873 0.1999966199048318 0  0.5815926498168407 0.1966545283159175 0  0.2677053789419034 0.1964246479135325 0  0.5290511287476175 0.1970915826863981 0  0.5439877332217911 0.197091582686394 0  0.2825131256993216 0.2035478995978015 0  0.3199386661080599 0.202908417313604 0  0.4842413153250809 0.1970915826863873 0  0.5141145242734466 0.1970915826863843 0  0.3722167817676917 0.2029084173136195 0  0.4693047108508938 0.1970915826863783 0  0.3348752705822316 0.202908417313609 0  0.3871533862418661 0.2029084173136212 0  0.4543681063767183 0.1970915826863795 0  0.4991779197992749 0.1970915826863902 0  0.4020059614928624 0.203547899597858 0  0.4394315019025246 0.1970915826863714 0  0.2550657455369551 0.2034088125358657 0  0.2548908499171161 0.1966940311614271 0  0.5946539510196798 0.2024302972968126 0  0.267698176732111 0.2039977513680092 0  0.4261685417851465 0.196409292431739 0  0.3590076176283495 0.196411355804271 0  0.5571672426447437 0.2036011176410121 0  0.3066757059912147 0.1964092924317024 0  0.594380730180568 0.1966558399668133 0  0.4842413153245942 0.2040749161535287 0  0.4693047108503577 0.2040749161535231 0  0.3871533862424271 0.1959250838464788 0  0.372246743208829 0.1959123236376545 0  0.5141145242731028 0.2040749161535395 0  0.4543681063761134 0.2040749161535186 0  0.4019979587101454 0.1959834479682427 0  0.4394608940728603 0.2040870543693135 0  0.5439623148931173 0.2040856076781014 0  0.5290511287473298 0.2040749161535501 0  0.4991779197988497 0.2040749161535382 0  0.3347912413592433 0.1959225448935183 0  0.3199680582793816 0.1959123018030061 0  0.2825051229162361 0.1959834479681729 0  0.3590471196690275 0.2036304442587945 0  0.5571594006495384 0.1963685282145804 0  0.3067669986803285 0.203627750582736 0  0.4262598344738712 0.2036568242185335 0  0.5814408164431408 0.2041285596160068 0  0.5688286748170428 0.1961819304477386 0  0.4145905603063645 0.2038180695522843 0  0.3473758401724931 0.2038180695522752 0  0.2950977245128307 0.2038180695522663 0  0.5688286748170693 0.203818069552238 0  0.2950977245127906 0.1961819304477774 0  0.3473758401723931 0.1961819304478349 0  0.4145905603061963 0.1961819304479011 0  0.2601812407614425 0.2056861609747042
[...]
<PointData  Vectors="f_40-0"> 
<DataArray  type="Float64"  Name="f_40-0"  NumberOfComponents="3" format="ascii">0.0000000000000000e+00 0.0000000000000000e+00 0.0000000000000000e+00  0.0000000000000000e+00 0.0000000000000000e+00 0.0000000000000000e+00  0.0000000000000000e+00 0.0000000000000000e+00 0.0000000000000000e+00  0.0000000000000000e+00 0.0000000000000000e+00 0.0000000000000000e+00  4.4071395079750965e-04 -4.0115969865843373e-04 0.0000000000000000e+00  -4.6518474591772598e-06 -1.6636402994214879e-04 0.0000000000000000e+00  0.0000000000000000e+00 0.0000000000000000e+00 0.0000000000000000e+00  0.0000000000000000e+00 0.0000000000000000e+00 0.0000000000000000e+00  0.0000000000000000e+00 0.0000000000000000e+00 0.0000000000000000e+00  0.0000000000000000e+00 0.0000000000000000e+00 0.0000000000000000e+00  -1.2250078641640667e-03 -3.2493342194841627e-04 0.0000000000000000e+00  2.7946092350542777e-03 0.0000000000000000e+00 0.0000000000000000e+00  5.1592785877928550e-03 0.0000000000000000e+00 0.0000000000000000e+00  7.0940080582151763e-03 0.0000000000000000e+00 0.0000000000000000e+00  8.5987976463234826e-03 0.0000000000000000e+00 0.0000000000000000e+00  9.6736473521175786e-03 0.0000000000000000e+00 0.0000000000000000e+00  1.0318557175597399e-02 0.0000000000000000e+00 0.0000000000000000e+00  1.0533527116762300e-02 0.0000000000000000e+00 0.0000000000000000e+00  1.0318557175610437e-02 0.0000000000000000e+00 0.0000000000000000e+00  9.6736473521399739e-03 0.0000000000000000e+00 0.0000000000000000e+00  8.5987976463512174e-03 0.0000000000000000e+00 0.0000000000000000e+00  7.0940080582415251e-03 0.0000000000000000e+00 0.0000000000000000e+00  5.1592785878153387e-03 0.0000000000000000e+00 0.0000000000000000e+00  2.7946092350669464e-03 0.0000000000000000e+00 0.0000000000000000e+00  0.0000000000000000e+00 0.0000000000000000e+00 0.0000000000000000e+00  0.0000000000000000e+00 0.0000000000000000e+00 0.0000000000000000e+00  0.0000000000000000e+00 0.0000000000000000e+00 0.0000000000000000e+00  0.0000000000000000e+00 0.0000000000000000e+00 0.0000000000000000e+00  0.0000000000000000e+00 0.0000000000000000e+00 0.0000000000000000e+00  0.0000000000000000e+00 0.0000000000000000e+00 0.0000000000000000e+00  0.0000000000000000e+00 0.0000000000000000e+00 0.0000000000000000e+00  0.0000000000000000e+00 0.0000000000000000e+00 0.0000000000000000e+00  0.0000000000000000e+00 0.0000000000000000e+00 0.0000000000000000e+00  0.0000000000000000e+00 0.0000000000000000e+00 0.0000000000000000e+00  0.0000000000000000e+00 0.0000000000000000e+00 0.0000000000000000e+00  0.0000000000000000e+00 0.0000000000000000e+00 0.0000000000000000e+00  0.0000000000000000e+00 0.0000000000000000e+00 0.0000000000000000e+00  0.0000000000000000e+00 0.0000000000000000e+00 0.0000000000000000e+00  0.0000000000000000e+00 0.0000000000000000e+00 0.0000000000000000e+00  0.0000000000000000e+00 0.0000000000000000e+00 0.0000000000000000e+00  0.0000000000000000e+00 0.0000000000000000e+00 0.0000000000000000e+00  0.0000000000000000e+00 0.0000000000000000e+00 0.0000000000000000e+00  0.0000000000000000e+00 0.0000000000000000e+00 0.0000000000000000e+00  0.0000000000000000e+00 0.0000000000000000e+00 0.0000000000000000e+00  0.0000000000000000e+00 0.0000000000000000e+00 0.0000000000000000e+00  0.0000000000000000e+00 0.0000000000000000e+00 0.0000000000000000e+00  0.0000000000000000e+00 0.0000000000000000e+00 0.0000000000000000e+00  0.0000000000000000e+00 0.0000000000000000e+00 0.0000000000000000e+00  0.0000000000000000e+00 0.0000000000000000e+00 0.0000000000000000e+00  0.0000000000000000e+00 0.0000000000000000e+00 0.0000000000000000e+00  0.0000000000000000e+00 0.0000000000000000e+00 0.0000000000000000e+00  0.0000000000000000e+00 0.0000000000000000e+00 0.0000000000000000e+00  0.0000000000000000e+00 0.0000000000000000e+00 0.0000000000000000e+00  0.0000000000000000e+00 0.0000000000000000e+00 0.0000000000000000e+00  0.0000000000000000e+00 0.0000000000000000e+00 0.0000000000000000e+00  0.0000000000000000e+00 0.0000000000000000e+00 0.0000000000000000e+00  0.0000000000000000e+00 0.0000000000000000e+00 0.0000000000000000e+00  0.0000000000000000e+00 0.0000000000000000e+00 0.0000000000000000e+00  0.0000000000000000e+00 0.0000000000000000e+00 0.0000000000000000e+00  0.0000000000000000e+00 0.0000000000000000e+00 0.0000000000000000e+00  0.0000000000000000e+00 0.0000000000000000e+00 0.0000000000000000e+00  0.0000000000000000e+00 0.0000000000000000e+00 0.0000000000000000e+00  1.2223900833410013e-03 1.6940735218123257e-05 0.0000000000000000e+00  1.2678495834473611e-03 7.8655877164554304e-07 0.0000000000000000e+00  1.2168434976264036e-03 -1.4089900731121444e-05 0.0000000000000000e+00  0.0000000000000000e+00 0.0000000000000000e+00 0.0000000000000000e+00  0.0000000000000000e+00 0.0000000000000000e+00 0.0000000000000000e+00  0.0000000000000000e+00 0.0000000000000000e+00 0.0000000000000000e+00  0.0000000000000000e+00 0.0000000000000000e+00 0.0000000000000000e+00  0.0000000000000000e+00 0.0000000000000000e+00 0.0000000000000000e+00  0.0000000000000000e+00 0.0000000000000000e+00 0.0000000000000000e+00  0.0000000000000000e+00 0.0000000000000000e+00 0.0000000000000000e+00  0.0000000000000000e+00 0.0000000000000000e+00 0.0000000000000000e+00  0.0000000000000000e+00 0.0000000000000000e+00 0.0000000000000000e+00  0.0000000000000000e+00 0.0000000000000000e+00 0.0000000000000000e+00  0.0000000000000000e+00 0.0000000000000000e+00 0.0000000000000000e+00  0.0000000000000000e+00 0.0000000000000000e+00 0.0000000000000000e+00  0.0000000000000000e+00 0.0000000000000000e+00 0.0000000000000000e+00  0.0000000000000000e+00 0.0000000000000000e+00 0.0000000000000000e+00  0.0000000000000000e+00 0.0000000000000000e+00 0.0000000000000000e+00  0.0000000000000000e+00 0.0000000000000000e+00 0.0000000000000000e+00  0.0000000000000000e+00 0.0000000000000000e+00 0.0000000000000000e+00  0.0000000000000000e+00 0.0000000000000000e+00 0.0000000000000000e+00  0.0000000000000000e+00 0.0000000000000000e+00 0.0000000000000000e+00  0.0000000000000000e+00 0.0000000000000000e+00 0.0000000000000000e+00  0.0000000000000000e+00 0.0000000000000000e+00 0.0000000000000000e+00  0.0000000000000000e+00 0.0000000000000000e+00 0.0000000000000000e+00  0.0000000000000000e+00 0.0000000000000000e+00 0.0000000000000000e+00  0.0000000000000000e+00 0.0000000000000000e+00 0.0000000000000000e+00  0.0000000000000000e+00 0.0000000000000000e+00 0.0000000000000000e+00  0.0000000000000000e+00 0.0000000000000000e+00 0.0000000000000000e+00  0.0000000000000000e+00 0.0000000000000000e+00 0.0000000000000000e+00  0.0000000000000000e+00 0.0000000000000000e+00 0.0000000000000000e+00  0.0000000000000000e+00 0.0000000000000000e+00 0.0000000000000000e+00  0.0000000000000000e+00 0.0000000000000000e+00 0.0000000000000000e+00  0.0000000000000000e+00 0.0000000000000000e+00 0.0000000000000000e+00  0.0000000000000000e+00 0.0000000000000000e+00 0.0000000000000000e+00  0.0000000000000000e+00 0.0000000000000000e+00 0.0000000000000000e+00  0.0000000000000000e+00 0.0000000000000000e+00 0.0000000000000000e+00  0.0000000000000000e+00 0.0000000000000000e+00 0.0000000000000000e+00  0.0000000000000000e+00 0.0000000000000000e+00 0.0000000000000000e+00  0.0000000000000000e+00 0.0000000000000000e+00 0.0000000000000000e+00  0.0000000000000000e+00 0.0000000000000000e+00 0.0000000000000000e+00  0.0000000000000000e+00 0.0000000000000000e+00 0.0000000000000000e+00  0.0000000000000000e+00 0.0000000000000000e+00 0.0000000000000000e+00  0.0000000000000000e+00 0.0000000000000000e+00 0.0000000000000000e+00  0.0000000000000000e+00 0.0000000000000000e+00 0.0000000000000000e+00  0.0000000000000000e+00 0.0000000000000000e+00 0.0000000000000000e+00  0.0000000000000000e+00 0.0000000000000000e+00 0.0000000000000000e+00  0.0000000000000000e+00 0.0000000000000000e+00 0.0000000000000000e+00  0.0000000000000000e+00 0.0000000000000000e+00 0.0000000000000000e+00  0.0000000000000000e+00 0.0000000000000000e+00 0.0000000000000000e+00  0.0000000000000000e+00 0.0000000000000000e+00 0.0000000000000000e+00  0.0000000000000000e+00 0.0000000000000000e+00 0.0000000000000000e+00  0.0000000000000000e+00 0.0000000000000000e+00 0.0000000000000000e+00  0.0000000000000000e+00 0.0000000000000000e+00 0.0000000000000000e+00  0.0000000000000000e+00 0.0000000000000000e+00 0.0000000000000000e+00  0.0000000000000000e+00 0.0000000000000000e+00 0.0000000000000000e+00  0.0000000000000000e+00 0.0000000000000000e+00 0.0000000000000000e+00  0.0000000000000000e+00 0.0000000000000000e+00 0.0000000000000000e+00  0.0000000000000000e+00 0.0000000000000000e+00 0.0000000000000000e+00  0.0000000000000000e+00 0.0000000000000000e+00 0.0000000000000000e+00  0.0000000000000000e+00 0.0000000000000000e+00 0.0000000000000000e+00  0.0000000000000000e+00 0.0000000000000000e+00 0.0000000000000000e+00  0.0000000000000000e+00 0.0000000000000000e+00 0.0000000000000000e+00  0.0000000000000000e+00 0.0000000000000000e+00 0.0000000000000000e+00  0.0000000000000000e+00 0.0000000000000000e+00 0.0000000000000000e+00  0.0000000000000000e+00 0.0000000000000000e+00 0.0000000000000000e+00  0.0000000000000000e+00 0.0000000000000000e+00 0.0000000000000000e+00  0.0000000000000000e+00 0.0000000000000000e+00 0.0000000000000000e+00  0.0000000000000000e+00 0.0000000000000000e+00 0.0000000000000000e+00  0.0000000000000000e+00 0.0000000000000000e+00 0.0000000000000000e+00  0.0000000000000000e+00 0.0000000000000000e+00 0.0000000000000000e+00  0.0000000000000000e+00 0.0000000000000000e+00 0.0000000000000000e+00  0.0000000000000000e+00 0.0000000000000000e+00 0.0000000000000000e+00  0.0000000000000000e+00 0.0000000000000000e+00 0.0000000000000000e+00  0.0000000000000000e+00 0.0000000000000000e+00 0.0000000000000000e+00  0.0000000000000000e+00 0.0000000000000000e+00 0.0000000000000000e+00  0.0000000000000000e+00 0.0000000000000000e+00 0.0000000000000000e+00  0.0000000000000000e+00 0.0000000000000000e+00 0.0000000000000000e+00  0.0000000000000000e+00 0.0000000000000000e+00 0.0000000000000000e+00  0.0000000000000000e+00 0.0000000000000000e+00 0.0000000000000000e+00  0.0000000000000000e+00 0.0000000000000000e+00 0.0000000000000000e+00  1.7568228441501490e-04 -2.4207426417615169e-02 0.0000000000000000e+00  1.3227993675239368e-03 -2.7125462020841210e-02 0.0000000000000000e+00  1.3918806567976023e-03 -2.3309604591512025e-02 0.0000000000000000e+00  -6.6399441671761885e-04 -2.0525007104508056e-02 0.0000000000000000e+00  -1.4177908876996097e-03 -1.6668682622749908e-02 0.0000000000000000e+00  -2.7558474859961726e-03 -1.4339983295541094e-02 0.0000000000000000e+00  -1.4469496327199961e-03 -8.1681955113766542e-03 0.0000000000000000e+00  -4.2374970347142920e-03 -2.5924589560717129e-03 0.0000000000000000e+00  -5.5882357090068146e-03 -1.9853603835282667e-03 0.0000000000000000e+00  -5.2001306893005072e-03 -7.6146135743992364e-04 0.0000000000000000e+00  -5.3330002506269377e-03 -8.2280783224527036e-04 0.0000000000000000e+00  -4.6791833691437667e-03 -5.8550519436203520e-04 0.0000000000000000e+00  -4.5326970821592365e-03 -9.3196455577690407e-04 0.0000000000000000e+00  -3.0717555650706749e-03 -8.3766441290570183e-04 0.0000000000000000e+00  -3.7406651775177971e-03 -5.6997056572857243e-04 0.0000000000000000e+00  -2.8241011007593304e-03 -8.3451482199711779e-04 0.0000000000000000e+00  -2.9608282924969806e-03 -6.9959855699917674e-05 0.0000000000000000e+00  -2.1500005754548275e-03 -3.8268148896465669e-04 0.0000000000000000e+00  -2.5036808821302502e-03 3.4324521758182652e-04 0.0000000000000000e+00  -1.4106802668873999e-03 2.9910446855745962e-05 0.0000000000000000e+00  -1.5816929042946097e-03 5.9610192303757186e-04 0.0000000000000000e+00  1.2108701096196768e-04 -3.6480331010634033e-05 0.0000000000000000e+00  1.3270809953323766e-03 5.6047888446612653e-05 0.0000000000000000e+00  1.8688786170004172e-03 -1.0298347013862978e-04 0.0000000000000000e+00  3.7186390945989751e-03 4.6643237224538574e-04 0.0000000000000000e+00  2.7821220621619706e-03 -1.5380519327011765e-04 0.0000000000000000e+00  4.4019384365342699e-03 1.1579363158964989e-04 0.0000000000000000e+00  3.1817221266940052e-03 -3.2805086443581620e-04 0.0000000000000000e+00  4.4777788015143739e-03 -6.4039058345296816e-05 0.0000000000000000e+00  3.2805250861231922e-03 -3.2750279537090376e-04 0.0000000000000000e+00  4.2392847977193778e-03 -8.5097093478136515e-05 0.0000000000000000e+00  3.1892362447208094e-03 -2.5771770095263955e-04 0.0000000000000000e+00  3.8376772807555228e-03 4.4732022310177202e-05 0.0000000000000000e+00  2.9803551202908733e-03 -2.5513069648482598e-04 0.0000000000000000e+00  3.4905173633230820e-03 7.5308883072747987e-05 0.0000000000000000e+00  2.6564566350708104e-03 -7.5370252636930586e-05 0.0000000000000000e+00  2.9582026406367100e-03 2.2937971785426010e-04 0.0000000000000000e+00  2.2976908991461974e-03 6.8259975556243167e-05 0.0000000000000000e+00  2.3551631478633387e-03 2.6842258994796313e-04 0.0000000000000000e+00  1.8899349273618690e-03 1.5088783428533187e-04 0.0000000000000000e+00  1.7183815726485570e-03 3.4213068250026556e-04 0.0000000000000000e+00  7.0203774637306250e-04 2.7686007123905292e-05 0.0000000000000000e+00  8.8553535867482065e-04 -7.1197451491624797e-04 0.0000000000000000e+00  8.1511044727614534e-04 -4.8943665702301357e-04 0.0000000000000000e+00  6.5888602862388757e-04 -2.4742391791948568e-04 0.0000000000000000e+00  6.2437339334559428e-04 9.5462339855143798e-05 0.0000000000000000e+00  -1.0517756216174665e-03 -3.9061450966523147e-04 0.0000000000000000e+00  -1.2607073184634529e-03 -3.7853714893246632e-04 0.0000000000000000e+00  1.7442656161434018e-03 2.3599378107578791e-04 0.0000000000000000e+00  1.6610095120896361e-03 6.7311941883678895e-04 0.0000000000000000e+00  1.4959762983333541e-03 9.1862417466508680e-04 0.0000000000000000e+00  1.1805832033982330e-03 1.1101165467803098e-03 0.0000000000000000e+00  7.0587617375477861e-04 8.5470182657783464e-04 0.0000000000000000e+00  3.2655235443654904e-04 5.6135584521491570e-05 0.0000000000000000e+00  3.6352430596483127e-04 8.3128284407129176e-05 0.0000000000000000e+00  -1.5511319641233753e-04 6.3826436135022488e-05 0.0000000000000000e+00  -1.8566218625690019e-04 7.1124709830908684e-05 0.0000000000000000e+00  -7.9249187956570964e-04 1.7804805337788156e-04 0.0000000000000000e+00  -7.1346741178152865e-04 2.2717054102261349e-04 0.0000000000000000e+00  -1.4490990279623960e-03 3.4841257393639536e-04 0.0000000000000000e+00  -1.1656000053475535e-03 3.6338913995550513e-04 0.0000000000000000e+00  -1.9719071289427911e-03 4.2540768304177287e-04 0.0000000000000000e+00  -1.4960502728049686e-03 4.1091055618366874e-04 0.0000000000000000e+00  -2.3165675045103860e-03 4.4607001309146548e-04 0.0000000000000000e+00  -1.6724283290673995e-03 4.8421717702024070e-04 0.0000000000000000e+00  -2.5433370185596414e-03 5.3763841196882288e-04 0.0000000000000000e+00  -1.6426896192048596e-03 6.2086603503946328e-04 0.0000000000000000e+00  -2.4986374128820005e-03 5.4229325247675273e-04 0.0000000000000000e+00  -1.4352027556392196e-03 6.3248047781891284e-04 0.0000000000000000e+00  -2.1076544158852789e-03 1.3421709644616971e-04 0.0000000000000000e+00  -4.0142906911748769e-04 -3.6380094445482506e-04 0.0000000000000000e+00  -9.0152391600739900e-05 -4.2777446805971258e-04 0.0000000000000000e+00  7.1668932997418389e-04 -5.9389004365881649e-04 0.0000000000000000e+00  2.5957199519291070e-03 2.7738912187070326e-04 0.0000000000000000e+00  2.0405310777285622e-03 1.7315580342535457e-04 0.0000000000000000e+00  3.0436398018970395e-03 6.2094173862984269e-04 0.0000000000000000e+00  2.2628899171154809e-03 4.2013474642221073e-04 0.0000000000000000e+00  3.0325579174549579e-03 8.5526971082135943e-04 0.0000000000000000e+00  2.4630114463273498e-03 8.3717287646608196e-04 0.0000000000000000e+00  2.7790155111965609e-03 1.2086029472691093e-03 0.0000000000000000e+00  1.5779523674787426e-03 9.4472045015659561e-04 0.0000000000000000e+00  2.3980224631039203e-03 6.5413491487906683e-04 0.0000000000000000e+00  1.8684736879548190e-03 8.1099561329447663e-04 0.0000000000000000e+00  1.6033552514311371e-03 6.8839315851674469e-04 0.0000000000000000e+00  8.6796397121606831e-04 9.4958264414081689e-04 0.0000000000000000e+00  6.3820702389187503e-04 1.8567936545103982e-03 0.0000000000000000e+00  3.4983231480292560e-04 3.1113539880840819e-03 0.0000000000000000e+00  1.4436917378565900e-03 8.7827602854017740e-03 0.0000000000000000e+00  -5.0360190203341867e-04 1.4565750216426252e-02 0.0000000000000000e+00  -1.3901511688146860e-03 1.6343550318387350e-02 0.0000000000000000e+00  -3.4271968490891708e-04 2.0287795530675796e-02 0.0000000000000000e+00  1.8758070742346217e-04 2.2656208337736201e-02 0.0000000000000000e+00  7.8256411861123219e-04 2.6718851177113694e-02 0.0000000000000000e+00  -2.1311700019397009e-03 2.4554976042551323e-02 0.0000000000000000e+00  2.5553566754264880e-02 4.8723336188324982e-04 0.0000000000000000e+00  -2.3071951802830534e-04 3.7111095314235709e-05 0.0000000000000000e+00  -2.8159195741851422e-03 6.7939066800026576e-04 0.0000000000000000e+00  -3.5303586002421524e-03 1.5099365224231658e-03 0.0000000000000000e+00  1.5569412324523052e-02 5.5449111618609075e-04 0.0000000000000000e+00  -1.3279649311121221e-03 1.6592331456750165e-03 0.0000000000000000e+00  2.0863185081022945e-02 9.9281320731187681e-04 0.0000000000000000e+00  -1.2279552198955796e-03 1.8533757045433809e-03 0.0000000000000000e+00  1.5000682581681619e-02 7.0767041860800078e-04 0.0000000000000000e+00  2.1899304197055178e-03 3.1896076892775477e-04 0.0000000000000000e+00  -1.2294755193835711e-03 1.8965050863279285e-03 0.0000000000000000e+00  1.5334074887169455e-03 -5.1567685745004669e-04 0.0000000000000000e+00  -1.1301479328933307e-03 1.5767341561416491e-03 0.0000000000000000e+00  1.1951232776880496e-03 -4.0391713807003766e-04 0.0000000000000000e+00  4.7360298198529738e-04 -8.6705576603477940e-05 0.0000000000000000e+00  -1.0567776521222872e-03 1.2229430638070692e-03 0.0000000000000000e+00  -1.2084234861111096e-03 1.8059811656789123e-03 0.0000000000000000e+00  -2.4753173326464388e-04 -1.0233140536464633e-04 0.0000000000000000e+00  -1.1212546321710802e-03 7.6973759775101887e-04 0.0000000000000000e+00  -1.7950020892282298e-03 -1.1252033142711256e-03 0.0000000000000000e+00  -2.7196987560063634e-03 -4.8511044680251217e-04 0.0000000000000000e+00  1.1720943598383856e-04 3.6343546449279832e-03 0.0000000000000000e+00  5.6721724127131306e-05 1.2725582159901277e-03 0.0000000000000000e+00  3.4676375749660530e-04 8.7586762766558629e-04 0.0000000000000000e+00  -3.5452442950610554e-03 -2.9184089368356576e-04 0.0000000000000000e+00  -1.2217176196624813e-03 4.9315257615119800e-04 0.0000000000000000e+00  4.0194512917214755e-04 1.7967448897304591e-03 0.0000000000000000e+00  -2.7796262866678381e-04 2.0642478557793011e-03 0.0000000000000000e+00  -7.1662875876929725e-04 1.3759958306145189e-03 0.0000000000000000e+00  4.1432059922660797e-03 -3.6457752763540941e-03 0.0000000000000000e+00  4.2349928448398143e-03 1.4717833634373819e-03 0.0000000000000000e+00  1.5891275131656353e-04 3.1163555637757552e-03 0.0000000000000000e+00  -8.1644985346216126e-05 2.5202691272621547e-03 0.0000000000000000e+00  3.8153450138361550e-04 1.3623264609412043e-03 0.0000000000000000e+00  2.1942545484191200e-04 3.2522660463324450e-03 0.0000000000000000e+00  2.1406244587808456e-03 4.3982147016732740e-04 0.0000000000000000e+00  6.4482021300949388e-04 1.9851173642510388e-03 0.0000000000000000e+00  1.9606139002419570e-04 3.2970967288496983e-03 0.0000000000000000e+00  6.5381144730755351e-05 2.8720038870674531e-03 0.0000000000000000e+00  7.3300646730518958e-04 2.1537075728022157e-03 0.0000000000000000e+00  5.5015168735838681e-04 3.0538121243888776e-03 0.0000000000000000e+00  -2.0632623758785069e-02 4.6008602109668733e-03 0.0000000000000000e+00  -1.8977218574293447e-02 -6.3985287903998650e-03 0.0000000000000000e+00  -1.4661448562614917e-04 -3.0813280191626210e-04 0.0000000000000000e+00  1.6519741532187986e-03 -2.0083915291423554e-03 0.0000000000000000e+00  -4.3687344677378085e-03 1.0755287