<?xml version="1.0"?>
<VTKFile type="UnstructuredGrid"  version="0.1"  >
<UnstructuredGrid>
<Piece  NumberOfPoints="1419" NumberOfCells="2698">
<Points>
<DataArray  type="Float64"  NumberOfComponents="3"  format="ascii">0 0 0  0 0.41 0  2.5 0 0  2.5 0.41 0  0.6 0.19 0  0.6 0.21 0  0.25 0.2 0  0.15 0.2 0  0.2489897948556636 0.21 0  0.2489897948556636 0.19 0  0.6 0.2 0  0 0.3807142857143437 0  0 0.3514285714286952 0  0 0.3221428571430699 0  0 0.29285714285744 0  0 0.2635714285718054 0  0 0.2342857142861561 0  0 0.2050000000005308 0  0 0.175714285714732 0  0 0.1464285714289574 0  0 0.1171428571431897 0  0 0.08785714285737878 0  0 0.05857142857161107 0  0 0.02928571428580012 0  0.03015443760436003 0 0  0.06140001986583606 0 0  0.09377624077125973 0 0  0.1273239957535082 0 0  0.1620856860351972 0 0  0.1981052433264291 0 0  0.235428184091502 0 0  0.2741016576309132 0 0  0.3141745521465447 0 0  0.3556974926295285 0 0  0.3987229542472677 0 0  0.4433053055141081 0 0  0.4895008759286886 0 0  0.5373680609405097 0 0  0.5869673343216626 0 0  0.6383613676634521 0 0  0.6916151138468254 0 0  0.7467958595648856 0 0  0.8039733463919316 0 0  0.8632198139502143 0 0  0.9246101326867038 0 0  0.9882218810934433 0 0  1.054135445558498 0 0  1.122434100542598 0 0  1.193204177141305 0 0  1.266535089879536 0 0  1.342519516046404 0 0  1.421253448503939 0 0  1.502836389106271 0 0  1.587371439758838 0 0  1.674965418777374 0 0  1.765729001825544 0 0  1.859776908880082 0 0  1.957227977487062 0 0  2.058205329869943 0 0  2.162836591189951 0 0  2.271253957290865 0 0  2.383594446803425 0 0  2.5 0.1024999999997612 0  2.5 0.2049999999994743 0  2.5 0.3074999999997183 0  2.383594446803656 0.41 0  2.271253957291315 0.41 0  2.162836591190598 0.41 0  2.058205329870775 0.41 0  1.957227977488067 0.41 0  1.859776908881246 0.41 0  1.765729001826854 0.41 0  1.674965418778818 0.41 0  1.58737143976041 0.41 0  1.502836389107956 0.41 0  1.421253448505726 0.41 0  1.342519516048286 0.41 0  1.266535089881505 0.41 0  1.193204177143353 0.41 0  1.122434100544716 0.41 0  1.05413544556068 0.41 0  0.9882218810956305 0.41 0  0.9246101326886647 0.41 0  0.8632198139519631 0.41 0  0.8039733463934788 0.41 0  0.7467958595662458 0.41 0  0.6916151138480078 0.41 0  0.6383613676644679 0.41 0  0.5869673343225223 0.41 0  0.5373680609412221 0.41 0  0.4895008759292634 0.41 0  0.4433053055145528 0.41 0  0.3987229542475914 0.41 0  0.3556974926297398 0.41 0  0.3141745521466497 0.41 0  0.2741016576310038 0.41 0  0.2354281840915826 0.41 0  0.1981052433265003 0.41 0  0.1620856860352591 0.41 0  0.1273239957535623 0.41 0  0.09377624077128965 0.41 0  0.06140001986584975 0.41 0  0.03015443760436654 0.41 0  0.2497468076502589 0.2050254481002335 0  0.2497468076502614 0.1949745518997913 0  0.2469965252529372 0.1829317073451959 0  0.2439893735792749 0.1762316384219906 0  0.2400332147834255 0.1700443375285386 0  0.2352133972704371 0.1645032867342007 0  0.2296339016332438 0.1597280261969788 0  0.2234150974217223 0.1558215752574715 0  0.2166911463437691 0.1528682099456123 0  0.2096071079204251 0.1509316448471593 0  0.2023158100364996 0.1500536585536553 0  0.194974551899914 0.1502531923497262 0  0.1877417105387872 0.1515259415822739 0  0.1807733240461124 0.153844448527136 0  0.1742197252835808 0.15715869474974 0  0.1682222986673531 0.1613971801805478 0  0.162910430003803 0.1664684656256651 0  0.1583987151779087 0.1722631454351573 0  0.1547844879126891 0.178656207771761 0  0.1521457199348551 0.1855097315605723 0  0.1505393388476355 0.1926758619366523 0  0.1505393388476328 0.2073241380633295 0  0.1521457199348437 0.2144902684393899 0  0.1547844879126531 0.221343792228163 0  0.1583987151778488 0.2277368545647528 0  0.1629104300036858 0.2335315343742052 0  0.1682222986671726 0.2386028198193036 0  0.1742197252833576 0.2428413052501257 0  0.1807733240458683 0.2461555514727623 0  0.1877417105384929 0.2484740584176516 0  0.1949745518995776 0.2497468076502398 0  0.202315810036185 0.2499463414463592 0  0.2096071079201568 0.2490683551528932 0  0.2166911463435495 0.2471317900544655 0  0.2234150974215506 0.2441784247426195 0  0.2296339016331197 0.2402719738031125 0  0.2352133972703547 0.2354967132658811 0  0.2400332147833751 0.2299556624715287 0  0.2439893735792577 0.2237683615780412 0  0.246996525252926 0.2170682926548348 0  0.25645809709277 0.21 0  0.2639263993298655 0.21 0  0.271394701566961 0.21 0  0.2788630038040554 0.21 0  0.2863313060411479 0.21 0  0.2937996082782405 0.21 0  0.301267910515333 0.21 0  0.3087362127524279 0.21 0  0.3162045149895234 0.21 0  0.3236728172265972 0.21 0  0.3311411194636928 0.21 0  0.3386094217007701 0.21 0  0.3460777239378666 0.21 0  0.3535460261749672 0.21 0  0.3610143284120516 0.21 0  0.3684826306491596 0.21 0  0.3759509328862226 0.21 0  0.383419235123329 0.21 0  0.3908875373604028 0.21 0  0.3983558395975142 0.21 0  0.4058241418345938 0.21 0  0.4132924440716992 0.21 0  0.4207607463087888 0.21 0  0.4282290485459029 0.21 0  0.4356973507830418 0.21 0  0.4431656530201649 0.21 0  0.4506339552573136 0.21 0  0.4581022574944306 0.21 0  0.4655705597315852 0.21 0  0.4730388619686996 0.21 0  0.480507164205851 0.21 0  0.4879754664429498 0.21 0  0.4954437686800938 0.21 0  0.502912070917267 0.21 0  0.5103803731544119 0.21 0  0.5178486753915261 0.21 0  0.5253169776286404 0.21 0  0.5327852798657868 0.21 0  0.5402535821029386 0.21 0  0.54772188434007 0.21 0  0.5551901865771842 0.21 0  0.5626584888143201 0.21 0  0.5701267910514778 0.21 0  0.5775950932886138 0.21 0  0.5850633955257281 0.21 0  0.5925316977628483 0.21 0  0.6 0.2050000000000054 0  0.6 0.1950000000000217 0  0.5925316977628897 0.19 0  0.5850633955257988 0.19 0  0.5775950932887378 0.19 0  0.5701267910515998 0.19 0  0.5626584888145268 0.19 0  0.5551901865773963 0.19 0  0.547721884340339 0.19 0  0.5402535821032429 0.19 0  0.5327852798661811 0.19 0  0.5253169776290537 0.19 0  0.5178486753919799 0.19 0  0.5103803731549078 0.19 0  0.502912070917822 0.19 0  0.4954437686807294 0.19 0  0.4879754664436223 0.19 0  0.4805071642065402 0.19 0  0.4730388619694271 0.19 0  0.4655705597323621 0.19 0  0.4581022574952563 0.19 0  0.4506339552581777 0.19 0  0.4431656530210671 0.19 0  0.4356973507839815 0.19 0  0.4282290485468779 0.19 0  0.4207607463097617 0.19 0  0.4132924440726327 0.19 0  0.4058241418354857 0.19 0  0.3983558395983636 0.19 0  0.3908875373612097 0.19 0  0.3834192351240934 0.19 0  0.3759509328869369 0.19 0  0.3684826306498175 0.19 0  0.361014328412667 0.19 0  0.3535460261755617 0.19 0  0.3460777239384295 0.19 0  0.3386094217012945 0.19 0  0.3311411194641595 0.19 0  0.3236728172270245 0.19 0  0.3162045149898895 0.19 0  0.3087362127527544 0.19 0  0.3012679105156187 0.19 0  0.2937996082784807 0.19 0  0.2863313060413428 0.19 0  0.2788630038042048 0.19 0  0.2713947015670686 0.19 0  0.2639263993299336 0.19 0  0.2564580970927985 0.19 0  0.2607803159922026 0.2000727136295815 0  0.5887803774232762 0.2001272386983733 0  0.5745072403740523 0.2002044435018727 0  0.5511891430099709 0.2001122610077113 0  0.2751288526855082 0.20000000000002 0  0.5365194309847112 0.1999999999999436 0  0.2894621222999649 0.1998691686390484 0  0.5215828265105155 0.1999999999999228 0  0.3127789816668748 0.1998657885438805 0  0.3274069683451451 0.2000000000000796 0  0.5066462220363641 0.199999999999908 0  0.3650630746574081 0.199866017807523 0  0.476773013087985 0.1999999999998713 0  0.3417402379596385 0.1998691686391011 0  0.3796850840047755 0.200000000000134 0  0.4618364086138087 0.1999999999998546 0  0.4917096175621762 0.1999999999998808 0  0.3946216884789568 0.2000000000001512 0  0.446899804139621 0.1999999999998389 0  0.4089549580935208 0.1998691686391595 0  0.4322718174608562 0.200127451265745 0  0.4201487168029707 0.1999966199048527 0  0.3528922713220932 0.2000185703532356 0  0.5633122436674589 0.1999814296467508 0  0.3006558810093873 0.1999966199048318 0  0.5815926498168407 0.1966545283159175 0  0.2677053789419034 0.1964246479135325 0  0.5290511287476175 0.1970915826863981 0  0.5439877332217911 0.197091582686394 0  0.2825131256993216 0.2035478995978015 0  0.3199386661080599 0.202908417313604 0  0.4842413153250809 0.1970915826863873 0  0.5141145242734466 0.1970915826863843 0  0.3722167817676917 0.2029084173136195 0  0.4693047108508938 0.1970915826863783 0  0.3348752705822316 0.202908417313609 0  0.3871533862418661 0.2029084173136212 0  0.4543681063767183 0.1970915826863795 0  0.4991779197992749 0.1970915826863902 0  0.4020059614928624 0.203547899597858 0  0.4394315019025246 0.1970915826863714 0  0.2550657455369551 0.2034088125358657 0  0.2548908499171161 0.1966940311614271 0  0.5946539510196798 0.2024302972968126 0  0.267698176732111 0.2039977513680092 0  0.4261685417851465 0.196409292431739 0  0.3590076176283495 0.196411355804271 0  0.5571672426447437 0.2036011176410121 0  0.3066757059912147 0.1964092924317024 0  0.594380730180568 0.1966558399668133 0  0.4842413153245942 0.2040749161535287 0  0.4693047108503577 0.2040749161535231 0  0.3871533862424271 0.1959250838464788 0  0.372246743208829 0.1959123236376545 0  0.5141145242731028 0.2040749161535395 0  0.4543681063761134 0.2040749161535186 0  0.4019979587101454 0.1959834479682427 0  0.4394608940728603 0.2040870543693135 0  0.5439623148931173 0.2040856076781014 0  0.5290511287473298 0.2040749161535501 0  0.4991779197988497 0.2040749161535382 0  0.3347912413592433 0.1959225448935183 0  0.3199680582793816 0.1959123018030061 0  0.2825051229162361 0.1959834479681729 0  0.3590471196690275 0.2036304442587945 0  0.5571594006495384 0.1963685282145804 0  0.3067669986803285 0.203627750582736 0  0.4262598344738712 0.2036568242185335 0  0.5814408164431408 0.2041285596160068 0  0.5688286748170428 0.1961819304477386 0  0.4145905603063645 0.2038180695522843 0  0.3473758401724931 0.2038180695522752 0  0.2950977245128307 0.2038180695522663 0  0.5688286748170693 0.203818069552238 0  0.2950977245127906 0.1961819304477774 0  0.3473758401723931 0.1961819304478349 0  0.4145905603061963 0.1961819304479011 0  0.2601812407614425 0.2056861609747042
[...]
<PointData  Vectors="f_40-0"> 
<DataArray  type="Float64"  Name="f_40-0"  NumberOfComponents="3" format="ascii">0.0000000000000000e+00 0.0000000000000000e+00 0.0000000000000000e+00  0.0000000000000000e+00 0.0000000000000000e+00 0.0000000000000000e+00  0.0000000000000000e+00 0.0000000000000000e+00 0.0000000000000000e+00  0.0000000000000000e+00 0.0000000000000000e+00 0.0000000000000000e+00  2.3749871797497730e-05 8.1595966958207576e-04 0.0000000000000000e+00  -3.5321118409207674e-05 8.1601782182752350e-04 0.0000000000000000e+00  0.0000000000000000e+00 0.0000000000000000e+00 0.0000000000000000e+00  0.0000000000000000e+00 0.0000000000000000e+00 0.0000000000000000e+00  0.0000000000000000e+00 0.0000000000000000e+00 0.0000000000000000e+00  0.0000000000000000e+00 0.0000000000000000e+00 0.0000000000000000e+00  -5.7751450926273707e-06 8.1598669940649159e-04 0.0000000000000000e+00  7.9591836734548407e-02 0.0000000000000000e+00 0.0000000000000000e+00  1.4693877550994527e-01 0.0000000000000000e+00 0.0000000000000000e+00  2.0204081632617479e-01 0.0000000000000000e+00 0.0000000000000000e+00  2.4489795918330076e-01 0.0000000000000000e+00 0.0000000000000000e+00  2.7551020408131754e-01 0.0000000000000000e+00 0.0000000000000000e+00  2.9387755102022350e-01 0.0000000000000000e+00 0.0000000000000000e+00  3.0000000000000004e-01 0.0000000000000000e+00 0.0000000000000000e+00  2.9387755102059482e-01 0.0000000000000000e+00 0.0000000000000000e+00  2.7551020408195548e-01 0.0000000000000000e+00 0.0000000000000000e+00  2.4489795918409071e-01 0.0000000000000000e+00 0.0000000000000000e+00  2.0204081632692525e-01 0.0000000000000000e+00 0.0000000000000000e+00  1.4693877551058568e-01 0.0000000000000000e+00 0.0000000000000000e+00  7.9591836734909230e-02 0.0000000000000000e+00 0.0000000000000000e+00  0.0000000000000000e+00 0.0000000000000000e+00 0.0000000000000000e+00  0.0000000000000000e+00 0.0000000000000000e+00 0.0000000000000000e+00  0.0000000000000000e+00 0.0000000000000000e+00 0.0000000000000000e+00  0.0000000000000000e+00 0.0000000000000000e+00 0.0000000000000000e+00  0.0000000000000000e+00 0.0000000000000000e+00 0.0000000000000000e+00  0.0000000000000000e+00 0.0000000000000000e+00 0.0000000000000000e+00  0.0000000000000000e+00 0.0000000000000000e+00 0.0000000000000000e+00  0.0000000000000000e+00 0.0000000000000000e+00 0.0000000000000000e+00  0.0000000000000000e+00 0.0000000000000000e+00 0.0000000000000000e+00  0.0000000000000000e+00 0.0000000000000000e+00 0.0000000000000000e+00  0.0000000000000000e+00 0.0000000000000000e+00 0.0000000000000000e+00  0.0000000000000000e+00 0.0000000000000000e+00 0.0000000000000000e+00  0.0000000000000000e+00 0.0000000000000000e+00 0.0000000000000000e+00  0.0000000000000000e+00 0.0000000000000000e+00 0.0000000000000000e+00  0.0000000000000000e+00 0.0000000000000000e+00 0.0000000000000000e+00  0.0000000000000000e+00 0.0000000000000000e+00 0.0000000000000000e+00  0.0000000000000000e+00 0.0000000000000000e+00 0.0000000000000000e+00  0.0000000000000000e+00 0.0000000000000000e+00 0.0000000000000000e+00  0.0000000000000000e+00 0.0000000000000000e+00 0.0000000000000000e+00  0.0000000000000000e+00 0.0000000000000000e+00 0.0000000000000000e+00  0.0000000000000000e+00 0.0000000000000000e+00 0.0000000000000000e+00  0.0000000000000000e+00 0.0000000000000000e+00 0.0000000000000000e+00  0.0000000000000000e+00 0.0000000000000000e+00 0.0000000000000000e+00  0.0000000000000000e+00 0.0000000000000000e+00 0.0000000000000000e+00  0.0000000000000000e+00 0.0000000000000000e+00 0.0000000000000000e+00  0.0000000000000000e+00 0.0000000000000000e+00 0.0000000000000000e+00  0.0000000000000000e+00 0.0000000000000000e+00 0.0000000000000000e+00  0.0000000000000000e+00 0.0000000000000000e+00 0.0000000000000000e+00  0.0000000000000000e+00 0.0000000000000000e+00 0.0000000000000000e+00  0.0000000000000000e+00 0.0000000000000000e+00 0.0000000000000000e+00  0.0000000000000000e+00 0.0000000000000000e+00 0.0000000000000000e+00  0.0000000000000000e+00 0.0000000000000000e+00 0.0000000000000000e+00  0.0000000000000000e+00 0.0000000000000000e+00 0.0000000000000000e+00  0.0000000000000000e+00 0.0000000000000000e+00 0.0000000000000000e+00  0.0000000000000000e+00 0.0000000000000000e+00 0.0000000000000000e+00  0.0000000000000000e+00 0.0000000000000000e+00 0.0000000000000000e+00  0.0000000000000000e+00 0.0000000000000000e+00 0.0000000000000000e+00  0.0000000000000000e+00 0.0000000000000000e+00 0.0000000000000000e+00  2.5436497865865876e-01 -9.0683843384923857e-03 0.0000000000000000e+00  2.7369077293971544e-01 2.2938810095326743e-03 0.0000000000000000e+00  2.5492351837831689e-01 1.0296233818428596e-02 0.0000000000000000e+00  0.0000000000000000e+00 0.0000000000000000e+00 0.0000000000000000e+00  0.0000000000000000e+00 0.0000000000000000e+00 0.0000000000000000e+00  0.0000000000000000e+00 0.0000000000000000e+00 0.0000000000000000e+00  0.0000000000000000e+00 0.0000000000000000e+00 0.0000000000000000e+00  0.0000000000000000e+00 0.0000000000000000e+00 0.0000000000000000e+00  0.0000000000000000e+00 0.0000000000000000e+00 0.0000000000000000e+00  0.0000000000000000e+00 0.0000000000000000e+00 0.0000000000000000e+00  0.0000000000000000e+00 0.0000000000000000e+00 0.0000000000000000e+00  0.0000000000000000e+00 0.0000000000000000e+00 0.0000000000000000e+00  0.0000000000000000e+00 0.0000000000000000e+00 0.0000000000000000e+00  0.0000000000000000e+00 0.0000000000000000e+00 0.0000000000000000e+00  0.0000000000000000e+00 0.0000000000000000e+00 0.0000000000000000e+00  0.0000000000000000e+00 0.0000000000000000e+00 0.0000000000000000e+00  0.0000000000000000e+00 0.0000000000000000e+00 0.0000000000000000e+00  0.0000000000000000e+00 0.0000000000000000e+00 0.0000000000000000e+00  0.0000000000000000e+00 0.0000000000000000e+00 0.0000000000000000e+00  0.0000000000000000e+00 0.0000000000000000e+00 0.0000000000000000e+00  0.0000000000000000e+00 0.0000000000000000e+00 0.0000000000000000e+00  0.0000000000000000e+00 0.0000000000000000e+00 0.0000000000000000e+00  0.0000000000000000e+00 0.0000000000000000e+00 0.0000000000000000e+00  0.0000000000000000e+00 0.0000000000000000e+00 0.0000000000000000e+00  0.0000000000000000e+00 0.0000000000000000e+00 0.0000000000000000e+00  0.0000000000000000e+00 0.0000000000000000e+00 0.0000000000000000e+00  0.0000000000000000e+00 0.0000000000000000e+00 0.0000000000000000e+00  0.0000000000000000e+00 0.0000000000000000e+00 0.0000000000000000e+00  0.0000000000000000e+00 0.0000000000000000e+00 0.0000000000000000e+00  0.0000000000000000e+00 0.0000000000000000e+00 0.0000000000000000e+00  0.0000000000000000e+00 0.0000000000000000e+00 0.0000000000000000e+00  0.0000000000000000e+00 0.0000000000000000e+00 0.0000000000000000e+00  0.0000000000000000e+00 0.0000000000000000e+00 0.0000000000000000e+00  0.0000000000000000e+00 0.0000000000000000e+00 0.0000000000000000e+00  0.0000000000000000e+00 0.0000000000000000e+00 0.0000000000000000e+00  0.0000000000000000e+00 0.0000000000000000e+00 0.0000000000000000e+00  0.0000000000000000e+00 0.0000000000000000e+00 0.0000000000000000e+00  0.0000000000000000e+00 0.0000000000000000e+00 0.0000000000000000e+00  0.0000000000000000e+00 0.0000000000000000e+00 0.0000000000000000e+00  0.0000000000000000e+00 0.0000000000000000e+00 0.0000000000000000e+00  0.0000000000000000e+00 0.0000000000000000e+00 0.0000000000000000e+00  0.0000000000000000e+00 0.0000000000000000e+00 0.0000000000000000e+00  0.0000000000000000e+00 0.0000000000000000e+00 0.0000000000000000e+00  0.0000000000000000e+00 0.0000000000000000e+00 0.0000000000000000e+00  0.0000000000000000e+00 0.0000000000000000e+00 0.0000000000000000e+00  0.0000000000000000e+00 0.0000000000000000e+00 0.0000000000000000e+00  0.0000000000000000e+00 0.0000000000000000e+00 0.0000000000000000e+00  0.0000000000000000e+00 0.0000000000000000e+00 0.0000000000000000e+00  0.0000000000000000e+00 0.0000000000000000e+00 0.0000000000000000e+00  0.0000000000000000e+00 0.0000000000000000e+00 0.0000000000000000e+00  0.0000000000000000e+00 0.0000000000000000e+00 0.0000000000000000e+00  0.0000000000000000e+00 0.0000000000000000e+00 0.0000000000000000e+00  0.0000000000000000e+00 0.0000000000000000e+00 0.0000000000000000e+00  0.0000000000000000e+00 0.0000000000000000e+00 0.0000000000000000e+00  0.0000000000000000e+00 0.0000000000000000e+00 0.0000000000000000e+00  0.0000000000000000e+00 0.0000000000000000e+00 0.0000000000000000e+00  0.0000000000000000e+00 0.0000000000000000e+00 0.0000000000000000e+00  0.0000000000000000e+00 0.0000000000000000e+00 0.0000000000000000e+00  0.0000000000000000e+00 0.0000000000000000e+00 0.0000000000000000e+00  0.0000000000000000e+00 0.0000000000000000e+00 0.0000000000000000e+00  0.0000000000000000e+00 0.0000000000000000e+00 0.0000000000000000e+00  0.0000000000000000e+00 0.0000000000000000e+00 0.0000000000000000e+00  0.0000000000000000e+00 0.0000000000000000e+00 0.0000000000000000e+00  0.0000000000000000e+00 0.0000000000000000e+00 0.0000000000000000e+00  0.0000000000000000e+00 0.0000000000000000e+00 0.0000000000000000e+00  0.0000000000000000e+00 0.0000000000000000e+00 0.0000000000000000e+00  0.0000000000000000e+00 0.0000000000000000e+00 0.0000000000000000e+00  0.0000000000000000e+00 0.0000000000000000e+00 0.0000000000000000e+00  0.0000000000000000e+00 0.0000000000000000e+00 0.0000000000000000e+00  0.0000000000000000e+00 0.0000000000000000e+00 0.0000000000000000e+00  0.0000000000000000e+00 0.0000000000000000e+00 0.0000000000000000e+00  0.0000000000000000e+00 0.0000000000000000e+00 0.0000000000000000e+00  0.0000000000000000e+00 0.0000000000000000e+00 0.0000000000000000e+00  0.0000000000000000e+00 0.0000000000000000e+00 0.0000000000000000e+00  0.0000000000000000e+00 0.0000000000000000e+00 0.0000000000000000e+00  0.0000000000000000e+00 0.0000000000000000e+00 0.0000000000000000e+00  0.0000000000000000e+00 0.0000000000000000e+00 0.0000000000000000e+00  0.0000000000000000e+00 0.0000000000000000e+00 0.0000000000000000e+00  0.0000000000000000e+00 0.0000000000000000e+00 0.0000000000000000e+00  0.0000000000000000e+00 0.0000000000000000e+00 0.0000000000000000e+00  0.0000000000000000e+00 0.0000000000000000e+00 0.0000000000000000e+00  -2.1238695315934472e-06 1.8049696080400335e-06 0.0000000000000000e+00  -4.4927263330454907e-06 4.2151668777764725e-06 0.0000000000000000e+00  -6.5723852643251089e-06 8.0970787210837514e-06 0.0000000000000000e+00  -8.7848222734466243e-06 1.3528080578801799e-05 0.0000000000000000e+00  -1.0626357590088069e-05 2.0224442436279113e-05 0.0000000000000000e+00  -1.2670868697479265e-05 2.8296278806974827e-05 0.0000000000000000e+00  -1.4315590682849674e-05 3.7365839669484847e-05 0.0000000000000000e+00  -1.5891481510975156e-05 4.7731978731939530e-05 0.0000000000000000e+00  -1.7658937548308634e-05 5.9062980024484665e-05 0.0000000000000000e+00  -1.9010602305054985e-05 7.1379947422341963e-05 0.0000000000000000e+00  -2.0607657118819073e-05 8.4655320115834104e-05 0.0000000000000000e+00  -2.1813806109772154e-05 9.8787522651840821e-05 0.0000000000000000e+00  -2.3189828348744057e-05 1.1373993644115176e-04 0.0000000000000000e+00  -2.4285001493606920e-05 1.2933986068501815e-04 0.0000000000000000e+00  -2.5324084540527333e-05 1.4572790633438554e-04 0.0000000000000000e+00  -2.6460263769864217e-05 1.6269650568146390e-04 0.0000000000000000e+00  -2.7327021997805593e-05 1.8024560036141918e-04 0.0000000000000000e+00  -2.8312699633390768e-05 1.9835728295016788e-04 0.0000000000000000e+00  -2.9052351497782709e-05 2.1694428150728154e-04 0.0000000000000000e+00  -2.9875829615688228e-05 2.3598154519477565e-04 0.0000000000000000e+00  -3.0525273229021456e-05 2.5542437620067849e-04 0.0000000000000000e+00  -3.1199648132039924e-05 2.7525615131790296e-04 0.0000000000000000e+00  -3.1735966013434365e-05 2.9535877813929178e-04 0.0000000000000000e+00  -3.2224922215480605e-05 3.1580076722985547e-04 0.0000000000000000e+00  -3.2728634470358293e-05 3.3646473820288491e-04 0.0000000000000000e+00  -3.3130253602620609e-05 3.5737089084020822e-04 0.0000000000000000e+00  -3.3505125896302706e-05 3.7848841312927044e-04 0.0000000000000000e+00  -3.3818184696562522e-05 3.9975744313539425e-04 0.0000000000000000e+00  -3.4103873451177558e-05 4.2119272894234060e-04 0.0000000000000000e+00  -3.4339486139617498e-05 4.4273515849214295e-04 0.0000000000000000e+00  -3.4549538589736026e-05 4.6439916382145970e-04 0.0000000000000000e+00  -3.4719409835597829e-05 4.8613443724168686e-04 0.0000000000000000e+00  -3.4867051174323815e-05 5.0795468248140551e-04 0.0000000000000000e+00  -3.4983036618879024e-05 5.2981894859684229e-04 0.0000000000000000e+00  -3.5080423642207628e-05 5.5173992382905621e-04 0.0000000000000000e+00  -3.5155004502584779e-05 5.7368618990166374e-04 0.0000000000000000e+00  -3.5214888288217727e-05 5.9566806275420444e-04 0.0000000000000000e+00  -3.5258660690191596e-05 6.1766261377342786e-04 0.0000000000000000e+00  -3.5291029699978620e-05 6.3967837563841563e-04 0.0000000000000000e+00  -3.5312843441513311e-05 6.6169952710030326e-04 0.0000000000000000e+00  -3.5326614411454670e-05 6.8373230802213096e-04 0.0000000000000000e+00  -3.5334004802765327e-05 7.0576806197596837e-04 0.0000000000000000e+00  -3.5336073716977924e-05 7.2780979276123431e-04 0.0000000000000000e+00  -3.5336082441449726e-05 7.4985473802701287e-04 0.0000000000000000e+00  -3.5331966180647218e-05 7.7190262548578175e-04 0.0000000000000000e+00  -3.5326055993570146e-05 7.9395547286350762e-04 0.0000000000000000e+00  -2.0543184928501386e-05 8.1600173349952859e-04 0.0000000000000000e+00  8.9892070022138149e-06 8.1597274525887597e-04 0.0000000000000000e+00  2.3739045102793788e-05 7.9390562007295427e-04 0.0000000000000000e+00  2.3725634851201405e-05 7.7185032627040385e-04 0.0000000000000000e+00  2.3713464699208091e-05 7.4979629544740293e-04 0.0000000000000000e+00  2.3702076777748534e-05 7.2774590334235027e-04 0.0000000000000000e+00  2.3692909848924354e-05 7.0569777994018202e-04 0.0000000000000000e+00  2.3685800809014622e-05 6.8365394253139147e-04 0.0000000000000000e+00  2.3677062258576408e-05 6.6161457210135288e-04 0.0000000000000000e+00  2.3673077700488413e-05 6.3958070945908626e-04 0.0000000000000000e+00  2.3663744314485677e-05 6.1755851734967334e-04 0.0000000000000000e+00  2.3659869692246084e-05 5.9554809028554271e-04 0.0000000000000000e+00  2.3644645204095059e-05 5.7355856814844816e-04 0.0000000000000000e+00  2.3637067179308721e-05 5.5159297921955272e-04 0.0000000000000000e+00  2.3609988194730221e-05 5.2966328392180738e-04 0.0000000000000000e+00  2.3593598538512389e-05 5.0777664855149271e-04 0.0000000000000000e+00  2.3545817375096310e-05 4.8594708586113269e-04 0.0000000000000000e+00  2.3513579669667688e-05 4.6418730010552644e-04 0.0000000000000000e+00  2.3435008376142717e-05 4.4251360216015682e-04 0.0000000000000000e+00  2.3379238170800852e-05 4.2094460379243594e-04 0.0000000000000000e+00  2.3258980435992595e-05 3.9949935051182062e-04 0.0000000000000000e+00  2.3170997868884870e-05 3.7820262615005027e-04 0.0000000000000000e+00  2.2994632435188956e-05 3.5707655236411263e-04 0.0000000000000000e+00  2.2862204766738971e-05 3.3615337484045545e-04 0.0000000000000000e+00  2.2622484218495217e-05 3.1546110290637977e-04 0.0000000000000000e+00  2.2419274358223379e-05 2.9500544804001973e-04 0.0000000000000000e+00  2.2188056940486544e-05 2.7489089624356560e-04 0.0000000000000000e+00  2.1843507886243553e-05 2.5503627846835373e-04 0.0000000000000000e+00  2.1516603640879580e-05 2.3559178440121594e-04 0.0000000000000000e+00  2.1095208487173699e-05 2.1652650462254157e-04 0.0000000000000000e+00  2.0673665521859133e-05 1.9793458806710514e-04 0.0000000000000000e+00  2.0150822526924486e-05 1.7981402351968193e-04 0.0000000000000000e+00  1.9626096342237470e-05 1.6223151483871589e-04 0.0000000000000000e+00  1.8919777146932358e-05 1.4529656561970103e-04 0.0000000000000000e+00  1.8309028990738409e-05 1.2889567544540611e-04 0.0000000000000000e+00  1.7644825702754606e-05 1.1330464313984434e-04 0.0000000000000000e+00  1.6746517856243220e-05 9.8300787392109322e-05 0.0000000000000000e+00  1.5887602669846088e-05 8.4201029887935323e-05 0.0000000000000000e+00  1.4862758953377140e-05 7.0920914881403700e-05 0.0000000000000000e+00  1.3851731858963697e-05 5.8568451522848379e-05 0.0000000000000000e+00  1.2552684165973510e-05 4.7302375820042345e-05 0.0000000000000000e+00  1.1422154383168814e-05 3.6924403117750180e-05 0.0000000000000000e+00  1.0221753427892558e-05 2.7862734945219078e-05 0.0000000000000000e+00  8.6489368663324147e-06 1.9758501702585502e-05 0.0000000000000000e+00  7.1920978423020432e-06 1.3046337037312249e-05 0.0000000000000000e+00  5.3959235112599440e-06 7.6903177816434620e-06 0.0000000000000000e+00  3.7712495116182347e-06 3.7963285067014464e-06 0.0000000000000000e+00  1.7839470502365269e-06 1.3957042846914278e-06 0.0000000000000000e+00  -2.6313651863495721e-07 1.7212676128526716e-06 0.0000000000000000e+00  -6.1691111473252139e-06 7.8285109522065720e-04 0.0000000000000000e+00  -6.4144214445699035e-06 7.4070709352682404e-04 0.0000000000000000e+00  -6.1454871693795862e-06 6.7188150193683870e-04 0.0000000000000000e+00  -6.7134461999255130e-07 9.4955428131566479e-06 0.0000000000000000e+00  -5.7963845631787190e-06 6.2860846837331898e-04 0.0000000000000000e+00  -9.6155239022944081e-07 2.2376460977974855e-05 0.0000000000000000e+00  -5.7579273287235453e-06 5.8459462786436935e-04 0.0000000000000000e+00  -1.5770510057155420e-06 5.2821833282123906e-05 0.0000000000000000e+00  -2.2150566361233953e-06 7.7097699974705501e-05 0.0000000000000000e+00  -5.6940778409394514e-06 5.4066986189718353e-04 0.0000000000000000e+00  -2.9991997375963453e-06 1.5421434690631014e-04 0.0000000000000000e+00  -5.4721848848017740e-06 4.5338074895884863e-04 0.0000000000000000e+00  -2.3812660118396219e-06 1.0419240440355846e-04 0.0000000000000000e+00  -3.6965064591181780e-06 1.8868684923500749e-04 0.0000000000000000e+00  -5.3069836518451808e-06 4.1023905347439013e-04 0.0000000000000000e+00  -5.6001291891663105e-06 4.9690022188273971e-04 0.0000000000000000e+00  -4.0715320467083172e-06 2.2592384424102851e-04 0.0000000000000000e+00  -5.1009549289182294e-06 3.6763771136614652e-04 0.0000000000000000e+00  -4.0556061074179718e-06 2.6326079663788172e-04 0.0000000000000000e+00  -5.2144620859416154e-06 3.2663186514317766e-04 0.0000000000000000e+00  -4.6215531941507627e-06 2.9337528597544408e-04 0.0000000000000000e+00  -2.9983189871458439e-06 1.2738615584277898e-04 0.0000000000000000e+00  -5.7602953028449508e-06 7.0765970608173434e-04 0.0000000000000000e+00  -1.4116196997696408e-06 3.5805737659586517e-05 0.0000000000000000e+00  4.0747751526419078e-06 7.6161756412811794e-04 0.0000000000000000e+00  1.3658064637778384e-06 4.8929360444896952e-06 0.0000000000000000e+00  2.7842230555935188e-06 6.0657932190088474e-04 0.0000000000000000e+00  2.7682775429554569e-06 6.5062241338532034e-04 0.0000000000000000e+00  -3.9766737436175613e-06 1.5762070716232358e-05 0.0000000000000000e+00  -6.7565647644297942e-06 6.4398613154634978e-05 0.0000000000000000e+00  2.9153730885212021e-06 4.7508094874504505e-04 0.0000000000000000e+00  2.8140046844252183e-06 5.6260101710777128e-04 0.0000000000000000e+00  -1.0305155656734556e-05 1.7092673191466837e-04 0.0000000000000000e+00  2.9831166196251871e-06 4.3173043736143479e-04 0.0000000000000000e+00  -7.8688853761966722e-06 9.0979190316093747e-05 0.0000000000000000e+00  -1.1087803296182657e-05 2.0717671466189734e-04 0.0000000000000000e+00  3.0582481610075139e-06 3.8883486200711332e-04 0.0000000000000000e+00  2.8581582504247112e-06 5.1874156108598017e-04 0.0000000000000000e+00  -1.3432815954235299e-05 2.4509688197853148e-04 0.0000000000000000e+00  3.1389991763131090e-06 3.4657462374760721e-04 0.0000000000000000e+00  -4.3649633238058356e-07 4.3001963271475533e-07 0.0000000000000000e+00  2.1289294112492372e-07 3.0090704774790351e-07 0.0000000000000000e+00  -1.2961186251497320e-05 8.0020338485185913e-04 0.0000000000000000e+00  -2.4860725832808532e-06 5.0669449809880536e-06 0.0000000000000000e+00  5.0735182022456628e-06 3.0975014424769345e-04 0.0000000000000000