<?xml version="1.0"?>
<VTKFile type="UnstructuredGrid"  version="0.1"  >
<UnstructuredGrid>
<Piece  NumberOfPoints="1419" NumberOfCells="2698">
<Points>
<DataArray  type="Float64"  NumberOfComponents="3"  format="ascii">0 0 0  0 0.41 0  2.5 0 0  2.5 0.41 0  0.6 0.19 0  0.6 0.21 0  0.25 0.2 0  0.15 0.2 0  0.2489897948556636 0.21 0  0.2489897948556636 0.19 0  0.6 0.2 0  0 0.3807142857143437 0  0 0.3514285714286952 0  0 0.3221428571430699 0  0 0.29285714285744 0  0 0.2635714285718054 0  0 0.2342857142861561 0  0 0.2050000000005308 0  0 0.175714285714732 0  0 0.1464285714289574 0  0 0.1171428571431897 0  0 0.08785714285737878 0  0 0.05857142857161107 0  0 0.02928571428580012 0  0.03015443760436003 0 0  0.06140001986583606 0 0  0.09377624077125973 0 0  0.1273239957535082 0 0  0.1620856860351972 0 0  0.1981052433264291 0 0  0.235428184091502 0 0  0.2741016576309132 0 0  0.3141745521465447 0 0  0.3556974926295285 0 0  0.3987229542472677 0 0  0.4433053055141081 0 0  0.4895008759286886 0 0  0.5373680609405097 0 0  0.5869673343216626 0 0  0.6383613676634521 0 0  0.6916151138468254 0 0  0.7467958595648856 0 0  0.8039733463919316 0 0  0.8632198139502143 0 0  0.9246101326867038 0 0  0.9882218810934433 0 0  1.054135445558498 0 0  1.122434100542598 0 0  1.193204177141305 0 0  1.266535089879536 0 0  1.342519516046404 0 0  1.421253448503939 0 0  1.502836389106271 0 0  1.587371439758838 0 0  1.674965418777374 0 0  1.765729001825544 0 0  1.859776908880082 0 0  1.957227977487062 0 0  2.058205329869943 0 0  2.162836591189951 0 0  2.271253957290865 0 0  2.383594446803425 0 0  2.5 0.1024999999997612 0  2.5 0.2049999999994743 0  2.5 0.3074999999997183 0  2.383594446803656 0.41 0  2.271253957291315 0.41 0  2.162836591190598 0.41 0  2.058205329870775 0.41 0  1.957227977488067 0.41 0  1.859776908881246 0.41 0  1.765729001826854 0.41 0  1.674965418778818 0.41 0  1.58737143976041 0.41 0  1.502836389107956 0.41 0  1.421253448505726 0.41 0  1.342519516048286 0.41 0  1.266535089881505 0.41 0  1.193204177143353 0.41 0  1.122434100544716 0.41 0  1.05413544556068 0.41 0  0.9882218810956305 0.41 0  0.9246101326886647 0.41 0  0.8632198139519631 0.41 0  0.8039733463934788 0.41 0  0.7467958595662458 0.41 0  0.6916151138480078 0.41 0  0.6383613676644679 0.41 0  0.5869673343225223 0.41 0  0.5373680609412221 0.41 0  0.4895008759292634 0.41 0  0.4433053055145528 0.41 0  0.3987229542475914 0.41 0  0.3556974926297398 0.41 0  0.3141745521466497 0.41 0  0.2741016576310038 0.41 0  0.2354281840915826 0.41 0  0.1981052433265003 0.41 0  0.1620856860352591 0.41 0  0.1273239957535623 0.41 0  0.09377624077128965 0.41 0  0.06140001986584975 0.41 0  0.03015443760436654 0.41 0  0.2497468076502589 0.2050254481002335 0  0.2497468076502614 0.1949745518997913 0  0.2469965252529372 0.1829317073451959 0  0.2439893735792749 0.1762316384219906 0  0.2400332147834255 0.1700443375285386 0  0.2352133972704371 0.1645032867342007 0  0.2296339016332438 0.1597280261969788 0  0.2234150974217223 0.1558215752574715 0  0.2166911463437691 0.1528682099456123 0  0.2096071079204251 0.1509316448471593 0  0.2023158100364996 0.1500536585536553 0  0.194974551899914 0.1502531923497262 0  0.1877417105387872 0.1515259415822739 0  0.1807733240461124 0.153844448527136 0  0.1742197252835808 0.15715869474974 0  0.1682222986673531 0.1613971801805478 0  0.162910430003803 0.1664684656256651 0  0.1583987151779087 0.1722631454351573 0  0.1547844879126891 0.178656207771761 0  0.1521457199348551 0.1855097315605723 0  0.1505393388476355 0.1926758619366523 0  0.1505393388476328 0.2073241380633295 0  0.1521457199348437 0.2144902684393899 0  0.1547844879126531 0.221343792228163 0  0.1583987151778488 0.2277368545647528 0  0.1629104300036858 0.2335315343742052 0  0.1682222986671726 0.2386028198193036 0  0.1742197252833576 0.2428413052501257 0  0.1807733240458683 0.2461555514727623 0  0.1877417105384929 0.2484740584176516 0  0.1949745518995776 0.2497468076502398 0  0.202315810036185 0.2499463414463592 0  0.2096071079201568 0.2490683551528932 0  0.2166911463435495 0.2471317900544655 0  0.2234150974215506 0.2441784247426195 0  0.2296339016331197 0.2402719738031125 0  0.2352133972703547 0.2354967132658811 0  0.2400332147833751 0.2299556624715287 0  0.2439893735792577 0.2237683615780412 0  0.246996525252926 0.2170682926548348 0  0.25645809709277 0.21 0  0.2639263993298655 0.21 0  0.271394701566961 0.21 0  0.2788630038040554 0.21 0  0.2863313060411479 0.21 0  0.2937996082782405 0.21 0  0.301267910515333 0.21 0  0.3087362127524279 0.21 0  0.3162045149895234 0.21 0  0.3236728172265972 0.21 0  0.3311411194636928 0.21 0  0.3386094217007701 0.21 0  0.3460777239378666 0.21 0  0.3535460261749672 0.21 0  0.3610143284120516 0.21 0  0.3684826306491596 0.21 0  0.3759509328862226 0.21 0  0.383419235123329 0.21 0  0.3908875373604028 0.21 0  0.3983558395975142 0.21 0  0.4058241418345938 0.21 0  0.4132924440716992 0.21 0  0.4207607463087888 0.21 0  0.4282290485459029 0.21 0  0.4356973507830418 0.21 0  0.4431656530201649 0.21 0  0.4506339552573136 0.21 0  0.4581022574944306 0.21 0  0.4655705597315852 0.21 0  0.4730388619686996 0.21 0  0.480507164205851 0.21 0  0.4879754664429498 0.21 0  0.4954437686800938 0.21 0  0.502912070917267 0.21 0  0.5103803731544119 0.21 0  0.5178486753915261 0.21 0  0.5253169776286404 0.21 0  0.5327852798657868 0.21 0  0.5402535821029386 0.21 0  0.54772188434007 0.21 0  0.5551901865771842 0.21 0  0.5626584888143201 0.21 0  0.5701267910514778 0.21 0  0.5775950932886138 0.21 0  0.5850633955257281 0.21 0  0.5925316977628483 0.21 0  0.6 0.2050000000000054 0  0.6 0.1950000000000217 0  0.5925316977628897 0.19 0  0.5850633955257988 0.19 0  0.5775950932887378 0.19 0  0.5701267910515998 0.19 0  0.5626584888145268 0.19 0  0.5551901865773963 0.19 0  0.547721884340339 0.19 0  0.5402535821032429 0.19 0  0.5327852798661811 0.19 0  0.5253169776290537 0.19 0  0.5178486753919799 0.19 0  0.5103803731549078 0.19 0  0.502912070917822 0.19 0  0.4954437686807294 0.19 0  0.4879754664436223 0.19 0  0.4805071642065402 0.19 0  0.4730388619694271 0.19 0  0.4655705597323621 0.19 0  0.4581022574952563 0.19 0  0.4506339552581777 0.19 0  0.4431656530210671 0.19 0  0.4356973507839815 0.19 0  0.4282290485468779 0.19 0  0.4207607463097617 0.19 0  0.4132924440726327 0.19 0  0.4058241418354857 0.19 0  0.3983558395983636 0.19 0  0.3908875373612097 0.19 0  0.3834192351240934 0.19 0  0.3759509328869369 0.19 0  0.3684826306498175 0.19 0  0.361014328412667 0.19 0  0.3535460261755617 0.19 0  0.3460777239384295 0.19 0  0.3386094217012945 0.19 0  0.3311411194641595 0.19 0  0.3236728172270245 0.19 0  0.3162045149898895 0.19 0  0.3087362127527544 0.19 0  0.3012679105156187 0.19 0  0.2937996082784807 0.19 0  0.2863313060413428 0.19 0  0.2788630038042048 0.19 0  0.2713947015670686 0.19 0  0.2639263993299336 0.19 0  0.2564580970927985 0.19 0  0.2607803159922026 0.2000727136295815 0  0.5887803774232762 0.2001272386983733 0  0.5745072403740523 0.2002044435018727 0  0.5511891430099709 0.2001122610077113 0  0.2751288526855082 0.20000000000002 0  0.5365194309847112 0.1999999999999436 0  0.2894621222999649 0.1998691686390484 0  0.5215828265105155 0.1999999999999228 0  0.3127789816668748 0.1998657885438805 0  0.3274069683451451 0.2000000000000796 0  0.5066462220363641 0.199999999999908 0  0.3650630746574081 0.199866017807523 0  0.476773013087985 0.1999999999998713 0  0.3417402379596385 0.1998691686391011 0  0.3796850840047755 0.200000000000134 0  0.4618364086138087 0.1999999999998546 0  0.4917096175621762 0.1999999999998808 0  0.3946216884789568 0.2000000000001512 0  0.446899804139621 0.1999999999998389 0  0.4089549580935208 0.1998691686391595 0  0.4322718174608562 0.200127451265745 0  0.4201487168029707 0.1999966199048527 0  0.3528922713220932 0.2000185703532356 0  0.5633122436674589 0.1999814296467508 0  0.3006558810093873 0.1999966199048318 0  0.5815926498168407 0.1966545283159175 0  0.2677053789419034 0.1964246479135325 0  0.5290511287476175 0.1970915826863981 0  0.5439877332217911 0.197091582686394 0  0.2825131256993216 0.2035478995978015 0  0.3199386661080599 0.202908417313604 0  0.4842413153250809 0.1970915826863873 0  0.5141145242734466 0.1970915826863843 0  0.3722167817676917 0.2029084173136195 0  0.4693047108508938 0.1970915826863783 0  0.3348752705822316 0.202908417313609 0  0.3871533862418661 0.2029084173136212 0  0.4543681063767183 0.1970915826863795 0  0.4991779197992749 0.1970915826863902 0  0.4020059614928624 0.203547899597858 0  0.4394315019025246 0.1970915826863714 0  0.2550657455369551 0.2034088125358657 0  0.2548908499171161 0.1966940311614271 0  0.5946539510196798 0.2024302972968126 0  0.267698176732111 0.2039977513680092 0  0.4261685417851465 0.196409292431739 0  0.3590076176283495 0.196411355804271 0  0.5571672426447437 0.2036011176410121 0  0.3066757059912147 0.1964092924317024 0  0.594380730180568 0.1966558399668133 0  0.4842413153245942 0.2040749161535287 0  0.4693047108503577 0.2040749161535231 0  0.3871533862424271 0.1959250838464788 0  0.372246743208829 0.1959123236376545 0  0.5141145242731028 0.2040749161535395 0  0.4543681063761134 0.2040749161535186 0  0.4019979587101454 0.1959834479682427 0  0.4394608940728603 0.2040870543693135 0  0.5439623148931173 0.2040856076781014 0  0.5290511287473298 0.2040749161535501 0  0.4991779197988497 0.2040749161535382 0  0.3347912413592433 0.1959225448935183 0  0.3199680582793816 0.1959123018030061 0  0.2825051229162361 0.1959834479681729 0  0.3590471196690275 0.2036304442587945 0  0.5571594006495384 0.1963685282145804 0  0.3067669986803285 0.203627750582736 0  0.4262598344738712 0.2036568242185335 0  0.5814408164431408 0.2041285596160068 0  0.5688286748170428 0.1961819304477386 0  0.4145905603063645 0.2038180695522843 0  0.3473758401724931 0.2038180695522752 0  0.2950977245128307 0.2038180695522663 0  0.5688286748170693 0.203818069552238 0  0.2950977245127906 0.1961819304477774 0  0.3473758401723931 0.1961819304478349 0  0.4145905603061963 0.1961819304479011 0  0.2601812407614425 0.2056861609747042
[...]
<PointData  Vectors="f_40-0"> 
<DataArray  type="Float64"  Name="f_40-0"  NumberOfComponents="3" format="ascii">0.0000000000000000e+00 0.0000000000000000e+00 0.0000000000000000e+00  0.0000000000000000e+00 0.0000000000000000e+00 0.0000000000000000e+00  0.0000000000000000e+00 0.0000000000000000e+00 0.0000000000000000e+00  0.0000000000000000e+00 0.0000000000000000e+00 0.0000000000000000e+00  1.3374139109969660e-05 -9.1527369459377622e-06 0.0000000000000000e+00  1.8296766582883261e-05 -7.0093701453724402e-06 0.0000000000000000e+00  0.0000000000000000e+00 0.0000000000000000e+00 0.0000000000000000e+00  0.0000000000000000e+00 0.0000000000000000e+00 0.0000000000000000e+00  0.0000000000000000e+00 0.0000000000000000e+00 0.0000000000000000e+00  0.0000000000000000e+00 0.0000000000000000e+00 0.0000000000000000e+00  1.5888354449425192e-05 -8.0772883575474066e-06 0.0000000000000000e+00  7.8181366652769493e-02 0.0000000000000000e+00 0.0000000000000000e+00  1.4433483074358402e-01 0.0000000000000000e+00 0.0000000000000000e+00  1.9846039227242804e-01 0.0000000000000000e+00 0.0000000000000000e+00  2.4055805123936427e-01 0.0000000000000000e+00 0.0000000000000000e+00  2.7062780764438721e-01 0.0000000000000000e+00 0.0000000000000000e+00  2.8866966148749507e-01 0.0000000000000000e+00 0.0000000000000000e+00  2.9468361276866978e-01 0.0000000000000000e+00 0.0000000000000000e+00  2.8866966148785977e-01 0.0000000000000000e+00 0.0000000000000000e+00  2.7062780764501376e-01 0.0000000000000000e+00 0.0000000000000000e+00  2.4055805124014026e-01 0.0000000000000000e+00 0.0000000000000000e+00  1.9846039227316520e-01 0.0000000000000000e+00 0.0000000000000000e+00  1.4433483074421302e-01 0.0000000000000000e+00 0.0000000000000000e+00  7.8181366653123918e-02 0.0000000000000000e+00 0.0000000000000000e+00  0.0000000000000000e+00 0.0000000000000000e+00 0.0000000000000000e+00  0.0000000000000000e+00 0.0000000000000000e+00 0.0000000000000000e+00  0.0000000000000000e+00 0.0000000000000000e+00 0.0000000000000000e+00  0.0000000000000000e+00 0.0000000000000000e+00 0.0000000000000000e+00  0.0000000000000000e+00 0.0000000000000000e+00 0.0000000000000000e+00  0.0000000000000000e+00 0.0000000000000000e+00 0.0000000000000000e+00  0.0000000000000000e+00 0.0000000000000000e+00 0.0000000000000000e+00  0.0000000000000000e+00 0.0000000000000000e+00 0.0000000000000000e+00  0.0000000000000000e+00 0.0000000000000000e+00 0.0000000000000000e+00  0.0000000000000000e+00 0.0000000000000000e+00 0.0000000000000000e+00  0.0000000000000000e+00 0.0000000000000000e+00 0.0000000000000000e+00  0.0000000000000000e+00 0.0000000000000000e+00 0.0000000000000000e+00  0.0000000000000000e+00 0.0000000000000000e+00 0.0000000000000000e+00  0.0000000000000000e+00 0.0000000000000000e+00 0.0000000000000000e+00  0.0000000000000000e+00 0.0000000000000000e+00 0.0000000000000000e+00  0.0000000000000000e+00 0.0000000000000000e+00 0.0000000000000000e+00  0.0000000000000000e+00 0.0000000000000000e+00 0.0000000000000000e+00  0.0000000000000000e+00 0.0000000000000000e+00 0.0000000000000000e+00  0.0000000000000000e+00 0.0000000000000000e+00 0.0000000000000000e+00  0.0000000000000000e+00 0.0000000000000000e+00 0.0000000000000000e+00  0.0000000000000000e+00 0.0000000000000000e+00 0.0000000000000000e+00  0.0000000000000000e+00 0.0000000000000000e+00 0.0000000000000000e+00  0.0000000000000000e+00 0.0000000000000000e+00 0.0000000000000000e+00  0.0000000000000000e+00 0.0000000000000000e+00 0.0000000000000000e+00  0.0000000000000000e+00 0.0000000000000000e+00 0.0000000000000000e+00  0.0000000000000000e+00 0.0000000000000000e+00 0.0000000000000000e+00  0.0000000000000000e+00 0.0000000000000000e+00 0.0000000000000000e+00  0.0000000000000000e+00 0.0000000000000000e+00 0.0000000000000000e+00  0.0000000000000000e+00 0.0000000000000000e+00 0.0000000000000000e+00  0.0000000000000000e+00 0.0000000000000000e+00 0.0000000000000000e+00  0.0000000000000000e+00 0.0000000000000000e+00 0.0000000000000000e+00  0.0000000000000000e+00 0.0000000000000000e+00 0.0000000000000000e+00  0.0000000000000000e+00 0.0000000000000000e+00 0.0000000000000000e+00  0.0000000000000000e+00 0.0000000000000000e+00 0.0000000000000000e+00  0.0000000000000000e+00 0.0000000000000000e+00 0.0000000000000000e+00  0.0000000000000000e+00 0.0000000000000000e+00 0.0000000000000000e+00  0.0000000000000000e+00 0.0000000000000000e+00 0.0000000000000000e+00  0.0000000000000000e+00 0.0000000000000000e+00 0.0000000000000000e+00  2.6050368665504026e-01 -9.0846713835950905e-03 0.0000000000000000e+00  2.3587790654690854e-01 2.3137071006301439e-03 0.0000000000000000e+00  2.6327847628996953e-01 9.4217039096185801e-03 0.0000000000000000e+00  0.0000000000000000e+00 0.0000000000000000e+00 0.0000000000000000e+00  0.0000000000000000e+00 0.0000000000000000e+00 0.0000000000000000e+00  0.0000000000000000e+00 0.0000000000000000e+00 0.0000000000000000e+00  0.0000000000000000e+00 0.0000000000000000e+00 0.0000000000000000e+00  0.0000000000000000e+00 0.0000000000000000e+00 0.0000000000000000e+00  0.0000000000000000e+00 0.0000000000000000e+00 0.0000000000000000e+00  0.0000000000000000e+00 0.0000000000000000e+00 0.0000000000000000e+00  0.0000000000000000e+00 0.0000000000000000e+00 0.0000000000000000e+00  0.0000000000000000e+00 0.0000000000000000e+00 0.0000000000000000e+00  0.0000000000000000e+00 0.0000000000000000e+00 0.0000000000000000e+00  0.0000000000000000e+00 0.0000000000000000e+00 0.0000000000000000e+00  0.0000000000000000e+00 0.0000000000000000e+00 0.0000000000000000e+00  0.0000000000000000e+00 0.0000000000000000e+00 0.0000000000000000e+00  0.0000000000000000e+00 0.0000000000000000e+00 0.0000000000000000e+00  0.0000000000000000e+00 0.0000000000000000e+00 0.0000000000000000e+00  0.0000000000000000e+00 0.0000000000000000e+00 0.0000000000000000e+00  0.0000000000000000e+00 0.0000000000000000e+00 0.0000000000000000e+00  0.0000000000000000e+00 0.0000000000000000e+00 0.0000000000000000e+00  0.0000000000000000e+00 0.0000000000000000e+00 0.0000000000000000e+00  0.0000000000000000e+00 0.0000000000000000e+00 0.0000000000000000e+00  0.0000000000000000e+00 0.0000000000000000e+00 0.0000000000000000e+00  0.0000000000000000e+00 0.0000000000000000e+00 0.0000000000000000e+00  0.0000000000000000e+00 0.0000000000000000e+00 0.0000000000000000e+00  0.0000000000000000e+00 0.0000000000000000e+00 0.0000000000000000e+00  0.0000000000000000e+00 0.0000000000000000e+00 0.0000000000000000e+00  0.0000000000000000e+00 0.0000000000000000e+00 0.0000000000000000e+00  0.0000000000000000e+00 0.0000000000000000e+00 0.0000000000000000e+00  0.0000000000000000e+00 0.0000000000000000e+00 0.0000000000000000e+00  0.0000000000000000e+00 0.0000000000000000e+00 0.0000000000000000e+00  0.0000000000000000e+00 0.0000000000000000e+00 0.0000000000000000e+00  0.0000000000000000e+00 0.0000000000000000e+00 0.0000000000000000e+00  0.0000000000000000e+00 0.0000000000000000e+00 0.0000000000000000e+00  0.0000000000000000e+00 0.0000000000000000e+00 0.0000000000000000e+00  0.0000000000000000e+00 0.0000000000000000e+00 0.0000000000000000e+00  0.0000000000000000e+00 0.0000000000000000e+00 0.0000000000000000e+00  0.0000000000000000e+00 0.0000000000000000e+00 0.0000000000000000e+00  0.0000000000000000e+00 0.0000000000000000e+00 0.0000000000000000e+00  0.0000000000000000e+00 0.0000000000000000e+00 0.0000000000000000e+00  0.0000000000000000e+00 0.0000000000000000e+00 0.0000000000000000e+00  0.0000000000000000e+00 0.0000000000000000e+00 0.0000000000000000e+00  0.0000000000000000e+00 0.0000000000000000e+00 0.0000000000000000e+00  0.0000000000000000e+00 0.0000000000000000e+00 0.0000000000000000e+00  0.0000000000000000e+00 0.0000000000000000e+00 0.0000000000000000e+00  0.0000000000000000e+00 0.0000000000000000e+00 0.0000000000000000e+00  0.0000000000000000e+00 0.0000000000000000e+00 0.0000000000000000e+00  0.0000000000000000e+00 0.0000000000000000e+00 0.0000000000000000e+00  0.0000000000000000e+00 0.0000000000000000e+00 0.0000000000000000e+00  0.0000000000000000e+00 0.0000000000000000e+00 0.0000000000000000e+00  0.0000000000000000e+00 0.0000000000000000e+00 0.0000000000000000e+00  0.0000000000000000e+00 0.0000000000000000e+00 0.0000000000000000e+00  0.0000000000000000e+00 0.0000000000000000e+00 0.0000000000000000e+00  0.0000000000000000e+00 0.0000000000000000e+00 0.0000000000000000e+00  0.0000000000000000e+00 0.0000000000000000e+00 0.0000000000000000e+00  0.0000000000000000e+00 0.0000000000000000e+00 0.0000000000000000e+00  0.0000000000000000e+00 0.0000000000000000e+00 0.0000000000000000e+00  0.0000000000000000e+00 0.0000000000000000e+00 0.0000000000000000e+00  0.0000000000000000e+00 0.0000000000000000e+00 0.0000000000000000e+00  0.0000000000000000e+00 0.0000000000000000e+00 0.0000000000000000e+00  0.0000000000000000e+00 0.0000000000000000e+00 0.0000000000000000e+00  0.0000000000000000e+00 0.0000000000000000e+00 0.0000000000000000e+00  0.0000000000000000e+00 0.0000000000000000e+00 0.0000000000000000e+00  0.0000000000000000e+00 0.0000000000000000e+00 0.0000000000000000e+00  0.0000000000000000e+00 0.0000000000000000e+00 0.0000000000000000e+00  0.0000000000000000e+00 0.0000000000000000e+00 0.0000000000000000e+00  0.0000000000000000e+00 0.0000000000000000e+00 0.0000000000000000e+00  0.0000000000000000e+00 0.0000000000000000e+00 0.0000000000000000e+00  0.0000000000000000e+00 0.0000000000000000e+00 0.0000000000000000e+00  0.0000000000000000e+00 0.0000000000000000e+00 0.0000000000000000e+00  0.0000000000000000e+00 0.0000000000000000e+00 0.0000000000000000e+00  0.0000000000000000e+00 0.0000000000000000e+00 0.0000000000000000e+00  0.0000000000000000e+00 0.0000000000000000e+00 0.0000000000000000e+00  0.0000000000000000e+00 0.0000000000000000e+00 0.0000000000000000e+00  0.0000000000000000e+00 0.0000000000000000e+00 0.0000000000000000e+00  0.0000000000000000e+00 0.0000000000000000e+00 0.0000000000000000e+00  0.0000000000000000e+00 0.0000000000000000e+00 0.0000000000000000e+00  0.0000000000000000e+00 0.0000000000000000e+00 0.0000000000000000e+00  0.0000000000000000e+00 0.0000000000000000e+00 0.0000000000000000e+00  0.0000000000000000e+00 0.0000000000000000e+00 0.0000000000000000e+00  -5.3078580511824467e-07 2.6018889385480150e-06 0.0000000000000000e+00  -1.1110045181580478e-06 3.5178344117958679e-06 0.0000000000000000e+00  -1.6484645124209038e-06 4.6317627343369937e-06 0.0000000000000000e+00  -2.1829747448953341e-06 6.0032813265977088e-06 0.0000000000000000e+00  -2.5939410583717208e-06 7.5382066671011898e-06 0.0000000000000000e+00  -2.9284519233407975e-06 9.2684554103474861e-06 0.0000000000000000e+00  -3.1516628753233048e-06 1.1068487970331522e-05 0.0000000000000000e+00  -3.2785370285735841e-06 1.2927734529030298e-05 0.0000000000000000e+00  -3.3308859977202093e-06 1.4799434229140158e-05 0.0000000000000000e+00  -3.2938162034000364e-06 1.6619985537422821e-05 0.0000000000000000e+00  -3.1573035966950830e-06 1.8406484429759842e-05 0.0000000000000000e+00  -2.9742172131724613e-06 2.0065684338115349e-05 0.0000000000000000e+00  -2.6794671507724576e-06 2.1621262968146365e-05 0.0000000000000000e+00  -2.3688096173546787e-06 2.3053428883173104e-05 0.0000000000000000e+00  -1.9920305741596249e-06 2.4304494523607211e-05 0.0000000000000000e+00  -1.5302802355801407e-06 2.5410727095121581e-05 0.0000000000000000e+00  -1.0733484377372378e-06 2.6319342876190107e-05 0.0000000000000000e+00  -5.1271141231607456e-07 2.7062603136901746e-05 0.0000000000000000e+00  1.4511610949974158e-08 2.7591379851479685e-05 0.0000000000000000e+00  6.3197984616851297e-07 2.7955972067978312e-05 0.0000000000000000e+00  1.2230845348236612e-06 2.8104394202756657e-05 0.0000000000000000e+00  1.8834562935281418e-06 2.8067861362637803e-05 0.0000000000000000e+00  2.5032232688511298e-06 2.7878202071847292e-05 0.0000000000000000e+00  3.1428310129659556e-06 2.7483081371794127e-05 0.0000000000000000e+00  3.8242706292822848e-06 2.6953229545596148e-05 0.0000000000000000e+00  4.4830483722230837e-06 2.6243491868798156e-05 0.0000000000000000e+00  5.1588731774385126e-06 2.5397200120892138e-05 0.0000000000000000e+00  5.8210742570125913e-06 2.4410241705650417e-05 0.0000000000000000e+00  6.4944909831280013e-06 2.3300482726391189e-05 0.0000000000000000e+00  7.1531307073451810e-06 2.2076414334198299e-05 0.0000000000000000e+00  7.8189944842684933e-06 2.0749851601907950e-05 0.0000000000000000e+00  8.4718484239524046e-06 1.9331652952244887e-05 0.0000000000000000e+00  9.1284681384659598e-06 1.7832938130719536e-05 0.0000000000000000e+00  9.7754843524036441e-06 1.6262588150797827e-05 0.0000000000000000e+00  1.0425995521116160e-05 1.4633220572803942e-05 0.0000000000000000e+00  1.1068703545765152e-05 1.2951817912168529e-05 0.0000000000000000e+00  1.1714009735252001e-05 1.1228562791524992e-05 0.0000000000000000e+00  1.2355376351303227e-05 9.4692072778798851e-06 0.0000000000000000e+00  1.3000720623076762e-05 7.6834226564940498e-06 0.0000000000000000e+00  1.3646320952949182e-05 5.8741486675443218e-06 0.0000000000000000e+00  1.4298819467694700e-05 4.0475819186078959e-06 0.0000000000000000e+00  1.4950847518728114e-05 2.2105448492064387e-06 0.0000000000000000e+00  1.5612251816193456e-05 3.6383937873040326e-07 0.0000000000000000e+00  1.6277944523826854e-05 -1.4876078287679258e-06 0.0000000000000000e+00  1.6951667884014482e-05 -3.3457872068203258e-06 0.0000000000000000e+00  1.7628039814334804e-05 -5.1977341799331176e-06 0.0000000000000000e+00  1.7112087432120407e-05 -7.5419138686416584e-06 0.0000000000000000e+00  1.4649450623997752e-05 -8.6127577646454599e-06 0.0000000000000000e+00  1.2708073590066850e-05 -7.2813323013346189e-06 0.0000000000000000e+00  1.2034366091671106e-05 -5.4580468086489141e-06 0.0000000000000000e+00  1.1367463612356074e-05 -3.6408864134629953e-06 0.0000000000000000e+00  1.0717265202096424e-05 -1.8232535697125828e-06 0.0000000000000000e+00  1.0074940178738928e-05 -9.1390537957311133e-09 0.0000000000000000e+00  9.4514876625348788e-06 1.7956578332594299e-06 0.0000000000000000e+00  8.8446170286537302e-06 3.5918637040912224e-06 0.0000000000000000e+00  8.2499304002485217e-06 5.3682324712201653e-06 0.0000000000000000e+00  7.6810244422304541e-06 7.1287747450819610e-06 0.0000000000000000e+00  7.1199286430393845e-06 8.8542401997088849e-06 0.0000000000000000e+00  6.5912745605396235e-06 1.0552297840773784e-05 0.0000000000000000e+00  6.0678179535299724e-06 1.2199786118453282e-05 0.0000000000000000e+00  5.5844217462594413e-06 1.3803888618219872e-05 0.0000000000000000e+00  5.1019227403733892e-06 1.5338645443070181e-05 0.0000000000000000e+00  4.6676540649475305e-06 1.6811069984749003e-05 0.0000000000000000e+00  4.2294893409321663e-06 1.8192526375816959e-05 0.0000000000000000e+00  3.8485308559102261e-06 1.9490699428288092e-05 0.0000000000000000e+00  3.4584269956631967e-06 2.0674219575654563e-05 0.0000000000000000e+00  3.1348325352170594e-06 2.1753152268677186e-05 0.0000000000000000e+00  2.7961645738381164e-06 2.2693875599834542e-05 0.0000000000000000e+00  2.5338027601606564e-06 2.3506963995122695e-05 0.0000000000000000e+00  2.2508750584955031e-06 2.4157400117952865e-05 0.0000000000000000e+00  2.0495243267572318e-06 2.4652682048401834e-05 0.0000000000000000e+00  1.8310526970410525e-06 2.4989404686536778e-05 0.0000000000000000e+00  1.6435958759229622e-06 2.5122040215569323e-05 0.0000000000000000e+00  1.5200443473763999e-06 2.5106837550552130e-05 0.0000000000000000e+00  1.3979162006345186e-06 2.4872218106558433e-05 0.0000000000000000e+00  1.3255218027873169e-06 2.4466156216237973e-05 0.0000000000000000e+00  1.2600376509080528e-06 2.3842205050509595e-05 0.0000000000000000e+00  1.2382759050524045e-06 2.3043238926655529e-05 0.0000000000000000e+00  1.2237228619920131e-06 2.2040564715910128e-05 0.0000000000000000e+00  1.2644791007351375e-06 2.0849925921437514e-05 0.0000000000000000e+00  1.2777349512730886e-06 1.9508270212297636e-05 0.0000000000000000e+00  1.3110217148026751e-06 1.7988942002999681e-05 0.0000000000000000e+00  1.3796614233738541e-06 1.6352554283426851e-05 0.0000000000000000e+00  1.4402721143991929e-06 1.4580571117284234e-05 0.0000000000000000e+00  1.5116697253892449e-06 1.2726526574441999e-05 0.0000000000000000e+00  1.5734257050313538e-06 1.0800629083719714e-05 0.0000000000000000e+00  1.6228772083243938e-06 8.8508093582483275e-06 0.0000000000000000e+00  1.6544614356938201e-06 6.9098205279596874e-06 0.0000000000000000e+00  1.6686116915607281e-06 5.0364913202182633e-06 0.0000000000000000e+00  1.6209958146861512e-06 3.2414477476991614e-06 0.0000000000000000e+00  1.5512846977033030e-06 1.6049626397908454e-06 0.0000000000000000e+00  1.3575212899910014e-06 1.7915246557471239e-07 0.0000000000000000e+00  1.0969727637514434e-06 -8.7367446775940984e-07 0.0000000000000000e+00  5.9257378106226510e-07 -1.4807193296210759e-06 0.0000000000000000e+00  4.0429431430935317e-07 6.9440580535848961e-07 0.0000000000000000e+00  1.4877465699739442e-05 -5.3024406222465497e-06 0.0000000000000000e+00  1.3599501426239029e-05 -1.7795559879725545e-06 0.0000000000000000e+00  1.1562495488458337e-05 3.9176976194768284e-06 0.0000000000000000e+00  -1.9598559106784299e-07 2.9056249940329043e-06 0.0000000000000000e+00  1.0320987567068256e-05 7.4330800496543795e-06 0.0000000000000000e+00  -5.0120288403712317e-07 5.9867414862343636e-06 0.0000000000000000e+00  9.1222597981920587e-06 1.0928292697299792e-05 0.0000000000000000e+00  -7.9674254654142007e-07 1.1899096665239045e-05 0.0000000000000000e+00  -8.4158692759699182e-07 1.5636774858345345e-05 0.0000000000000000e+00  7.9624725273102042e-06 1.4269897180264944e-05 0.0000000000000000e+00  -2.1165791569762537e-07 2.3311009698240469e-05 0.0000000000000000e+00  5.7633271037537171e-06 2.0203805234463512e-05 0.0000000000000000e+00  -6.9596875627263126e-07 1.8949541873532570e-05 0.0000000000000000e+00  2.5270088670910974e-07 2.5209100914425517e-05 0.0000000000000000e+00  4.7296782082144200e-06 2.2628294915807928e-05 0.0000000000000000e+00  6.8421625619913144e-06 1.7388388447687153e-05 0.0000000000000000e+00  8.6281394160165850e-07 2.6367863533568579e-05 0.0000000000000000e+00  3.7469045475822027e-06 2.4570298707368617e-05 0.0000000000000000e+00  1.5471922866949725e-06 2.6728887802578661e-05 0.0000000000000000e+00  2.8504158392187139e-06 2.5935221453980762e-05 0.0000000000000000e+00  2.1512359492858322e-06 2.6537435354857508e-05 0.0000000000000000e+00  -5.2245146459302671e-07 2.1230114288714816e-05 0.0000000000000000e+00  1.2567765230175130e-05 9.4362343301725675e-07 0.0000000000000000e+00  -6.9894840288516375e-07 8.7998754969362783e-06 0.0000000000000000e+00  1.3364677461724337e-05 -3.9003867879890190e-06 0.0000000000000000e+00  5.1574026683862725e-07 8.2001533922787191e-07 0.0000000000000000e+00  9.0442968664129796e-06 8.8501499468158722e-06 0.0000000000000000e+00  1.0241751292272552e-05 5.3095506620752283e-06 0.0000000000000000e+00  -1.0718714457366912e-06 5.2181778169997736e-06 0.0000000000000000e+00  -1.5531946905674530e-06 1.4337067851790394e-05 0.0000000000000000e+00  5.7617969692518948e-06 1.8462085683846344e-05 0.0000000000000000e+00  7.8968023386882763e-06 1.2266413042617681e-05 0.0000000000000000e+00  -3.7320890887518853e-07 2.4808695277998878e-05 0.0000000000000000e+00  4.7814841800562587e-06 2.1081511331580989e-05 0.0000000000000000e+00  -1.4462658939953712e-06 1.7966592297809479e-05 0.0000000000000000e+00  3.1897539328962516e-07 2.6331097177493302e-05 0.0000000000000000e+00  3.8664755328132939e-06 2.3263969687261823e-05 0.0000000000000000e+00  6.8016528926468141e-06 1.5495472847653827e-05 0.0000000000000000e+00  1.1043766045631670e-06 2.7173096398424957e-05 0.0000000000000000e+00  3.0207246740779525e-06 2.4916833469190173e-05 0.0000000000000000e+00  3.4568048918796374e-07 6.9245672667822159e-07 0.0000000000000000e+00  5.1150878060349708e-07 -2.5505058748895121e-07 0.0000000000000000e+00  1.5989993397777638e-05 -6.5072354654591481e-06 0.0000000000000000e+00  -4.6820411417138893e-07 2.5795409209424625e-06 0.0000000000000000e+00  2.3026502447853604e-06 2.5764634242960685e-05 0.0000000000000000e+00  2.0277848318137776e-07 2.1