<?xml version="1.0"?>
<VTKFile type="UnstructuredGrid"  version="0.1"  >
<UnstructuredGrid>
<Piece  NumberOfPoints="1419" NumberOfCells="2698">
<Points>
<DataArray  type="Float64"  NumberOfComponents="3"  format="ascii">0 0 0  0 0.41 0  2.5 0 0  2.5 0.41 0  0.6 0.19 0  0.6 0.21 0  0.25 0.2 0  0.15 0.2 0  0.2489897948556636 0.21 0  0.2489897948556636 0.19 0  0.6 0.2 0  0 0.3807142857143437 0  0 0.3514285714286952 0  0 0.3221428571430699 0  0 0.29285714285744 0  0 0.2635714285718054 0  0 0.2342857142861561 0  0 0.2050000000005308 0  0 0.175714285714732 0  0 0.1464285714289574 0  0 0.1171428571431897 0  0 0.08785714285737878 0  0 0.05857142857161107 0  0 0.02928571428580012 0  0.03015443760436003 0 0  0.06140001986583606 0 0  0.09377624077125973 0 0  0.1273239957535082 0 0  0.1620856860351972 0 0  0.1981052433264291 0 0  0.235428184091502 0 0  0.2741016576309132 0 0  0.3141745521465447 0 0  0.3556974926295285 0 0  0.3987229542472677 0 0  0.4433053055141081 0 0  0.4895008759286886 0 0  0.5373680609405097 0 0  0.5869673343216626 0 0  0.6383613676634521 0 0  0.6916151138468254 0 0  0.7467958595648856 0 0  0.8039733463919316 0 0  0.8632198139502143 0 0  0.9246101326867038 0 0  0.9882218810934433 0 0  1.054135445558498 0 0  1.122434100542598 0 0  1.193204177141305 0 0  1.266535089879536 0 0  1.342519516046404 0 0  1.421253448503939 0 0  1.502836389106271 0 0  1.587371439758838 0 0  1.674965418777374 0 0  1.765729001825544 0 0  1.859776908880082 0 0  1.957227977487062 0 0  2.058205329869943 0 0  2.162836591189951 0 0  2.271253957290865 0 0  2.383594446803425 0 0  2.5 0.1024999999997612 0  2.5 0.2049999999994743 0  2.5 0.3074999999997183 0  2.383594446803656 0.41 0  2.271253957291315 0.41 0  2.162836591190598 0.41 0  2.058205329870775 0.41 0  1.957227977488067 0.41 0  1.859776908881246 0.41 0  1.765729001826854 0.41 0  1.674965418778818 0.41 0  1.58737143976041 0.41 0  1.502836389107956 0.41 0  1.421253448505726 0.41 0  1.342519516048286 0.41 0  1.266535089881505 0.41 0  1.193204177143353 0.41 0  1.122434100544716 0.41 0  1.05413544556068 0.41 0  0.9882218810956305 0.41 0  0.9246101326886647 0.41 0  0.8632198139519631 0.41 0  0.8039733463934788 0.41 0  0.7467958595662458 0.41 0  0.6916151138480078 0.41 0  0.6383613676644679 0.41 0  0.5869673343225223 0.41 0  0.5373680609412221 0.41 0  0.4895008759292634 0.41 0  0.4433053055145528 0.41 0  0.3987229542475914 0.41 0  0.3556974926297398 0.41 0  0.3141745521466497 0.41 0  0.2741016576310038 0.41 0  0.2354281840915826 0.41 0  0.1981052433265003 0.41 0  0.1620856860352591 0.41 0  0.1273239957535623 0.41 0  0.09377624077128965 0.41 0  0.06140001986584975 0.41 0  0.03015443760436654 0.41 0  0.2497468076502589 0.2050254481002335 0  0.2497468076502614 0.1949745518997913 0  0.2469965252529372 0.1829317073451959 0  0.2439893735792749 0.1762316384219906 0  0.2400332147834255 0.1700443375285386 0  0.2352133972704371 0.1645032867342007 0  0.2296339016332438 0.1597280261969788 0  0.2234150974217223 0.1558215752574715 0  0.2166911463437691 0.1528682099456123 0  0.2096071079204251 0.1509316448471593 0  0.2023158100364996 0.1500536585536553 0  0.194974551899914 0.1502531923497262 0  0.1877417105387872 0.1515259415822739 0  0.1807733240461124 0.153844448527136 0  0.1742197252835808 0.15715869474974 0  0.1682222986673531 0.1613971801805478 0  0.162910430003803 0.1664684656256651 0  0.1583987151779087 0.1722631454351573 0  0.1547844879126891 0.178656207771761 0  0.1521457199348551 0.1855097315605723 0  0.1505393388476355 0.1926758619366523 0  0.1505393388476328 0.2073241380633295 0  0.1521457199348437 0.2144902684393899 0  0.1547844879126531 0.221343792228163 0  0.1583987151778488 0.2277368545647528 0  0.1629104300036858 0.2335315343742052 0  0.1682222986671726 0.2386028198193036 0  0.1742197252833576 0.2428413052501257 0  0.1807733240458683 0.2461555514727623 0  0.1877417105384929 0.2484740584176516 0  0.1949745518995776 0.2497468076502398 0  0.202315810036185 0.2499463414463592 0  0.2096071079201568 0.2490683551528932 0  0.2166911463435495 0.2471317900544655 0  0.2234150974215506 0.2441784247426195 0  0.2296339016331197 0.2402719738031125 0  0.2352133972703547 0.2354967132658811 0  0.2400332147833751 0.2299556624715287 0  0.2439893735792577 0.2237683615780412 0  0.246996525252926 0.2170682926548348 0  0.25645809709277 0.21 0  0.2639263993298655 0.21 0  0.271394701566961 0.21 0  0.2788630038040554 0.21 0  0.2863313060411479 0.21 0  0.2937996082782405 0.21 0  0.301267910515333 0.21 0  0.3087362127524279 0.21 0  0.3162045149895234 0.21 0  0.3236728172265972 0.21 0  0.3311411194636928 0.21 0  0.3386094217007701 0.21 0  0.3460777239378666 0.21 0  0.3535460261749672 0.21 0  0.3610143284120516 0.21 0  0.3684826306491596 0.21 0  0.3759509328862226 0.21 0  0.383419235123329 0.21 0  0.3908875373604028 0.21 0  0.3983558395975142 0.21 0  0.4058241418345938 0.21 0  0.4132924440716992 0.21 0  0.4207607463087888 0.21 0  0.4282290485459029 0.21 0  0.4356973507830418 0.21 0  0.4431656530201649 0.21 0  0.4506339552573136 0.21 0  0.4581022574944306 0.21 0  0.4655705597315852 0.21 0  0.4730388619686996 0.21 0  0.480507164205851 0.21 0  0.4879754664429498 0.21 0  0.4954437686800938 0.21 0  0.502912070917267 0.21 0  0.5103803731544119 0.21 0  0.5178486753915261 0.21 0  0.5253169776286404 0.21 0  0.5327852798657868 0.21 0  0.5402535821029386 0.21 0  0.54772188434007 0.21 0  0.5551901865771842 0.21 0  0.5626584888143201 0.21 0  0.5701267910514778 0.21 0  0.5775950932886138 0.21 0  0.5850633955257281 0.21 0  0.5925316977628483 0.21 0  0.6 0.2050000000000054 0  0.6 0.1950000000000217 0  0.5925316977628897 0.19 0  0.5850633955257988 0.19 0  0.5775950932887378 0.19 0  0.5701267910515998 0.19 0  0.5626584888145268 0.19 0  0.5551901865773963 0.19 0  0.547721884340339 0.19 0  0.5402535821032429 0.19 0  0.5327852798661811 0.19 0  0.5253169776290537 0.19 0  0.5178486753919799 0.19 0  0.5103803731549078 0.19 0  0.502912070917822 0.19 0  0.4954437686807294 0.19 0  0.4879754664436223 0.19 0  0.4805071642065402 0.19 0  0.4730388619694271 0.19 0  0.4655705597323621 0.19 0  0.4581022574952563 0.19 0  0.4506339552581777 0.19 0  0.4431656530210671 0.19 0  0.4356973507839815 0.19 0  0.4282290485468779 0.19 0  0.4207607463097617 0.19 0  0.4132924440726327 0.19 0  0.4058241418354857 0.19 0  0.3983558395983636 0.19 0  0.3908875373612097 0.19 0  0.3834192351240934 0.19 0  0.3759509328869369 0.19 0  0.3684826306498175 0.19 0  0.361014328412667 0.19 0  0.3535460261755617 0.19 0  0.3460777239384295 0.19 0  0.3386094217012945 0.19 0  0.3311411194641595 0.19 0  0.3236728172270245 0.19 0  0.3162045149898895 0.19 0  0.3087362127527544 0.19 0  0.3012679105156187 0.19 0  0.2937996082784807 0.19 0  0.2863313060413428 0.19 0  0.2788630038042048 0.19 0  0.2713947015670686 0.19 0  0.2639263993299336 0.19 0  0.2564580970927985 0.19 0  0.2607803159922026 0.2000727136295815 0  0.5887803774232762 0.2001272386983733 0  0.5745072403740523 0.2002044435018727 0  0.5511891430099709 0.2001122610077113 0  0.2751288526855082 0.20000000000002 0  0.5365194309847112 0.1999999999999436 0  0.2894621222999649 0.1998691686390484 0  0.5215828265105155 0.1999999999999228 0  0.3127789816668748 0.1998657885438805 0  0.3274069683451451 0.2000000000000796 0  0.5066462220363641 0.199999999999908 0  0.3650630746574081 0.199866017807523 0  0.476773013087985 0.1999999999998713 0  0.3417402379596385 0.1998691686391011 0  0.3796850840047755 0.200000000000134 0  0.4618364086138087 0.1999999999998546 0  0.4917096175621762 0.1999999999998808 0  0.3946216884789568 0.2000000000001512 0  0.446899804139621 0.1999999999998389 0  0.4089549580935208 0.1998691686391595 0  0.4322718174608562 0.200127451265745 0  0.4201487168029707 0.1999966199048527 0  0.3528922713220932 0.2000185703532356 0  0.5633122436674589 0.1999814296467508 0  0.3006558810093873 0.1999966199048318 0  0.5815926498168407 0.1966545283159175 0  0.2677053789419034 0.1964246479135325 0  0.5290511287476175 0.1970915826863981 0  0.5439877332217911 0.197091582686394 0  0.2825131256993216 0.2035478995978015 0  0.3199386661080599 0.202908417313604 0  0.4842413153250809 0.1970915826863873 0  0.5141145242734466 0.1970915826863843 0  0.3722167817676917 0.2029084173136195 0  0.4693047108508938 0.1970915826863783 0  0.3348752705822316 0.202908417313609 0  0.3871533862418661 0.2029084173136212 0  0.4543681063767183 0.1970915826863795 0  0.4991779197992749 0.1970915826863902 0  0.4020059614928624 0.203547899597858 0  0.4394315019025246 0.1970915826863714 0  0.2550657455369551 0.2034088125358657 0  0.2548908499171161 0.1966940311614271 0  0.5946539510196798 0.2024302972968126 0  0.267698176732111 0.2039977513680092 0  0.4261685417851465 0.196409292431739 0  0.3590076176283495 0.196411355804271 0  0.5571672426447437 0.2036011176410121 0  0.3066757059912147 0.1964092924317024 0  0.594380730180568 0.1966558399668133 0  0.4842413153245942 0.2040749161535287 0  0.4693047108503577 0.2040749161535231 0  0.3871533862424271 0.1959250838464788 0  0.372246743208829 0.1959123236376545 0  0.5141145242731028 0.2040749161535395 0  0.4543681063761134 0.2040749161535186 0  0.4019979587101454 0.1959834479682427 0  0.4394608940728603 0.2040870543693135 0  0.5439623148931173 0.2040856076781014 0  0.5290511287473298 0.2040749161535501 0  0.4991779197988497 0.2040749161535382 0  0.3347912413592433 0.1959225448935183 0  0.3199680582793816 0.1959123018030061 0  0.2825051229162361 0.1959834479681729 0  0.3590471196690275 0.2036304442587945 0  0.5571594006495384 0.1963685282145804 0  0.3067669986803285 0.203627750582736 0  0.4262598344738712 0.2036568242185335 0  0.5814408164431408 0.2041285596160068 0  0.5688286748170428 0.1961819304477386 0  0.4145905603063645 0.2038180695522843 0  0.3473758401724931 0.2038180695522752 0  0.2950977245128307 0.2038180695522663 0  0.5688286748170693 0.203818069552238 0  0.2950977245127906 0.1961819304477774 0  0.3473758401723931 0.1961819304478349 0  0.4145905603061963 0.1961819304479011 0  0.2601812407614425 0.2056861609747042
[...]
<PointData  Vectors="f_40-0"> 
<DataArray  type="Float64"  Name="f_40-0"  NumberOfComponents="3" format="ascii">0.0000000000000000e+00 0.0000000000000000e+00 0.0000000000000000e+00  0.0000000000000000e+00 0.0000000000000000e+00 0.0000000000000000e+00  0.0000000000000000e+00 0.0000000000000000e+00 0.0000000000000000e+00  0.0000000000000000e+00 0.0000000000000000e+00 0.0000000000000000e+00  3.2270986995300317e-05 9.8874967919797166e-04 0.0000000000000000e+00  -4.1847473909081453e-05 9.8875501702997293e-04 0.0000000000000000e+00  0.0000000000000000e+00 0.0000000000000000e+00 0.0000000000000000e+00  0.0000000000000000e+00 0.0000000000000000e+00 0.0000000000000000e+00  0.0000000000000000e+00 0.0000000000000000e+00 0.0000000000000000e+00  0.0000000000000000e+00 0.0000000000000000e+00 0.0000000000000000e+00  -4.7766200617984827e-06 9.8874613103653772e-04 0.0000000000000000e+00  7.9591836734548407e-02 0.0000000000000000e+00 0.0000000000000000e+00  1.4693877550994527e-01 0.0000000000000000e+00 0.0000000000000000e+00  2.0204081632617479e-01 0.0000000000000000e+00 0.0000000000000000e+00  2.4489795918330076e-01 0.0000000000000000e+00 0.0000000000000000e+00  2.7551020408131754e-01 0.0000000000000000e+00 0.0000000000000000e+00  2.9387755102022350e-01 0.0000000000000000e+00 0.0000000000000000e+00  3.0000000000000004e-01 0.0000000000000000e+00 0.0000000000000000e+00  2.9387755102059482e-01 0.0000000000000000e+00 0.0000000000000000e+00  2.7551020408195548e-01 0.0000000000000000e+00 0.0000000000000000e+00  2.4489795918409071e-01 0.0000000000000000e+00 0.0000000000000000e+00  2.0204081632692525e-01 0.0000000000000000e+00 0.0000000000000000e+00  1.4693877551058568e-01 0.0000000000000000e+00 0.0000000000000000e+00  7.9591836734909230e-02 0.0000000000000000e+00 0.0000000000000000e+00  0.0000000000000000e+00 0.0000000000000000e+00 0.0000000000000000e+00  0.0000000000000000e+00 0.0000000000000000e+00 0.0000000000000000e+00  0.0000000000000000e+00 0.0000000000000000e+00 0.0000000000000000e+00  0.0000000000000000e+00 0.0000000000000000e+00 0.0000000000000000e+00  0.0000000000000000e+00 0.0000000000000000e+00 0.0000000000000000e+00  0.0000000000000000e+00 0.0000000000000000e+00 0.0000000000000000e+00  0.0000000000000000e+00 0.0000000000000000e+00 0.0000000000000000e+00  0.0000000000000000e+00 0.0000000000000000e+00 0.0000000000000000e+00  0.0000000000000000e+00 0.0000000000000000e+00 0.0000000000000000e+00  0.0000000000000000e+00 0.0000000000000000e+00 0.0000000000000000e+00  0.0000000000000000e+00 0.0000000000000000e+00 0.0000000000000000e+00  0.0000000000000000e+00 0.0000000000000000e+00 0.0000000000000000e+00  0.0000000000000000e+00 0.0000000000000000e+00 0.0000000000000000e+00  0.0000000000000000e+00 0.0000000000000000e+00 0.0000000000000000e+00  0.0000000000000000e+00 0.0000000000000000e+00 0.0000000000000000e+00  0.0000000000000000e+00 0.0000000000000000e+00 0.0000000000000000e+00  0.0000000000000000e+00 0.0000000000000000e+00 0.0000000000000000e+00  0.0000000000000000e+00 0.0000000000000000e+00 0.0000000000000000e+00  0.0000000000000000e+00 0.0000000000000000e+00 0.0000000000000000e+00  0.0000000000000000e+00 0.0000000000000000e+00 0.0000000000000000e+00  0.0000000000000000e+00 0.0000000000000000e+00 0.0000000000000000e+00  0.0000000000000000e+00 0.0000000000000000e+00 0.0000000000000000e+00  0.0000000000000000e+00 0.0000000000000000e+00 0.0000000000000000e+00  0.0000000000000000e+00 0.0000000000000000e+00 0.0000000000000000e+00  0.0000000000000000e+00 0.0000000000000000e+00 0.0000000000000000e+00  0.0000000000000000e+00 0.0000000000000000e+00 0.0000000000000000e+00  0.0000000000000000e+00 0.0000000000000000e+00 0.0000000000000000e+00  0.0000000000000000e+00 0.0000000000000000e+00 0.0000000000000000e+00  0.0000000000000000e+00 0.0000000000000000e+00 0.0000000000000000e+00  0.0000000000000000e+00 0.0000000000000000e+00 0.0000000000000000e+00  0.0000000000000000e+00 0.0000000000000000e+00 0.0000000000000000e+00  0.0000000000000000e+00 0.0000000000000000e+00 0.0000000000000000e+00  0.0000000000000000e+00 0.0000000000000000e+00 0.0000000000000000e+00  0.0000000000000000e+00 0.0000000000000000e+00 0.0000000000000000e+00  0.0000000000000000e+00 0.0000000000000000e+00 0.0000000000000000e+00  0.0000000000000000e+00 0.0000000000000000e+00 0.0000000000000000e+00  0.0000000000000000e+00 0.0000000000000000e+00 0.0000000000000000e+00  0.0000000000000000e+00 0.0000000000000000e+00 0.0000000000000000e+00  2.5139756171269168e-01 -8.6024485834414483e-03 0.0000000000000000e+00  2.8093781213697300e-01 1.7198984437496860e-03 0.0000000000000000e+00  2.5171128135117232e-01 9.9343851340109712e-03 0.0000000000000000e+00  0.0000000000000000e+00 0.0000000000000000e+00 0.0000000000000000e+00  0.0000000000000000e+00 0.0000000000000000e+00 0.0000000000000000e+00  0.0000000000000000e+00 0.0000000000000000e+00 0.0000000000000000e+00  0.0000000000000000e+00 0.0000000000000000e+00 0.0000000000000000e+00  0.0000000000000000e+00 0.0000000000000000e+00 0.0000000000000000e+00  0.0000000000000000e+00 0.0000000000000000e+00 0.0000000000000000e+00  0.0000000000000000e+00 0.0000000000000000e+00 0.0000000000000000e+00  0.0000000000000000e+00 0.0000000000000000e+00 0.0000000000000000e+00  0.0000000000000000e+00 0.0000000000000000e+00 0.0000000000000000e+00  0.0000000000000000e+00 0.0000000000000000e+00 0.0000000000000000e+00  0.0000000000000000e+00 0.0000000000000000e+00 0.0000000000000000e+00  0.0000000000000000e+00 0.0000000000000000e+00 0.0000000000000000e+00  0.0000000000000000e+00 0.0000000000000000e+00 0.0000000000000000e+00  0.0000000000000000e+00 0.0000000000000000e+00 0.0000000000000000e+00  0.0000000000000000e+00 0.0000000000000000e+00 0.0000000000000000e+00  0.0000000000000000e+00 0.0000000000000000e+00 0.0000000000000000e+00  0.0000000000000000e+00 0.0000000000000000e+00 0.0000000000000000e+00  0.0000000000000000e+00 0.0000000000000000e+00 0.0000000000000000e+00  0.0000000000000000e+00 0.0000000000000000e+00 0.0000000000000000e+00  0.0000000000000000e+00 0.0000000000000000e+00 0.0000000000000000e+00  0.0000000000000000e+00 0.0000000000000000e+00 0.0000000000000000e+00  0.0000000000000000e+00 0.0000000000000000e+00 0.0000000000000000e+00  0.0000000000000000e+00 0.0000000000000000e+00 0.0000000000000000e+00  0.0000000000000000e+00 0.0000000000000000e+00 0.0000000000000000e+00  0.0000000000000000e+00 0.0000000000000000e+00 0.0000000000000000e+00  0.0000000000000000e+00 0.0000000000000000e+00 0.0000000000000000e+00  0.0000000000000000e+00 0.0000000000000000e+00 0.0000000000000000e+00  0.0000000000000000e+00 0.0000000000000000e+00 0.0000000000000000e+00  0.0000000000000000e+00 0.0000000000000000e+00 0.0000000000000000e+00  0.0000000000000000e+00 0.0000000000000000e+00 0.0000000000000000e+00  0.0000000000000000e+00 0.0000000000000000e+00 0.0000000000000000e+00  0.0000000000000000e+00 0.0000000000000000e+00 0.0000000000000000e+00  0.0000000000000000e+00 0.0000000000000000e+00 0.0000000000000000e+00  0.0000000000000000e+00 0.0000000000000000e+00 0.0000000000000000e+00  0.0000000000000000e+00 0.0000000000000000e+00 0.0000000000000000e+00  0.0000000000000000e+00 0.0000000000000000e+00 0.0000000000000000e+00  0.0000000000000000e+00 0.0000000000000000e+00 0.0000000000000000e+00  0.0000000000000000e+00 0.0000000000000000e+00 0.0000000000000000e+00  0.0000000000000000e+00 0.0000000000000000e+00 0.0000000000000000e+00  0.0000000000000000e+00 0.0000000000000000e+00 0.0000000000000000e+00  0.0000000000000000e+00 0.0000000000000000e+00 0.0000000000000000e+00  0.0000000000000000e+00 0.0000000000000000e+00 0.0000000000000000e+00  0.0000000000000000e+00 0.0000000000000000e+00 0.0000000000000000e+00  0.0000000000000000e+00 0.0000000000000000e+00 0.0000000000000000e+00  0.0000000000000000e+00 0.0000000000000000e+00 0.0000000000000000e+00  0.0000000000000000e+00 0.0000000000000000e+00 0.0000000000000000e+00  0.0000000000000000e+00 0.0000000000000000e+00 0.0000000000000000e+00  0.0000000000000000e+00 0.0000000000000000e+00 0.0000000000000000e+00  0.0000000000000000e+00 0.0000000000000000e+00 0.0000000000000000e+00  0.0000000000000000e+00 0.0000000000000000e+00 0.0000000000000000e+00  0.0000000000000000e+00 0.0000000000000000e+00 0.0000000000000000e+00  0.0000000000000000e+00 0.0000000000000000e+00 0.0000000000000000e+00  0.0000000000000000e+00 0.0000000000000000e+00 0.0000000000000000e+00  0.0000000000000000e+00 0.0000000000000000e+00 0.0000000000000000e+00  0.0000000000000000e+00 0.0000000000000000e+00 0.0000000000000000e+00  0.0000000000000000e+00 0.0000000000000000e+00 0.0000000000000000e+00  0.0000000000000000e+00 0.0000000000000000e+00 0.0000000000000000e+00  0.0000000000000000e+00 0.0000000000000000e+00 0.0000000000000000e+00  0.0000000000000000e+00 0.0000000000000000e+00 0.0000000000000000e+00  0.0000000000000000e+00 0.0000000000000000e+00 0.0000000000000000e+00  0.0000000000000000e+00 0.0000000000000000e+00 0.0000000000000000e+00  0.0000000000000000e+00 0.0000000000000000e+00 0.0000000000000000e+00  0.0000000000000000e+00 0.0000000000000000e+00 0.0000000000000000e+00  0.0000000000000000e+00 0.0000000000000000e+00 0.0000000000000000e+00  0.0000000000000000e+00 0.0000000000000000e+00 0.0000000000000000e+00  0.0000000000000000e+00 0.0000000000000000e+00 0.0000000000000000e+00  0.0000000000000000e+00 0.0000000000000000e+00 0.0000000000000000e+00  0.0000000000000000e+00 0.0000000000000000e+00 0.0000000000000000e+00  0.0000000000000000e+00 0.0000000000000000e+00 0.0000000000000000e+00  0.0000000000000000e+00 0.0000000000000000e+00 0.0000000000000000e+00  0.0000000000000000e+00 0.0000000000000000e+00 0.0000000000000000e+00  0.0000000000000000e+00 0.0000000000000000e+00 0.0000000000000000e+00  0.0000000000000000e+00 0.0000000000000000e+00 0.0000000000000000e+00  0.0000000000000000e+00 0.0000000000000000e+00 0.0000000000000000e+00  0.0000000000000000e+00 0.0000000000000000e+00 0.0000000000000000e+00  0.0000000000000000e+00 0.0000000000000000e+00 0.0000000000000000e+00  0.0000000000000000e+00 0.0000000000000000e+00 0.0000000000000000e+00  0.0000000000000000e+00 0.0000000000000000e+00 0.0000000000000000e+00  -2.2675201332931458e-06 1.8795093071018813e-06 0.0000000000000000e+00  -4.8169730894474205e-06 4.5202175774326281e-06 0.0000000000000000e+00  -7.0519384974730149e-06 8.8183207153688276e-06 0.0000000000000000e+00  -9.4507790690412170e-06 1.4861029247997813e-05 0.0000000000000000e+00  -1.1442427041159731e-05 2.2347774718472220e-05 0.0000000000000000e+00  -1.3685331423512437e-05 3.1408644904032522e-05 0.0000000000000000e+00  -1.5480880711195254e-05 4.1625926317172722e-05 0.0000000000000000e+00  -1.7211891026571765e-05 5.3357108575408908e-05 0.0000000000000000e+00  -1.9185040563598867e-05 6.6225794011036713e-05 0.0000000000000000e+00  -2.0683593008465807e-05 8.0273606711274125e-05 0.0000000000000000e+00  -2.2495867632420259e-05 9.5471685491461426e-05 0.0000000000000000e+00  -2.3852864214172028e-05 1.1172185783204934e-04 0.0000000000000000e+00  -2.5440441105587024e-05 1.2898271243807973e-04 0.0000000000000000e+00  -2.6696969413395701e-05 1.4705601530469041e-04 0.0000000000000000e+00  -2.7902978251204382e-05 1.6612992988624713e-04 0.0000000000000000e+00  -2.9254073610754805e-05 1.8595030881549455e-04 0.0000000000000000e+00  -3.0279182090824081e-05 2.0653646232252816e-04 0.0000000000000000e+00  -3.1484941975736913e-05 2.2786261751668227e-04 0.0000000000000000e+00  -3.2383579607273450e-05 2.4984373835287176e-04 0.0000000000000000e+00  -3.3420658890310742e-05 2.7243584360342715e-04 0.0000000000000000e+00  -3.4239680570626156e-05 2.9560996023870936e-04 0.0000000000000000e+00  -3.5122417809308771e-05 3.1933848100233801e-04 0.0000000000000000e+00  -3.5823759660112429e-05 3.4346866017209856e-04 0.0000000000000000e+00  -3.6478988671060404e-05 3.6811172725090811e-04 0.0000000000000000e+00  -3.7177947751900499e-05 3.9309547237708422e-04 0.0000000000000000e+00  -3.7745651561303214e-05 4.1847255639979443e-04 0.0000000000000000e+00  -3.8294678417803566e-05 4.4418621103307638e-04 0.0000000000000000e+00  -3.8764462757834531e-05 4.7017159960817395e-04 0.0000000000000000e+00  -3.9211503858310585e-05 4.9643828636097593e-04 0.0000000000000000e+00  -3.9590999953755221e-05 5.2291509950857986e-04 0.0000000000000000e+00  -3.9946787119468332e-05 5.4961339335289454e-04 0.0000000000000000e+00  -4.0245303772982129e-05 5.7646899151996207e-04 0.0000000000000000e+00  -4.0520780858432979e-05 6.0349326389989248e-04 0.0000000000000000e+00  -4.0748752660933108e-05 6.3063057270457384e-04 0.0000000000000000e+00  -4.0955056106428338e-05 6.5789210878992150e-04 0.0000000000000000e+00  -4.1123571041831455e-05 6.8523115679386350e-04 0.0000000000000000e+00  -4.1272999278009319e-05 7.1265773628745430e-04 0.0000000000000000e+00  -4.1393106177476264e-05 7.4013419090866240e-04 0.0000000000000000e+00  -4.1496804156360828e-05 7.6766945054328889e-04 0.0000000000000000e+00  -4.1578674509345093e-05 7.9523410144060442e-04 0.0000000000000000e+00  -4.1648101935017446e-05 8.2283695695331571e-04 0.0000000000000000e+00  -4.1700872832944034e-05 8.5045513452028159e-04 0.0000000000000000e+00  -4.1742142855492160e-05 8.7809462146338320e-04 0.0000000000000000e+00  -4.1779478799724492e-05 9.0574435587839012e-04 0.0000000000000000e+00  -4.1805824751754295e-05 9.3340331798893376e-04 0.0000000000000000e+00  -4.1827163105521376e-05 9.6107197969322127e-04 0.0000000000000000e+00  -2.3305204984276245e-05 9.8874881968933660e-04 0.0000000000000000e+00  1.3747880144784658e-05 9.8874579823805863e-04 0.0000000000000000e+00  3.2277020254992009e-05 9.6107330108080786e-04 0.0000000000000000e+00  3.2279604309076799e-05 9.3340066215226328e-04 0.0000000000000000e+00  3.2282632785710658e-05 9.0573307087081793e-04 0.0000000000000000e+00  3.2281198139068580e-05 8.7807568038625935e-04 0.0000000000000000e+00  3.2281255333917690e-05 8.5042801800071731e-04 0.0000000000000000e+00  3.2278987512041830e-05 8.2279977050324349e-04 0.0000000000000000e+00  3.2264770802724777e-05 7.9519099427160492e-04 0.0000000000000000e+00  3.2255903700061136e-05 7.6761161480953365e-04 0.0000000000000000e+00  3.2223956123163986e-05 7.4007037781492952e-04 0.0000000000000000e+00  3.2201212996251217e-05 7.1257812123127953e-04 0.0000000000000000e+00  3.2143028701166769e-05 6.8514538892052606e-04 0.0000000000000000e+00  3.2098830175119231e-05 6.5778886371539692e-04 0.0000000000000000e+00  3.2004163457007478e-05 6.3052122792552436e-04 0.0000000000000000e+00  3.1930283531323576e-05 6.0336546504581687e-04 0.0000000000000000e+00  3.1787390619939280e-05 5.7633551303533023e-04 0.0000000000000000e+00  3.1674700822343011e-05 5.4946128363614886e-04 0.0000000000000000e+00  3.1471551813945643e-05 5.2275799368707446e-04 0.0000000000000000e+00  3.1310656983832432e-05 4.9626257543429269e-04 0.0000000000000000e+00  3.1034741589052185e-05 4.6999147330929357e-04 0.0000000000000000e+00  3.0815831633312496e-05 4.4398806534083672e-04 0.0000000000000000e+00  3.0451308004464852e-05 4.1827194578674445e-04 0.0000000000000000e+00  3.0160376883288947e-05 3.9289417931368236e-04 0.0000000000000000e+00  2.9703254890558797e-05 3.6788183749497747e-04 0.0000000000000000e+00  2.9307218444377810e-05 3.4323787116173903e-04 0.0000000000000000e+00  2.8871730167550197e-05 3.1910682780355323e-04 0.0000000000000000e+00  2.8275806899641480e-05 2.9535976239188170e-04 0.0000000000000000e+00  2.7711475721278820e-05 2.7220295183128987e-04 0.0000000000000000e+00  2.7020830949785399e-05 2.4957989307975847e-04 0.0000000000000000e+00  2.6337467220578062e-05 2.2760882301217934e-04 0.0000000000000000e+00  2.5525506337654049e-05 2.0627700377638737e-04 0.0000000000000000e+00  2.4719717383200931e-05 1.8565995287640332e-04 0.0000000000000000e+00  2.3689105073292779e-05 1.6588863369996026e-04 0.0000000000000000e+00  2.2791083454353921e-05 1.4680402259588518e-04 0.0000000000000000e+00  2.1835915120897148e-05 1.2874524581839628e-04 0.0000000000000000e+00  2.0598260627281467e-05 1.1142232728253991e-04 0.0000000000000000e+00  1.9425090828266496e-05 9.5213557374276641e-05 0.0000000000000000e+00  1.8063023776230658e-05 8.0007947661912588e-05 0.0000000000000000e+00  1.6732778942766163e-05 6.5916157024446584e-05 0.0000000000000000e+00  1.5077668481368123e-05 5.3120735635420282e-05 0.0000000000000000e+00  1.3635413880994503e-05 4.1370825937335532e-05 0.0000000000000000e+00  1.2127236548142433e-05 3.1157876781111127e-05 0.0000000000000000e+00  1.0202518775115988e-05 2.2054370215266073e-05 0.0000000000000000e+00  8.4303318613858488e-06 1.4546525203993520e-05 0.0000000000000000e+00  6.2916175983784549e-06 8.5863673917683110e-06 0.0000000000000000e+00  4.3655216593743054e-06 4.2667866844934203e-06 0.0000000000000000e+00  2.0575568331428674e-06 1.6193564535088620e-06 0.0000000000000000e+00  -1.7524348593236386e-07 1.8613914627282273e-06 0.0000000000000000e+00  -5.2343952900449536e-06 9.4716839819569156e-04 0.0000000000000000e+00  -5.4944415731862365e-06 8.9429456206498224e-04 0.0000000000000000e+00  -5.0787575433702858e-06 8.0800546823741421e-04 0.0000000000000000e+00  -4.2210491883773464e-07 1.0463897575412673e-05 0.0000000000000000e+00  -4.5953714668486522e-06 7.5383451922818475e-04 0.0000000000000000e+00  -5.4549271725379125e-07 2.4853355730631561e-05 0.0000000000000000e+00  -4.5047816923794510e-06 6.9884680012434236e-04 0.0000000000000000e+00  -9.0539379177655840e-07 5.9225586385990677e-05 0.0000000000000000e+00  -1.4243572736599414e-06 8.6904666957059507e-05 0.0000000000000000e+00  -4.3910536445970288e-06 6.4412682547669196e-04 0.0000000000000000e+00  -1.8256085987148935e-06 1.7611140580504417e-04 0.0000000000000000e+00  -4.0877867104360834e-06 5.3603642385795399e-04 0.0000000000000000e+00  -1.4142261951311940e-06 1.1804121476248032e-04 0.0000000000000000e+00  -2.4754897756437371e-06 2.1653502029132479e-04 0.0000000000000000e+00  -3.8975246748777869e-06 4.8302156546870185e-04 0.0000000000000000e+00  -4.2523238906629058e-06 5.8980297824671427e-04 0.0000000000000000e+00  -2.7687143111034140e-06 2.6054806758114141e-04 0.0000000000000000e+00  -3.6806490366767217e-06 4.3098648956151975e-04 0.0000000000000000e+00  -2.6259079853510894e-06 3.0502209623733338e-04 0.0000000000000000e+00  -3.8746419275286420e-06 3.8122637882097050e-04 0.0000000000000000e+00  -3.2292232269168235e-06 3.4113900263754986e-04 0.0000000000000000e+00  -1.9809384679920465e-06 1.4488583245086091e-04 0.0000000000000000e+00  -4.6366252575733890e-06 8.5285097096499444e-04 0.0000000000000000e+00  -8.9283097372785442e-07 3.9966773907200575e-05 0.0000000000000000e+00  7.6387556812134380e-06 9.2053874888403957e-04 0.0000000000000000e+00  1.7432879289755231e-06 5.4021748153950040e-06 0.0000000000000000e+00  6.1405288771449446e-06 7.2630922464434844e-04 0.0000000000000000e+00  6.0974996235149821e-06 7.8139327062540470e-04 0.0000000000000000e+00  -4.0253881346145512e-06 1.7411772361001266e-05 0.0000000000000000e+00  -6.7181888693853691e-06 7.2364916535597418e-05 0.0000000000000000e+00  6.2685294477768291e-06 5.6283359851880732e-04 0.0000000000000000e+00  6.1858315096972919e-06 6.7144063729535845e-04 0.0000000000000000e+00  -1.0313808491710947e-05 1.9563894296822573e-04 0.0000000000000000e+00  6.2949612370429079e-06 5.0941782826359765e-04 0.0000000000000000e+00  -7.8244719085800333e-06 1.0279344252024979e-04 0.0000000000000000e+00  -1.1137274928054566e-05 2.3831878242821646e-04 0.0000000000000000e+00  6.3032062549244866e-06 4.5686403482193778e-04 0.0000000000000000e+00  6.2301691407833254e-06 6.1690048244653149e-04 0.0000000000000000e+00  -1.3855575841650932e-05 2.8331358194914267e-04 0.0000000000000000e+00  6.2911812898879686e-06 4.0541675286592783e-04 0.0000000000000000e+00  -4.4031643494836196e-07 4.3088591168248452e-07 0.0000000000000000e+00  2.7915752176669905e-07 3.3508253859253624e-07 0.0000000000000000e+00  -1.3774993961914185e-05 9.6893409088385520e-04 0.0000000000000000e+00  -2.5492091220399168e-06 5.5100389327396706e-06 0.0000000000000000e+00  8.5019232142251596e-06 3.6088680872380238e-04 0.0000000000000000