<?xml version="1.0"?>
<VTKFile type="UnstructuredGrid"  version="0.1"  >
<UnstructuredGrid>
<Piece  NumberOfPoints="1419" NumberOfCells="2698">
<Points>
<DataArray  type="Float64"  NumberOfComponents="3"  format="ascii">0 0 0  0 0.41 0  2.5 0 0  2.5 0.41 0  0.6 0.19 0  0.6 0.21 0  0.25 0.2 0  0.15 0.2 0  0.2489897948556636 0.21 0  0.2489897948556636 0.19 0  0.6 0.2 0  0 0.3807142857143437 0  0 0.3514285714286952 0  0 0.3221428571430699 0  0 0.29285714285744 0  0 0.2635714285718054 0  0 0.2342857142861561 0  0 0.2050000000005308 0  0 0.175714285714732 0  0 0.1464285714289574 0  0 0.1171428571431897 0  0 0.08785714285737878 0  0 0.05857142857161107 0  0 0.02928571428580012 0  0.03015443760436003 0 0  0.06140001986583606 0 0  0.09377624077125973 0 0  0.1273239957535082 0 0  0.1620856860351972 0 0  0.1981052433264291 0 0  0.235428184091502 0 0  0.2741016576309132 0 0  0.3141745521465447 0 0  0.3556974926295285 0 0  0.3987229542472677 0 0  0.4433053055141081 0 0  0.4895008759286886 0 0  0.5373680609405097 0 0  0.5869673343216626 0 0  0.6383613676634521 0 0  0.6916151138468254 0 0  0.7467958595648856 0 0  0.8039733463919316 0 0  0.8632198139502143 0 0  0.9246101326867038 0 0  0.9882218810934433 0 0  1.054135445558498 0 0  1.122434100542598 0 0  1.193204177141305 0 0  1.266535089879536 0 0  1.342519516046404 0 0  1.421253448503939 0 0  1.502836389106271 0 0  1.587371439758838 0 0  1.674965418777374 0 0  1.765729001825544 0 0  1.859776908880082 0 0  1.957227977487062 0 0  2.058205329869943 0 0  2.162836591189951 0 0  2.271253957290865 0 0  2.383594446803425 0 0  2.5 0.1024999999997612 0  2.5 0.2049999999994743 0  2.5 0.3074999999997183 0  2.383594446803656 0.41 0  2.271253957291315 0.41 0  2.162836591190598 0.41 0  2.058205329870775 0.41 0  1.957227977488067 0.41 0  1.859776908881246 0.41 0  1.765729001826854 0.41 0  1.674965418778818 0.41 0  1.58737143976041 0.41 0  1.502836389107956 0.41 0  1.421253448505726 0.41 0  1.342519516048286 0.41 0  1.266535089881505 0.41 0  1.193204177143353 0.41 0  1.122434100544716 0.41 0  1.05413544556068 0.41 0  0.9882218810956305 0.41 0  0.9246101326886647 0.41 0  0.8632198139519631 0.41 0  0.8039733463934788 0.41 0  0.7467958595662458 0.41 0  0.6916151138480078 0.41 0  0.6383613676644679 0.41 0  0.5869673343225223 0.41 0  0.5373680609412221 0.41 0  0.4895008759292634 0.41 0  0.4433053055145528 0.41 0  0.3987229542475914 0.41 0  0.3556974926297398 0.41 0  0.3141745521466497 0.41 0  0.2741016576310038 0.41 0  0.2354281840915826 0.41 0  0.1981052433265003 0.41 0  0.1620856860352591 0.41 0  0.1273239957535623 0.41 0  0.09377624077128965 0.41 0  0.06140001986584975 0.41 0  0.03015443760436654 0.41 0  0.2497468076502589 0.2050254481002335 0  0.2497468076502614 0.1949745518997913 0  0.2469965252529372 0.1829317073451959 0  0.2439893735792749 0.1762316384219906 0  0.2400332147834255 0.1700443375285386 0  0.2352133972704371 0.1645032867342007 0  0.2296339016332438 0.1597280261969788 0  0.2234150974217223 0.1558215752574715 0  0.2166911463437691 0.1528682099456123 0  0.2096071079204251 0.1509316448471593 0  0.2023158100364996 0.1500536585536553 0  0.194974551899914 0.1502531923497262 0  0.1877417105387872 0.1515259415822739 0  0.1807733240461124 0.153844448527136 0  0.1742197252835808 0.15715869474974 0  0.1682222986673531 0.1613971801805478 0  0.162910430003803 0.1664684656256651 0  0.1583987151779087 0.1722631454351573 0  0.1547844879126891 0.178656207771761 0  0.1521457199348551 0.1855097315605723 0  0.1505393388476355 0.1926758619366523 0  0.1505393388476328 0.2073241380633295 0  0.1521457199348437 0.2144902684393899 0  0.1547844879126531 0.221343792228163 0  0.1583987151778488 0.2277368545647528 0  0.1629104300036858 0.2335315343742052 0  0.1682222986671726 0.2386028198193036 0  0.1742197252833576 0.2428413052501257 0  0.1807733240458683 0.2461555514727623 0  0.1877417105384929 0.2484740584176516 0  0.1949745518995776 0.2497468076502398 0  0.202315810036185 0.2499463414463592 0  0.2096071079201568 0.2490683551528932 0  0.2166911463435495 0.2471317900544655 0  0.2234150974215506 0.2441784247426195 0  0.2296339016331197 0.2402719738031125 0  0.2352133972703547 0.2354967132658811 0  0.2400332147833751 0.2299556624715287 0  0.2439893735792577 0.2237683615780412 0  0.246996525252926 0.2170682926548348 0  0.25645809709277 0.21 0  0.2639263993298655 0.21 0  0.271394701566961 0.21 0  0.2788630038040554 0.21 0  0.2863313060411479 0.21 0  0.2937996082782405 0.21 0  0.301267910515333 0.21 0  0.3087362127524279 0.21 0  0.3162045149895234 0.21 0  0.3236728172265972 0.21 0  0.3311411194636928 0.21 0  0.3386094217007701 0.21 0  0.3460777239378666 0.21 0  0.3535460261749672 0.21 0  0.3610143284120516 0.21 0  0.3684826306491596 0.21 0  0.3759509328862226 0.21 0  0.383419235123329 0.21 0  0.3908875373604028 0.21 0  0.3983558395975142 0.21 0  0.4058241418345938 0.21 0  0.4132924440716992 0.21 0  0.4207607463087888 0.21 0  0.4282290485459029 0.21 0  0.4356973507830418 0.21 0  0.4431656530201649 0.21 0  0.4506339552573136 0.21 0  0.4581022574944306 0.21 0  0.4655705597315852 0.21 0  0.4730388619686996 0.21 0  0.480507164205851 0.21 0  0.4879754664429498 0.21 0  0.4954437686800938 0.21 0  0.502912070917267 0.21 0  0.5103803731544119 0.21 0  0.5178486753915261 0.21 0  0.5253169776286404 0.21 0  0.5327852798657868 0.21 0  0.5402535821029386 0.21 0  0.54772188434007 0.21 0  0.5551901865771842 0.21 0  0.5626584888143201 0.21 0  0.5701267910514778 0.21 0  0.5775950932886138 0.21 0  0.5850633955257281 0.21 0  0.5925316977628483 0.21 0  0.6 0.2050000000000054 0  0.6 0.1950000000000217 0  0.5925316977628897 0.19 0  0.5850633955257988 0.19 0  0.5775950932887378 0.19 0  0.5701267910515998 0.19 0  0.5626584888145268 0.19 0  0.5551901865773963 0.19 0  0.547721884340339 0.19 0  0.5402535821032429 0.19 0  0.5327852798661811 0.19 0  0.5253169776290537 0.19 0  0.5178486753919799 0.19 0  0.5103803731549078 0.19 0  0.502912070917822 0.19 0  0.4954437686807294 0.19 0  0.4879754664436223 0.19 0  0.4805071642065402 0.19 0  0.4730388619694271 0.19 0  0.4655705597323621 0.19 0  0.4581022574952563 0.19 0  0.4506339552581777 0.19 0  0.4431656530210671 0.19 0  0.4356973507839815 0.19 0  0.4282290485468779 0.19 0  0.4207607463097617 0.19 0  0.4132924440726327 0.19 0  0.4058241418354857 0.19 0  0.3983558395983636 0.19 0  0.3908875373612097 0.19 0  0.3834192351240934 0.19 0  0.3759509328869369 0.19 0  0.3684826306498175 0.19 0  0.361014328412667 0.19 0  0.3535460261755617 0.19 0  0.3460777239384295 0.19 0  0.3386094217012945 0.19 0  0.3311411194641595 0.19 0  0.3236728172270245 0.19 0  0.3162045149898895 0.19 0  0.3087362127527544 0.19 0  0.3012679105156187 0.19 0  0.2937996082784807 0.19 0  0.2863313060413428 0.19 0  0.2788630038042048 0.19 0  0.2713947015670686 0.19 0  0.2639263993299336 0.19 0  0.2564580970927985 0.19 0  0.2607803159922026 0.2000727136295815 0  0.5887803774232762 0.2001272386983733 0  0.5745072403740523 0.2002044435018727 0  0.5511891430099709 0.2001122610077113 0  0.2751288526855082 0.20000000000002 0  0.5365194309847112 0.1999999999999436 0  0.2894621222999649 0.1998691686390484 0  0.5215828265105155 0.1999999999999228 0  0.3127789816668748 0.1998657885438805 0  0.3274069683451451 0.2000000000000796 0  0.5066462220363641 0.199999999999908 0  0.3650630746574081 0.199866017807523 0  0.476773013087985 0.1999999999998713 0  0.3417402379596385 0.1998691686391011 0  0.3796850840047755 0.200000000000134 0  0.4618364086138087 0.1999999999998546 0  0.4917096175621762 0.1999999999998808 0  0.3946216884789568 0.2000000000001512 0  0.446899804139621 0.1999999999998389 0  0.4089549580935208 0.1998691686391595 0  0.4322718174608562 0.200127451265745 0  0.4201487168029707 0.1999966199048527 0  0.3528922713220932 0.2000185703532356 0  0.5633122436674589 0.1999814296467508 0  0.3006558810093873 0.1999966199048318 0  0.5815926498168407 0.1966545283159175 0  0.2677053789419034 0.1964246479135325 0  0.5290511287476175 0.1970915826863981 0  0.5439877332217911 0.197091582686394 0  0.2825131256993216 0.2035478995978015 0  0.3199386661080599 0.202908417313604 0  0.4842413153250809 0.1970915826863873 0  0.5141145242734466 0.1970915826863843 0  0.3722167817676917 0.2029084173136195 0  0.4693047108508938 0.1970915826863783 0  0.3348752705822316 0.202908417313609 0  0.3871533862418661 0.2029084173136212 0  0.4543681063767183 0.1970915826863795 0  0.4991779197992749 0.1970915826863902 0  0.4020059614928624 0.203547899597858 0  0.4394315019025246 0.1970915826863714 0  0.2550657455369551 0.2034088125358657 0  0.2548908499171161 0.1966940311614271 0  0.5946539510196798 0.2024302972968126 0  0.267698176732111 0.2039977513680092 0  0.4261685417851465 0.196409292431739 0  0.3590076176283495 0.196411355804271 0  0.5571672426447437 0.2036011176410121 0  0.3066757059912147 0.1964092924317024 0  0.594380730180568 0.1966558399668133 0  0.4842413153245942 0.2040749161535287 0  0.4693047108503577 0.2040749161535231 0  0.3871533862424271 0.1959250838464788 0  0.372246743208829 0.1959123236376545 0  0.5141145242731028 0.2040749161535395 0  0.4543681063761134 0.2040749161535186 0  0.4019979587101454 0.1959834479682427 0  0.4394608940728603 0.2040870543693135 0  0.5439623148931173 0.2040856076781014 0  0.5290511287473298 0.2040749161535501 0  0.4991779197988497 0.2040749161535382 0  0.3347912413592433 0.1959225448935183 0  0.3199680582793816 0.1959123018030061 0  0.2825051229162361 0.1959834479681729 0  0.3590471196690275 0.2036304442587945 0  0.5571594006495384 0.1963685282145804 0  0.3067669986803285 0.203627750582736 0  0.4262598344738712 0.2036568242185335 0  0.5814408164431408 0.2041285596160068 0  0.5688286748170428 0.1961819304477386 0  0.4145905603063645 0.2038180695522843 0  0.3473758401724931 0.2038180695522752 0  0.2950977245128307 0.2038180695522663 0  0.5688286748170693 0.203818069552238 0  0.2950977245127906 0.1961819304477774 0  0.3473758401723931 0.1961819304478349 0  0.4145905603061963 0.1961819304479011 0  0.2601812407614425 0.2056861609747042
[...]
<PointData  Vectors="f_40-0"> 
<DataArray  type="Float64"  Name="f_40-0"  NumberOfComponents="3" format="ascii">0.0000000000000000e+00 0.0000000000000000e+00 0.0000000000000000e+00  0.0000000000000000e+00 0.0000000000000000e+00 0.0000000000000000e+00  0.0000000000000000e+00 0.0000000000000000e+00 0.0000000000000000e+00  0.0000000000000000e+00 0.0000000000000000e+00 0.0000000000000000e+00  3.3408584702705438e-05 1.0112113321289716e-03 0.0000000000000000e+00  -4.2698204909167173e-05 1.0112028497941030e-03 0.0000000000000000e+00  0.0000000000000000e+00 0.0000000000000000e+00 0.0000000000000000e+00  0.0000000000000000e+00 0.0000000000000000e+00 0.0000000000000000e+00  0.0000000000000000e+00 0.0000000000000000e+00 0.0000000000000000e+00  0.0000000000000000e+00 0.0000000000000000e+00 0.0000000000000000e+00  -4.6320925061716036e-06 1.0112000094329762e-03 0.0000000000000000e+00  7.9591836734548407e-02 0.0000000000000000e+00 0.0000000000000000e+00  1.4693877550994527e-01 0.0000000000000000e+00 0.0000000000000000e+00  2.0204081632617479e-01 0.0000000000000000e+00 0.0000000000000000e+00  2.4489795918330076e-01 0.0000000000000000e+00 0.0000000000000000e+00  2.7551020408131754e-01 0.0000000000000000e+00 0.0000000000000000e+00  2.9387755102022350e-01 0.0000000000000000e+00 0.0000000000000000e+00  3.0000000000000004e-01 0.0000000000000000e+00 0.0000000000000000e+00  2.9387755102059482e-01 0.0000000000000000e+00 0.0000000000000000e+00  2.7551020408195548e-01 0.0000000000000000e+00 0.0000000000000000e+00  2.4489795918409071e-01 0.0000000000000000e+00 0.0000000000000000e+00  2.0204081632692525e-01 0.0000000000000000e+00 0.0000000000000000e+00  1.4693877551058568e-01 0.0000000000000000e+00 0.0000000000000000e+00  7.9591836734909230e-02 0.0000000000000000e+00 0.0000000000000000e+00  0.0000000000000000e+00 0.0000000000000000e+00 0.0000000000000000e+00  0.0000000000000000e+00 0.0000000000000000e+00 0.0000000000000000e+00  0.0000000000000000e+00 0.0000000000000000e+00 0.0000000000000000e+00  0.0000000000000000e+00 0.0000000000000000e+00 0.0000000000000000e+00  0.0000000000000000e+00 0.0000000000000000e+00 0.0000000000000000e+00  0.0000000000000000e+00 0.0000000000000000e+00 0.0000000000000000e+00  0.0000000000000000e+00 0.0000000000000000e+00 0.0000000000000000e+00  0.0000000000000000e+00 0.0000000000000000e+00 0.0000000000000000e+00  0.0000000000000000e+00 0.0000000000000000e+00 0.0000000000000000e+00  0.0000000000000000e+00 0.0000000000000000e+00 0.0000000000000000e+00  0.0000000000000000e+00 0.0000000000000000e+00 0.0000000000000000e+00  0.0000000000000000e+00 0.0000000000000000e+00 0.0000000000000000e+00  0.0000000000000000e+00 0.0000000000000000e+00 0.0000000000000000e+00  0.0000000000000000e+00 0.0000000000000000e+00 0.0000000000000000e+00  0.0000000000000000e+00 0.0000000000000000e+00 0.0000000000000000e+00  0.0000000000000000e+00 0.0000000000000000e+00 0.0000000000000000e+00  0.0000000000000000e+00 0.0000000000000000e+00 0.0000000000000000e+00  0.0000000000000000e+00 0.0000000000000000e+00 0.0000000000000000e+00  0.0000000000000000e+00 0.0000000000000000e+00 0.0000000000000000e+00  0.0000000000000000e+00 0.0000000000000000e+00 0.0000000000000000e+00  0.0000000000000000e+00 0.0000000000000000e+00 0.0000000000000000e+00  0.0000000000000000e+00 0.0000000000000000e+00 0.0000000000000000e+00  0.0000000000000000e+00 0.0000000000000000e+00 0.0000000000000000e+00  0.0000000000000000e+00 0.0000000000000000e+00 0.0000000000000000e+00  0.0000000000000000e+00 0.0000000000000000e+00 0.0000000000000000e+00  0.0000000000000000e+00 0.0000000000000000e+00 0.0000000000000000e+00  0.0000000000000000e+00 0.0000000000000000e+00 0.0000000000000000e+00  0.0000000000000000e+00 0.0000000000000000e+00 0.0000000000000000e+00  0.0000000000000000e+00 0.0000000000000000e+00 0.0000000000000000e+00  0.0000000000000000e+00 0.0000000000000000e+00 0.0000000000000000e+00  0.0000000000000000e+00 0.0000000000000000e+00 0.0000000000000000e+00  0.0000000000000000e+00 0.0000000000000000e+00 0.0000000000000000e+00  0.0000000000000000e+00 0.0000000000000000e+00 0.0000000000000000e+00  0.0000000000000000e+00 0.0000000000000000e+00 0.0000000000000000e+00  0.0000000000000000e+00 0.0000000000000000e+00 0.0000000000000000e+00  0.0000000000000000e+00 0.0000000000000000e+00 0.0000000000000000e+00  0.0000000000000000e+00 0.0000000000000000e+00 0.0000000000000000e+00  0.0000000000000000e+00 0.0000000000000000e+00 0.0000000000000000e+00  2.5078972386395543e-01 -8.5068759578376882e-03 0.0000000000000000e+00  2.8234979529805826e-01 1.6198225227797448e-03 0.0000000000000000e+00  2.5110942558249777e-01 9.8853533789122153e-03 0.0000000000000000e+00  0.0000000000000000e+00 0.0000000000000000e+00 0.0000000000000000e+00  0.0000000000000000e+00 0.0000000000000000e+00 0.0000000000000000e+00  0.0000000000000000e+00 0.0000000000000000e+00 0.0000000000000000e+00  0.0000000000000000e+00 0.0000000000000000e+00 0.0000000000000000e+00  0.0000000000000000e+00 0.0000000000000000e+00 0.0000000000000000e+00  0.0000000000000000e+00 0.0000000000000000e+00 0.0000000000000000e+00  0.0000000000000000e+00 0.0000000000000000e+00 0.0000000000000000e+00  0.0000000000000000e+00 0.0000000000000000e+00 0.0000000000000000e+00  0.0000000000000000e+00 0.0000000000000000e+00 0.0000000000000000e+00  0.0000000000000000e+00 0.0000000000000000e+00 0.0000000000000000e+00  0.0000000000000000e+00 0.0000000000000000e+00 0.0000000000000000e+00  0.0000000000000000e+00 0.0000000000000000e+00 0.0000000000000000e+00  0.0000000000000000e+00 0.0000000000000000e+00 0.0000000000000000e+00  0.0000000000000000e+00 0.0000000000000000e+00 0.0000000000000000e+00  0.0000000000000000e+00 0.0000000000000000e+00 0.0000000000000000e+00  0.0000000000000000e+00 0.0000000000000000e+00 0.0000000000000000e+00  0.0000000000000000e+00 0.0000000000000000e+00 0.0000000000000000e+00  0.0000000000000000e+00 0.0000000000000000e+00 0.0000000000000000e+00  0.0000000000000000e+00 0.0000000000000000e+00 0.0000000000000000e+00  0.0000000000000000e+00 0.0000000000000000e+00 0.0000000000000000e+00  0.0000000000000000e+00 0.0000000000000000e+00 0.0000000000000000e+00  0.0000000000000000e+00 0.0000000000000000e+00 0.0000000000000000e+00  0.0000000000000000e+00 0.0000000000000000e+00 0.0000000000000000e+00  0.0000000000000000e+00 0.0000000000000000e+00 0.0000000000000000e+00  0.0000000000000000e+00 0.0000000000000000e+00 0.0000000000000000e+00  0.0000000000000000e+00 0.0000000000000000e+00 0.0000000000000000e+00  0.0000000000000000e+00 0.0000000000000000e+00 0.0000000000000000e+00  0.0000000000000000e+00 0.0000000000000000e+00 0.0000000000000000e+00  0.0000000000000000e+00 0.0000000000000000e+00 0.0000000000000000e+00  0.0000000000000000e+00 0.0000000000000000e+00 0.0000000000000000e+00  0.0000000000000000e+00 0.0000000000000000e+00 0.0000000000000000e+00  0.0000000000000000e+00 0.0000000000000000e+00 0.0000000000000000e+00  0.0000000000000000e+00 0.0000000000000000e+00 0.0000000000000000e+00  0.0000000000000000e+00 0.0000000000000000e+00 0.0000000000000000e+00  0.0000000000000000e+00 0.0000000000000000e+00 0.0000000000000000e+00  0.0000000000000000e+00 0.0000000000000000e+00 0.0000000000000000e+00  0.0000000000000000e+00 0.0000000000000000e+00 0.0000000000000000e+00  0.0000000000000000e+00 0.0000000000000000e+00 0.0000000000000000e+00  0.0000000000000000e+00 0.0000000000000000e+00 0.0000000000000000e+00  0.0000000000000000e+00 0.0000000000000000e+00 0.0000000000000000e+00  0.0000000000000000e+00 0.0000000000000000e+00 0.0000000000000000e+00  0.0000000000000000e+00 0.0000000000000000e+00 0.0000000000000000e+00  0.0000000000000000e+00 0.0000000000000000e+00 0.0000000000000000e+00  0.0000000000000000e+00 0.0000000000000000e+00 0.0000000000000000e+00  0.0000000000000000e+00 0.0000000000000000e+00 0.0000000000000000e+00  0.0000000000000000e+00 0.0000000000000000e+00 0.0000000000000000e+00  0.0000000000000000e+00 0.0000000000000000e+00 0.0000000000000000e+00  0.0000000000000000e+00 0.0000000000000000e+00 0.0000000000000000e+00  0.0000000000000000e+00 0.0000000000000000e+00 0.0000000000000000e+00  0.0000000000000000e+00 0.0000000000000000e+00 0.0000000000000000e+00  0.0000000000000000e+00 0.0000000000000000e+00 0.0000000000000000e+00  0.0000000000000000e+00 0.0000000000000000e+00 0.0000000000000000e+00  0.0000000000000000e+00 0.0000000000000000e+00 0.0000000000000000e+00  0.0000000000000000e+00 0.0000000000000000e+00 0.0000000000000000e+00  0.0000000000000000e+00 0.0000000000000000e+00 0.0000000000000000e+00  0.0000000000000000e+00 0.0000000000000000e+00 0.0000000000000000e+00  0.0000000000000000e+00 0.0000000000000000e+00 0.0000000000000000e+00  0.0000000000000000e+00 0.0000000000000000e+00 0.0000000000000000e+00  0.0000000000000000e+00 0.0000000000000000e+00 0.0000000000000000e+00  0.0000000000000000e+00 0.0000000000000000e+00 0.0000000000000000e+00  0.0000000000000000e+00 0.0000000000000000e+00 0.0000000000000000e+00  0.0000000000000000e+00 0.0000000000000000e+00 0.0000000000000000e+00  0.0000000000000000e+00 0.0000000000000000e+00 0.0000000000000000e+00  0.0000000000000000e+00 0.0000000000000000e+00 0.0000000000000000e+00  0.0000000000000000e+00 0.0000000000000000e+00 0.0000000000000000e+00  0.0000000000000000e+00 0.0000000000000000e+00 0.0000000000000000e+00  0.0000000000000000e+00 0.0000000000000000e+00 0.0000000000000000e+00  0.0000000000000000e+00 0.0000000000000000e+00 0.0000000000000000e+00  0.0000000000000000e+00 0.0000000000000000e+00 0.0000000000000000e+00  0.0000000000000000e+00 0.0000000000000000e+00 0.0000000000000000e+00  0.0000000000000000e+00 0.0000000000000000e+00 0.0000000000000000e+00  0.0000000000000000e+00 0.0000000000000000e+00 0.0000000000000000e+00  0.0000000000000000e+00 0.0000000000000000e+00 0.0000000000000000e+00  0.0000000000000000e+00 0.0000000000000000e+00 0.0000000000000000e+00  0.0000000000000000e+00 0.0000000000000000e+00 0.0000000000000000e+00  0.0000000000000000e+00 0.0000000000000000e+00 0.0000000000000000e+00  0.0000000000000000e+00 0.0000000000000000e+00 0.0000000000000000e+00  0.0000000000000000e+00 0.0000000000000000e+00 0.0000000000000000e+00  -2.2846374248003944e-06 1.8876575420067846e-06 0.0000000000000000e+00  -4.8556637924604538e-06 4.5596812021469009e-06 0.0000000000000000e+00  -7.1083764977720241e-06 8.9137574614456247e-06 0.0000000000000000e+00  -9.5287475649687153e-06 1.5038220794823499e-05 0.0000000000000000e+00  -1.1536935003168578e-05 2.2629798155056529e-05 0.0000000000000000e+00  -1.3802408722527736e-05 3.1821092623207578e-05 0.0000000000000000e+00  -1.5614261119481242e-05 4.2189060618832449e-05 0.0000000000000000e+00  -1.7361962661272137e-05 5.4098548591085356e-05 0.0000000000000000e+00  -1.9358094018965207e-05 6.7167347090578490e-05 0.0000000000000000e+00  -2.0872020270332717e-05 8.1439571908097422e-05 0.0000000000000000e+00  -2.2708169262241799e-05 9.6886205357640852e-05 0.0000000000000000e+00  -2.4080870900075861e-05 1.1340935508563346e-04 0.0000000000000000e+00  -2.5691691937027788e-05 1.3096704451713134e-04 0.0000000000000000e+00  -2.6965198013707201e-05 1.4935788062143870e-04 0.0000000000000000e+00  -2.8188902978800153e-05 1.6877594332725932e-04 0.0000000000000000e+00  -2.9563824603315177e-05 1.8896128676936834e-04 0.0000000000000000e+00  -3.0605794616317443e-05 2.0993579142409259e-04 0.0000000000000000e+00  -3.1836395848156464e-05 2.3167263575578082e-04 0.0000000000000000e+00  -3.2752431840167128e-05 2.5408736189872725e-04 0.0000000000000000e+00  -3.3814147389652280e-05 2.7713340789431212e-04 0.0000000000000000e+00  -3.4652583547859048e-05 3.0078423927422458e-04 0.0000000000000000e+00  -3.5560191043028353e-05 3.2501072400000912e-04 0.0000000000000000e+00  -3.6281209967668225e-05 3.4965590714963030e-04 0.0000000000000000e+00  -3.6956780430666235e-05 3.7483671051513081e-04 0.0000000000000000e+00  -3.7680355623569247e-05 4.0037376335173028e-04 0.0000000000000000e+00  -3.8269475696530685e-05 4.2632450063188442e-04 0.0000000000000000e+00  -3.8841612079648118e-05 4.5262840863774853e-04 0.0000000000000000e+00  -3.9332753743749323e-05 4.7922076278391137e-04 0.0000000000000000e+00  -3.9802419335058081e-05 5.0611000349127936e-04 0.0000000000000000e+00  -4.0202720867928574e-05 5.3322410471339367e-04 0.0000000000000000e+00  -4.0580195931839866e-05 5.6057359040639454e-04 0.0000000000000000e+00  -4.0898536821746127e-05 5.8809311084574050e-04 0.0000000000000000e+00  -4.1194297912549487e-05 6.1579330229063545e-04 0.0000000000000000e+00  -4.1440752302435316e-05 6.4361712949484353e-04 0.0000000000000000e+00  -4.1665599884462568e-05 6.7157517790148618e-04 0.0000000000000000e+00  -4.1850808355179473e-05 6.9961906830727819e-04 0.0000000000000000e+00  -4.2016685459704140e-05 7.2775845895537556e-04 0.0000000000000000e+00  -4.2151500395058231e-05 7.5595391228895094e-04 0.0000000000000000e+00  -4.2269466626109007e-05 7.8421416650216534e-04 0.0000000000000000e+00  -4.2363998176705964e-05 8.1250797666797487e-04 0.0000000000000000e+00  -4.2445637291856769e-05 8.4084444713182168e-04 0.0000000000000000e+00  -4.2508983600990499e-05 8.6919845080156237e-04 0.0000000000000000e+00  -4.2559892515774981e-05 8.9757647514146911e-04 0.0000000000000000e+00  -4.2606633305351979e-05 9.2596600633717001e-04 0.0000000000000000e+00  -4.2641180081531508e-05 9.5436590178198132e-04 0.0000000000000000e+00  -4.2670265749117675e-05 9.8277645101577777e-04 0.0000000000000000e+00  -2.3657650141235384e-05 1.0111993856705376e-03 0.0000000000000000e+00  1.4388991071611234e-05 1.0112032453876434e-03 0.0000000000000000e+00  3.3420571746582230e-05 9.8279228354784722e-04 0.0000000000000000e+00  3.3428735190739361e-05 9.5437748118802081e-04 0.0000000000000000e+00  3.3437125734384383e-05 9.2596846724581452e-04 0.0000000000000000e+00  3.3440127422404495e-05 8.9757093994256203e-04 0.0000000000000000e+00  3.3444477715359140e-05 8.6918455779192653e-04 0.0000000000000000e+00  3.3445706886258854e-05 8.4082034696842420e-04 0.0000000000000000e+00  3.3433232989163122e-05 8.1247827927478206e-04 0.0000000000000000e+00  3.3426137673730965e-05 7.8416977254435556e-04 0.0000000000000000e+00  3.3393035603410021e-05 7.5590383175504650e-04 0.0000000000000000e+00  3.3369677694871776e-05 7.2769308967521936e-04 0.0000000000000000e+00  3.3307039480592540e-05 6.9954803620139174e-04 0.0000000000000000e+00  3.3259286846197011e-05 6.7148755841260090e-04 0.0000000000000000e+00  3.3156284497037669e-05 6.4352408236378173e-04 0.0000000000000000e+00  3.3075505552237664e-05 6.1568306075469967e-04 0.0000000000000000e+00  3.2920098650048847e-05 5.8797799617652283e-04 0.0000000000000000e+00  3.2796946011479042e-05 5.6044139382434288e-04 0.0000000000000000e+00  3.2576937992151251e-05 5.3308783447340261e-04 0.0000000000000000e+00  3.2401844945667046e-05 5.0595693601311023e-04 0.0000000000000000e+00  3.2104599276426724e-05 4.7906425378364191e-04 0.0000000000000000e+00  3.1867677891821465e-05 4.5245583075731856e-04 0.0000000000000000e+00  3.1477259510436297e-05 4.2615039391901896e-04 0.0000000000000000e+00  3.1164333062544438e-05 4.0020165275584958e-04 0.0000000000000000e+00  3.0677235953968831e-05 3.7463607389207721e-04 0.0000000000000000e+00  3.0254429701815239e-05 3.4945623548978820e-04 0.0000000000000000e+00  2.9790544434876137e-05 3.2481170079440183e-04 0.0000000000000000e+00  2.9160068529382979e-05 3.0056713982930331e-04 0.0000000000000000e+00  2.8562900621442483e-05 2.7693600191931760e-04 0.0000000000000000e+00  2.7835273350080141e-05 2.5385828983267233e-04 0.0000000000000000e+00  2.7115837529480099e-05 2.3145523543622267e-04 0.0000000000000000e+00  2.6264320242709973e-05 2.0971265035806257e-04 0.0000000000000000e+00  2.5420004035745415e-05 1.8870704668898965e-04 0.0000000000000000e+00  2.4345425690638990e-05 1.6857206883902373e-04 0.0000000000000000e+00  2.3408092682311956e-05 1.4914289718474536e-04 0.0000000000000000e+00  2.2413175663143486e-05 1.3076662679318207e-04 0.0000000000000000e+00  2.1129682851288301e-05 1.1314476026819574e-04 0.0000000000000000e+00  1.9913842417423715e-05 9.6663350288586067e-05 0.0000000000000000e+00  1.8506186876376636e-05 8.1208164234865344e-05 0.0000000000000000e+00  1.7132566444853436e-05 6.6890162264271211e-05 0.0000000000000000e+00  1.5429312266691553e-05 5.3895048673208609e-05 0.0000000000000000e+00  1.3944394502326737e-05 4.1965428396558538e-05 0.0000000000000000e+00  1.2393874381575538e-05 3.1600908151632192e-05 0.0000000000000000e+00  1.0420956860697827e-05 2.2365294416984584e-05 0.0000000000000000e+00  8.6049570066843271e-06 1.4751702159428074e-05 0.0000000000000000e+00  6.4186120581162377e-06 8.7106696544144970e-06 0.0000000000000000e+00  4.4499785455747179e-06 4.3337305343574629e-06 0.0000000000000000e+00  2.0967297081925742e-06 1.6523956136564977e-06 0.0000000000000000e+00  -1.6016285197644097e-07 1.8812356174258397e-06 0.0000000000000000e+00  -5.0929641241307879e-06 9.6850668390161378e-04 0.0000000000000000e+00  -5.3479824346491515e-06 9.1421564340077787e-04 0.0000000000000000e+00  -4.9013225362147597e-06 8.2562357047322036e-04 0.0000000000000000e+00  -3.7992334749556154e-07 1.0595557259148217e-05 0.0000000000000000e+00  -4.3934055522253056e-06 7.7001938644942925e-04 0.0000000000000000e+00  -4.7600858900279278e-07 2.5185651455291445e-05 0.0000000000000000e+00  -4.2896235825162020e-06 7.1359273760218927e-04 0.0000000000000000e+00  -7.9387569104811195e-07 6.0072991049622999e-05 0.0000000000000000e+00  -1.2917915733374584e-06 8.8193999812183281e-05 0.0000000000000000e+00  -4.1639483674211455e-06 6.5746240109719348e-04 0.0000000000000000e+00  -1.6286930167222079e-06 1.7895588786948294e-04 0.0000000000000000e+00  -3.8429201504185856e-06 5.4667088421174763e-04 0.0000000000000000e+00  -1.2532542969225884e-06 1.1985243179489121e-04 0.0000000000000000e+00  -2.2667388377242602e-06 2.2014076786756832e-04 0.0000000000000000e+00  -3.6479746674183036e-06 4.9238179592611675e-04 0.0000000000000000e+00  -4.0151225574703907e-06 6.0176524015109051e-04 0.0000000000000000e+00  -2.5440649809107429e-06 2.6501958432872328e-04 0.0000000000000000e+00  -3.4297863629672206e-06 4.3913355220376359e-04 0.0000000000000000e+00  -2.3805082982954025e-06 3.1040542043424409e-04 0.0000000000000000e+00  -3.6356082745685740e-06 3.8825084196354590e-04 0.0000000000000000e+00  -2.9858802144446115e-06 3.4728950439994946e-04 0.0000000000000000e+00  -1.8089777912665155e-06 1.4716630826014054e-04 0.0000000000000000e+00  -4.4576827748624482e-06 8.7166424638567127e-04 0.0000000000000000e+00  -8.0574522834656345e-07 4.0520742735876341e-05 0.0000000000000000e+00  8.1307690376693478e-06 9.4116557409851449e-04 0.0000000000000000e+00  1.7997932657267243e-06 5.4730551336002481e-06 0.0000000000000000e+00  6.6282631645756998e-06 7.4177417599652058e-04 0.0000000000000000e+00  6.5757691213766526e-06 7.9830816581002387e-04 0.0000000000000000e+00  -4.0199021497434115e-06 1.7633248373590794e-05 0.0000000000000000e+00  -6.6861193055693979e-06 7.3414237373892026e-05 0.0000000000000000e+00  6.7672916777717527e-06 5.7412965135647542e-04 0.0000000000000000e+00  6.6805748490760218e-06 6.8548026054579634e-04 0.0000000000000000e+00  -1.0265368599390791e-05 1.9884160990274577e-04 0.0000000000000000e+00  6.7896255599555127e-06 5.1941244708989909e-04 0.0000000000000000e+00  -7.7853005809171264e-06 1.0434070725366578e-04 0.0000000000000000e+00  -1.1088169465794331e-05 2.4234328908584411e-04 0.0000000000000000e+00  6.7891085091325922e-06 4.6561460173911534e-04 0.0000000000000000e+00  6.7287876927072502e-06 6.2954762122198135e-04 0.0000000000000000e+00  -1.3849082264736339e-05 2.8824123973213937e-04 0.0000000000000000e+00  6.7636787076798491e-06 4.1298781319058889e-04 0.0000000000000000e+00  -4.3953750581839972e-07 4.3086013966046982e-07 0.0000000000000000e+00  2.8928435048726657e-07 3.4068859146589691e-07 0.0000000000000000e+00  -1.3867326539053954e-05 9.9085466265435825e-04 0.0000000000000000e+00  -2.5515001567254034e-06 5.5699110032305471e-06 0.0000000000000000e+00  9.0073954133280454e-06 3.6747155320397191e-04 0.0000000000000000