<?xml version="1.0"?>
<VTKFile type="UnstructuredGrid"  version="0.1"  >
<UnstructuredGrid>
<Piece  NumberOfPoints="1419" NumberOfCells="2698">
<Points>
<DataArray  type="Float64"  NumberOfComponents="3"  format="ascii">0 0 0  0 0.41 0  2.5 0 0  2.5 0.41 0  0.6 0.19 0  0.6 0.21 0  0.25 0.2 0  0.15 0.2 0  0.2489897948556636 0.21 0  0.2489897948556636 0.19 0  0.6 0.2 0  0 0.3807142857143437 0  0 0.3514285714286952 0  0 0.3221428571430699 0  0 0.29285714285744 0  0 0.2635714285718054 0  0 0.2342857142861561 0  0 0.2050000000005308 0  0 0.175714285714732 0  0 0.1464285714289574 0  0 0.1171428571431897 0  0 0.08785714285737878 0  0 0.05857142857161107 0  0 0.02928571428580012 0  0.03015443760436003 0 0  0.06140001986583606 0 0  0.09377624077125973 0 0  0.1273239957535082 0 0  0.1620856860351972 0 0  0.1981052433264291 0 0  0.235428184091502 0 0  0.2741016576309132 0 0  0.3141745521465447 0 0  0.3556974926295285 0 0  0.3987229542472677 0 0  0.4433053055141081 0 0  0.4895008759286886 0 0  0.5373680609405097 0 0  0.5869673343216626 0 0  0.6383613676634521 0 0  0.6916151138468254 0 0  0.7467958595648856 0 0  0.8039733463919316 0 0  0.8632198139502143 0 0  0.9246101326867038 0 0  0.9882218810934433 0 0  1.054135445558498 0 0  1.122434100542598 0 0  1.193204177141305 0 0  1.266535089879536 0 0  1.342519516046404 0 0  1.421253448503939 0 0  1.502836389106271 0 0  1.587371439758838 0 0  1.674965418777374 0 0  1.765729001825544 0 0  1.859776908880082 0 0  1.957227977487062 0 0  2.058205329869943 0 0  2.162836591189951 0 0  2.271253957290865 0 0  2.383594446803425 0 0  2.5 0.1024999999997612 0  2.5 0.2049999999994743 0  2.5 0.3074999999997183 0  2.383594446803656 0.41 0  2.271253957291315 0.41 0  2.162836591190598 0.41 0  2.058205329870775 0.41 0  1.957227977488067 0.41 0  1.859776908881246 0.41 0  1.765729001826854 0.41 0  1.674965418778818 0.41 0  1.58737143976041 0.41 0  1.502836389107956 0.41 0  1.421253448505726 0.41 0  1.342519516048286 0.41 0  1.266535089881505 0.41 0  1.193204177143353 0.41 0  1.122434100544716 0.41 0  1.05413544556068 0.41 0  0.9882218810956305 0.41 0  0.9246101326886647 0.41 0  0.8632198139519631 0.41 0  0.8039733463934788 0.41 0  0.7467958595662458 0.41 0  0.6916151138480078 0.41 0  0.6383613676644679 0.41 0  0.5869673343225223 0.41 0  0.5373680609412221 0.41 0  0.4895008759292634 0.41 0  0.4433053055145528 0.41 0  0.3987229542475914 0.41 0  0.3556974926297398 0.41 0  0.3141745521466497 0.41 0  0.2741016576310038 0.41 0  0.2354281840915826 0.41 0  0.1981052433265003 0.41 0  0.1620856860352591 0.41 0  0.1273239957535623 0.41 0  0.09377624077128965 0.41 0  0.06140001986584975 0.41 0  0.03015443760436654 0.41 0  0.2497468076502589 0.2050254481002335 0  0.2497468076502614 0.1949745518997913 0  0.2469965252529372 0.1829317073451959 0  0.2439893735792749 0.1762316384219906 0  0.2400332147834255 0.1700443375285386 0  0.2352133972704371 0.1645032867342007 0  0.2296339016332438 0.1597280261969788 0  0.2234150974217223 0.1558215752574715 0  0.2166911463437691 0.1528682099456123 0  0.2096071079204251 0.1509316448471593 0  0.2023158100364996 0.1500536585536553 0  0.194974551899914 0.1502531923497262 0  0.1877417105387872 0.1515259415822739 0  0.1807733240461124 0.153844448527136 0  0.1742197252835808 0.15715869474974 0  0.1682222986673531 0.1613971801805478 0  0.162910430003803 0.1664684656256651 0  0.1583987151779087 0.1722631454351573 0  0.1547844879126891 0.178656207771761 0  0.1521457199348551 0.1855097315605723 0  0.1505393388476355 0.1926758619366523 0  0.1505393388476328 0.2073241380633295 0  0.1521457199348437 0.2144902684393899 0  0.1547844879126531 0.221343792228163 0  0.1583987151778488 0.2277368545647528 0  0.1629104300036858 0.2335315343742052 0  0.1682222986671726 0.2386028198193036 0  0.1742197252833576 0.2428413052501257 0  0.1807733240458683 0.2461555514727623 0  0.1877417105384929 0.2484740584176516 0  0.1949745518995776 0.2497468076502398 0  0.202315810036185 0.2499463414463592 0  0.2096071079201568 0.2490683551528932 0  0.2166911463435495 0.2471317900544655 0  0.2234150974215506 0.2441784247426195 0  0.2296339016331197 0.2402719738031125 0  0.2352133972703547 0.2354967132658811 0  0.2400332147833751 0.2299556624715287 0  0.2439893735792577 0.2237683615780412 0  0.246996525252926 0.2170682926548348 0  0.25645809709277 0.21 0  0.2639263993298655 0.21 0  0.271394701566961 0.21 0  0.2788630038040554 0.21 0  0.2863313060411479 0.21 0  0.2937996082782405 0.21 0  0.301267910515333 0.21 0  0.3087362127524279 0.21 0  0.3162045149895234 0.21 0  0.3236728172265972 0.21 0  0.3311411194636928 0.21 0  0.3386094217007701 0.21 0  0.3460777239378666 0.21 0  0.3535460261749672 0.21 0  0.3610143284120516 0.21 0  0.3684826306491596 0.21 0  0.3759509328862226 0.21 0  0.383419235123329 0.21 0  0.3908875373604028 0.21 0  0.3983558395975142 0.21 0  0.4058241418345938 0.21 0  0.4132924440716992 0.21 0  0.4207607463087888 0.21 0  0.4282290485459029 0.21 0  0.4356973507830418 0.21 0  0.4431656530201649 0.21 0  0.4506339552573136 0.21 0  0.4581022574944306 0.21 0  0.4655705597315852 0.21 0  0.4730388619686996 0.21 0  0.480507164205851 0.21 0  0.4879754664429498 0.21 0  0.4954437686800938 0.21 0  0.502912070917267 0.21 0  0.5103803731544119 0.21 0  0.5178486753915261 0.21 0  0.5253169776286404 0.21 0  0.5327852798657868 0.21 0  0.5402535821029386 0.21 0  0.54772188434007 0.21 0  0.5551901865771842 0.21 0  0.5626584888143201 0.21 0  0.5701267910514778 0.21 0  0.5775950932886138 0.21 0  0.5850633955257281 0.21 0  0.5925316977628483 0.21 0  0.6 0.2050000000000054 0  0.6 0.1950000000000217 0  0.5925316977628897 0.19 0  0.5850633955257988 0.19 0  0.5775950932887378 0.19 0  0.5701267910515998 0.19 0  0.5626584888145268 0.19 0  0.5551901865773963 0.19 0  0.547721884340339 0.19 0  0.5402535821032429 0.19 0  0.5327852798661811 0.19 0  0.5253169776290537 0.19 0  0.5178486753919799 0.19 0  0.5103803731549078 0.19 0  0.502912070917822 0.19 0  0.4954437686807294 0.19 0  0.4879754664436223 0.19 0  0.4805071642065402 0.19 0  0.4730388619694271 0.19 0  0.4655705597323621 0.19 0  0.4581022574952563 0.19 0  0.4506339552581777 0.19 0  0.4431656530210671 0.19 0  0.4356973507839815 0.19 0  0.4282290485468779 0.19 0  0.4207607463097617 0.19 0  0.4132924440726327 0.19 0  0.4058241418354857 0.19 0  0.3983558395983636 0.19 0  0.3908875373612097 0.19 0  0.3834192351240934 0.19 0  0.3759509328869369 0.19 0  0.3684826306498175 0.19 0  0.361014328412667 0.19 0  0.3535460261755617 0.19 0  0.3460777239384295 0.19 0  0.3386094217012945 0.19 0  0.3311411194641595 0.19 0  0.3236728172270245 0.19 0  0.3162045149898895 0.19 0  0.3087362127527544 0.19 0  0.3012679105156187 0.19 0  0.2937996082784807 0.19 0  0.2863313060413428 0.19 0  0.2788630038042048 0.19 0  0.2713947015670686 0.19 0  0.2639263993299336 0.19 0  0.2564580970927985 0.19 0  0.2607803159922026 0.2000727136295815 0  0.5887803774232762 0.2001272386983733 0  0.5745072403740523 0.2002044435018727 0  0.5511891430099709 0.2001122610077113 0  0.2751288526855082 0.20000000000002 0  0.5365194309847112 0.1999999999999436 0  0.2894621222999649 0.1998691686390484 0  0.5215828265105155 0.1999999999999228 0  0.3127789816668748 0.1998657885438805 0  0.3274069683451451 0.2000000000000796 0  0.5066462220363641 0.199999999999908 0  0.3650630746574081 0.199866017807523 0  0.476773013087985 0.1999999999998713 0  0.3417402379596385 0.1998691686391011 0  0.3796850840047755 0.200000000000134 0  0.4618364086138087 0.1999999999998546 0  0.4917096175621762 0.1999999999998808 0  0.3946216884789568 0.2000000000001512 0  0.446899804139621 0.1999999999998389 0  0.4089549580935208 0.1998691686391595 0  0.4322718174608562 0.200127451265745 0  0.4201487168029707 0.1999966199048527 0  0.3528922713220932 0.2000185703532356 0  0.5633122436674589 0.1999814296467508 0  0.3006558810093873 0.1999966199048318 0  0.5815926498168407 0.1966545283159175 0  0.2677053789419034 0.1964246479135325 0  0.5290511287476175 0.1970915826863981 0  0.5439877332217911 0.197091582686394 0  0.2825131256993216 0.2035478995978015 0  0.3199386661080599 0.202908417313604 0  0.4842413153250809 0.1970915826863873 0  0.5141145242734466 0.1970915826863843 0  0.3722167817676917 0.2029084173136195 0  0.4693047108508938 0.1970915826863783 0  0.3348752705822316 0.202908417313609 0  0.3871533862418661 0.2029084173136212 0  0.4543681063767183 0.1970915826863795 0  0.4991779197992749 0.1970915826863902 0  0.4020059614928624 0.203547899597858 0  0.4394315019025246 0.1970915826863714 0  0.2550657455369551 0.2034088125358657 0  0.2548908499171161 0.1966940311614271 0  0.5946539510196798 0.2024302972968126 0  0.267698176732111 0.2039977513680092 0  0.4261685417851465 0.196409292431739 0  0.3590076176283495 0.196411355804271 0  0.5571672426447437 0.2036011176410121 0  0.3066757059912147 0.1964092924317024 0  0.594380730180568 0.1966558399668133 0  0.4842413153245942 0.2040749161535287 0  0.4693047108503577 0.2040749161535231 0  0.3871533862424271 0.1959250838464788 0  0.372246743208829 0.1959123236376545 0  0.5141145242731028 0.2040749161535395 0  0.4543681063761134 0.2040749161535186 0  0.4019979587101454 0.1959834479682427 0  0.4394608940728603 0.2040870543693135 0  0.5439623148931173 0.2040856076781014 0  0.5290511287473298 0.2040749161535501 0  0.4991779197988497 0.2040749161535382 0  0.3347912413592433 0.1959225448935183 0  0.3199680582793816 0.1959123018030061 0  0.2825051229162361 0.1959834479681729 0  0.3590471196690275 0.2036304442587945 0  0.5571594006495384 0.1963685282145804 0  0.3067669986803285 0.203627750582736 0  0.4262598344738712 0.2036568242185335 0  0.5814408164431408 0.2041285596160068 0  0.5688286748170428 0.1961819304477386 0  0.4145905603063645 0.2038180695522843 0  0.3473758401724931 0.2038180695522752 0  0.2950977245128307 0.2038180695522663 0  0.5688286748170693 0.203818069552238 0  0.2950977245127906 0.1961819304477774 0  0.3473758401723931 0.1961819304478349 0  0.4145905603061963 0.1961819304479011 0  0.2601812407614425 0.2056861609747042
[...]
<PointData  Vectors="f_40-0"> 
<DataArray  type="Float64"  Name="f_40-0"  NumberOfComponents="3" format="ascii">0.0000000000000000e+00 0.0000000000000000e+00 0.0000000000000000e+00  0.0000000000000000e+00 0.0000000000000000e+00 0.0000000000000000e+00  0.0000000000000000e+00 0.0000000000000000e+00 0.0000000000000000e+00  0.0000000000000000e+00 0.0000000000000000e+00 0.0000000000000000e+00  5.1995822683160041e-07 -5.1189017451790990e-05 0.0000000000000000e+00  4.5632091006558121e-06 -5.3534779408968232e-05 0.0000000000000000e+00  0.0000000000000000e+00 0.0000000000000000e+00 0.0000000000000000e+00  0.0000000000000000e+00 0.0000000000000000e+00 0.0000000000000000e+00  0.0000000000000000e+00 0.0000000000000000e+00 0.0000000000000000e+00  0.0000000000000000e+00 0.0000000000000000e+00 0.0000000000000000e+00  2.3105626731225432e-06 -5.2363055631602115e-05 0.0000000000000000e+00  6.8814873502854763e-03 0.0000000000000000e+00 0.0000000000000000e+00  1.2704284338989416e-02 0.0000000000000000e+00 0.0000000000000000e+00  1.7468390966110449e-02 0.0000000000000000e+00 0.0000000000000000e+00  2.1173807231654095e-02 0.0000000000000000e+00 0.0000000000000000e+00  2.3820533135619871e-02 0.0000000000000000e+00 0.0000000000000000e+00  2.5408568678007615e-02 0.0000000000000000e+00 0.0000000000000000e+00  2.5937913858815744e-02 0.0000000000000000e+00 0.0000000000000000e+00  2.5408568678039724e-02 0.0000000000000000e+00 0.0000000000000000e+00  2.3820533135675018e-02 0.0000000000000000e+00 0.0000000000000000e+00  2.1173807231722394e-02 0.0000000000000000e+00 0.0000000000000000e+00  1.7468390966175331e-02 0.0000000000000000e+00 0.0000000000000000e+00  1.2704284339044780e-02 0.0000000000000000e+00 0.0000000000000000e+00  6.8814873503166727e-03 0.0000000000000000e+00 0.0000000000000000e+00  0.0000000000000000e+00 0.0000000000000000e+00 0.0000000000000000e+00  0.0000000000000000e+00 0.0000000000000000e+00 0.0000000000000000e+00  0.0000000000000000e+00 0.0000000000000000e+00 0.0000000000000000e+00  0.0000000000000000e+00 0.0000000000000000e+00 0.0000000000000000e+00  0.0000000000000000e+00 0.0000000000000000e+00 0.0000000000000000e+00  0.0000000000000000e+00 0.0000000000000000e+00 0.0000000000000000e+00  0.0000000000000000e+00 0.0000000000000000e+00 0.0000000000000000e+00  0.0000000000000000e+00 0.0000000000000000e+00 0.0000000000000000e+00  0.0000000000000000e+00 0.0000000000000000e+00 0.0000000000000000e+00  0.0000000000000000e+00 0.0000000000000000e+00 0.0000000000000000e+00  0.0000000000000000e+00 0.0000000000000000e+00 0.0000000000000000e+00  0.0000000000000000e+00 0.0000000000000000e+00 0.0000000000000000e+00  0.0000000000000000e+00 0.0000000000000000e+00 0.0000000000000000e+00  0.0000000000000000e+00 0.0000000000000000e+00 0.0000000000000000e+00  0.0000000000000000e+00 0.0000000000000000e+00 0.0000000000000000e+00  0.0000000000000000e+00 0.0000000000000000e+00 0.0000000000000000e+00  0.0000000000000000e+00 0.0000000000000000e+00 0.0000000000000000e+00  0.0000000000000000e+00 0.0000000000000000e+00 0.0000000000000000e+00  0.0000000000000000e+00 0.0000000000000000e+00 0.0000000000000000e+00  0.0000000000000000e+00 0.0000000000000000e+00 0.0000000000000000e+00  0.0000000000000000e+00 0.0000000000000000e+00 0.0000000000000000e+00  0.0000000000000000e+00 0.0000000000000000e+00 0.0000000000000000e+00  0.0000000000000000e+00 0.0000000000000000e+00 0.0000000000000000e+00  0.0000000000000000e+00 0.0000000000000000e+00 0.0000000000000000e+00  0.0000000000000000e+00 0.0000000000000000e+00 0.0000000000000000e+00  0.0000000000000000e+00 0.0000000000000000e+00 0.0000000000000000e+00  0.0000000000000000e+00 0.0000000000000000e+00 0.0000000000000000e+00  0.0000000000000000e+00 0.0000000000000000e+00 0.0000000000000000e+00  0.0000000000000000e+00 0.0000000000000000e+00 0.0000000000000000e+00  0.0000000000000000e+00 0.0000000000000000e+00 0.0000000000000000e+00  0.0000000000000000e+00 0.0000000000000000e+00 0.0000000000000000e+00  0.0000000000000000e+00 0.0000000000000000e+00 0.0000000000000000e+00  0.0000000000000000e+00 0.0000000000000000e+00 0.0000000000000000e+00  0.0000000000000000e+00 0.0000000000000000e+00 0.0000000000000000e+00  0.0000000000000000e+00 0.0000000000000000e+00 0.0000000000000000e+00  0.0000000000000000e+00 0.0000000000000000e+00 0.0000000000000000e+00  0.0000000000000000e+00 0.0000000000000000e+00 0.0000000000000000e+00  0.0000000000000000e+00 0.0000000000000000e+00 0.0000000000000000e+00  2.1531357242765368e-02 2.6879904568846523e-04 0.0000000000000000e+00  1.7161381715870533e-02 -3.2109206074706392e-05 0.0000000000000000e+00  2.1423435874232507e-02 -4.0462335630696652e-04 0.0000000000000000e+00  0.0000000000000000e+00 0.0000000000000000e+00 0.0000000000000000e+00  0.0000000000000000e+00 0.0000000000000000e+00 0.0000000000000000e+00  0.0000000000000000e+00 0.0000000000000000e+00 0.0000000000000000e+00  0.0000000000000000e+00 0.0000000000000000e+00 0.0000000000000000e+00  0.0000000000000000e+00 0.0000000000000000e+00 0.0000000000000000e+00  0.0000000000000000e+00 0.0000000000000000e+00 0.0000000000000000e+00  0.0000000000000000e+00 0.0000000000000000e+00 0.0000000000000000e+00  0.0000000000000000e+00 0.0000000000000000e+00 0.0000000000000000e+00  0.0000000000000000e+00 0.0000000000000000e+00 0.0000000000000000e+00  0.0000000000000000e+00 0.0000000000000000e+00 0.0000000000000000e+00  0.0000000000000000e+00 0.0000000000000000e+00 0.0000000000000000e+00  0.0000000000000000e+00 0.0000000000000000e+00 0.0000000000000000e+00  0.0000000000000000e+00 0.0000000000000000e+00 0.0000000000000000e+00  0.0000000000000000e+00 0.0000000000000000e+00 0.0000000000000000e+00  0.0000000000000000e+00 0.0000000000000000e+00 0.0000000000000000e+00  0.0000000000000000e+00 0.0000000000000000e+00 0.0000000000000000e+00  0.0000000000000000e+00 0.0000000000000000e+00 0.0000000000000000e+00  0.0000000000000000e+00 0.0000000000000000e+00 0.0000000000000000e+00  0.0000000000000000e+00 0.0000000000000000e+00 0.0000000000000000e+00  0.0000000000000000e+00 0.0000000000000000e+00 0.0000000000000000e+00  0.0000000000000000e+00 0.0000000000000000e+00 0.0000000000000000e+00  0.0000000000000000e+00 0.0000000000000000e+00 0.0000000000000000e+00  0.0000000000000000e+00 0.0000000000000000e+00 0.0000000000000000e+00  0.0000000000000000e+00 0.0000000000000000e+00 0.0000000000000000e+00  0.0000000000000000e+00 0.0000000000000000e+00 0.0000000000000000e+00  0.0000000000000000e+00 0.0000000000000000e+00 0.0000000000000000e+00  0.0000000000000000e+00 0.0000000000000000e+00 0.0000000000000000e+00  0.0000000000000000e+00 0.0000000000000000e+00 0.0000000000000000e+00  0.0000000000000000e+00 0.0000000000000000e+00 0.0000000000000000e+00  0.0000000000000000e+00 0.0000000000000000e+00 0.0000000000000000e+00  0.0000000000000000e+00 0.0000000000000000e+00 0.0000000000000000e+00  0.0000000000000000e+00 0.0000000000000000e+00 0.0000000000000000e+00  0.0000000000000000e+00 0.0000000000000000e+00 0.0000000000000000e+00  0.0000000000000000e+00 0.0000000000000000e+00 0.0000000000000000e+00  0.0000000000000000e+00 0.0000000000000000e+00 0.0000000000000000e+00  0.0000000000000000e+00 0.0000000000000000e+00 0.0000000000000000e+00  0.0000000000000000e+00 0.0000000000000000e+00 0.0000000000000000e+00  0.0000000000000000e+00 0.0000000000000000e+00 0.0000000000000000e+00  0.0000000000000000e+00 0.0000000000000000e+00 0.0000000000000000e+00  0.0000000000000000e+00 0.0000000000000000e+00 0.0000000000000000e+00  0.0000000000000000e+00 0.0000000000000000e+00 0.0000000000000000e+00  0.0000000000000000e+00 0.0000000000000000e+00 0.0000000000000000e+00  0.0000000000000000e+00 0.0000000000000000e+00 0.0000000000000000e+00  0.0000000000000000e+00 0.0000000000000000e+00 0.0000000000000000e+00  0.0000000000000000e+00 0.0000000000000000e+00 0.0000000000000000e+00  0.0000000000000000e+00 0.0000000000000000e+00 0.0000000000000000e+00  0.0000000000000000e+00 0.0000000000000000e+00 0.0000000000000000e+00  0.0000000000000000e+00 0.0000000000000000e+00 0.0000000000000000e+00  0.0000000000000000e+00 0.0000000000000000e+00 0.0000000000000000e+00  0.0000000000000000e+00 0.0000000000000000e+00 0.0000000000000000e+00  0.0000000000000000e+00 0.0000000000000000e+00 0.0000000000000000e+00  0.0000000000000000e+00 0.0000000000000000e+00 0.0000000000000000e+00  0.0000000000000000e+00 0.0000000000000000e+00 0.0000000000000000e+00  0.0000000000000000e+00 0.0000000000000000e+00 0.0000000000000000e+00  0.0000000000000000e+00 0.0000000000000000e+00 0.0000000000000000e+00  0.0000000000000000e+00 0.0000000000000000e+00 0.0000000000000000e+00  0.0000000000000000e+00 0.0000000000000000e+00 0.0000000000000000e+00  0.0000000000000000e+00 0.0000000000000000e+00 0.0000000000000000e+00  0.0000000000000000e+00 0.0000000000000000e+00 0.0000000000000000e+00  0.0000000000000000e+00 0.0000000000000000e+00 0.0000000000000000e+00  0.0000000000000000e+00 0.0000000000000000e+00 0.0000000000000000e+00  0.0000000000000000e+00 0.0000000000000000e+00 0.0000000000000000e+00  0.0000000000000000e+00 0.0000000000000000e+00 0.0000000000000000e+00  0.0000000000000000e+00 0.0000000000000000e+00 0.0000000000000000e+00  0.0000000000000000e+00 0.0000000000000000e+00 0.0000000000000000e+00  0.0000000000000000e+00 0.0000000000000000e+00 0.0000000000000000e+00  0.0000000000000000e+00 0.0000000000000000e+00 0.0000000000000000e+00  0.0000000000000000e+00 0.0000000000000000e+00 0.0000000000000000e+00  0.0000000000000000e+00 0.0000000000000000e+00 0.0000000000000000e+00  0.0000000000000000e+00 0.0000000000000000e+00 0.0000000000000000e+00  0.0000000000000000e+00 0.0000000000000000e+00 0.0000000000000000e+00  0.0000000000000000e+00 0.0000000000000000e+00 0.0000000000000000e+00  0.0000000000000000e+00 0.0000000000000000e+00 0.0000000000000000e+00  0.0000000000000000e+00 0.0000000000000000e+00 0.0000000000000000e+00  0.0000000000000000e+00 0.0000000000000000e+00 0.0000000000000000e+00  0.0000000000000000e+00 0.0000000000000000e+00 0.0000000000000000e+00  0.0000000000000000e+00 0.0000000000000000e+00 0.0000000000000000e+00  0.0000000000000000e+00 0.0000000000000000e+00 0.0000000000000000e+00  4.1602263314913641e-07 -2.2900922108836021e-06 0.0000000000000000e+00  9.2576961393419347e-07 -2.5873050335600744e-06 0.0000000000000000e+00  1.5366065809562057e-06 -2.8392909316115983e-06 0.0000000000000000e+00  2.2042014638178149e-06 -3.1130798547662394e-06 0.0000000000000000e+00  2.8590001875126315e-06 -3.4564133354479930e-06 0.0000000000000000e+00  3.5019844062228540e-06 -3.9028450910303843e-06 0.0000000000000000e+00  4.1049718024794339e-06 -4.4071192580361174e-06 0.0000000000000000e+00  4.6776354925393113e-06 -4.9899362938884907e-06 0.0000000000000000e+00  5.2451165779720087e-06 -5.6363494021963880e-06 0.0000000000000000e+00  5.7591416155126069e-06 -6.3351114013364058e-06 0.0000000000000000e+00  6.2654759070962402e-06 -7.1098676491949101e-06 0.0000000000000000e+00  6.7217514774687419e-06 -7.9244839540847288e-06 0.0000000000000000e+00  7.1612555205982797e-06 -8.8016470258093132e-06 0.0000000000000000e+00  7.5626616100686434e-06 -9.7213857643119828e-06 0.0000000000000000e+00  7.9311908853800741e-06 -1.0690706527460720e-05 0.0000000000000000e+00  8.2871265315807220e-06 -1.1705430753207045e-05 0.0000000000000000e+00  8.5956321324399493e-06 -1.2747045790695844e-05 0.0000000000000000e+00  8.8871223263651609e-06 -1.3845238426311526e-05 0.0000000000000000e+00  9.1360419177939924e-06 -1.4958340839325903e-05 0.0000000000000000e+00  9.3664377270924299e-06 -1.6122337932865545e-05 0.0000000000000000e+00  9.5582572729774079e-06 -1.7298824907319033e-05 0.0000000000000000e+00  9.7226752003537488e-06 -1.8514832034296674e-05 0.0000000000000000e+00  9.8581035155467012e-06 -1.9751408786019115e-05 0.0000000000000000e+00  9.9612038903796283e-06 -2.1012107714438224e-05 0.0000000000000000e+00  1.0046919529657468e-05 -2.2298201697194607e-05 0.0000000000000000e+00  1.0094147423320215e-05 -2.3592676997510376e-05 0.0000000000000000e+00  1.0113255148368750e-05 -2.4924416286185909e-05 0.0000000000000000e+00  1.0101740309829573e-05 -2.6252991655605357e-05 0.0000000000000000e+00  1.0062334536541841e-05 -2.7615069803235910e-05 0.0000000000000000e+00  9.9931627902554806e-06 -2.8973051037457164e-05 0.0000000000000000e+00  9.8962753919013657e-06 -3.0360997477284300e-05 0.0000000000000000e+00  9.7694097167439026e-06 -3.1742063987636277e-05 0.0000000000000000e+00  9.6156261151731952e-06 -3.3151422920104632e-05 0.0000000000000000e+00  9.4315574676901349e-06 -3.4550359395787585e-05 0.0000000000000000e+00  9.2188678771234442e-06 -3.5977135686328660e-05 0.0000000000000000e+00  8.9774926437788533e-06 -3.7392659367005647e-05 0.0000000000000000e+00  8.7086985352986727e-06 -3.8833157967128967e-05 0.0000000000000000e+00  8.4109339407508118e-06 -4.0261904407564959e-05 0.0000000000000000e+00  8.0844917547715054e-06 -4.1714270582693269e-05 0.0000000000000000e+00  7.7276617288826666e-06 -4.3153475450350380e-05 0.0000000000000000e+00  7.3379865621821655e-06 -4.4608595202663812e-05 0.0000000000000000e+00  6.9253935766115707e-06 -4.6060737949585048e-05 0.0000000000000000e+00  6.4792178694197955e-06 -4.7518784661551440e-05 0.0000000000000000e+00  6.0165416860169776e-06 -4.8978192462803247e-05 0.0000000000000000e+00  5.5198169796323431e-06 -5.0428756097859790e-05 0.0000000000000000e+00  5.0196415369581697e-06 -5.1910143638311514e-05 0.0000000000000000e+00  3.3547199757746269e-06 -5.2947448521540478e-05 0.0000000000000000e+00  1.3431779315356160e-06 -5.1781196674317644e-05 0.0000000000000000e+00  9.8509195626759903e-07 -4.9803154296399602e-05 0.0000000000000000e+00  1.4999615910642076e-06 -4.8271435518924797e-05 0.0000000000000000e+00  2.0066133258494745e-06 -4.6725468580078992e-05 0.0000000000000000e+00  2.4813942794336611e-06 -4.5195366507071542e-05 0.0000000000000000e+00  2.9377440426763500e-06 -4.3668591609924830e-05 0.0000000000000000e+00  3.3598550894580926e-06 -4.2146249579617396e-05 0.0000000000000000e+00  3.7610518936719048e-06 -4.0632612664388460e-05 0.0000000000000000e+00  4.1289830399360584e-06 -3.9112394912394264e-05 0.0000000000000000e+00  4.4712283617380346e-06 -3.7614264477307170e-05 0.0000000000000000e+00  4.7843381020955475e-06 -3.6103299551305252e-05 0.0000000000000000e+00  5.0726194629574344e-06 -3.4617064158846663e-05 0.0000000000000000e+00  5.3315820550231720e-06 -3.3119497621453442e-05 0.0000000000000000e+00  5.5664897836171650e-06 -3.1647733873015251e-05 0.0000000000000000e+00  5.7723588250926104e-06 -3.0166448301809614e-05 0.0000000000000000e+00  5.9554207201119993e-06 -2.8712259038550449e-05 0.0000000000000000e+00  6.1089260504511165e-06 -2.7250308110422953e-05 0.0000000000000000e+00  6.2404428123640584e-06 -2.5817346869430921e-05 0.0000000000000000e+00  6.3420727215795445e-06 -2.4378943378884541e-05 0.0000000000000000e+00  6.4231966141564982e-06 -2.2972224178187596e-05 0.0000000000000000e+00  6.4740138566008306e-06 -2.1563328145041362e-05 0.0000000000000000e+00  6.5057170302227192e-06 -2.0188614568695959e-05 0.0000000000000000e+00  6.5062546785762382e-06 -1.8815707438137258e-05 0.0000000000000000e+00  6.4849315421192908e-06 -1.7474328962308219e-05 0.0000000000000000e+00  6.4389887652932389e-06 -1.6148457943128278e-05 0.0000000000000000e+00  6.3639873325618943e-06 -1.4851569256619032e-05 0.0000000000000000e+00  6.2788867771930116e-06 -1.3577663253543613e-05 0.0000000000000000e+00  6.1599268021042872e-06 -1.2325459488910945e-05 0.0000000000000000e+00  6.0212209033440709e-06 -1.1118034831990134e-05 0.0000000000000000e+00  5.8549919145417859e-06 -9.9264677274013700e-06 0.0000000000000000e+00  5.6685760664005894e-06 -8.7865848052426958e-06 0.0000000000000000e+00  5.4552089631658155e-06 -7.6661951002025942e-06 0.0000000000000000e+00  5.2232885202713016e-06 -6.6023054726748733e-06 0.0000000000000000e+00  4.9654944483200458e-06 -5.5685708518327966e-06 0.0000000000000000e+00  4.6815607754626171e-06 -4.5919540256059833e-06 0.0000000000000000e+00  4.3940753451139757e-06 -3.6553896261231273e-06 0.0000000000000000e+00  4.0729121003013742e-06 -2.7714893631260666e-06 0.0000000000000000e+00  3.7356816776719114e-06 -1.9563272804243814e-06 0.0000000000000000e+00  3.3716929885349858e-06 -1.1858886870271246e-06 0.0000000000000000e+00  2.9963115458502426e-06 -4.9424912181502967e-07 0.0000000000000000e+00  2.5922404921423196e-06 1.4451521589930357e-07 0.0000000000000000e+00  2.1648289360181997e-06 6.9956122115152983e-07 0.0000000000000000e+00  1.7435267625569775e-06 1.1920513535294204e-06 0.0000000000000000e+00  1.2868709402016544e-06 1.6201602078254177e-06 0.0000000000000000e+00  8.5896876183186653e-07 1.9556886359468483e-06 0.0000000000000000e+00  4.6043632605385676e-07 2.1384280022295780e-06 0.0000000000000000e+00  1.8976416069415004e-07 2.0996929663137995e-06 0.0000000000000000e+00  9.7431838005482993e-08 -1.0985112976908261e-07 0.0000000000000000e+00  3.1932155430646129e-06 -5.0108934547693676e-05 0.0000000000000000e+00  4.2197471409068851e-06 -4.7252939419349901e-05 0.0000000000000000e+00  5.5586028921402317e-06 -4.2592819201667799e-05 0.0000000000000000e+00  1.4430560020786714e-06 -5.3052603793612435e-07 0.0000000000000000e+00  6.2436494047744150e-06 -3.9671297812669904e-05 0.0000000000000000e+00  2.5027921740228095e-06 -1.2371817451615677e-06 0.0000000000000000e+00  6.8562947571543610e-06 -3.6731316908525021e-05 0.0000000000000000e+00  4.0588312430624119e-06 -3.0234386480530545e-06 0.0000000000000000e+00  4.9316659145726963e-06 -4.4986373502447127e-06 0.0000000000000000e+00  7.3577751862522020e-06 -3.3817649938084659e-05 0.0000000000000000e+00  6.6951808426179525e-06 -9.1499096859606316e-06 0.0000000000000000e+00  8.0306217471063374e-06 -2.8091075553715722e-05 0.0000000000000000e+00  5.6738341627291885e-06 -6.1004961563382570e-06 0.0000000000000000e+00  7.2233932973078549e-06 -1.1298310004499473e-05 0.0000000000000000e+00  8.2034234889018044e-06 -2.5293599446099871e-05 0.0000000000000000e+00  7.7490207592771418e-06 -3.0935194733021667e-05 0.0000000000000000e+00  7.6435310200064934e-06 -1.3606202636930957e-05 0.0000000000000000e+00  8.2675651501959664e-06 -2.2553830465958994e-05 0.0000000000000000e+00  7.9274998669387658e-06 -1.5913689434677156e-05 0.0000000000000000e+00  8.2512955421789029e-06 -1.9960051317021455e-05 0.0000000000000000e+00  8.1045360289366362e-06 -1.7833101539519279e-05 0.0000000000000000e+00  6.2026537322595133e-06 -7.5414103927870350e-06 0.0000000000000000e+00  4.8501598666054529e-06 -4.4991018467002697e-05 0.0000000000000000e+00  3.2764676059355716e-06 -2.0504110890194553e-06 0.0000000000000000e+00  3.0260914683910362e-06 -4.8289003495207743e-05 0.0000000000000000e+00  7.0920493882713555e-07 6.2028937634944462e-07 0.0000000000000000e+00  5.9926045398505351e-06 -3.7807970790122822e-05 0.0000000000000000e+00  5.3204134901312523e-06 -4.0777092867466043e-05 0.0000000000000000e+00  2.1804795957962617e-06 -1.7131882418616442e-06 0.0000000000000000e+00  4.7872576731589686e-06 -4.3783558804263146e-06 0.0000000000000000e+00  7.3512279488768699e-06 -2.9062429196494511e-05 0.0000000000000000e+00  6.5546795518766843e-06 -3.4862056171727371e-05 0.0000000000000000e+00  7.3940536677054368e-06 -1.0781105112653713e-05 0.0000000000000000e+00  7.5877698850858133e-06 -2.6222295219374189e-05 0.0000000000000000e+00  5.6644722393247629e-06 -5.9541289136889144e-06 0.0000000000000000e+00  7.8930782260213083e-06 -1.3003222837374513e-05 0.0000000000000000e+00  7.7174976249681121e-06 -2.3434298399626012e-05 0.0000000000000000e+00  7.0071303679447839e-06 -3.1944806233445563e-05 0.0000000000000000e+00  8.3875610775763434e-06 -1.5465622036851225e-05 0.0000000000000000e+00  7.7416436555473563e-06 -2.0710323290085000e-05 0.0000000000000000e+00  -1.9481345054296292e-07 -5.5418567261607982e-07 0.0000000000000000e+00  -2.3206419738931292e-07 4.6269724606058249e-07 0.0000000000000000e+00  3.2090467982827458e-06 -5.1540569699246129e-05 0.0000000000000000e+00  9.3664917927109242e-07 -1.2727099057172065e-06 0.0000000000000000e+00  7.558748083