<?xml version="1.0"?>
<VTKFile type="UnstructuredGrid"  version="0.1"  >
<UnstructuredGrid>
<Piece  NumberOfPoints="1419" NumberOfCells="2698">
<Points>
<DataArray  type="Float64"  NumberOfComponents="3"  format="ascii">0 0 0  0 0.41 0  2.5 0 0  2.5 0.41 0  0.6 0.19 0  0.6 0.21 0  0.25 0.2 0  0.15 0.2 0  0.2489897948556636 0.21 0  0.2489897948556636 0.19 0  0.6 0.2 0  0 0.3807142857143437 0  0 0.3514285714286952 0  0 0.3221428571430699 0  0 0.29285714285744 0  0 0.2635714285718054 0  0 0.2342857142861561 0  0 0.2050000000005308 0  0 0.175714285714732 0  0 0.1464285714289574 0  0 0.1171428571431897 0  0 0.08785714285737878 0  0 0.05857142857161107 0  0 0.02928571428580012 0  0.03015443760436003 0 0  0.06140001986583606 0 0  0.09377624077125973 0 0  0.1273239957535082 0 0  0.1620856860351972 0 0  0.1981052433264291 0 0  0.235428184091502 0 0  0.2741016576309132 0 0  0.3141745521465447 0 0  0.3556974926295285 0 0  0.3987229542472677 0 0  0.4433053055141081 0 0  0.4895008759286886 0 0  0.5373680609405097 0 0  0.5869673343216626 0 0  0.6383613676634521 0 0  0.6916151138468254 0 0  0.7467958595648856 0 0  0.8039733463919316 0 0  0.8632198139502143 0 0  0.9246101326867038 0 0  0.9882218810934433 0 0  1.054135445558498 0 0  1.122434100542598 0 0  1.193204177141305 0 0  1.266535089879536 0 0  1.342519516046404 0 0  1.421253448503939 0 0  1.502836389106271 0 0  1.587371439758838 0 0  1.674965418777374 0 0  1.765729001825544 0 0  1.859776908880082 0 0  1.957227977487062 0 0  2.058205329869943 0 0  2.162836591189951 0 0  2.271253957290865 0 0  2.383594446803425 0 0  2.5 0.1024999999997612 0  2.5 0.2049999999994743 0  2.5 0.3074999999997183 0  2.383594446803656 0.41 0  2.271253957291315 0.41 0  2.162836591190598 0.41 0  2.058205329870775 0.41 0  1.957227977488067 0.41 0  1.859776908881246 0.41 0  1.765729001826854 0.41 0  1.674965418778818 0.41 0  1.58737143976041 0.41 0  1.502836389107956 0.41 0  1.421253448505726 0.41 0  1.342519516048286 0.41 0  1.266535089881505 0.41 0  1.193204177143353 0.41 0  1.122434100544716 0.41 0  1.05413544556068 0.41 0  0.9882218810956305 0.41 0  0.9246101326886647 0.41 0  0.8632198139519631 0.41 0  0.8039733463934788 0.41 0  0.7467958595662458 0.41 0  0.6916151138480078 0.41 0  0.6383613676644679 0.41 0  0.5869673343225223 0.41 0  0.5373680609412221 0.41 0  0.4895008759292634 0.41 0  0.4433053055145528 0.41 0  0.3987229542475914 0.41 0  0.3556974926297398 0.41 0  0.3141745521466497 0.41 0  0.2741016576310038 0.41 0  0.2354281840915826 0.41 0  0.1981052433265003 0.41 0  0.1620856860352591 0.41 0  0.1273239957535623 0.41 0  0.09377624077128965 0.41 0  0.06140001986584975 0.41 0  0.03015443760436654 0.41 0  0.2497468076502589 0.2050254481002335 0  0.2497468076502614 0.1949745518997913 0  0.2469965252529372 0.1829317073451959 0  0.2439893735792749 0.1762316384219906 0  0.2400332147834255 0.1700443375285386 0  0.2352133972704371 0.1645032867342007 0  0.2296339016332438 0.1597280261969788 0  0.2234150974217223 0.1558215752574715 0  0.2166911463437691 0.1528682099456123 0  0.2096071079204251 0.1509316448471593 0  0.2023158100364996 0.1500536585536553 0  0.194974551899914 0.1502531923497262 0  0.1877417105387872 0.1515259415822739 0  0.1807733240461124 0.153844448527136 0  0.1742197252835808 0.15715869474974 0  0.1682222986673531 0.1613971801805478 0  0.162910430003803 0.1664684656256651 0  0.1583987151779087 0.1722631454351573 0  0.1547844879126891 0.178656207771761 0  0.1521457199348551 0.1855097315605723 0  0.1505393388476355 0.1926758619366523 0  0.1505393388476328 0.2073241380633295 0  0.1521457199348437 0.2144902684393899 0  0.1547844879126531 0.221343792228163 0  0.1583987151778488 0.2277368545647528 0  0.1629104300036858 0.2335315343742052 0  0.1682222986671726 0.2386028198193036 0  0.1742197252833576 0.2428413052501257 0  0.1807733240458683 0.2461555514727623 0  0.1877417105384929 0.2484740584176516 0  0.1949745518995776 0.2497468076502398 0  0.202315810036185 0.2499463414463592 0  0.2096071079201568 0.2490683551528932 0  0.2166911463435495 0.2471317900544655 0  0.2234150974215506 0.2441784247426195 0  0.2296339016331197 0.2402719738031125 0  0.2352133972703547 0.2354967132658811 0  0.2400332147833751 0.2299556624715287 0  0.2439893735792577 0.2237683615780412 0  0.246996525252926 0.2170682926548348 0  0.25645809709277 0.21 0  0.2639263993298655 0.21 0  0.271394701566961 0.21 0  0.2788630038040554 0.21 0  0.2863313060411479 0.21 0  0.2937996082782405 0.21 0  0.301267910515333 0.21 0  0.3087362127524279 0.21 0  0.3162045149895234 0.21 0  0.3236728172265972 0.21 0  0.3311411194636928 0.21 0  0.3386094217007701 0.21 0  0.3460777239378666 0.21 0  0.3535460261749672 0.21 0  0.3610143284120516 0.21 0  0.3684826306491596 0.21 0  0.3759509328862226 0.21 0  0.383419235123329 0.21 0  0.3908875373604028 0.21 0  0.3983558395975142 0.21 0  0.4058241418345938 0.21 0  0.4132924440716992 0.21 0  0.4207607463087888 0.21 0  0.4282290485459029 0.21 0  0.4356973507830418 0.21 0  0.4431656530201649 0.21 0  0.4506339552573136 0.21 0  0.4581022574944306 0.21 0  0.4655705597315852 0.21 0  0.4730388619686996 0.21 0  0.480507164205851 0.21 0  0.4879754664429498 0.21 0  0.4954437686800938 0.21 0  0.502912070917267 0.21 0  0.5103803731544119 0.21 0  0.5178486753915261 0.21 0  0.5253169776286404 0.21 0  0.5327852798657868 0.21 0  0.5402535821029386 0.21 0  0.54772188434007 0.21 0  0.5551901865771842 0.21 0  0.5626584888143201 0.21 0  0.5701267910514778 0.21 0  0.5775950932886138 0.21 0  0.5850633955257281 0.21 0  0.5925316977628483 0.21 0  0.6 0.2050000000000054 0  0.6 0.1950000000000217 0  0.5925316977628897 0.19 0  0.5850633955257988 0.19 0  0.5775950932887378 0.19 0  0.5701267910515998 0.19 0  0.5626584888145268 0.19 0  0.5551901865773963 0.19 0  0.547721884340339 0.19 0  0.5402535821032429 0.19 0  0.5327852798661811 0.19 0  0.5253169776290537 0.19 0  0.5178486753919799 0.19 0  0.5103803731549078 0.19 0  0.502912070917822 0.19 0  0.4954437686807294 0.19 0  0.4879754664436223 0.19 0  0.4805071642065402 0.19 0  0.4730388619694271 0.19 0  0.4655705597323621 0.19 0  0.4581022574952563 0.19 0  0.4506339552581777 0.19 0  0.4431656530210671 0.19 0  0.4356973507839815 0.19 0  0.4282290485468779 0.19 0  0.4207607463097617 0.19 0  0.4132924440726327 0.19 0  0.4058241418354857 0.19 0  0.3983558395983636 0.19 0  0.3908875373612097 0.19 0  0.3834192351240934 0.19 0  0.3759509328869369 0.19 0  0.3684826306498175 0.19 0  0.361014328412667 0.19 0  0.3535460261755617 0.19 0  0.3460777239384295 0.19 0  0.3386094217012945 0.19 0  0.3311411194641595 0.19 0  0.3236728172270245 0.19 0  0.3162045149898895 0.19 0  0.3087362127527544 0.19 0  0.3012679105156187 0.19 0  0.2937996082784807 0.19 0  0.2863313060413428 0.19 0  0.2788630038042048 0.19 0  0.2713947015670686 0.19 0  0.2639263993299336 0.19 0  0.2564580970927985 0.19 0  0.2607803159922026 0.2000727136295815 0  0.5887803774232762 0.2001272386983733 0  0.5745072403740523 0.2002044435018727 0  0.5511891430099709 0.2001122610077113 0  0.2751288526855082 0.20000000000002 0  0.5365194309847112 0.1999999999999436 0  0.2894621222999649 0.1998691686390484 0  0.5215828265105155 0.1999999999999228 0  0.3127789816668748 0.1998657885438805 0  0.3274069683451451 0.2000000000000796 0  0.5066462220363641 0.199999999999908 0  0.3650630746574081 0.199866017807523 0  0.476773013087985 0.1999999999998713 0  0.3417402379596385 0.1998691686391011 0  0.3796850840047755 0.200000000000134 0  0.4618364086138087 0.1999999999998546 0  0.4917096175621762 0.1999999999998808 0  0.3946216884789568 0.2000000000001512 0  0.446899804139621 0.1999999999998389 0  0.4089549580935208 0.1998691686391595 0  0.4322718174608562 0.200127451265745 0  0.4201487168029707 0.1999966199048527 0  0.3528922713220932 0.2000185703532356 0  0.5633122436674589 0.1999814296467508 0  0.3006558810093873 0.1999966199048318 0  0.5815926498168407 0.1966545283159175 0  0.2677053789419034 0.1964246479135325 0  0.5290511287476175 0.1970915826863981 0  0.5439877332217911 0.197091582686394 0  0.2825131256993216 0.2035478995978015 0  0.3199386661080599 0.202908417313604 0  0.4842413153250809 0.1970915826863873 0  0.5141145242734466 0.1970915826863843 0  0.3722167817676917 0.2029084173136195 0  0.4693047108508938 0.1970915826863783 0  0.3348752705822316 0.202908417313609 0  0.3871533862418661 0.2029084173136212 0  0.4543681063767183 0.1970915826863795 0  0.4991779197992749 0.1970915826863902 0  0.4020059614928624 0.203547899597858 0  0.4394315019025246 0.1970915826863714 0  0.2550657455369551 0.2034088125358657 0  0.2548908499171161 0.1966940311614271 0  0.5946539510196798 0.2024302972968126 0  0.267698176732111 0.2039977513680092 0  0.4261685417851465 0.196409292431739 0  0.3590076176283495 0.196411355804271 0  0.5571672426447437 0.2036011176410121 0  0.3066757059912147 0.1964092924317024 0  0.594380730180568 0.1966558399668133 0  0.4842413153245942 0.2040749161535287 0  0.4693047108503577 0.2040749161535231 0  0.3871533862424271 0.1959250838464788 0  0.372246743208829 0.1959123236376545 0  0.5141145242731028 0.2040749161535395 0  0.4543681063761134 0.2040749161535186 0  0.4019979587101454 0.1959834479682427 0  0.4394608940728603 0.2040870543693135 0  0.5439623148931173 0.2040856076781014 0  0.5290511287473298 0.2040749161535501 0  0.4991779197988497 0.2040749161535382 0  0.3347912413592433 0.1959225448935183 0  0.3199680582793816 0.1959123018030061 0  0.2825051229162361 0.1959834479681729 0  0.3590471196690275 0.2036304442587945 0  0.5571594006495384 0.1963685282145804 0  0.3067669986803285 0.203627750582736 0  0.4262598344738712 0.2036568242185335 0  0.5814408164431408 0.2041285596160068 0  0.5688286748170428 0.1961819304477386 0  0.4145905603063645 0.2038180695522843 0  0.3473758401724931 0.2038180695522752 0  0.2950977245128307 0.2038180695522663 0  0.5688286748170693 0.203818069552238 0  0.2950977245127906 0.1961819304477774 0  0.3473758401723931 0.1961819304478349 0  0.4145905603061963 0.1961819304479011 0  0.2601812407614425 0.2056861609747042
[...]
<PointData  Vectors="f_40-0"> 
<DataArray  type="Float64"  Name="f_40-0"  NumberOfComponents="3" format="ascii">0.0000000000000000e+00 0.0000000000000000e+00 0.0000000000000000e+00  0.0000000000000000e+00 0.0000000000000000e+00 0.0000000000000000e+00  0.0000000000000000e+00 0.0000000000000000e+00 0.0000000000000000e+00  0.0000000000000000e+00 0.0000000000000000e+00 0.0000000000000000e+00  2.9435575373499258e-05 9.3145170664554516e-04 0.0000000000000000e+00  -3.9655067529473474e-05 9.3148033144001947e-04 0.0000000000000000e+00  0.0000000000000000e+00 0.0000000000000000e+00 0.0000000000000000e+00  0.0000000000000000e+00 0.0000000000000000e+00 0.0000000000000000e+00  0.0000000000000000e+00 0.0000000000000000e+00 0.0000000000000000e+00  0.0000000000000000e+00 0.0000000000000000e+00 0.0000000000000000e+00  -5.0995896122476685e-06 9.3146147977832109e-04 0.0000000000000000e+00  7.9591836734548407e-02 0.0000000000000000e+00 0.0000000000000000e+00  1.4693877550994527e-01 0.0000000000000000e+00 0.0000000000000000e+00  2.0204081632617479e-01 0.0000000000000000e+00 0.0000000000000000e+00  2.4489795918330076e-01 0.0000000000000000e+00 0.0000000000000000e+00  2.7551020408131754e-01 0.0000000000000000e+00 0.0000000000000000e+00  2.9387755102022350e-01 0.0000000000000000e+00 0.0000000000000000e+00  3.0000000000000004e-01 0.0000000000000000e+00 0.0000000000000000e+00  2.9387755102059482e-01 0.0000000000000000e+00 0.0000000000000000e+00  2.7551020408195548e-01 0.0000000000000000e+00 0.0000000000000000e+00  2.4489795918409071e-01 0.0000000000000000e+00 0.0000000000000000e+00  2.0204081632692525e-01 0.0000000000000000e+00 0.0000000000000000e+00  1.4693877551058568e-01 0.0000000000000000e+00 0.0000000000000000e+00  7.9591836734909230e-02 0.0000000000000000e+00 0.0000000000000000e+00  0.0000000000000000e+00 0.0000000000000000e+00 0.0000000000000000e+00  0.0000000000000000e+00 0.0000000000000000e+00 0.0000000000000000e+00  0.0000000000000000e+00 0.0000000000000000e+00 0.0000000000000000e+00  0.0000000000000000e+00 0.0000000000000000e+00 0.0000000000000000e+00  0.0000000000000000e+00 0.0000000000000000e+00 0.0000000000000000e+00  0.0000000000000000e+00 0.0000000000000000e+00 0.0000000000000000e+00  0.0000000000000000e+00 0.0000000000000000e+00 0.0000000000000000e+00  0.0000000000000000e+00 0.0000000000000000e+00 0.0000000000000000e+00  0.0000000000000000e+00 0.0000000000000000e+00 0.0000000000000000e+00  0.0000000000000000e+00 0.0000000000000000e+00 0.0000000000000000e+00  0.0000000000000000e+00 0.0000000000000000e+00 0.0000000000000000e+00  0.0000000000000000e+00 0.0000000000000000e+00 0.0000000000000000e+00  0.0000000000000000e+00 0.0000000000000000e+00 0.0000000000000000e+00  0.0000000000000000e+00 0.0000000000000000e+00 0.0000000000000000e+00  0.0000000000000000e+00 0.0000000000000000e+00 0.0000000000000000e+00  0.0000000000000000e+00 0.0000000000000000e+00 0.0000000000000000e+00  0.0000000000000000e+00 0.0000000000000000e+00 0.0000000000000000e+00  0.0000000000000000e+00 0.0000000000000000e+00 0.0000000000000000e+00  0.0000000000000000e+00 0.0000000000000000e+00 0.0000000000000000e+00  0.0000000000000000e+00 0.0000000000000000e+00 0.0000000000000000e+00  0.0000000000000000e+00 0.0000000000000000e+00 0.0000000000000000e+00  0.0000000000000000e+00 0.0000000000000000e+00 0.0000000000000000e+00  0.0000000000000000e+00 0.0000000000000000e+00 0.0000000000000000e+00  0.0000000000000000e+00 0.0000000000000000e+00 0.0000000000000000e+00  0.0000000000000000e+00 0.0000000000000000e+00 0.0000000000000000e+00  0.0000000000000000e+00 0.0000000000000000e+00 0.0000000000000000e+00  0.0000000000000000e+00 0.0000000000000000e+00 0.0000000000000000e+00  0.0000000000000000e+00 0.0000000000000000e+00 0.0000000000000000e+00  0.0000000000000000e+00 0.0000000000000000e+00 0.0000000000000000e+00  0.0000000000000000e+00 0.0000000000000000e+00 0.0000000000000000e+00  0.0000000000000000e+00 0.0000000000000000e+00 0.0000000000000000e+00  0.0000000000000000e+00 0.0000000000000000e+00 0.0000000000000000e+00  0.0000000000000000e+00 0.0000000000000000e+00 0.0000000000000000e+00  0.0000000000000000e+00 0.0000000000000000e+00 0.0000000000000000e+00  0.0000000000000000e+00 0.0000000000000000e+00 0.0000000000000000e+00  0.0000000000000000e+00 0.0000000000000000e+00 0.0000000000000000e+00  0.0000000000000000e+00 0.0000000000000000e+00 0.0000000000000000e+00  0.0000000000000000e+00 0.0000000000000000e+00 0.0000000000000000e+00  2.5255193573677837e-01 -8.7843568541127372e-03 0.0000000000000000e+00  2.7818866962391675e-01 1.9341674259832279e-03 0.0000000000000000e+00  2.5290765227544038e-01 1.0057440555672089e-02 0.0000000000000000e+00  0.0000000000000000e+00 0.0000000000000000e+00 0.0000000000000000e+00  0.0000000000000000e+00 0.0000000000000000e+00 0.0000000000000000e+00  0.0000000000000000e+00 0.0000000000000000e+00 0.0000000000000000e+00  0.0000000000000000e+00 0.0000000000000000e+00 0.0000000000000000e+00  0.0000000000000000e+00 0.0000000000000000e+00 0.0000000000000000e+00  0.0000000000000000e+00 0.0000000000000000e+00 0.0000000000000000e+00  0.0000000000000000e+00 0.0000000000000000e+00 0.0000000000000000e+00  0.0000000000000000e+00 0.0000000000000000e+00 0.0000000000000000e+00  0.0000000000000000e+00 0.0000000000000000e+00 0.0000000000000000e+00  0.0000000000000000e+00 0.0000000000000000e+00 0.0000000000000000e+00  0.0000000000000000e+00 0.0000000000000000e+00 0.0000000000000000e+00  0.0000000000000000e+00 0.0000000000000000e+00 0.0000000000000000e+00  0.0000000000000000e+00 0.0000000000000000e+00 0.0000000000000000e+00  0.0000000000000000e+00 0.0000000000000000e+00 0.0000000000000000e+00  0.0000000000000000e+00 0.0000000000000000e+00 0.0000000000000000e+00  0.0000000000000000e+00 0.0000000000000000e+00 0.0000000000000000e+00  0.0000000000000000e+00 0.0000000000000000e+00 0.0000000000000000e+00  0.0000000000000000e+00 0.0000000000000000e+00 0.0000000000000000e+00  0.0000000000000000e+00 0.0000000000000000e+00 0.0000000000000000e+00  0.0000000000000000e+00 0.0000000000000000e+00 0.0000000000000000e+00  0.0000000000000000e+00 0.0000000000000000e+00 0.0000000000000000e+00  0.0000000000000000e+00 0.0000000000000000e+00 0.0000000000000000e+00  0.0000000000000000e+00 0.0000000000000000e+00 0.0000000000000000e+00  0.0000000000000000e+00 0.0000000000000000e+00 0.0000000000000000e+00  0.0000000000000000e+00 0.0000000000000000e+00 0.0000000000000000e+00  0.0000000000000000e+00 0.0000000000000000e+00 0.0000000000000000e+00  0.0000000000000000e+00 0.0000000000000000e+00 0.0000000000000000e+00  0.0000000000000000e+00 0.0000000000000000e+00 0.0000000000000000e+00  0.0000000000000000e+00 0.0000000000000000e+00 0.0000000000000000e+00  0.0000000000000000e+00 0.0000000000000000e+00 0.0000000000000000e+00  0.0000000000000000e+00 0.0000000000000000e+00 0.0000000000000000e+00  0.0000000000000000e+00 0.0000000000000000e+00 0.0000000000000000e+00  0.0000000000000000e+00 0.0000000000000000e+00 0.0000000000000000e+00  0.0000000000000000e+00 0.0000000000000000e+00 0.0000000000000000e+00  0.0000000000000000e+00 0.0000000000000000e+00 0.0000000000000000e+00  0.0000000000000000e+00 0.0000000000000000e+00 0.0000000000000000e+00  0.0000000000000000e+00 0.0000000000000000e+00 0.0000000000000000e+00  0.0000000000000000e+00 0.0000000000000000e+00 0.0000000000000000e+00  0.0000000000000000e+00 0.0000000000000000e+00 0.0000000000000000e+00  0.0000000000000000e+00 0.0000000000000000e+00 0.0000000000000000e+00  0.0000000000000000e+00 0.0000000000000000e+00 0.0000000000000000e+00  0.0000000000000000e+00 0.0000000000000000e+00 0.0000000000000000e+00  0.0000000000000000e+00 0.0000000000000000e+00 0.0000000000000000e+00  0.0000000000000000e+00 0.0000000000000000e+00 0.0000000000000000e+00  0.0000000000000000e+00 0.0000000000000000e+00 0.0000000000000000e+00  0.0000000000000000e+00 0.0000000000000000e+00 0.0000000000000000e+00  0.0000000000000000e+00 0.0000000000000000e+00 0.0000000000000000e+00  0.0000000000000000e+00 0.0000000000000000e+00 0.0000000000000000e+00  0.0000000000000000e+00 0.0000000000000000e+00 0.0000000000000000e+00  0.0000000000000000e+00 0.0000000000000000e+00 0.0000000000000000e+00  0.0000000000000000e+00 0.0000000000000000e+00 0.0000000000000000e+00  0.0000000000000000e+00 0.0000000000000000e+00 0.0000000000000000e+00  0.0000000000000000e+00 0.0000000000000000e+00 0.0000000000000000e+00  0.0000000000000000e+00 0.0000000000000000e+00 0.0000000000000000e+00  0.0000000000000000e+00 0.0000000000000000e+00 0.0000000000000000e+00  0.0000000000000000e+00 0.0000000000000000e+00 0.0000000000000000e+00  0.0000000000000000e+00 0.0000000000000000e+00 0.0000000000000000e+00  0.0000000000000000e+00 0.0000000000000000e+00 0.0000000000000000e+00  0.0000000000000000e+00 0.0000000000000000e+00 0.0000000000000000e+00  0.0000000000000000e+00 0.0000000000000000e+00 0.0000000000000000e+00  0.0000000000000000e+00 0.0000000000000000e+00 0.0000000000000000e+00  0.0000000000000000e+00 0.0000000000000000e+00 0.0000000000000000e+00  0.0000000000000000e+00 0.0000000000000000e+00 0.0000000000000000e+00  0.0000000000000000e+00 0.0000000000000000e+00 0.0000000000000000e+00  0.0000000000000000e+00 0.0000000000000000e+00 0.0000000000000000e+00  0.0000000000000000e+00 0.0000000000000000e+00 0.0000000000000000e+00  0.0000000000000000e+00 0.0000000000000000e+00 0.0000000000000000e+00  0.0000000000000000e+00 0.0000000000000000e+00 0.0000000000000000e+00  0.0000000000000000e+00 0.0000000000000000e+00 0.0000000000000000e+00  0.0000000000000000e+00 0.0000000000000000e+00 0.0000000000000000e+00  0.0000000000000000e+00 0.0000000000000000e+00 0.0000000000000000e+00  0.0000000000000000e+00 0.0000000000000000e+00 0.0000000000000000e+00  0.0000000000000000e+00 0.0000000000000000e+00 0.0000000000000000e+00  0.0000000000000000e+00 0.0000000000000000e+00 0.0000000000000000e+00  0.0000000000000000e+00 0.0000000000000000e+00 0.0000000000000000e+00  0.0000000000000000e+00 0.0000000000000000e+00 0.0000000000000000e+00  0.0000000000000000e+00 0.0000000000000000e+00 0.0000000000000000e+00  0.0000000000000000e+00 0.0000000000000000e+00 0.0000000000000000e+00  -2.2202283255118058e-06 1.8548243621191704e-06 0.0000000000000000e+00  -4.7104285140451559e-06 4.4175944057318210e-06 0.0000000000000000e+00  -6.8949789159340240e-06 8.5758265766830423e-06 0.0000000000000000e+00  -9.2333504659642832e-06 1.4413597332464539e-05 0.0000000000000000e+00  -1.1176832953902705e-05 2.1636428662380163e-05 0.0000000000000000e+00  -1.3355871005745314e-05 3.0367859273694393e-05 0.0000000000000000e+00  -1.5103412459494108e-05 4.0203577337645865e-05 0.0000000000000000e+00  -1.6785214372227932e-05 5.1481924069803523e-05 0.0000000000000000e+00  -1.8692740189642218e-05 6.3841278955732673e-05 0.0000000000000000e+00  -2.0145166429226240e-05 7.7316680316036785e-05 0.0000000000000000e+00  -2.1889135304392920e-05 9.1879605328710773e-05 0.0000000000000000e+00  -2.3199005436240216e-05 1.0743098832494908e-04 0.0000000000000000e+00  -2.4719779478387948e-05 1.2393086045410842e-04 0.0000000000000000e+00  -2.5925920055356317e-05 1.4118930095750139e-04 0.0000000000000000e+00  -2.7079773814226474e-05 1.5937897677834777e-04 0.0000000000000000e+00  -2.8362964521427042e-05 1.7826087419533986e-04 0.0000000000000000e+00  -2.9338587119331904e-05 1.9784786788808759e-04 0.0000000000000000e+00  -3.0474491437737730e-05 2.1811673050874033e-04 0.0000000000000000e+00  -3.1323073668464644e-05 2.3898145946064131e-04 0.0000000000000000e+00  -3.2291879994660677e-05 2.6040438103767087e-04 0.0000000000000000e+00  -3.3056766371907927e-05 2.8235095692058157e-04 0.0000000000000000e+00  -3.3872110432851628e-05 3.0479724700583721e-04 0.0000000000000000e+00  -3.4520022652293718e-05 3.2760171762277653e-04 0.0000000000000000e+00  -3.5120929051808462e-05 3.5086124526839213e-04 0.0000000000000000e+00  -3.5755431581903108e-05 3.7442183612115994e-04 0.0000000000000000e+00  -3.6267800838101085e-05 3.9832479465682914e-04 0.0000000000000000e+00  -3.6758171434445920e-05 4.2252229856579285e-04 0.0000000000000000e+00  -3.7174596671093041e-05 4.4695040669902357e-04 0.0000000000000000e+00  -3.7566076852534948e-05 4.7162080832672930e-04 0.0000000000000000e+00  -3.7895387224233969e-05 4.9646562615235053e-04 0.0000000000000000e+00  -3.8199735265037966e-05 5.2149762893020913e-04 0.0000000000000000e+00  -3.8452165062445974e-05 5.4665663466521423e-04 0.0000000000000000e+00  -3.8681267565312806e-05 5.7195518365636602e-04 0.0000000000000000e+00  -3.8867916400346563e-05 5.9734203917320076e-04 0.0000000000000000e+00  -3.9033472826526268e-05 6.2282926804620934e-04 0.0000000000000000e+00  -3.9166172488252093e-05 6.4837496200853334e-04 0.0000000000000000e+00  -3.9280944579320607e-05 6.7398953442844253e-04 0.0000000000000000e+00  -3.9370864051634127e-05 6.9964015146699136e-04 0.0000000000000000e+00  -3.9445862132471586e-05 7.2533582855917322e-04 0.0000000000000000e+00  -3.9502976231326255e-05 7.5105180310499101e-04 0.0000000000000000e+00  -3.9549027358428115e-05 7.7679605242569037e-04 0.0000000000000000e+00  -3.9582187520835843e-05 8.0255087742596898e-04 0.0000000000000000e+00  -3.9606075824531149e-05 8.2832115612906023e-04 0.0000000000000000e+00  -3.9626665054562761e-05 8.5409898356310398e-04 0.0000000000000000e+00  -3.9638898965037192e-05 8.7988362927855519e-04 0.0000000000000000e+00  -3.9647242974068486e-05 9.0567604498175845e-04 0.0000000000000000e+00  -2.2371571936562363e-05 9.3146967617272359e-04 0.0000000000000000e+00  1.2168826304761757e-05 9.3145512312171462e-04 0.0000000000000000e+00  2.9432479101186470e-05 9.0565358218936591e-04 0.0000000000000000e+00  2.9426524171436212e-05 8.7985780093341112e-04 0.0000000000000000e+00  2.9421392080344508e-05 8.5406557250886994e-04 0.0000000000000000e+00  2.9413782498511836e-05 8.2828091517372796e-04 0.0000000000000000e+00  2.9407951863201129e-05 8.0250304186638751e-04 0.0000000000000000e+00  2.9401477804224319e-05 7.7673872636103731e-04 0.0000000000000000e+00  2.9386920034403595e-05 7.5098812157041288e-04 0.0000000000000000e+00  2.9377541247794830e-05 7.2525784394291012e-04 0.0000000000000000e+00  2.9351636327485516e-05 6.9955582403249917e-04 0.0000000000000000e+00  2.9333601210967297e-05 6.7388892418907150e-04 0.0000000000000000e+00  2.9288887587625859e-05 6.4826742281635095e-04 0.0000000000000000e+00  2.9255920906669939e-05 6.2270303824910154e-04 0.0000000000000000e+00  2.9183579905555062e-05 5.9720852579117341e-04 0.0000000000000000e+00  2.9128469739098164e-05 5.7180121845319546e-04 0.0000000000000000e+00  2.9017610229453127e-05 5.4649546797250204e-04 0.0000000000000000e+00  2.8931843199451547e-05 5.2131515130831197e-04 0.0000000000000000e+00  2.8770958988445882e-05 4.9627630411988696e-04 0.0000000000000000e+00  2.8645626510086409e-05 4.7140953095468565e-04 0.0000000000000000e+00  2.8422621260651390e-05 4.4673264687691226e-04 0.0000000000000000e+00  2.8248189334665226e-05 4.2228268938824853e-04 0.0000000000000000e+00  2.7947571279255152e-05 3.9808058358343189e-04 0.0000000000000000e+00  2.7710541316780240e-05 3.7417104192117852e-04 0.0000000000000000e+00  2.7327145536022345e-05 3.5058189507770161e-04 0.0000000000000000e+00  2.6996575943499822e-05 3.2731709520324929e-04 0.0000000000000000e+00  2.6630408523392077e-05 3.0450807924312058e-04 0.0000000000000000e+00  2.6119416636203136e-05 2.8204196850204800e-04 0.0000000000000000e+00  2.5635381033166517e-05 2.6010658959717362e-04 0.0000000000000000e+00  2.5035517455676852e-05 2.3865405878290485e-04 0.0000000000000000e+00  2.4440436147264944e-05 2.1779486762612681e-04 0.0000000000000000e+00  2.3725656849534949e-05 1.9751981484321144e-04 0.0000000000000000e+00  2.3014303226093283e-05 1.7790176023730012e-04 0.0000000000000000e+00  2.2092164678127971e-05 1.5906459365953724e-04 0.0000000000000000e+00  2.1290432845671416e-05 1.4086432534858026e-04 0.0000000000000000e+00  2.0432630155628518e-05 1.2361934626349745e-04 0.0000000000000000e+00  1.9308092176496246e-05 1.0706175817067281e-04 0.0000000000000000e+00  1.8239709380189213e-05 9.1549781356964455e-05 0.0000000000000000e+00  1.6989870400142426e-05 7.6980951637382067e-05 0.0000000000000000e+00  1.5765938320936289e-05 6.3465189639714457e-05 0.0000000000000000e+00  1.4229223985021323e-05 5.1177042259650675e-05 0.0000000000000000e+00  1.2890930895521187e-05 3.9882798166471225e-05 0.0000000000000000e+00  1.1485552970479384e-05 3.0053025559348005e-05 0.0000000000000000e+00  9.6783361484196358e-06 2.1282675304539041e-05 0.0000000000000000e+00  8.0119052897075761e-06 1.4040718746998448e-05 0.0000000000000000e+00  5.9882552296734785e-06 8.2830710387674166e-06 0.0000000000000000e+00  4.1639209651900799e-06 4.1065300419032738e-06 0.0000000000000000e+00  1.9644733403154540e-06 1.5426419652874738e-06 0.0000000000000000e+00  -2.0633517935647476e-07 1.8131935985394854e-06 0.0000000000000000e+00  -5.5409284853769810e-06 8.9270460465678690e-04 0.0000000000000000e+00  -5.8025068204318637e-06 8.4341535681286238e-04 0.0000000000000000e+00  -5.4467856024547112e-06 7.6295665298912953e-04 0.0000000000000000e+00  -5.0979237058135612e-07 1.0137018043151074e-05 0.0000000000000000e+00  -5.0147402875489753e-06 7.1241986960485584e-04 0.0000000000000000e+00  -6.9125168109838077e-07 2.4022220900921508e-05 0.0000000000000000e+00  -4.9476342402871725e-06 6.6108686777356532e-04 0.0000000000000000e+00  -1.1403092301200525e-06 5.7089465939830713e-05 0.0000000000000000e+00  -1.7018593466005691e-06 8.3642252755283523e-05 0.0000000000000000e+00  -4.8557746500979953e-06 6.0995629460804525e-04 0.0000000000000000e+00  -2.2395891971192701e-06 1.6886263476882958e-04 0.0000000000000000e+00  -4.5866920957520664e-06 5.0876327069883788e-04 0.0000000000000000e+00  -1.7535000889458035e-06 1.1344420971199004e-04 0.0000000000000000e+00  -2.9094764044591908e-06 2.0732796728711663e-04 0.0000000000000000e+00  -4.4063436677253598e-06 4.5901298991228096e-04 0.0000000000000000e+00  -4.7361266114659803e-06 5.5913533247829098e-04 0.0000000000000000e+00  -3.2339022456744124e-06 2.4911202955524124e-04 0.0000000000000000e+00  -4.1932825637627529e-06 4.1009196200369883e-04 0.0000000000000000e+00  -3.1364830790153809e-06 2.9123804876504515e-04 0.0000000000000000e+00  -4.3596878790168142e-06 3.6321764866310640e-04 0.0000000000000000e+00  -3.7296722196577073e-06 3.2537953866393772e-04 0.0000000000000000e+00  -2.3399332906320150e-06 1.3908539211861495e-04 0.0000000000000000e+00  -5.0179867051716085e-06 8.0477554888259896e-04 0.0000000000000000e+00  -1.0747624052906043e-06 3.8575135000052833e-05 0.0000000000000000e+00  6.4508249307635508e-06 8.6787660075205537e-04 0.0000000000000000e+00  1.6139491658467321e-06 5.2291600332600603e-06 0.0000000000000000e+00  5.0003601951219204e-06 6.8672450417702044e-04 0.0000000000000000e+00  4.9718960441570224e-06 7.3812900107337578e-04 0.0000000000000000e+00  -4.0149666006592708e-06 1.6857331600565025e-05 0.0000000000000000e+00  -6.7450950733433942e-06 6.9712186855293539e-05 0.0000000000000000e+00  5.1187007543055881e-06 5.3387119285288893e-04 0.0000000000000000e+00  5.0358378494967345e-06 6.3547984469755950e-04 0.0000000000000000e+00  -1.0340801654572056e-05 1.8746540582824755e-04 0.0000000000000000e+00  5.1576179962369761e-06 4.8378641881757458e-04 0.0000000000000000e+00  -7.8573806108294724e-06 9.8869046414001730e-05 0.0000000000000000e+00  -1.1155391774571180e-05 2.2803000460372953e-04 0.0000000000000000e+00  5.1880270379778943e-06 4.3442325318417569e-04 0.0000000000000000e+00  5.0765144528317405e-06 5.8448771028807149e-04 0.0000000000000000e+00  -1.3754850366817392e-05 2.7069813974904680e-04 0.0000000000000000e+00  5.2078569155115133e-06 3.8600625521194705e-04 0.0000000000000000e+00  -4.3968731626194880e-07 4.3031639288259249e-07 0.0000000000000000e+00  2.5629627092655204e-07 3.2286918940919368e-07 0.0000000000000000e+00  -1.3494806884023611e-05 9.1299639566840062e-04 0.0000000000000000e+00  -2.5310285794901305e-06 5.3600807642602278e-06 0.0000000000000000e+00  7.3296523933112887e-06 3.4401438987812270e-04 0.0000000000000000