<?xml version="1.0"?>
<VTKFile type="UnstructuredGrid"  version="0.1"  >
<UnstructuredGrid>
<Piece  NumberOfPoints="1419" NumberOfCells="2698">
<Points>
<DataArray  type="Float64"  NumberOfComponents="3"  format="ascii">0 0 0  0 0.41 0  2.5 0 0  2.5 0.41 0  0.6 0.19 0  0.6 0.21 0  0.25 0.2 0  0.15 0.2 0  0.2489897948556636 0.21 0  0.2489897948556636 0.19 0  0.6 0.2 0  0 0.3807142857143437 0  0 0.3514285714286952 0  0 0.3221428571430699 0  0 0.29285714285744 0  0 0.2635714285718054 0  0 0.2342857142861561 0  0 0.2050000000005308 0  0 0.175714285714732 0  0 0.1464285714289574 0  0 0.1171428571431897 0  0 0.08785714285737878 0  0 0.05857142857161107 0  0 0.02928571428580012 0  0.03015443760436003 0 0  0.06140001986583606 0 0  0.09377624077125973 0 0  0.1273239957535082 0 0  0.1620856860351972 0 0  0.1981052433264291 0 0  0.235428184091502 0 0  0.2741016576309132 0 0  0.3141745521465447 0 0  0.3556974926295285 0 0  0.3987229542472677 0 0  0.4433053055141081 0 0  0.4895008759286886 0 0  0.5373680609405097 0 0  0.5869673343216626 0 0  0.6383613676634521 0 0  0.6916151138468254 0 0  0.7467958595648856 0 0  0.8039733463919316 0 0  0.8632198139502143 0 0  0.9246101326867038 0 0  0.9882218810934433 0 0  1.054135445558498 0 0  1.122434100542598 0 0  1.193204177141305 0 0  1.266535089879536 0 0  1.342519516046404 0 0  1.421253448503939 0 0  1.502836389106271 0 0  1.587371439758838 0 0  1.674965418777374 0 0  1.765729001825544 0 0  1.859776908880082 0 0  1.957227977487062 0 0  2.058205329869943 0 0  2.162836591189951 0 0  2.271253957290865 0 0  2.383594446803425 0 0  2.5 0.1024999999997612 0  2.5 0.2049999999994743 0  2.5 0.3074999999997183 0  2.383594446803656 0.41 0  2.271253957291315 0.41 0  2.162836591190598 0.41 0  2.058205329870775 0.41 0  1.957227977488067 0.41 0  1.859776908881246 0.41 0  1.765729001826854 0.41 0  1.674965418778818 0.41 0  1.58737143976041 0.41 0  1.502836389107956 0.41 0  1.421253448505726 0.41 0  1.342519516048286 0.41 0  1.266535089881505 0.41 0  1.193204177143353 0.41 0  1.122434100544716 0.41 0  1.05413544556068 0.41 0  0.9882218810956305 0.41 0  0.9246101326886647 0.41 0  0.8632198139519631 0.41 0  0.8039733463934788 0.41 0  0.7467958595662458 0.41 0  0.6916151138480078 0.41 0  0.6383613676644679 0.41 0  0.5869673343225223 0.41 0  0.5373680609412221 0.41 0  0.4895008759292634 0.41 0  0.4433053055145528 0.41 0  0.3987229542475914 0.41 0  0.3556974926297398 0.41 0  0.3141745521466497 0.41 0  0.2741016576310038 0.41 0  0.2354281840915826 0.41 0  0.1981052433265003 0.41 0  0.1620856860352591 0.41 0  0.1273239957535623 0.41 0  0.09377624077128965 0.41 0  0.06140001986584975 0.41 0  0.03015443760436654 0.41 0  0.2497468076502589 0.2050254481002335 0  0.2497468076502614 0.1949745518997913 0  0.2469965252529372 0.1829317073451959 0  0.2439893735792749 0.1762316384219906 0  0.2400332147834255 0.1700443375285386 0  0.2352133972704371 0.1645032867342007 0  0.2296339016332438 0.1597280261969788 0  0.2234150974217223 0.1558215752574715 0  0.2166911463437691 0.1528682099456123 0  0.2096071079204251 0.1509316448471593 0  0.2023158100364996 0.1500536585536553 0  0.194974551899914 0.1502531923497262 0  0.1877417105387872 0.1515259415822739 0  0.1807733240461124 0.153844448527136 0  0.1742197252835808 0.15715869474974 0  0.1682222986673531 0.1613971801805478 0  0.162910430003803 0.1664684656256651 0  0.1583987151779087 0.1722631454351573 0  0.1547844879126891 0.178656207771761 0  0.1521457199348551 0.1855097315605723 0  0.1505393388476355 0.1926758619366523 0  0.1505393388476328 0.2073241380633295 0  0.1521457199348437 0.2144902684393899 0  0.1547844879126531 0.221343792228163 0  0.1583987151778488 0.2277368545647528 0  0.1629104300036858 0.2335315343742052 0  0.1682222986671726 0.2386028198193036 0  0.1742197252833576 0.2428413052501257 0  0.1807733240458683 0.2461555514727623 0  0.1877417105384929 0.2484740584176516 0  0.1949745518995776 0.2497468076502398 0  0.202315810036185 0.2499463414463592 0  0.2096071079201568 0.2490683551528932 0  0.2166911463435495 0.2471317900544655 0  0.2234150974215506 0.2441784247426195 0  0.2296339016331197 0.2402719738031125 0  0.2352133972703547 0.2354967132658811 0  0.2400332147833751 0.2299556624715287 0  0.2439893735792577 0.2237683615780412 0  0.246996525252926 0.2170682926548348 0  0.25645809709277 0.21 0  0.2639263993298655 0.21 0  0.271394701566961 0.21 0  0.2788630038040554 0.21 0  0.2863313060411479 0.21 0  0.2937996082782405 0.21 0  0.301267910515333 0.21 0  0.3087362127524279 0.21 0  0.3162045149895234 0.21 0  0.3236728172265972 0.21 0  0.3311411194636928 0.21 0  0.3386094217007701 0.21 0  0.3460777239378666 0.21 0  0.3535460261749672 0.21 0  0.3610143284120516 0.21 0  0.3684826306491596 0.21 0  0.3759509328862226 0.21 0  0.383419235123329 0.21 0  0.3908875373604028 0.21 0  0.3983558395975142 0.21 0  0.4058241418345938 0.21 0  0.4132924440716992 0.21 0  0.4207607463087888 0.21 0  0.4282290485459029 0.21 0  0.4356973507830418 0.21 0  0.4431656530201649 0.21 0  0.4506339552573136 0.21 0  0.4581022574944306 0.21 0  0.4655705597315852 0.21 0  0.4730388619686996 0.21 0  0.480507164205851 0.21 0  0.4879754664429498 0.21 0  0.4954437686800938 0.21 0  0.502912070917267 0.21 0  0.5103803731544119 0.21 0  0.5178486753915261 0.21 0  0.5253169776286404 0.21 0  0.5327852798657868 0.21 0  0.5402535821029386 0.21 0  0.54772188434007 0.21 0  0.5551901865771842 0.21 0  0.5626584888143201 0.21 0  0.5701267910514778 0.21 0  0.5775950932886138 0.21 0  0.5850633955257281 0.21 0  0.5925316977628483 0.21 0  0.6 0.2050000000000054 0  0.6 0.1950000000000217 0  0.5925316977628897 0.19 0  0.5850633955257988 0.19 0  0.5775950932887378 0.19 0  0.5701267910515998 0.19 0  0.5626584888145268 0.19 0  0.5551901865773963 0.19 0  0.547721884340339 0.19 0  0.5402535821032429 0.19 0  0.5327852798661811 0.19 0  0.5253169776290537 0.19 0  0.5178486753919799 0.19 0  0.5103803731549078 0.19 0  0.502912070917822 0.19 0  0.4954437686807294 0.19 0  0.4879754664436223 0.19 0  0.4805071642065402 0.19 0  0.4730388619694271 0.19 0  0.4655705597323621 0.19 0  0.4581022574952563 0.19 0  0.4506339552581777 0.19 0  0.4431656530210671 0.19 0  0.4356973507839815 0.19 0  0.4282290485468779 0.19 0  0.4207607463097617 0.19 0  0.4132924440726327 0.19 0  0.4058241418354857 0.19 0  0.3983558395983636 0.19 0  0.3908875373612097 0.19 0  0.3834192351240934 0.19 0  0.3759509328869369 0.19 0  0.3684826306498175 0.19 0  0.361014328412667 0.19 0  0.3535460261755617 0.19 0  0.3460777239384295 0.19 0  0.3386094217012945 0.19 0  0.3311411194641595 0.19 0  0.3236728172270245 0.19 0  0.3162045149898895 0.19 0  0.3087362127527544 0.19 0  0.3012679105156187 0.19 0  0.2937996082784807 0.19 0  0.2863313060413428 0.19 0  0.2788630038042048 0.19 0  0.2713947015670686 0.19 0  0.2639263993299336 0.19 0  0.2564580970927985 0.19 0  0.2607803159922026 0.2000727136295815 0  0.5887803774232762 0.2001272386983733 0  0.5745072403740523 0.2002044435018727 0  0.5511891430099709 0.2001122610077113 0  0.2751288526855082 0.20000000000002 0  0.5365194309847112 0.1999999999999436 0  0.2894621222999649 0.1998691686390484 0  0.5215828265105155 0.1999999999999228 0  0.3127789816668748 0.1998657885438805 0  0.3274069683451451 0.2000000000000796 0  0.5066462220363641 0.199999999999908 0  0.3650630746574081 0.199866017807523 0  0.476773013087985 0.1999999999998713 0  0.3417402379596385 0.1998691686391011 0  0.3796850840047755 0.200000000000134 0  0.4618364086138087 0.1999999999998546 0  0.4917096175621762 0.1999999999998808 0  0.3946216884789568 0.2000000000001512 0  0.446899804139621 0.1999999999998389 0  0.4089549580935208 0.1998691686391595 0  0.4322718174608562 0.200127451265745 0  0.4201487168029707 0.1999966199048527 0  0.3528922713220932 0.2000185703532356 0  0.5633122436674589 0.1999814296467508 0  0.3006558810093873 0.1999966199048318 0  0.5815926498168407 0.1966545283159175 0  0.2677053789419034 0.1964246479135325 0  0.5290511287476175 0.1970915826863981 0  0.5439877332217911 0.197091582686394 0  0.2825131256993216 0.2035478995978015 0  0.3199386661080599 0.202908417313604 0  0.4842413153250809 0.1970915826863873 0  0.5141145242734466 0.1970915826863843 0  0.3722167817676917 0.2029084173136195 0  0.4693047108508938 0.1970915826863783 0  0.3348752705822316 0.202908417313609 0  0.3871533862418661 0.2029084173136212 0  0.4543681063767183 0.1970915826863795 0  0.4991779197992749 0.1970915826863902 0  0.4020059614928624 0.203547899597858 0  0.4394315019025246 0.1970915826863714 0  0.2550657455369551 0.2034088125358657 0  0.2548908499171161 0.1966940311614271 0  0.5946539510196798 0.2024302972968126 0  0.267698176732111 0.2039977513680092 0  0.4261685417851465 0.196409292431739 0  0.3590076176283495 0.196411355804271 0  0.5571672426447437 0.2036011176410121 0  0.3066757059912147 0.1964092924317024 0  0.594380730180568 0.1966558399668133 0  0.4842413153245942 0.2040749161535287 0  0.4693047108503577 0.2040749161535231 0  0.3871533862424271 0.1959250838464788 0  0.372246743208829 0.1959123236376545 0  0.5141145242731028 0.2040749161535395 0  0.4543681063761134 0.2040749161535186 0  0.4019979587101454 0.1959834479682427 0  0.4394608940728603 0.2040870543693135 0  0.5439623148931173 0.2040856076781014 0  0.5290511287473298 0.2040749161535501 0  0.4991779197988497 0.2040749161535382 0  0.3347912413592433 0.1959225448935183 0  0.3199680582793816 0.1959123018030061 0  0.2825051229162361 0.1959834479681729 0  0.3590471196690275 0.2036304442587945 0  0.5571594006495384 0.1963685282145804 0  0.3067669986803285 0.203627750582736 0  0.4262598344738712 0.2036568242185335 0  0.5814408164431408 0.2041285596160068 0  0.5688286748170428 0.1961819304477386 0  0.4145905603063645 0.2038180695522843 0  0.3473758401724931 0.2038180695522752 0  0.2950977245128307 0.2038180695522663 0  0.5688286748170693 0.203818069552238 0  0.2950977245127906 0.1961819304477774 0  0.3473758401723931 0.1961819304478349 0  0.4145905603061963 0.1961819304479011 0  0.2601812407614425 0.2056861609747042
[...]
<PointData  Vectors="f_40-1"> 
<DataArray  type="Float64"  Name="f_40-1"  NumberOfComponents="3" format="ascii">0.0000000000000000e+00 0.0000000000000000e+00 0.0000000000000000e+00  0.0000000000000000e+00 0.0000000000000000e+00 0.0000000000000000e+00  0.0000000000000000e+00 0.0000000000000000e+00 0.0000000000000000e+00  0.0000000000000000e+00 0.0000000000000000e+00 0.0000000000000000e+00  5.7326617550111952e-05 9.9828495291432373e-04 0.0000000000000000e+00  -9.4412890446304290e-06 9.9953780821406078e-04 0.0000000000000000e+00  0.0000000000000000e+00 0.0000000000000000e+00 0.0000000000000000e+00  0.0000000000000000e+00 0.0000000000000000e+00 0.0000000000000000e+00  0.0000000000000000e+00 0.0000000000000000e+00 0.0000000000000000e+00  0.0000000000000000e+00 0.0000000000000000e+00 0.0000000000000000e+00  2.3872082201142843e-05 9.9890968107796039e-04 0.0000000000000000e+00  0.0000000000000000e+00 0.0000000000000000e+00 0.0000000000000000e+00  0.0000000000000000e+00 0.0000000000000000e+00 0.0000000000000000e+00  0.0000000000000000e+00 0.0000000000000000e+00 0.0000000000000000e+00  0.0000000000000000e+00 0.0000000000000000e+00 0.0000000000000000e+00  0.0000000000000000e+00 0.0000000000000000e+00 0.0000000000000000e+00  0.0000000000000000e+00 0.0000000000000000e+00 0.0000000000000000e+00  0.0000000000000000e+00 0.0000000000000000e+00 0.0000000000000000e+00  0.0000000000000000e+00 0.0000000000000000e+00 0.0000000000000000e+00  0.0000000000000000e+00 0.0000000000000000e+00 0.0000000000000000e+00  0.0000000000000000e+00 0.0000000000000000e+00 0.0000000000000000e+00  0.0000000000000000e+00 0.0000000000000000e+00 0.0000000000000000e+00  0.0000000000000000e+00 0.0000000000000000e+00 0.0000000000000000e+00  0.0000000000000000e+00 0.0000000000000000e+00 0.0000000000000000e+00  0.0000000000000000e+00 0.0000000000000000e+00 0.0000000000000000e+00  0.0000000000000000e+00 0.0000000000000000e+00 0.0000000000000000e+00  0.0000000000000000e+00 0.0000000000000000e+00 0.0000000000000000e+00  0.0000000000000000e+00 0.0000000000000000e+00 0.0000000000000000e+00  0.0000000000000000e+00 0.0000000000000000e+00 0.0000000000000000e+00  0.0000000000000000e+00 0.0000000000000000e+00 0.0000000000000000e+00  0.0000000000000000e+00 0.0000000000000000e+00 0.0000000000000000e+00  0.0000000000000000e+00 0.0000000000000000e+00 0.0000000000000000e+00  0.0000000000000000e+00 0.0000000000000000e+00 0.0000000000000000e+00  0.0000000000000000e+00 0.0000000000000000e+00 0.0000000000000000e+00  0.0000000000000000e+00 0.0000000000000000e+00 0.0000000000000000e+00  0.0000000000000000e+00 0.0000000000000000e+00 0.0000000000000000e+00  0.0000000000000000e+00 0.0000000000000000e+00 0.0000000000000000e+00  0.0000000000000000e+00 0.0000000000000000e+00 0.0000000000000000e+00  0.0000000000000000e+00 0.0000000000000000e+00 0.0000000000000000e+00  0.0000000000000000e+00 0.0000000000000000e+00 0.0000000000000000e+00  0.0000000000000000e+00 0.0000000000000000e+00 0.0000000000000000e+00  0.0000000000000000e+00 0.0000000000000000e+00 0.0000000000000000e+00  0.0000000000000000e+00 0.0000000000000000e+00 0.0000000000000000e+00  0.0000000000000000e+00 0.0000000000000000e+00 0.0000000000000000e+00  0.0000000000000000e+00 0.0000000000000000e+00 0.0000000000000000e+00  0.0000000000000000e+00 0.0000000000000000e+00 0.0000000000000000e+00  0.0000000000000000e+00 0.0000000000000000e+00 0.0000000000000000e+00  0.0000000000000000e+00 0.0000000000000000e+00 0.0000000000000000e+00  0.0000000000000000e+00 0.0000000000000000e+00 0.0000000000000000e+00  0.0000000000000000e+00 0.0000000000000000e+00 0.0000000000000000e+00  0.0000000000000000e+00 0.0000000000000000e+00 0.0000000000000000e+00  0.0000000000000000e+00 0.0000000000000000e+00 0.0000000000000000e+00  0.0000000000000000e+00 0.0000000000000000e+00 0.0000000000000000e+00  0.0000000000000000e+00 0.0000000000000000e+00 0.0000000000000000e+00  0.0000000000000000e+00 0.0000000000000000e+00 0.0000000000000000e+00  0.0000000000000000e+00 0.0000000000000000e+00 0.0000000000000000e+00  0.0000000000000000e+00 0.0000000000000000e+00 0.0000000000000000e+00  0.0000000000000000e+00 0.0000000000000000e+00 0.0000000000000000e+00  0.0000000000000000e+00 0.0000000000000000e+00 0.0000000000000000e+00  0.0000000000000000e+00 0.0000000000000000e+00 0.0000000000000000e+00  0.0000000000000000e+00 0.0000000000000000e+00 0.0000000000000000e+00  0.0000000000000000e+00 0.0000000000000000e+00 0.0000000000000000e+00  0.0000000000000000e+00 0.0000000000000000e+00 0.0000000000000000e+00  0.0000000000000000e+00 0.0000000000000000e+00 0.0000000000000000e+00  0.0000000000000000e+00 0.0000000000000000e+00 0.0000000000000000e+00  0.0000000000000000e+00 0.0000000000000000e+00 0.0000000000000000e+00  0.0000000000000000e+00 0.0000000000000000e+00 0.0000000000000000e+00  0.0000000000000000e+00 0.0000000000000000e+00 0.0000000000000000e+00  0.0000000000000000e+00 0.0000000000000000e+00 0.0000000000000000e+00  0.0000000000000000e+00 0.0000000000000000e+00 0.0000000000000000e+00  0.0000000000000000e+00 0.0000000000000000e+00 0.0000000000000000e+00  0.0000000000000000e+00 0.0000000000000000e+00 0.0000000000000000e+00  0.0000000000000000e+00 0.0000000000000000e+00 0.0000000000000000e+00  0.0000000000000000e+00 0.0000000000000000e+00 0.0000000000000000e+00  0.0000000000000000e+00 0.0000000000000000e+00 0.0000000000000000e+00  0.0000000000000000e+00 0.0000000000000000e+00 0.0000000000000000e+00  0.0000000000000000e+00 0.0000000000000000e+00 0.0000000000000000e+00  0.0000000000000000e+00 0.0000000000000000e+00 0.0000000000000000e+00  0.0000000000000000e+00 0.0000000000000000e+00 0.0000000000000000e+00  0.0000000000000000e+00 0.0000000000000000e+00 0.0000000000000000e+00  0.0000000000000000e+00 0.0000000000000000e+00 0.0000000000000000e+00  0.0000000000000000e+00 0.0000000000000000e+00 0.0000000000000000e+00  0.0000000000000000e+00 0.0000000000000000e+00 0.0000000000000000e+00  0.0000000000000000e+00 0.0000000000000000e+00 0.0000000000000000e+00  0.0000000000000000e+00 0.0000000000000000e+00 0.0000000000000000e+00  0.0000000000000000e+00 0.0000000000000000e+00 0.0000000000000000e+00  0.0000000000000000e+00 0.0000000000000000e+00 0.0000000000000000e+00  0.0000000000000000e+00 0.0000000000000000e+00 0.0000000000000000e+00  0.0000000000000000e+00 0.0000000000000000e+00 0.0000000000000000e+00  0.0000000000000000e+00 0.0000000000000000e+00 0.0000000000000000e+00  0.0000000000000000e+00 0.0000000000000000e+00 0.0000000000000000e+00  0.0000000000000000e+00 0.0000000000000000e+00 0.0000000000000000e+00  0.0000000000000000e+00 0.0000000000000000e+00 0.0000000000000000e+00  0.0000000000000000e+00 0.0000000000000000e+00 0.0000000000000000e+00  0.0000000000000000e+00 0.0000000000000000e+00 0.0000000000000000e+00  0.0000000000000000e+00 0.0000000000000000e+00 0.0000000000000000e+00  0.0000000000000000e+00 0.0000000000000000e+00 0.0000000000000000e+00  0.0000000000000000e+00 0.0000000000000000e+00 0.0000000000000000e+00  0.0000000000000000e+00 0.0000000000000000e+00 0.0000000000000000e+00  0.0000000000000000e+00 0.0000000000000000e+00 0.0000000000000000e+00  0.0000000000000000e+00 0.0000000000000000e+00 0.0000000000000000e+00  0.0000000000000000e+00 0.0000000000000000e+00 0.0000000000000000e+00  0.0000000000000000e+00 0.0000000000000000e+00 0.0000000000000000e+00  0.0000000000000000e+00 0.0000000000000000e+00 0.0000000000000000e+00  0.0000000000000000e+00 0.0000000000000000e+00 0.0000000000000000e+00  0.0000000000000000e+00 0.0000000000000000e+00 0.0000000000000000e+00  0.0000000000000000e+00 0.0000000000000000e+00 0.0000000000000000e+00  0.0000000000000000e+00 0.0000000000000000e+00 0.0000000000000000e+00  0.0000000000000000e+00 0.0000000000000000e+00 0.0000000000000000e+00  0.0000000000000000e+00 0.0000000000000000e+00 0.0000000000000000e+00  0.0000000000000000e+00 0.0000000000000000e+00 0.0000000000000000e+00  0.0000000000000000e+00 0.0000000000000000e+00 0.0000000000000000e+00  0.0000000000000000e+00 0.0000000000000000e+00 0.0000000000000000e+00  0.0000000000000000e+00 0.0000000000000000e+00 0.0000000000000000e+00  0.0000000000000000e+00 0.0000000000000000e+00 0.0000000000000000e+00  0.0000000000000000e+00 0.0000000000000000e+00 0.0000000000000000e+00  0.0000000000000000e+00 0.0000000000000000e+00 0.0000000000000000e+00  0.0000000000000000e+00 0.0000000000000000e+00 0.0000000000000000e+00  0.0000000000000000e+00 0.0000000000000000e+00 0.0000000000000000e+00  0.0000000000000000e+00 0.0000000000000000e+00 0.0000000000000000e+00  0.0000000000000000e+00 0.0000000000000000e+00 0.0000000000000000e+00  0.0000000000000000e+00 0.0000000000000000e+00 0.0000000000000000e+00  0.0000000000000000e+00 0.0000000000000000e+00 0.0000000000000000e+00  0.0000000000000000e+00 0.0000000000000000e+00 0.0000000000000000e+00  0.0000000000000000e+00 0.0000000000000000e+00 0.0000000000000000e+00  0.0000000000000000e+00 0.0000000000000000e+00 0.0000000000000000e+00  0.0000000000000000e+00 0.0000000000000000e+00 0.0000000000000000e+00  0.0000000000000000e+00 0.0000000000000000e+00 0.0000000000000000e+00  0.0000000000000000e+00 0.0000000000000000e+00 0.0000000000000000e+00  0.0000000000000000e+00 0.0000000000000000e+00 0.0000000000000000e+00  0.0000000000000000e+00 0.0000000000000000e+00 0.0000000000000000e+00  0.0000000000000000e+00 0.0000000000000000e+00 0.0000000000000000e+00  0.0000000000000000e+00 0.0000000000000000e+00 0.0000000000000000e+00  0.0000000000000000e+00 0.0000000000000000e+00 0.0000000000000000e+00  0.0000000000000000e+00 0.0000000000000000e+00 0.0000000000000000e+00  0.0000000000000000e+00 0.0000000000000000e+00 0.0000000000000000e+00  0.0000000000000000e+00 0.0000000000000000e+00 0.0000000000000000e+00  0.0000000000000000e+00 0.0000000000000000e+00 0.0000000000000000e+00  0.0000000000000000e+00 0.0000000000000000e+00 0.0000000000000000e+00  0.0000000000000000e+00 0.0000000000000000e+00 0.0000000000000000e+00  0.0000000000000000e+00 0.0000000000000000e+00 0.0000000000000000e+00  0.0000000000000000e+00 0.0000000000000000e+00 0.0000000000000000e+00  0.0000000000000000e+00 0.0000000000000000e+00 0.0000000000000000e+00  -2.7433538565145909e-06 3.8465036681208975e-06 0.0000000000000000e+00  -5.7630980300287430e-06 7.7741807098859256e-06 0.0000000000000000e+00  -8.2761723248744781e-06 1.3793085053963887e-05 0.0000000000000000e+00  -1.0895429977940587e-05 2.2033904090558695e-05 0.0000000000000000e+00  -1.2896706038726686e-05 3.1982363141621767e-05 0.0000000000000000e+00  -1.5049632350387721e-05 4.3806830988736346e-05 0.0000000000000000e+00  -1.6591887479754071e-05 5.6915841090920368e-05 0.0000000000000000e+00  -1.7943020967459208e-05 7.1658335480175904e-05 0.0000000000000000e+00  -1.9445512485351330e-05 8.7581012408737450e-05 0.0000000000000000e+00  -2.0358920898523860e-05 1.0464884682117741e-04 0.0000000000000000e+00  -2.1472036556876525e-05 1.2283677192863836e-04 0.0000000000000000e+00  -2.2079969252602075e-05 1.4194248206249259e-04 0.0000000000000000e+00  -2.2796758721192014e-05 1.6193620962612538e-04 0.0000000000000000e+00  -2.3176064122828496e-05 1.8259816817010622e-04 0.0000000000000000e+00  -2.3444661398394062e-05 2.0404552964488156e-04 0.0000000000000000e+00  -2.3770066202990157e-05 2.2605913735454503e-04 0.0000000000000000e+00  -2.3802202993438468e-05 2.4860956989327607e-04 0.0000000000000000e+00  -2.3909875636311660e-05 2.7167913217095548e-04 0.0000000000000000e+00  -2.3778492763604875e-05 2.9515721925163957e-04 0.0000000000000000e+00  -2.3696569888947303e-05 3.1902135341186624e-04 0.0000000000000000e+00  -2.3457392040790245e-05 3.4321348933371719e-04 0.0000000000000000e+00  -2.3222992924987777e-05 3.6771180631493653e-04 0.0000000000000000e+00  -2.2878802160156150e-05 3.9241454296949104e-04 0.0000000000000000e+00  -2.2491094916042628e-05 4.1736164209009880e-04 0.0000000000000000e+00  -2.2108062254051848e-05 4.4246087126149675e-04 0.0000000000000000e+00  -2.1653408639149304e-05 4.6771701545626510e-04 0.0000000000000000e+00  -2.1179044255611550e-05 4.9309547898082487e-04 0.0000000000000000e+00  -2.0666877151289504e-05 5.1855444272395012e-04 0.0000000000000000e+00  -2.0135721513392058e-05 5.4408818795713008e-04 0.0000000000000000e+00  -1.9578866501084593e-05 5.6965997554150340e-04 0.0000000000000000e+00  -1.9005203648640359e-05 5.9526154664789842e-04 0.0000000000000000e+00  -1.8414747264300213e-05 6.2086528071941566e-04 0.0000000000000000e+00  -1.7810405962308658e-05 6.4646207158091111e-04 0.0000000000000000e+00  -1.7196913870064597e-05 6.7203218727381032e-04 0.0000000000000000e+00  -1.6571951533207856e-05 6.9756687875834002e-04 0.0000000000000000e+00  -1.5945615876995423e-05 7.2305463419342899e-04 0.0000000000000000e+00  -1.5311872192994138e-05 7.4848540492847575e-04 0.0000000000000000e+00  -1.4683349532545204e-05 7.7385731865636462e-04 0.0000000000000000e+00  -1.4051929185129009e-05 7.9915974067404122e-04 0.0000000000000000e+00  -1.3432213883400074e-05 8.2440181987653819e-04 0.0000000000000000e+00  -1.2812796712338711e-05 8.4956781838204612e-04 0.0000000000000000e+00  -1.2216630852270169e-05 8.7468240626345430e-04 0.0000000000000000e+00  -1.1634140458135092e-05 8.9973153302003650e-04 0.0000000000000000e+00  -1.1055015917028534e-05 9.2473800960677071e-04 0.0000000000000000e+00  -1.0505472014221890e-05 9.4970778478728935e-04 0.0000000000000000e+00  -9.9704914456045357e-06 9.7464173819503130e-04 0.0000000000000000e+00  7.1898188538299820e-06 9.9922371411746984e-04 0.0000000000000000e+00  4.0580942481593014e-05 9.9859367699612657e-04 0.0000000000000000e+00  5.6802907089742826e-05 9.7333614357736776e-04 0.0000000000000000e+00  5.6314660641987787e-05 9.4840177977820693e-04 0.0000000000000000e+00  5.5837079109229971e-05 9.2344230138052981e-04 0.0000000000000000e+00  5.5377464674341663e-05 8.9844090758956559e-04 0.0000000000000000e+00  5.4912979354029757e-05 8.7339619102454397e-04 0.0000000000000000e+00  5.4453266450074578e-05 8.4828789397829556e-04 0.0000000000000000e+00  5.4009057390425072e-05 8.2312052775850865e-04 0.0000000000000000e+00  5.3541833311983905e-05 7.9789168084311670e-04 0.0000000000000000e+00  5.3089205417090841e-05 7.7258902163803605e-04 0.0000000000000000e+00  5.2605794201894715e-05 7.4722877626613423e-04 0.0000000000000000e+00  5.2129255112938345e-05 7.2179896404207539e-04 0.0000000000000000e+00  5.1619578818539981e-05 6.9632357275620834e-04 0.0000000000000000e+00  5.1105777765487884e-05 6.7079076635185610e-04 0.0000000000000000e+00  5.0559186261955344e-05 6.4523249048595885e-04 0.0000000000000000e+00  4.9995024311967185e-05 6.1963760648881254e-04 0.0000000000000000e+00  4.9402046194108914e-05 5.9404502733575819e-04 0.0000000000000000e+00  4.8775775636198057e-05 5.6844460625678380e-04 0.0000000000000000e+00  4.8127994888991288e-05 5.4288128504033145e-04 0.0000000000000000e+00  4.7428830706228930e-05 5.1734688255639322e-04 0.0000000000000000e+00  4.6718756949003371e-05 4.9189133478561909e-04 0.0000000000000000e+00  4.5934800124576943e-05 4.6650988489069245e-04 0.0000000000000000e+00  4.5153196064126177e-05 4.4125744441097554e-04 0.0000000000000000e+00  4.4274994483904192e-05 4.1614059198838112e-04 0.0000000000000000e+00  4.3402537033192691e-05 3.9118456478720110e-04 0.0000000000000000e+00  4.2491245068386717e-05 3.6646918111701268e-04 0.0000000000000000e+00  4.1477220562620329e-05 3.4194302864609541e-04 0.0000000000000000e+00  4.0455348090982265e-05 3.1773609566136283e-04 0.0000000000000000e+00  3.9337849804296363e-05 2.9382614312170900e-04 0.0000000000000000e+00  3.8204131745281678e-05 2.7031400745285302e-04 0.0000000000000000e+00  3.6965732463351727e-05 2.4720260686896390e-04 0.0000000000000000e+00  3.5713916058599563e-05 2.2457047248347853e-04 0.0000000000000000e+00  3.4273704921601806e-05 2.0253949065708504e-04 0.0000000000000000e+00  3.2913129657523489e-05 1.8101400168913712e-04 0.0000000000000000e+00  3.1494237587584074e-05 1.6029549001429731e-04 0.0000000000000000e+00  2.9816082184367781e-05 1.4016850059642852e-04 0.0000000000000000e+00  2.8169637585882630e-05 1.2099957541440335e-04 0.0000000000000000e+00  2.6323353588079906e-05 1.0273003228406987e-04 0.0000000000000000e+00  2.4481216805665670e-05 8.5507081716808118e-05 0.0000000000000000e+00  2.2270282962918811e-05 6.9566686345472621e-05 0.0000000000000000e+00  2.0243658877599255e-05 5.4705296370978722e-05 0.0000000000000000e+00  1.8112414324559710e-05 4.1506490496645503e-05 0.0000000000000000e+00  1.5460135293618947e-05 2.9546909754746015e-05 0.0000000000000000e+00  1.2920164519399374e-05 1.9458876320078215e-05 0.0000000000000000e+00  9.8430064972800653e-06 1.1253131989595330e-05 0.0000000000000000e+00  6.9251463739094842e-06 5.2104448062148341e-06 0.0000000000000000e+00  3.3591545412172086e-06 1.4228424801761251e-06 0.0000000000000000e+00  6.7284400348890339e-07 2.9514815259819016e-06 0.0000000000000000e+00  2.2700818670733062e-05 9.6148482251399905e-04 0.0000000000000000e+00  2.1472435337901009e-05 9.1379624712133764e-04 0.0000000000000000e+00  2.0137223824726013e-05 8.3549887002744045e-04 0.0000000000000000e+00  9.5695422816632306e-07 1.5077736523499665e-05 0.0000000000000000e+00  1.9452889339779990e-05 7.8592140271830128e-04 0.0000000000000000e+00  1.5910257855496849e-06 3.4393055119756572e-05 0.0000000000000000e+00  1.8347835743010816e-05 7.3518341320341293e-04 0.0000000000000000e+00  2.6772743310093181e-06 7.8247677880763822e-05 0.0000000000000000e+00  3.1862971275772269e-06 1.1202183285864402e-04 0.0000000000000000e+00  1.7217608185147109e-05 6.8420750572775681e-04 0.0000000000000000e+00  6.1208825217832460e-06 2.1475841013260031e-04 0.0000000000000000e+00  1.4877574345971582e-05 5.8183807101361469e-04 0.0000000000000000e+00  4.4171964836911661e-06 1.4878847803570861e-04 0.0000000000000000e+00  6.8615163415880511e-06 2.5909279030886966e-04 0.0000000000000000e+00  1.3668646400592209e-05 5.3067206836826715e-04 0.0000000000000000e+00  1.6060911117711211e-05 6.3305953819469936e-04 0.0000000000000000e+00  8.0701625258140594e-06 3.0615388666949882e-04 0.0000000000000000e+00  1.2438260803168128e-05 4.7972084367513989e-04 0.0000000000000000e+00  9.6873822284011761e-06 3.5262524541394521e-04 0.0000000000000000e+00  1.0790403469978900e-05 4.3022181385689849e-04 0.0000000000000000e+00  1.0208423857389929e-05 3.8965836519926962e-04 0.0000000000000000e+00  4.7912325398892850e-06 1.7962435392660146e-04 0.0000000000000000e+00  2.1433346126681586e-05 8.7625610918127162e-04 0.0000000000000000e+00  1.8606481577771700e-06 5.3968792773656125e-05 0.0000000000000000e+00  3.3826923716975540e-05 9.3725262714902148e-04 0.0000000000000000e+00  3.5466099212486545e-06 7.5929126533346718e-06 0.0000000000000000e+00  2.8770027723985004e-05 7.6039660922928051e-04 0.0000000000000000e+00  2.9816738373465747e-05 8.1100013850823589e-04 0.0000000000000000e+00  -3.3950224183215577e-06 2.4865384209635576e-05 0.0000000000000000e+00  -3.8276919840108822e-06 9.4644481962986756e-05 0.0000000000000000e+00  2.5419572787485596e-05 6.0727347283239918e-04 0.0000000000000000e+00  2.7693980077036425e-05 7.0953643339723843e-04 0.0000000000000000e+00  -2.4689244143669072e-06 2.3646575423677684e-04 0.0000000000000000e+00  2.4208230369223097e-05 5.5606652020963397e-04 0.0000000000000000e+00  -3.7166018477533415e-06 1.3112093317333790e-04 0.0000000000000000e+00  -1.6351417875268766e-06 2.8265982026788410e-04 0.0000000000000000e+00  2.2941870152910402e-05 5.0499080843389695e-04 0.0000000000000000e+00  2.6579569944152936e-05 6.5846794967950499e-04 0.0000000000000000e+00  -2.7533210710061133e-06 3.3022268335745230e-04 0.0000000000000000e+00  2.1621051490197931e-05 4.5422016105950132e-04 0.0000000000000000e+00  -4.9245224919354500e-08 1.0060526207579688e-06 0.0000000000000000e+00  9.3142324393774607e-07 4.0686128868434369e-07 0.0000000000000000e+00  1.5402558086112946e-05 9.8123327316863677e-04 0.0000000000000000e+00  -2.3006871422529943e-06 8.6216018839354148e-06 0.0000000000000000e+00  2.2678022244473260e-05 4.0952469238678612e-04 0.0000000000000000e+00  1.5590535524935064e-05 