<?xml version="1.0"?>
<VTKFile type="UnstructuredGrid"  version="0.1"  >
<UnstructuredGrid>
<Piece  NumberOfPoints="1419" NumberOfCells="2698">
<Points>
<DataArray  type="Float64"  NumberOfComponents="3"  format="ascii">0 0 0  0 0.41 0  2.5 0 0  2.5 0.41 0  0.6 0.19 0  0.6 0.21 0  0.25 0.2 0  0.15 0.2 0  0.2489897948556636 0.21 0  0.2489897948556636 0.19 0  0.6 0.2 0  0 0.3807142857143437 0  0 0.3514285714286952 0  0 0.3221428571430699 0  0 0.29285714285744 0  0 0.2635714285718054 0  0 0.2342857142861561 0  0 0.2050000000005308 0  0 0.175714285714732 0  0 0.1464285714289574 0  0 0.1171428571431897 0  0 0.08785714285737878 0  0 0.05857142857161107 0  0 0.02928571428580012 0  0.03015443760436003 0 0  0.06140001986583606 0 0  0.09377624077125973 0 0  0.1273239957535082 0 0  0.1620856860351972 0 0  0.1981052433264291 0 0  0.235428184091502 0 0  0.2741016576309132 0 0  0.3141745521465447 0 0  0.3556974926295285 0 0  0.3987229542472677 0 0  0.4433053055141081 0 0  0.4895008759286886 0 0  0.5373680609405097 0 0  0.5869673343216626 0 0  0.6383613676634521 0 0  0.6916151138468254 0 0  0.7467958595648856 0 0  0.8039733463919316 0 0  0.8632198139502143 0 0  0.9246101326867038 0 0  0.9882218810934433 0 0  1.054135445558498 0 0  1.122434100542598 0 0  1.193204177141305 0 0  1.266535089879536 0 0  1.342519516046404 0 0  1.421253448503939 0 0  1.502836389106271 0 0  1.587371439758838 0 0  1.674965418777374 0 0  1.765729001825544 0 0  1.859776908880082 0 0  1.957227977487062 0 0  2.058205329869943 0 0  2.162836591189951 0 0  2.271253957290865 0 0  2.383594446803425 0 0  2.5 0.1024999999997612 0  2.5 0.2049999999994743 0  2.5 0.3074999999997183 0  2.383594446803656 0.41 0  2.271253957291315 0.41 0  2.162836591190598 0.41 0  2.058205329870775 0.41 0  1.957227977488067 0.41 0  1.859776908881246 0.41 0  1.765729001826854 0.41 0  1.674965418778818 0.41 0  1.58737143976041 0.41 0  1.502836389107956 0.41 0  1.421253448505726 0.41 0  1.342519516048286 0.41 0  1.266535089881505 0.41 0  1.193204177143353 0.41 0  1.122434100544716 0.41 0  1.05413544556068 0.41 0  0.9882218810956305 0.41 0  0.9246101326886647 0.41 0  0.8632198139519631 0.41 0  0.8039733463934788 0.41 0  0.7467958595662458 0.41 0  0.6916151138480078 0.41 0  0.6383613676644679 0.41 0  0.5869673343225223 0.41 0  0.5373680609412221 0.41 0  0.4895008759292634 0.41 0  0.4433053055145528 0.41 0  0.3987229542475914 0.41 0  0.3556974926297398 0.41 0  0.3141745521466497 0.41 0  0.2741016576310038 0.41 0  0.2354281840915826 0.41 0  0.1981052433265003 0.41 0  0.1620856860352591 0.41 0  0.1273239957535623 0.41 0  0.09377624077128965 0.41 0  0.06140001986584975 0.41 0  0.03015443760436654 0.41 0  0.2497468076502589 0.2050254481002335 0  0.2497468076502614 0.1949745518997913 0  0.2469965252529372 0.1829317073451959 0  0.2439893735792749 0.1762316384219906 0  0.2400332147834255 0.1700443375285386 0  0.2352133972704371 0.1645032867342007 0  0.2296339016332438 0.1597280261969788 0  0.2234150974217223 0.1558215752574715 0  0.2166911463437691 0.1528682099456123 0  0.2096071079204251 0.1509316448471593 0  0.2023158100364996 0.1500536585536553 0  0.194974551899914 0.1502531923497262 0  0.1877417105387872 0.1515259415822739 0  0.1807733240461124 0.153844448527136 0  0.1742197252835808 0.15715869474974 0  0.1682222986673531 0.1613971801805478 0  0.162910430003803 0.1664684656256651 0  0.1583987151779087 0.1722631454351573 0  0.1547844879126891 0.178656207771761 0  0.1521457199348551 0.1855097315605723 0  0.1505393388476355 0.1926758619366523 0  0.1505393388476328 0.2073241380633295 0  0.1521457199348437 0.2144902684393899 0  0.1547844879126531 0.221343792228163 0  0.1583987151778488 0.2277368545647528 0  0.1629104300036858 0.2335315343742052 0  0.1682222986671726 0.2386028198193036 0  0.1742197252833576 0.2428413052501257 0  0.1807733240458683 0.2461555514727623 0  0.1877417105384929 0.2484740584176516 0  0.1949745518995776 0.2497468076502398 0  0.202315810036185 0.2499463414463592 0  0.2096071079201568 0.2490683551528932 0  0.2166911463435495 0.2471317900544655 0  0.2234150974215506 0.2441784247426195 0  0.2296339016331197 0.2402719738031125 0  0.2352133972703547 0.2354967132658811 0  0.2400332147833751 0.2299556624715287 0  0.2439893735792577 0.2237683615780412 0  0.246996525252926 0.2170682926548348 0  0.25645809709277 0.21 0  0.2639263993298655 0.21 0  0.271394701566961 0.21 0  0.2788630038040554 0.21 0  0.2863313060411479 0.21 0  0.2937996082782405 0.21 0  0.301267910515333 0.21 0  0.3087362127524279 0.21 0  0.3162045149895234 0.21 0  0.3236728172265972 0.21 0  0.3311411194636928 0.21 0  0.3386094217007701 0.21 0  0.3460777239378666 0.21 0  0.3535460261749672 0.21 0  0.3610143284120516 0.21 0  0.3684826306491596 0.21 0  0.3759509328862226 0.21 0  0.383419235123329 0.21 0  0.3908875373604028 0.21 0  0.3983558395975142 0.21 0  0.4058241418345938 0.21 0  0.4132924440716992 0.21 0  0.4207607463087888 0.21 0  0.4282290485459029 0.21 0  0.4356973507830418 0.21 0  0.4431656530201649 0.21 0  0.4506339552573136 0.21 0  0.4581022574944306 0.21 0  0.4655705597315852 0.21 0  0.4730388619686996 0.21 0  0.480507164205851 0.21 0  0.4879754664429498 0.21 0  0.4954437686800938 0.21 0  0.502912070917267 0.21 0  0.5103803731544119 0.21 0  0.5178486753915261 0.21 0  0.5253169776286404 0.21 0  0.5327852798657868 0.21 0  0.5402535821029386 0.21 0  0.54772188434007 0.21 0  0.5551901865771842 0.21 0  0.5626584888143201 0.21 0  0.5701267910514778 0.21 0  0.5775950932886138 0.21 0  0.5850633955257281 0.21 0  0.5925316977628483 0.21 0  0.6 0.2050000000000054 0  0.6 0.1950000000000217 0  0.5925316977628897 0.19 0  0.5850633955257988 0.19 0  0.5775950932887378 0.19 0  0.5701267910515998 0.19 0  0.5626584888145268 0.19 0  0.5551901865773963 0.19 0  0.547721884340339 0.19 0  0.5402535821032429 0.19 0  0.5327852798661811 0.19 0  0.5253169776290537 0.19 0  0.5178486753919799 0.19 0  0.5103803731549078 0.19 0  0.502912070917822 0.19 0  0.4954437686807294 0.19 0  0.4879754664436223 0.19 0  0.4805071642065402 0.19 0  0.4730388619694271 0.19 0  0.4655705597323621 0.19 0  0.4581022574952563 0.19 0  0.4506339552581777 0.19 0  0.4431656530210671 0.19 0  0.4356973507839815 0.19 0  0.4282290485468779 0.19 0  0.4207607463097617 0.19 0  0.4132924440726327 0.19 0  0.4058241418354857 0.19 0  0.3983558395983636 0.19 0  0.3908875373612097 0.19 0  0.3834192351240934 0.19 0  0.3759509328869369 0.19 0  0.3684826306498175 0.19 0  0.361014328412667 0.19 0  0.3535460261755617 0.19 0  0.3460777239384295 0.19 0  0.3386094217012945 0.19 0  0.3311411194641595 0.19 0  0.3236728172270245 0.19 0  0.3162045149898895 0.19 0  0.3087362127527544 0.19 0  0.3012679105156187 0.19 0  0.2937996082784807 0.19 0  0.2863313060413428 0.19 0  0.2788630038042048 0.19 0  0.2713947015670686 0.19 0  0.2639263993299336 0.19 0  0.2564580970927985 0.19 0  0.2607803159922026 0.2000727136295815 0  0.5887803774232762 0.2001272386983733 0  0.5745072403740523 0.2002044435018727 0  0.5511891430099709 0.2001122610077113 0  0.2751288526855082 0.20000000000002 0  0.5365194309847112 0.1999999999999436 0  0.2894621222999649 0.1998691686390484 0  0.5215828265105155 0.1999999999999228 0  0.3127789816668748 0.1998657885438805 0  0.3274069683451451 0.2000000000000796 0  0.5066462220363641 0.199999999999908 0  0.3650630746574081 0.199866017807523 0  0.476773013087985 0.1999999999998713 0  0.3417402379596385 0.1998691686391011 0  0.3796850840047755 0.200000000000134 0  0.4618364086138087 0.1999999999998546 0  0.4917096175621762 0.1999999999998808 0  0.3946216884789568 0.2000000000001512 0  0.446899804139621 0.1999999999998389 0  0.4089549580935208 0.1998691686391595 0  0.4322718174608562 0.200127451265745 0  0.4201487168029707 0.1999966199048527 0  0.3528922713220932 0.2000185703532356 0  0.5633122436674589 0.1999814296467508 0  0.3006558810093873 0.1999966199048318 0  0.5815926498168407 0.1966545283159175 0  0.2677053789419034 0.1964246479135325 0  0.5290511287476175 0.1970915826863981 0  0.5439877332217911 0.197091582686394 0  0.2825131256993216 0.2035478995978015 0  0.3199386661080599 0.202908417313604 0  0.4842413153250809 0.1970915826863873 0  0.5141145242734466 0.1970915826863843 0  0.3722167817676917 0.2029084173136195 0  0.4693047108508938 0.1970915826863783 0  0.3348752705822316 0.202908417313609 0  0.3871533862418661 0.2029084173136212 0  0.4543681063767183 0.1970915826863795 0  0.4991779197992749 0.1970915826863902 0  0.4020059614928624 0.203547899597858 0  0.4394315019025246 0.1970915826863714 0  0.2550657455369551 0.2034088125358657 0  0.2548908499171161 0.1966940311614271 0  0.5946539510196798 0.2024302972968126 0  0.267698176732111 0.2039977513680092 0  0.4261685417851465 0.196409292431739 0  0.3590076176283495 0.196411355804271 0  0.5571672426447437 0.2036011176410121 0  0.3066757059912147 0.1964092924317024 0  0.594380730180568 0.1966558399668133 0  0.4842413153245942 0.2040749161535287 0  0.4693047108503577 0.2040749161535231 0  0.3871533862424271 0.1959250838464788 0  0.372246743208829 0.1959123236376545 0  0.5141145242731028 0.2040749161535395 0  0.4543681063761134 0.2040749161535186 0  0.4019979587101454 0.1959834479682427 0  0.4394608940728603 0.2040870543693135 0  0.5439623148931173 0.2040856076781014 0  0.5290511287473298 0.2040749161535501 0  0.4991779197988497 0.2040749161535382 0  0.3347912413592433 0.1959225448935183 0  0.3199680582793816 0.1959123018030061 0  0.2825051229162361 0.1959834479681729 0  0.3590471196690275 0.2036304442587945 0  0.5571594006495384 0.1963685282145804 0  0.3067669986803285 0.203627750582736 0  0.4262598344738712 0.2036568242185335 0  0.5814408164431408 0.2041285596160068 0  0.5688286748170428 0.1961819304477386 0  0.4145905603063645 0.2038180695522843 0  0.3473758401724931 0.2038180695522752 0  0.2950977245128307 0.2038180695522663 0  0.5688286748170693 0.203818069552238 0  0.2950977245127906 0.1961819304477774 0  0.3473758401723931 0.1961819304478349 0  0.4145905603061963 0.1961819304479011 0  0.2601812407614425 0.2056861609747042
[...]
<PointData  Vectors="f_40-1"> 
<DataArray  type="Float64"  Name="f_40-1"  NumberOfComponents="3" format="ascii">0.0000000000000000e+00 0.0000000000000000e+00 0.0000000000000000e+00  0.0000000000000000e+00 0.0000000000000000e+00 0.0000000000000000e+00  0.0000000000000000e+00 0.0000000000000000e+00 0.0000000000000000e+00  0.0000000000000000e+00 0.0000000000000000e+00 0.0000000000000000e+00  2.7704330924250318e-06 -1.3554997117034160e-04 0.0000000000000000e+00  1.3523334420678469e-05 -1.3735633833310084e-04 0.0000000000000000e+00  0.0000000000000000e+00 0.0000000000000000e+00 0.0000000000000000e+00  0.0000000000000000e+00 0.0000000000000000e+00 0.0000000000000000e+00  0.0000000000000000e+00 0.0000000000000000e+00 0.0000000000000000e+00  0.0000000000000000e+00 0.0000000000000000e+00 0.0000000000000000e+00  7.8908610836284397e-06 -1.3645613835278653e-04 0.0000000000000000e+00  0.0000000000000000e+00 0.0000000000000000e+00 0.0000000000000000e+00  0.0000000000000000e+00 0.0000000000000000e+00 0.0000000000000000e+00  0.0000000000000000e+00 0.0000000000000000e+00 0.0000000000000000e+00  0.0000000000000000e+00 0.0000000000000000e+00 0.0000000000000000e+00  0.0000000000000000e+00 0.0000000000000000e+00 0.0000000000000000e+00  0.0000000000000000e+00 0.0000000000000000e+00 0.0000000000000000e+00  0.0000000000000000e+00 0.0000000000000000e+00 0.0000000000000000e+00  0.0000000000000000e+00 0.0000000000000000e+00 0.0000000000000000e+00  0.0000000000000000e+00 0.0000000000000000e+00 0.0000000000000000e+00  0.0000000000000000e+00 0.0000000000000000e+00 0.0000000000000000e+00  0.0000000000000000e+00 0.0000000000000000e+00 0.0000000000000000e+00  0.0000000000000000e+00 0.0000000000000000e+00 0.0000000000000000e+00  0.0000000000000000e+00 0.0000000000000000e+00 0.0000000000000000e+00  0.0000000000000000e+00 0.0000000000000000e+00 0.0000000000000000e+00  0.0000000000000000e+00 0.0000000000000000e+00 0.0000000000000000e+00  0.0000000000000000e+00 0.0000000000000000e+00 0.0000000000000000e+00  0.0000000000000000e+00 0.0000000000000000e+00 0.0000000000000000e+00  0.0000000000000000e+00 0.0000000000000000e+00 0.0000000000000000e+00  0.0000000000000000e+00 0.0000000000000000e+00 0.0000000000000000e+00  0.0000000000000000e+00 0.0000000000000000e+00 0.0000000000000000e+00  0.0000000000000000e+00 0.0000000000000000e+00 0.0000000000000000e+00  0.0000000000000000e+00 0.0000000000000000e+00 0.0000000000000000e+00  0.0000000000000000e+00 0.0000000000000000e+00 0.0000000000000000e+00  0.0000000000000000e+00 0.0000000000000000e+00 0.0000000000000000e+00  0.0000000000000000e+00 0.0000000000000000e+00 0.0000000000000000e+00  0.0000000000000000e+00 0.0000000000000000e+00 0.0000000000000000e+00  0.0000000000000000e+00 0.0000000000000000e+00 0.0000000000000000e+00  0.0000000000000000e+00 0.0000000000000000e+00 0.0000000000000000e+00  0.0000000000000000e+00 0.0000000000000000e+00 0.0000000000000000e+00  0.0000000000000000e+00 0.0000000000000000e+00 0.0000000000000000e+00  0.0000000000000000e+00 0.0000000000000000e+00 0.0000000000000000e+00  0.0000000000000000e+00 0.0000000000000000e+00 0.0000000000000000e+00  0.0000000000000000e+00 0.0000000000000000e+00 0.0000000000000000e+00  0.0000000000000000e+00 0.0000000000000000e+00 0.0000000000000000e+00  0.0000000000000000e+00 0.0000000000000000e+00 0.0000000000000000e+00  0.0000000000000000e+00 0.0000000000000000e+00 0.0000000000000000e+00  0.0000000000000000e+00 0.0000000000000000e+00 0.0000000000000000e+00  0.0000000000000000e+00 0.0000000000000000e+00 0.0000000000000000e+00  0.0000000000000000e+00 0.0000000000000000e+00 0.0000000000000000e+00  0.0000000000000000e+00 0.0000000000000000e+00 0.0000000000000000e+00  0.0000000000000000e+00 0.0000000000000000e+00 0.0000000000000000e+00  0.0000000000000000e+00 0.0000000000000000e+00 0.0000000000000000e+00  0.0000000000000000e+00 0.0000000000000000e+00 0.0000000000000000e+00  0.0000000000000000e+00 0.0000000000000000e+00 0.0000000000000000e+00  0.0000000000000000e+00 0.0000000000000000e+00 0.0000000000000000e+00  0.0000000000000000e+00 0.0000000000000000e+00 0.0000000000000000e+00  0.0000000000000000e+00 0.0000000000000000e+00 0.0000000000000000e+00  0.0000000000000000e+00 0.0000000000000000e+00 0.0000000000000000e+00  0.0000000000000000e+00 0.0000000000000000e+00 0.0000000000000000e+00  0.0000000000000000e+00 0.0000000000000000e+00 0.0000000000000000e+00  0.0000000000000000e+00 0.0000000000000000e+00 0.0000000000000000e+00  0.0000000000000000e+00 0.0000000000000000e+00 0.0000000000000000e+00  0.0000000000000000e+00 0.0000000000000000e+00 0.0000000000000000e+00  0.0000000000000000e+00 0.0000000000000000e+00 0.0000000000000000e+00  0.0000000000000000e+00 0.0000000000000000e+00 0.0000000000000000e+00  0.0000000000000000e+00 0.0000000000000000e+00 0.0000000000000000e+00  0.0000000000000000e+00 0.0000000000000000e+00 0.0000000000000000e+00  0.0000000000000000e+00 0.0000000000000000e+00 0.0000000000000000e+00  0.0000000000000000e+00 0.0000000000000000e+00 0.0000000000000000e+00  0.0000000000000000e+00 0.0000000000000000e+00 0.0000000000000000e+00  0.0000000000000000e+00 0.0000000000000000e+00 0.0000000000000000e+00  0.0000000000000000e+00 0.0000000000000000e+00 0.0000000000000000e+00  0.0000000000000000e+00 0.0000000000000000e+00 0.0000000000000000e+00  0.0000000000000000e+00 0.0000000000000000e+00 0.0000000000000000e+00  0.0000000000000000e+00 0.0000000000000000e+00 0.0000000000000000e+00  0.0000000000000000e+00 0.0000000000000000e+00 0.0000000000000000e+00  0.0000000000000000e+00 0.0000000000000000e+00 0.0000000000000000e+00  0.0000000000000000e+00 0.0000000000000000e+00 0.0000000000000000e+00  0.0000000000000000e+00 0.0000000000000000e+00 0.0000000000000000e+00  0.0000000000000000e+00 0.0000000000000000e+00 0.0000000000000000e+00  0.0000000000000000e+00 0.0000000000000000e+00 0.0000000000000000e+00  0.0000000000000000e+00 0.0000000000000000e+00 0.0000000000000000e+00  0.0000000000000000e+00 0.0000000000000000e+00 0.0000000000000000e+00  0.0000000000000000e+00 0.0000000000000000e+00 0.0000000000000000e+00  0.0000000000000000e+00 0.0000000000000000e+00 0.0000000000000000e+00  0.0000000000000000e+00 0.0000000000000000e+00 0.0000000000000000e+00  0.0000000000000000e+00 0.0000000000000000e+00 0.0000000000000000e+00  0.0000000000000000e+00 0.0000000000000000e+00 0.0000000000000000e+00  0.0000000000000000e+00 0.0000000000000000e+00 0.0000000000000000e+00  0.0000000000000000e+00 0.0000000000000000e+00 0.0000000000000000e+00  0.0000000000000000e+00 0.0000000000000000e+00 0.0000000000000000e+00  0.0000000000000000e+00 0.0000000000000000e+00 0.0000000000000000e+00  0.0000000000000000e+00 0.0000000000000000e+00 0.0000000000000000e+00  0.0000000000000000e+00 0.0000000000000000e+00 0.0000000000000000e+00  0.0000000000000000e+00 0.0000000000000000e+00 0.0000000000000000e+00  0.0000000000000000e+00 0.0000000000000000e+00 0.0000000000000000e+00  0.0000000000000000e+00 0.0000000000000000e+00 0.0000000000000000e+00  0.0000000000000000e+00 0.0000000000000000e+00 0.0000000000000000e+00  0.0000000000000000e+00 0.0000000000000000e+00 0.0000000000000000e+00  0.0000000000000000e+00 0.0000000000000000e+00 0.0000000000000000e+00  0.0000000000000000e+00 0.0000000000000000e+00 0.0000000000000000e+00  0.0000000000000000e+00 0.0000000000000000e+00 0.0000000000000000e+00  0.0000000000000000e+00 0.0000000000000000e+00 0.0000000000000000e+00  0.0000000000000000e+00 0.0000000000000000e+00 0.0000000000000000e+00  0.0000000000000000e+00 0.0000000000000000e+00 0.0000000000000000e+00  0.0000000000000000e+00 0.0000000000000000e+00 0.0000000000000000e+00  0.0000000000000000e+00 0.0000000000000000e+00 0.0000000000000000e+00  0.0000000000000000e+00 0.0000000000000000e+00 0.0000000000000000e+00  0.0000000000000000e+00 0.0000000000000000e+00 0.0000000000000000e+00  0.0000000000000000e+00 0.0000000000000000e+00 0.0000000000000000e+00  0.0000000000000000e+00 0.0000000000000000e+00 0.0000000000000000e+00  0.0000000000000000e+00 0.0000000000000000e+00 0.0000000000000000e+00  0.0000000000000000e+00 0.0000000000000000e+00 0.0000000000000000e+00  0.0000000000000000e+00 0.0000000000000000e+00 0.0000000000000000e+00  0.0000000000000000e+00 0.0000000000000000e+00 0.0000000000000000e+00  0.0000000000000000e+00 0.0000000000000000e+00 0.0000000000000000e+00  0.0000000000000000e+00 0.0000000000000000e+00 0.0000000000000000e+00  0.0000000000000000e+00 0.0000000000000000e+00 0.0000000000000000e+00  0.0000000000000000e+00 0.0000000000000000e+00 0.0000000000000000e+00  0.0000000000000000e+00 0.0000000000000000e+00 0.0000000000000000e+00  0.0000000000000000e+00 0.0000000000000000e+00 0.0000000000000000e+00  0.0000000000000000e+00 0.0000000000000000e+00 0.0000000000000000e+00  0.0000000000000000e+00 0.0000000000000000e+00 0.0000000000000000e+00  0.0000000000000000e+00 0.0000000000000000e+00 0.0000000000000000e+00  0.0000000000000000e+00 0.0000000000000000e+00 0.0000000000000000e+00  0.0000000000000000e+00 0.0000000000000000e+00 0.0000000000000000e+00  0.0000000000000000e+00 0.0000000000000000e+00 0.0000000000000000e+00  0.0000000000000000e+00 0.0000000000000000e+00 0.0000000000000000e+00  0.0000000000000000e+00 0.0000000000000000e+00 0.0000000000000000e+00  0.0000000000000000e+00 0.0000000000000000e+00 0.0000000000000000e+00  0.0000000000000000e+00 0.0000000000000000e+00 0.0000000000000000e+00  0.0000000000000000e+00 0.0000000000000000e+00 0.0000000000000000e+00  0.0000000000000000e+00 0.0000000000000000e+00 0.0000000000000000e+00  0.0000000000000000e+00 0.0000000000000000e+00 0.0000000000000000e+00  0.0000000000000000e+00 0.0000000000000000e+00 0.0000000000000000e+00  0.0000000000000000e+00 0.0000000000000000e+00 0.0000000000000000e+00  0.0000000000000000e+00 0.0000000000000000e+00 0.0000000000000000e+00  0.0000000000000000e+00 0.0000000000000000e+00 0.0000000000000000e+00  0.0000000000000000e+00 0.0000000000000000e+00 0.0000000000000000e+00  0.0000000000000000e+00 0.0000000000000000e+00 0.0000000000000000e+00  0.0000000000000000e+00 0.0000000000000000e+00 0.0000000000000000e+00  0.0000000000000000e+00 0.0000000000000000e+00 0.0000000000000000e+00  6.2011955488781715e-07 -1.8872029552281921e-06 0.0000000000000000e+00  1.3486388427855038e-06 -2.3084801229527932e-06 0.0000000000000000e+00  2.1441067502596779e-06 -2.8320499411306006e-06 0.0000000000000000e+00  3.0060818383504847e-06 -3.5151915941509633e-06 0.0000000000000000e+00  3.8313350578196209e-06 -4.3801764749595977e-06 0.0000000000000000e+00  4.6792663744776932e-06 -5.4634218273189076e-06 0.0000000000000000e+00  5.4613643614074107e-06 -6.6958572486019690e-06 0.0000000000000000e+00  6.2190005195848152e-06 -8.1312239807058532e-06 0.0000000000000000e+00  7.0003983224574507e-06 -9.7238821359618045e-06 0.0000000000000000e+00  7.6968076848305963e-06 -1.1473628266573072e-05 0.0000000000000000e+00  8.4222366050252824e-06 -1.3396699299889923e-05 0.0000000000000000e+00  9.0636463111042663e-06 -1.5458777063957807e-05 0.0000000000000000e+00  9.7175351755306856e-06 -1.7673964652894380e-05 0.0000000000000000e+00  1.0307299574882414e-05 -2.0009835362475327e-05 0.0000000000000000e+00  1.0866630214797221e-05 -2.2491037877191189e-05 0.0000000000000000e+00  1.1432531274139019e-05 -2.5091098867234028e-05 0.0000000000000000e+00  1.1924556225403232e-05 -2.7796279232619468e-05 0.0000000000000000e+00  1.2423813664683076e-05 -3.0631619887355875e-05 0.0000000000000000e+00  1.2853831514018507e-05 -3.3552159102691647e-05 0.0000000000000000e+00  1.3285995316929860e-05 -3.6585943450666017e-05 0.0000000000000000e+00  1.3661111838630852e-05 -3.9697103842726548e-05 0.0000000000000000e+00  1.4022030727720875e-05 -4.2907621136514436e-05 0.0000000000000000e+00  1.4337670556768327e-05 -4.6184996278045783e-05 0.0000000000000000e+00  1.4622032881613072e-05 -4.9543891674100119e-05 0.0000000000000000e+00  1.4897714233651143e-05 -5.2969132992568781e-05 0.0000000000000000e+00  1.5126569610919820e-05 -5.6449709361269893e-05 0.0000000000000000e+00  1.5329112259839535e-05 -6.0007389111124713e-05 0.0000000000000000e+00  1.5497919324727209e-05 -6.3598519435309635e-05 0.0000000000000000e+00  1.5640342377679535e-05 -6.7256132246842703e-05 0.0000000000000000e+00  1.5750078656240988e-05 -7.0941261723920094e-05 0.0000000000000000e+00  1.5834370611712703e-05 -7.4682015305482319e-05 0.0000000000000000e+00  1.5885646313634330e-05 -7.8441517847512203e-05 0.0000000000000000e+00  1.5912804782299415e-05 -8.2249845963427095e-05 0.0000000000000000e+00  1.5907326404873916e-05 -8.6067528374255591e-05 0.0000000000000000e+00  1.5874770765212509e-05 -8.9929097166144284e-05 0.0000000000000000e+00  1.5813207530398098e-05 -9.3794740099419999e-05 0.0000000000000000e+00  1.5726170659505758e-05 -9.7695566354986393e-05 0.0000000000000000e+00  1.5610115928306971e-05 -1.0159652596840354e-04 0.0000000000000000e+00  1.5467512198209443e-05 -1.0552710165558512e-04 0.0000000000000000e+00  1.5295217761502476e-05 -1.0945389218871846e-04 0.0000000000000000e+00  1.5094228503547765e-05 -1.1340051176378378e-04 0.0000000000000000e+00  1.4869207799131266e-05 -1.1734787774022977e-04 0.0000000000000000e+00  1.4614511203813866e-05 -1.2130594159285595e-04 0.0000000000000000e+00  1.4344841354312788e-05 -1.2526577731291746e-04 0.0000000000000000e+00  1.4045137817560097e-05 -1.2922076916610853e-04 0.0000000000000000e+00  1.3748015860530355e-05 -1.3321336939642277e-04 0.0000000000000000e+00  1.0618759020368137e-05 -1.3689695881815526e-04 0.0000000000000000e+00  5.2596855207688482e-06 -1.3601498293471182e-04 0.0000000000000000e+00  3.0188018033790312e-06 -1.3168245273955257e-04 0.0000000000000000e+00  3.3321298482714449e-06 -1.2765996638842964e-04 0.0000000000000000e+00  3.6483929766631362e-06 -1.2362164656449024e-04 0.0000000000000000e+00  3.9375262223734971e-06 -1.1959929588765786e-04 0.0000000000000000e+00  4.2107692097895821e-06 -1.1558350664012983e-04 0.0000000000000000e+00  4.4552314036798471e-06 -1.1157564157323235e-04 0.0000000000000000e+00  4.6834412483354374e-06 -1.0757884089183497e-04 0.0000000000000000e+00  4.8822638569131820e-06 -1.0358409843957099e-04 0.0000000000000000e+00  5.0640106938994735e-06 -9.9614326262461206e-05 0.0000000000000000e+00  5.2186233323555902e-06 -9.5644053253145540e-05 0.0000000000000000e+00  5.3580618316645318e-06 -9.1704343772574956e-05 0.0000000000000000e+00  5.4702582250027507e-06 -8.7769728497851269e-05 0.0000000000000000e+00  5.5701543438459849e-06 -8.3870643502093227e-05 0.0000000000000000e+00  5.6417199516607134e-06 -7.9982594265995809e-05 0.0000000000000000e+00  5.7038559659357071e-06 -7.6137040153524812e-05 0.0000000000000000e+00  5.7362497657512998e-06 -7.2309536677153295e-05 0.0000000000000000e+00  5.7625081036106656e-06 -6.8530848375160700e-05 0.0000000000000000e+00  5.7567670029981182e-06 -6.4778148678497840e-05 0.0000000000000000e+00  5.7486110755371865e-06 -6.1083219403084132e-05 0.0000000000000000e+00  5.7063123840618427e-06 -5.7423876619986666e-05 0.0000000000000000e+00  5.6662590814627777e-06 -5.3831453250990010e-05 0.0000000000000000e+00  5.5888990447936456e-06 -5.0285167559836717e-05 0.0000000000000000e+00  5.5126918023742974e-06 -4.6811748412857508e-05 0.0000000000000000e+00  5.4067045651640667e-06 -4.3398399338526534e-05 0.0000000000000000e+00  5.2796044335273234e-06 -4.0070889047593378e-05 0.0000000000000000e+00  5.1619059471035152e-06 -3.6811107801731507e-05 0.0000000000000000e+00  5.0100622088015505e-06 -3.3637791449680685e-05 0.0000000000000000e+00  4.8540928604337331e-06 -3.0566025976920971e-05 0.0000000000000000e+00  4.6719555954476199e-06 -2.7580076755467376e-05 0.0000000000000000e+00  4.4852163494519748e-06 -2.4711251660486451e-05 0.0000000000000000e+00  4.2729076279850612e-06 -2.1935964778117933e-05 0.0000000000000000e+00  4.0665983190850994e-06 -1.9301891550482563e-05 0.0000000000000000e+00  3.8226407586059685e-06 -1.6765967359756934e-05 0.0000000000000000e+00  3.5607084153676286e-06 -1.4386298219260827e-05 0.0000000000000000e+00  3.3218376613653666e-06 -1.2116262744984385e-05 0.0000000000000000e+00  3.0464393413974017e-06 -1.0004002213103442e-05 0.0000000000000000e+00  2.7733025383984556e-06 -8.0488335160139658e-06 0.0000000000000000e+00  2.4732956812599125e-06 -6.2408834576630915e-06 0.0000000000000000e+00  2.1911723504990360e-06 -4.6221096062427534e-06 0.0000000000000000e+00  1.8640331749287188e-06 -3.1460026189563032e-06 0.0000000000000000e+00  1.5217620387484543e-06 -1.8785233089894729e-06 0.0000000000000000e+00  1.2197045110823582e-06 -7.6424683069168040e-07 0.0000000000000000e+00  8.7472393416080271e-07 1.5829462781323098e-07 0.0000000000000000e+00  5.7968458747953842e-07 8.7530155891066338e-07 0.0000000000000000e+00  2.8618911544607944e-07 1.3391360738448570e-06 0.0000000000000000e+00  1.2163664547059663e-07 1.4984664313751346e-06 0.0000000000000000e+00  2.9962883711347103e-07 -2.0499348360845978e-07 0.0000000000000000e+00  8.5166623793577936e-06 -1.3043930533373813e-04 0.0000000000000000e+00  9.1959396129753174e-06 -1.2280430854306364e-04 0.0000000000000000e+00  9.9250737518229258e-06 -1.1036302484166022e-04 0.0000000000000000e+00  1.6288845581835172e-06 -1.1751670355078652e-06 0.0000000000000000e+00  1.0226544717039881e-05 -1.0256989404785082e-04 0.0000000000000000e+00  2.7392654262328294e-06 -2.8587786360564429e-06 0.0000000000000000e+00  1.0500299228440767e-05 -9.4695557519419249e-05 0.0000000000000000e+00  4.4442559230932408e-06 -7.0902741905150040e-06 0.0000000000000000e+00  5.4617087929933760e-06 -1.0611638402018128e-05 0.0000000000000000e+00  1.0677016748388705e-05 -8.6891053056953435e-05 0.0000000000000000e+00  7.6062940868438467e-06 -2.2198993162990047e-05 0.0000000000000000e+00  1.0742496017057243e-05 -7.1586162036990544e-05 0.0000000000000000e+00  6.3234611769316705e-06 -1.4591884266475609e-05 0.0000000000000000e+00  8.3501790237334305e-06 -2.7596695840765672e-05 0.0000000000000000e+00  1.0632821076377789e-05 -6.4142903597729420e-05 0.0000000000000000e+00  1.0757564496409734e-05 -7.9178803155695968e-05 0.0000000000000000e+00  8.9754251417959299e-06 -3.3510784035085820e-05 0.0000000000000000e+00  1.0428397343623269e-05 -5.6884904188574504e-05 0.0000000000000000e+00  9.4346005468004312e-06 -3.9523851000469299e-05 0.0000000000000000e+00  1.0199059876866305e-05 -5.0009893810726857e-05 0.0000000000000000e+00  9.8197945046245512e-06 -4.4481107656674682e-05 0.0000000000000000e+00  7.0027490433356233e-06 -1.8115746367060734e-05 0.0000000000000000e+00  9.4706881053121072e-06 -1.1680906798445024e-04 0.0000000000000000e+00  3.5916882904160036e-06 -4.7251166373231498e-06 0.0000000000000000e+00  6.9982154550425456e-06 -1.2631694095239262e-04 0.0000000000000000e+00  7.5184133947804409e-07 9.4165743241829023e-08 0.0000000000000000e+00  8.8456143669357015e-06 -9.8333592821393681e-05 0.0000000000000000e+00  8.5131356995235374e-06 -1.0625038538857986e-04 0.0000000000000000e+00  2.6321724325382669e-06 -2.6325057320495682e-06 0.0000000000000000e+00  5.6550027219982691e-06 -9.2639242705371177e-06 0.0000000000000000e+00  9.2882627881241367e-06 -7.5028948791400806e-05 0.0000000000000000e+00  9.0847875096115478e-06 -9.0476284940889615e-05 0.0000000000000000e+00  9.0671436320994373e-06 -2.5259415705163614e-05 0.0000000000000000e+00  9.2557011495560382e-06 -6.7492119369192343e-05 0.0000000000000000e+00  6.7440523968968148e-06 -1.3132303066281515e-05 0.0000000000000000e+00  9.8182949076075131e-06 -3.0952225470503031e-05 0.0000000000000000e+00  9.1349891186582212e-06 -6.0122232673378135e-05 0.0000000000000000e+00  9.2318074792769044e-06 -8.2699570853895596e-05 0.0000000000000000e+00  1.0736605366124828e-05 -3.7106115896538596e-05 0.0000000000000000e+00  8.9270295280236989e-06 -5.2956941034179744e-05 0.0000000000000000e+00  -1.4503404163030836e-08 -4.4977805600207797e-07 0.0000000000000000e+00  -1.0169285408512200e-07 3.4071584517668441e-07 0.0000000000000000e+00  9.4615191918924388e-06 -1.3376895333188678e-04 0.0000000000000000e+00  1.2613105549026284e-06 -1.3686785345552197e-06 0.0000000000000000e+00  8.36291280