<?xml version="1.0"?>
<VTKFile type="UnstructuredGrid"  version="0.1"  >
<UnstructuredGrid>
<Piece  NumberOfPoints="1419" NumberOfCells="2698">
<Points>
<DataArray  type="Float64"  NumberOfComponents="3"  format="ascii">0 0 0  0 0.41 0  2.5 0 0  2.5 0.41 0  0.6 0.19 0  0.6 0.21 0  0.25 0.2 0  0.15 0.2 0  0.2489897948556636 0.21 0  0.2489897948556636 0.19 0  0.6 0.2 0  0 0.3807142857143437 0  0 0.3514285714286952 0  0 0.3221428571430699 0  0 0.29285714285744 0  0 0.2635714285718054 0  0 0.2342857142861561 0  0 0.2050000000005308 0  0 0.175714285714732 0  0 0.1464285714289574 0  0 0.1171428571431897 0  0 0.08785714285737878 0  0 0.05857142857161107 0  0 0.02928571428580012 0  0.03015443760436003 0 0  0.06140001986583606 0 0  0.09377624077125973 0 0  0.1273239957535082 0 0  0.1620856860351972 0 0  0.1981052433264291 0 0  0.235428184091502 0 0  0.2741016576309132 0 0  0.3141745521465447 0 0  0.3556974926295285 0 0  0.3987229542472677 0 0  0.4433053055141081 0 0  0.4895008759286886 0 0  0.5373680609405097 0 0  0.5869673343216626 0 0  0.6383613676634521 0 0  0.6916151138468254 0 0  0.7467958595648856 0 0  0.8039733463919316 0 0  0.8632198139502143 0 0  0.9246101326867038 0 0  0.9882218810934433 0 0  1.054135445558498 0 0  1.122434100542598 0 0  1.193204177141305 0 0  1.266535089879536 0 0  1.342519516046404 0 0  1.421253448503939 0 0  1.502836389106271 0 0  1.587371439758838 0 0  1.674965418777374 0 0  1.765729001825544 0 0  1.859776908880082 0 0  1.957227977487062 0 0  2.058205329869943 0 0  2.162836591189951 0 0  2.271253957290865 0 0  2.383594446803425 0 0  2.5 0.1024999999997612 0  2.5 0.2049999999994743 0  2.5 0.3074999999997183 0  2.383594446803656 0.41 0  2.271253957291315 0.41 0  2.162836591190598 0.41 0  2.058205329870775 0.41 0  1.957227977488067 0.41 0  1.859776908881246 0.41 0  1.765729001826854 0.41 0  1.674965418778818 0.41 0  1.58737143976041 0.41 0  1.502836389107956 0.41 0  1.421253448505726 0.41 0  1.342519516048286 0.41 0  1.266535089881505 0.41 0  1.193204177143353 0.41 0  1.122434100544716 0.41 0  1.05413544556068 0.41 0  0.9882218810956305 0.41 0  0.9246101326886647 0.41 0  0.8632198139519631 0.41 0  0.8039733463934788 0.41 0  0.7467958595662458 0.41 0  0.6916151138480078 0.41 0  0.6383613676644679 0.41 0  0.5869673343225223 0.41 0  0.5373680609412221 0.41 0  0.4895008759292634 0.41 0  0.4433053055145528 0.41 0  0.3987229542475914 0.41 0  0.3556974926297398 0.41 0  0.3141745521466497 0.41 0  0.2741016576310038 0.41 0  0.2354281840915826 0.41 0  0.1981052433265003 0.41 0  0.1620856860352591 0.41 0  0.1273239957535623 0.41 0  0.09377624077128965 0.41 0  0.06140001986584975 0.41 0  0.03015443760436654 0.41 0  0.2497468076502589 0.2050254481002335 0  0.2497468076502614 0.1949745518997913 0  0.2469965252529372 0.1829317073451959 0  0.2439893735792749 0.1762316384219906 0  0.2400332147834255 0.1700443375285386 0  0.2352133972704371 0.1645032867342007 0  0.2296339016332438 0.1597280261969788 0  0.2234150974217223 0.1558215752574715 0  0.2166911463437691 0.1528682099456123 0  0.2096071079204251 0.1509316448471593 0  0.2023158100364996 0.1500536585536553 0  0.194974551899914 0.1502531923497262 0  0.1877417105387872 0.1515259415822739 0  0.1807733240461124 0.153844448527136 0  0.1742197252835808 0.15715869474974 0  0.1682222986673531 0.1613971801805478 0  0.162910430003803 0.1664684656256651 0  0.1583987151779087 0.1722631454351573 0  0.1547844879126891 0.178656207771761 0  0.1521457199348551 0.1855097315605723 0  0.1505393388476355 0.1926758619366523 0  0.1505393388476328 0.2073241380633295 0  0.1521457199348437 0.2144902684393899 0  0.1547844879126531 0.221343792228163 0  0.1583987151778488 0.2277368545647528 0  0.1629104300036858 0.2335315343742052 0  0.1682222986671726 0.2386028198193036 0  0.1742197252833576 0.2428413052501257 0  0.1807733240458683 0.2461555514727623 0  0.1877417105384929 0.2484740584176516 0  0.1949745518995776 0.2497468076502398 0  0.202315810036185 0.2499463414463592 0  0.2096071079201568 0.2490683551528932 0  0.2166911463435495 0.2471317900544655 0  0.2234150974215506 0.2441784247426195 0  0.2296339016331197 0.2402719738031125 0  0.2352133972703547 0.2354967132658811 0  0.2400332147833751 0.2299556624715287 0  0.2439893735792577 0.2237683615780412 0  0.246996525252926 0.2170682926548348 0  0.25645809709277 0.21 0  0.2639263993298655 0.21 0  0.271394701566961 0.21 0  0.2788630038040554 0.21 0  0.2863313060411479 0.21 0  0.2937996082782405 0.21 0  0.301267910515333 0.21 0  0.3087362127524279 0.21 0  0.3162045149895234 0.21 0  0.3236728172265972 0.21 0  0.3311411194636928 0.21 0  0.3386094217007701 0.21 0  0.3460777239378666 0.21 0  0.3535460261749672 0.21 0  0.3610143284120516 0.21 0  0.3684826306491596 0.21 0  0.3759509328862226 0.21 0  0.383419235123329 0.21 0  0.3908875373604028 0.21 0  0.3983558395975142 0.21 0  0.4058241418345938 0.21 0  0.4132924440716992 0.21 0  0.4207607463087888 0.21 0  0.4282290485459029 0.21 0  0.4356973507830418 0.21 0  0.4431656530201649 0.21 0  0.4506339552573136 0.21 0  0.4581022574944306 0.21 0  0.4655705597315852 0.21 0  0.4730388619686996 0.21 0  0.480507164205851 0.21 0  0.4879754664429498 0.21 0  0.4954437686800938 0.21 0  0.502912070917267 0.21 0  0.5103803731544119 0.21 0  0.5178486753915261 0.21 0  0.5253169776286404 0.21 0  0.5327852798657868 0.21 0  0.5402535821029386 0.21 0  0.54772188434007 0.21 0  0.5551901865771842 0.21 0  0.5626584888143201 0.21 0  0.5701267910514778 0.21 0  0.5775950932886138 0.21 0  0.5850633955257281 0.21 0  0.5925316977628483 0.21 0  0.6 0.2050000000000054 0  0.6 0.1950000000000217 0  0.5925316977628897 0.19 0  0.5850633955257988 0.19 0  0.5775950932887378 0.19 0  0.5701267910515998 0.19 0  0.5626584888145268 0.19 0  0.5551901865773963 0.19 0  0.547721884340339 0.19 0  0.5402535821032429 0.19 0  0.5327852798661811 0.19 0  0.5253169776290537 0.19 0  0.5178486753919799 0.19 0  0.5103803731549078 0.19 0  0.502912070917822 0.19 0  0.4954437686807294 0.19 0  0.4879754664436223 0.19 0  0.4805071642065402 0.19 0  0.4730388619694271 0.19 0  0.4655705597323621 0.19 0  0.4581022574952563 0.19 0  0.4506339552581777 0.19 0  0.4431656530210671 0.19 0  0.4356973507839815 0.19 0  0.4282290485468779 0.19 0  0.4207607463097617 0.19 0  0.4132924440726327 0.19 0  0.4058241418354857 0.19 0  0.3983558395983636 0.19 0  0.3908875373612097 0.19 0  0.3834192351240934 0.19 0  0.3759509328869369 0.19 0  0.3684826306498175 0.19 0  0.361014328412667 0.19 0  0.3535460261755617 0.19 0  0.3460777239384295 0.19 0  0.3386094217012945 0.19 0  0.3311411194641595 0.19 0  0.3236728172270245 0.19 0  0.3162045149898895 0.19 0  0.3087362127527544 0.19 0  0.3012679105156187 0.19 0  0.2937996082784807 0.19 0  0.2863313060413428 0.19 0  0.2788630038042048 0.19 0  0.2713947015670686 0.19 0  0.2639263993299336 0.19 0  0.2564580970927985 0.19 0  0.2607803159922026 0.2000727136295815 0  0.5887803774232762 0.2001272386983733 0  0.5745072403740523 0.2002044435018727 0  0.5511891430099709 0.2001122610077113 0  0.2751288526855082 0.20000000000002 0  0.5365194309847112 0.1999999999999436 0  0.2894621222999649 0.1998691686390484 0  0.5215828265105155 0.1999999999999228 0  0.3127789816668748 0.1998657885438805 0  0.3274069683451451 0.2000000000000796 0  0.5066462220363641 0.199999999999908 0  0.3650630746574081 0.199866017807523 0  0.476773013087985 0.1999999999998713 0  0.3417402379596385 0.1998691686391011 0  0.3796850840047755 0.200000000000134 0  0.4618364086138087 0.1999999999998546 0  0.4917096175621762 0.1999999999998808 0  0.3946216884789568 0.2000000000001512 0  0.446899804139621 0.1999999999998389 0  0.4089549580935208 0.1998691686391595 0  0.4322718174608562 0.200127451265745 0  0.4201487168029707 0.1999966199048527 0  0.3528922713220932 0.2000185703532356 0  0.5633122436674589 0.1999814296467508 0  0.3006558810093873 0.1999966199048318 0  0.5815926498168407 0.1966545283159175 0  0.2677053789419034 0.1964246479135325 0  0.5290511287476175 0.1970915826863981 0  0.5439877332217911 0.197091582686394 0  0.2825131256993216 0.2035478995978015 0  0.3199386661080599 0.202908417313604 0  0.4842413153250809 0.1970915826863873 0  0.5141145242734466 0.1970915826863843 0  0.3722167817676917 0.2029084173136195 0  0.4693047108508938 0.1970915826863783 0  0.3348752705822316 0.202908417313609 0  0.3871533862418661 0.2029084173136212 0  0.4543681063767183 0.1970915826863795 0  0.4991779197992749 0.1970915826863902 0  0.4020059614928624 0.203547899597858 0  0.4394315019025246 0.1970915826863714 0  0.2550657455369551 0.2034088125358657 0  0.2548908499171161 0.1966940311614271 0  0.5946539510196798 0.2024302972968126 0  0.267698176732111 0.2039977513680092 0  0.4261685417851465 0.196409292431739 0  0.3590076176283495 0.196411355804271 0  0.5571672426447437 0.2036011176410121 0  0.3066757059912147 0.1964092924317024 0  0.594380730180568 0.1966558399668133 0  0.4842413153245942 0.2040749161535287 0  0.4693047108503577 0.2040749161535231 0  0.3871533862424271 0.1959250838464788 0  0.372246743208829 0.1959123236376545 0  0.5141145242731028 0.2040749161535395 0  0.4543681063761134 0.2040749161535186 0  0.4019979587101454 0.1959834479682427 0  0.4394608940728603 0.2040870543693135 0  0.5439623148931173 0.2040856076781014 0  0.5290511287473298 0.2040749161535501 0  0.4991779197988497 0.2040749161535382 0  0.3347912413592433 0.1959225448935183 0  0.3199680582793816 0.1959123018030061 0  0.2825051229162361 0.1959834479681729 0  0.3590471196690275 0.2036304442587945 0  0.5571594006495384 0.1963685282145804 0  0.3067669986803285 0.203627750582736 0  0.4262598344738712 0.2036568242185335 0  0.5814408164431408 0.2041285596160068 0  0.5688286748170428 0.1961819304477386 0  0.4145905603063645 0.2038180695522843 0  0.3473758401724931 0.2038180695522752 0  0.2950977245128307 0.2038180695522663 0  0.5688286748170693 0.203818069552238 0  0.2950977245127906 0.1961819304477774 0  0.3473758401723931 0.1961819304478349 0  0.4145905603061963 0.1961819304479011 0  0.2601812407614425 0.2056861609747042
[...]
<PointData  Vectors="f_40-1"> 
<DataArray  type="Float64"  Name="f_40-1"  NumberOfComponents="3" format="ascii">0.0000000000000000e+00 0.0000000000000000e+00 0.0000000000000000e+00  0.0000000000000000e+00 0.0000000000000000e+00 0.0000000000000000e+00  0.0000000000000000e+00 0.0000000000000000e+00 0.0000000000000000e+00  0.0000000000000000e+00 0.0000000000000000e+00 0.0000000000000000e+00  5.0098947938246006e-05 7.8447265164994205e-04 0.0000000000000000e+00  -2.5204813089645586e-06 7.8377917802919031e-04 0.0000000000000000e+00  0.0000000000000000e+00 0.0000000000000000e+00 0.0000000000000000e+00  0.0000000000000000e+00 0.0000000000000000e+00 0.0000000000000000e+00  0.0000000000000000e+00 0.0000000000000000e+00 0.0000000000000000e+00  0.0000000000000000e+00 0.0000000000000000e+00 0.0000000000000000e+00  2.3497254659014242e-05 7.8411896075266090e-04 0.0000000000000000e+00  0.0000000000000000e+00 0.0000000000000000e+00 0.0000000000000000e+00  0.0000000000000000e+00 0.0000000000000000e+00 0.0000000000000000e+00  0.0000000000000000e+00 0.0000000000000000e+00 0.0000000000000000e+00  0.0000000000000000e+00 0.0000000000000000e+00 0.0000000000000000e+00  0.0000000000000000e+00 0.0000000000000000e+00 0.0000000000000000e+00  0.0000000000000000e+00 0.0000000000000000e+00 0.0000000000000000e+00  0.0000000000000000e+00 0.0000000000000000e+00 0.0000000000000000e+00  0.0000000000000000e+00 0.0000000000000000e+00 0.0000000000000000e+00  0.0000000000000000e+00 0.0000000000000000e+00 0.0000000000000000e+00  0.0000000000000000e+00 0.0000000000000000e+00 0.0000000000000000e+00  0.0000000000000000e+00 0.0000000000000000e+00 0.0000000000000000e+00  0.0000000000000000e+00 0.0000000000000000e+00 0.0000000000000000e+00  0.0000000000000000e+00 0.0000000000000000e+00 0.0000000000000000e+00  0.0000000000000000e+00 0.0000000000000000e+00 0.0000000000000000e+00  0.0000000000000000e+00 0.0000000000000000e+00 0.0000000000000000e+00  0.0000000000000000e+00 0.0000000000000000e+00 0.0000000000000000e+00  0.0000000000000000e+00 0.0000000000000000e+00 0.0000000000000000e+00  0.0000000000000000e+00 0.0000000000000000e+00 0.0000000000000000e+00  0.0000000000000000e+00 0.0000000000000000e+00 0.0000000000000000e+00  0.0000000000000000e+00 0.0000000000000000e+00 0.0000000000000000e+00  0.0000000000000000e+00 0.0000000000000000e+00 0.0000000000000000e+00  0.0000000000000000e+00 0.0000000000000000e+00 0.0000000000000000e+00  0.0000000000000000e+00 0.0000000000000000e+00 0.0000000000000000e+00  0.0000000000000000e+00 0.0000000000000000e+00 0.0000000000000000e+00  0.0000000000000000e+00 0.0000000000000000e+00 0.0000000000000000e+00  0.0000000000000000e+00 0.0000000000000000e+00 0.0000000000000000e+00  0.0000000000000000e+00 0.0000000000000000e+00 0.0000000000000000e+00  0.0000000000000000e+00 0.0000000000000000e+00 0.0000000000000000e+00  0.0000000000000000e+00 0.0000000000000000e+00 0.0000000000000000e+00  0.0000000000000000e+00 0.0000000000000000e+00 0.0000000000000000e+00  0.0000000000000000e+00 0.0000000000000000e+00 0.0000000000000000e+00  0.0000000000000000e+00 0.0000000000000000e+00 0.0000000000000000e+00  0.0000000000000000e+00 0.0000000000000000e+00 0.0000000000000000e+00  0.0000000000000000e+00 0.0000000000000000e+00 0.0000000000000000e+00  0.0000000000000000e+00 0.0000000000000000e+00 0.0000000000000000e+00  0.0000000000000000e+00 0.0000000000000000e+00 0.0000000000000000e+00  0.0000000000000000e+00 0.0000000000000000e+00 0.0000000000000000e+00  0.0000000000000000e+00 0.0000000000000000e+00 0.0000000000000000e+00  0.0000000000000000e+00 0.0000000000000000e+00 0.0000000000000000e+00  0.0000000000000000e+00 0.0000000000000000e+00 0.0000000000000000e+00  0.0000000000000000e+00 0.0000000000000000e+00 0.0000000000000000e+00  0.0000000000000000e+00 0.0000000000000000e+00 0.0000000000000000e+00  0.0000000000000000e+00 0.0000000000000000e+00 0.0000000000000000e+00  0.0000000000000000e+00 0.0000000000000000e+00 0.0000000000000000e+00  0.0000000000000000e+00 0.0000000000000000e+00 0.0000000000000000e+00  0.0000000000000000e+00 0.0000000000000000e+00 0.0000000000000000e+00  0.0000000000000000e+00 0.0000000000000000e+00 0.0000000000000000e+00  0.0000000000000000e+00 0.0000000000000000e+00 0.0000000000000000e+00  0.0000000000000000e+00 0.0000000000000000e+00 0.0000000000000000e+00  0.0000000000000000e+00 0.0000000000000000e+00 0.0000000000000000e+00  0.0000000000000000e+00 0.0000000000000000e+00 0.0000000000000000e+00  0.0000000000000000e+00 0.0000000000000000e+00 0.0000000000000000e+00  0.0000000000000000e+00 0.0000000000000000e+00 0.0000000000000000e+00  0.0000000000000000e+00 0.0000000000000000e+00 0.0000000000000000e+00  0.0000000000000000e+00 0.0000000000000000e+00 0.0000000000000000e+00  0.0000000000000000e+00 0.0000000000000000e+00 0.0000000000000000e+00  0.0000000000000000e+00 0.0000000000000000e+00 0.0000000000000000e+00  0.0000000000000000e+00 0.0000000000000000e+00 0.0000000000000000e+00  0.0000000000000000e+00 0.0000000000000000e+00 0.0000000000000000e+00  0.0000000000000000e+00 0.0000000000000000e+00 0.0000000000000000e+00  0.0000000000000000e+00 0.0000000000000000e+00 0.0000000000000000e+00  0.0000000000000000e+00 0.0000000000000000e+00 0.0000000000000000e+00  0.0000000000000000e+00 0.0000000000000000e+00 0.0000000000000000e+00  0.0000000000000000e+00 0.0000000000000000e+00 0.0000000000000000e+00  0.0000000000000000e+00 0.0000000000000000e+00 0.0000000000000000e+00  0.0000000000000000e+00 0.0000000000000000e+00 0.0000000000000000e+00  0.0000000000000000e+00 0.0000000000000000e+00 0.0000000000000000e+00  0.0000000000000000e+00 0.0000000000000000e+00 0.0000000000000000e+00  0.0000000000000000e+00 0.0000000000000000e+00 0.0000000000000000e+00  0.0000000000000000e+00 0.0000000000000000e+00 0.0000000000000000e+00  0.0000000000000000e+00 0.0000000000000000e+00 0.0000000000000000e+00  0.0000000000000000e+00 0.0000000000000000e+00 0.0000000000000000e+00  0.0000000000000000e+00 0.0000000000000000e+00 0.0000000000000000e+00  0.0000000000000000e+00 0.0000000000000000e+00 0.0000000000000000e+00  0.0000000000000000e+00 0.0000000000000000e+00 0.0000000000000000e+00  0.0000000000000000e+00 0.0000000000000000e+00 0.0000000000000000e+00  0.0000000000000000e+00 0.0000000000000000e+00 0.0000000000000000e+00  0.0000000000000000e+00 0.0000000000000000e+00 0.0000000000000000e+00  0.0000000000000000e+00 0.0000000000000000e+00 0.0000000000000000e+00  0.0000000000000000e+00 0.0000000000000000e+00 0.0000000000000000e+00  0.0000000000000000e+00 0.0000000000000000e+00 0.0000000000000000e+00  0.0000000000000000e+00 0.0000000000000000e+00 0.0000000000000000e+00  0.0000000000000000e+00 0.0000000000000000e+00 0.0000000000000000e+00  0.0000000000000000e+00 0.0000000000000000e+00 0.0000000000000000e+00  0.0000000000000000e+00 0.0000000000000000e+00 0.0000000000000000e+00  0.0000000000000000e+00 0.0000000000000000e+00 0.0000000000000000e+00  0.0000000000000000e+00 0.0000000000000000e+00 0.0000000000000000e+00  0.0000000000000000e+00 0.0000000000000000e+00 0.0000000000000000e+00  0.0000000000000000e+00 0.0000000000000000e+00 0.0000000000000000e+00  0.0000000000000000e+00 0.0000000000000000e+00 0.0000000000000000e+00  0.0000000000000000e+00 0.0000000000000000e+00 0.0000000000000000e+00  0.0000000000000000e+00 0.0000000000000000e+00 0.0000000000000000e+00  0.0000000000000000e+00 0.0000000000000000e+00 0.0000000000000000e+00  0.0000000000000000e+00 0.0000000000000000e+00 0.0000000000000000e+00  0.0000000000000000e+00 0.0000000000000000e+00 0.0000000000000000e+00  0.0000000000000000e+00 0.0000000000000000e+00 0.0000000000000000e+00  0.0000000000000000e+00 0.0000000000000000e+00 0.0000000000000000e+00  0.0000000000000000e+00 0.0000000000000000e+00 0.0000000000000000e+00  0.0000000000000000e+00 0.0000000000000000e+00 0.0000000000000000e+00  0.0000000000000000e+00 0.0000000000000000e+00 0.0000000000000000e+00  0.0000000000000000e+00 0.0000000000000000e+00 0.0000000000000000e+00  0.0000000000000000e+00 0.0000000000000000e+00 0.0000000000000000e+00  0.0000000000000000e+00 0.0000000000000000e+00 0.0000000000000000e+00  0.0000000000000000e+00 0.0000000000000000e+00 0.0000000000000000e+00  0.0000000000000000e+00 0.0000000000000000e+00 0.0000000000000000e+00  0.0000000000000000e+00 0.0000000000000000e+00 0.0000000000000000e+00  0.0000000000000000e+00 0.0000000000000000e+00 0.0000000000000000e+00  0.0000000000000000e+00 0.0000000000000000e+00 0.0000000000000000e+00  0.0000000000000000e+00 0.0000000000000000e+00 0.0000000000000000e+00  0.0000000000000000e+00 0.0000000000000000e+00 0.0000000000000000e+00  0.0000000000000000e+00 0.0000000000000000e+00 0.0000000000000000e+00  0.0000000000000000e+00 0.0000000000000000e+00 0.0000000000000000e+00  0.0000000000000000e+00 0.0000000000000000e+00 0.0000000000000000e+00  0.0000000000000000e+00 0.0000000000000000e+00 0.0000000000000000e+00  0.0000000000000000e+00 0.0000000000000000e+00 0.0000000000000000e+00  0.0000000000000000e+00 0.0000000000000000e+00 0.0000000000000000e+00  0.0000000000000000e+00 0.0000000000000000e+00 0.0000000000000000e+00  0.0000000000000000e+00 0.0000000000000000e+00 0.0000000000000000e+00  0.0000000000000000e+00 0.0000000000000000e+00 0.0000000000000000e+00  0.0000000000000000e+00 0.0000000000000000e+00 0.0000000000000000e+00  0.0000000000000000e+00 0.0000000000000000e+00 0.0000000000000000e+00  0.0000000000000000e+00 0.0000000000000000e+00 0.0000000000000000e+00  0.0000000000000000e+00 0.0000000000000000e+00 0.0000000000000000e+00  0.0000000000000000e+00 0.0000000000000000e+00 0.0000000000000000e+00  0.0000000000000000e+00 0.0000000000000000e+00 0.0000000000000000e+00  0.0000000000000000e+00 0.0000000000000000e+00 0.0000000000000000e+00  0.0000000000000000e+00 0.0000000000000000e+00 0.0000000000000000e+00  0.0000000000000000e+00 0.0000000000000000e+00 0.0000000000000000e+00  0.0000000000000000e+00 0.0000000000000000e+00 0.0000000000000000e+00  0.0000000000000000e+00 0.0000000000000000e+00 0.0000000000000000e+00  0.0000000000000000e+00 0.0000000000000000e+00 0.0000000000000000e+00  0.0000000000000000e+00 0.0000000000000000e+00 0.0000000000000000e+00  -1.8794229321798375e-06 1.4506622037985782e-06 0.0000000000000000e+00  -3.9191571546781573e-06 4.4891440239986993e-06 0.0000000000000000e+00  -5.4587617616125622e-06 9.3117489627720058e-06 0.0000000000000000e+00  -7.0456172524471396e-06 1.5976549752086774e-05 0.0000000000000000e+00  -8.1315501823798224e-06 2.4022647302319355e-05 0.0000000000000000e+00  -9.3586597582197438e-06 3.3559686930485728e-05 0.0000000000000000e+00  -1.0110504805161359e-05 4.4130047736484063e-05 0.0000000000000000e+00  -1.0734897925980639e-05 5.6007532805548366e-05 0.0000000000000000e+00  -1.1494295519768250e-05 6.8819883234882279e-05 0.0000000000000000e+00  -1.1812417803988558e-05 8.2548927901196427e-05 0.0000000000000000e+00  -1.2307689979952207e-05 9.7142773443352210e-05 0.0000000000000000e+00  -1.2427581229067690e-05 1.1246719296302992e-04 0.0000000000000000e+00  -1.2653117377211101e-05 1.2846819254446387e-04 0.0000000000000000e+00  -1.2632193656819041e-05 1.4497814804224709e-04 0.0000000000000000e+00  -1.2547435114017704e-05 1.6208165547863793e-04 0.0000000000000000e+00  -1.2514476143991889e-05 1.7959933415970301e-04 0.0000000000000000e+00  -1.2281412118641107e-05 1.9751533729852892e-04 0.0000000000000000e+00  -1.2114577948689723e-05 2.1578830890166693e-04 0.0000000000000000e+00  -1.1789356171321510e-05 2.3435597817910597e-04 0.0000000000000000e+00  -1.1508126821810239e-05 2.5317259145970361e-04 0.0000000000000000e+00  -1.1130604613188336e-05 2.7221267923005542e-04 0.0000000000000000e+00  -1.0767312441145112e-05 2.9143980236627395e-04 0.0000000000000000e+00  -1.0341932979750321e-05 3.1078867662924156e-04 0.0000000000000000e+00  -9.9023363939819376e-06 3.3028130458281815e-04 0.0000000000000000e+00  -9.4724311103640570e-06 3.4985234948259390e-04 0.0000000000000000e+00  -9.0155451983013584e-06 3.6951311011114814e-04 0.0000000000000000e+00  -8.5623803922714999e-06 3.8922181484892513e-04 0.0000000000000000e+00  -8.1030661823672565e-06 4.0897624732477472e-04 0.0000000000000000e+00  -7.6500375008209313e-06 4.2875103722047405e-04 0.0000000000000000e+00  -7.2017032574314467e-06 4.4854968288684653e-04 0.0000000000000000e+00  -6.7631139454353171e-06 4.6834603688381899e-04 0.0000000000000000e+00  -6.3374695492057022e-06 4.8815241477620020e-04 0.0000000000000000e+00  -5.9255850130047013e-06 5.0794049424036751e-04 0.0000000000000000e+00  -5.5320371227208787e-06 5.2773209699803422e-04 0.0000000000000000e+00  -5.1579296279388668e-06 5.4749561143959823e-04 0.0000000000000000e+00  -4.8065286119464951e-06 5.6726045049850047e-04 0.0000000000000000e+00  -4.4769176343657747e-06 5.8699469114499039e-04 0.0000000000000000e+00  -4.1736755303325819e-06 6.0673109346579489e-04 0.0000000000000000e+00  -3.8953453252493603e-06 6.2643748715095584e-04 0.0000000000000000e+00  -3.6470071493980500e-06 6.4615047410178025e-04 0.0000000000000000e+00  -3.4297395661621781e-06 6.6584256208634593e-04 0.0000000000000000e+00  -3.2372744994870781e-06 6.8553513878795989e-04 0.0000000000000000e+00  -3.0755675734170335e-06 7.0522040213276990e-04 0.0000000000000000e+00  -2.9318243427129379e-06 7.2490586374601164e-04 0.0000000000000000e+00  -2.8220054856869714e-06 7.4460307405454227e-04 0.0000000000000000e+00  -2.7088736155213887e-06 7.6426497879547215e-04 0.0000000000000000e+00  1.0392689481641595e-05 7.8395754868952139e-04 0.0000000000000000e+00  3.6713533086096837e-05 7.8428148808793558e-04 0.0000000000000000e+00  4.9920440188707983e-05 7.6467165810698500e-04 0.0000000000000000e+00  4.9813941975521428e-05 7.4503777710396358e-04 0.0000000000000000e+00  4.9710258895772174e-05 7.2542587487774732e-04 0.0000000000000000e+00  4.9577075451391706e-05 7.0579937579275684e-04 0.0000000000000000e+00  4.9427671684656347e-05 6.8616911925233851e-04 0.0000000000000000e+00  4.9250132387513784e-05 6.6653331518539696e-04 0.0000000000000000e+00  4.9055036117749176e-05 6.4688522472643292e-04 0.0000000000000000e+00  4.8830533085797536e-05 6.2723841954207828e-04 0.0000000000000000e+00  4.8586296045003255e-05 6.0756300716539250e-04 0.0000000000000000e+00  4.8314659655030563e-05 5.8789159375050850e-04 0.0000000000000000e+00  4.8023477491729733e-05 5.6818755925392090e-04 0.0000000000000000e+00  4.7704575315338693e-05 5.4848541364205521e-04 0.0000000000000000e+00  4.7364652309234232e-05 5.2875048673030128e-04 0.0000000000000000e+00  4.6996001218903784e-05 5.0901937736071504e-04 0.0000000000000000e+00  4.6602041953386496e-05 4.8925859866406657e-04 0.0000000000000000e+00  4.6179121580412099e-05 4.6950902333577207e-04 0.0000000000000000e+00  4.5723879022809141e-05 4.4973919183216961e-04 0.0000000000000000e+00  4.5241167093452697e-05 4.2999376982962229e-04 0.0000000000000000e+00  4.4716554813611161e-05 4.1024389378038810e-04 0.0000000000000000e+00  4.4167438274593225e-05 3.9053881215896818e-04 0.0000000000000000e+00  4.3561250416951212e-05 3.7085282835522016e-04 0.0000000000000000e+00  4.2935173217819477e-05 3.5124162430644201e-04 0.0000000000000000e+00  4.2231040562017330e-05 3.3169205490369294e-04 0.0000000000000000e+00  4.1511395239980802e-05 3.1223385759697334e-04 0.0000000000000000e+00  4.0742557677574419e-05 2.9291517551994660e-04 0.0000000000000000e+00  3.9891821247760885e-05 2.7370746292739129e-04 0.0000000000000000e+00  3.9004844561226999e-05 2.5470991257167246e-04 0.0000000000000000e+00  3.8027561256156758e-05 2.3589231049659290e-04 0.0000000000000000e+00  3.7009080643678297e-05 2.1736157015952499e-04 0.0000000000000000e+00  3.5887295157480376e-05 1.9909216867670292e-04 0.0000000000000000e+00  3.4723735536218324e-05 1.8118306642201645e-04 0.0000000000000000e+00  3.3384126838466024e-05 1.6370104028806418e-04 0.0000000000000000e+00  3.2077438067696340e-05 1.4660098456009975e-04 0.0000000000000000e+00  3.0689205003991190e-05 1.3010779220977615e-04 0.0000000000000000e+00  2.9075966990651000e-05 1.1406448642017052e-04 0.0000000000000000e+00  2.7444879172368014e-05 9.8770668254560145e-05 0.0000000000000000e+00  2.5621147943264201e-05 8.4159017205922903e-05 0.0000000000000000e+00  2.3765031947373346e-05 7.0388605983808425e-05 0.0000000000000000e+00  2.1576342954437142e-05 5.7619508309479664e-05 0.0000000000000000e+00  1.9509586790186878e-05 4.5711720955311743e-05 0.0000000000000000e+00  1.7324530140637365e-05 3.5126646972057249e-05 0.0000000000000000e+00  1.4701471609983955e-05 2.5526839942571807e-05 0.0000000000000000e+00  1.2138965331271358e-05 1.7442592775321928e-05 0.0000000000000000e+00  9.1440215940062488e-06 1.0857339493338924e-05 0.0000000000000000e+00  6.3073993999295484e-06 5.9621362014165136e-06 0.0000000000000000e+00  3.0321201241654974e-06 2.7807489371548100e-06 0.0000000000000000e+00  7.7314969917291567e-07 2.3614767384716803e-06 0.0000000000000000e+00  2.3109864176888752e-05 7.5459916026180882e-04 0.0000000000000000e+00  2.2755741609714843e-05 7.1703711900381528e-04 0.0000000000000000e+00  2.2468441774902127e-05 6.5565217986554905e-04 0.0000000000000000e+00  2.2157892174461320e-06 1.2142790382492943e-05 0.0000000000000000e+00  2.2296035696059980e-05 6.1700152994964162e-04 0.0000000000000000e+00  3.7250052094154608e-06 2.7720501393505550e-05 0.0000000000000000e+00  2.1724386314105495e-05 5.7759360261376818e-04 0.0000000000000000e+00  6.0420515350187408e-06 6.2974372235901293e-05 0.0000000000000000e+00  7.2233002484903541e-06 9.0042266494047292e-05 0.0000000000000000e+00  2.1056805880158060e-05 5.3812474963886613e-04 0.0000000000000000e+00  1.1091903495341884e-05 1.7204729524592747e-04 0.0000000000000000e+00  1.9449563914259001e-05 4.5903097748412666e-04 0.0000000000000000e+00  8.8707268401333768e-06 1.1948115456804859e-04 0.0000000000000000e+00  1.2100475531272479e-05 2.0718480849201760e-04 0.0000000000000000e+00  1.8517801121736338e-05 4.1947145102922984e-04 0.0000000000000000e+00  2.0297278564644092e-05 4.9859706904725439e-04 0.0000000000000000e+00  1.3407032972698445e-05 2.4434320829750609e-04 0.0000000000000000e+00  1.7506557737797571e-05 3.7999046229077817e-04 0.0000000000000000e+00  1.4947319679930969e-05 2.8088678448953816e-04 0.0000000000000000e+00  1.6112148438600398e-05 3.4149511977257487e-04 0.0000000000000000e+00  1.5512524931011172e-05 3.0985698318763640e-04 0.0000000000000000e+00  9.6027348749609263e-06 1.4406140279802103e-04 0.0000000000000000e+00  2.3108129149993146e-05 6.8757622798156534e-04 0.0000000000000000e+00  4.6543026259390827e-06 4.3444107016666368e-05 0.0000000000000000e+00  3.2195297396576379e-05 7.3576104533226987e-04 0.0000000000000000e+00  3.7244369620498465e-06 6.7833715170645728e-06 0.0000000000000000e+00  2.9698538761328721e-05 5.9742931115246687e-04 0.0000000000000000e+00  3.0212693924386026e-05 6.3679664318790682e-04 0.0000000000000000e+00  -7.6554499397909816e-07 1.9406290909427024e-05 0.0000000000000000e+00  1.2148035084425317e-06 7.5646609747953518e-05 0.0000000000000000e+00  2.7583291836486018e-05 4.7898183878090683e-04 0.0000000000000000e+00  2.9088415984042761e-05 5.5800537623110777e-04 0.0000000000000000e+00  4.4937183976869645e-06 1.8886048054738851e-04 0.0000000000000000e+00  2.6687863158589011e-05 4.3942512843897318e-04 0.0000000000000000e+00  2.0565772345304948e-06 1.0488747839705494e-04 0.0000000000000000e+00  5.5737036797654078e-06 2.2542907698852607e-04 0.0000000000000000e+00  2.5695684877460154e-05 3.9990732560915679e-04 0.0000000000000000e+00  2.8383247547323225e-05 5.1851955142672400e-04 0.0000000000000000e+00  5.0398216014347434e-06 2.6282979068845217e-04 0.0000000000000000e+00  2.4606081695669223e-05 3.6051570077578766e-04 0.0000000000000000e+00  -1.2370618417257843e-07 4.0727474385379255e-07 0.0000000000000000e+00  6.6303071958208707e-07 6.8612535473840896e-07 0.0000000000000000e+00  1.7080205148812633e-05 7.7000645243187392e-04 0.0000000000000000e+00  -9.8052515004827065e-07 6.1954051446505569e-06 0.0000000000000000e+00  2.5333242219546601e-05 3.2579899385152975e-04 0.0000000000000000e+00  1.8428581489123929e-05 1.582