<?xml version="1.0"?>
<VTKFile type="UnstructuredGrid"  version="0.1"  >
<UnstructuredGrid>
<Piece  NumberOfPoints="1419" NumberOfCells="2698">
<Points>
<DataArray  type="Float64"  NumberOfComponents="3"  format="ascii">0 0 0  0 0.41 0  2.5 0 0  2.5 0.41 0  0.6 0.19 0  0.6 0.21 0  0.25 0.2 0  0.15 0.2 0  0.2489897948556636 0.21 0  0.2489897948556636 0.19 0  0.6 0.2 0  0 0.3807142857143437 0  0 0.3514285714286952 0  0 0.3221428571430699 0  0 0.29285714285744 0  0 0.2635714285718054 0  0 0.2342857142861561 0  0 0.2050000000005308 0  0 0.175714285714732 0  0 0.1464285714289574 0  0 0.1171428571431897 0  0 0.08785714285737878 0  0 0.05857142857161107 0  0 0.02928571428580012 0  0.03015443760436003 0 0  0.06140001986583606 0 0  0.09377624077125973 0 0  0.1273239957535082 0 0  0.1620856860351972 0 0  0.1981052433264291 0 0  0.235428184091502 0 0  0.2741016576309132 0 0  0.3141745521465447 0 0  0.3556974926295285 0 0  0.3987229542472677 0 0  0.4433053055141081 0 0  0.4895008759286886 0 0  0.5373680609405097 0 0  0.5869673343216626 0 0  0.6383613676634521 0 0  0.6916151138468254 0 0  0.7467958595648856 0 0  0.8039733463919316 0 0  0.8632198139502143 0 0  0.9246101326867038 0 0  0.9882218810934433 0 0  1.054135445558498 0 0  1.122434100542598 0 0  1.193204177141305 0 0  1.266535089879536 0 0  1.342519516046404 0 0  1.421253448503939 0 0  1.502836389106271 0 0  1.587371439758838 0 0  1.674965418777374 0 0  1.765729001825544 0 0  1.859776908880082 0 0  1.957227977487062 0 0  2.058205329869943 0 0  2.162836591189951 0 0  2.271253957290865 0 0  2.383594446803425 0 0  2.5 0.1024999999997612 0  2.5 0.2049999999994743 0  2.5 0.3074999999997183 0  2.383594446803656 0.41 0  2.271253957291315 0.41 0  2.162836591190598 0.41 0  2.058205329870775 0.41 0  1.957227977488067 0.41 0  1.859776908881246 0.41 0  1.765729001826854 0.41 0  1.674965418778818 0.41 0  1.58737143976041 0.41 0  1.502836389107956 0.41 0  1.421253448505726 0.41 0  1.342519516048286 0.41 0  1.266535089881505 0.41 0  1.193204177143353 0.41 0  1.122434100544716 0.41 0  1.05413544556068 0.41 0  0.9882218810956305 0.41 0  0.9246101326886647 0.41 0  0.8632198139519631 0.41 0  0.8039733463934788 0.41 0  0.7467958595662458 0.41 0  0.6916151138480078 0.41 0  0.6383613676644679 0.41 0  0.5869673343225223 0.41 0  0.5373680609412221 0.41 0  0.4895008759292634 0.41 0  0.4433053055145528 0.41 0  0.3987229542475914 0.41 0  0.3556974926297398 0.41 0  0.3141745521466497 0.41 0  0.2741016576310038 0.41 0  0.2354281840915826 0.41 0  0.1981052433265003 0.41 0  0.1620856860352591 0.41 0  0.1273239957535623 0.41 0  0.09377624077128965 0.41 0  0.06140001986584975 0.41 0  0.03015443760436654 0.41 0  0.2497468076502589 0.2050254481002335 0  0.2497468076502614 0.1949745518997913 0  0.2469965252529372 0.1829317073451959 0  0.2439893735792749 0.1762316384219906 0  0.2400332147834255 0.1700443375285386 0  0.2352133972704371 0.1645032867342007 0  0.2296339016332438 0.1597280261969788 0  0.2234150974217223 0.1558215752574715 0  0.2166911463437691 0.1528682099456123 0  0.2096071079204251 0.1509316448471593 0  0.2023158100364996 0.1500536585536553 0  0.194974551899914 0.1502531923497262 0  0.1877417105387872 0.1515259415822739 0  0.1807733240461124 0.153844448527136 0  0.1742197252835808 0.15715869474974 0  0.1682222986673531 0.1613971801805478 0  0.162910430003803 0.1664684656256651 0  0.1583987151779087 0.1722631454351573 0  0.1547844879126891 0.178656207771761 0  0.1521457199348551 0.1855097315605723 0  0.1505393388476355 0.1926758619366523 0  0.1505393388476328 0.2073241380633295 0  0.1521457199348437 0.2144902684393899 0  0.1547844879126531 0.221343792228163 0  0.1583987151778488 0.2277368545647528 0  0.1629104300036858 0.2335315343742052 0  0.1682222986671726 0.2386028198193036 0  0.1742197252833576 0.2428413052501257 0  0.1807733240458683 0.2461555514727623 0  0.1877417105384929 0.2484740584176516 0  0.1949745518995776 0.2497468076502398 0  0.202315810036185 0.2499463414463592 0  0.2096071079201568 0.2490683551528932 0  0.2166911463435495 0.2471317900544655 0  0.2234150974215506 0.2441784247426195 0  0.2296339016331197 0.2402719738031125 0  0.2352133972703547 0.2354967132658811 0  0.2400332147833751 0.2299556624715287 0  0.2439893735792577 0.2237683615780412 0  0.246996525252926 0.2170682926548348 0  0.25645809709277 0.21 0  0.2639263993298655 0.21 0  0.271394701566961 0.21 0  0.2788630038040554 0.21 0  0.2863313060411479 0.21 0  0.2937996082782405 0.21 0  0.301267910515333 0.21 0  0.3087362127524279 0.21 0  0.3162045149895234 0.21 0  0.3236728172265972 0.21 0  0.3311411194636928 0.21 0  0.3386094217007701 0.21 0  0.3460777239378666 0.21 0  0.3535460261749672 0.21 0  0.3610143284120516 0.21 0  0.3684826306491596 0.21 0  0.3759509328862226 0.21 0  0.383419235123329 0.21 0  0.3908875373604028 0.21 0  0.3983558395975142 0.21 0  0.4058241418345938 0.21 0  0.4132924440716992 0.21 0  0.4207607463087888 0.21 0  0.4282290485459029 0.21 0  0.4356973507830418 0.21 0  0.4431656530201649 0.21 0  0.4506339552573136 0.21 0  0.4581022574944306 0.21 0  0.4655705597315852 0.21 0  0.4730388619686996 0.21 0  0.480507164205851 0.21 0  0.4879754664429498 0.21 0  0.4954437686800938 0.21 0  0.502912070917267 0.21 0  0.5103803731544119 0.21 0  0.5178486753915261 0.21 0  0.5253169776286404 0.21 0  0.5327852798657868 0.21 0  0.5402535821029386 0.21 0  0.54772188434007 0.21 0  0.5551901865771842 0.21 0  0.5626584888143201 0.21 0  0.5701267910514778 0.21 0  0.5775950932886138 0.21 0  0.5850633955257281 0.21 0  0.5925316977628483 0.21 0  0.6 0.2050000000000054 0  0.6 0.1950000000000217 0  0.5925316977628897 0.19 0  0.5850633955257988 0.19 0  0.5775950932887378 0.19 0  0.5701267910515998 0.19 0  0.5626584888145268 0.19 0  0.5551901865773963 0.19 0  0.547721884340339 0.19 0  0.5402535821032429 0.19 0  0.5327852798661811 0.19 0  0.5253169776290537 0.19 0  0.5178486753919799 0.19 0  0.5103803731549078 0.19 0  0.502912070917822 0.19 0  0.4954437686807294 0.19 0  0.4879754664436223 0.19 0  0.4805071642065402 0.19 0  0.4730388619694271 0.19 0  0.4655705597323621 0.19 0  0.4581022574952563 0.19 0  0.4506339552581777 0.19 0  0.4431656530210671 0.19 0  0.4356973507839815 0.19 0  0.4282290485468779 0.19 0  0.4207607463097617 0.19 0  0.4132924440726327 0.19 0  0.4058241418354857 0.19 0  0.3983558395983636 0.19 0  0.3908875373612097 0.19 0  0.3834192351240934 0.19 0  0.3759509328869369 0.19 0  0.3684826306498175 0.19 0  0.361014328412667 0.19 0  0.3535460261755617 0.19 0  0.3460777239384295 0.19 0  0.3386094217012945 0.19 0  0.3311411194641595 0.19 0  0.3236728172270245 0.19 0  0.3162045149898895 0.19 0  0.3087362127527544 0.19 0  0.3012679105156187 0.19 0  0.2937996082784807 0.19 0  0.2863313060413428 0.19 0  0.2788630038042048 0.19 0  0.2713947015670686 0.19 0  0.2639263993299336 0.19 0  0.2564580970927985 0.19 0  0.2607803159922026 0.2000727136295815 0  0.5887803774232762 0.2001272386983733 0  0.5745072403740523 0.2002044435018727 0  0.5511891430099709 0.2001122610077113 0  0.2751288526855082 0.20000000000002 0  0.5365194309847112 0.1999999999999436 0  0.2894621222999649 0.1998691686390484 0  0.5215828265105155 0.1999999999999228 0  0.3127789816668748 0.1998657885438805 0  0.3274069683451451 0.2000000000000796 0  0.5066462220363641 0.199999999999908 0  0.3650630746574081 0.199866017807523 0  0.476773013087985 0.1999999999998713 0  0.3417402379596385 0.1998691686391011 0  0.3796850840047755 0.200000000000134 0  0.4618364086138087 0.1999999999998546 0  0.4917096175621762 0.1999999999998808 0  0.3946216884789568 0.2000000000001512 0  0.446899804139621 0.1999999999998389 0  0.4089549580935208 0.1998691686391595 0  0.4322718174608562 0.200127451265745 0  0.4201487168029707 0.1999966199048527 0  0.3528922713220932 0.2000185703532356 0  0.5633122436674589 0.1999814296467508 0  0.3006558810093873 0.1999966199048318 0  0.5815926498168407 0.1966545283159175 0  0.2677053789419034 0.1964246479135325 0  0.5290511287476175 0.1970915826863981 0  0.5439877332217911 0.197091582686394 0  0.2825131256993216 0.2035478995978015 0  0.3199386661080599 0.202908417313604 0  0.4842413153250809 0.1970915826863873 0  0.5141145242734466 0.1970915826863843 0  0.3722167817676917 0.2029084173136195 0  0.4693047108508938 0.1970915826863783 0  0.3348752705822316 0.202908417313609 0  0.3871533862418661 0.2029084173136212 0  0.4543681063767183 0.1970915826863795 0  0.4991779197992749 0.1970915826863902 0  0.4020059614928624 0.203547899597858 0  0.4394315019025246 0.1970915826863714 0  0.2550657455369551 0.2034088125358657 0  0.2548908499171161 0.1966940311614271 0  0.5946539510196798 0.2024302972968126 0  0.267698176732111 0.2039977513680092 0  0.4261685417851465 0.196409292431739 0  0.3590076176283495 0.196411355804271 0  0.5571672426447437 0.2036011176410121 0  0.3066757059912147 0.1964092924317024 0  0.594380730180568 0.1966558399668133 0  0.4842413153245942 0.2040749161535287 0  0.4693047108503577 0.2040749161535231 0  0.3871533862424271 0.1959250838464788 0  0.372246743208829 0.1959123236376545 0  0.5141145242731028 0.2040749161535395 0  0.4543681063761134 0.2040749161535186 0  0.4019979587101454 0.1959834479682427 0  0.4394608940728603 0.2040870543693135 0  0.5439623148931173 0.2040856076781014 0  0.5290511287473298 0.2040749161535501 0  0.4991779197988497 0.2040749161535382 0  0.3347912413592433 0.1959225448935183 0  0.3199680582793816 0.1959123018030061 0  0.2825051229162361 0.1959834479681729 0  0.3590471196690275 0.2036304442587945 0  0.5571594006495384 0.1963685282145804 0  0.3067669986803285 0.203627750582736 0  0.4262598344738712 0.2036568242185335 0  0.5814408164431408 0.2041285596160068 0  0.5688286748170428 0.1961819304477386 0  0.4145905603063645 0.2038180695522843 0  0.3473758401724931 0.2038180695522752 0  0.2950977245128307 0.2038180695522663 0  0.5688286748170693 0.203818069552238 0  0.2950977245127906 0.1961819304477774 0  0.3473758401723931 0.1961819304478349 0  0.4145905603061963 0.1961819304479011 0  0.2601812407614425 0.2056861609747042
[...]
<PointData  Vectors="f_40-1"> 
<DataArray  type="Float64"  Name="f_40-1"  NumberOfComponents="3" format="ascii">0.0000000000000000e+00 0.0000000000000000e+00 0.0000000000000000e+00  0.0000000000000000e+00 0.0000000000000000e+00 0.0000000000000000e+00  0.0000000000000000e+00 0.0000000000000000e+00 0.0000000000000000e+00  0.0000000000000000e+00 0.0000000000000000e+00 0.0000000000000000e+00  5.0526596063895430e-05 7.9757239415087597e-04 0.0000000000000000e+00  -3.0241069991561658e-06 7.9687690142787849e-04 0.0000000000000000e+00  0.0000000000000000e+00 0.0000000000000000e+00 0.0000000000000000e+00  0.0000000000000000e+00 0.0000000000000000e+00 0.0000000000000000e+00  0.0000000000000000e+00 0.0000000000000000e+00 0.0000000000000000e+00  0.0000000000000000e+00 0.0000000000000000e+00 0.0000000000000000e+00  2.3459430538729031e-05 7.9721762617218769e-04 0.0000000000000000e+00  0.0000000000000000e+00 0.0000000000000000e+00 0.0000000000000000e+00  0.0000000000000000e+00 0.0000000000000000e+00 0.0000000000000000e+00  0.0000000000000000e+00 0.0000000000000000e+00 0.0000000000000000e+00  0.0000000000000000e+00 0.0000000000000000e+00 0.0000000000000000e+00  0.0000000000000000e+00 0.0000000000000000e+00 0.0000000000000000e+00  0.0000000000000000e+00 0.0000000000000000e+00 0.0000000000000000e+00  0.0000000000000000e+00 0.0000000000000000e+00 0.0000000000000000e+00  0.0000000000000000e+00 0.0000000000000000e+00 0.0000000000000000e+00  0.0000000000000000e+00 0.0000000000000000e+00 0.0000000000000000e+00  0.0000000000000000e+00 0.0000000000000000e+00 0.0000000000000000e+00  0.0000000000000000e+00 0.0000000000000000e+00 0.0000000000000000e+00  0.0000000000000000e+00 0.0000000000000000e+00 0.0000000000000000e+00  0.0000000000000000e+00 0.0000000000000000e+00 0.0000000000000000e+00  0.0000000000000000e+00 0.0000000000000000e+00 0.0000000000000000e+00  0.0000000000000000e+00 0.0000000000000000e+00 0.0000000000000000e+00  0.0000000000000000e+00 0.0000000000000000e+00 0.0000000000000000e+00  0.0000000000000000e+00 0.0000000000000000e+00 0.0000000000000000e+00  0.0000000000000000e+00 0.0000000000000000e+00 0.0000000000000000e+00  0.0000000000000000e+00 0.0000000000000000e+00 0.0000000000000000e+00  0.0000000000000000e+00 0.0000000000000000e+00 0.0000000000000000e+00  0.0000000000000000e+00 0.0000000000000000e+00 0.0000000000000000e+00  0.0000000000000000e+00 0.0000000000000000e+00 0.0000000000000000e+00  0.0000000000000000e+00 0.0000000000000000e+00 0.0000000000000000e+00  0.0000000000000000e+00 0.0000000000000000e+00 0.0000000000000000e+00  0.0000000000000000e+00 0.0000000000000000e+00 0.0000000000000000e+00  0.0000000000000000e+00 0.0000000000000000e+00 0.0000000000000000e+00  0.0000000000000000e+00 0.0000000000000000e+00 0.0000000000000000e+00  0.0000000000000000e+00 0.0000000000000000e+00 0.0000000000000000e+00  0.0000000000000000e+00 0.0000000000000000e+00 0.0000000000000000e+00  0.0000000000000000e+00 0.0000000000000000e+00 0.0000000000000000e+00  0.0000000000000000e+00 0.0000000000000000e+00 0.0000000000000000e+00  0.0000000000000000e+00 0.0000000000000000e+00 0.0000000000000000e+00  0.0000000000000000e+00 0.0000000000000000e+00 0.0000000000000000e+00  0.0000000000000000e+00 0.0000000000000000e+00 0.0000000000000000e+00  0.0000000000000000e+00 0.0000000000000000e+00 0.0000000000000000e+00  0.0000000000000000e+00 0.0000000000000000e+00 0.0000000000000000e+00  0.0000000000000000e+00 0.0000000000000000e+00 0.0000000000000000e+00  0.0000000000000000e+00 0.0000000000000000e+00 0.0000000000000000e+00  0.0000000000000000e+00 0.0000000000000000e+00 0.0000000000000000e+00  0.0000000000000000e+00 0.0000000000000000e+00 0.0000000000000000e+00  0.0000000000000000e+00 0.0000000000000000e+00 0.0000000000000000e+00  0.0000000000000000e+00 0.0000000000000000e+00 0.0000000000000000e+00  0.0000000000000000e+00 0.0000000000000000e+00 0.0000000000000000e+00  0.0000000000000000e+00 0.0000000000000000e+00 0.0000000000000000e+00  0.0000000000000000e+00 0.0000000000000000e+00 0.0000000000000000e+00  0.0000000000000000e+00 0.0000000000000000e+00 0.0000000000000000e+00  0.0000000000000000e+00 0.0000000000000000e+00 0.0000000000000000e+00  0.0000000000000000e+00 0.0000000000000000e+00 0.0000000000000000e+00  0.0000000000000000e+00 0.0000000000000000e+00 0.0000000000000000e+00  0.0000000000000000e+00 0.0000000000000000e+00 0.0000000000000000e+00  0.0000000000000000e+00 0.0000000000000000e+00 0.0000000000000000e+00  0.0000000000000000e+00 0.0000000000000000e+00 0.0000000000000000e+00  0.0000000000000000e+00 0.0000000000000000e+00 0.0000000000000000e+00  0.0000000000000000e+00 0.0000000000000000e+00 0.0000000000000000e+00  0.0000000000000000e+00 0.0000000000000000e+00 0.0000000000000000e+00  0.0000000000000000e+00 0.0000000000000000e+00 0.0000000000000000e+00  0.0000000000000000e+00 0.0000000000000000e+00 0.0000000000000000e+00  0.0000000000000000e+00 0.0000000000000000e+00 0.0000000000000000e+00  0.0000000000000000e+00 0.0000000000000000e+00 0.0000000000000000e+00  0.0000000000000000e+00 0.0000000000000000e+00 0.0000000000000000e+00  0.0000000000000000e+00 0.0000000000000000e+00 0.0000000000000000e+00  0.0000000000000000e+00 0.0000000000000000e+00 0.0000000000000000e+00  0.0000000000000000e+00 0.0000000000000000e+00 0.0000000000000000e+00  0.0000000000000000e+00 0.0000000000000000e+00 0.0000000000000000e+00  0.0000000000000000e+00 0.0000000000000000e+00 0.0000000000000000e+00  0.0000000000000000e+00 0.0000000000000000e+00 0.0000000000000000e+00  0.0000000000000000e+00 0.0000000000000000e+00 0.0000000000000000e+00  0.0000000000000000e+00 0.0000000000000000e+00 0.0000000000000000e+00  0.0000000000000000e+00 0.0000000000000000e+00 0.0000000000000000e+00  0.0000000000000000e+00 0.0000000000000000e+00 0.0000000000000000e+00  0.0000000000000000e+00 0.0000000000000000e+00 0.0000000000000000e+00  0.0000000000000000e+00 0.0000000000000000e+00 0.0000000000000000e+00  0.0000000000000000e+00 0.0000000000000000e+00 0.0000000000000000e+00  0.0000000000000000e+00 0.0000000000000000e+00 0.0000000000000000e+00  0.0000000000000000e+00 0.0000000000000000e+00 0.0000000000000000e+00  0.0000000000000000e+00 0.0000000000000000e+00 0.0000000000000000e+00  0.0000000000000000e+00 0.0000000000000000e+00 0.0000000000000000e+00  0.0000000000000000e+00 0.0000000000000000e+00 0.0000000000000000e+00  0.0000000000000000e+00 0.0000000000000000e+00 0.0000000000000000e+00  0.0000000000000000e+00 0.0000000000000000e+00 0.0000000000000000e+00  0.0000000000000000e+00 0.0000000000000000e+00 0.0000000000000000e+00  0.0000000000000000e+00 0.0000000000000000e+00 0.0000000000000000e+00  0.0000000000000000e+00 0.0000000000000000e+00 0.0000000000000000e+00  0.0000000000000000e+00 0.0000000000000000e+00 0.0000000000000000e+00  0.0000000000000000e+00 0.0000000000000000e+00 0.0000000000000000e+00  0.0000000000000000e+00 0.0000000000000000e+00 0.0000000000000000e+00  0.0000000000000000e+00 0.0000000000000000e+00 0.0000000000000000e+00  0.0000000000000000e+00 0.0000000000000000e+00 0.0000000000000000e+00  0.0000000000000000e+00 0.0000000000000000e+00 0.0000000000000000e+00  0.0000000000000000e+00 0.0000000000000000e+00 0.0000000000000000e+00  0.0000000000000000e+00 0.0000000000000000e+00 0.0000000000000000e+00  0.0000000000000000e+00 0.0000000000000000e+00 0.0000000000000000e+00  0.0000000000000000e+00 0.0000000000000000e+00 0.0000000000000000e+00  0.0000000000000000e+00 0.0000000000000000e+00 0.0000000000000000e+00  0.0000000000000000e+00 0.0000000000000000e+00 0.0000000000000000e+00  0.0000000000000000e+00 0.0000000000000000e+00 0.0000000000000000e+00  0.0000000000000000e+00 0.0000000000000000e+00 0.0000000000000000e+00  0.0000000000000000e+00 0.0000000000000000e+00 0.0000000000000000e+00  0.0000000000000000e+00 0.0000000000000000e+00 0.0000000000000000e+00  0.0000000000000000e+00 0.0000000000000000e+00 0.0000000000000000e+00  0.0000000000000000e+00 0.0000000000000000e+00 0.0000000000000000e+00  0.0000000000000000e+00 0.0000000000000000e+00 0.0000000000000000e+00  0.0000000000000000e+00 0.0000000000000000e+00 0.0000000000000000e+00  0.0000000000000000e+00 0.0000000000000000e+00 0.0000000000000000e+00  0.0000000000000000e+00 0.0000000000000000e+00 0.0000000000000000e+00  0.0000000000000000e+00 0.0000000000000000e+00 0.0000000000000000e+00  0.0000000000000000e+00 0.0000000000000000e+00 0.0000000000000000e+00  0.0000000000000000e+00 0.0000000000000000e+00 0.0000000000000000e+00  0.0000000000000000e+00 0.0000000000000000e+00 0.0000000000000000e+00  0.0000000000000000e+00 0.0000000000000000e+00 0.0000000000000000e+00  0.0000000000000000e+00 0.0000000000000000e+00 0.0000000000000000e+00  0.0000000000000000e+00 0.0000000000000000e+00 0.0000000000000000e+00  0.0000000000000000e+00 0.0000000000000000e+00 0.0000000000000000e+00  0.0000000000000000e+00 0.0000000000000000e+00 0.0000000000000000e+00  0.0000000000000000e+00 0.0000000000000000e+00 0.0000000000000000e+00  0.0000000000000000e+00 0.0000000000000000e+00 0.0000000000000000e+00  0.0000000000000000e+00 0.0000000000000000e+00 0.0000000000000000e+00  0.0000000000000000e+00 0.0000000000000000e+00 0.0000000000000000e+00  0.0000000000000000e+00 0.0000000000000000e+00 0.0000000000000000e+00  0.0000000000000000e+00 0.0000000000000000e+00 0.0000000000000000e+00  0.0000000000000000e+00 0.0000000000000000e+00 0.0000000000000000e+00  0.0000000000000000e+00 0.0000000000000000e+00 0.0000000000000000e+00  0.0000000000000000e+00 0.0000000000000000e+00 0.0000000000000000e+00  0.0000000000000000e+00 0.0000000000000000e+00 0.0000000000000000e+00  0.0000000000000000e+00 0.0000000000000000e+00 0.0000000000000000e+00  0.0000000000000000e+00 0.0000000000000000e+00 0.0000000000000000e+00  0.0000000000000000e+00 0.0000000000000000e+00 0.0000000000000000e+00  0.0000000000000000e+00 0.0000000000000000e+00 0.0000000000000000e+00  0.0000000000000000e+00 0.0000000000000000e+00 0.0000000000000000e+00  0.0000000000000000e+00 0.0000000000000000e+00 0.0000000000000000e+00  0.0000000000000000e+00 0.0000000000000000e+00 0.0000000000000000e+00  0.0000000000000000e+00 0.0000000000000000e+00 0.0000000000000000e+00  -1.9140243578904518e-06 1.4798956516220369e-06 0.0000000000000000e+00  -3.9919863427298272e-06 4.5612300964926805e-06 0.0000000000000000e+00  -5.5641158178466762e-06 9.4522463415384090e-06 0.0000000000000000e+00  -7.1852645127345788e-06 1.6212184144021930e-05 0.0000000000000000e+00  -8.2988066923599900e-06 2.4374618507991159e-05 0.0000000000000000e+00  -9.5565199753432119e-06 3.4050954579365586e-05 0.0000000000000000e+00  -1.0332093931094336e-05 4.4776982008864423e-05 0.0000000000000000e+00  -1.0978816880414561e-05 5.6831193195146613e-05 0.0000000000000000e+00  -1.1763362469787874e-05 6.9835706408338059e-05 0.0000000000000000e+00  -1.2099787679328672e-05 8.3772479268002343e-05 0.0000000000000000e+00  -1.2616981126818169e-05 9.8589009702201540e-05 0.0000000000000000e+00  -1.2752594382774368e-05 1.1414925240722322e-04 0.0000000000000000e+00  -1.2996269669996630e-05 1.3039849527730384e-04 0.0000000000000000e+00  -1.2989171807703403e-05 1.4716637324423639e-04 0.0000000000000000e+00  -1.2917336253318875e-05 1.6453943328628560e-04 0.0000000000000000e+00  -1.2898651386478008e-05 1.8233508329317525e-04 0.0000000000000000e+00  -1.2675941863087039e-05 2.0053743357090870e-04 0.0000000000000000e+00  -1.2521146667602258e-05 2.1910467834224348e-04 0.0000000000000000e+00  -1.2204520980834777e-05 2.3797332372661826e-04 0.0000000000000000e+00  -1.1933085723942111e-05 2.5709707435161397e-04 0.0000000000000000e+00  -1.1563022902553446e-05 2.7644990062403792e-04 0.0000000000000000e+00  -1.1207615964946004e-05 2.9599497284652366e-04 0.0000000000000000e+00  -1.0788329918785077e-05 3.1566541615859009e-04 0.0000000000000000e+00  -1.0354309845815036e-05 3.3548412067713559e-04 0.0000000000000000e+00  -9.9302530816785691e-06 3.5538411815298120e-04 0.0000000000000000e+00  -9.4780189437545864e-06 3.7537705199867070e-04 0.0000000000000000e+00  -9.0292847835013220e-06 3.9542058490459861e-04 0.0000000000000000e+00  -8.5737310063255577e-06 4.1551188565816299e-04 0.0000000000000000e+00  -8.1242461118314155e-06 4.3562560708006610e-04 0.0000000000000000e+00  -7.6789360234935553e-06 4.5576464847049252e-04 0.0000000000000000e+00  -7.2431806652103971e-06 4.7590289515936964e-04 0.0000000000000000e+00  -6.8199708406394150e-06 4.9605217982246906e-04 0.0000000000000000e+00  -6.4103623443675092e-06 5.1618421231965886e-04 0.0000000000000000e+00  -6.0187958941228660e-06 5.3632044137809853e-04 0.0000000000000000e+00  -5.6465430022345129e-06 5.5642928530755145e-04 0.0000000000000000e+00  -5.2967847593938044e-06 5.7653988198347957e-04 0.0000000000000000e+00  -4.9687253398305277e-06 5.9662033246690987e-04 0.0000000000000000e+00  -4.6668889265342686e-06 6.1670320859103021e-04 0.0000000000000000e+00  -4.3899034041506441e-06 6.3675635969110843e-04 0.0000000000000000e+00  -4.1428130521602018e-06 6.5681626119845431e-04 0.0000000000000000e+00  -3.9267640204089947e-06 6.7685545528865332e-04 0.0000000000000000e+00  -3.7354425595072115e-06 6.9689522877102220e-04 0.0000000000000000e+00  -3.5748449291209316e-06 7.1692782339911486e-04 0.0000000000000000e+00  -3.4322125988888773e-06 7.3696068829803786e-04 0.0000000000000000e+00  -3.3234585692324351e-06 7.5700539585800582e-04 0.0000000000000000e+00  -3.2113921929120117e-06 7.7701490064744022e-04 0.0000000000000000e+00  1.0122065250673087e-05 7.9705571740542474e-04 0.0000000000000000e+00  3.6908445168263200e-05 7.9738067684929361e-04 0.0000000000000000e+00  5.0348960693003108e-05 7.7742374691467905e-04 0.0000000000000000e+00  5.0243287791175277e-05 7.5744225166821555e-04 0.0000000000000000e+00  5.0140434283744062e-05 7.3748281158025615e-04 0.0000000000000000e+00  5.0008055327636827e-05 7.1750887494661045e-04 0.0000000000000000e+00  4.9859471461128802e-05 6.9753126733609341e-04 0.0000000000000000e+00  4.9682741106870645e-05 6.7754824109607533e-04 0.0000000000000000e+00  4.9488384897551234e-05 6.5755304106142776e-04 0.0000000000000000e+00  4.9264645403329814e-05 6.3755929095336719e-04 0.0000000000000000e+00  4.9021032686245946e-05 6.1753711636854103e-04 0.0000000000000000e+00  4.8750048309192461e-05 5.9751920537946530e-04 0.0000000000000000e+00  4.8459294849180314e-05 5.7746895977993894e-04 0.0000000000000000e+00  4.8140852385009536e-05 5.5742103108021197e-04 0.0000000000000000e+00  4.7801047482746730e-05 5.3734077711264699e-04 0.0000000000000000e+00  4.7432567869454763e-05 5.1726501105792567e-04 0.0000000000000000e+00  4.7038281201463806e-05 4.9716028431972083e-04 0.0000000000000000e+00  4.6615132425409139e-05 4.7706776638945062e-04 0.0000000000000000e+00  4.6158959303021657e-05 4.5695604793449281e-04 0.0000000000000000e+00  4.5675489661820035e-05 4.3687018625013105e-04 0.0000000000000000e+00  4.5149161383206465e-05 4.1678138139228073e-04 0.0000000000000000e+00  4.4598610535870967e-05 3.9673937309054068e-04 0.0000000000000000e+00  4.3989694812809083e-05 3.7671856730262334e-04 0.0000000000000000e+00  4.3361306158846647e-05 3.5677525659261856e-04 0.0000000000000000e+00  4.2653263981045512e-05 3.3689651176638203e-04 0.0000000000000000e+00  4.1930040946467727e-05 3.1711226166626991e-04 0.0000000000000000e+00  4.1157048906367650e-05 2.9747201911710971e-04 0.0000000000000000e+00  4.0300484737023331e-05 2.7794617520711580e-04 0.0000000000000000e+00  3.9407666727503621e-05 2.5863607190817058e-04 0.0000000000000000e+00  3.8423023453309378e-05 2.3951096249769525e-04 0.0000000000000000e+00  3.7396945122693187e-05 2.2067934509335972e-04 0.0000000000000000e+00  3.6265887756399811e-05 2.0211551610458886e-04 0.0000000000000000e+00  3.5092782207883516e-05 1.8391968005113281e-04 0.0000000000000000e+00  3.3740694531366947e-05 1.6616012902748292e-04 0.0000000000000000e+00  3.2422693896859672e-05 1.4879032020857075e-04 0.0000000000000000e+00  3.1022081901706292e-05 1.3203929324434902e-04 0.0000000000000000e+00  2.9392714726690998e-05 1.1574684552526338e-04 0.0000000000000000e+00  2.7745747414799315e-05 1.0021761932745941e-04 0.0000000000000000e+00  2.5903259170281525e-05 8.5383017035966163e-05 0.0000000000000000e+00  2.4028287288594387e-05 7.1404176934178540e-05 0.0000000000000000e+00  2.1815771289906285e-05 5.8443746418913619e-05 0.0000000000000000e+00  1.9727590138101759e-05 4.6358869493860110e-05 0.0000000000000000e+00  1.7519636346744690e-05 3.5618075530248732e-05 0.0000000000000000e+00  1.4867210183725920e-05 2.5878235351014104e-05 0.0000000000000000e+00  1.2276830763064728e-05 1.7677240342263629e-05 0.0000000000000000e+00  9.2478810386871623e-06 1.0998044833021373e-05 0.0000000000000000e+00  6.3798575117860773e-06 6.0340016681923145e-06 0.0000000000000000e+00  3.0666651873692892e-06 2.8093573735443809e-06 0.0000000000000000e+00  7.7269249335631225e-07 2.3930873030030017e-06 0.0000000000000000e+00  2.3067475126029003e-05 7.6717548570075949e-04 0.0000000000000000e+00  2.2711536452519691e-05 7.2894924730290429e-04 0.0000000000000000e+00  2.2431557673592397e-05 6.6647998542519922e-04 0.0000000000000000e+00  2.2153386696004004e-06 1.2311993551032955e-05 0.0000000000000000e+00  2.2266318387085979e-05 6.2714782461672711e-04 0.0000000000000000e+00  3.7261823021696844e-06 2.8114062417550995e-05 0.0000000000000000e+00  2.1696685132081118e-05 5.8704681667996143e-04 0.0000000000000000e+00  6.0431285240567126e-06 6.3889230673195969e-05 0.0000000000000000e+00  7.2198620095232146e-06 9.1366712394921407e-05 0.0000000000000000e+00  2.1031144167239713e-05 5.4688625812080230e-04 0.0000000000000000e+00  1.1089853823731188e-05 1.7464928077842972e-04 0.0000000000000000e+00  1.9428026423061531e-05 4.6641681476272028e-04 0.0000000000000000e+00  8.8703193568102073e-06 1.2125813660268073e-04 0.0000000000000000e+00  1.2091775839575613e-05 2.1034903619008289e-04 0.0000000000000000e+00  1.8498331049662694e-05 4.2617605942137001e-04 0.0000000000000000e+00  2.0273673800768846e-05 5.0666906320299054e-04 0.0000000000000000e+00  1.3396524283030603e-05 2.4811021625767942e-04 0.0000000000000000e+00  1.7489159211602372e-05 3.8602080518355432e-04 0.0000000000000000e+00  1.4940540232101130e-05 2.8525423445734826e-04 0.0000000000000000e+00  1.6091135142983832e-05 3.4687431843479958e-04 0.0000000000000000e+00  1.5498871657479031e-05 3.1470608129668129e-04 0.0000000000000000e+00  9.5963221423752712e-06 1.4622215972920813e-04 0.0000000000000000e+00  2.3075744746154461e-05 6.9896768488466069e-04 0.0000000000000000e+00  4.6528189679526576e-06 4.4068647548868766e-05 0.0000000000000000e+00  3.2315394707362943e-05 7.4800323831759495e-04 0.0000000000000000e+00  3.7560208179723855e-06 6.8727668950329652e-06 0.0000000000000000e+00  2.9804706300311109e-05 6.0722925369640214e-04 0.0000000000000000e+00  3.0317055703269923e-05 6.4729013399027462e-04 0.0000000000000000e+00  -8.1977430592277584e-07 1.9683617990117082e-05 0.0000000000000000e+00  1.1317040499365462e-06 7.6756050710676958e-05 0.0000000000000000e+00  2.7694105083779914e-05 4.8671062823385172e-04 0.0000000000000000e+00  2.9196303256483550e-05 5.6711285591903111e-04 0.0000000000000000e+00  4.3748671425126183e-06 1.9173426869465742e-04 0.0000000000000000e+00  2.6799721541162832e-05 4.4647003880429037e-04 0.0000000000000000e+00  1.9618841247393622e-06 1.0644299517008136e-04 0.0000000000000000e+00  5.4475305738715789e-06 2.2889187981628474e-04 0.0000000000000000e+00  2.5808184110161559e-05 4.0627424613679018e-04 0.0000000000000000e+00  2.8492707998183156e-05 5.2693631779671731e-04 0.0000000000000000e+00  4.8805908281366667e-06 2.6690406323991270e-04 0.0000000000000000e+00  2.4718753216244671e-05 3.6621280858600993e-04 0.0000000000000000e+00  -1.2977297028035327e-07 4.1462265963726407e-07 0.0000000000000000e+00  6.6831764000252242e-07 6.9276531649668459e-07 0.0000000000000000e+00  1.6929893665355056e-05 7.8285595567280462e-04 0.0000000000000000e+00  -1.0163119591324433e-06 6.2849754083646525e-06 0.0000000000000000e+00  2.5475307857659120e-05 3.3091063162583721e-04 0.0000000000000000e+00  1.8551895433602943e-05 1.606