<?xml version="1.0"?>
<VTKFile type="UnstructuredGrid"  version="0.1"  >
<UnstructuredGrid>
<Piece  NumberOfPoints="1419" NumberOfCells="2698">
<Points>
<DataArray  type="Float64"  NumberOfComponents="3"  format="ascii">0 0 0  0 0.41 0  2.5 0 0  2.5 0.41 0  0.6 0.19 0  0.6 0.21 0  0.25 0.2 0  0.15 0.2 0  0.2489897948556636 0.21 0  0.2489897948556636 0.19 0  0.6 0.2 0  0 0.3807142857143437 0  0 0.3514285714286952 0  0 0.3221428571430699 0  0 0.29285714285744 0  0 0.2635714285718054 0  0 0.2342857142861561 0  0 0.2050000000005308 0  0 0.175714285714732 0  0 0.1464285714289574 0  0 0.1171428571431897 0  0 0.08785714285737878 0  0 0.05857142857161107 0  0 0.02928571428580012 0  0.03015443760436003 0 0  0.06140001986583606 0 0  0.09377624077125973 0 0  0.1273239957535082 0 0  0.1620856860351972 0 0  0.1981052433264291 0 0  0.235428184091502 0 0  0.2741016576309132 0 0  0.3141745521465447 0 0  0.3556974926295285 0 0  0.3987229542472677 0 0  0.4433053055141081 0 0  0.4895008759286886 0 0  0.5373680609405097 0 0  0.5869673343216626 0 0  0.6383613676634521 0 0  0.6916151138468254 0 0  0.7467958595648856 0 0  0.8039733463919316 0 0  0.8632198139502143 0 0  0.9246101326867038 0 0  0.9882218810934433 0 0  1.054135445558498 0 0  1.122434100542598 0 0  1.193204177141305 0 0  1.266535089879536 0 0  1.342519516046404 0 0  1.421253448503939 0 0  1.502836389106271 0 0  1.587371439758838 0 0  1.674965418777374 0 0  1.765729001825544 0 0  1.859776908880082 0 0  1.957227977487062 0 0  2.058205329869943 0 0  2.162836591189951 0 0  2.271253957290865 0 0  2.383594446803425 0 0  2.5 0.1024999999997612 0  2.5 0.2049999999994743 0  2.5 0.3074999999997183 0  2.383594446803656 0.41 0  2.271253957291315 0.41 0  2.162836591190598 0.41 0  2.058205329870775 0.41 0  1.957227977488067 0.41 0  1.859776908881246 0.41 0  1.765729001826854 0.41 0  1.674965418778818 0.41 0  1.58737143976041 0.41 0  1.502836389107956 0.41 0  1.421253448505726 0.41 0  1.342519516048286 0.41 0  1.266535089881505 0.41 0  1.193204177143353 0.41 0  1.122434100544716 0.41 0  1.05413544556068 0.41 0  0.9882218810956305 0.41 0  0.9246101326886647 0.41 0  0.8632198139519631 0.41 0  0.8039733463934788 0.41 0  0.7467958595662458 0.41 0  0.6916151138480078 0.41 0  0.6383613676644679 0.41 0  0.5869673343225223 0.41 0  0.5373680609412221 0.41 0  0.4895008759292634 0.41 0  0.4433053055145528 0.41 0  0.3987229542475914 0.41 0  0.3556974926297398 0.41 0  0.3141745521466497 0.41 0  0.2741016576310038 0.41 0  0.2354281840915826 0.41 0  0.1981052433265003 0.41 0  0.1620856860352591 0.41 0  0.1273239957535623 0.41 0  0.09377624077128965 0.41 0  0.06140001986584975 0.41 0  0.03015443760436654 0.41 0  0.2497468076502589 0.2050254481002335 0  0.2497468076502614 0.1949745518997913 0  0.2469965252529372 0.1829317073451959 0  0.2439893735792749 0.1762316384219906 0  0.2400332147834255 0.1700443375285386 0  0.2352133972704371 0.1645032867342007 0  0.2296339016332438 0.1597280261969788 0  0.2234150974217223 0.1558215752574715 0  0.2166911463437691 0.1528682099456123 0  0.2096071079204251 0.1509316448471593 0  0.2023158100364996 0.1500536585536553 0  0.194974551899914 0.1502531923497262 0  0.1877417105387872 0.1515259415822739 0  0.1807733240461124 0.153844448527136 0  0.1742197252835808 0.15715869474974 0  0.1682222986673531 0.1613971801805478 0  0.162910430003803 0.1664684656256651 0  0.1583987151779087 0.1722631454351573 0  0.1547844879126891 0.178656207771761 0  0.1521457199348551 0.1855097315605723 0  0.1505393388476355 0.1926758619366523 0  0.1505393388476328 0.2073241380633295 0  0.1521457199348437 0.2144902684393899 0  0.1547844879126531 0.221343792228163 0  0.1583987151778488 0.2277368545647528 0  0.1629104300036858 0.2335315343742052 0  0.1682222986671726 0.2386028198193036 0  0.1742197252833576 0.2428413052501257 0  0.1807733240458683 0.2461555514727623 0  0.1877417105384929 0.2484740584176516 0  0.1949745518995776 0.2497468076502398 0  0.202315810036185 0.2499463414463592 0  0.2096071079201568 0.2490683551528932 0  0.2166911463435495 0.2471317900544655 0  0.2234150974215506 0.2441784247426195 0  0.2296339016331197 0.2402719738031125 0  0.2352133972703547 0.2354967132658811 0  0.2400332147833751 0.2299556624715287 0  0.2439893735792577 0.2237683615780412 0  0.246996525252926 0.2170682926548348 0  0.25645809709277 0.21 0  0.2639263993298655 0.21 0  0.271394701566961 0.21 0  0.2788630038040554 0.21 0  0.2863313060411479 0.21 0  0.2937996082782405 0.21 0  0.301267910515333 0.21 0  0.3087362127524279 0.21 0  0.3162045149895234 0.21 0  0.3236728172265972 0.21 0  0.3311411194636928 0.21 0  0.3386094217007701 0.21 0  0.3460777239378666 0.21 0  0.3535460261749672 0.21 0  0.3610143284120516 0.21 0  0.3684826306491596 0.21 0  0.3759509328862226 0.21 0  0.383419235123329 0.21 0  0.3908875373604028 0.21 0  0.3983558395975142 0.21 0  0.4058241418345938 0.21 0  0.4132924440716992 0.21 0  0.4207607463087888 0.21 0  0.4282290485459029 0.21 0  0.4356973507830418 0.21 0  0.4431656530201649 0.21 0  0.4506339552573136 0.21 0  0.4581022574944306 0.21 0  0.4655705597315852 0.21 0  0.4730388619686996 0.21 0  0.480507164205851 0.21 0  0.4879754664429498 0.21 0  0.4954437686800938 0.21 0  0.502912070917267 0.21 0  0.5103803731544119 0.21 0  0.5178486753915261 0.21 0  0.5253169776286404 0.21 0  0.5327852798657868 0.21 0  0.5402535821029386 0.21 0  0.54772188434007 0.21 0  0.5551901865771842 0.21 0  0.5626584888143201 0.21 0  0.5701267910514778 0.21 0  0.5775950932886138 0.21 0  0.5850633955257281 0.21 0  0.5925316977628483 0.21 0  0.6 0.2050000000000054 0  0.6 0.1950000000000217 0  0.5925316977628897 0.19 0  0.5850633955257988 0.19 0  0.5775950932887378 0.19 0  0.5701267910515998 0.19 0  0.5626584888145268 0.19 0  0.5551901865773963 0.19 0  0.547721884340339 0.19 0  0.5402535821032429 0.19 0  0.5327852798661811 0.19 0  0.5253169776290537 0.19 0  0.5178486753919799 0.19 0  0.5103803731549078 0.19 0  0.502912070917822 0.19 0  0.4954437686807294 0.19 0  0.4879754664436223 0.19 0  0.4805071642065402 0.19 0  0.4730388619694271 0.19 0  0.4655705597323621 0.19 0  0.4581022574952563 0.19 0  0.4506339552581777 0.19 0  0.4431656530210671 0.19 0  0.4356973507839815 0.19 0  0.4282290485468779 0.19 0  0.4207607463097617 0.19 0  0.4132924440726327 0.19 0  0.4058241418354857 0.19 0  0.3983558395983636 0.19 0  0.3908875373612097 0.19 0  0.3834192351240934 0.19 0  0.3759509328869369 0.19 0  0.3684826306498175 0.19 0  0.361014328412667 0.19 0  0.3535460261755617 0.19 0  0.3460777239384295 0.19 0  0.3386094217012945 0.19 0  0.3311411194641595 0.19 0  0.3236728172270245 0.19 0  0.3162045149898895 0.19 0  0.3087362127527544 0.19 0  0.3012679105156187 0.19 0  0.2937996082784807 0.19 0  0.2863313060413428 0.19 0  0.2788630038042048 0.19 0  0.2713947015670686 0.19 0  0.2639263993299336 0.19 0  0.2564580970927985 0.19 0  0.2607803159922026 0.2000727136295815 0  0.5887803774232762 0.2001272386983733 0  0.5745072403740523 0.2002044435018727 0  0.5511891430099709 0.2001122610077113 0  0.2751288526855082 0.20000000000002 0  0.5365194309847112 0.1999999999999436 0  0.2894621222999649 0.1998691686390484 0  0.5215828265105155 0.1999999999999228 0  0.3127789816668748 0.1998657885438805 0  0.3274069683451451 0.2000000000000796 0  0.5066462220363641 0.199999999999908 0  0.3650630746574081 0.199866017807523 0  0.476773013087985 0.1999999999998713 0  0.3417402379596385 0.1998691686391011 0  0.3796850840047755 0.200000000000134 0  0.4618364086138087 0.1999999999998546 0  0.4917096175621762 0.1999999999998808 0  0.3946216884789568 0.2000000000001512 0  0.446899804139621 0.1999999999998389 0  0.4089549580935208 0.1998691686391595 0  0.4322718174608562 0.200127451265745 0  0.4201487168029707 0.1999966199048527 0  0.3528922713220932 0.2000185703532356 0  0.5633122436674589 0.1999814296467508 0  0.3006558810093873 0.1999966199048318 0  0.5815926498168407 0.1966545283159175 0  0.2677053789419034 0.1964246479135325 0  0.5290511287476175 0.1970915826863981 0  0.5439877332217911 0.197091582686394 0  0.2825131256993216 0.2035478995978015 0  0.3199386661080599 0.202908417313604 0  0.4842413153250809 0.1970915826863873 0  0.5141145242734466 0.1970915826863843 0  0.3722167817676917 0.2029084173136195 0  0.4693047108508938 0.1970915826863783 0  0.3348752705822316 0.202908417313609 0  0.3871533862418661 0.2029084173136212 0  0.4543681063767183 0.1970915826863795 0  0.4991779197992749 0.1970915826863902 0  0.4020059614928624 0.203547899597858 0  0.4394315019025246 0.1970915826863714 0  0.2550657455369551 0.2034088125358657 0  0.2548908499171161 0.1966940311614271 0  0.5946539510196798 0.2024302972968126 0  0.267698176732111 0.2039977513680092 0  0.4261685417851465 0.196409292431739 0  0.3590076176283495 0.196411355804271 0  0.5571672426447437 0.2036011176410121 0  0.3066757059912147 0.1964092924317024 0  0.594380730180568 0.1966558399668133 0  0.4842413153245942 0.2040749161535287 0  0.4693047108503577 0.2040749161535231 0  0.3871533862424271 0.1959250838464788 0  0.372246743208829 0.1959123236376545 0  0.5141145242731028 0.2040749161535395 0  0.4543681063761134 0.2040749161535186 0  0.4019979587101454 0.1959834479682427 0  0.4394608940728603 0.2040870543693135 0  0.5439623148931173 0.2040856076781014 0  0.5290511287473298 0.2040749161535501 0  0.4991779197988497 0.2040749161535382 0  0.3347912413592433 0.1959225448935183 0  0.3199680582793816 0.1959123018030061 0  0.2825051229162361 0.1959834479681729 0  0.3590471196690275 0.2036304442587945 0  0.5571594006495384 0.1963685282145804 0  0.3067669986803285 0.203627750582736 0  0.4262598344738712 0.2036568242185335 0  0.5814408164431408 0.2041285596160068 0  0.5688286748170428 0.1961819304477386 0  0.4145905603063645 0.2038180695522843 0  0.3473758401724931 0.2038180695522752 0  0.2950977245128307 0.2038180695522663 0  0.5688286748170693 0.203818069552238 0  0.2950977245127906 0.1961819304477774 0  0.3473758401723931 0.1961819304478349 0  0.4145905603061963 0.1961819304479011 0  0.2601812407614425 0.2056861609747042
[...]
<PointData  Vectors="f_40-0"> 
<DataArray  type="Float64"  Name="f_40-0"  NumberOfComponents="3" format="ascii">0.0000000000000000e+00 0.0000000000000000e+00 0.0000000000000000e+00  0.0000000000000000e+00 0.0000000000000000e+00 0.0000000000000000e+00  0.0000000000000000e+00 0.0000000000000000e+00 0.0000000000000000e+00  0.0000000000000000e+00 0.0000000000000000e+00 0.0000000000000000e+00  2.5992539867061357e-07 8.0235971759338616e-06 0.0000000000000000e+00  -3.1059615963709062e-07 8.0212275043508294e-06 0.0000000000000000e+00  0.0000000000000000e+00 0.0000000000000000e+00 0.0000000000000000e+00  0.0000000000000000e+00 0.0000000000000000e+00 0.0000000000000000e+00  0.0000000000000000e+00 0.0000000000000000e+00 0.0000000000000000e+00  0.0000000000000000e+00 0.0000000000000000e+00 0.0000000000000000e+00  -2.5417540796119625e-08 8.0167570087719782e-06 0.0000000000000000e+00  7.9591836734548407e-02 0.0000000000000000e+00 0.0000000000000000e+00  1.4693877550994527e-01 0.0000000000000000e+00 0.0000000000000000e+00  2.0204081632617479e-01 0.0000000000000000e+00 0.0000000000000000e+00  2.4489795918330076e-01 0.0000000000000000e+00 0.0000000000000000e+00  2.7551020408131754e-01 0.0000000000000000e+00 0.0000000000000000e+00  2.9387755102022350e-01 0.0000000000000000e+00 0.0000000000000000e+00  3.0000000000000004e-01 0.0000000000000000e+00 0.0000000000000000e+00  2.9387755102059482e-01 0.0000000000000000e+00 0.0000000000000000e+00  2.7551020408195548e-01 0.0000000000000000e+00 0.0000000000000000e+00  2.4489795918409071e-01 0.0000000000000000e+00 0.0000000000000000e+00  2.0204081632692525e-01 0.0000000000000000e+00 0.0000000000000000e+00  1.4693877551058568e-01 0.0000000000000000e+00 0.0000000000000000e+00  7.9591836734909230e-02 0.0000000000000000e+00 0.0000000000000000e+00  0.0000000000000000e+00 0.0000000000000000e+00 0.0000000000000000e+00  0.0000000000000000e+00 0.0000000000000000e+00 0.0000000000000000e+00  0.0000000000000000e+00 0.0000000000000000e+00 0.0000000000000000e+00  0.0000000000000000e+00 0.0000000000000000e+00 0.0000000000000000e+00  0.0000000000000000e+00 0.0000000000000000e+00 0.0000000000000000e+00  0.0000000000000000e+00 0.0000000000000000e+00 0.0000000000000000e+00  0.0000000000000000e+00 0.0000000000000000e+00 0.0000000000000000e+00  0.0000000000000000e+00 0.0000000000000000e+00 0.0000000000000000e+00  0.0000000000000000e+00 0.0000000000000000e+00 0.0000000000000000e+00  0.0000000000000000e+00 0.0000000000000000e+00 0.0000000000000000e+00  0.0000000000000000e+00 0.0000000000000000e+00 0.0000000000000000e+00  0.0000000000000000e+00 0.0000000000000000e+00 0.0000000000000000e+00  0.0000000000000000e+00 0.0000000000000000e+00 0.0000000000000000e+00  0.0000000000000000e+00 0.0000000000000000e+00 0.0000000000000000e+00  0.0000000000000000e+00 0.0000000000000000e+00 0.0000000000000000e+00  0.0000000000000000e+00 0.0000000000000000e+00 0.0000000000000000e+00  0.0000000000000000e+00 0.0000000000000000e+00 0.0000000000000000e+00  0.0000000000000000e+00 0.0000000000000000e+00 0.0000000000000000e+00  0.0000000000000000e+00 0.0000000000000000e+00 0.0000000000000000e+00  0.0000000000000000e+00 0.0000000000000000e+00 0.0000000000000000e+00  0.0000000000000000e+00 0.0000000000000000e+00 0.0000000000000000e+00  0.0000000000000000e+00 0.0000000000000000e+00 0.0000000000000000e+00  0.0000000000000000e+00 0.0000000000000000e+00 0.0000000000000000e+00  0.0000000000000000e+00 0.0000000000000000e+00 0.0000000000000000e+00  0.0000000000000000e+00 0.0000000000000000e+00 0.0000000000000000e+00  0.0000000000000000e+00 0.0000000000000000e+00 0.0000000000000000e+00  0.0000000000000000e+00 0.0000000000000000e+00 0.0000000000000000e+00  0.0000000000000000e+00 0.0000000000000000e+00 0.0000000000000000e+00  0.0000000000000000e+00 0.0000000000000000e+00 0.0000000000000000e+00  0.0000000000000000e+00 0.0000000000000000e+00 0.0000000000000000e+00  0.0000000000000000e+00 0.0000000000000000e+00 0.0000000000000000e+00  0.0000000000000000e+00 0.0000000000000000e+00 0.0000000000000000e+00  0.0000000000000000e+00 0.0000000000000000e+00 0.0000000000000000e+00  0.0000000000000000e+00 0.0000000000000000e+00 0.0000000000000000e+00  0.0000000000000000e+00 0.0000000000000000e+00 0.0000000000000000e+00  0.0000000000000000e+00 0.0000000000000000e+00 0.0000000000000000e+00  0.0000000000000000e+00 0.0000000000000000e+00 0.0000000000000000e+00  0.0000000000000000e+00 0.0000000000000000e+00 0.0000000000000000e+00  2.3117748481898442e-01 -4.6686834142498496e-03 0.0000000000000000e+00  3.1561504552071490e-01 1.2937819959909704e-03 0.0000000000000000e+00  2.3437125146590679e-01 1.4009848687780593e-02 0.0000000000000000e+00  0.0000000000000000e+00 0.0000000000000000e+00 0.0000000000000000e+00  0.0000000000000000e+00 0.0000000000000000e+00 0.0000000000000000e+00  0.0000000000000000e+00 0.0000000000000000e+00 0.0000000000000000e+00  0.0000000000000000e+00 0.0000000000000000e+00 0.0000000000000000e+00  0.0000000000000000e+00 0.0000000000000000e+00 0.0000000000000000e+00  0.0000000000000000e+00 0.0000000000000000e+00 0.0000000000000000e+00  0.0000000000000000e+00 0.0000000000000000e+00 0.0000000000000000e+00  0.0000000000000000e+00 0.0000000000000000e+00 0.0000000000000000e+00  0.0000000000000000e+00 0.0000000000000000e+00 0.0000000000000000e+00  0.0000000000000000e+00 0.0000000000000000e+00 0.0000000000000000e+00  0.0000000000000000e+00 0.0000000000000000e+00 0.0000000000000000e+00  0.0000000000000000e+00 0.0000000000000000e+00 0.0000000000000000e+00  0.0000000000000000e+00 0.0000000000000000e+00 0.0000000000000000e+00  0.0000000000000000e+00 0.0000000000000000e+00 0.0000000000000000e+00  0.0000000000000000e+00 0.0000000000000000e+00 0.0000000000000000e+00  0.0000000000000000e+00 0.0000000000000000e+00 0.0000000000000000e+00  0.0000000000000000e+00 0.0000000000000000e+00 0.0000000000000000e+00  0.0000000000000000e+00 0.0000000000000000e+00 0.0000000000000000e+00  0.0000000000000000e+00 0.0000000000000000e+00 0.0000000000000000e+00  0.0000000000000000e+00 0.0000000000000000e+00 0.0000000000000000e+00  0.0000000000000000e+00 0.0000000000000000e+00 0.0000000000000000e+00  0.0000000000000000e+00 0.0000000000000000e+00 0.0000000000000000e+00  0.0000000000000000e+00 0.0000000000000000e+00 0.0000000000000000e+00  0.0000000000000000e+00 0.0000000000000000e+00 0.0000000000000000e+00  0.0000000000000000e+00 0.0000000000000000e+00 0.0000000000000000e+00  0.0000000000000000e+00 0.0000000000000000e+00 0.0000000000000000e+00  0.0000000000000000e+00 0.0000000000000000e+00 0.0000000000000000e+00  0.0000000000000000e+00 0.0000000000000000e+00 0.0000000000000000e+00  0.0000000000000000e+00 0.0000000000000000e+00 0.0000000000000000e+00  0.0000000000000000e+00 0.0000000000000000e+00 0.0000000000000000e+00  0.0000000000000000e+00 0.0000000000000000e+00 0.0000000000000000e+00  0.0000000000000000e+00 0.0000000000000000e+00 0.0000000000000000e+00  0.0000000000000000e+00 0.0000000000000000e+00 0.0000000000000000e+00  0.0000000000000000e+00 0.0000000000000000e+00 0.0000000000000000e+00  0.0000000000000000e+00 0.0000000000000000e+00 0.0000000000000000e+00  0.0000000000000000e+00 0.0000000000000000e+00 0.0000000000000000e+00  0.0000000000000000e+00 0.0000000000000000e+00 0.0000000000000000e+00  0.0000000000000000e+00 0.0000000000000000e+00 0.0000000000000000e+00  0.0000000000000000e+00 0.0000000000000000e+00 0.0000000000000000e+00  0.0000000000000000e+00 0.0000000000000000e+00 0.0000000000000000e+00  0.0000000000000000e+00 0.0000000000000000e+00 0.0000000000000000e+00  0.0000000000000000e+00 0.0000000000000000e+00 0.0000000000000000e+00  0.0000000000000000e+00 0.0000000000000000e+00 0.0000000000000000e+00  0.0000000000000000e+00 0.0000000000000000e+00 0.0000000000000000e+00  0.0000000000000000e+00 0.0000000000000000e+00 0.0000000000000000e+00  0.0000000000000000e+00 0.0000000000000000e+00 0.0000000000000000e+00  0.0000000000000000e+00 0.0000000000000000e+00 0.0000000000000000e+00  0.0000000000000000e+00 0.0000000000000000e+00 0.0000000000000000e+00  0.0000000000000000e+00 0.0000000000000000e+00 0.0000000000000000e+00  0.0000000000000000e+00 0.0000000000000000e+00 0.0000000000000000e+00  0.0000000000000000e+00 0.0000000000000000e+00 0.0000000000000000e+00  0.0000000000000000e+00 0.0000000000000000e+00 0.0000000000000000e+00  0.0000000000000000e+00 0.0000000000000000e+00 0.0000000000000000e+00  0.0000000000000000e+00 0.0000000000000000e+00 0.0000000000000000e+00  0.0000000000000000e+00 0.0000000000000000e+00 0.0000000000000000e+00  0.0000000000000000e+00 0.0000000000000000e+00 0.0000000000000000e+00  0.0000000000000000e+00 0.0000000000000000e+00 0.0000000000000000e+00  0.0000000000000000e+00 0.0000000000000000e+00 0.0000000000000000e+00  0.0000000000000000e+00 0.0000000000000000e+00 0.0000000000000000e+00  0.0000000000000000e+00 0.0000000000000000e+00 0.0000000000000000e+00  0.0000000000000000e+00 0.0000000000000000e+00 0.0000000000000000e+00  0.0000000000000000e+00 0.0000000000000000e+00 0.0000000000000000e+00  0.0000000000000000e+00 0.0000000000000000e+00 0.0000000000000000e+00  0.0000000000000000e+00 0.0000000000000000e+00 0.0000000000000000e+00  0.0000000000000000e+00 0.0000000000000000e+00 0.0000000000000000e+00  0.0000000000000000e+00 0.0000000000000000e+00 0.0000000000000000e+00  0.0000000000000000e+00 0.0000000000000000e+00 0.0000000000000000e+00  0.0000000000000000e+00 0.0000000000000000e+00 0.0000000000000000e+00  0.0000000000000000e+00 0.0000000000000000e+00 0.0000000000000000e+00  0.0000000000000000e+00 0.0000000000000000e+00 0.0000000000000000e+00  0.0000000000000000e+00 0.0000000000000000e+00 0.0000000000000000e+00  0.0000000000000000e+00 0.0000000000000000e+00 0.0000000000000000e+00  0.0000000000000000e+00 0.0000000000000000e+00 0.0000000000000000e+00  0.0000000000000000e+00 0.0000000000000000e+00 0.0000000000000000e+00  0.0000000000000000e+00 0.0000000000000000e+00 0.0000000000000000e+00  0.0000000000000000e+00 0.0000000000000000e+00 0.0000000000000000e+00  0.0000000000000000e+00 0.0000000000000000e+00 0.0000000000000000e+00  0.0000000000000000e+00 0.0000000000000000e+00 0.0000000000000000e+00  -2.1441225310953566e-08 1.8115078403575173e-08 0.0000000000000000e+00  -4.5107539541369665e-08 4.4649165384480551e-08 0.0000000000000000e+00  -6.5230936123465140e-08 8.6927554559110070e-08 0.0000000000000000e+00  -8.6404745832040001e-08 1.4569756858564364e-07 0.0000000000000000e+00  -1.0344649031416131e-07 2.1748952039791025e-07 0.0000000000000000e+00  -1.2230182536647350e-07 3.0339616034670019e-07 0.0000000000000000e+00  -1.3690878184945813e-07 3.9937222803610096e-07 0.0000000000000000e+00  -1.5064346108162961e-07 5.0820088159393535e-07 0.0000000000000000e+00  -1.6608165347355479e-07 6.2650116027101299e-07 0.0000000000000000e+00  -1.7731303790970462e-07 7.5429712091451167e-07 0.0000000000000000e+00  -1.9073601716098878e-07 8.9122028719383951e-07 0.0000000000000000e+00  -2.0036271124577708e-07 1.0361344258859973e-06 0.0000000000000000e+00  -2.1144544063382444e-07 1.1885988451193805e-06 0.0000000000000000e+00  -2.1988967773966717e-07 1.3469219012443634e-06 0.0000000000000000e+00  -2.2778270563710249e-07 1.5123106194737642e-06 0.0000000000000000e+00  -2.3648293791922493e-07 1.6827701539544232e-06 0.0000000000000000e+00  -2.4279320046482265e-07 1.8582987891789256e-06 0.0000000000000000e+00  -2.5012290300287013e-07 2.0386050579957739e-06 0.0000000000000000e+00  -2.5535693242919034e-07 2.2229439952778128e-06 0.0000000000000000e+00  -2.6131882341183301e-07 2.4109929554853167e-06 0.0000000000000000e+00  -2.6585585785705243e-07 2.6023959760720241e-06 0.0000000000000000e+00  -2.7066152692146024e-07 2.7969464323143840e-06 0.0000000000000000e+00  -2.7437018288792088e-07 2.9935815616472132e-06 0.0000000000000000e+00  -2.7778586874328941e-07 3.1930430524464991e-06 0.0000000000000000e+00  -2.8134615312854517e-07 3.3941405655218569e-06 0.0000000000000000e+00  -2.8419601084252392e-07 3.5971862220470462e-06 0.0000000000000000e+00  -2.8690766511697098e-07 3.8018072119876296e-06 0.0000000000000000e+00  -2.8922105451862594e-07 4.0076560289060829e-06 0.0000000000000000e+00  -2.9140499078454629e-07 4.2147295722423206e-06 0.0000000000000000e+00  -2.9327879935065849e-07 4.4226841607428608e-06 0.0000000000000000e+00  -2.9503931746241491e-07 4.6315349410555663e-06 0.0000000000000000e+00  -2.9656005124311643e-07 4.8409912842289988e-06 0.0000000000000000e+00  -2.9798492222130984e-07 5.0510751407183769e-06 0.0000000000000000e+00  -2.9923405829229510e-07 5.2615724319593929e-06 0.0000000000000000e+00  -3.0040884962457254e-07 5.4724870154024810e-06 0.0000000000000000e+00  -3.0145114767343621e-07 5.6836659989575233e-06 0.0000000000000000e+00  -3.0244492913446011e-07 5.8951181883205613e-06 0.0000000000000000e+00  -3.0334282798640661e-07 6.1067395616298412e-06 0.0000000000000000e+00  -3.0421021691586669e-07 6.3185442490828420e-06 0.0000000000000000e+00  -3.0500967046205290e-07 6.5304416321860250e-06 0.0000000000000000e+00  -3.0579352618355465e-07 6.7425072448253022e-06 0.0000000000000000e+00  -3.0651949066099420e-07 6.9543637678615945e-06 0.0000000000000000e+00  -3.0723429786988230e-07 7.1668004338341004e-06 0.0000000000000000e+00  -3.0793637115887575e-07 7.3790168065646196e-06 0.0000000000000000e+00  -3.0861830035250467e-07 7.5912340796654214e-06 0.0000000000000000e+00  -3.0924987521366461e-07 7.8038382663907222e-06 0.0000000000000000e+00  -1.6762105748607191e-07 8.0163381321886178e-06 0.0000000000000000e+00  1.1673486240179022e-07 8.0171289635318901e-06 0.0000000000000000e+00  2.5940452157710647e-07 7.8050287244308698e-06 0.0000000000000000e+00  2.5995510513464598e-07 7.5925398603184182e-06 0.0000000000000000e+00  2.6046360742849237e-07 7.3801678977402568e-06 0.0000000000000000e+00  2.6098982502445745e-07 7.1679959560202745e-06 0.0000000000000000e+00  2.6149112276613817e-07 6.9555411002464791e-06 0.0000000000000000e+00  2.6203535007765598e-07 6.7436610029059035e-06 0.0000000000000000e+00  2.6250083539127415e-07 6.5315491260195713e-06 0.0000000000000000e+00  2.6300628083991314e-07 6.3196402336730136e-06 0.0000000000000000e+00  2.6341339090243914e-07 6.1078324823999775e-06 0.0000000000000000e+00  2.6385475003985200e-07 5.8961954916599524e-06 0.0000000000000000e+00  2.6415564328442591e-07 5.6847357308424799e-06 0.0000000000000000e+00  2.6448341827788288e-07 5.4735428249975555e-06 0.0000000000000000e+00  2.6460819519180415e-07 5.2626242179129748e-06 0.0000000000000000e+00  2.6476507339520903e-07 5.0521138482176465e-06 0.0000000000000000e+00  2.6463002427022780e-07 4.8420292375386719e-06 0.0000000000000000e+00  2.6455182161794173e-07 4.6325489768444485e-06 0.0000000000000000e+00  2.6405955053920974e-07 4.4237028322519099e-06 0.0000000000000000e+00  2.6367096374404785e-07 4.2157211496758456e-06 0.0000000000000000e+00  2.6270650214631262e-07 4.0086484565624371e-06 0.0000000000000000e+00  2.6191962161623379e-07 3.8027660879802129e-06 0.0000000000000000e+00  2.6035113101409134e-07 3.5981466664318436e-06 0.0000000000000000e+00  2.5904128452432924e-07 3.3951419015547534e-06 0.0000000000000000e+00  2.5677165950499593e-07 3.1939125084156849e-06 0.0000000000000000e+00  2.5469172405518046e-07 2.9944736500756271e-06 0.0000000000000000e+00  2.5228121681165513e-07 2.7978374373819567e-06 0.0000000000000000e+00  2.4885346622340180e-07 2.6031893942603934e-06 0.0000000000000000e+00  2.4541156338141981e-07 2.4118920960336487e-06 0.0000000000000000e+00  2.4105203124020114e-07 2.2236244627922839e-06 0.0000000000000000e+00  2.3655393052619767e-07 2.0393401209929953e-06 0.0000000000000000e+00  2.3102606181617760e-07 1.8589452982518728e-06 0.0000000000000000e+00  2.2532837008755643e-07 1.6831774436498132e-06 0.0000000000000000e+00  2.1784515669131704e-07 1.5129838891069232e-06 0.0000000000000000e+00  2.1104954840209025e-07 1.3474750899047491e-06 0.0000000000000000e+00  2.0361167152856265e-07 1.1892064851601543e-06 0.0000000000000000e+00  1.9388907882810395e-07 1.0361888327449268e-06 0.0000000000000000e+00  1.8428469777763681e-07 8.9153716531293176e-07 0.0000000000000000e+00  1.7291396488882337e-07 7.5444398385192977e-07 0.0000000000000000e+00  1.6146035376908358e-07 6.2622032254079746e-07 0.0000000000000000e+00  1.4695584245781299e-07 5.0843188547765661e-07 0.0000000000000000e+00  1.3388217464915356e-07 3.9938468975984767e-07 0.0000000000000000e+00  1.1992466595528163e-07 3.0336622537690151e-07 0.0000000000000000e+00  1.0193271148321207e-07 2.1701146532354396e-07 0.0000000000000000e+00  8.4864515516220577e-08 1.4495729868795665e-07 0.0000000000000000e+00  6.3959101663875922e-08 8.6933410409774734e-08 0.0000000000000000e+00  4.4670066040832643e-08 4.4389206169736338e-08 0.0000000000000000e+00  2.1300945809359389e-08 1.7633030042377071e-08 0.0000000000000000e+00  -3.5294758119864678e-10 1.9608632637617407e-08 0.0000000000000000e+00  -2.8205163417436808e-08 7.6970800479982653e-06 0.0000000000000000e+00  -2.9286199415464577e-08 7.2914265701964318e-06 0.0000000000000000e+00  -2.4725939052503595e-08 6.6291066701134961e-06 0.0000000000000000e+00  -4.7244127211954728e-10 1.0467591661786808e-07 0.0000000000000000e+00  -2.0278343765171221e-08 6.2128528651759735e-06 0.0000000000000000e+00  4.1375338321859797e-10 2.4315965634635112e-07 0.0000000000000000e+00  -1.8966784905971661e-08 5.7895558272035966e-06 0.0000000000000000e+00  1.6554597599795055e-10 5.6436440882742150e-07 0.0000000000000000e+00  -2.7270222941084928e-09 8.1634335354795975e-07 0.0000000000000000e+00  -1.7633245291710906e-08 5.3671068656746410e-06 0.0000000000000000e+00  -2.1732385189638486e-09 1.6007173895697684e-06 0.0000000000000000e+00  -1.4921934148527616e-08 4.5268796930905298e-06 0.0000000000000000e+00  -9.7869592237169304e-10 1.0944342676756328e-06 0.0000000000000000e+00  -6.3632182896958779e-09 1.9453440228752485e-06 0.0000000000000000e+00  -1.3557146428105614e-08 4.1107264619927612e-06 0.0000000000000000e+00  -1.6283270189017729e-08 4.9459842378221582e-06 0.0000000000000000e+00  -7.5847970200768708e-09 2.3145163212910802e-06 0.0000000000000000e+00  -1.2186540624372598e-08 3.6987366175967271e-06 0.0000000000000000e+00  -5.4120169868122971e-09 2.6819958449271128e-06 0.0000000000000000e+00  -1.4290806186251972e-08 3.3007494587892882e-06 0.0000000000000000e+00  -9.7036955707569975e-09 2.9765808306469144e-06 0.0000000000000000e+00  -4.7547952871827879e-09 1.3300309561768006e-06 0.0000000000000000e+00  -2.2029439726328829e-08 6.9732634015974330e-06 0.0000000000000000e+00  -1.3151810898981351e-09 3.8556935821052647e-07 0.0000000000000000e+00  7.1033469150358650e-08 7.4927797330141003e-06 0.0000000000000000e+00  1.9372527701995554e-08 5.5353561907731040e-08 0.0000000000000000e+00  6.2742774585919049e-08 6.0011699754743040e-06 0.0000000000000000e+00  6.1565412189926460e-08 6.4247457466144438e-06 0.0000000000000000e+00  -3.3706202972007096e-08 1.7148677338661758e-07 0.0000000000000000e+00  -5.1664507352065629e-08 6.8413172102475212e-07 0.0000000000000000e+00  6.5863414457472693e-08 4.7362470801815863e-06 0.0000000000000000e+00  6.3878216560595972e-08 5.5782701027410926e-06 0.0000000000000000e+00  -7.3822179631301185e-08 1.7673527948422632e-06 0.0000000000000000e+00  6.6614660428907827e-08 4.3185189978083655e-06 0.0000000000000000e+00  -5.8854794073198225e-08 9.5839418504149464e-07 0.0000000000000000e+00  -7.8368224347736535e-08 2.1282307697113717e-06 0.0000000000000000e+00  6.7128277427748941e-08 3.9043147804578991e-06 0.0000000000000000e+00  6.4933376836110448e-08 5.1564336135819728e-06 0.0000000000000000e+00  -9.8665581575844212e-08 2.5025800528721416e-06 0.0000000000000000e+00  6.7365927643020280e-08 3.4949936591322642e-06 0.0000000000000000e+00  -3.7751879728193193e-09 4.5989165371592421e-09 0.0000000000000000e+00  3.2427862307001175e-09 4.1316517909567636e-09 0.0000000000000000e+00  -9.4160451740459142e-08 7.8638197537494657e-06 0.0000000000000000e+00  -2.2230308266624306e-08 5.5511111400041385e-08 0.0000000000000000e+00  8.5465978177692840e-08 3.1370808283002125e-06 0.0000000000000000e+