<?xml version="1.0"?>
<VTKFile type="UnstructuredGrid"  version="0.1"  >
<UnstructuredGrid>
<Piece  NumberOfPoints="1419" NumberOfCells="2698">
<Points>
<DataArray  type="Float64"  NumberOfComponents="3"  format="ascii">0 0 0  0 0.41 0  2.5 0 0  2.5 0.41 0  0.6 0.19 0  0.6 0.21 0  0.25 0.2 0  0.15 0.2 0  0.2489897948556636 0.21 0  0.2489897948556636 0.19 0  0.6 0.2 0  0 0.3807142857143437 0  0 0.3514285714286952 0  0 0.3221428571430699 0  0 0.29285714285744 0  0 0.2635714285718054 0  0 0.2342857142861561 0  0 0.2050000000005308 0  0 0.175714285714732 0  0 0.1464285714289574 0  0 0.1171428571431897 0  0 0.08785714285737878 0  0 0.05857142857161107 0  0 0.02928571428580012 0  0.03015443760436003 0 0  0.06140001986583606 0 0  0.09377624077125973 0 0  0.1273239957535082 0 0  0.1620856860351972 0 0  0.1981052433264291 0 0  0.235428184091502 0 0  0.2741016576309132 0 0  0.3141745521465447 0 0  0.3556974926295285 0 0  0.3987229542472677 0 0  0.4433053055141081 0 0  0.4895008759286886 0 0  0.5373680609405097 0 0  0.5869673343216626 0 0  0.6383613676634521 0 0  0.6916151138468254 0 0  0.7467958595648856 0 0  0.8039733463919316 0 0  0.8632198139502143 0 0  0.9246101326867038 0 0  0.9882218810934433 0 0  1.054135445558498 0 0  1.122434100542598 0 0  1.193204177141305 0 0  1.266535089879536 0 0  1.342519516046404 0 0  1.421253448503939 0 0  1.502836389106271 0 0  1.587371439758838 0 0  1.674965418777374 0 0  1.765729001825544 0 0  1.859776908880082 0 0  1.957227977487062 0 0  2.058205329869943 0 0  2.162836591189951 0 0  2.271253957290865 0 0  2.383594446803425 0 0  2.5 0.1024999999997612 0  2.5 0.2049999999994743 0  2.5 0.3074999999997183 0  2.383594446803656 0.41 0  2.271253957291315 0.41 0  2.162836591190598 0.41 0  2.058205329870775 0.41 0  1.957227977488067 0.41 0  1.859776908881246 0.41 0  1.765729001826854 0.41 0  1.674965418778818 0.41 0  1.58737143976041 0.41 0  1.502836389107956 0.41 0  1.421253448505726 0.41 0  1.342519516048286 0.41 0  1.266535089881505 0.41 0  1.193204177143353 0.41 0  1.122434100544716 0.41 0  1.05413544556068 0.41 0  0.9882218810956305 0.41 0  0.9246101326886647 0.41 0  0.8632198139519631 0.41 0  0.8039733463934788 0.41 0  0.7467958595662458 0.41 0  0.6916151138480078 0.41 0  0.6383613676644679 0.41 0  0.5869673343225223 0.41 0  0.5373680609412221 0.41 0  0.4895008759292634 0.41 0  0.4433053055145528 0.41 0  0.3987229542475914 0.41 0  0.3556974926297398 0.41 0  0.3141745521466497 0.41 0  0.2741016576310038 0.41 0  0.2354281840915826 0.41 0  0.1981052433265003 0.41 0  0.1620856860352591 0.41 0  0.1273239957535623 0.41 0  0.09377624077128965 0.41 0  0.06140001986584975 0.41 0  0.03015443760436654 0.41 0  0.2497468076502589 0.2050254481002335 0  0.2497468076502614 0.1949745518997913 0  0.2469965252529372 0.1829317073451959 0  0.2439893735792749 0.1762316384219906 0  0.2400332147834255 0.1700443375285386 0  0.2352133972704371 0.1645032867342007 0  0.2296339016332438 0.1597280261969788 0  0.2234150974217223 0.1558215752574715 0  0.2166911463437691 0.1528682099456123 0  0.2096071079204251 0.1509316448471593 0  0.2023158100364996 0.1500536585536553 0  0.194974551899914 0.1502531923497262 0  0.1877417105387872 0.1515259415822739 0  0.1807733240461124 0.153844448527136 0  0.1742197252835808 0.15715869474974 0  0.1682222986673531 0.1613971801805478 0  0.162910430003803 0.1664684656256651 0  0.1583987151779087 0.1722631454351573 0  0.1547844879126891 0.178656207771761 0  0.1521457199348551 0.1855097315605723 0  0.1505393388476355 0.1926758619366523 0  0.1505393388476328 0.2073241380633295 0  0.1521457199348437 0.2144902684393899 0  0.1547844879126531 0.221343792228163 0  0.1583987151778488 0.2277368545647528 0  0.1629104300036858 0.2335315343742052 0  0.1682222986671726 0.2386028198193036 0  0.1742197252833576 0.2428413052501257 0  0.1807733240458683 0.2461555514727623 0  0.1877417105384929 0.2484740584176516 0  0.1949745518995776 0.2497468076502398 0  0.202315810036185 0.2499463414463592 0  0.2096071079201568 0.2490683551528932 0  0.2166911463435495 0.2471317900544655 0  0.2234150974215506 0.2441784247426195 0  0.2296339016331197 0.2402719738031125 0  0.2352133972703547 0.2354967132658811 0  0.2400332147833751 0.2299556624715287 0  0.2439893735792577 0.2237683615780412 0  0.246996525252926 0.2170682926548348 0  0.25645809709277 0.21 0  0.2639263993298655 0.21 0  0.271394701566961 0.21 0  0.2788630038040554 0.21 0  0.2863313060411479 0.21 0  0.2937996082782405 0.21 0  0.301267910515333 0.21 0  0.3087362127524279 0.21 0  0.3162045149895234 0.21 0  0.3236728172265972 0.21 0  0.3311411194636928 0.21 0  0.3386094217007701 0.21 0  0.3460777239378666 0.21 0  0.3535460261749672 0.21 0  0.3610143284120516 0.21 0  0.3684826306491596 0.21 0  0.3759509328862226 0.21 0  0.383419235123329 0.21 0  0.3908875373604028 0.21 0  0.3983558395975142 0.21 0  0.4058241418345938 0.21 0  0.4132924440716992 0.21 0  0.4207607463087888 0.21 0  0.4282290485459029 0.21 0  0.4356973507830418 0.21 0  0.4431656530201649 0.21 0  0.4506339552573136 0.21 0  0.4581022574944306 0.21 0  0.4655705597315852 0.21 0  0.4730388619686996 0.21 0  0.480507164205851 0.21 0  0.4879754664429498 0.21 0  0.4954437686800938 0.21 0  0.502912070917267 0.21 0  0.5103803731544119 0.21 0  0.5178486753915261 0.21 0  0.5253169776286404 0.21 0  0.5327852798657868 0.21 0  0.5402535821029386 0.21 0  0.54772188434007 0.21 0  0.5551901865771842 0.21 0  0.5626584888143201 0.21 0  0.5701267910514778 0.21 0  0.5775950932886138 0.21 0  0.5850633955257281 0.21 0  0.5925316977628483 0.21 0  0.6 0.2050000000000054 0  0.6 0.1950000000000217 0  0.5925316977628897 0.19 0  0.5850633955257988 0.19 0  0.5775950932887378 0.19 0  0.5701267910515998 0.19 0  0.5626584888145268 0.19 0  0.5551901865773963 0.19 0  0.547721884340339 0.19 0  0.5402535821032429 0.19 0  0.5327852798661811 0.19 0  0.5253169776290537 0.19 0  0.5178486753919799 0.19 0  0.5103803731549078 0.19 0  0.502912070917822 0.19 0  0.4954437686807294 0.19 0  0.4879754664436223 0.19 0  0.4805071642065402 0.19 0  0.4730388619694271 0.19 0  0.4655705597323621 0.19 0  0.4581022574952563 0.19 0  0.4506339552581777 0.19 0  0.4431656530210671 0.19 0  0.4356973507839815 0.19 0  0.4282290485468779 0.19 0  0.4207607463097617 0.19 0  0.4132924440726327 0.19 0  0.4058241418354857 0.19 0  0.3983558395983636 0.19 0  0.3908875373612097 0.19 0  0.3834192351240934 0.19 0  0.3759509328869369 0.19 0  0.3684826306498175 0.19 0  0.361014328412667 0.19 0  0.3535460261755617 0.19 0  0.3460777239384295 0.19 0  0.3386094217012945 0.19 0  0.3311411194641595 0.19 0  0.3236728172270245 0.19 0  0.3162045149898895 0.19 0  0.3087362127527544 0.19 0  0.3012679105156187 0.19 0  0.2937996082784807 0.19 0  0.2863313060413428 0.19 0  0.2788630038042048 0.19 0  0.2713947015670686 0.19 0  0.2639263993299336 0.19 0  0.2564580970927985 0.19 0  0.2607803159922026 0.2000727136295815 0  0.5887803774232762 0.2001272386983733 0  0.5745072403740523 0.2002044435018727 0  0.5511891430099709 0.2001122610077113 0  0.2751288526855082 0.20000000000002 0  0.5365194309847112 0.1999999999999436 0  0.2894621222999649 0.1998691686390484 0  0.5215828265105155 0.1999999999999228 0  0.3127789816668748 0.1998657885438805 0  0.3274069683451451 0.2000000000000796 0  0.5066462220363641 0.199999999999908 0  0.3650630746574081 0.199866017807523 0  0.476773013087985 0.1999999999998713 0  0.3417402379596385 0.1998691686391011 0  0.3796850840047755 0.200000000000134 0  0.4618364086138087 0.1999999999998546 0  0.4917096175621762 0.1999999999998808 0  0.3946216884789568 0.2000000000001512 0  0.446899804139621 0.1999999999998389 0  0.4089549580935208 0.1998691686391595 0  0.4322718174608562 0.200127451265745 0  0.4201487168029707 0.1999966199048527 0  0.3528922713220932 0.2000185703532356 0  0.5633122436674589 0.1999814296467508 0  0.3006558810093873 0.1999966199048318 0  0.5815926498168407 0.1966545283159175 0  0.2677053789419034 0.1964246479135325 0  0.5290511287476175 0.1970915826863981 0  0.5439877332217911 0.197091582686394 0  0.2825131256993216 0.2035478995978015 0  0.3199386661080599 0.202908417313604 0  0.4842413153250809 0.1970915826863873 0  0.5141145242734466 0.1970915826863843 0  0.3722167817676917 0.2029084173136195 0  0.4693047108508938 0.1970915826863783 0  0.3348752705822316 0.202908417313609 0  0.3871533862418661 0.2029084173136212 0  0.4543681063767183 0.1970915826863795 0  0.4991779197992749 0.1970915826863902 0  0.4020059614928624 0.203547899597858 0  0.4394315019025246 0.1970915826863714 0  0.2550657455369551 0.2034088125358657 0  0.2548908499171161 0.1966940311614271 0  0.5946539510196798 0.2024302972968126 0  0.267698176732111 0.2039977513680092 0  0.4261685417851465 0.196409292431739 0  0.3590076176283495 0.196411355804271 0  0.5571672426447437 0.2036011176410121 0  0.3066757059912147 0.1964092924317024 0  0.594380730180568 0.1966558399668133 0  0.4842413153245942 0.2040749161535287 0  0.4693047108503577 0.2040749161535231 0  0.3871533862424271 0.1959250838464788 0  0.372246743208829 0.1959123236376545 0  0.5141145242731028 0.2040749161535395 0  0.4543681063761134 0.2040749161535186 0  0.4019979587101454 0.1959834479682427 0  0.4394608940728603 0.2040870543693135 0  0.5439623148931173 0.2040856076781014 0  0.5290511287473298 0.2040749161535501 0  0.4991779197988497 0.2040749161535382 0  0.3347912413592433 0.1959225448935183 0  0.3199680582793816 0.1959123018030061 0  0.2825051229162361 0.1959834479681729 0  0.3590471196690275 0.2036304442587945 0  0.5571594006495384 0.1963685282145804 0  0.3067669986803285 0.203627750582736 0  0.4262598344738712 0.2036568242185335 0  0.5814408164431408 0.2041285596160068 0  0.5688286748170428 0.1961819304477386 0  0.4145905603063645 0.2038180695522843 0  0.3473758401724931 0.2038180695522752 0  0.2950977245128307 0.2038180695522663 0  0.5688286748170693 0.203818069552238 0  0.2950977245127906 0.1961819304477774 0  0.3473758401723931 0.1961819304478349 0  0.4145905603061963 0.1961819304479011 0  0.2601812407614425 0.2056861609747042
[...]
<PointData  Vectors="f_40-0"> 
<DataArray  type="Float64"  Name="f_40-0"  NumberOfComponents="3" format="ascii">0.0000000000000000e+00 0.0000000000000000e+00 0.0000000000000000e+00  0.0000000000000000e+00 0.0000000000000000e+00 0.0000000000000000e+00  0.0000000000000000e+00 0.0000000000000000e+00 0.0000000000000000e+00  0.0000000000000000e+00 0.0000000000000000e+00 0.0000000000000000e+00  1.1193458487598050e-09 7.0526282230673286e-09 0.0000000000000000e+00  -6.0969326704779134e-10 5.7955304865948064e-09 0.0000000000000000e+00  0.0000000000000000e+00 0.0000000000000000e+00 0.0000000000000000e+00  0.0000000000000000e+00 0.0000000000000000e+00 0.0000000000000000e+00  0.0000000000000000e+00 0.0000000000000000e+00 0.0000000000000000e+00  0.0000000000000000e+00 0.0000000000000000e+00 0.0000000000000000e+00  1.8457616864164446e-11 7.5006845391559674e-10 0.0000000000000000e+00  7.9591836734548407e-02 0.0000000000000000e+00 0.0000000000000000e+00  1.4693877550994527e-01 0.0000000000000000e+00 0.0000000000000000e+00  2.0204081632617479e-01 0.0000000000000000e+00 0.0000000000000000e+00  2.4489795918330076e-01 0.0000000000000000e+00 0.0000000000000000e+00  2.7551020408131754e-01 0.0000000000000000e+00 0.0000000000000000e+00  2.9387755102022350e-01 0.0000000000000000e+00 0.0000000000000000e+00  3.0000000000000004e-01 0.0000000000000000e+00 0.0000000000000000e+00  2.9387755102059482e-01 0.0000000000000000e+00 0.0000000000000000e+00  2.7551020408195548e-01 0.0000000000000000e+00 0.0000000000000000e+00  2.4489795918409071e-01 0.0000000000000000e+00 0.0000000000000000e+00  2.0204081632692525e-01 0.0000000000000000e+00 0.0000000000000000e+00  1.4693877551058568e-01 0.0000000000000000e+00 0.0000000000000000e+00  7.9591836734909230e-02 0.0000000000000000e+00 0.0000000000000000e+00  0.0000000000000000e+00 0.0000000000000000e+00 0.0000000000000000e+00  0.0000000000000000e+00 0.0000000000000000e+00 0.0000000000000000e+00  0.0000000000000000e+00 0.0000000000000000e+00 0.0000000000000000e+00  0.0000000000000000e+00 0.0000000000000000e+00 0.0000000000000000e+00  0.0000000000000000e+00 0.0000000000000000e+00 0.0000000000000000e+00  0.0000000000000000e+00 0.0000000000000000e+00 0.0000000000000000e+00  0.0000000000000000e+00 0.0000000000000000e+00 0.0000000000000000e+00  0.0000000000000000e+00 0.0000000000000000e+00 0.0000000000000000e+00  0.0000000000000000e+00 0.0000000000000000e+00 0.0000000000000000e+00  0.0000000000000000e+00 0.0000000000000000e+00 0.0000000000000000e+00  0.0000000000000000e+00 0.0000000000000000e+00 0.0000000000000000e+00  0.0000000000000000e+00 0.0000000000000000e+00 0.0000000000000000e+00  0.0000000000000000e+00 0.0000000000000000e+00 0.0000000000000000e+00  0.0000000000000000e+00 0.0000000000000000e+00 0.0000000000000000e+00  0.0000000000000000e+00 0.0000000000000000e+00 0.0000000000000000e+00  0.0000000000000000e+00 0.0000000000000000e+00 0.0000000000000000e+00  0.0000000000000000e+00 0.0000000000000000e+00 0.0000000000000000e+00  0.0000000000000000e+00 0.0000000000000000e+00 0.0000000000000000e+00  0.0000000000000000e+00 0.0000000000000000e+00 0.0000000000000000e+00  0.0000000000000000e+00 0.0000000000000000e+00 0.0000000000000000e+00  0.0000000000000000e+00 0.0000000000000000e+00 0.0000000000000000e+00  0.0000000000000000e+00 0.0000000000000000e+00 0.0000000000000000e+00  0.0000000000000000e+00 0.0000000000000000e+00 0.0000000000000000e+00  0.0000000000000000e+00 0.0000000000000000e+00 0.0000000000000000e+00  0.0000000000000000e+00 0.0000000000000000e+00 0.0000000000000000e+00  0.0000000000000000e+00 0.0000000000000000e+00 0.0000000000000000e+00  0.0000000000000000e+00 0.0000000000000000e+00 0.0000000000000000e+00  0.0000000000000000e+00 0.0000000000000000e+00 0.0000000000000000e+00  0.0000000000000000e+00 0.0000000000000000e+00 0.0000000000000000e+00  0.0000000000000000e+00 0.0000000000000000e+00 0.0000000000000000e+00  0.0000000000000000e+00 0.0000000000000000e+00 0.0000000000000000e+00  0.0000000000000000e+00 0.0000000000000000e+00 0.0000000000000000e+00  0.0000000000000000e+00 0.0000000000000000e+00 0.0000000000000000e+00  0.0000000000000000e+00 0.0000000000000000e+00 0.0000000000000000e+00  0.0000000000000000e+00 0.0000000000000000e+00 0.0000000000000000e+00  0.0000000000000000e+00 0.0000000000000000e+00 0.0000000000000000e+00  0.0000000000000000e+00 0.0000000000000000e+00 0.0000000000000000e+00  0.0000000000000000e+00 0.0000000000000000e+00 0.0000000000000000e+00  2.3043218902968549e-01 -4.8951758092088665e-03 0.0000000000000000e+00  3.1694054379814807e-01 9.4653811736980910e-04 0.0000000000000000e+00  2.3353418975753654e-01 1.4061583786221722e-02 0.0000000000000000e+00  0.0000000000000000e+00 0.0000000000000000e+00 0.0000000000000000e+00  0.0000000000000000e+00 0.0000000000000000e+00 0.0000000000000000e+00  0.0000000000000000e+00 0.0000000000000000e+00 0.0000000000000000e+00  0.0000000000000000e+00 0.0000000000000000e+00 0.0000000000000000e+00  0.0000000000000000e+00 0.0000000000000000e+00 0.0000000000000000e+00  0.0000000000000000e+00 0.0000000000000000e+00 0.0000000000000000e+00  0.0000000000000000e+00 0.0000000000000000e+00 0.0000000000000000e+00  0.0000000000000000e+00 0.0000000000000000e+00 0.0000000000000000e+00  0.0000000000000000e+00 0.0000000000000000e+00 0.0000000000000000e+00  0.0000000000000000e+00 0.0000000000000000e+00 0.0000000000000000e+00  0.0000000000000000e+00 0.0000000000000000e+00 0.0000000000000000e+00  0.0000000000000000e+00 0.0000000000000000e+00 0.0000000000000000e+00  0.0000000000000000e+00 0.0000000000000000e+00 0.0000000000000000e+00  0.0000000000000000e+00 0.0000000000000000e+00 0.0000000000000000e+00  0.0000000000000000e+00 0.0000000000000000e+00 0.0000000000000000e+00  0.0000000000000000e+00 0.0000000000000000e+00 0.0000000000000000e+00  0.0000000000000000e+00 0.0000000000000000e+00 0.0000000000000000e+00  0.0000000000000000e+00 0.0000000000000000e+00 0.0000000000000000e+00  0.0000000000000000e+00 0.0000000000000000e+00 0.0000000000000000e+00  0.0000000000000000e+00 0.0000000000000000e+00 0.0000000000000000e+00  0.0000000000000000e+00 0.0000000000000000e+00 0.0000000000000000e+00  0.0000000000000000e+00 0.0000000000000000e+00 0.0000000000000000e+00  0.0000000000000000e+00 0.0000000000000000e+00 0.0000000000000000e+00  0.0000000000000000e+00 0.0000000000000000e+00 0.0000000000000000e+00  0.0000000000000000e+00 0.0000000000000000e+00 0.0000000000000000e+00  0.0000000000000000e+00 0.0000000000000000e+00 0.0000000000000000e+00  0.0000000000000000e+00 0.0000000000000000e+00 0.0000000000000000e+00  0.0000000000000000e+00 0.0000000000000000e+00 0.0000000000000000e+00  0.0000000000000000e+00 0.0000000000000000e+00 0.0000000000000000e+00  0.0000000000000000e+00 0.0000000000000000e+00 0.0000000000000000e+00  0.0000000000000000e+00 0.0000000000000000e+00 0.0000000000000000e+00  0.0000000000000000e+00 0.0000000000000000e+00 0.0000000000000000e+00  0.0000000000000000e+00 0.0000000000000000e+00 0.0000000000000000e+00  0.0000000000000000e+00 0.0000000000000000e+00 0.0000000000000000e+00  0.0000000000000000e+00 0.0000000000000000e+00 0.0000000000000000e+00  0.0000000000000000e+00 0.0000000000000000e+00 0.0000000000000000e+00  0.0000000000000000e+00 0.0000000000000000e+00 0.0000000000000000e+00  0.0000000000000000e+00 0.0000000000000000e+00 0.0000000000000000e+00  0.0000000000000000e+00 0.0000000000000000e+00 0.0000000000000000e+00  0.0000000000000000e+00 0.0000000000000000e+00 0.0000000000000000e+00  0.0000000000000000e+00 0.0000000000000000e+00 0.0000000000000000e+00  0.0000000000000000e+00 0.0000000000000000e+00 0.0000000000000000e+00  0.0000000000000000e+00 0.0000000000000000e+00 0.0000000000000000e+00  0.0000000000000000e+00 0.0000000000000000e+00 0.0000000000000000e+00  0.0000000000000000e+00 0.0000000000000000e+00 0.0000000000000000e+00  0.0000000000000000e+00 0.0000000000000000e+00 0.0000000000000000e+00  0.0000000000000000e+00 0.0000000000000000e+00 0.0000000000000000e+00  0.0000000000000000e+00 0.0000000000000000e+00 0.0000000000000000e+00  0.0000000000000000e+00 0.0000000000000000e+00 0.0000000000000000e+00  0.0000000000000000e+00 0.0000000000000000e+00 0.0000000000000000e+00  0.0000000000000000e+00 0.0000000000000000e+00 0.0000000000000000e+00  0.0000000000000000e+00 0.0000000000000000e+00 0.0000000000000000e+00  0.0000000000000000e+00 0.0000000000000000e+00 0.0000000000000000e+00  0.0000000000000000e+00 0.0000000000000000e+00 0.0000000000000000e+00  0.0000000000000000e+00 0.0000000000000000e+00 0.0000000000000000e+00  0.0000000000000000e+00 0.0000000000000000e+00 0.0000000000000000e+00  0.0000000000000000e+00 0.0000000000000000e+00 0.0000000000000000e+00  0.0000000000000000e+00 0.0000000000000000e+00 0.0000000000000000e+00  0.0000000000000000e+00 0.0000000000000000e+00 0.0000000000000000e+00  0.0000000000000000e+00 0.0000000000000000e+00 0.0000000000000000e+00  0.0000000000000000e+00 0.0000000000000000e+00 0.0000000000000000e+00  0.0000000000000000e+00 0.0000000000000000e+00 0.0000000000000000e+00  0.0000000000000000e+00 0.0000000000000000e+00 0.0000000000000000e+00  0.0000000000000000e+00 0.0000000000000000e+00 0.0000000000000000e+00  0.0000000000000000e+00 0.0000000000000000e+00 0.0000000000000000e+00  0.0000000000000000e+00 0.0000000000000000e+00 0.0000000000000000e+00  0.0000000000000000e+00 0.0000000000000000e+00 0.0000000000000000e+00  0.0000000000000000e+00 0.0000000000000000e+00 0.0000000000000000e+00  0.0000000000000000e+00 0.0000000000000000e+00 0.0000000000000000e+00  0.0000000000000000e+00 0.0000000000000000e+00 0.0000000000000000e+00  0.0000000000000000e+00 0.0000000000000000e+00 0.0000000000000000e+00  0.0000000000000000e+00 0.0000000000000000e+00 0.0000000000000000e+00  0.0000000000000000e+00 0.0000000000000000e+00 0.0000000000000000e+00  0.0000000000000000e+00 0.0000000000000000e+00 0.0000000000000000e+00  0.0000000000000000e+00 0.0000000000000000e+00 0.0000000000000000e+00  0.0000000000000000e+00 0.0000000000000000e+00 0.0000000000000000e+00  0.0000000000000000e+00 0.0000000000000000e+00 0.0000000000000000e+00  0.0000000000000000e+00 0.0000000000000000e+00 0.0000000000000000e+00  3.0406837297221625e-12 -5.5324720232486730e-11 0.0000000000000000e+00  -5.6966064664370476e-12 -5.6806545685020646e-11 0.0000000000000000e+00  -3.9790490778077660e-12 -6.4418319353528348e-11 0.0000000000000000e+00  -9.4830268664567422e-12 -5.9632757693117642e-11 0.0000000000000000e+00  -5.5283243201962589e-12 -5.7099887471983805e-11 0.0000000000000000e+00  -1.3534914581652771e-11 -6.2117832451411683e-11 0.0000000000000000e+00  -5.1745730505103397e-12 -2.5432766163236375e-11 0.0000000000000000e+00  -8.4712167164540155e-12 -4.5587444857473348e-11 0.0000000000000000e+00  -1.1469294414194171e-11 -2.9536130143006588e-11 0.0000000000000000e+00  -6.7479582298372731e-12 -2.3580959818607996e-11 0.0000000000000000e+00  -1.1485228195814200e-11 -1.5175643982664736e-11 0.0000000000000000e+00  -6.9028268370440051e-12 -7.2306962681169382e-12 0.0000000000000000e+00  -1.2564281292077280e-11 4.7209865387986781e-12 0.0000000000000000e+00  -5.0899915325736433e-12 5.4440401170268105e-12 0.0000000000000000e+00  -8.8179403028615215e-12 2.5446742137634007e-11 0.0000000000000000e+00  -8.7328324453654866e-12 2.6283218486252751e-11 0.0000000000000000e+00  -6.3895969135520748e-12 4.0120535433373595e-11 0.0000000000000000e+00  -8.0125110037945282e-12 4.6164816732374289e-11 0.0000000000000000e+00  -5.9044692675272020e-12 5.7291684498035430e-11 0.0000000000000000e+00  -7.2991992431987399e-12 6.8210604303642728e-11 0.0000000000000000e+00  -5.6206756501532455e-12 7.8080889156931445e-11 0.0000000000000000e+00  -7.4215472577483769e-12 1.0778701228931965e-10 0.0000000000000000e+00  -3.1943875974824002e-12 5.0895352682608349e-11 0.0000000000000000e+00  -5.7071571184107996e-12 1.2766960231396568e-10 0.0000000000000000e+00  -4.9380763859906517e-12 1.1968032918812628e-10 0.0000000000000000e+00  -4.1611669117680934e-12 1.3731736128371079e-10 0.0000000000000000e+00  -4.1028132290601952e-12 1.4147998537713371e-10 0.0000000000000000e+00  -3.5315464714867182e-12 1.5613499100824024e-10 0.0000000000000000e+00  -3.2743986732856661e-12 1.6594693442042949e-10 0.0000000000000000e+00  -2.9855678123285669e-12 1.7586307657546993e-10 0.0000000000000000e+00  -2.6675790079501226e-12 1.8909703142941691e-10 0.0000000000000000e+00  -2.4790399487848081e-12 2.0068968800183992e-10 0.0000000000000000e+00  -2.2936755162199405e-12 2.0949183229783392e-10 0.0000000000000000e+00  -2.0837055247861121e-12 2.2910561850216852e-10 0.0000000000000000e+00  -2.0427730471219595e-12 2.3911284333714381e-10 0.0000000000000000e+00  -2.0109789408582711e-12 2.5645163752560769e-10 0.0000000000000000e+00  -2.0527286704738082e-12 2.7092603373804130e-10 0.0000000000000000e+00  -2.1600664638144276e-12 2.8911152209801701e-10 0.0000000000000000e+00  -2.4695735113335812e-12 3.1431137807276944e-10 0.0000000000000000e+00  -2.7165718078011289e-12 3.3609427305245499e-10 0.0000000000000000e+00  -4.1586041010824987e-12 4.0503037985898663e-10 0.0000000000000000e+00  -2.7636243394098065e-12 2.0236804300840804e-10 0.0000000000000000e+00  -6.7030475937355609e-12 5.0024244132250963e-10 0.0000000000000000e+00  -8.8009585935974351e-12 5.3495461749103858e-10 0.0000000000000000e+00  -1.2716697725021785e-11 5.1184483173908052e-10 0.0000000000000000e+00  2.1585184597666888e-11 8.1452272229737536e-10 0.0000000000000000e+00  1.2406790703838641e-11 6.0954295239148829e-10 0.0000000000000000e+00  3.2450907821833667e-11 8.2949874731267247e-10 0.0000000000000000e+00  2.4607416540463114e-11 7.3266759256881263e-10 0.0000000000000000e+00  4.8450498945823278e-11 5.6329206457598786e-10 0.0000000000000000e+00  3.4035274700112712e-11 4.6508118229168625e-10 0.0000000000000000e+00  3.8111502620883034e-11 5.1048191401004713e-10 0.0000000000000000e+00  1.6097128681172873e-11 2.0719824175074742e-10 0.0000000000000000e+00  3.1337443081889313e-11 4.0773018048199589e-10 0.0000000000000000e+00  2.3467555685152708e-11 3.0089197551770028e-10 0.0000000000000000e+00  2.3260212703459537e-11 2.9096606435148546e-10 0.0000000000000000e+00  2.2244284659344435e-11 2.7020875366963904e-10 0.0000000000000000e+00  2.1440289429617336e-11 2.5348168131038124e-10 0.0000000000000000e+00  2.0830847152699491e-11 2.3682753173748937e-10 0.0000000000000000e+00  2.0289184371689585e-11 2.2370636486729664e-10 0.0000000000000000e+00  1.9908337689393585e-11 2.1063625227358969e-10 0.0000000000000000e+00  1.9526805627543121e-11 1.9918676822735662e-10 0.0000000000000000e+00  1.9210729661300825e-11 1.8745416328724226e-10 0.0000000000000000e+00  1.8975500012833651e-11 1.7707297367486235e-10 0.0000000000000000e+00  1.8645310228094374e-11 1.6550591450403993e-10 0.0000000000000000e+00  1.8554508220103010e-11 1.5573017592963269e-10 0.0000000000000000e+00  1.8206552455330083e-11 1.4577043880129427e-10 0.0000000000000000e+00  1.8301064111846691e-11 1.3657567371400670e-10 0.0000000000000000e+00  1.7867204506427940e-11 1.2730519257808041e-10 0.0000000000000000e+00  1.7575023692538613e-11 1.1473637064878412e-10 0.0000000000000000e+00  2.0888611606918408e-11 1.2672037396755862e-10 0.0000000000000000e+00  1.0209367582907635e-11 5.6244370673290536e-11 0.0000000000000000e+00  2.2118232121465225e-11 1.1034363562668744e-10 0.0000000000000000e+00  1.8785879079918559e-11 8.9924959978722205e-11 0.0000000000000000e+00  1.9042090038755448e-11 7.5958615515146343e-11 0.0000000000000000e+00  1.8505605864732957e-11 7.0056321520016182e-11 0.0000000000000000e+00  1.8724522375982246e-11 5.4963475676049337e-11 0.0000000000000000e+00  1.7896738692989902e-11 4.8977165027028295e-11 0.0000000000000000e+00  1.8445650701759137e-11 3.4387583674329207e-11 0.0000000000000000e+00  1.8489465218164673e-11 3.1551730018794985e-11 0.0000000000000000e+00  8.9238862047130030e-12 7.7105623255338327e-12 0.0000000000000000e+00  2.0316557014453350e-11 1.0533225801133691e-11 0.0000000000000000e+00  1.5245574457335666e-11 -5.1208376243575049e-12 0.0000000000000000e+00  1.6313615043933691e-11 -1.1854269651933838e-11 0.0000000000000000e+00  1.3808979749366190e-11 -2.2146589791970178e-11 0.0000000000000000e+00  1.5520670079699884e-11 -3.0420035561027157e-11 0.0000000000000000e+00  1.1739710505558864e-11 -4.1772680708682011e-11 0.0000000000000000e+00  6.0280276200551219e-12 -2.3489883807780796e-11 0.0000000000000000e+00  1.4266708323397008e-11 -5.6846211835655278e-11 0.0000000000000000e+00  6.5799415273703733e-12 -5.7269123959604252e-11 0.0000000000000000e+00  8.3910753133230232e-12 -6.0057454556113243e-11 0.0000000000000000e+00  9.2460374571407802e-13 -5.6629845577113907e-11 0.0000000000000000e+00  2.3413297706953032e-12 -4.9340822155101881e-11 0.0000000000000000e+00  -7.5169672214834889e-12 -4.0386155133744629e-11 0.0000000000000000e+00  -4.1755211372269541e-13 -1.1686778376936817e-11 0.0000000000000000e+00  6.0677524182262184e-12 1.0320667061896203e-10 0.0000000000000000e+00  3.6273339260846611e-12 1.3074964873480224e-10 0.0000000000000000e+00  3.1750473107082589e-12 9.3586093599503863e-11 0.0000000000000000e+00  -2.3826179457282884e-13 -1.4774064286764149e-11 0.0000000000000000e+00  2.7877898384121000e-12 7.6736466119598529e-11 0.0000000000000000e+00  3.1193406583883158e-14 -1.4696504132533698e-11 0.0000000000000000e+00  2.6282695704409519e-12 6.7527109852015382e-11 0.0000000000000000e+00  4.6484629318978099e-13 -8.9456520219826038e-12 0.0000000000000000e+00  6.9207486444418128e-13 -4.3558536175678492e-12 0.0000000000000000e+00  2.4824512988096040e-12 5.9962359391772620e-11 0.0000000000000000e+00  1.2331781456554103e-12 8.5808834127706884e-12 0.0000000000000000e+00  2.2111670818347851e-12 4.7306503482631434e-11 0.0000000000000000e+00  9.3433020169068814e-13 3.4499848747261558e-13 0.0000000000000000e+00  1.3703862982079973e-12 1.3121229480472464e-11 0.0000000000000000e+00  2.0761682537849788e-12 4.1692788548989298e-11 0.0000000000000000e+00  2.3457757970658112e-12 5.3255807742015333e-11 0.0000000000000000e+00  1.5092698765297775e-12 1.8213376281139557e-11 0.0000000000000000e+00  1.9322965789905412e-12 3.6342147279492774e-11 0.0000000000000000e+00  1.7127964274208009e-12 2.4860200661940610e-11 0.0000000000000000e+00  1.8978452873275766e-12 3.2837516606332036e-11 0.0000000000000000e+00  -2.7688052441291424e-13 -2.9807660383382278e-12 0.0000000000000000e+00  -1.2333327814768601e-13 7.4701295306823024e-13 0.0000000000000000e+00  -5.2416541023709229e-13 -1.5586628908064889e-11 0.0000000000000000e+00  -6.5377547136051307e-14 2.6486467404413147e-12 0.0000000000000000e+00  -1.0227142225309298e-11 -1.0413227087173115e-10 0.0000000000000000e+00  -5.2933310148732850e-13 1.1861866552840620e-11 0.0000000000000000e+00  -5.5889847365205222e-12 -6.3766151423004149e-11 0.0000000000000000e+00  -5.8781964348984795e-12 -7.0926673987414292e-11 0.0000000000000000e+00  1.7624015583065186e-12 1.3243292211191615e-11 0.0000000000000000e+00  2.3623448263415579e-12 7.0154433391642799e-12 0.0000000000000000e+00  -4.8978136210828985e-12 -4.3802928286446834e-11 0.0000000000000000e+00  -5.2713945860660299e-12 -5.5887628526571010e-11 0.0000000000000000e+00  2.0312546885239799e-12 -7.0307989834975219e-12 0.0000000000000000e+00  -4.7747828818640271e-12 -3.8418480876610564e-11 0.0000000000000000e+00  2.4695775179790677e-12 3.6814890124338968e-12 0.0000000000000000e+00  1.9310561923788957e-12 -1.1320272495707742e-11 0.0000000000000000e+00  -4.6805763505453198e-12 -3.3560000558055369e-11 0.0000000000000000e+00  -5.0559658709922453e-12 -4.9525883797564203e-11 0.0000000000000000e+00  1.6954278277303068e-12 -1.4974819047236954e-11 0.0000000000000000e+00  -4.4850586542615581e-12 -2.8326299464269294e-11 0.0000000000000000e+00  -4.9719145532416786e-13 4.2588943049045807e-12 0.0000000000000000e+00  8.6384160599843117e-13 3.0912293556183670e-12 0.0000000000000000e+00  -2.5439138728545065e-11 -1.7157139988067767e-11 0.0000000000000000e+00  1.1220428948916960e-12 1.2959307352550599e-11 0.0000000000000000e+00  -5.0782006137423177e-12 -2.397715331576