<?xml version="1.0"?>
<VTKFile type="UnstructuredGrid"  version="0.1"  >
<UnstructuredGrid>
<Piece  NumberOfPoints="1419" NumberOfCells="2698">
<Points>
<DataArray  type="Float64"  NumberOfComponents="3"  format="ascii">0 0 0  0 0.41 0  2.5 0 0  2.5 0.41 0  0.6 0.19 0  0.6 0.21 0  0.25 0.2 0  0.15 0.2 0  0.2489897948556636 0.21 0  0.2489897948556636 0.19 0  0.6 0.2 0  0 0.3807142857143437 0  0 0.3514285714286952 0  0 0.3221428571430699 0  0 0.29285714285744 0  0 0.2635714285718054 0  0 0.2342857142861561 0  0 0.2050000000005308 0  0 0.175714285714732 0  0 0.1464285714289574 0  0 0.1171428571431897 0  0 0.08785714285737878 0  0 0.05857142857161107 0  0 0.02928571428580012 0  0.03015443760436003 0 0  0.06140001986583606 0 0  0.09377624077125973 0 0  0.1273239957535082 0 0  0.1620856860351972 0 0  0.1981052433264291 0 0  0.235428184091502 0 0  0.2741016576309132 0 0  0.3141745521465447 0 0  0.3556974926295285 0 0  0.3987229542472677 0 0  0.4433053055141081 0 0  0.4895008759286886 0 0  0.5373680609405097 0 0  0.5869673343216626 0 0  0.6383613676634521 0 0  0.6916151138468254 0 0  0.7467958595648856 0 0  0.8039733463919316 0 0  0.8632198139502143 0 0  0.9246101326867038 0 0  0.9882218810934433 0 0  1.054135445558498 0 0  1.122434100542598 0 0  1.193204177141305 0 0  1.266535089879536 0 0  1.342519516046404 0 0  1.421253448503939 0 0  1.502836389106271 0 0  1.587371439758838 0 0  1.674965418777374 0 0  1.765729001825544 0 0  1.859776908880082 0 0  1.957227977487062 0 0  2.058205329869943 0 0  2.162836591189951 0 0  2.271253957290865 0 0  2.383594446803425 0 0  2.5 0.1024999999997612 0  2.5 0.2049999999994743 0  2.5 0.3074999999997183 0  2.383594446803656 0.41 0  2.271253957291315 0.41 0  2.162836591190598 0.41 0  2.058205329870775 0.41 0  1.957227977488067 0.41 0  1.859776908881246 0.41 0  1.765729001826854 0.41 0  1.674965418778818 0.41 0  1.58737143976041 0.41 0  1.502836389107956 0.41 0  1.421253448505726 0.41 0  1.342519516048286 0.41 0  1.266535089881505 0.41 0  1.193204177143353 0.41 0  1.122434100544716 0.41 0  1.05413544556068 0.41 0  0.9882218810956305 0.41 0  0.9246101326886647 0.41 0  0.8632198139519631 0.41 0  0.8039733463934788 0.41 0  0.7467958595662458 0.41 0  0.6916151138480078 0.41 0  0.6383613676644679 0.41 0  0.5869673343225223 0.41 0  0.5373680609412221 0.41 0  0.4895008759292634 0.41 0  0.4433053055145528 0.41 0  0.3987229542475914 0.41 0  0.3556974926297398 0.41 0  0.3141745521466497 0.41 0  0.2741016576310038 0.41 0  0.2354281840915826 0.41 0  0.1981052433265003 0.41 0  0.1620856860352591 0.41 0  0.1273239957535623 0.41 0  0.09377624077128965 0.41 0  0.06140001986584975 0.41 0  0.03015443760436654 0.41 0  0.2497468076502589 0.2050254481002335 0  0.2497468076502614 0.1949745518997913 0  0.2469965252529372 0.1829317073451959 0  0.2439893735792749 0.1762316384219906 0  0.2400332147834255 0.1700443375285386 0  0.2352133972704371 0.1645032867342007 0  0.2296339016332438 0.1597280261969788 0  0.2234150974217223 0.1558215752574715 0  0.2166911463437691 0.1528682099456123 0  0.2096071079204251 0.1509316448471593 0  0.2023158100364996 0.1500536585536553 0  0.194974551899914 0.1502531923497262 0  0.1877417105387872 0.1515259415822739 0  0.1807733240461124 0.153844448527136 0  0.1742197252835808 0.15715869474974 0  0.1682222986673531 0.1613971801805478 0  0.162910430003803 0.1664684656256651 0  0.1583987151779087 0.1722631454351573 0  0.1547844879126891 0.178656207771761 0  0.1521457199348551 0.1855097315605723 0  0.1505393388476355 0.1926758619366523 0  0.1505393388476328 0.2073241380633295 0  0.1521457199348437 0.2144902684393899 0  0.1547844879126531 0.221343792228163 0  0.1583987151778488 0.2277368545647528 0  0.1629104300036858 0.2335315343742052 0  0.1682222986671726 0.2386028198193036 0  0.1742197252833576 0.2428413052501257 0  0.1807733240458683 0.2461555514727623 0  0.1877417105384929 0.2484740584176516 0  0.1949745518995776 0.2497468076502398 0  0.202315810036185 0.2499463414463592 0  0.2096071079201568 0.2490683551528932 0  0.2166911463435495 0.2471317900544655 0  0.2234150974215506 0.2441784247426195 0  0.2296339016331197 0.2402719738031125 0  0.2352133972703547 0.2354967132658811 0  0.2400332147833751 0.2299556624715287 0  0.2439893735792577 0.2237683615780412 0  0.246996525252926 0.2170682926548348 0  0.25645809709277 0.21 0  0.2639263993298655 0.21 0  0.271394701566961 0.21 0  0.2788630038040554 0.21 0  0.2863313060411479 0.21 0  0.2937996082782405 0.21 0  0.301267910515333 0.21 0  0.3087362127524279 0.21 0  0.3162045149895234 0.21 0  0.3236728172265972 0.21 0  0.3311411194636928 0.21 0  0.3386094217007701 0.21 0  0.3460777239378666 0.21 0  0.3535460261749672 0.21 0  0.3610143284120516 0.21 0  0.3684826306491596 0.21 0  0.3759509328862226 0.21 0  0.383419235123329 0.21 0  0.3908875373604028 0.21 0  0.3983558395975142 0.21 0  0.4058241418345938 0.21 0  0.4132924440716992 0.21 0  0.4207607463087888 0.21 0  0.4282290485459029 0.21 0  0.4356973507830418 0.21 0  0.4431656530201649 0.21 0  0.4506339552573136 0.21 0  0.4581022574944306 0.21 0  0.4655705597315852 0.21 0  0.4730388619686996 0.21 0  0.480507164205851 0.21 0  0.4879754664429498 0.21 0  0.4954437686800938 0.21 0  0.502912070917267 0.21 0  0.5103803731544119 0.21 0  0.5178486753915261 0.21 0  0.5253169776286404 0.21 0  0.5327852798657868 0.21 0  0.5402535821029386 0.21 0  0.54772188434007 0.21 0  0.5551901865771842 0.21 0  0.5626584888143201 0.21 0  0.5701267910514778 0.21 0  0.5775950932886138 0.21 0  0.5850633955257281 0.21 0  0.5925316977628483 0.21 0  0.6 0.2050000000000054 0  0.6 0.1950000000000217 0  0.5925316977628897 0.19 0  0.5850633955257988 0.19 0  0.5775950932887378 0.19 0  0.5701267910515998 0.19 0  0.5626584888145268 0.19 0  0.5551901865773963 0.19 0  0.547721884340339 0.19 0  0.5402535821032429 0.19 0  0.5327852798661811 0.19 0  0.5253169776290537 0.19 0  0.5178486753919799 0.19 0  0.5103803731549078 0.19 0  0.502912070917822 0.19 0  0.4954437686807294 0.19 0  0.4879754664436223 0.19 0  0.4805071642065402 0.19 0  0.4730388619694271 0.19 0  0.4655705597323621 0.19 0  0.4581022574952563 0.19 0  0.4506339552581777 0.19 0  0.4431656530210671 0.19 0  0.4356973507839815 0.19 0  0.4282290485468779 0.19 0  0.4207607463097617 0.19 0  0.4132924440726327 0.19 0  0.4058241418354857 0.19 0  0.3983558395983636 0.19 0  0.3908875373612097 0.19 0  0.3834192351240934 0.19 0  0.3759509328869369 0.19 0  0.3684826306498175 0.19 0  0.361014328412667 0.19 0  0.3535460261755617 0.19 0  0.3460777239384295 0.19 0  0.3386094217012945 0.19 0  0.3311411194641595 0.19 0  0.3236728172270245 0.19 0  0.3162045149898895 0.19 0  0.3087362127527544 0.19 0  0.3012679105156187 0.19 0  0.2937996082784807 0.19 0  0.2863313060413428 0.19 0  0.2788630038042048 0.19 0  0.2713947015670686 0.19 0  0.2639263993299336 0.19 0  0.2564580970927985 0.19 0  0.2607803159922026 0.2000727136295815 0  0.5887803774232762 0.2001272386983733 0  0.5745072403740523 0.2002044435018727 0  0.5511891430099709 0.2001122610077113 0  0.2751288526855082 0.20000000000002 0  0.5365194309847112 0.1999999999999436 0  0.2894621222999649 0.1998691686390484 0  0.5215828265105155 0.1999999999999228 0  0.3127789816668748 0.1998657885438805 0  0.3274069683451451 0.2000000000000796 0  0.5066462220363641 0.199999999999908 0  0.3650630746574081 0.199866017807523 0  0.476773013087985 0.1999999999998713 0  0.3417402379596385 0.1998691686391011 0  0.3796850840047755 0.200000000000134 0  0.4618364086138087 0.1999999999998546 0  0.4917096175621762 0.1999999999998808 0  0.3946216884789568 0.2000000000001512 0  0.446899804139621 0.1999999999998389 0  0.4089549580935208 0.1998691686391595 0  0.4322718174608562 0.200127451265745 0  0.4201487168029707 0.1999966199048527 0  0.3528922713220932 0.2000185703532356 0  0.5633122436674589 0.1999814296467508 0  0.3006558810093873 0.1999966199048318 0  0.5815926498168407 0.1966545283159175 0  0.2677053789419034 0.1964246479135325 0  0.5290511287476175 0.1970915826863981 0  0.5439877332217911 0.197091582686394 0  0.2825131256993216 0.2035478995978015 0  0.3199386661080599 0.202908417313604 0  0.4842413153250809 0.1970915826863873 0  0.5141145242734466 0.1970915826863843 0  0.3722167817676917 0.2029084173136195 0  0.4693047108508938 0.1970915826863783 0  0.3348752705822316 0.202908417313609 0  0.3871533862418661 0.2029084173136212 0  0.4543681063767183 0.1970915826863795 0  0.4991779197992749 0.1970915826863902 0  0.4020059614928624 0.203547899597858 0  0.4394315019025246 0.1970915826863714 0  0.2550657455369551 0.2034088125358657 0  0.2548908499171161 0.1966940311614271 0  0.5946539510196798 0.2024302972968126 0  0.267698176732111 0.2039977513680092 0  0.4261685417851465 0.196409292431739 0  0.3590076176283495 0.196411355804271 0  0.5571672426447437 0.2036011176410121 0  0.3066757059912147 0.1964092924317024 0  0.594380730180568 0.1966558399668133 0  0.4842413153245942 0.2040749161535287 0  0.4693047108503577 0.2040749161535231 0  0.3871533862424271 0.1959250838464788 0  0.372246743208829 0.1959123236376545 0  0.5141145242731028 0.2040749161535395 0  0.4543681063761134 0.2040749161535186 0  0.4019979587101454 0.1959834479682427 0  0.4394608940728603 0.2040870543693135 0  0.5439623148931173 0.2040856076781014 0  0.5290511287473298 0.2040749161535501 0  0.4991779197988497 0.2040749161535382 0  0.3347912413592433 0.1959225448935183 0  0.3199680582793816 0.1959123018030061 0  0.2825051229162361 0.1959834479681729 0  0.3590471196690275 0.2036304442587945 0  0.5571594006495384 0.1963685282145804 0  0.3067669986803285 0.203627750582736 0  0.4262598344738712 0.2036568242185335 0  0.5814408164431408 0.2041285596160068 0  0.5688286748170428 0.1961819304477386 0  0.4145905603063645 0.2038180695522843 0  0.3473758401724931 0.2038180695522752 0  0.2950977245128307 0.2038180695522663 0  0.5688286748170693 0.203818069552238 0  0.2950977245127906 0.1961819304477774 0  0.3473758401723931 0.1961819304478349 0  0.4145905603061963 0.1961819304479011 0  0.2601812407614425 0.2056861609747042
[...]
<PointData  Vectors="f_40-0"> 
<DataArray  type="Float64"  Name="f_40-0"  NumberOfComponents="3" format="ascii">0.0000000000000000e+00 0.0000000000000000e+00 0.0000000000000000e+00  0.0000000000000000e+00 0.0000000000000000e+00 0.0000000000000000e+00  0.0000000000000000e+00 0.0000000000000000e+00 0.0000000000000000e+00  0.0000000000000000e+00 0.0000000000000000e+00 0.0000000000000000e+00  4.4117768862070332e-07 1.4352640806119279e-05 0.0000000000000000e+00  -5.5735219970006297e-07 1.4350087047595370e-05 0.0000000000000000e+00  0.0000000000000000e+00 0.0000000000000000e+00 0.0000000000000000e+00  0.0000000000000000e+00 0.0000000000000000e+00 0.0000000000000000e+00  0.0000000000000000e+00 0.0000000000000000e+00 0.0000000000000000e+00  0.0000000000000000e+00 0.0000000000000000e+00 0.0000000000000000e+00  -5.7784186351408244e-08 1.4345748219334471e-05 0.0000000000000000e+00  7.9591836734548407e-02 0.0000000000000000e+00 0.0000000000000000e+00  1.4693877550994527e-01 0.0000000000000000e+00 0.0000000000000000e+00  2.0204081632617479e-01 0.0000000000000000e+00 0.0000000000000000e+00  2.4489795918330076e-01 0.0000000000000000e+00 0.0000000000000000e+00  2.7551020408131754e-01 0.0000000000000000e+00 0.0000000000000000e+00  2.9387755102022350e-01 0.0000000000000000e+00 0.0000000000000000e+00  3.0000000000000004e-01 0.0000000000000000e+00 0.0000000000000000e+00  2.9387755102059482e-01 0.0000000000000000e+00 0.0000000000000000e+00  2.7551020408195548e-01 0.0000000000000000e+00 0.0000000000000000e+00  2.4489795918409071e-01 0.0000000000000000e+00 0.0000000000000000e+00  2.0204081632692525e-01 0.0000000000000000e+00 0.0000000000000000e+00  1.4693877551058568e-01 0.0000000000000000e+00 0.0000000000000000e+00  7.9591836734909230e-02 0.0000000000000000e+00 0.0000000000000000e+00  0.0000000000000000e+00 0.0000000000000000e+00 0.0000000000000000e+00  0.0000000000000000e+00 0.0000000000000000e+00 0.0000000000000000e+00  0.0000000000000000e+00 0.0000000000000000e+00 0.0000000000000000e+00  0.0000000000000000e+00 0.0000000000000000e+00 0.0000000000000000e+00  0.0000000000000000e+00 0.0000000000000000e+00 0.0000000000000000e+00  0.0000000000000000e+00 0.0000000000000000e+00 0.0000000000000000e+00  0.0000000000000000e+00 0.0000000000000000e+00 0.0000000000000000e+00  0.0000000000000000e+00 0.0000000000000000e+00 0.0000000000000000e+00  0.0000000000000000e+00 0.0000000000000000e+00 0.0000000000000000e+00  0.0000000000000000e+00 0.0000000000000000e+00 0.0000000000000000e+00  0.0000000000000000e+00 0.0000000000000000e+00 0.0000000000000000e+00  0.0000000000000000e+00 0.0000000000000000e+00 0.0000000000000000e+00  0.0000000000000000e+00 0.0000000000000000e+00 0.0000000000000000e+00  0.0000000000000000e+00 0.0000000000000000e+00 0.0000000000000000e+00  0.0000000000000000e+00 0.0000000000000000e+00 0.0000000000000000e+00  0.0000000000000000e+00 0.0000000000000000e+00 0.0000000000000000e+00  0.0000000000000000e+00 0.0000000000000000e+00 0.0000000000000000e+00  0.0000000000000000e+00 0.0000000000000000e+00 0.0000000000000000e+00  0.0000000000000000e+00 0.0000000000000000e+00 0.0000000000000000e+00  0.0000000000000000e+00 0.0000000000000000e+00 0.0000000000000000e+00  0.0000000000000000e+00 0.0000000000000000e+00 0.0000000000000000e+00  0.0000000000000000e+00 0.0000000000000000e+00 0.0000000000000000e+00  0.0000000000000000e+00 0.0000000000000000e+00 0.0000000000000000e+00  0.0000000000000000e+00 0.0000000000000000e+00 0.0000000000000000e+00  0.0000000000000000e+00 0.0000000000000000e+00 0.0000000000000000e+00  0.0000000000000000e+00 0.0000000000000000e+00 0.0000000000000000e+00  0.0000000000000000e+00 0.0000000000000000e+00 0.0000000000000000e+00  0.0000000000000000e+00 0.0000000000000000e+00 0.0000000000000000e+00  0.0000000000000000e+00 0.0000000000000000e+00 0.0000000000000000e+00  0.0000000000000000e+00 0.0000000000000000e+00 0.0000000000000000e+00  0.0000000000000000e+00 0.0000000000000000e+00 0.0000000000000000e+00  0.0000000000000000e+00 0.0000000000000000e+00 0.0000000000000000e+00  0.0000000000000000e+00 0.0000000000000000e+00 0.0000000000000000e+00  0.0000000000000000e+00 0.0000000000000000e+00 0.0000000000000000e+00  0.0000000000000000e+00 0.0000000000000000e+00 0.0000000000000000e+00  0.0000000000000000e+00 0.0000000000000000e+00 0.0000000000000000e+00  0.0000000000000000e+00 0.0000000000000000e+00 0.0000000000000000e+00  0.0000000000000000e+00 0.0000000000000000e+00 0.0000000000000000e+00  2.3174228562935062e-01 -4.6918219968896105e-03 0.0000000000000000e+00  3.1416397813410318e-01 1.4000818352863089e-03 0.0000000000000000e+00  2.3522144870096109e-01 1.3725128968418590e-02 0.0000000000000000e+00  0.0000000000000000e+00 0.0000000000000000e+00 0.0000000000000000e+00  0.0000000000000000e+00 0.0000000000000000e+00 0.0000000000000000e+00  0.0000000000000000e+00 0.0000000000000000e+00 0.0000000000000000e+00  0.0000000000000000e+00 0.0000000000000000e+00 0.0000000000000000e+00  0.0000000000000000e+00 0.0000000000000000e+00 0.0000000000000000e+00  0.0000000000000000e+00 0.0000000000000000e+00 0.0000000000000000e+00  0.0000000000000000e+00 0.0000000000000000e+00 0.0000000000000000e+00  0.0000000000000000e+00 0.0000000000000000e+00 0.0000000000000000e+00  0.0000000000000000e+00 0.0000000000000000e+00 0.0000000000000000e+00  0.0000000000000000e+00 0.0000000000000000e+00 0.0000000000000000e+00  0.0000000000000000e+00 0.0000000000000000e+00 0.0000000000000000e+00  0.0000000000000000e+00 0.0000000000000000e+00 0.0000000000000000e+00  0.0000000000000000e+00 0.0000000000000000e+00 0.0000000000000000e+00  0.0000000000000000e+00 0.0000000000000000e+00 0.0000000000000000e+00  0.0000000000000000e+00 0.0000000000000000e+00 0.0000000000000000e+00  0.0000000000000000e+00 0.0000000000000000e+00 0.0000000000000000e+00  0.0000000000000000e+00 0.0000000000000000e+00 0.0000000000000000e+00  0.0000000000000000e+00 0.0000000000000000e+00 0.0000000000000000e+00  0.0000000000000000e+00 0.0000000000000000e+00 0.0000000000000000e+00  0.0000000000000000e+00 0.0000000000000000e+00 0.0000000000000000e+00  0.0000000000000000e+00 0.0000000000000000e+00 0.0000000000000000e+00  0.0000000000000000e+00 0.0000000000000000e+00 0.0000000000000000e+00  0.0000000000000000e+00 0.0000000000000000e+00 0.0000000000000000e+00  0.0000000000000000e+00 0.0000000000000000e+00 0.0000000000000000e+00  0.0000000000000000e+00 0.0000000000000000e+00 0.0000000000000000e+00  0.0000000000000000e+00 0.0000000000000000e+00 0.0000000000000000e+00  0.0000000000000000e+00 0.0000000000000000e+00 0.0000000000000000e+00  0.0000000000000000e+00 0.0000000000000000e+00 0.0000000000000000e+00  0.0000000000000000e+00 0.0000000000000000e+00 0.0000000000000000e+00  0.0000000000000000e+00 0.0000000000000000e+00 0.0000000000000000e+00  0.0000000000000000e+00 0.0000000000000000e+00 0.0000000000000000e+00  0.0000000000000000e+00 0.0000000000000000e+00 0.0000000000000000e+00  0.0000000000000000e+00 0.0000000000000000e+00 0.0000000000000000e+00  0.0000000000000000e+00 0.0000000000000000e+00 0.0000000000000000e+00  0.0000000000000000e+00 0.0000000000000000e+00 0.0000000000000000e+00  0.0000000000000000e+00 0.0000000000000000e+00 0.0000000000000000e+00  0.0000000000000000e+00 0.0000000000000000e+00 0.0000000000000000e+00  0.0000000000000000e+00 0.0000000000000000e+00 0.0000000000000000e+00  0.0000000000000000e+00 0.0000000000000000e+00 0.0000000000000000e+00  0.0000000000000000e+00 0.0000000000000000e+00 0.0000000000000000e+00  0.0000000000000000e+00 0.0000000000000000e+00 0.0000000000000000e+00  0.0000000000000000e+00 0.0000000000000000e+00 0.0000000000000000e+00  0.0000000000000000e+00 0.0000000000000000e+00 0.0000000000000000e+00  0.0000000000000000e+00 0.0000000000000000e+00 0.0000000000000000e+00  0.0000000000000000e+00 0.0000000000000000e+00 0.0000000000000000e+00  0.0000000000000000e+00 0.0000000000000000e+00 0.0000000000000000e+00  0.0000000000000000e+00 0.0000000000000000e+00 0.0000000000000000e+00  0.0000000000000000e+00 0.0000000000000000e+00 0.0000000000000000e+00  0.0000000000000000e+00 0.0000000000000000e+00 0.0000000000000000e+00  0.0000000000000000e+00 0.0000000000000000e+00 0.0000000000000000e+00  0.0000000000000000e+00 0.0000000000000000e+00 0.0000000000000000e+00  0.0000000000000000e+00 0.0000000000000000e+00 0.0000000000000000e+00  0.0000000000000000e+00 0.0000000000000000e+00 0.0000000000000000e+00  0.0000000000000000e+00 0.0000000000000000e+00 0.0000000000000000e+00  0.0000000000000000e+00 0.0000000000000000e+00 0.0000000000000000e+00  0.0000000000000000e+00 0.0000000000000000e+00 0.0000000000000000e+00  0.0000000000000000e+00 0.0000000000000000e+00 0.0000000000000000e+00  0.0000000000000000e+00 0.0000000000000000e+00 0.0000000000000000e+00  0.0000000000000000e+00 0.0000000000000000e+00 0.0000000000000000e+00  0.0000000000000000e+00 0.0000000000000000e+00 0.0000000000000000e+00  0.0000000000000000e+00 0.0000000000000000e+00 0.0000000000000000e+00  0.0000000000000000e+00 0.0000000000000000e+00 0.0000000000000000e+00  0.0000000000000000e+00 0.0000000000000000e+00 0.0000000000000000e+00  0.0000000000000000e+00 0.0000000000000000e+00 0.0000000000000000e+00  0.0000000000000000e+00 0.0000000000000000e+00 0.0000000000000000e+00  0.0000000000000000e+00 0.0000000000000000e+00 0.0000000000000000e+00  0.0000000000000000e+00 0.0000000000000000e+00 0.0000000000000000e+00  0.0000000000000000e+00 0.0000000000000000e+00 0.0000000000000000e+00  0.0000000000000000e+00 0.0000000000000000e+00 0.0000000000000000e+00  0.0000000000000000e+00 0.0000000000000000e+00 0.0000000000000000e+00  0.0000000000000000e+00 0.0000000000000000e+00 0.0000000000000000e+00  0.0000000000000000e+00 0.0000000000000000e+00 0.0000000000000000e+00  0.0000000000000000e+00 0.0000000000000000e+00 0.0000000000000000e+00  0.0000000000000000e+00 0.0000000000000000e+00 0.0000000000000000e+00  0.0000000000000000e+00 0.0000000000000000e+00 0.0000000000000000e+00  0.0000000000000000e+00 0.0000000000000000e+00 0.0000000000000000e+00  0.0000000000000000e+00 0.0000000000000000e+00 0.0000000000000000e+00  0.0000000000000000e+00 0.0000000000000000e+00 0.0000000000000000e+00  -4.1279518619269488e-08 3.5482048134469076e-08 0.0000000000000000e+00  -8.6517793399221767e-08 8.6584572968484899e-08 0.0000000000000000e+00  -1.2478416071767073e-07 1.6737587696046170e-07 0.0000000000000000e+00  -1.6475249918555824e-07 2.7920313382364663e-07 0.0000000000000000e+00  -1.9675392312715574e-07 4.1520740241063371e-07 0.0000000000000000e+00  -2.3181392359421823e-07 5.7734864634442438e-07 0.0000000000000000e+00  -2.5886292629271495e-07 7.5789138063391580e-07 0.0000000000000000e+00  -2.8408927105455554e-07 9.6184219233899826e-07 0.0000000000000000e+00  -3.1216974589410474e-07 1.1828252084738877e-06 0.0000000000000000e+00  -3.3248817063254654e-07 1.4207178208195038e-06 0.0000000000000000e+00  -3.5646605258858301e-07 1.6747639563672681e-06 0.0000000000000000e+00  -3.7358830000008277e-07 1.9427076574761754e-06 0.0000000000000000e+00  -3.9301963167781333e-07 2.2236968484738561e-06 0.0000000000000000e+00  -4.0776946689168606e-07 2.5146725139065471e-06 0.0000000000000000e+00  -4.2141820057002020e-07 2.8175386180693405e-06 0.0000000000000000e+00  -4.3625418873751366e-07 3.1288433655263519e-06 0.0000000000000000e+00  -4.4698315537648529e-07 3.4484252298573098e-06 0.0000000000000000e+00  -4.5921461657356699e-07 3.7757591783550714e-06 0.0000000000000000e+00  -4.6795502293319082e-07 4.1094471498457207e-06 0.0000000000000000e+00  -4.7770734229150496e-07 4.4489687930688755e-06 0.0000000000000000e+00  -4.8512867049928595e-07 4.7935957519832457e-06 0.0000000000000000e+00  -4.9282446418124280e-07 5.1429632350723437e-06 0.0000000000000000e+00  -4.9879859648119029e-07 5.4954231756693693e-06 0.0000000000000000e+00  -5.0424722989304789e-07 5.8518996181278968e-06 0.0000000000000000e+00  -5.0981526562263049e-07 6.2107133256777344e-06 0.0000000000000000e+00  -5.1428811727300050e-07 6.5721723265395246e-06 0.0000000000000000e+00  -5.1849041278714988e-07 6.9357576789729340e-06 0.0000000000000000e+00  -5.2209322338648073e-07 7.3008827511955973e-06 0.0000000000000000e+00  -5.2545936460017808e-07 7.6675631082793028e-06 0.0000000000000000e+00  -5.2837780316423561e-07 8.0352656864335930e-06 0.0000000000000000e+00  -5.3109933434390279e-07 8.4040210693658272e-06 0.0000000000000000e+00  -5.3349311067805099e-07 8.7734049407203484e-06 0.0000000000000000e+00  -5.3572881761894893e-07 9.1434640001369310e-06 0.0000000000000000e+00  -5.3774117331192297e-07 9.5138949567640877e-06 0.0000000000000000e+00  -5.3963515566859109e-07 9.8847296916906688e-06 0.0000000000000000e+00  -5.4136747368335651e-07 1.0255761463943284e-05 0.0000000000000000e+00  -5.4303006056982005e-07 1.0627025337131761e-05 0.0000000000000000e+00  -5.4458021611388248e-07 1.0998396887524804e-05 0.0000000000000000e+00  -5.4608907689945372e-07 1.1369915035846157e-05 0.0000000000000000e+00  -5.4751810755298004e-07 1.1741476889169660e-05 0.0000000000000000e+00  -5.4891897531586818e-07 1.2113183692278457e-05 0.0000000000000000e+00  -5.5025276285359651e-07 1.2484671939820529e-05 0.0000000000000000e+00  -5.5156675349475780e-07 1.2856739936708241e-05 0.0000000000000000e+00  -5.5285843709941365e-07 1.3228589786527548e-05 0.0000000000000000e+00  -5.5411104965160759e-07 1.3600458119668537e-05 0.0000000000000000e+00  -5.5531724973947458e-07 1.3972778035213742e-05 0.0000000000000000e+00  -3.0703286234805682e-07 1.4345272181054609e-05 0.0000000000000000e+00  1.9127117236444043e-07 1.4346185500930400e-05 0.0000000000000000e+00  4.4123208144347820e-07 1.3974523899180969e-05 0.0000000000000000e+00  4.4226460617297156e-07 1.3602274831088163e-05 0.0000000000000000e+00  4.4326136603360327e-07 1.3230148527259223e-05 0.0000000000000000e+00  4.4433200093976851e-07 1.2858267672167354e-05 0.0000000000000000e+00  4.4540248723692832e-07 1.2486129630997255e-05 0.0000000000000000e+00  4.4656748590819888e-07 1.2114564363150769e-05 0.0000000000000000e+00  4.4768548632482410e-07 1.1742766233069776e-05 0.0000000000000000e+00  4.4888671448841321e-07 1.1371141744955529e-05 0.0000000000000000e+00  4.5002549381252882e-07 1.0999596787823424e-05 0.0000000000000000e+00  4.5122069802873795e-07 1.0628163338164694e-05 0.0000000000000000e+00  4.5231147787304180e-07 1.0256872805583932e-05 0.0000000000000000e+00  4.5342335575738768e-07 9.8857890573302690e-06 0.0000000000000000e+00  4.5434570307389925e-07 9.5149376435398908e-06 0.0000000000000000e+00  4.5527912328177634e-07 9.1444576532065412e-06 0.0000000000000000e+00  4.5589801026234287e-07 8.7743909674954196e-06 0.0000000000000000e+00  4.5654162376624305e-07 8.4049509551778702e-06 0.0000000000000000e+00  4.5668616193890970e-07 8.0361956524331067e-06 0.0000000000000000e+00  4.5690161272565047e-07 7.6684385735132911e-06 0.0000000000000000e+00  4.5635899315197369e-07 7.3017560664409067e-06 0.0000000000000000e+00  4.5598119065399881e-07 6.9365654109114645e-06 0.0000000000000000e+00  4.5450921399281236e-07 6.5729848636964248e-06 0.0000000000000000e+00  4.5331106129605142e-07 6.2115656451810547e-06 0.0000000000000000e+00  4.5069343040247376e-07 5.8525609079083118e-06 0.0000000000000000e+00  4.4825867113051143e-07 5.4961064214474986e-06 0.0000000000000000e+00  4.4524240740770065e-07 5.1436384555009993e-06 0.0000000000000000e+00  4.4063137157891864e-07 4.7941162615000213e-06 0.0000000000000000e+00  4.3586229263954195e-07 4.4496513765793999e-06 0.0000000000000000e+00  4.2955756757341018e-07 4.1097760432009184e-06 0.0000000000000000e+00  4.2289932795301027e-07 3.7761790948061760e-06 0.0000000000000000e+00  4.1445311444041740e-07 3.4486908861819387e-06 0.0000000000000000e+00  4.0558156567512684e-07 3.1287158824998820e-06 0.0000000000000000e+00  3.9357933217273603e-07 2.8178464240935203e-06 0.0000000000000000e+00  3.8258017666287970e-07 2.5147839405038684e-06 0.0000000000000000e+00  3.7031543884381091e-07 2.2239029411416540e-06 0.0000000000000000e+00  3.5399442350348518e-07 1.9419558477432314e-06 0.0000000000000000e+00  3.3765056417793048e-07 1.6744722085703183e-06 0.0000000000000000e+00  3.1800594476213153e-07 1.4201139564368509e-06 0.0000000000000000e+00  2.9800556479245725e-07 1.1814624041522885e-06 0.0000000000000000e+00  2.7227413625190443e-07 9.6139079298498462e-07 0.0000000000000000e+00  2.4893351325372303e-07 7.5704998172073711e-07 0.0000000000000000e+00  2.2372843816404448e-07 5.7643715800355384e-07 0.0000000000000000e+00  1.9093567232485070e-07 4.1346801675537928e-07 0.0000000000000000e+00  1.5952995050176371e-07 2.7696649968591609e-07 0.0000000000000000e+00  1.2070535884779331e-07 1.6652306593622466e-07 0.0000000000000000e+00  8.4611015960906539e-08 8.5254850855910557e-08 0.0000000000000000e+00  4.0502749147988652e-08 3.3777786741632380e-08 0.0000000000000000e+00  -1.0106495547536286e-09 3.8281265073907654e-08 0.0000000000000000e+00  -6.2646038858773958e-08 1.3786038765488830e-05 0.0000000000000000e+00  -6.4440906457656498e-08 1.3075168831296014e-05 0.0000000000000000e+00  -5.6047795708691858e-08 1.1914371069337138e-05 0.0000000000000000e+00  -1.8916001194315607e-09 2.0102145303177365e-07 0.0000000000000000e+00  -4.7896594928097261e-08 1.1184451483532670e-05 0.0000000000000000e+00  -8.3443813156690250e-10 4.6362425658781662e-07 0.0000000000000000e+00  -4.5179696441455342e-08 1.0441614885670325e-05 0.0000000000000000e+00  -2.3348183065180810e-09 1.0668699631808588e-06 0.0000000000000000e+00  -8.3533353902582094e-09 1.5360085562285758e-06 0.0000000000000000e+00  -4.2368965297404761e-08 9.6994073305920345e-06 0.0000000000000000e+00  -8.9923108033622396e-09 2.9792812390049156e-06 0.0000000000000000e+00  -3.6536191817201203e-08 8.2192794376244141e-06 0.0000000000000000e+00  -5.7503437634998934e-09 2.0504016960884786e-06 0.0000000000000000e+00  -1.7255903050188659e-08 3.6067270912718927e-06 0.0000000000000000e+00  -3.3549432098376673e-08 7.4834899676098791e-06 0.0000000000000000e+00  -3.9482758269295053e-08 8.9583429001414643e-06 0.0000000000000000e+00  -2.0103202607415320e-08 4.2750536890867133e-06 0.0000000000000000e+00  -3.0526891887792961e-08 6.7527561224043174e-06 0.0000000000000000e+00  -1.6815935945524885e-08 4.9368105783461061e-06 0.0000000000000000e+00  -3.3687194001048162e-08 6.0442824607341143e-06 0.0000000000000000e+00  -2.4988425010639371e-08 5.4649597619311630e-06 0.0000000000000000e+00  -1.3182496351194251e-08 2.4836527610298550e-06 0.0000000000000000e+00  -5.1541180702295983e-08 1.2517686959274952e-05 0.0000000000000000e+00  -4.5775990711305125e-09 7.3180534518112025e-07 0.0000000000000000e+00  1.1131528292754095e-07 1.3428111847063296e-05 0.0000000000000000e+00  3.6159384085538684e-08 1.0664945309444684e-07 0.0000000000000000e+00  9.8043027634725719e-08 1.0813036758748710e-05 0.0000000000000000e+00  9.5475428707496568e-08 1.1556070552462280e-05 0.0000000000000000e+00  -6.5016531319815777e-08 3.2804352417836046e-07 0.0000000000000000e+00  -9.9038466743396242e-08 1.2903003257877063e-06 0.0000000000000000e+00  1.0570344168151800e-07 8.5886107017976526e-06 0.0000000000000000e+00  1.0065207866466535e-07 1.0070481142593107e-05 0.0000000000000000e+00  -1.3973184461091242e-07 3.2831882430954907e-06 0.0000000000000000e+00  1.0796585604444081e-07 7.8510362512782293e-06 0.0000000000000000e+00  -1.1241902797472515e-07 1.7992252249717288e-06 0.0000000000000000e+00  -1.4792993255317058e-07 3.9383501571890999e-06 0.0000000000000000e+00  1.0990598465932175e-07 7.1175680036347431e-06 0.0000000000000000e+00  1.0323235037080534e-07 9.3287767751158577e-06 0.0000000000000000e+00  -1.8446009621400743e-07 4.6142298740814883e-06 0.0000000000000000e+00  1.1143433138179580e-07 6.3902593972866593e-06 0.0000000000000000e+00  -7.3140455129768630e-09 9.2593093987581204e-09 0.0000000000000000e+00  6.0702779871677073e-09 8.1722303035345635e-09 0.0000000000000000e+00  -1.7821826437435812e-07 1.4078364357469771e-05 0.0000000000000000e+00  -4.2929986318228713e-08 1.0728221284616127e-07 0.0000000000000000e+00  1.4483626348540331e-07 5.7518742271060711e-06 0.0000000000000000