<?xml version="1.0"?>
<VTKFile type="UnstructuredGrid"  version="0.1"  >
<UnstructuredGrid>
<Piece  NumberOfPoints="12904" NumberOfCells="25150">
<Points>
<DataArray  type="Float64"  NumberOfComponents="3"  format="ascii">0.4106659906458345 0.2261122099169786 0  0.4094420921709488 0.2247882390312327 0  0.4113611714873013 0.2249121269326565 0  0.4767292517923721 0.2179493359651582 0  0.4769933230534882 0.2165380291218802 0  0.4781977284121813 0.2176963300255137 0  0.1669415598167685 0.2508625944095396 0  0.1690276008797329 0.2506898255491546 0  0.1679121509395433 0.2495181003494772 0  0.2412925222073719 0.2584517967977127 0  0.2435673895298841 0.259252179301307 0  0.2416726089347383 0.2609511076394779 0  0.2670432643683117 0.2156441444913473 0  0.2682019013528437 0.2165061504297811 0  0.2667510812994577 0.2165723387298756 0  0.4098226601429638 0.2174773932861374 0  0.4084363739307094 0.2181677057743143 0  0.4082361785551184 0.2171121474340927 0  0.5249708864024948 0.2378341460563032 0  0.5223977201507227 0.2378841512790706 0  0.5227952108320463 0.2362202962321353 0  0.2329114507429539 0.2570364034768863 0  0.2352501654318755 0.2572024575680487 0  0.2342682611574755 0.2587853080488415 0  0.4215017383609879 0.2756470071848378 0  0.424881169979713 0.2733136594292959 0  0.4199482219049686 0.272202692742259 0  0.2577389194215733 0.2142159962736261 0  0.2576089918050395 0.2154128158272455 0  0.2566466202216188 0.214793392214627 0  0.2280095640896864 0.2623420122032176 0  0.2260336704780939 0.2607661243567345 0  0.2277987000789692 0.2598075596748799 0  0.3123112381494719 0.2145820475898375 0  0.3116795004782833 0.2158031861815391 0  0.3131601641442638 0.2155607611931404 0  0.5008184089032568 0.2262081020119376 0  0.5009654808243466 0.2285506814250233 0  0.5025415801921823 0.226887456612887 0  0.5328061829791764 0.2468853618249541 0  0.531895290531745 0.2437490537870071 0  0.5303225683591405 0.2460883098281815 0  0.5079560608507249 0.3155114656464611 0  0.5131187057551269 0.3146063431184849 0  0.5115307893535285 0.321813850952752 0  0.1685628697208003 0.2616730134588965 0  0.170587306755124 0.2639277637679867 0  0.1710550842525211 0.2616643952190948 0  0.2988382428183557 0.2564820451660887 0  0.298597711106723 0.2599547370996122 0  0.2959099945005583 0.257097416075849 0  0.1580845296934595 0.2272597386080923 0  0.1586347983728158 0.2280877214159924 0  0.1574134330265557 0.2282492852505344 0  0.1990686726718049 0.3107365852703104 0  0.1935215643464395 0.3097511343913013 0  0.1966246896811855 0.3069711986906429 0  0.3122799015088633 0.2121044667325907 0  0.3113678987315733 0.2113347431942665 0  0.3123112381494719 0.2107822933815543 0  0.3990781350588433 0.2487548931773709 0  0.4016287182948541 0.2509685079336 0  0.4017193160625566 0.2473964441429631 0  0.5118544774543603 0.3508996833295496 0  0.5035542347381889 0.3541436841196353 0  0.5080767638217086 0.3467358010779364 0  0.4833784750593174 0.2858846754331778 0  0.4782087833460015 0.2861264246073826 0  0.4814075629212346 0.2830282508293708 0  0.618751465465832 0.3909784093241057 0  0.6249512738545304 0.4009623331155278 0  0.626762818673077 0.3905536847322462 0  0.2499071818057848 0.2875988144832388 0  0.2538898185191403 0.2899362338731107 0  0.2539842489642836 0.285952054940701 0  0.1592014203900114 0.2289046000111994 0  0.159784171736428 0.2297100514485398 0  0.1586219792100965 0.2299775162988796 0  0.3132326800523121 0.2113317948604221 0  0.36069060570129 0.3358210050648937 0  0.3545864276352549 0.332874933349485 0  0.361143667713998 0.3304183325397708 0  0.1562000851901124 0.2475134160337875 0  0.1536445842671898 0.2483501077767317 0  0.1545952467019424 0.246118440491839 0  0.4878629963553264 0.2119723709231117 0  0.4868216423666085 0.2111631243772442 0  0.4868053946614423 0.2124457200743027 0  0.1348555545843869 0.2261597848414471 0  0.1349576217223588 0.2291600719040878 0  0.1365050714119459 0.2275206833896767 0  0.1655393298656293 0.3089922548454817 0  0.1650972684332096 0.3034937189377153 0  0.1687950885457164 0.3054985426890601 0  0.1378158672935789 0.2429642506098083 0  0.1351052369866991 0.2443868031379546 0  0.1359324161365293 0.2412812602460179 0  0.2130684586243691 0.2568604062301779 0  0.2115895540769879 0.2568577416235901 0  0.212066690695384 0.2583781003214262 0  0.3556600356452767 0.2704546511579604 0  0.3564758412750437 0.2750330304180995 0  0.3594392041984109 0.2726021750325008 0  0.4120300464162422 0.214079886948855 0  0.4127301577449086 0.2152258405217706 0  0.4111544605962849 0.2147979084445584 0  0.1727732565401626 0.2589900140304163 0  0.1703887872162385 0.2596239952381006 0  0.172640774041795 0.2608008538108323 0  0.3878987644930755 0.2191534719182276 0  0.3892463243835169 0.2182014684294604 0  0.3880015642472239 0.217829231407041 0  0.2601189667122662 0.2414481800380551 0  0.2605210011726623 0.2436354116298908 0  0.2620765054051518 0.2416916394224097 0  0.2015826238323081 0.2531452802109966 0  0.2015615809833063 0.2516962723781233 0  0.200529331749639 0.2522387652393532 0  0.3571847018695109 0.2122439626156093 0  0.3578289330132357 0.2112394297052197 0  0.3569999374590099 0.2108470019998866 0  0.3562444053149074 0.21134138817961 0  0.2790345959685643 0.2158236445766062 0  0.2775441548414834 0.2156176559943822 0  0.2781624496604421 0.2147082751053487 0  0.1513670151241911 0.2210736104323935 0  0.1525549823070883 0.2204673285175579 0  0.1524878401548006 0.2214536346647134 0  0.2130734131332966 0.2840443384404397 0  0.2103621624764921 0.2817611686060932 0  0.2098230269864963 0.2848904467328375 0  0.4791886374719068 0.2463232531850464 0  0.4767251028294628 0.2472920402281182 0  0.47939031037446 0.2484645654011114 0  0.5659193341648323 0.2144028138076038 0  0.5671072463634824 0.2151906937082714 0  0.5656015283137305 0.2155561092382431 0  0.4091562702786654 0.2164688928073908 0  0.2125730948879282 0.2802055247515259 0  0.4661504646699243 0.2685016578084486 0  0.4623208666067419 0.2711205066807223 0  0.4621391289227719 0.268418839637129 0  0.2020305007172324 0.260767703852621 0  0.2028540783357061 0.2627345197146921 0  0.2008966929389718 0.2619872579838669 0  0.2914767064304066 0.2142408612711891 0  0.2901128034013467 0.2142518507390097 0  0.2906604415770182 0.2132240457090726 0  0.1865895123640365 0.2888603229842701 0  0.1855500859276376 0.292804436798887 0  0.1832119574592087 0.28921343695101 0  0.4533694172394687 0.2286818705171956 0  0.4552131259915984 0.2275440741850141 0  0.454797386051272 0.2296866626803614 0  0.565106202313774 0.3240730478841237 0  0.5582969311848454 0.3193377908319404 0  0.563253490587698 0.3176885715777626 0  0.5632346015734742 0.2285486955914557 0  0.5648810632457525 0.2277457824210019 0  0.5635771896939533 0.226617478675607 0  0.301667663107013 0.2499363572304926 0  0.3014181612200859 0.2531612757857259 0  0.3039172600467319 0.2519609896224659 0  0.4240669984888375 0.2698990454978818 0  0.4207355364877877 0.2316836958510045 0  0.4233124639545472 0.2323769297784652 0  0.4219104437317804 0.2305244938421703 0  0.5549294291466784 0.2447440759167246 0  0.5580809912116215 0.2460646946714269 0  0.555613241800737 0.2474160087095165 0  0.2072375038715868 0.2828839415251498 0  0.1119862682296986 0.2996447231628908 0  0.1054912781714791 0.2978011740034712 0  0.1105515602726228 0.2947306441341775 0  0.4812386438944528 0.2358250908515293 0  0.4831511741159503 0.2374800991600267 0  0.4809948843961757 0.238039696370678 0  0.4945613311225286 0.2428845514013484 0  0.4939214327937335 0.2456242624960367 0  0.4919367121965993 0.2432914901617102 0  0.3333928359811234 0.2403886312948093 0  0.3359656282517943 0.2415123159652206 0  0.3342187210134681 0.2430863317343889 0  0.4956250707232041 0.2340107659649711 0  0.4935936848171802 0.2331439048717163 0  0.4952720324256117 0.2317071713365847 0  0.4042845502140181 0.2489956774418844 0  0.4311471365800303 0.2335027102617574 0  0.4321784423768287 0.2356301030161762 0  0.4329986012607998 0.2336082556739106 0  0.2317491895668917 0.2608528022880091 0  0.2307555907958096 0.2631736308679996 0  0.2297838234560513 0.2608613346141119 0  0.3836824464169659 0.2938722836797275 0  0.3781922632442213 0.2967371113777164 0  0.378638583054069 0.2931893889930378 0  0.5077999356142034 0.2991933098226561 0  0.5049099804491268 0.2944393231751803 0  0.5097082145773583 0.2940920598888432 0  0.1038326483608958 0.2280362390059323 0  0.09885230460658663 0.2272093446039642 0  0.1018938520999663 0.2251764919531921 0  0.5253129543337218 0.2225138674019795 0  0.5243510259934753 0.2210461312855981 0  0.5238196444701941 0.22239855268847 0  0.193063223400507 0.2495164733236196 0  0.1940490904098745 0.2496446036850951 0  0.1933649481508183 0.2506682269554203 0  0.498821968214996 0.2116887687153618 0  0.5001279412140317 0.2115270996447271 0  0.4995678811401638 0.2125261224636664 0  0.1950373100545754 0.2497531075261192 0  0.1960274916514073 0.2498419419507343 0  0.1956345179499236 0.2510246305235965 0  0.2339624019095265 0.3140494103168648 0  0.2307503668390355 0.3173868243867817 0  0.234211117520947 0.3208135367447238 0  0.4720627164162833 0.2164103632455241 0  0.4705754990943501 0.2159494149239123 0  0.4717034027499973 0.2154014535488244 0  0.3561052547908742 0.2192341990001423 0  0.3554173748936772 0.2203467610542928 0  0.3570405065997755 0.2199623888889076 0  0.4100356702508851 0.2122896382245691 0  0.4103539193536455 0.2137432150935419 0  0.4093087027515369 0.2133428210319792 0  0.252784244555545 0.2163892050994244 0  0.2518024090903775 0.2162168589323293 0  0.2521677217326574 0.2150760936734962 0  0.5437812041734681 0.2388886830040091 0  0.5438478709321827 0.2416343026303051 0  0.5415580140789013 0.239309391636353 0  0.2312300850964662 0.3744857304119488 0  0.2364705768203112 0.3824553395561667 0  0.2269530834664734 0.3844216917373036 0  0.4669405496878522 0.2128812278230294 0  0.4681050971052675 0.213124173999287 0  0.4669620444333014 0.2142292623937702 0  0.4909044594334378 0.2155202997556215 0  0.4901841171952743 0.216379026
[...]
<PointData  Vectors="f_30-0"> 
<DataArray  type="Float64"  Name="f_30-0"  NumberOfComponents="3" format="ascii">5.2247625134301405e-06 -3.0688070856538416e-08 0.0000000000000000e+00  5.2255185937280182e-06 -2.0020564506614639e-08 0.0000000000000000e+00  5.2233364131791850e-06 -1.8982600937096379e-08 0.0000000000000000e+00  5.3006502045535582e-06 -7.2104059419126536e-09 0.0000000000000000e+00  5.2835581123106072e-06 -2.3623364787932639e-08 0.0000000000000000e+00  5.3026835922983680e-06 -1.4582930238232564e-09 0.0000000000000000e+00  7.1078927918146305e-06 3.6541547494312992e-06 0.0000000000000000e+00  7.2963122208182150e-06 3.7168043408770448e-06 0.0000000000000000e+00  7.1531087492998213e-06 3.8708706284493343e-06 0.0000000000000000e+00  6.1309896695902261e-06 -2.2441157754036374e-06 0.0000000000000000e+00  6.0074793509135559e-06 -2.1320831421924174e-06 0.0000000000000000e+00  6.1737313006702566e-06 -2.0790882571633636e-06 0.0000000000000000e+00  3.1498999071088534e-06 -3.8003090826954574e-07 0.0000000000000000e+00  3.2611468898434235e-06 -4.0853301135430561e-07 0.0000000000000000e+00  3.1493458840197868e-06 -4.3495342491373467e-07 0.0000000000000000e+00  5.2037699947662339e-06 3.3643889099084455e-10 0.0000000000000000e+00  5.2050518961057143e-06 -9.6988552379910803e-09 0.0000000000000000e+00  5.2214461849682412e-06 -2.2625916038296666e-08 0.0000000000000000e+00  5.3620150695714135e-06 -5.5351930323516130e-08 0.0000000000000000e+00  5.3579610773048585e-06 -5.2128603895880205e-08 0.0000000000000000e+00  5.3601815207436448e-06 -5.1034346169723919e-08 0.0000000000000000e+00  6.7941256402507096e-06 -2.5209371654230734e-06 0.0000000000000000e+00  6.5838173187272759e-06 -2.4842300499591999e-06 0.0000000000000000e+00  6.6863501098671714e-06 -2.3555119231947459e-06 0.0000000000000000e+00  5.2723628654425510e-06 -7.7850796393911006e-08 0.0000000000000000e+00  5.2699163406866859e-06 -7.2370328192509880e-08 0.0000000000000000e+00  5.2668475658112854e-06 -7.1707095272109383e-08 0.0000000000000000e+00  2.0895693349183618e-06 -4.7029363349850674e-07 0.0000000000000000e+00  2.1441873980519447e-06 -6.3646413037013547e-07 0.0000000000000000e+00  1.9513848773764741e-06 -6.1029619281547447e-07 0.0000000000000000e+00  7.1967403612804046e-06 -2.0133876015326133e-06 0.0000000000000000e+00  7.4220563823030955e-06 -2.1063447239350394e-06 0.0000000000000000e+00  7.2769473119883578e-06 -2.2253179067638522e-06 0.0000000000000000e+00  4.6442393911794048e-06 -4.2137010514884116e-08 0.0000000000000000e+00  4.6844938668425506e-06 -6.3162688629537400e-08 0.0000000000000000e+00  4.6886333760935457e-06 -6.3953774233117131e-08 0.0000000000000000e+00  5.3300863675506623e-06 -1.9514408133481844e-08 0.0000000000000000e+00  5.3327650888586115e-06 -2.5245885009395544e-08 0.0000000000000000e+00  5.3360514183113297e-06 -2.4190917069971467e-08 0.0000000000000000e+00  5.3605230767495081e-06 -8.0131551132978923e-08 0.0000000000000000e+00  5.3649742959408189e-06 -7.4777406070558942e-08 0.0000000000000000e+00  5.3586988730786577e-06 -7.5174070580208646e-08 0.0000000000000000e+00  5.2924528207944357e-06 -7.7692090580639961e-08 0.0000000000000000e+00  5.2701485450683843e-06 -8.0844428589387557e-08 0.0000000000000000e+00  5.2871612263207779e-06 -3.1866325531729747e-08 0.0000000000000000e+00  7.1880325674837351e-06 2.5602573485892661e-06 0.0000000000000000e+00  7.2956584026482843e-06 2.3325155168806869e-06 0.0000000000000000e+00  7.3907211810812922e-06 2.5150102498118941e-06 0.0000000000000000e+00  4.9833512182846381e-06 -6.0962830559995273e-07 0.0000000000000000e+00  5.0358756204082635e-06 -6.1998503810761059e-07 0.0000000000000000e+00  4.9875917132455822e-06 -6.5801931465608934e-07 0.0000000000000000e+00  0.0000000000000000e+00 0.0000000000000000e+00 0.0000000000000000e+00  0.0000000000000000e+00 0.0000000000000000e+00 0.0000000000000000e+00  2.1989674456996314e-06 3.2743085509669377e-06 0.0000000000000000e+00  6.4603738679418788e-06 2.0612203042345123e-07 0.0000000000000000e+00  6.4766552613367265e-06 3.4650530764752177e-07 0.0000000000000000e+00  6.5530718921096392e-06 2.8186316084584582e-07 0.0000000000000000e+00  4.0739777889480524e-06 -1.5381306385868651e-08 0.0000000000000000e+00  3.2190990459068246e-06 -2.6921866270335129e-08 0.0000000000000000e+00  2.4345976537402736e-06 -5.3413051515373957e-08 0.0000000000000000e+00  5.2212576040532676e-06 -7.0137038546280830e-08 0.0000000000000000e+00  5.2269400624548107e-06 -7.0321948483049598e-08 0.0000000000000000e+00  5.2237177504985821e-06 -6.5284066453309182e-08 0.0000000000000000e+00  5.3013940381278083e-06 -2.2205192644130742e-08 0.0000000000000000e+00  5.1977979189162075e-06 -7.6487305980453325e-08 0.0000000000000000e+00  5.2501719791066459e-06 -2.4776469378812245e-08 0.0000000000000000e+00  5.2961879798462350e-06 -5.6086212249966654e-08 0.0000000000000000e+00  5.2976966964359187e-06 -5.6972957745419050e-08 0.0000000000000000e+00  5.2962929668958328e-06 -6.2687557051361437e-08 0.0000000000000000e+00  4.5325060723860313e-06 -3.8818132368983433e-08 0.0000000000000000e+00  6.3648503057446676e-06 3.5569668351887796e-07 0.0000000000000000e+00  5.2026671364355862e-06 -8.0395693015805713e-08 0.0000000000000000e+00  6.0502972796367539e-06 -9.2294247668691525e-07 0.0000000000000000e+00  5.9542918268344525e-06 -8.5716716111405914e-07 0.0000000000000000e+00  5.9434054873367750e-06 -9.5176870542433801e-07 0.0000000000000000e+00  0.0000000000000000e+00 0.0000000000000000e+00 0.0000000000000000e+00  0.0000000000000000e+00 0.0000000000000000e+00 0.0000000000000000e+00  2.5090504591311455e-06 3.4025890346759459e-06 0.0000000000000000e+00  3.2755601180210348e-06 3.3306237678083180e-08 0.0000000000000000e+00  5.3986526464818534e-06 -1.8546350692721513e-07 0.0000000000000000e+00  5.4100078496689331e-06 -2.2378585661255863e-07 0.0000000000000000e+00  5.3356723372589603e-06 -1.1553136453071598e-07 0.0000000000000000e+00  5.7891950011440307e-06 3.5764494937926742e-06 0.0000000000000000e+00  5.6679728030683847e-06 3.3581080627417810e-06 0.0000000000000000e+00  5.6041469984303587e-06 3.5849357336820044e-06 0.0000000000000000e+00  4.5055499510998194e-06 -3.7595078158509820e-08 0.0000000000000000e+00  3.5865632086767082e-06 -1.6188382494200657e-08 0.0000000000000000e+00  4.7857540169555828e-06 5.2134047434553818e-09 0.0000000000000000e+00  3.5251941799258874e-06 2.1564090608766364e-06 0.0000000000000000e+00  3.7449377489900761e-06 2.2675721054582783e-06 0.0000000000000000e+00  3.5788819341468404e-06 2.3263017019513906e-06 0.0000000000000000e+00  6.1931165400388995e-06 8.5976416256194371e-07 0.0000000000000000e+00  6.2876155830434062e-06 9.7922392392517274e-07 0.0000000000000000e+00  6.2928118522404823e-06 8.6739475481518364e-07 0.0000000000000000e+00  4.7007290222767098e-06 2.5539900364297213e-06 0.0000000000000000e+00  4.7578694407756466e-06 2.3782804535218425e-06 0.0000000000000000e+00  4.5799739530363479e-06 2.4495844422834887e-06 0.0000000000000000e+00  8.9139190874087194e-06 -1.6804872957555701e-06 0.0000000000000000e+00  9.0771174211961502e-06 -1.5408224674517112e-06 0.0000000000000000e+00  8.8470512162489714e-06 -1.4586085563315967e-06 0.0000000000000000e+00  5.2031579862197816e-06 -1.9902445890095505e-07 0.0000000000000000e+00  5.2224360486269269e-06 -1.9984260976344367e-07 0.0000000000000000e+00  5.2152409874142273e-06 -1.8691046784978443e-07 0.0000000000000000e+00  5.1265560211948580e-06 9.8246378736541989e-09 0.0000000000000000e+00  5.1962517850131701e-06 -3.5516800467151689e-08 0.0000000000000000e+00  5.1926137871300113e-06 -3.9619922120864774e-08 0.0000000000000000e+00  7.6260000787157801e-06 2.7015715904156596e-06 0.0000000000000000e+00  7.3888871261658056e-06 2.6960384305242905e-06 0.0000000000000000e+00  7.5569956014843862e-06 2.5227292182385430e-06 0.0000000000000000e+00  5.1818402410694828e-06 -9.4112258117926589e-09 0.0000000000000000e+00  5.1609025998796596e-06 -3.6301778072577633e-08 0.0000000000000000e+00  5.1730164289939976e-06 -3.1280221926142212e-08 0.0000000000000000e+00  4.3961164509800123e-06 -1.8846414865260492e-06 0.0000000000000000e+00  4.5377727871566287e-06 -1.8453356525251857e-06 0.0000000000000000e+00  4.4103511516186302e-06 -1.7559966702573506e-06 0.0000000000000000e+00  9.7062590400544771e-06 -2.4147546951787593e-07 0.0000000000000000e+00  8.3000234229797679e-06 -2.1474567422938686e-07 0.0000000000000000e+00  9.1744357941759184e-06 -1.1596073742927422e-08 0.0000000000000000e+00  4.4789074195023239e-06 3.7453061887028593e-08 0.0000000000000000e+00  3.5152947389381612e-06 -4.9915041908289990e-08 0.0000000000000000e+00  2.6882369482034291e-06 1.2925111652760435e-07 0.0000000000000000e+00  3.5013105692268121e-06 -1.5755349028304006e-08 0.0000000000000000e+00  3.8558743446808119e-06 -2.1665445589480252e-07 0.0000000000000000e+00  3.7799076836548196e-06 -2.1880959786050496e-07 0.0000000000000000e+00  3.7831115257619667e-06 -1.6182044401142735e-07 0.0000000000000000e+00  2.0562376653011364e-06 3.5791273020200098e-06 0.0000000000000000e+00  1.5092540586812456e-06 3.1325325690315350e-06 0.0000000000000000e+00  1.7181783754544297e-06 3.4927893584437737e-06 0.0000000000000000e+00  7.1562710091554032e-06 -3.9466167751866909e-07 0.0000000000000000e+00  7.3101581328063195e-06 -3.3004155405032957e-07 0.0000000000000000e+00  7.1839730711344991e-06 -2.4766263290146074e-07 0.0000000000000000e+00  5.3038621170647310e-06 -3.7543706245595377e-08 0.0000000000000000e+00  5.3013332833097533e-06 -3.8281561076885519e-08 0.0000000000000000e+00  5.3040478930889642e-06 -3.9905892274912053e-08 0.0000000000000000e+00  5.4787821258027071e-06 -2.3150874549377393e-08 0.0000000000000000e+00  5.5336667231032242e-06 -6.5778739770854393e-08 0.0000000000000000e+00  5.5149485570285765e-06 -1.5634273968127134e-08 0.0000000000000000e+00  5.2313254135377033e-06 1.9459180350369756e-08 0.0000000000000000e+00  7.3280516976801105e-06 -4.6185231196999247e-07 0.0000000000000000e+00  5.2917559817248766e-06 -5.0117590184334044e-08 0.0000000000000000e+00  5.2872119158520754e-06 -5.4368724070410937e-08 0.0000000000000000e+00  5.2914572943579099e-06 -5.0935558991179100e-08 0.0000000000000000e+00  9.0734803406658931e-06 -1.6781147559079976e-07 0.0000000000000000e+00  8.8599924663329283e-06 -2.1239083870530335e-07 0.0000000000000000e+00  8.9613479525678724e-06 -1.5411295520220944e-08 0.0000000000000000e+00  4.2260240382036674e-06 -8.4007656693494981e-08 0.0000000000000000e+00  4.1934358785352658e-06 -8.1373798976149455e-08 0.0000000000000000e+00  4.0714257248625068e-06 -4.3492811473301716e-08 0.0000000000000000e+00  7.0069014523309328e-06 7.1417983663651614e-07 0.0000000000000000e+00  6.8644464742542248e-06 6.8426713277054984e-07 0.0000000000000000e+00  6.9392972926725439e-06 8.2488399225613375e-07 0.0000000000000000e+00  5.2756733934148518e-06 -1.5777902743496079e-08 0.0000000000000000e+00  5.2790309943896438e-06 -2.0217838555117780e-08 0.0000000000000000e+00  5.2836126893115128e-06 -2.3645967527335540e-08 0.0000000000000000e+00  5.2225315866619516e-06 -5.8463317185336272e-08 0.0000000000000000e+00  5.2184984508455508e-06 -1.4832736935498157e-07 0.0000000000000000e+00  5.2405438956671559e-06 -1.0963504289993464e-07 0.0000000000000000e+00  5.4965331994009224e-06 -1.2513626614301357e-07 0.0000000000000000e+00  5.5070586779292503e-06 -1.2518426996178139e-07 0.0000000000000000e+00  5.5081327510904849e-06 -1.1435874908155546e-07 0.0000000000000000e+00  4.8986015138687186e-06 -5.4117971230774813e-07 0.0000000000000000e+00  4.9425571809843997e-06 -5.6082174983292149e-07 0.0000000000000000e+00  4.9370593244052798e-06 -5.2108008364187589e-07 0.0000000000000000e+00  5.2683799598710430e-06 -6.8806130745566337e-08 0.0000000000000000e+00  5.2402353673860136e-06 -2.8867872521689726e-08 0.0000000000000000e+00  5.2439691479778107e-06 -2.9598032435492869e-08 0.0000000000000000e+00  5.2425089308284984e-06 -2.6822407809030335e-08 0.0000000000000000e+00  5.3984166184999728e-06 -1.3503553478740069e-07 0.0000000000000000e+00  5.3982713182601458e-06 -1.4910649749169909e-07 0.0000000000000000e+00  5.3899073965883525e-06 -1.4096133097394730e-07 0.0000000000000000e+00  7.3125767570438682e-06 -1.6833991461767942e-07 0.0000000000000000e+00  5.4489677055057074e-06 1.3075438151443998e-06 0.0000000000000000e+00  5.3977099162498899e-06 1.3489550791748392e-06 0.0000000000000000e+00  5.4625759173183741e-06 1.3609871685782381e-06 0.0000000000000000e+00  5.3083938567187359e-06 -2.8937146238596615e-08 0.0000000000000000e+00  5.3092430774529934e-06 -2.9821150212657509e-08 0.0000000000000000e+00  5.3064225917870342e-06 -3.0482783241908245e-08 0.0000000000000000e+00  5.3192841490176226e-06 -3.9939204782150955e-08 0.0000000000000000e+00  5.3175717686079196e-06 -4.1407914112797116e-08 0.0000000000000000e+00  5.3162489264319019e-06 -3.8319274576978940e-08 0.0000000000000000e+00  5.0048995886132213e-06 -2.0400972950277732e-07 0.0000000000000000e+00  5.0252756606960309e-06 -1.9886486956125330e-07 0.0000000000000000e+00  5.0228976793855791e-06 -2.1474747943002566e-07 0.0000000000000000e+00  5.3256410309175690e-06 -2.9128795313469258e-08 0.0000000000000000e+00  5.3227128246582859e-06 -2.8633394836357045e-08 0.0000000000000000e+00  5.3237297235916532e-06 -2.6389937871977161e-08 0.0000000000000000e+00  5.2284829668847313e-06 -6.4617128617125934e-08 0.0000000000000000e+00  5.2555636954422319e-06 -2.8365535096314278e-08 0.0000000000000000e+00  5.2573472576168401e-06 -3.1159432267647059e-08 0.0000000000000000e+00  5.2558020184368420e-06 -2.7351429624559147e-08 0.0000000000000000e+00  6.9125453810583458e-06 -2.1750669975673945e-06 0.0000000000000000e+00  6.9735690581222690e-06 -1.9870147453478224e-06 0.0000000000000000e+00  7.0800067779206667e-06 -2.1771585352697674e-06 0.0000000000000000e+00  5.2831682472488102e-06 -1.3801193672173262e-07 0.0000000000000000e+00  5.2842154870862416e-06 -1.3755190102600224e-07 0.0000000000000000e+00  5.2850391932999102e-06 -1.4854841695748685e-07 0.0000000000000000e+00  5.2955063330648501e-06 -7.4710237915255930e-08 0.0000000000000000e+00  5.2925936972439619e-06 -6.6593490037896595e-08 0.0000000000000000e+00  5.2926199810834619e-06 -7.7537839813624711e-08 0.0000000000000000e+00  4.6239531134419460e-06 9.7491269671342268e-07 0.0000000000000000e+00  4.7422920301097479e-06 8.6677837636494861e-07 0.0000000000000000e+00  4.6196610676880638e-06 8.6063565025877704e-07 0.0000000000000000e+00  5.3747534353187668e-06 -2.3975553190387816e-08 0.0000000000000000e+00  5.3747285616587241e-06 -2.3083038673346563e-08 0.0000000000000000e+00  5.3764586204962524e-06 -3.0377694846316024e-08 0.0000000000000000e+00  0.0000000000000000e+00 0.0000000000000000e+00 0.0000000000000000e+00  0.0000000000000000e+00 0.0000000000000000e+00 0.0000000000000000e+00  6.7684982721797363e-06 8.8659463418906699e-07 0.0000000000000000e+00  4.1346546907431674e-06 -1.9731703853154738e-08 0.0000000000000000e+00  4.0318028359432503e-06 -2.5085733699027920e-08 0.0000000000000000e+00  4.7820493336385132e-06 -1.7162698024137679e-08 0.0000000000000000e+00  0.0000000000000000e+00 0.0000000000000000e+00 0.0000000000000000e+00  0.0000000000000000e+00 0.0000000000000000e+00 0.0000000000000000e+00  7.2410612221635936e-06 7.4222764274080609e-07 0.0000000000000000e+00  6.1775106341329926e-06 -3.3356308606526786e-07 0.0000000000000000e+00  6.1919563115480233e-06 -2.7120593825912637e-07 0.0000000000000000e+00  6.1039303224427380e-06 -2.6732490338266544e-07 0.0000000000000000e+00  5.2804050744017357e-06 -1.1027095167986822e-08 0.0000000000000000e+00  5.2787470084630274e-06 -1.4194356750266268e-08 0.0000000000000000e+00  5.2774492307314466e-06 -4.2003185562240785e-09 0.0000000000000000e+00  5.0676892798642730e-06 -3.2411972094573310e-08 0.0000000000000000e+00  5.0695542040962543e-06 -4.3925643035464629e-08 0.0000000000000000e+00  5.0712591111784034e-06 -3.4585949375524490e-08 0.0000000000000000e+00  4.5134443392704566e-06 -5.4084224484614451e-08 0.0000000000000000e+00  5.1282701706974534e-06 2.8437906214930335e-10 0.0000000000000000e+00  4.9485007403269656e-06 -2.0973211864822164e-09 0.0000000000000000e+00  1.4506014637055236e-06 -1.1555053906207117e-06 0.0000000000000000e+00  1.2401263074289195e-06 -1.2719948292589414e-06 0.0000000000000000e+00  1.1749022803891337e-06 -9.6987446679583504e-07 0.0000000000000000e+00  5.3956420886752232e-06 -9.0013309918944426e-08 0.0000000000000000e+00  5.3889123821148039e-06 -9.4804847624432472e-08 0.0000000000000000e+00  5.3899302239104062e-06 -8.5477505635940052e-08 0.0000000000000000e+00  5.8540092971221645e-06 8.5610594201497909e-08 0.0000000000000000e+00  5.7964842237384911e-06 -2.1376653297487844e-07 0.0000000000000000e+00  5.9163992587603335e-06 -1.2883721436022682e-07 0.0000000000000000e+00  4.9315559201105155e-06 1.5901246057740489e-08 0.0000000000000000e+00  5.0254164238413258e-06 -2.8739540312500008e-08 0.0000000000000000e+00  5.2024136620932704e-06 -3.8285881155818578e-09 0.0000000000000000e+00  5.2930046169296244e-06 -1.6279640603151173e-08 0.0000000000000000e+00  5.3085003001483348e-06 2.6689612488001673e-09 0.0000000000000000e+00  5.3177384199260091e-06 7.3469500545197324e-09 0.0000000000000000e+00  5.2249156582748931e-06 -2.9188790658444936e-08 0.0000000000000000e+00  5.2162751133024265e-06 -2.7250456631564841e-08 0.0000000000000000e+00  5.8204414985854113e-06 2.7781467979247626e-06 0.0000000000000000e+00  5.9709971301140196e-06 2.6338297724375782e-06 0.0000000000000000e+00  5.9618109747510468e-06 2.7896526550962268e-06 0.0000000000000000e+00  3.6357140098389002e-06 -3.3101559556524874e-06 0.0000000000000000e+00  3.7701655382331997e-06 -3.4029084004376831e-06 0.0000000000000000e+00  3.8757941664569120e-06 -3.2086818265000550e-06 0.0000000000000000e+00  5.1524179788113083e-06 -1.2483252999630138e-07 0.0000000000000000e+00  6.4482793755954277e-06 5.7941892997907645e-07 0.0000000000000000e+00  4.9639931622537073e-06 -2.5150791040511643e-07 0.0000000000000000e+00  5.2720842946279350e-06 -2.3976419461689427e-08 0.0000000000000000e+00  5.2747326375373579e-06 -2.3981181708371228e-08 0.0000000000000000e+00  5.2712424365721511e-06 -2.2517208769906199e-08 0.0000000000000000e+00  5.3267145581534136e-06 -9.3352791338540195e-08 0.0000000000000000e+00  5.3226509297216501e-06 -9.9260162535891933e-08 0.0000000000000000e+00  5.3196173295697215e-06 -9.3218961994622191e-08 0.0000000000000000e+00  4.3447337256513246e-06 2.6976272819920339e-08 0.0000000000000000e+00  4.0077734123338374e-06 1.9505117512778635e-08 0.0000000000000000e+00  4.9267215988817786e-06 3.0891573986936859e-08 0.0000000000000000e+00  5.4587276315676661e-06 -6.6156244116106974e-08 0.0000000000000000e+00  5.4523378946500486e-06 -6.1628766960630720e-08 0.0000000000000000e+00  5.4578370943313167e-06 -5.9864293074912338e-08 0.0000000000000000e+00  5.5507275041593200e-06 -5.3334295937699272e-08 0.0000000000000000e+00  5.5570185709574383e-06 -6.3423591007948926e-08 0.0000000000000000e+00  5.5667467525850327e-06 -5.5740653299654768e-08 0.0000000000000000e+00  5.2777541915678391e-06 -6.9443956845398156e-08 0.0000000000000000e+00  5.2739835005775482e-06 -7.6476875061781975e-08 0.0000000000000000e+00  5.2843611874076080e-06 -7.4076355631911935e-08 0.0000000000000000e+00  5.1859305746613632e-06 -7.0437469679478334e-08 0.0000000000000000e+00  5.1912976327176034e-06 -7.4013350424227400e-08 0.0000000000000000e+00  5.1841171342118130e-06 -7.5203846031953405e-08 0.0000000000000000e+00  1.3627293923410599e-06 -9.1048658905084290e-07 0.0000000000000000e+00  4.8810253999044718e-06 -2.2912276821455094e-07 0.0000000000000000e+00  4.8531037391780060e-06 -2.2737631211639991e-07 0.0000000000000000e+00  4.8733198981658359e-06 -2.4843534394912833e-07 0.0000000000000000e+00  4.9767699001178392e-06 -2.8594554886588723e-08 0.0000000000000000e+00  4.9971749732301108e-06 -1.2222044785556346e-08 0.0000000000000000e+00  4.9169669592504793e-06 -3.5964256895079739e-08 0.0000000000000000e+00  4.4156756257609718e-06 -2.3246378989470818e-08 0.0000000000000000e+00  3.762