<?xml version="1.0"?>
<VTKFile type="UnstructuredGrid"  version="0.1"  >
<UnstructuredGrid>
<Piece  NumberOfPoints="12890" NumberOfCells="25210">
<Points>
<DataArray  type="Float64"  NumberOfComponents="3"  format="ascii">0.6817892917236782 0.2294985382447675 0  0.6812814069838691 0.2342109236512309 0  0.686329538468339 0.2342082246820452 0  1.992820803930671 0.1832128061095336 0  2.000318461790259 0.1906355616897436 0  1.988280640327684 0.1903820716802586 0  1.992537032055944 0.1979899012708293 0  1.82363882128023 0.05460367578158477 0  1.830549422123667 0.06285036221206156 0  1.832012849229839 0.05052690027825386 0  1.694428110501978 0.3646339267047484 0  1.683489521758304 0.3615082634497559 0  1.695174627653683 0.35523302513872 0  2.294419887101501 0.08507824626593334 0  2.284144275325261 0.08651772085334215 0  2.290011744470134 0.07646981837009746 0  2.019059909941784 0.1362546953962127 0  2.008320668309931 0.1284804017736793 0  2.019746875401848 0.1262956212310187 0  1.557487192892489 0.1871033088682856 0  1.560993728809899 0.1758277663542837 0  1.551283732679753 0.1786207499447403 0  2.435891050866717 0.1227020404711976 0  2.428054729708509 0.1125122141872733 0  2.425473823312474 0.1249315441333094 0  1.820645330248073 0.2076673530822689 0  1.813354892875316 0.2183736014747164 0  1.825447319820375 0.2182082725412246 0  1.189523605073642 0.294246629068108 0  1.190262333741541 0.2815413147297959 0  1.181333564915546 0.2901481633231068 0  0.8369591919107705 0.2858226745866954 0  0.8417999857626177 0.276307350037258 0  0.829693142454241 0.2795491566098508 0  1.052279820179378 0.04943917248558612 0  1.041791918615705 0.05235142989387546 0  1.045141037572242 0.04141080217962011 0  0.6001462781749946 0.2998320613910367 0  0.5942579351976098 0.3007789128570176 0  0.5986204266732809 0.3040855279677026 0  0.6160320435607748 0.2228607479834354 0  0.6189232222575833 0.2220984504616874 0  0.6171834632062466 0.2213471538380282 0  0.8924685045664458 0.02644666755087605 0  0.8941884197692261 0.01428307647266347 0  0.8850095150009518 0.02043800406677539 0  1.626314515296457 0.07061785175494507 0  1.618082012336915 0.06276275412771164 0  1.631189126982123 0.0621132260950832 0  1.63018558230155 0.1942109620106346 0  1.641453801113704 0.1957595703281643 0  1.633120876655184 0.1859258651141354 0  2.176350135692696 0.3859629712886696 0  2.179992432495656 0.3950777974892359 0  2.16865911317688 0.3905660145605094 0  1.383161695078588 0.1943890731013125 0  1.392340200421998 0.1971087613721823 0  1.392051711219797 0.1861389084584762 0  1.665053279496449 0.1599917488750791 0  1.67673367959121 0.1563561394258627 0  1.667482355548204 0.1514576576147334 0  1.674380620319185 0.1445722995169359 0  2.374573769959679 0.3398778599258988 0  2.383871103281496 0.3315628323294671 0  2.37157646098381 0.3329467307048015 0  1.788357729050931 0.08259588862192448 0  1.796751473860128 0.08789074563578324 0  1.787985541422846 0.09429801181014964 0  0.715585598996613 0.2222588235144914 0  0.7179200441596695 0.2297309167041168 0  0.7229558620422878 0.224381369228435 0  2.282306911533588 0.3356713007464255 0  2.279785656935703 0.3253245703287004 0  2.271898500737648 0.3324525744683667 0  0.5860825309846378 0.2934971492342061 0  0.5828752944397552 0.2983312033929202 0  0.580105536395377 0.2943082410185019 0  1.532344338799305 0.3009491570516615 0  1.521194979464528 0.2950402258182829 0  1.532680839652167 0.2912512938822093 0  1.590739065480598 0.21334706787086 0  1.580909826689124 0.2119553575077771 0  1.587118434284466 0.2216845299656094 0  0.5984189032621965 0.2120397459063524 0  0.5989406788227492 0.2134942936652889 0  0.59758123336018 0.2129053588955402 0  1.641714096339649 0.1862462081567933 0  0.595949946698267 0.1872240565086093 0  0.5949610008173241 0.1862724351984334 0  0.5961657221581617 0.1859383429778497 0  0.6253662516201635 0.3072554886135253 0  0.6336300226798547 0.3086998472309266 0  0.6300116557034543 0.3029692627147446 0  0.971934374008138 0.3434207706607108 0  0.9713098452635061 0.3327290462543759 0  0.9810134866097496 0.3398968402742786 0  1.525986058958456 0.2838624162593912 0  0.7164515130951427 0.2598214542465007 0  0.7101301933167281 0.2620521190898519 0  0.7126109641575051 0.2678173127592529 0  0.9740465475075377 0.3620439839744725 0  0.9823710912389869 0.3568299636090082 0  0.9824026228951288 0.3676648676263527 0  0.6442479343525876 0.1166422452692756 0  0.640008215125649 0.1105798484013897 0  0.6369974900368613 0.1164069879783799 0  0.9792536942775809 0.04312377539263789 0  0.9782319782924929 0.03145597778614775 0  0.9700411906217877 0.0371008252233604 0  1.271331208786607 0.351631475909388 0  1.259375833533915 0.3547430126075654 0  1.26869384743711 0.363089085603254 0  1.259121930223661 0.3666580473890615 0  0.898111033912802 0.09522146680025552 0  0.8897933754626001 0.1038416433948566 0  0.8977952406345605 0.1078469910691977 0  0.9930386504616522 0.3630663777026178 0  0.6208224582072542 0.05306676018312081 0  0.6132001072589295 0.0455191857929956 0  0.624020960981496 0.04602638766544409 0  1.002699110179637 0.3809574334368143 0  1.013415893265609 0.3803929164423516 0  1.00325926467873 0.3721936656530799 0  0.98234833788414 0.3312275788755432 0  1.486069816333625 0.1968171077115747 0  1.486373507438397 0.2068782342565444 0  1.477648072730546 0.196918298374705 0  1.475276975156515 0.2050000000000071 0  1.819571642643725 0.06393542889941134 0  0.960021517169707 0.1453308794732694 0  0.9681830801482412 0.1364165242668807 0  0.9675296165301418 0.1472123765033102 0  0.681572968653259 0.3195325581887908 0  0.6901858438486765 0.3210029838495103 0  0.6857868574265386 0.3129748327595722 0  1.699834056223964 0.2558323539720885 0  1.695023119340696 0.264891847124596 0  1.690803416116116 0.252700205071602 0  2.374209251036397 0.3261605268397857 0  0.8032277897846312 0.1145761197343075 0  0.8127928553415675 0.1186352926064595 0  0.8102374963970427 0.1066443038759288 0  2.348531444798879 0.1153336700391523 0  2.35847016996196 0.1144841969518309 0  2.350800949367424 0.1051391457059429 0  2.008295043873471 0.1378455082058603 0  1.254493898603619 0.196867437499864 0  1.245616437135636 0.2048734689071517 0  1.244888109225224 0.1946959019042144 0  2.146021167682206 0.3548773247155759 0  2.1370036085585 0.3479083700672467 0  2.134980863699235 0.3578895064549965 0  1.232399901382959 0.2666289798037677 0  1.219529362991383 0.2644142250170954 0  1.228132672820895 0.2572711256047518 0  1.48784789604302 0.3369892056412504 0  1.488238010551433 0.3465485299804267 0  1.497654332069188 0.3415540615332815 0  1.556601633846245 0.1620693718661864 0  1.56391736983142 0.155031686362657 0  1.565193216235657 0.1654934531528113 0  0.7017205216166019 0.2242747447736183 0  0.7086624434412164 0.2258177577173954 0  0.7029771878918517 0.2301151943297345 0  1.68250441980909 0.2010392806737388 0  1.693396279916103 0.1998678758629845 0  1.687803687880297 0.1909510868447809 0  1.369456331447785 0.1640158372938429 0  1.38030412826113 0.165916002593358 0  1.376803778264351 0.1559372784211933 0  0.6279282614848493 0.01927922605372813 0  0.6370028352313499 0.01344833671944879 0  0.6289467767187342 0.008821507072940214 0  1.034003233804707 0.01445048662097984 0  1.043609610342891 0.009547275338615527 0  1.039810254348708 0.02046673229309649 0  1.015705282670578 0.3913334502615065 0  1.0253373185933 0.396228579510946 0  1.024034290456394 0.3861259846040806 0  0.9504994932617169 0.1525233190207647 0  0.9531274243743931 0.1393187197003742 0  1.263302737693699 0.01865755507801595 0  1.252402207898542 0.01440447629176499 0  1.256828289322535 0.007540569424006736 0  2.121504716814441 0.3715049942127613 0  2.122174595607929 0.3827414281392614 0  2.112598812100989 0.3808277135231574 0  1.584893926757273 0.1433874664521889 0  1.578089210698159 0.1505051767287 0  1.575186670956038 0.1387950278873114 0  1.686044822194656 0.2735912995714791 0  1.674925894373573 0.2816829474565785 0  1.686439272467837 0.2830559678518393 0  0.6107223577070167 0.2055796969367601 0  0.6089971482605809 0.206244131346205 0  0.6103551444342242 0.2075262702716314 0  0.7519861654940161 0.03322829475761541 0  0.7488530192591775 0.04187721363278338 0  0.7576210208166986 0.04369530652410071 0  2.176479906783205 0.02400366834934492 0  2.180174959619425 0.01493393366697796 0  2.168808218087479 0.01939393295693947 0  0.6903206191257729 0.2087330630589811 0  0.6952652337897282 0.2107296969463978 0  0.6892050049049274 0.2139458588107038 0  0.5910253072559151 0.21 0  0.5920224953385882 0.21 0  0.5915360636761171 0.2110238242180035 0  1.047946565031028 0.01879919993516284 0  0.7421917405957312 0.1657482430846719 0  0.7474774948444214 0.172396550522816 0  0.7485332451890978 0.1632822521497127 0  1.881721870961315 0.3849438853037536 0  1.876214410831426 0.3754463062100852 0  1.886805124336199 0.3789059198175334 0  2.298935244637849 0.1851586411729062 0  2.289268803267639 0.1832492559919905 0  2.296098796450874 0.1942693617104674 0  0.8400167032076334 0.3513890369029313 0  0.8490198984557161 0.35869421789267 0  0.8395031469243025 0.3627126680994481 0  0.983747188377346 0.06101664801606212 0  0.9754160939721042 0.05404174076629292 0  0.9878503591096646 0.05128147280983348 0  0.6063527118970188 0.2010105910813823 0  0.6045420379069174 0.2013842263882503 0  0.6049888504860957 0.2002139541461158 0  0.631059499982191 0.2227044781101822 0  0.6343993482224652 0.221010534855432 0  0.6336311351151034 0.2249406749167017 0  2.5 0.2799999999996273 0  2.490104788181132 0.2726536022500016 0  2.491962634864686 0.2840477990337635 0  0.7213630469412738 0.04974014645073298 0  0.726132280417772 0.04020553260748951 0  0.7181939553939292 0.04094802007545997 0  1.722462303340967 0.1095875612640512 0  1.729016654965403 0.1159608642558551 0  1.73509275071837 0.1051604304181225 0  0.587434942233413 0.2175223143608387 0  0.5865295147469972 0.2164138029693728 0  0.5881534604303518 0.2165662576614462 0  1.17442412293927 0.3353277650904214 0  1.16702869
[...]
<PointData  Vectors="f_30-0"> 
<DataArray  type="Float64"  Name="f_30-0"  NumberOfComponents="3" format="ascii">4.8934745999646237e-06 -8.8479356671274433e-08 0.0000000000000000e+00  4.9051106592804972e-06 -9.6511751185369131e-08 0.0000000000000000e+00  4.9094375865442226e-06 -8.7848764779607893e-08 0.0000000000000000e+00  4.9972856532119555e-06 1.0175295895579405e-08 0.0000000000000000e+00  5.0000021099567528e-06 -4.9853157725519728e-09 0.0000000000000000e+00  5.0055992928738013e-06 -6.8172663688610014e-09 0.0000000000000000e+00  5.0009717225644371e-06 1.1060373802096707e-08 0.0000000000000000e+00  5.0438139975450095e-06 9.7234208729430174e-08 0.0000000000000000e+00  4.9942482557570719e-06 5.2649744135304397e-08 0.0000000000000000e+00  5.0266622105016006e-06 -1.0772620808686414e-07 0.0000000000000000e+00  5.0009569661931879e-06 1.0954855987760446e-07 0.0000000000000000e+00  5.0284569061248209e-06 6.8171563800195848e-09 0.0000000000000000e+00  4.9685742331395539e-06 4.5190467699436407e-08 0.0000000000000000e+00  5.0072054244462977e-06 -3.3664490490717447e-08 0.0000000000000000e+00  4.9900294207375252e-06 1.1197740027901814e-07 0.0000000000000000e+00  5.0133388399011489e-06 -1.1294271189547761e-07 0.0000000000000000e+00  4.9983450414437947e-06 -4.2428811855599805e-09 0.0000000000000000e+00  4.9666949028126186e-06 3.0195509728258070e-08 0.0000000000000000e+00  5.0413296948815790e-06 -1.4083705252248514e-08 0.0000000000000000e+00  5.0040449971586920e-06 -7.4350187204974221e-10 0.0000000000000000e+00  5.0002191570469688e-06 -3.6323868523867982e-09 0.0000000000000000e+00  4.9991457993264922e-06 4.1668614432656983e-09 0.0000000000000000e+00  4.9966792648780336e-06 -6.9110909091649526e-09 0.0000000000000000e+00  4.9843502552640860e-06 5.7687877055770043e-08 0.0000000000000000e+00  4.9926912653510804e-06 -3.9909008269354233e-08 0.0000000000000000e+00  5.0036091146524573e-06 2.3589644457689855e-11 0.0000000000000000e+00  5.0015338202964418e-06 -1.8073487882796539e-09 0.0000000000000000e+00  5.0008324433263513e-06 1.0650663349712865e-09 0.0000000000000000e+00  5.0187242380579421e-06 2.1808907566438530e-08 0.0000000000000000e+00  4.9832948998109430e-06 -1.8156828675977826e-08 0.0000000000000000e+00  5.0041737899748917e-06 -1.4183603229819481e-08 0.0000000000000000e+00  5.0132605670466949e-06 -4.6377246109573067e-08 0.0000000000000000e+00  4.9829527339425909e-06 -1.8600235163844217e-08 0.0000000000000000e+00  5.0185791784502727e-06 -2.3234235667331235e-08 0.0000000000000000e+00  5.1224561908897871e-06 2.1369588077935644e-07 0.0000000000000000e+00  5.0436245696033771e-06 5.9543619628222415e-08 0.0000000000000000e+00  5.0547307640783754e-06 -2.3721847480494901e-07 0.0000000000000000e+00  5.1905371892066758e-06 -1.7274842641719934e-07 0.0000000000000000e+00  5.1928928683597601e-06 -1.5259691520826596e-07 0.0000000000000000e+00  5.1790120412433050e-06 -1.3384012565206954e-07 0.0000000000000000e+00  4.7592990830192900e-06 -8.4726724224992818e-07 0.0000000000000000e+00  4.6995963937522633e-06 -7.4643244519914975e-07 0.0000000000000000e+00  4.6959152263567501e-06 -8.1428056417598760e-07 0.0000000000000000e+00  4.8880258306955076e-06 -1.6791155463972335e-07 0.0000000000000000e+00  4.9615299034215975e-06 1.0332528634452838e-08 0.0000000000000000e+00  4.9689234358203035e-06 3.1914294241457224e-07 0.0000000000000000e+00  5.0117306962218025e-06 -4.6381497584303139e-08 0.0000000000000000e+00  4.8187398175712509e-06 3.6846819643137311e-08 0.0000000000000000e+00  5.0394746890064321e-06 -1.1231854965149247e-08 0.0000000000000000e+00  5.0048927005642048e-06 -4.8269284962295068e-09 0.0000000000000000e+00  4.9992031395130699e-06 2.0649053663739652e-09 0.0000000000000000e+00  5.0007402492675540e-06 3.9153391789955901e-09 0.0000000000000000e+00  5.0880609860460720e-06 -6.5536846156772876e-07 0.0000000000000000e+00  4.8467624570515847e-06 1.8017930911436117e-07 0.0000000000000000e+00  4.4835491076877127e-06 2.5293238534576425e-07 0.0000000000000000e+00  4.9946991009997347e-06 7.6765216882399596e-09 0.0000000000000000e+00  5.0071218543070212e-06 1.4885730464365321e-09 0.0000000000000000e+00  5.0041871195478193e-06 -7.7797622079238041e-09 0.0000000000000000e+00  4.9994917539592362e-06 -1.3266707049237590e-08 0.0000000000000000e+00  5.0032315347020159e-06 -7.4801257020466109e-10 0.0000000000000000e+00  4.9924247200014117e-06 1.6673696299172305e-08 0.0000000000000000e+00  5.0052262689552888e-06 1.5482237917970556e-10 0.0000000000000000e+00  5.0616783010637241e-06 -1.0586854718037675e-09 0.0000000000000000e+00  4.9838454157183828e-06 -3.4677918956860048e-08 0.0000000000000000e+00  4.9770932332702675e-06 -8.7176705152895898e-09 0.0000000000000000e+00  4.9823939371315216e-06 -7.6678521594493824e-08 0.0000000000000000e+00  5.0654228851188672e-06 2.1145624119612233e-10 0.0000000000000000e+00  4.9839951947073125e-06 -9.8032844842624834e-09 0.0000000000000000e+00  4.9349964786939380e-06 -3.5557704728360142e-08 0.0000000000000000e+00  4.9454274435651283e-06 -3.7372910236802934e-08 0.0000000000000000e+00  4.9474488123073187e-06 -3.2822053267066909e-08 0.0000000000000000e+00  5.0325477023748774e-06 2.4739466924278520e-07 0.0000000000000000e+00  5.1672903239093392e-06 -1.5277425584915441e-07 0.0000000000000000e+00  4.9494584278447492e-06 4.1877314940423993e-08 0.0000000000000000e+00  5.2167372394715327e-06 -1.5566120190939373e-07 0.0000000000000000e+00  5.2300633148074272e-06 -1.5970670498638874e-07 0.0000000000000000e+00  5.2312950805430050e-06 -1.5527095458605691e-07 0.0000000000000000e+00  5.0270869730139639e-06 -3.4262177789307294e-08 0.0000000000000000e+00  5.0020664953097863e-06 2.3582383324801456e-08 0.0000000000000000e+00  5.0036648049612230e-06 1.2778353135650570e-08 0.0000000000000000e+00  5.0052338341141492e-06 -1.2801151213749337e-09 0.0000000000000000e+00  5.0045615712475114e-06 -4.4627451467624802e-09 0.0000000000000000e+00  4.9936283650603759e-06 8.6137215068965894e-09 0.0000000000000000e+00  6.6775875194108156e-06 -6.8658769992420503e-07 0.0000000000000000e+00  6.9799135646005721e-06 -1.1632323524512216e-06 0.0000000000000000e+00  6.6995851458750960e-06 -7.0089879077485641e-07 0.0000000000000000e+00  5.0079713696515402e-06 -3.5520737635808627e-10 0.0000000000000000e+00  6.3963054215626604e-06 2.2560887761718634e-07 0.0000000000000000e+00  6.3549808715789799e-06 4.9647125577153907e-07 0.0000000000000000e+00  6.3397329197012282e-06 5.1723601497273506e-07 0.0000000000000000e+00  5.1295615703173580e-06 -1.4399397995977670e-07 0.0000000000000000e+00  5.1080986546967742e-06 -1.2723566185385564e-07 0.0000000000000000e+00  5.0984946636132258e-06 -1.4999013436104154e-07 0.0000000000000000e+00  5.0390192367587597e-06 -5.1040097140337412e-08 0.0000000000000000e+00  5.0665349019042127e-06 2.8231919325436095e-08 0.0000000000000000e+00  4.9312035955955022e-06 -2.1797293969174675e-08 0.0000000000000000e+00  4.9864644023031758e-06 -1.9435866649060238e-08 0.0000000000000000e+00  4.9771219249792858e-06 -6.4371000195516262e-08 0.0000000000000000e+00  4.9676040106473496e-06 -6.6374951517780247e-08 0.0000000000000000e+00  4.9845754897644193e-06 -6.6591809860483275e-08 0.0000000000000000e+00  5.0954427483555853e-06 -3.4729440048772085e-08 0.0000000000000000e+00  4.9556764754872830e-06 -5.3106790118941306e-08 0.0000000000000000e+00  4.9787677214036533e-06 8.4452092087327784e-08 0.0000000000000000e+00  5.0378197043044099e-06 1.6572259025066834e-07 0.0000000000000000e+00  5.0735060920487674e-06 1.7171236774723863e-07 0.0000000000000000e+00  5.0665337925209239e-06 1.6942467511125882e-07 0.0000000000000000e+00  4.9066271466610149e-06 -2.2006164155250770e-07 0.0000000000000000e+00  4.9980678273368175e-06 2.3037505934622035e-07 0.0000000000000000e+00  5.0111596848148366e-06 5.0912538633959673e-09 0.0000000000000000e+00  4.9209246959546901e-06 1.6423664008685961e-07 0.0000000000000000e+00  5.1328457594969168e-06 -4.1652672256297231e-08 0.0000000000000000e+00  4.7825082010939325e-06 -1.1611944842296421e-07 0.0000000000000000e+00  5.1959608036629652e-06 6.4030115306672664e-08 0.0000000000000000e+00  4.9961325761409784e-06 4.2913706330714474e-08 0.0000000000000000e+00  4.9892660965243334e-06 -2.7461374169554764e-08 0.0000000000000000e+00  5.0306549611866839e-06 -3.9892007019723357e-08 0.0000000000000000e+00  5.1260924248541069e-06 -3.2566787392577270e-08 0.0000000000000000e+00  5.2441141621215660e-06 -9.6209995483554322e-08 0.0000000000000000e+00  4.9604890245897071e-06 4.9325218313436829e-08 0.0000000000000000e+00  5.1989754892565096e-06 2.7442528805696462e-07 0.0000000000000000e+00  4.9959796562796844e-06 -4.9455105767241007e-08 0.0000000000000000e+00  5.1973551574978278e-06 -1.3882143508334848e-07 0.0000000000000000e+00  4.8990623996101186e-06 4.4747663502026482e-08 0.0000000000000000e+00  5.0127529796665085e-06 -5.0701849758425037e-08 0.0000000000000000e+00  4.9994678828141676e-06 3.1611132734158274e-10 0.0000000000000000e+00  5.0039623673893974e-06 -1.4525063789451677e-09 0.0000000000000000e+00  5.0033193531538621e-06 1.4185999627622237e-09 0.0000000000000000e+00  4.9997025725677748e-06 3.0464392772867626e-09 0.0000000000000000e+00  4.9522564894921651e-06 -7.2096563806470131e-08 0.0000000000000000e+00  4.9916912369958981e-06 -1.3953259944915270e-08 0.0000000000000000e+00  5.0162240389922674e-06 8.5663387857583082e-09 0.0000000000000000e+00  4.9966731861791677e-06 6.9174062949214689e-09 0.0000000000000000e+00  5.0441380848419247e-06 -1.1809569149270116e-07 0.0000000000000000e+00  5.0192160924308989e-06 -4.9160958794258042e-08 0.0000000000000000e+00  5.0350088511002524e-06 -7.5085466292980527e-08 0.0000000000000000e+00  5.0125462094693732e-06 -6.9893881717149199e-09 0.0000000000000000e+00  4.9969076672252510e-06 9.6969502850224555e-09 0.0000000000000000e+00  5.0023231840937502e-06 -2.8018096654581649e-09 0.0000000000000000e+00  5.0032114758061509e-06 -2.0164751738791926e-08 0.0000000000000000e+00  4.9746633599134773e-06 5.1123763403969867e-08 0.0000000000000000e+00  5.0072224644779759e-06 7.5644567910794419e-09 0.0000000000000000e+00  4.9884220237807360e-06 -3.6291382140920765e-08 0.0000000000000000e+00  4.9940895659349638e-06 -1.0696204933186075e-08 0.0000000000000000e+00  5.0340632353369628e-06 4.9929155687636111e-09 0.0000000000000000e+00  4.9598695637541375e-06 3.5070529129757191e-09 0.0000000000000000e+00  5.0096161299730713e-06 -3.1627891033124314e-08 0.0000000000000000e+00  4.9989621226424173e-06 -9.6719802842976495e-09 0.0000000000000000e+00  5.0007040948600689e-06 -2.0811044449464281e-09 0.0000000000000000e+00  5.0009315746280167e-06 8.5560367402837049e-09 0.0000000000000000e+00  4.9354246748098115e-06 -1.2617792163504878e-07 0.0000000000000000e+00  4.9448270794779927e-06 3.7118812311643468e-08 0.0000000000000000e+00  4.9027888549179121e-06 2.6814454354323606e-08 0.0000000000000000e+00  4.9804999102293010e-06 5.5602923967394629e-09 0.0000000000000000e+00  5.0004607775941463e-06 1.4328683453106873e-08 0.0000000000000000e+00  5.0197435335051499e-06 -1.0776725809245722e-08 0.0000000000000000e+00  4.9961614534690322e-06 8.4351318563983429e-08 0.0000000000000000e+00  5.0456437627083912e-06 2.5094375788381934e-08 0.0000000000000000e+00  4.9787594874259633e-06 -4.7708408455801350e-08 0.0000000000000000e+00  4.9890641880962106e-06 6.8478899280809694e-09 0.0000000000000000e+00  4.9949003710823316e-06 -3.9590776020924679e-10 0.0000000000000000e+00  5.0058202317417067e-06 -1.1194548819621594e-09 0.0000000000000000e+00  4.9190641124722847e-06 -4.7510882658539863e-08 0.0000000000000000e+00  4.9306611853460132e-06 -4.4005797284613905e-08 0.0000000000000000e+00  4.9280177784366192e-06 -5.5995641960637921e-08 0.0000000000000000e+00  5.0022362953033473e-06 -1.8460963289060576e-10 0.0000000000000000e+00  5.0033651767076275e-06 -3.6035608388249915e-09 0.0000000000000000e+00  5.0021768788990335e-06 3.0132082952954815e-09 0.0000000000000000e+00  4.9905842026873971e-06 2.3346076083099484e-09 0.0000000000000000e+00  5.0026708059393081e-06 -1.6634619694681105e-09 0.0000000000000000e+00  5.0051909433154950e-06 -4.1478166872692417e-09 0.0000000000000000e+00  4.6635100830577064e-06 -6.9821803961603485e-08 0.0000000000000000e+00  5.2877018062650224e-06 2.1286793105638459e-07 0.0000000000000000e+00  6.2895751553160082e-06 -7.1954827135267258e-07 0.0000000000000000e+00  4.9724413412878209e-06 1.0138963740523139e-08 0.0000000000000000e+00  6.0976698619498796e-06 7.4481786971070889e-07 0.0000000000000000e+00  4.8029637836179038e-06 -1.7680880207438064e-07 0.0000000000000000e+00  4.4455352684616284e-06 -9.7888453305561509e-08 0.0000000000000000e+00  5.1664001353214426e-06 -1.8407026756146920e-07 0.0000000000000000e+00  5.0352118903443920e-06 3.5842162540770938e-07 0.0000000000000000e+00  4.9957423783113037e-06 -1.9627335404565251e-09 0.0000000000000000e+00  5.0074588151954801e-06 6.6833133458293090e-09 0.0000000000000000e+00  4.6260871738621716e-06 4.2657220162753126e-08 0.0000000000000000e+00  5.5270739459926445e-06 -4.0974425336713016e-07 0.0000000000000000e+00  5.5082099648513971e-06 3.7117355929468213e-07 0.0000000000000000e+00  5.0418706526593387e-06 9.3747141578080840e-09 0.0000000000000000e+00  5.0144461898672562e-06 -2.9406198042981131e-07 0.0000000000000000e+00  5.2241746328059393e-06 -5.5931626579220413e-08 0.0000000000000000e+00  4.9896376987374690e-06 9.8920539790887079e-09 0.0000000000000000e+00  5.0061085811141647e-06 1.0528948402506023e-08 0.0000000000000000e+00  5.0050379049381176e-06 -8.9929770835657452e-09 0.0000000000000000e+00  5.0006093567532855e-06 -1.0991641844743422e-08 0.0000000000000000e+00  5.0035780880744364e-06 2.1632113515307265e-08 0.0000000000000000e+00  5.0147302864595912e-06 4.9510488235396391e-10 0.0000000000000000e+00  3.1023143717801610e-06 -1.0246356871376531e-06 0.0000000000000000e+00  2.7583292212642882e-06 -1.3104516358103958e-06 0.0000000000000000e+00  3.3013619147723072e-06 -1.2724942472873217e-06 0.0000000000000000e+00  5.3622836721672157e-06 -6.0768359007546958e-07 0.0000000000000000e+00  4.9938609694997384e-06 -4.5810953149760058e-08 0.0000000000000000e+00  4.9014937349649102e-06 3.3864248632610497e-07 0.0000000000000000e+00  5.1329911050270916e-06 6.8905749176085852e-07 0.0000000000000000e+00  4.9224172021551307e-06 -2.1572763768401367e-07 0.0000000000000000e+00  4.4675330223191236e-06 -2.7602201794207138e-07 0.0000000000000000e+00  4.8846667688740446e-06 -2.6897642661450393e-08 0.0000000000000000e+00  4.8962973654670714e-06 -3.0013167864921399e-08 0.0000000000000000e+00  4.8838300840867845e-06 -4.3093766749393574e-08 0.0000000000000000e+00  0.0000000000000000e+00 0.0000000000000000e+00 0.0000000000000000e+00  0.0000000000000000e+00 0.0000000000000000e+00 0.0000000000000000e+00  3.8267576052271257e-06 5.5128754617249786e-09 0.0000000000000000e+00  5.0264375759612717e-06 -9.3960210239445887e-08 0.0000000000000000e+00  4.9599688302857700e-06 2.6285059347946327e-08 0.0000000000000000e+00  4.9668172829784046e-06 1.8073262386225474e-08 0.0000000000000000e+00  4.9685958896661736e-06 9.1339843490898086e-09 0.0000000000000000e+00  4.7943812377712707e-06 -1.4129942087951935e-07 0.0000000000000000e+00  4.9834595662200311e-06 -2.2190083324858209e-07 0.0000000000000000e+00  5.0309637728840653e-06 3.6862736293907372e-07 0.0000000000000000e+00  4.9963248084144627e-06 -1.2066285644542038e-09 0.0000000000000000e+00  5.0015404945206127e-06 -1.7059683995055883e-09 0.0000000000000000e+00  5.0004676931142608e-06 2.7832277492231395e-09 0.0000000000000000e+00  4.9962876472805700e-06 4.7435700761333753e-08 0.0000000000000000e+00  5.0885815486052163e-06 -5.8647148382253862e-08 0.0000000000000000e+00  4.9237738328278749e-06 9.4374664381878870e-08 0.0000000000000000e+00  4.9870356817880337e-06 3.6992169405672784e-09 0.0000000000000000e+00  5.0098998778684124e-06 7.8332817990215915e-08 0.0000000000000000e+00  4.9971730095166054e-06 -4.1083944202917332e-08 0.0000000000000000e+00  1.7196790921942842e-06 -2.7179310900305570e-07 0.0000000000000000e+00  1.1935594491477262e-06 -4.5817945050011436e-07 0.0000000000000000e+00  1.3255778110897933e-06 -1.0521731804320263e-07 0.0000000000000000e+00  4.6803077508120541e-06 -4.1620567022687111e-07 0.0000000000000000e+00  4.6675838235176408e-06 -3.4900731625600859e-07 0.0000000000000000e+00  4.7271273913291875e-06 -3.7838344143123677e-07 0.0000000000000000e+00  4.9862882376263212e-06 -9.4820323942481803e-09 0.0000000000000000e+00  5.0072943619824241e-06 -1.7125272693798530e-08 0.0000000000000000e+00  5.0008047713020072e-06 1.5048760643654438e-08 0.0000000000000000e+00  4.9117839538522005e-06 -2.5394573554029004e-09 0.0000000000000000e+00  5.0733430435911161e-06 2.0942064804359573e-07 0.0000000000000000e+00  5.1142744374139787e-06 -1.9701480038147027e-07 0.0000000000000000e+00  5.0047805550387329e-06 1.1895687424484860e-08 0.0000000000000000e+00  4.9816417654662405e-06 -9.7436178651354374e-09 0.0000000000000000e+00  5.0202098906467434e-06 1.4068790739980724e-08 0.0000000000000000e+00  5.9276540726322172e-06 -2.9712243482631605e-07 0.0000000000000000e+00  5.9189950320605724e-06 -1.9165722866590029e-07 0.0000000000000000e+00  5.9586359921940901e-06 -2.3134808923989915e-07 0.0000000000000000e+00  4.9468022430435913e-06 3.6622008348644298e-08 0.0000000000000000e+00  5.1124005983921595e-06 -8.2526304363593272e-08 0.0000000000000000e+00  4.9962330810428528e-06 1.7300534124351323e-08 0.0000000000000000e+00  4.9986024361507387e-06 1.6604723732661698e-08 0.0000000000000000e+00  4.9772762500509573e-06 2.3896952602663783e-09 0.0000000000000000e+00  5.0108789435944665e-06 -2.9660287576881815e-08 0.0000000000000000e+00  5.0062423628834153e-06 1.9014699624793900e-08 0.0000000000000000e+00  4.9798412721403186e-06 -3.3490375049165777e-08 0.0000000000000000e+00  4.9952652571010755e-06 -1.4329415785610631e-09 0.0000000000000000e+00  4.9668793855104982e-06 6.8622860340893426e-08 0.0000000000000000e+00  4.9735927763993931e-06 7.7878970897580951e-08 0.0000000000000000e+00  4.9875371182684775e-06 6.9187182298228728e-08 0.0000000000000000e+00  0.0000000000000000e+00 0.0000000000000000e+00 0.0000000000000000e+00  0.0000000000000000e+00 0.0000000000000000e+00 0.0000000000000000e+00  6.4098365246773265e-06 -2.3486031461995506e-07 0.0000000000000000e+00  5.8992968274830672e-06 2.1564667816129229e-06 0.0000000000000000e+00  6.1951859850322794e-06 1.5916024949025518e-06 0.0000000000000000e+00  5.7214631557747519e-06 1.9725736915720318e-06 0.0000000000000000e+00  4.9998036884486401e-06 -5.9401733249586203e-09 0.0000000000000000e+00  5.0013813464489588e-06 -8.3901289363945018e-09 0.0000000000000000e+00  5.0023747015625952e-06 4.2322684440195948e-09 0.0000000000000000e+00  4.9689698766264315e-06 6.2904548475683970e-08 0.0000000000000000e+00  4.9586714225397399e-06 -9.9934022328836468e-08 0.0000000000000000e+00  4.9927547697242992e-06 1.1413210502680625e-07 0.0000000000000000e+00  6.2009150352345057e-07 -2.8310945687617042e-06 0.0000000000000000e+00  1.4703139870360075e-06 -3.3378593404471124e-06 0.0000000000000000e+00  7.8611988954992462e-07 -2.6053227288339430e-06 0.0000000000000000e+00  4.9979377052290774e-06 -3.3377552094275271e-09 0.0000000000000000e+00  5.0056807261296273e-06 -1.0966694069619794e-09 0.0000000000000000e+00  5.0024371935972390e-06 1.2861579120227588e-09 0.0000000000000000e+00  4.9978648609408216e-06 -3.5659610800070424e-09 0.0000000000000000e+00  4.9898299853186842e-06 1.1936351184020295e-08 0.0000000000000000e+00  5.0223131959641123e-06 4.9695391938960584e-09 0.0000000000000000e+00  4.9882652986033537e-06 -2.5453130075987393e-08 0.0000000000000000e+00  5.0094341102784470e-06 -5.0218868943680917e-09 0.0000000000000000e+00  4.9911035312876775e-06 3.4181106292528380e-09 0.0000000000000000e+00  4.9858812266964951e-06 4.9453222303710338e-09 0.0000000000000000e+00  4.9982122394249978e-06 -9.3270275999463245e-09 0.0000000000000000e+00  5.0100659625014279e-06 -7.7113588408220626e-10 0.0000000000000000e+00  5.0146669938114038e-06 1.7622590854517549e-08 0.000000000