<?xml version="1.0"?>
<VTKFile type="UnstructuredGrid"  version="0.1"  >
<UnstructuredGrid>
<Piece  NumberOfPoints="1419" NumberOfCells="2698">
<Points>
<DataArray  type="Float64"  NumberOfComponents="3"  format="ascii">0 0 0  0 0.41 0  2.5 0 0  2.5 0.41 0  0.5999852508483343 0.1899738090093925 0  0.5999869031323624 0.2099696577025701 0  0.25 0.2 0  0.15 0.2 0  0.2489897948556636 0.21 0  0.2489897948556636 0.19 0  0.5999857557837972 0.1999717327930012 0  0 0.3807142857143437 0  0 0.3514285714286952 0  0 0.3221428571430699 0  0 0.29285714285744 0  0 0.2635714285718054 0  0 0.2342857142861561 0  0 0.2050000000005308 0  0 0.175714285714732 0  0 0.1464285714289574 0  0 0.1171428571431897 0  0 0.08785714285737878 0  0 0.05857142857161107 0  0 0.02928571428580012 0  0.03015443760436003 0 0  0.06140001986583606 0 0  0.09377624077125973 0 0  0.1273239957535082 0 0  0.1620856860351972 0 0  0.1981052433264291 0 0  0.235428184091502 0 0  0.2741016576309132 0 0  0.3141745521465447 0 0  0.3556974926295285 0 0  0.3987229542472677 0 0  0.4433053055141081 0 0  0.4895008759286886 0 0  0.5373680609405097 0 0  0.5869673343216626 0 0  0.6383613676634521 0 0  0.6916151138468254 0 0  0.7467958595648856 0 0  0.8039733463919316 0 0  0.8632198139502143 0 0  0.9246101326867038 0 0  0.9882218810934433 0 0  1.054135445558498 0 0  1.122434100542598 0 0  1.193204177141305 0 0  1.266535089879536 0 0  1.342519516046404 0 0  1.421253448503939 0 0  1.502836389106271 0 0  1.587371439758838 0 0  1.674965418777374 0 0  1.765729001825544 0 0  1.859776908880082 0 0  1.957227977487062 0 0  2.058205329869943 0 0  2.162836591189951 0 0  2.271253957290865 0 0  2.383594446803425 0 0  2.5 0.1024999999997612 0  2.5 0.2049999999994743 0  2.5 0.3074999999997183 0  2.383594446803656 0.41 0  2.271253957291315 0.41 0  2.162836591190598 0.41 0  2.058205329870775 0.41 0  1.957227977488067 0.41 0  1.859776908881246 0.41 0  1.765729001826854 0.41 0  1.674965418778818 0.41 0  1.58737143976041 0.41 0  1.502836389107956 0.41 0  1.421253448505726 0.41 0  1.342519516048286 0.41 0  1.266535089881505 0.41 0  1.193204177143353 0.41 0  1.122434100544716 0.41 0  1.05413544556068 0.41 0  0.9882218810956305 0.41 0  0.9246101326886647 0.41 0  0.8632198139519631 0.41 0  0.8039733463934788 0.41 0  0.7467958595662458 0.41 0  0.6916151138480078 0.41 0  0.6383613676644679 0.41 0  0.5869673343225223 0.41 0  0.5373680609412221 0.41 0  0.4895008759292634 0.41 0  0.4433053055145528 0.41 0  0.3987229542475914 0.41 0  0.3556974926297398 0.41 0  0.3141745521466497 0.41 0  0.2741016576310038 0.41 0  0.2354281840915826 0.41 0  0.1981052433265003 0.41 0  0.1620856860352591 0.41 0  0.1273239957535623 0.41 0  0.09377624077128965 0.41 0  0.06140001986584975 0.41 0  0.03015443760436654 0.41 0  0.2497468076502589 0.2050254481002335 0  0.2497468076502614 0.1949745518997913 0  0.2469965252529372 0.1829317073451959 0  0.2439893735792749 0.1762316384219906 0  0.2400332147834255 0.1700443375285386 0  0.2352133972704371 0.1645032867342007 0  0.2296339016332438 0.1597280261969788 0  0.2234150974217223 0.1558215752574715 0  0.2166911463437691 0.1528682099456123 0  0.2096071079204251 0.1509316448471593 0  0.2023158100364996 0.1500536585536553 0  0.194974551899914 0.1502531923497262 0  0.1877417105387872 0.1515259415822739 0  0.1807733240461124 0.153844448527136 0  0.1742197252835808 0.15715869474974 0  0.1682222986673531 0.1613971801805478 0  0.162910430003803 0.1664684656256651 0  0.1583987151779087 0.1722631454351573 0  0.1547844879126891 0.178656207771761 0  0.1521457199348551 0.1855097315605723 0  0.1505393388476355 0.1926758619366523 0  0.1505393388476328 0.2073241380633295 0  0.1521457199348437 0.2144902684393899 0  0.1547844879126531 0.221343792228163 0  0.1583987151778488 0.2277368545647528 0  0.1629104300036858 0.2335315343742052 0  0.1682222986671726 0.2386028198193036 0  0.1742197252833576 0.2428413052501257 0  0.1807733240458683 0.2461555514727623 0  0.1877417105384929 0.2484740584176516 0  0.1949745518995776 0.2497468076502398 0  0.202315810036185 0.2499463414463592 0  0.2096071079201568 0.2490683551528932 0  0.2166911463435495 0.2471317900544655 0  0.2234150974215506 0.2441784247426195 0  0.2296339016331197 0.2402719738031125 0  0.2352133972703547 0.2354967132658811 0  0.2400332147833751 0.2299556624715287 0  0.2439893735792577 0.2237683615780412 0  0.246996525252926 0.2170682926548348 0  0.2564586358692715 0.2099960861214533 0  0.2639270185672384 0.2099958309247382 0  0.2713957750498358 0.2099956674083669 0  0.2788645790721436 0.2099954331324474 0  0.2863333574871615 0.2099951134464577 0  0.2938021035115492 0.2099947352554744 0  0.3012708012829813 0.2099943105875457 0  0.3087394710906778 0.2099938329977805 0  0.3162080936370844 0.2099933205158308 0  0.3236766730421484 0.2099927666128748 0  0.3311452177299536 0.209992189201407 0  0.3386137152692147 0.209991579007673 0  0.3460821781735645 0.2099909511455975 0  0.353550591121358 0.2099903059083053 0  0.3610189741022452 0.2099896453638783 0  0.3684873095164757 0.2099889762983343 0  0.3759556059651897 0.2099882947561783 0  0.383423863129279 0.2099876157607784 0  0.3908920797554643 0.2099869273323906 0  0.3983602580800719 0.2099862460884312 0  0.4058283963368356 0.2099855606328254 0  0.4132964969753782 0.2099848829225256 0  0.4207645530252729 0.2099842083899476 0  0.4282325794457441 0.2099835418705795 0  0.435700562955313 0.2099828817487225 0  0.4431685095249698 0.2099822265520064 0  0.4506364176302062 0.2099815835296628 0  0.4581042892435807 0.2099809441904552 0  0.4655721224750625 0.2099803175633469 0  0.4730399195760524 0.2099796943775428 0  0.4805076786354606 0.2099790835641973 0  0.487975401569137 0.2099784754889213 0  0.4954430868324613 0.2099778788100924 0  0.5029107358347481 0.2099772839303405 0  0.5103783470947297 0.2099766990912706 0  0.5178459219715669 0.209976114637466 0  0.5253134591299882 0.2099755390211223 0  0.5327809593780971 0.2099749623022206 0  0.5402484215811533 0.2099743932158864 0  0.5477158462609193 0.2099738217976854 0  0.5551832327571814 0.2099732552039216 0  0.5626505758150441 0.2099726898871717 0  0.5701178877689248 0.2099721249765129 0  0.5775851548612959 0.209971564283306 0  0.5850523856340344 0.2099710059306721 0  0.5925196273229315 0.2099704652501612 0  0.5999862150582648 0.2049706723768757 0  0.599985391966891 0.1949727913437528 0  0.5925179747141123 0.1899742320993144 0  0.5850507332168066 0.1899749219153365 0  0.5775835045265557 0.1899755955670384 0  0.5701162381897636 0.1899762671938758 0  0.5626489256002964 0.1899769330867804 0  0.5551815811590056 0.1899775993227315 0  0.5477141901662315 0.1899782663345772 0  0.5402467616423683 0.1899789289915096 0  0.5327792927775785 0.1899796007569227 0  0.5253117851828172 0.1899802667909508 0  0.5178442375710972 0.1899809439663107 0  0.5103766517984484 0.1899816168789402 0  0.5029090260730092 0.1899823023928386 0  0.4954413628292319 0.1899829852039696 0  0.4879736596878263 0.1899836819788301 0  0.4805059196551525 0.1899843774138345 0  0.4730381398869217 0.1899850879400116 0  0.465570323817175 0.1899857981267379 0  0.4581024683790945 0.1899865240444545 0  0.4506345772414014 0.1899872501380874 0  0.4431666473659511 0.1899879919366837 0  0.4356986819782271 0.1899887342618752 0  0.4282306807948078 0.1899894892120968 0  0.4207626384036778 0.1899902493545051 0  0.4132945682986742 0.1899910156760187 0  0.4058264579788174 0.1899917869549573 0  0.3983583138031772 0.1899925590627445 0  0.3908901348928242 0.1899933372396949 0  0.3834219221356576 0.1899941110448763 0  0.3759536762461925 0.1899948866654741 0  0.3684853970217666 0.1899956533904162 0  0.3610170860424829 0.189996414789989 0  0.3535487406147619 0.1899971662678584 0  0.3460803699248965 0.1899979002593152 0  0.338611965402179 0.1899986178267851 0  0.3311435299415924 0.1899993101080891 0  0.3236750690552635 0.1899999791691466 0  0.316206576437343 0.1900006127446781 0  0.3087380596966314 0.1900012110375541 0  0.3012695154594674 0.1900017698103942 0  0.2938009497327879 0.1900022722913951 0  0.2863323601101627 0.1900027232555562 0  0.2788637407651287 0.1900031123922814 0  0.2713951332182643 0.1900034567022689 0  0.263926572111706 0.1900037287457505 0  0.2564584027574792 0.190003724621944 0  0.2607802025990094 0.2000725796661356 0  0.588767912870083 0.2000998729945759 0  0.5744968765347153 0.2001782366337437 0  0.551181820499404 0.2000879934979412 0  0.2751297730789984 0.1999994705691744 0  0.5365138191200761 0.199976969642148 0  0.2894637914038775 0.199868004371363 0  0.521578811694156 0.199978213384794 0  0.3127816347877978 0.1998630880814403 0  0.327410087218113 0.1999960833940496 0  0.5066436512154509 0.1999794718140029 0  0.365066736855614 0.1998587124630222 0  0.4767728758218183 0.1999820554343505 0  0.34174366218633 0.1998640457145901 0  0.3796887294051753 0.1999912301632037 0  0.4618372625086078 0.1999833902115762 0  0.4917083389589021 0.1999807507053427 0  0.3946251585939571 0.1999897669502214 0  0.4469014995774463 0.1999847573213313 0  0.4089581083100151 0.1998575764498744 0  0.4322742039910325 0.2001135410324443 0  0.4201515407417817 0.199983905650032 0  0.3528958618300695 0.2000123698316352 0  0.563303369221906 0.1999561909638432 0  0.3006580641383579 0.1999947287575901 0  0.5815809906195428 0.1966284391548966 0  0.2677057571161138 0.196425805778507 0  0.529046093131285 0.197069853846517 0  0.543981025299025 0.1970685869582188 0  0.2825146160643556 0.2035456853305815 0  0.3199417954134651 0.2029040564849138 0  0.484240373037256 0.1970737460201314 0  0.5141110061030986 0.1970711319917101 0  0.3722207400134743 0.2028994099863714 0  0.469304829160034 0.1970750925581104 0  0.3348788215395135 0.2029028293226502 0  0.3871572458673278 0.2028979780802408 0  0.4543691350301687 0.1970764704650796 0  0.4991757656870726 0.1970724274727785 0  0.4020096381344408 0.2035358321123993 0  0.4394332916322335 0.1970778810628637 0  0.2550652325076135 0.2034077147906059 0  0.2548902857286768 0.1966950422825446 0  0.5946407473929004 0.202402
[...]
<PointData  Scalars="f_46-2"> 
<DataArray  type="Float64"  Name="f_46-2"  format="ascii">1.1859949690495521e+03  1.1845001289329111e+03  1.8035937760442931e+00  2.1077328547630967e+00  8.6378233031127672e+02  8.6571122527682257e+02  0.0000000000000000e+00  1.1748196443850807e+03  1.0475653204791374e+03  1.0474978617897755e+03  8.5822388814863734e+02  1.1873140917028745e+03  1.1946935058233114e+03  1.2036406332801839e+03  1.2126705266890767e+03  1.2206941516902682e+03  1.2265565998660793e+03  1.2283517364702311e+03  1.2268408427884517e+03  1.2215216238861508e+03  1.2139419290068952e+03  1.2047709161893513e+03  1.1956677254739097e+03  1.1881938113582703e+03  1.1832647729265291e+03  1.1729205698160299e+03  1.1589780474281349e+03  1.1415983491514648e+03  1.1219384870573126e+03  1.1005436845567094e+03  1.0775490938185922e+03  1.0543751166303707e+03  1.0318639136175404e+03  1.0092142705177899e+03  9.8597020131407112e+02  9.6271735133290838e+02  9.3821758154912618e+02  9.1389840210420880e+02  8.8826161437087501e+02  8.6279297548982152e+02  8.3790660699576301e+02  8.1169283678909426e+02  7.8483368011715481e+02  7.5769524353060672e+02  7.2966258140791899e+02  6.9969304205221886e+02  6.7026915527400593e+02  6.3806558752418118e+02  6.0492625485686096e+02  5.7230731251824091e+02  5.3673951412167878e+02  5.0022534869627714e+02  4.6196709623994496e+02  4.2381541852461044e+02  3.8246965646184020e+02  3.4086255036228368e+02  2.9740142943098107e+02  2.5202727856857445e+02  2.0551407075027038e+02  1.5687475693961278e+02  1.0751050385278953e+02  5.3743036583290248e+01  -4.3733797316868622e-01  7.8294035657841682e-02  -4.0521240730370506e-01  5.3369324685991380e+01  1.0583746182173869e+02  1.5778116393830851e+02  2.0590072421913484e+02  2.5199094334608614e+02  2.9743792664640705e+02  3.4078080765821943e+02  3.8188057078805360e+02  4.2445598136486944e+02  4.6202201940791406e+02  5.0025224989153105e+02  5.3688331299570427e+02  5.7237493376691930e+02  6.0499217068000985e+02  6.3799580824907287e+02  6.7030639050119498e+02  6.9964653773143993e+02  7.2950492974819770e+02  7.5814128825238697e+02  7.8505732861527008e+02  8.1188411157719861e+02  8.3776396787401586e+02  8.6334529437987931e+02  8.8898210646678922e+02  9.1409256199490653e+02  9.3864511191725762e+02  9.6299488210114077e+02  9.8663231214983921e+02  1.0092760985931556e+03  1.0322903274868459e+03  1.0549943513531966e+03  1.0776124047247215e+03  1.1001350416183368e+03  1.1210803104735000e+03  1.1407650944457191e+03  1.1577162683824265e+03  1.1716738377339682e+03  1.1823192163592164e+03  0.0000000000000000e+00  0.0000000000000000e+00  1.0464364968411155e+03  1.0467482596058487e+03  1.0494159933191531e+03  1.0532343387413871e+03  1.0583069220238951e+03  1.0644871710857794e+03  1.0718137362048262e+03  1.0799062996935297e+03  1.0892104797829604e+03  1.0987397620207871e+03  1.1091636581819064e+03  1.1194367676780653e+03  1.1301090225153548e+03  1.1398895587690381e+03  1.1495258699614146e+03  1.1577022088354202e+03  1.1649495475189224e+03  1.1702093517855833e+03  1.1736507032223096e+03  1.1733873660053996e+03  1.1710295540215668e+03  1.1649582298573175e+03  1.1577288258958270e+03  1.1495335967477306e+03  1.1399224126453191e+03  1.1298842155047460e+03  1.1195755359716750e+03  1.1090542016436295e+03  1.0987703206847236e+03  1.0890834541415566e+03  1.0798467702678238e+03  1.0718853385518919e+03  1.0643882942698117e+03  1.0584369194446497e+03  1.0532067162643939e+03  1.0495325402067203e+03  1.0468013696340292e+03  1.0465086288273465e+03  1.0490341373979118e+03  1.0483785111138727e+03  1.0466684971129685e+03  1.0441441330318744e+03  1.0412443938066051e+03  1.0380372788541483e+03  1.0346512540993463e+03  1.0311810939407223e+03  1.0275881898809878e+03  1.0239688899731002e+03  1.0202631699314620e+03  1.0165431336978213e+03  1.0127516701389085e+03  1.0089756030588004e+03  1.0051472443854078e+03  1.0013297880110598e+03  9.9745951728591274e+02  9.9360078393282276e+02  9.8972038555000165e+02  9.8584293535289919e+02  9.8193737413494398e+02  9.7801791673560047e+02  9.7412736229808502e+02  9.7017864968871800e+02  9.6628317902011247e+02  9.6231144342658149e+02  9.5839552087924960e+02  9.5444218209249243e+02  9.5047630210856335e+02  9.4653804142382478e+02  9.4253560245752453e+02  9.3858205105212494e+02  9.3460140537164591e+02  9.3056564721598284e+02  9.2656402513130888e+02  9.2254466074235086e+02  9.1849879114567568e+02  9.1444198575433882e+02  9.1031933582194915e+02  9.0621029320308514e+02  9.0204262396792137e+02  8.9780792197211645e+02  8.9353654847401913e+02  8.8921657645749906e+02  8.8424445798285524e+02  8.8243449345245222e+02  8.5155870079631541e+02  8.5149268117577401e+02  8.8263720387427395e+02  8.8422946243949502e+02  8.8923886345102142e+02  8.9355181512909292e+02  8.9782515310153303e+02  9.0203755516494073e+02  9.0622312070457974e+02  9.1032133447404624e+02  9.1442493024828627e+02  9.1847073602286673e+02  9.2253900348005391e+02  9.2654449074568538e+02  9.3056264628013139e+02  9.3453977097321183e+02  9.3853347749376962e+02  9.4248707929794273e+02  9.4647761934904383e+02  9.5042051907180689e+02  9.5437939105682642e+02  9.5830311114645019e+02  9.6225038472902781e+02  9.6616435310858378e+02  9.7011431877421205e+02  9.7401441266783922e+02  9.7793588821436674e+02  9.8182316346806158e+02  9.8572954266208671e+02  9.8959763695253662e+02  9.9349942836802177e+02  9.9735060876011642e+02  1.0012137774131760e+03  1.0050308214435213e+03  1.0088592593356377e+03  1.0126399706010372e+03  1.0164330959327782e+03  1.0201513531625935e+03  1.0238627128943886e+03  1.0274858367399374e+03  1.0310827629387993e+03  1.0345590863073039e+03  1.0379488617578777e+03  1.0411591442948545e+03  1.0440645290810546e+03  1.0465989529085250e+03  1.0483124908498769e+03  1.0489658393578409e+03  0.0000000000000000e+00  0.0000000000000000e+00  0.0000000000000000e+00  0.0000000000000000e+00  0.0000000000000000e+00  0.0000000000000000e+00  0.0000000000000000e+00  0.0000000000000000e+00  0.0000000000000000e+00  0.0000000000000000e+00  0.0000000000000000e+00  0.0000000000000000e+00  0.0000000000000000e+00  0.0000000000000000e+00  0.0000000000000000e+00  0.0000000000000000e+00  0.0000000000000000e+00  0.0000000000000000e+00  0.0000000000000000e+00  0.0000000000000000e+00  0.0000000000000000e+00  0.0000000000000000e+00  0.0000000000000000e+00  0.0000000000000000e+00  0.0000000000000000e+00  0.0000000000000000e+00  0.0000000000000000e+00  0.0000000000000000e+00  0.0000000000000000e+00  0.0000000000000000e+00  0.0000000000000000e+00  0.0000000000000000e+00  0.0000000000000000e+00  0.0000000000000000e+00  0.0000000000000000e+00  0.0000000000000000e+00  0.0000000000000000e+00  0.0000000000000000e+00  0.0000000000000000e+00  0.0000000000000000e+00  0.0000000000000000e+00  0.0000000000000000e+00  0.0000000000000000e+00  0.0000000000000000e+00  0.0000000000000000e+00  0.0000000000000000e+00  0.0000000000000000e+00  0.0000000000000000e+00  0.0000000000000000e+00  0.0000000000000000e+00  0.0000000000000000e+00  0.0000000000000000e+00  0.0000000000000000e+00  0.0000000000000000e+00  0.0000000000000000e+00  0.0000000000000000e+00  0.0000000000000000e+00  0.0000000000000000e+00  0.0000000000000000e+00  0.0000000000000000e+00  0.0000000000000000e+00  0.0000000000000000e+00  0.0000000000000000e+00  0.0000000000000000e+00  0.0000000000000000e+00  0.0000000000000000e+00  0.0000000000000000e+00  0.0000000000000000e+00  0.0000000000000000e+00  0.0000000000000000e+00  0.0000000000000000e+00  0.0000000000000000e+00  0.0000000000000000e+00  0.0000000000000000e+00  0.0000000000000000e+00  0.0000000000000000e+00  0.0000000000000000e+00  0.0000000000000000e+00  0.0000000000000000e+00  0.0000000000000000e+00  0.0000000000000000e+00  0.0000000000000000e+00  0.0000000000000000e+00  0.0000000000000000e+00  0.0000000000000000e+00  0.0000000000000000e+00  0.0000000000000000e+00  0.0000000000000000e+00  0.0000000000000000e+00  0.0000000000000000e+00  0.0000000000000000e+00  0.0000000000000000e+00  0.0000000000000000e+00  0.0000000000000000e+00  0.0000000000000000e+00  0.0000000000000000e+00  0.0000000000000000e+00  0.0000000000000000e+00  0.0000000000000000e+00  0.0000000000000000e+00  0.0000000000000000e+00  0.0000000000000000e+00  0.0000000000000000e+00  0.0000000000000000e+00  0.0000000000000000e+00  0.0000000000000000e+00  0.0000000000000000e+00  0.0000000000000000e+00  0.0000000000000000e+00  0.0000000000000000e+00  0.0000000000000000e+00  0.0000000000000000e+00  0.0000000000000000e+00  0.0000000000000000e+00  0.0000000000000000e+00  0.0000000000000000e+00  0.0000000000000000e+00  0.0000000000000000e+00  0.0000000000000000e+00  0.0000000000000000e+00  0.0000000000000000e+00  0.0000000000000000e+00  0.0000000000000000e+00  1.0389075379200322e+03  1.0373305764285892e+03  7.8691959261121019e+02  9.8865950985320490e+02  9.3785010991186709e+02  9.9187877737581380e+02  8.8620697501893255e+02  9.4475937511883421e+02  1.1624407062406369e+03  8.9626285774245719e+02  1.1681717263339701e+03  1.1253791486109196e+03  1.0795352678744330e+03  1.1211833252017850e+03  1.1771971900149106e+03  1.0781049880252851e+03  1.0457594220961155e+03  1.0462828554950029e+03  1.1799207068422763e+03  1.0262276725439344e+03  1.0261060730002541e+03  1.0028121677698462e+03  8.3093113428935817e+02  1.0027378994408060e+03  9.8022532276410334e+02  9.5347948687034045e+02  9.7995777816465227e+02  9.5586390760589677e+02  9.3113388113867381e+02  9.1218024581727957e+02  9.0808691023629410e+02  1.1502918577090627e+03  8.8588215126936109e+02  1.1504906112495200e+03  8.8839760614193790e+02  8.4931322033098093e+02  1.0632690707659231e+03  1.0621496812165162e+03  8.5249851375752417e+02  8.5898091320473054e+02  9.3102899701397553e+02  1.1752129541974996e+03  1.0968139250715517e+03  1.1096963009799642e+03  6.9068457899523014e+02  1.1284785539698430e+03  1.1622886287637002e+03  1.1622547397550570e+03  5.9525935392949998e+02  9.6473791693816804e+02  1.0358397722076943e+03  8.5951979137634896e+02  1.0357428203242737e+03  1.0148691085665562e+03  9.9165237747717424e+02  1.1287256075543962e+03  1.0882219077200532e+03  1.0147326951221689e+03  9.0485157853581040e+02  9.9152199852195781e+02  1.0791053672840374e+03  8.2465075787696992e+02  9.6811773610061971e+02  1.1451233952965367e+03  5.0093833827575048e+02  9.4446673093077618e+02  9.2050091226115001e+02  1.0153573780627621e+03  8.9566330290317649e+02  9.4353461629378535e+02  9.2088562363366168e+02  8.7832818763160992e+02  1.1705255892804612e+03  8.6847424112980627e+02  4.0418027099810922e+02  8.6142210259957585e+02  1.0160081084353525e+03  1.1454782026725979e+03  8.9126809510671455e+02  1.1919796367654360e+03  1.1976443138426505e+03  1.1554347026852765e+03  1.0480927055883205e+03  1.0528164799232338e+03  1.0480003093359519e+03  1.0531747370067931e+03  9.6903817218752033e+02  8.7792203740392210e+02  1.0256631146090438e+03  9.7626089577582877e+02  1.1937383678789129e+03  1.0255490954570505e+03  1.1409816386074981e+03  3.0866129432752342e+02  1.0032111686013684e+03  8.0462544756998579e+02  8.6199238644049342e+02  9.1894948583763619e+02  1.1806052541772924e+03  1.0030741688860148e+03  9.7985439400966186e+02  1.1772468597421064e+03  1.0540560393367291e+03  1.1013664891250787e+03  1.1702223658859543e+03  9.5631883162299994e+02  1.1065792602411325e+03  9.3252543944193394e+02  1.0265815265843744e+03  9.6320070951667105e+02  7.3682738096884452e+02  7.3694930648352818e+02  9.0823925892648106e+02  2.2659059076935702e+02  1.1680901573801098e+03  9.5673132023640528e+02  1.1068260130812259e+03  9.1325752536475534e+02  1.0430089263939183e+03  1.0706637885548298e+03  8.6640504876213095e+02  8.5383116443829238e+02  1.0430399837713933e+03  1.1490714030888453e+03  9.3250049156496789e+02  1.0262389527577225e+03  1.0545761125283127e+03  8.7144889602295461e+02  1.2950677055692447e+02  1.1659124025144783e+03  1.0627006539853430e+03  9.1234039735497697e+02  6.4315255026738362e+02  6.4258031861825350e+02  9.8419894348473304e+02  9.6821953919965051e+02  9.6764874985781171e+02  1.1006656061162848e+03  1.0578007503014610e+03  8.8710379267089445e+02  1.0377026214796849e+03  9.7781370583142541e+02  1.1452446746594640e+03  1.1346702190555111e+03  8.9992765499595725e+02  7.7992239487099516e+02  1.0377120230830922e+03  9.7559571233096779e+02  1.1604111787293916e+03  1.0483533328033934e+03  8.6236084550656597e+02  9.4843452947045728e+02  1.0485193576892793e+03  1.1254291547963019e+03  1.1843162071003017e+03  9.2861333287064633e+02  5.4841415159639871e+02  5.5002000541395967e+02  9.9187152804303707e+02  1.0186143785183419e+03  1.0108073670475007e+03  1.1598522993493382e+03  1.0149067295833479e+03  1.0104754152071105e+03  1.0185016881290104e+03  9.9515794502790527e+02  1.0325764042278249e+03  9.9560409714165644e+02  9.8764060958255595e+02  6.9356464200252776e+02  6.9212977216937861e+02  1.0855086214298296e+03  1.1940027147274484e+03  1.0324785119818471e+03  1.0149304190399096e+03  9.6396915012128613e+02  9.7203761669569383e+02  1.0006943183942232e+03  9.4864700436351120e+02  9.4048966758811616e+02  1.1714415834492938e+03  8.2143744937778854e+02  9.1617482566123203e+02  9.2450088689317226e+02  1.1722819767667525e+03  1.0823648396585622e+03  9.9107239622474583e+02  8.9946301908376142e+02  8.3543711495224215e+02  8.0689128696402133e+02  1.1127107385818738e+03  4.5262477630087614e+02  4.5501321476847613e+02  1.1797705202339625e+03  1.0994663197324448e+03  1.0783001423757162e+03  9.4035385635930345e+02  9.4878428806410227e+02  1.1646852595009843e+03  9.6839931808217955e+02  9.2405320207793409e+02  1.1861396986051348e+03  1.0606310883976143e+03  9.2879137890012998e+02  1.0021793260006502e+03  8.7643019975265702e+02  8.6706884621569282e+02  1.1255073539529026e+03  1.1153318072607053e+03  9.4400191858987125e+02  8.9674960516465376e+02  1.0765592323845146e+03  1.1932844781185768e+03  1.0611853166193314e+03  1.1611584259454539e+03  9.2145317946068235e+02  8.9366329337388072e+02  8.8505801303194505e+02  8.7009822716686983e+02  1.0307540491076941e+03  1.1382528580570645e+03  1.0397273115078558e+03  1.1731243690633805e+03  1.0538768660939634e+03  5.9706848600873707e+02  5.9647092738663855e+02  1.0396584867359009e+03  1.0864106577843399e+03  1.1353246665618576e+03  8.9517770432717259e+02  3.5647135992538722e+02  3.5797562623672076e+02  8.7592387339681534e+02  1.0298802618127459e+03  1.0499337865256784e+03  1.1820132774804597e+03  8.3813475294760349e+02  1.0499714167384820e+03  9.5474996294564482e+02  7.7015474172773997e+02  1.0544011659803655e+03  1.0744950133480445e+03  1.1697696653502362e+03  8.4760101679426327e+02  1.1201408746459661e+03  1.0936785649570822e+03  8.8742989199363012e+02  8.4415775142495181e+02  9.7904215368046562e+02  8.3328384613855792e+02  1.1598457271716516e+03  9.9971055686116154e+02  1.0575888438651207e+03  1.0692301090643255e+03  9.8247583510858112e+02  1.1438467434860102e+03  9.2874297948416950e+02  1.1623837901116858e+03  7.4816929906236078e+02  9.4025353001031056e+02  9.4954591652296529e+02  9.2339738557043745e+02  1.1811598005278904e+03  1.0057412312935456e+03  1.1697921842507012e+03  8.6084998588001395e+02  9.1251442855847074e+02  2.5876902707519582e+02  2.5874160616590785e+02  1.0256504419621401e+03  9.7608334894056543e+02  5.0222517361535733e+02  5.0144695478876537e+02  1.1660567903072715e+03  1.0255429959373548e+03  9.5271381370544293e+02  5.8716005624776699e+01  9.3482104059318772e+02  1.0457761716648263e+03  1.0032002804666788e+03  1.1757601354164012e+03  9.5243178716621696e+02  1.0457727908668828e+03  1.1561095670590066e+03  1.0030798735125351e+03  1.1154782474607671e+03  9.6027745113423032e+02  1.1753180586249287e+03  1.1849405473401098e+03  9.7985857323530718e+02  1.1551964534895194e+03  1.1441693479398803e+03  1.0486815307507129e+03  9.5632955522593284e+02  9.8966004019948696e+02  9.3252352786778488e+02  1.2115809197080303e+03  9.0053538022103930e+02  9.1344509316284928e+02  9.9407207205873442e+02  1.0647581818942494e+03  4.0453336018643057e+02  4.0942119707872001e+02  9.0820521439043648e+02  1.1617409555097670e+03  1.0470987075587188e+03  8.8275492103810529e+02  1.1420432896917005e+03  8.6679142511641726e+02  1.1885116181536348e+03  8.5191734174981900e+02  9.1783486907458223e+02  1.0044247996227119e+03  9.0657752872819742e+02  1.1511422804960666e+03  9.0797700022617255e+02  1.0465291653965678e+03  1.1600902200175076e+03  1.6404311197623909e+02  1.6553340511070010e+02  9.7223075910798059e+02  1.0940501973544897e+03  1.1404836032434612e+03  8.9339538581118950e+02  8.2703596180472948e+02  1.2071726396352537e+03  8.0094475475232582e+02  1.1150916749239382e+03  9.8390857463982718e+02  1.1813588315753339e+03  1.0303271601845606e+03  7.1427272778672759e+01  1.0264396964827870e+03  6.5555197801671125e+02  1.1798405546873141e+03  7.7866749125077263e+02  8.0880923954257025e+02  1.0876956970670376e+03  1.0250684136627049e+03  1.1238369852251649e+03  1.0413902932501064e+03  1.0479911956005026e+03  1.1093500096665337e+03  1.0302202759381573e+03  1.0479281567318340e+03  1.1253031395598859e+03  1.0770086354216237e+03  1.0941552543603955e+03  7.5179792056176939e+02  8.9412329195434938e+02  1.1341485749451929e+03  8.6964084583023464e+02  1.1937632822127464e+03  1.1173870537448952e+03  1.0410217225933525e+03  8.5183229092301792e+02  9.4589684739872519e+02  1.0500869239912745e+03  1.0530361347160567e+03  8.8428602590169783e+02  1.0208837001340429e+03  9.3254313253452301e+02  1.0524544058549195e+03  1.1461233094103750e+03  1.2030060037620431e+03  1.2012765174123631e+03  1.1525205094350017e+03  1.1344163035203808e+03  1.1780968221348546e+03  1.0345380628367204e+03  1.0624797435494522e+03  1.1662230239350531e+03  1.0146377472764989e+03  9.1728214513792227e+02  1.1659236234990090e+03  1.1875488551788637e+03  1.1831740337979134e+03  8.9588374839247501e+02  1.0145000056693953e+03  7.1958738322208251e+02  1.0207555996164319e+03  7.1704988629812374e+02  7.6351077203692682e+02  1.0765479337606778e+03  9.9154545783482149e+02  1.1705845909636600e+03  3.0709512441630170e+02  3.0951902931559897e+02  1.1678173005263930e+03  8.8013591855969469e+02  1.0088396479662434e+03  9.6810546959417752e+02  9.7886240970959489e+02  1.1526331447526022e+03  1.1344277410538509e+03  9.9832685930189598e+02  9.4448514062641482e+02  9.2045101412627128e+02  8.8622986146935921e+02  1.0040758622217002e+03  1.0396276439257374e+03  9.9811858381798606e+02  1.1174214708462466e+03  1.1131907906011386e+03  8.6864258052296429e+02  1.0160334903745019e+03  1.0889237954787268e+03  8.5858790237700941e+02  1.1928680328703285e+03  1.0394830933679198e+03  1.1550077938925906e+03  1.0087000250009919e+03  9.7600731464932733e+02  9.5204628823067458e+02  9.4453367144038725e+02  5.5727981240734846e+02  8.6013834597633775e+02  1.0578444652413773e+03  9.9842210986136354e+02  1.0570621326293751e+03  1.0890058535095714e+03  7.2158127625076725e+02  1.0431551930052556e+03  6.6283081817015784e+02  1.0656100258686831e+03  1.1051609220848316e+03  1.2091233961402033e+03  9.8460677399104179e+02  1.1540030040193153e+03  1.0431122177997754e+03  6.6210805208766203e+02  1.0466599364642157e+03  8.2861987409322194e+02  8.5225568174811053e+02  8.5924483654486448e+02  1.0666711238185301e+03  1.1865035952639387e+03  9.7439384266505465e+02  1.1043253813650258e+03  1.1483374299533734e+03  1.0957958693405078e+03  1.1392229784360386e+03  8.7863844188667110e+02  1.0625444662385962e+03  1.1355567506689147e+03  1.1358195625981537e+03  1.0692234512950490e+03  1.1753608702509118e+03  9.5937820560490320e+02  1.1747083216246256e+03  1.0361881398172034e+03  1.1491472780088568e+03  1.1655570668781520e+03  1.1722678935548843e+03  1.1178903538994675e+03  8.0244332448596674e+02  1.0360913396201695e+03  1.0230435321112631e+03  9.6092570394384597e+02  9.4989960717432621e+02  1.1598146693654826e+03  9.3314892184810105e+02  9.5153135435774857e+02  1.0580713398234423e+03  1.0390675694826139e+03  1.0404164432679443e+03  9.3758339416779927e+02  1.0801451761945866e+03  1.0697356027655603e+03  1.04384706689