<?xml version="1.0"?>
<VTKFile type="UnstructuredGrid"  version="0.1"  >
<UnstructuredGrid>
<Piece  NumberOfPoints="1419" NumberOfCells="2698">
<Points>
<DataArray  type="Float64"  NumberOfComponents="3"  format="ascii">0 0 0  0 0.41 0  2.5 0 0  2.5 0.41 0  0.4834450579372295 0.2014823959235585 0  0.9052856865541561 -0.1323461405474514 0  0.25 0.2 0  0.15 0.2 0  0.2489897948556636 0.21 0  0.2489897948556636 0.19 0  0.5268583314866542 0.3196495416817605 0  0 0.3807142857143437 0  1.00374213176952e-12 0.3514285714461701 0  0 0.3221428571430699 0  0 0.29285714285744 0  -6.955249658022586e-14 0.2635714285732049 0  0 0.2342857142861561 0  -4.797297234615919e-10 0.2050000008414784 0  0 0.175714285714732 0  0 0.1464285714289574 0  0 0.1171428571431897 0  0 0.08785714285737878 0  0 0.05857142857161107 0  0 0.02928571428580012 0  0.03015443760436003 0 0  0.06140001986583606 0 0  0.09377624077125973 0 0  0.1273239957517046 -4.778356967834023e-11 0  0.1620856860351972 0 0  0.1981052433264291 0 0  0.2354281840186012 -1.30125098464568e-09 0  0.2741016576373286 -1.592613497301063e-10 0  0.3141745521465447 0 0  0.355697492631341 -1.401458591069267e-10 0  0.3987229542472677 0 0  0.4433053055141081 0 0  0.4895008759286886 0 0  0.5373680609405097 0 0  0.5869673343216626 0 0  0.6383613676634521 0 0  0.6916151138468254 0 0  0.7467958595648856 0 0  0.8039733463919316 0 0  0.8632198139502143 0 0  0.9246101326867038 0 0  0.9882218810934433 0 0  1.054135445558498 0 0  1.122434100542598 0 0  1.193204177142181 -6.561148636143505e-14 0  1.266535089879536 0 0  1.342519516046404 0 0  1.421253448503939 0 0  1.502836389106271 0 0  1.587371439758838 0 0  1.674965418777374 0 0  1.765729001825544 0 0  1.859776908880082 0 0  1.957227977487062 0 0  2.058205329869943 0 0  2.162836591189951 0 0  2.271253957290865 0 0  2.383594446803425 0 0  2.5 0.1024999999997612 0  2.5 0.2049999999994743 0  2.5 0.3074999999997183 0  2.383594446803656 0.41 0  2.271253957291315 0.41 0  2.162836591190598 0.41 0  2.058205329870775 0.41 0  1.957227977488067 0.41 0  1.859776908881246 0.4099999999999293 0  1.765729001826854 0.41 0  1.674965418778818 0.41 0  1.58737143976041 0.41 0  1.502836389107956 0.41 0  1.421253448505726 0.41 0  1.342519516048286 0.41 0  1.266535089881505 0.41 0  1.193204177143353 0.41 0  1.122434100544716 0.41 0  1.05413544556068 0.41 0  0.9882218810956305 0.41 0  0.9246101326886647 0.41 0  0.8632198139519631 0.41 0  0.8039733463934788 0.4099999999969019 0  0.7467958595662458 0.41 0  0.6916151138480078 0.41 0  0.638361367664434 0.409999999994879 0  0.5869673343225223 0.41 0  0.5373680609412221 0.41 0  0.4895008759292634 0.4100000002395673 0  0.4433053055145528 0.41 0  0.3987229542475914 0.41 0  0.3556974926297398 0.41 0  0.3141745521466497 0.4100000000016857 0  0.2741016576310038 0.409999999898762 0  0.2354281840915511 0.4099999999867832 0  0.1981052433237697 0.4099999999994087 0  0.1620856860352591 0.41 0  0.1273239947343466 0.4100000000440241 0  0.09377624077128965 0.41 0  0.06140001988986528 0.4099999998673389 0  0.03015443760436654 0.41 0  0.2497468076502589 0.2050254481002335 0  0.2497468076502614 0.1949745518997913 0  0.2469965252529372 0.1829317073452068 0  0.2439893735792749 0.1762316384219562 0  0.2400332147834255 0.1700443375285386 0  0.2352133972704371 0.1645032867342007 0  0.2296339016332438 0.1597280261969788 0  0.2234150974097604 0.1558215759052486 0  0.2166911463437247 0.1528682099456123 0  0.2096071079204251 0.1509316448471593 0  0.2023158100364996 0.1500536585536553 0  0.194974551899914 0.1502531923497262 0  0.1877417105387872 0.1515259415822739 0  0.1807733240461124 0.153844448527136 0  0.1742197252835808 0.15715869474974 0  0.1682222986673531 0.1613971801805478 0  0.162910430003803 0.1664684656256651 0  0.1583987151779087 0.1722631454351573 0  0.1547844879126891 0.178656207771761 0  0.1521457200227072 0.1855097315605723 0  0.1505393388476355 0.1926758619366523 0  0.1505393388476328 0.2073241380633295 0  0.1521457199348437 0.2144902684393899 0  0.1547844879126531 0.221343792228163 0  0.1583987151667241 0.2277368462614464 0  0.1629104300036858 0.2335315346057871 0  0.1682222986671726 0.2386028198193036 0  0.1742197252833576 0.2428413052501257 0  0.1807733240458683 0.2461555514727623 0  0.1877417105384929 0.2484740584176516 0  0.1949745518995776 0.2497468076502398 0  0.202315810036185 0.2499463414463592 0  0.2096071079212665 0.2490683551528932 0  0.2166911463435495 0.2471317900544655 0  0.2234150974215506 0.2441784247022656 0  0.2296339016331197 0.2402719738031125 0  0.2352133972703547 0.2354967132658811 0  0.2400332147833751 0.2299556624715287 0  0.2439893735792577 0.2237683615780412 0  0.2469965252586125 0.217068292651679 0  0.2837357544341795 0.4528100015285412 0  0.3101759808887609 0.2788900181113418 0  0.2010001522217466 -0.2106347664290063 0  0.2979165329933527 0.3701530724207933 0  0.351169321352083 0.531385028670302 0  0.1824447414438426 -0.4973315126648205 0  0.4398538142703967 0.1923666575520527 0  0.2938022253434888 0.261093245662668 0  0.3291932873134319 0.01133377703247119 0  0.3278295745423356 0.1935905247867787 0  0.3469783046736665 0.1595037746742065 0  0.3644456588234884 0.1337663520288715 0  0.04244956010036376 0.8859992183962352 0  0.6332304535695393 -0.4123009614756036 0  1.148774385427345 -1.568735674680922 0  -0.755597525326475 2.639116511440895 0  0.6901819536716441 -0.4591724677788395 0  0.4946706929365364 -0.0005395844533523783 0  0.4164108942793562 0.1831674422650802 0  0.4364767755604064 0.1617930430570458 0  0.524499485617132 0.2504486031887 0  0.4462640057976605 0.2932008599475709 0  0.4207929317639696 0.2074886526495349 0  1.328934203942312 -1.408085829733006 0  0.9468512413548992 -0.7189952890715756 0  0.1168484819475457 0.8082267637591967 0  0.1126867868647547 0.8251587762226619 0  0.781593365479228 -0.3920505222699179 0  0.3702621491276225 0.07819033282934899 0  0.6548531174650585 0.1569740814084552 0  0.2967220320323586 0.4164909842030585 0  0.7287502728137502 -0.03969170766771432 0  0.1128343308432882 0.720198994536797 0  0.7069194591896901 -0.06695024107437129 0  0.3054836208730147 0.6846686315244486 0  0.4501930543797211 0.4021237063775745 0  0.3704866884825583 0.4539603473209582 0  0.4585187420489859 0.3483455152700819 0  0.8175439912358575 -0.1021797214112376 0  0.3620840274530954 0.4503599079912859 0  0.9533675833953348 -0.2464179095815474 0  0.5902512182769547 0.02110906260149466 0  0.4342368192925806 0.2373243995766278 0  0.4656702051702127 0.3557700397876999 0  0.5100219338670772 0.3465242786598824 0  0.4675934652562133 0.3584498538091962 0  1.044714053930297 -0.2829312623716267 0  0.6391070193620961 0.2293569394481314 0  0.6155625133245819 0.2545859270616738 0  0.6366777767028373 0.04050473321675073 0  0.5364772122685102 0.1242243396067381 0  0.4442182570565359 0.1158924795501569 0  0.5558355342890973 0.0450992565381229 0  0.4305693669192902 0.4798763053701214 0  0.5174529262698702 0.2259359089348638 0  0.4572848986011335 0.1854729731312445 0  -0.04010867442803519 0.2635328427566583 0  0.8785908456901276 0.2765439057215109 0  0.5748414863748034 0.08305492363719358 0  0.4514623320647944 0.1011481951743511 0  0.6060352304220379 0.3625566923394929 0  0.4395410041687215 0.1266947841807735 0  0.4188990675850665 0.08350969996439603 0  0.7323975633097835 0.5767311872956516 0  0.2231301194902076 0.213098744659943 0  0.5472516851269269 0.155604362805781 0  0.3668796438070788 0.1703374098197374 0  0.4676968906356586 0.0577608827451373 0  0.3936601392941435 0.4952324376777389 0  0.4683368117727104 0.14976147461482 0  0.4245214097174239 0.07946743520690303 0  0.3924764589651347 0.3340102046240296 0  0.4206927682008837 0.5326902539093165 0  0.4188618624611453 0.02972466766491277 0  0.4220182242847315 -0.06633020319308347 0  0.4338624477422763 -0.02767518371799797 0  0.3950918491493782 0.2550332323573111 0  0.3133948461274147 0.2539248253122854 0  0.2896310020090249 0.2273413550029325 0  0.1482520516649009 0.2797825698133426 0  0.4940206422681437 0.2063446624103035 0  0.3519098438127798 0.2913710066028534 0  0.3272773389079162 0.1009721606878154 0  0.334362844808567 0.386078552505669 0  0.3110933654364939 0.169232958308854 0  0.3055510315958154 0.2740040033869218 0  0.2928164514412041 -0.02419656785363541 0  0.2920182741547169 0.3227151854211551 0  0.2882263420442594 0.08117725434202627 0  0.3016981371472061 0.1447550935413077 0  0.2858585453799479 0.2388946141322935 0  0.2901252573981922 0.1887413880244009 0  0.2899295176930041 0.09598483707463221 0  0.189156331249421 0.1328750797342859 0  0.2705263462409035 0.2076523626973627 0  0.5756536226669079 0.2314227201462335 0  0.5580543957073061 0.1482687864199701 0  0.5716980858702607 0.1822948232300696 0  0.2966027909954337 0.1855899992837201 0  0.5405804539575676 0.2288024326083807 0  0.3155496709744812 0.238338341342285 0  0.5343769499576612 0.2404978672243086 0  0.3036594582367194 0.2174579044362332 0  0.3279286971940282 0.2084121027370569 0  0.5410242981998535 0.2282943852475208 0  0.4345715625422967 0.05214027302038136 0  0.4530592231475989 0.237547264388408 0  0.3362275976236263 0.2176871165082788 0  0.4645514126665569 0.02872937664902101 0  0.4535417921625717 0.1986287423224639 0  0.4742438667315316 0.2338886672514831 0  0.4271512936481838 0.1326585600062219 0  0.4368769534751254 0.1988933657804614 0  0.427481153619971 0.1733525110620652 0  0.5087864978175494 0.04110626424856988 0  0.4181497856300569 0.1772162733543531 0  0.3590621788565508 0.2036676438712779 0  0.5746484055489686 0.1660747174206731 0  0.2919213096178504 0.2581336410590422 0  0.5807429002618431 0.1364633507536916 0  0.2656043481050734 0.1853208926889517 0  0.5480099848266037 0.2553236833702128 0  0.5331228474439054 0.2205461143016008 0  0.30008878480015 0.0639798635685557 0  0.3314710626959441 0.1744266833008646 0  0.4913504385856989 0.1991492267123648 0  0.5312907076439481 0.2086820071803384 0  0.5943567949338912 -0.27214906914826 0  0.4234354061544654 0.2082164546353878 0  0.32950
[...]
<PointData  Scalars="f_40-2"> 
<DataArray  type="Float64"  Name="f_40-2"  format="ascii">1.7152992723166930e+15  6.1718130826659936e+16  0.0000000000000000e+00  0.0000000000000000e+00  9.9596532437583450e+14  -1.0096953427766862e+14  0.0000000000000000e+00  7.7374212244858212e+14  8.0904857298645738e+14  1.9069827806902742e+13  -2.7632878392107582e+13  -1.7607307445400062e+16  -1.2919152964716714e+16  -7.0205477653951440e+15  -2.7502150416765910e+15  -2.6904229851443685e+15  -1.9807985293055732e+16  4.2504581435118310e+15  -4.9973335491483730e+15  -6.8167044938613720e+15  -8.2033908401165310e+15  -5.6016581939080610e+15  -3.6527827323131540e+15  -3.5042196624170775e+15  -1.4030193933469458e+15  -4.2833755975197925e+15  -6.1156742737229450e+15  -1.8140397818138680e+15  2.0052023482385988e+15  1.2398147905699068e+15  6.6416867686265738e+14  3.6625181088540972e+12  3.5089886952990700e+14  1.7204176539412091e+14  -4.2287393034486619e+14  -7.0856196029196538e+14  -1.1173872207758930e+15  4.7856022862779512e+14  4.6746404170724900e+14  7.3311290206460162e+14  8.0970859227799875e+13  -2.9305982557001106e+14  1.0254279438717698e+15  4.1314321710991160e+15  9.8803543703506775e+14  3.2594287191230025e+15  1.8163015967837356e+16  1.0486503804452004e+16  1.9816309292476348e+16  -1.1894007721680338e+15  6.6225603069997725e+14  1.9353780056179340e+16  2.1091973306174344e+16  1.5907784352274396e+16  1.0672395559786226e+16  -1.0648952369952950e+16  -1.0104032034836724e+16  7.2831593551837080e+15  -1.1695524375486874e+16  -4.6773282043294850e+15  -8.8957124087190588e+14  -1.7440021648057152e+16  0.0000000000000000e+00  0.0000000000000000e+00  0.0000000000000000e+00  -5.6067426963434110e+15  -4.5962393555496420e+15  -9.3666873895362240e+15  -1.1957192292462660e+16  -4.5797808703596919e+14  1.1268170485279932e+16  -3.3387323813657588e+16  4.5375189868591952e+16  5.2499916231259504e+16  8.8060320171967740e+15  2.6482611744422440e+16  -6.1720182498207430e+15  -1.4738912385970074e+16  -1.6768588691843234e+16  -3.4375176583816875e+15  -2.3400809635089864e+16  -4.1514599064111970e+15  1.4884030599956135e+15  -5.0482742785277617e+13  -7.0579221453579000e+13  -8.0911117535251638e+14  -1.3347022498126550e+15  -4.8474594362306712e+14  -3.8287538788502938e+14  -6.0026581799247850e+14  3.6935766511121789e+13  -1.0040385567078926e+15  -5.3935515784679112e+14  -3.4266567444227156e+14  8.4462493674013375e+13  1.7562851489886371e+13  -8.8076538924110484e+13  -6.0474851796448325e+14  -3.8107020081261369e+14  2.3094913225924195e+15  -3.3054076510677844e+14  1.1292625513737272e+15  2.1120719075186000e+16  0.0000000000000000e+00  0.0000000000000000e+00  1.7675263620750016e+14  7.7404104493857266e+12  -4.3186025343346406e+14  -5.8969908989170475e+14  -1.0417548545261889e+15  -1.1212799306868625e+15  -1.2675806731733722e+15  -5.5290774629700106e+14  -1.4711269804686281e+14  -3.1749619178647330e+15  -4.7582885519221880e+15  -1.6818510004581145e+15  -1.2806921470440230e+15  -1.3607854133228510e+15  -1.5629432020715410e+15  -1.2937593489321618e+15  5.7144497967120580e+15  6.5310946428677300e+15  1.0826636509562558e+15  -8.8568536690289288e+14  1.5118056086428968e+16  1.7586740153221234e+16  1.7903355882872576e+16  2.1459670745105784e+16  9.1301789059794180e+15  7.8302331433208220e+15  4.2366540434927975e+15  6.5972403174086480e+15  2.5099976109604695e+15  1.6600394339425162e+15  2.2248342050177953e+14  9.0138051899860288e+14  -1.6597115458979032e+15  -1.2095906696584330e+15  -2.2016870710900995e+15  -1.8796868317493000e+15  -5.5036495797700494e+14  4.6321831313618919e+14  1.4712446930134988e+14  1.6377034297862945e+15  -1.0992607933121698e+15  -9.4198198091480225e+14  -3.4204061866685162e+14  -4.0781487976093781e+14  7.3994754659937188e+14  8.9789568003230112e+14  -1.4865873073593102e+13  1.7647817823105972e+14  1.1084813850568636e+15  4.3792510621169662e+14  -7.4435205822556875e+14  1.5485982636359025e+14  -4.4848206358449338e+14  6.5631251469931462e+14  5.5221430523534375e+13  1.5801945281574705e+13  1.9636423152602412e+14  -2.4672968221822602e+13  3.8382097909217625e+13  9.0021018052787480e+12  1.1238278647849658e+13  -3.1068566388944926e+13  2.7155698172965434e+13  -5.3740650460678695e+13  -2.5541910198365074e+13  6.9797382752240148e+13  8.3026351555658547e+13  -2.0418434315134019e+14  1.2576562935553092e+15  6.7989268590422500e+14  -9.7278302626401238e+14  -1.3968808716577205e+14  9.5217449474993594e+13  1.8484174798375350e+14  -1.6076298082623588e+13  -1.5565308391509419e+14  -2.3635643854312105e+13  -2.1514803855503197e+14  3.8687565955693119e+14  -5.5890971646672070e+13  -4.4488523958784275e+14  -9.5957493365018450e+14  -1.0045317421557047e+14  -8.9424178657215762e+14  -3.2864067489387481e+14  1.3506107955850244e+14  1.9019152573635872e+14  1.2989582256739945e+13  1.7179503496240222e+14  1.9681203929985991e+14  1.3035489760461314e+14  -2.7638770166891053e+14  -1.2789702076176302e+14  -1.8782973787588838e+14  6.4838972409356988e+14  -1.6364690294023584e+14  6.1643440082180250e+14  3.5980585824858931e+14  3.0009858114275950e+15  -2.7606677129533628e+14  5.7129245423243898e+13  1.6377127965820164e+13  3.6191002438178650e+14  1.4289278112684473e+13  3.7668726564649703e+13  -5.1504964376046775e+14  7.1751968754662520e+12  8.7392132162181938e+13  -1.0967046419866452e+14  4.3735666020246194e+14  2.6756354942364022e+14  3.9247312559257875e+14  7.0602854516750738e+14  -6.7349915231780962e+14  -7.9535357287528562e+14  -3.5836883312539856e+14  -2.0115442238309668e+13  6.9878377189800484e+13  -1.3287025506671339e+14  1.1060579605425844e+13  5.2580781830462922e+13  -7.0646722442445645e+12  4.8993212289244484e+13  -7.7155802884293812e+13  -3.2821340527390244e+14  1.1948511238445808e+15  -6.8639469935610388e+14  1.0464896814565684e+14  -1.8347692193242456e+14  -1.7151198555199950e+14  -1.0571023101966925e+14  3.1741589422581994e+14  0.0000000000000000e+00  0.0000000000000000e+00  0.0000000000000000e+00  0.0000000000000000e+00  0.0000000000000000e+00  0.0000000000000000e+00  0.0000000000000000e+00  0.0000000000000000e+00  0.0000000000000000e+00  0.0000000000000000e+00  0.0000000000000000e+00  0.0000000000000000e+00  0.0000000000000000e+00  0.0000000000000000e+00  0.0000000000000000e+00  0.0000000000000000e+00  0.0000000000000000e+00  0.0000000000000000e+00  0.0000000000000000e+00  0.0000000000000000e+00  0.0000000000000000e+00  0.0000000000000000e+00  0.0000000000000000e+00  0.0000000000000000e+00  0.0000000000000000e+00  0.0000000000000000e+00  0.0000000000000000e+00  0.0000000000000000e+00  0.0000000000000000e+00  0.0000000000000000e+00  0.0000000000000000e+00  0.0000000000000000e+00  0.0000000000000000e+00  0.0000000000000000e+00  0.0000000000000000e+00  0.0000000000000000e+00  0.0000000000000000e+00  0.0000000000000000e+00  0.0000000000000000e+00  0.0000000000000000e+00  0.0000000000000000e+00  0.0000000000000000e+00  0.0000000000000000e+00  0.0000000000000000e+00  0.0000000000000000e+00  0.0000000000000000e+00  0.0000000000000000e+00  0.0000000000000000e+00  0.0000000000000000e+00  0.0000000000000000e+00  0.0000000000000000e+00  0.0000000000000000e+00  0.0000000000000000e+00  0.0000000000000000e+00  0.0000000000000000e+00  0.0000000000000000e+00  0.0000000000000000e+00  0.0000000000000000e+00  0.0000000000000000e+00  0.0000000000000000e+00  0.0000000000000000e+00  0.0000000000000000e+00  0.0000000000000000e+00  0.0000000000000000e+00  0.0000000000000000e+00  0.0000000000000000e+00  0.0000000000000000e+00  0.0000000000000000e+00  0.0000000000000000e+00  0.0000000000000000e+00  0.0000000000000000e+00  0.0000000000000000e+00  0.0000000000000000e+00  0.0000000000000000e+00  0.0000000000000000e+00  0.0000000000000000e+00  0.0000000000000000e+00  0.0000000000000000e+00  0.0000000000000000e+00  0.0000000000000000e+00  0.0000000000000000e+00  0.0000000000000000e+00  0.0000000000000000e+00  0.0000000000000000e+00  0.0000000000000000e+00  0.0000000000000000e+00  0.0000000000000000e+00  0.0000000000000000e+00  0.0000000000000000e+00  0.0000000000000000e+00  0.0000000000000000e+00  0.0000000000000000e+00  0.0000000000000000e+00  0.0000000000000000e+00  0.0000000000000000e+00  0.0000000000000000e+00  0.0000000000000000e+00  0.0000000000000000e+00  0.0000000000000000e+00  0.0000000000000000e+00  0.0000000000000000e+00  0.0000000000000000e+00  0.0000000000000000e+00  0.0000000000000000e+00  0.0000000000000000e+00  0.0000000000000000e+00  0.0000000000000000e+00  0.0000000000000000e+00  0.0000000000000000e+00  0.0000000000000000e+00  0.0000000000000000e+00  0.0000000000000000e+00  0.0000000000000000e+00  0.0000000000000000e+00  0.0000000000000000e+00  0.0000000000000000e+00  0.0000000000000000e+00  0.0000000000000000e+00  0.0000000000000000e+00  0.0000000000000000e+00  0.0000000000000000e+00  0.0000000000000000e+00  0.0000000000000000e+00  -1.4219055257656859e+14  2.2752946658108009e+14  -1.5048670506184328e+15  -3.5959233659347169e+14  2.3939268891481662e+14  -1.6856679429875941e+14  7.2422150797549525e+14  -3.7468296094521815e+15  1.6912878136899102e+15  -6.8929408126177825e+14  9.5996648936068838e+14  -4.0014060867325388e+14  -2.2237684978213488e+14  -1.2829472548683210e+15  -1.5944143626626992e+16  -2.1578750365154456e+14  9.3172910346855016e+13  -2.1847633403525681e+14  1.2230431019171188e+15  -1.9890787220727275e+15  5.4289613713247641e+13  1.4198575962926925e+15  1.1361371492076930e+15  -3.1773226255650906e+14  6.2059913107807172e+13  2.6293219186878844e+14  -8.7538933473111469e+13  2.7642445109854731e+14  1.6285262898769538e+15  3.8408308915927512e+14  6.1326218946524680e+13  -3.6674345583444306e+14  5.4579433597929925e+14  2.0241723941070575e+15  2.0289942305868916e+14  -8.4021083451194672e+13  -1.3250990898833491e+14  -1.8586402027112431e+14  -2.3469720618890940e+15  -8.5229715277305862e+14  -1.5889108560037870e+15  6.9045916806016350e+15  -2.0328259851866853e+14  1.0630120035252069e+14  -1.1367890872020668e+16  -6.6017527445291812e+13  5.0052759320355300e+15  3.3075073638546030e+15  -3.4842018293288875e+15  1.2677143740601595e+14  5.2480090926815727e+13  -6.3860646357724406e+13  1.5083904835034656e+13  -4.3343459716133462e+14  -1.0012145294586572e+13  -2.3921705881835641e+14  -2.4568299158163444e+14  8.1363376303609658e+12  -1.1668489266696182e+13  -2.0955999497710656e+13  -1.3057968243434480e+14  -4.9834035400921150e+15  -6.1991183367802975e+14  1.6192215876800808e+15  7.2300746023997210e+15  6.8443762865990641e+13  -2.6060535497286500e+14  -2.7492404877942059e+14  4.8189148702549547e+13  1.7304894497301050e+14  -1.0036856510580486e+15  -2.9483304742462338e+14  3.6918965544832955e+15  4.9948214787368300e+14  2.0990223333497556e+16  6.3024888356063100e+14  -2.0567313344341488e+14  7.3443160825103812e+14  6.1262149547058086e+13  3.2664809043930900e+15  2.4519119742837735e+15  -3.8193569055481270e+15  4.7504853858987056e+14  -1.1938054325279762e+15  -1.0018418460616380e+14  1.8461131833443977e+13  1.0282541726380982e+15  3.0424925094591800e+14  5.6635331010671475e+14  -8.4953079539471500e+13  1.1106928345548522e+15  8.6192942219652197e+12  3.9831541177814325e+15  -1.6820923905076742e+16  -4.6818400617179775e+12  2.2410522433442969e+14  4.4279707224195320e+13  2.7386210859661284e+14  -1.1069045190604415e+15  -1.4089024298050184e+13  -1.9225546038311966e+14  3.9491242817958925e+15  6.7985714765343906e+13  6.1125109186889883e+12  8.3943392485092462e+14  2.5456126709355266e+14  1.6428717490322581e+14  3.1205834436931194e+14  3.5651942715692619e+14  7.6905250652341016e+13  -2.3298898150241080e+15  2.5332945792244360e+15  -2.5656466808572509e+14  -1.5665178992139178e+16  -2.8561299912815444e+14  3.5751053929678962e+14  -5.8090988725740562e+14  -6.1660462561799038e+14  1.3018707188948641e+14  3.8408491837215000e+13  -1.7507261477792875e+15  -6.6689009410016141e+13  -3.0229679997013494e+14  -4.9681186938265047e+13  5.9445294190149508e+13  -4.1775313064762539e+12  3.4776971605608900e+14  1.1444097510477135e+15  3.2911549449511395e+15  5.1451729456134840e+15  -1.8518877576101030e+15  -4.5073832976338945e+13  -5.3322177777497450e+15  7.0464690574122260e+15  -1.8634448218978898e+13  6.9752653934982969e+13  1.1349493780596514e+14  8.8639408041306609e+13  6.7908781214211123e+12  4.6818804868542831e+14  1.5461114023099719e+13  -9.0197740610170400e+14  -1.6261342506610755e+15  -2.4056589462413900e+15  4.5548014434044625e+13  -4.2532127326124862e+14  -2.0902772742339969e+14  1.2282052890096738e+15  1.4433207366836745e+15  -5.8245282753599844e+13  -3.4685076820161319e+14  -6.9722262827535812e+14  -1.1634496603203880e+15  1.4604541332528781e+14  4.5312149881943694e+14  -2.9808630177774725e+14  -1.4025345200919314e+16  4.8831665138531470e+15  2.0481164662282278e+14  5.7632387752076891e+13  2.9827358607345238e+14  3.9034138865364962e+14  -2.8181164385433575e+14  1.4892651558658021e+13  1.8327518677927996e+12  2.8541291604580352e+13  -1.6477878349350619e+14  -1.8323581500738772e+14  5.5255313355378094e+13  3.9796200511788400e+15  1.2486584864191220e+16  2.0822070527420789e+13  6.9554460155801560e+15  4.0219958028877172e+13  1.8628490893216281e+14  -1.9401049112268909e+14  -7.2294691099188156e+13  -3.3990786607907869e+14  -3.4693730976220025e+14  3.2995152574979781e+14  4.5833656953894560e+15  2.3562999834121310e+15  -4.9257351073878547e+13  -1.5151024310135107e+13  -8.9011118593784330e+15  4.3969936886725244e+14  -1.2951107316891902e+14  5.5737944843389797e+13  2.9835891921328305e+15  -5.6934317807998580e+15  -2.5337213122527444e+14  1.6728331571490256e+16  6.6739424946824510e+15  5.4615356422080100e+15  2.0893108576853219e+14  -9.3187003352470844e+13  -4.0266402677826738e+14  -3.3234853690245388e+14  5.6971361077419290e+15  2.6000338348968955e+15  -8.9907647082324797e+13  1.3015914616522045e+14  4.3918357579047469e+13  5.8576495931433238e+14  1.2815450833501648e+14  1.8315488529151834e+14  5.4457939795599404e+12  2.3836641370502560e+15  -5.2677269112640344e+14  8.3975319017114638e+14  -6.3751359171975425e+14  -3.8260755854252531e+14  5.3338306266390510e+15  5.2142195138401891e+13  -3.0367696408147810e+15  1.0946294227830185e+15  -4.4814357077810891e+13  -2.5019594988889044e+14  -2.3104561240539925e+14  -3.3373715663872706e+14  -5.5589472475845000e+15  -3.1547468046448981e+14  8.7053462523248812e+14  1.2702155381467935e+15  3.8630313009014670e+15  -1.5789123850934498e+16  1.2725703440613220e+14  1.0958542961383194e+15  4.7337778526479775e+14  1.5802667789016084e+14  -1.0379380760282116e+16  1.0832325263693110e+16  6.6414125284953512e+14  -7.0832036079677906e+13  2.5985117925215984e+14  2.5017462422736716e+14  1.8982339678615020e+15  -1.8712175662543603e+14  -7.2223898998900738e+14  2.0194138885674888e+14  -1.1520482832643175e+14  1.0290765758814044e+14  -3.4434948407146360e+15  -3.7907231492714070e+15  -7.3200963665876725e+14  -1.5984513459231600e+14  4.4454566780574038e+14  -1.0804486297278433e+14  2.5445740326320195e+13  9.0431907368175812e+13  -1.7164875958973284e+14  5.8200469607327555e+13  -2.3448620008487180e+15  5.7557178900506562e+14  1.1323690871873632e+15  5.6819113427714240e+15  -3.8430625991612919e+14  2.1605609899229331e+14  3.2687353565226075e+15  1.5241186146384500e+14  1.1947946583882246e+13  -4.4070578685565194e+14  -2.6209608451573330e+15  -6.5267713390329575e+14  9.5415816075139460e+15  -2.2995254024118481e+14  2.0253475749359278e+15  -1.1154204088488402e+16  -1.6247945731304386e+16  2.4475568857533434e+14  -4.6614844612929756e+12  -4.0119810251145105e+15  -2.3613339472792432e+16  4.3541687371267310e+15  -4.3846759989693602e+13  -1.2097539055266470e+15  -6.3064895209799180e+15  -1.9223459480194872e+15  -3.4853269205195206e+14  -8.1079705028361188e+13  1.0224446021714489e+15  -3.1615267205652419e+14  1.5805521114258025e+14  -4.4329345546072620e+15  -6.2351340980534305e+13  4.0864661378184706e+14  -9.2265640273319277e+12  4.1195429241585085e+15  -5.8495213340366330e+15  -2.6229012890601847e+14  4.1677359068594590e+15  2.0615458803948860e+15  -1.4883384969435845e+15  -7.3357350116705953e+13  -6.3975700400195070e+13  2.2469401491270728e+14  -4.5791488971274480e+15  -9.8933756591603812e+14  1.5507658124747345e+15  1.6832387729268506e+14  6.5992435768514125e+14  1.8034266530705056e+16  -1.2052748050833182e+16  1.1560059397321701e+13  2.8718978643084970e+15  -6.1411037932978484e+13  8.0270266935440156e+13  1.4745080325034582e+15  1.3878714810474280e+14  -1.4047262403604838e+15  -2.3966563258492740e+15  1.5539898738582307e+13  7.3178970235164203e+13  -1.0513729393094630e+14  1.0905140529634581e+15  -1.8183214951991966e+14  4.2406333126395625e+14  -7.4937380611335859e+13  -9.0466381536526020e+15  -8.5326161118354960e+15  -8.2371685258339188e+13  -5.7405018829461038e+14  9.5658979917399175e+14  3.9327791456190852e+13  1.5156648941452288e+15  -6.8743524065403370e+15  -3.4512117729357788e+12  2.0305653716099932e+15  2.9355908919045715e+13  -1.4266469257583530e+16  -6.3876755359269828e+13  -2.1649523433130682e+15  -1.4380236833237139e+13  2.1606709697642856e+16  5.3339928963531200e+15  -3.4508704884117970e+15  8.0323050960377000e+14  -1.1126288460891186e+15  -4.7044936760684695e+13  -2.5192213487770575e+15  -7.3612524771256672e+13  1.2600273118894820e+14  1.8076579601952212e+15  7.7179002698890271e+11  -6.8476585782517000e+14  -1.5829024539784668e+15  1.0677477971243694e+14  6.6434879846840888e+14  4.0613807122226006e+14  -4.1129068305689836e+13  -7.3796706405859475e+14  1.1410575512357948e+15  -3.0939156465043950e+15  1.5617660779210558e+15  4.8777241205336242e+13  4.7146557001480956e+14  1.4682368740830681e+14  -8.3240428808645195e+12  -2.0790868851266155e+15  6.3461567251315625e+14  -6.0188768016791325e+14  4.3828325998936331e+14  -9.2427072867760859e+12  -2.3136716220942550e+15  -1.1885803808677255e+15  -3.1786916660971990e+15  -1.1280334025534265e+15  3.5690089106303340e+15  4.5743614122043310e+15  -6.2767296748276266e+13  -3.0987163386799010e+15  -3.5011806838726539e+13  -1.2747860817006050e+14  9.2384824971975801e+12  -2.2145887486162682e+15  4.5174943930728120e+15  8.4504305226765080e+15  -1.0044402917425133e+14  -3.9008583573735875e+13  2.8338336154392325e+15  2.1948674849269641e+13  -6.0634455390638925e+14  -2.4226693805482510e+15  -8.2020609403088575e+14  1.9953767359512181e+14  -2.4754046649360065e+15  2.8352825361322065e+15  1.7653371211078438e+15  1.7972836010307195e+15  1.5290804165781056e+14  -2.5094856629760894e+14  -2.1942073685707381e+14  6.5235385049472281e+13  1.6576921900664735e+15  1.8453422926932832e+15  3.0922144275631188e+14  -3.2921834585973419e+14  -1.5117050105394381e+14  7.2478111271068078e+13  -7.1366286578945781e+13  8.9372545477598750e+13  -6.2837297439487262e+14  -7.5109461818274250e+14  8.0029563599521850e+14  4.5108305218950619e+14  3.0625334777225426e+13  -2.8704702651227962e+14  -1.1931693001345664e+14  -2.2713914829908090e+15  4.9764643880514172e+13  3.5748152958259015e+15  4.7314760846286367e+13  1.9917098990817088e+14  -5.9009084001075648e+13  2.8277349832512450e+14  -2.0606854296707058e+15  -1.3402676069074197e+14  1.1320140790159733e+14  4.1133288398485038e+14  1.0975791259174981e+14  2.5416012958153938e+14  -2.0695203166112265e+15  5.9240733299875550e+14  -3.4635719308416150e+15  6.2906913160754434e+12  -7.5302802969119238e+14  -3.2337978064517985e+15  3.8214271484953925e+14  5.4489239006573750e+14  5.2527744490149484e+13  6.7324963607352700e+15  -2.4281641779230331e+14  -1.2982272815617533e+14  6.1880605744448075e+14  -4.0615569452820431e+14  -1.1458793245043426e+13  1.8269746701422780e+16  2.3235550051823316e+13  -5.5888405551029680e+13  -8.0492258263244712e+14  5.6378983721312336e+13  -2.2122697308305559e+14  1.3133521515216132e+15  7.9050837603225422e+13  1.8765926406614365e+15  7.0173748991067388e+14  7.3089882470838906e+12  2.1739750433506790e+15  5.8635593531346025e+14  -6.2310497837545088e+14  2.1388517039917778e+14  2.5327680585862035e+15  1.2236441045122800e+15  -9.7576701343273075e+14  -5.5520693443813075e+14  5.985414674546355