<?xml version="1.0"?>
<VTKFile type="UnstructuredGrid"  version="0.1"  >
<UnstructuredGrid>
<Piece  NumberOfPoints="1419" NumberOfCells="2698">
<Points>
<DataArray  type="Float64"  NumberOfComponents="3"  format="ascii">0 0 0  0 0.41 0  2.5 0 0  2.5 0.41 0  0.6000011219059685 0.189810428451702 0  0.6000163740117619 0.2098030413305983 0  0.25 0.2 0  0.15 0.2 0  0.2489897948556636 0.21 0  0.2489897948556636 0.19 0  0.6000079302196198 0.1998067354057869 0  0 0.3807142857143437 0  0 0.3514285714286952 0  0 0.3221428571430699 0  0 0.29285714285744 0  0 0.2635714285718054 0  0 0.2342857142861561 0  0 0.2050000000005308 0  0 0.175714285714732 0  0 0.1464285714289574 0  0 0.1171428571431897 0  0 0.08785714285737878 0  0 0.05857142857161107 0  0 0.02928571428580012 0  0.03015443760436003 0 0  0.06140001986583606 0 0  0.09377624077125973 0 0  0.1273239957535082 0 0  0.1620856860351972 0 0  0.1981052433264291 0 0  0.235428184091502 0 0  0.2741016576309132 0 0  0.3141745521465447 0 0  0.3556974926295285 0 0  0.3987229542472677 0 0  0.4433053055141081 0 0  0.4895008759286886 0 0  0.5373680609405097 0 0  0.5869673343216626 0 0  0.6383613676634521 0 0  0.6916151138468254 0 0  0.7467958595648856 0 0  0.8039733463919316 0 0  0.8632198139502143 0 0  0.9246101326867038 0 0  0.9882218810934433 0 0  1.054135445558498 0 0  1.122434100542598 0 0  1.193204177141305 0 0  1.266535089879536 0 0  1.342519516046404 0 0  1.421253448503939 0 0  1.502836389106271 0 0  1.587371439758838 0 0  1.674965418777374 0 0  1.765729001825544 0 0  1.859776908880082 0 0  1.957227977487062 0 0  2.058205329869943 0 0  2.162836591189951 0 0  2.271253957290865 0 0  2.383594446803425 0 0  2.5 0.1024999999997612 0  2.5 0.2049999999994743 0  2.5 0.3074999999997183 0  2.383594446803656 0.41 0  2.271253957291315 0.41 0  2.162836591190598 0.41 0  2.058205329870775 0.41 0  1.957227977488067 0.41 0  1.859776908881246 0.41 0  1.765729001826854 0.41 0  1.674965418778818 0.41 0  1.58737143976041 0.41 0  1.502836389107956 0.41 0  1.421253448505726 0.41 0  1.342519516048286 0.41 0  1.266535089881505 0.41 0  1.193204177143353 0.41 0  1.122434100544716 0.41 0  1.05413544556068 0.41 0  0.9882218810956305 0.41 0  0.9246101326886647 0.41 0  0.8632198139519631 0.41 0  0.8039733463934788 0.41 0  0.7467958595662458 0.41 0  0.6916151138480078 0.41 0  0.6383613676644679 0.41 0  0.5869673343225223 0.41 0  0.5373680609412221 0.41 0  0.4895008759292634 0.41 0  0.4433053055145528 0.41 0  0.3987229542475914 0.41 0  0.3556974926297398 0.41 0  0.3141745521466497 0.41 0  0.2741016576310038 0.41 0  0.2354281840915826 0.41 0  0.1981052433265003 0.41 0  0.1620856860352591 0.41 0  0.1273239957535623 0.41 0  0.09377624077128965 0.41 0  0.06140001986584975 0.41 0  0.03015443760436654 0.41 0  0.2497468076502589 0.2050254481002335 0  0.2497468076502614 0.1949745518997913 0  0.2469965252529372 0.1829317073451959 0  0.2439893735792749 0.1762316384219906 0  0.2400332147834255 0.1700443375285386 0  0.2352133972704371 0.1645032867342007 0  0.2296339016332438 0.1597280261969788 0  0.2234150974217223 0.1558215752574715 0  0.2166911463437691 0.1528682099456123 0  0.2096071079204251 0.1509316448471593 0  0.2023158100364996 0.1500536585536553 0  0.194974551899914 0.1502531923497262 0  0.1877417105387872 0.1515259415822739 0  0.1807733240461124 0.153844448527136 0  0.1742197252835808 0.15715869474974 0  0.1682222986673531 0.1613971801805478 0  0.162910430003803 0.1664684656256651 0  0.1583987151779087 0.1722631454351573 0  0.1547844879126891 0.178656207771761 0  0.1521457199348551 0.1855097315605723 0  0.1505393388476355 0.1926758619366523 0  0.1505393388476328 0.2073241380633295 0  0.1521457199348437 0.2144902684393899 0  0.1547844879126531 0.221343792228163 0  0.1583987151778488 0.2277368545647528 0  0.1629104300036858 0.2335315343742052 0  0.1682222986671726 0.2386028198193036 0  0.1742197252833576 0.2428413052501257 0  0.1807733240458683 0.2461555514727623 0  0.1877417105384929 0.2484740584176516 0  0.1949745518995776 0.2497468076502398 0  0.202315810036185 0.2499463414463592 0  0.2096071079201568 0.2490683551528932 0  0.2166911463435495 0.2471317900544655 0  0.2234150974215506 0.2441784247426195 0  0.2296339016331197 0.2402719738031125 0  0.2352133972703547 0.2354967132658811 0  0.2400332147833751 0.2299556624715287 0  0.2439893735792577 0.2237683615780412 0  0.246996525252926 0.2170682926548348 0  0.2564601425966682 0.2099922348322212 0  0.2639296927368948 0.209991598288335 0  0.2714000198936124 0.2099909999699681 0  0.2788704960922052 0.2099901265975098 0  0.2863409318826945 0.2099889540522528 0  0.2938113423353939 0.2099875198864903 0  0.3012816679843719 0.2099858646753191 0  0.3087519518087404 0.2099839280587454 0  0.3162221462310945 0.2099817838522207 0  0.3236922288948287 0.2099793936307578 0  0.3311622674047741 0.2099767973829309 0  0.3386321665283495 0.2099739735196284 0  0.3461020062223105 0.2099709480127634 0  0.3535717153898922 0.2099677416541059 0  0.3610413595925124 0.2099643202650496 0  0.368510884815284 0.2099607398671033 0  0.3759802916489321 0.2099569734336852 0  0.3834496280366523 0.2099530640072192 0  0.3909188289968527 0.2099489863940447 0  0.3983879597671209 0.2099447808910813 0  0.4058569604345023 0.2099404301320148 0  0.4133258790345798 0.2099359607573779 0  0.4207946705621973 0.2099313828617692 0  0.4282633935722862 0.2099266817211119 0  0.4357319986835493 0.2099218902445213 0  0.4432004970016422 0.2099169975828177 0  0.4506689058259598 0.2099120308058629 0  0.458137203784912 0.2099069747564154 0  0.4656054111501935 0.2099018581987752 0  0.4730735101554307 0.2098966657475295 0  0.48054151741424 0.2098914255140549 0  0.4880094182199794 0.2098861214826309 0  0.4954772263266273 0.2098807811401678 0  0.5029449295490627 0.2098753881133656 0  0.5104125386303724 0.2098699689938907 0  0.5178800442787076 0.2098645069921031 0  0.5253474544910272 0.2098590285687942 0  0.5328147619771223 0.2098535159270587 0  0.5402819722245021 0.2098479954885764 0  0.547749080141023 0.2098424489288204 0  0.5552160894451115 0.2098368978671699 0  0.5626829805640825 0.209831339643108 0  0.5701497959199732 0.209825773385837 0  0.577616488882161 0.2098202144086213 0  0.5850830849685634 0.2098146612760251 0  0.5925496924052539 0.2098091564335944 0  0.6000118713290488 0.2048048395649515 0  0.600004253807354 0.1948086272063365 0  0.5925344393516716 0.1898157009468565 0  0.5850678363581954 0.1898215848285448 0  0.5776012527051773 0.1898274210144072 0  0.5701345752896545 0.189833246973723 0  0.5626677815815757 0.1898390531299154 0  0.5552009159116766 0.1898448492886191 0  0.547733938069676 0.1898506351550216 0  0.5402668706841385 0.1898563937811424 0  0.5327997148253663 0.1898621516813775 0  0.5253324645093498 0.1898678700946328 0  0.5178651308547249 0.1898735818126614 0  0.5103977028994244 0.1898792464532143 0  0.5029301955165736 0.1898848958401602 0  0.4954625935011291 0.1898904894736009 0  0.4879949157641309 0.189896058154174 0  0.4805271424731586 0.1899015611859596 0  0.4730592971829554 0.1899070284728692 0  0.4655913549533747 0.1899124189701769 0  0.4581233445565873 0.1899177616544575 0  0.450655235533463 0.1899230151465135 0  0.4431870620415252 0.1899282072928185 0  0.435718788733055 0.1899332985260965 0  0.4282504515719018 0.1899383054714447 0  0.4207820177634975 0.1899432198833209 0  0.4133135228256298 0.189948008615568 0  0.4058449376626423 0.1899526911189396 0  0.3983762644168764 0.1899572412437169 0  0.3909075292763134 0.1899616678951415 0  0.3834386972707463 0.1899659421651604 0  0.3759698069498411 0.1899700735968373 0  0.3685008191235711 0.1899740357734249 0  0.3610317686112632 0.1899778297922808 0  0.3535626321722619 0.1899814588775914 0  0.3460934358302518 0.1899848664145804 0  0.3386241575123052 0.189988089909375 0  0.3311547922962318 0.1899910943167931 0  0.323685384725928 0.1899938859825846 0  0.316215882601514 0.1899964396386324 0  0.3087463376898532 0.1899987533611711 0  0.3012767268120838 0.1900008346219181 0  0.2938070733124275 0.1900026183459945 0  0.2863373731953239 0.1900041508853377 0  0.2788676093024827 0.1900054066263248 0  0.2713978972440553 0.1900064271301811 0  0.2639282710114446 0.1900071787540957 0  0.2564594497323392 0.1900072701781035 0  0.2607815010630923 0.2000724053145966 0  0.5887914010551359 0.1999424891814798 0  0.5745217027543197 0.2000305442145586 0  0.5512081170326105 0.1999561363712502 0  0.2751339430368989 0.1999984451334823 0  0.5365407071733076 0.199855028862666 0  0.2894706112049474 0.1998653868097416 0  0.5216061524739415 0.1998662671602269 0  0.3127926303657271 0.1998561956060328 0  0.3274235669243724 0.1999854587083848 0  0.5066712216897042 0.1998774017322573 0  0.3650856640247574 0.1998353118535253 0  0.4768002482036772 0.1998992128997556 0  0.3417593376408332 0.1998491283870314 0  0.3797094911619858 0.1999616307526824 0  0.4618642104557094 0.1999098052395917 0  0.4917359192850581 0.1998883969348566 0  0.3946475279138598 0.1999532728934559 0  0.4469278071286208 0.1999201245705048 0  0.4089817515339027 0.1998139788524153 0  0.4322997449534654 0.2000572896896513 0  0.4201761505564023 0.1999343735738781 0  0.3529131996686821 0.1999935630257991 0  0.5633288445964071 0.1998161409492084 0  0.3006669383320575 0.1999902639502066 0  0.5816028252567785 0.1964764724027716 0  0.2677082969374418 0.1964267192300291 0  0.5290712992569873 0.1969535112594424 0  0.5440056486572717 0.1969421678701892 0  0.2825205797451157 0.2035425491300324 0  0.3199547683820059 0.2028943348437039 0  0.4842660363711951 0.1969868698104188 0  0.5141365768397512 0.196964765183783 0  0.372241832653033 0.2028720696745527 0  0.4693302261324269 0.196997641168883 0  0.3348943692052038 0.202888988729617 0  0.3871801744392056 0.2028640777739953 0  0.4543940595380522 0.1970081645975436 0  0.4992014877139475 0.1969758971901295 0  0.4020344885030297 0.2034946305953866 0  0.43945753880958 0.1970183886747565 0  0.2550654408631611 0.203406651443353 0  0.2548903634500413 0.1966960473161641 0  0.5946651662196244 0.2
[...]
<PointData  Scalars="f_46-2"> 
<DataArray  type="Float64"  Name="f_46-2"  format="ascii">2.0791891871977527e+03  2.0746832735227581e+03  5.6735721652972799e+00  6.5331060596244077e+00  1.4721395868927029e+03  1.4764462193585678e+03  0.0000000000000000e+00  2.1449358483359865e+03  1.8068958553874709e+03  1.8073254859426213e+03  1.4736421091508937e+03  2.0782038481588711e+03  2.0888453939354636e+03  2.1048152142269946e+03  2.1245319486463904e+03  2.1444123184238829e+03  2.1607357276291527e+03  2.1664631774769955e+03  2.1623863048789995e+03  2.1481437959322780e+03  2.1292491465712674e+03  2.1093106553417729e+03  2.0928813108133077e+03  2.0822404462133118e+03  2.0757923530527241e+03  2.0628244196655669e+03  2.0406689779650160e+03  2.0073579814922052e+03  1.9665077941468528e+03  1.9206839638719814e+03  1.8736144602216548e+03  1.8288012984668767e+03  1.7897173567037507e+03  1.7499896277944774e+03  1.7093352203577722e+03  1.6689837382476294e+03  1.6249638206334016e+03  1.5824744170394376e+03  1.5368346069478741e+03  1.4932866248883395e+03  1.4508684645825144e+03  1.4047932698033512e+03  1.3586712775890549e+03  1.3131873697949100e+03  1.2633010877323777e+03  1.2112418021501092e+03  1.1621116101604482e+03  1.1035344844603569e+03  1.0476640699707809e+03  9.9264031776077593e+02  9.2785234515103366e+02  8.6706361663521909e+02  7.9810045001746892e+02  7.3559600934013190e+02  6.6046424186575734e+02  5.9098318669079958e+02  5.1614391118055130e+02  4.3474299067123246e+02  3.5814545583837895e+02  2.6981910175736567e+02  1.8760047636138046e+02  9.0355148856147721e+01  -2.0466295448418368e+00  2.9494489363263504e-01  -1.2726038239708066e+00  9.3339632550492695e+01  1.7983309650829310e+02  2.7316741715287736e+02  3.5869277453471886e+02  4.3383273098925582e+02  5.1699756688697596e+02  5.9216371248105611e+02  6.5681826147722768e+02  7.3736881409301225e+02  7.9789775709065191e+02  8.6727836342568548e+02  9.2824393510809534e+02  9.9268801210615163e+02  1.0480844838325515e+03  1.1033812822222867e+03  1.1621448120176956e+03  1.2113583157027629e+03  1.2628229317313865e+03  1.3136636150329491e+03  1.3593835106776237e+03  1.4059288059446978e+03  1.4501816771774584e+03  1.4940060790496609e+03  1.5387231845778294e+03  1.5830521247970455e+03  1.6259788854972746e+03  1.6691706849974878e+03  1.7113899337608386e+03  1.7499612248993428e+03  1.7907400910568620e+03  1.8315797231552167e+03  1.8747345931240629e+03  1.9208413353535814e+03  1.9641222830597769e+03  2.0048537115258250e+03  2.0366850039875358e+03  2.0584425308595760e+03  2.0717764231104916e+03  0.0000000000000000e+00  0.0000000000000000e+00  1.8050508460039218e+03  1.8013266157730211e+03  1.7982059481368458e+03  1.7947908566850685e+03  1.7921209273567836e+03  1.7911054137462863e+03  1.7928480814326624e+03  1.7978800633020005e+03  1.8089274271402553e+03  1.8244855114048401e+03  1.8475758052849135e+03  1.8763287011739988e+03  1.9128428130164052e+03  1.9522044766301722e+03  1.9967010210139547e+03  2.0396052432905524e+03  2.0813884384904736e+03  2.1143452170163264e+03  2.1369147484521741e+03  2.1359401276054987e+03  2.1193304802160856e+03  2.0825155506700894e+03  2.0399024367116824e+03  1.9968429882826938e+03  1.9517499160629618e+03  1.9108586606462968e+03  1.8761311762301098e+03  1.8461473925882144e+03  1.8231588611548941e+03  1.8074892716359568e+03  1.7971615680176672e+03  1.7923270085017643e+03  1.7902552509482271e+03  1.7918806624824870e+03  1.7941294600168992e+03  1.7978717506327441e+03  1.8009098459302202e+03  1.8046349542120711e+03  1.8089354224104111e+03  1.8114692561647691e+03  1.8125904543599995e+03  1.8120554511677722e+03  1.8101795466897383e+03  1.8069332972961415e+03  1.8027126224925055e+03  1.7977035223608900e+03  1.7919851628404422e+03  1.7858217315834904e+03  1.7792207376056610e+03  1.7723783702361995e+03  1.7652888154299114e+03  1.7581189957533577e+03  1.7508134615902941e+03  1.7434855797023486e+03  1.7360711819380469e+03  1.7286706351277526e+03  1.7212482433327334e+03  1.7138441632694899e+03  1.7064118500960994e+03  1.6989845284039611e+03  1.6916057506039037e+03  1.6841669426494509e+03  1.6768065559668012e+03  1.6693618519537226e+03  1.6619921320256562e+03  1.6545837977449819e+03  1.6471585948061777e+03  1.6397634200428877e+03  1.6322825056862496e+03  1.6248575357952745e+03  1.6173713469481504e+03  1.6098056954087481e+03  1.6022632338290523e+03  1.5946601346726459e+03  1.5869884078207087e+03  1.5792427117618120e+03  1.5713594125645054e+03  1.5634222674185389e+03  1.5553004118749086e+03  1.5469601145158331e+03  1.5384069728865579e+03  1.5295531755742913e+03  1.5190767296124623e+03  1.5143814796183776e+03  1.4572647429764409e+03  1.4568105524784346e+03  1.5146161329141391e+03  1.5188614044731000e+03  1.5294347389432044e+03  1.5382902595882642e+03  1.5468539384168212e+03  1.5551736229998328e+03  1.5633249031459727e+03  1.5712664260401400e+03  1.5791328381674252e+03  1.5868651444751565e+03  1.5945782899682583e+03  1.6021758609518363e+03  1.6097528028924844e+03  1.6172533970218021e+03  1.6247554973919939e+03  1.6321912076436784e+03  1.6396646335870030e+03  1.6470758924592424e+03  1.6545019351083545e+03  1.6618839033499451e+03  1.6693008210056696e+03  1.6766820551639642e+03  1.6841198210031921e+03  1.6915102985873966e+03  1.6989389799795024e+03  1.7063419727129406e+03  1.7137859745636331e+03  1.7211950114333940e+03  1.7286631890778872e+03  1.7360760315916007e+03  1.7435034513815096e+03  1.7508529633174037e+03  1.7581867860339423e+03  1.7653886772829437e+03  1.7725133712521290e+03  1.7793818646590239e+03  1.7860215633472019e+03  1.7922227423271747e+03  1.7979775646989449e+03  1.8030283519211935e+03  1.8072785819317678e+03  1.8105567436975844e+03  1.8124638869155481e+03  1.8130182767499282e+03  1.8119120114904583e+03  1.8093690280487258e+03  0.0000000000000000e+00  0.0000000000000000e+00  0.0000000000000000e+00  0.0000000000000000e+00  0.0000000000000000e+00  0.0000000000000000e+00  0.0000000000000000e+00  0.0000000000000000e+00  0.0000000000000000e+00  0.0000000000000000e+00  0.0000000000000000e+00  0.0000000000000000e+00  0.0000000000000000e+00  0.0000000000000000e+00  0.0000000000000000e+00  0.0000000000000000e+00  0.0000000000000000e+00  0.0000000000000000e+00  0.0000000000000000e+00  0.0000000000000000e+00  0.0000000000000000e+00  0.0000000000000000e+00  0.0000000000000000e+00  0.0000000000000000e+00  0.0000000000000000e+00  0.0000000000000000e+00  0.0000000000000000e+00  0.0000000000000000e+00  0.0000000000000000e+00  0.0000000000000000e+00  0.0000000000000000e+00  0.0000000000000000e+00  0.0000000000000000e+00  0.0000000000000000e+00  0.0000000000000000e+00  0.0000000000000000e+00  0.0000000000000000e+00  0.0000000000000000e+00  0.0000000000000000e+00  0.0000000000000000e+00  0.0000000000000000e+00  0.0000000000000000e+00  0.0000000000000000e+00  0.0000000000000000e+00  0.0000000000000000e+00  0.0000000000000000e+00  0.0000000000000000e+00  0.0000000000000000e+00  0.0000000000000000e+00  0.0000000000000000e+00  0.0000000000000000e+00  0.0000000000000000e+00  0.0000000000000000e+00  0.0000000000000000e+00  0.0000000000000000e+00  0.0000000000000000e+00  0.0000000000000000e+00  0.0000000000000000e+00  0.0000000000000000e+00  0.0000000000000000e+00  0.0000000000000000e+00  0.0000000000000000e+00  0.0000000000000000e+00  0.0000000000000000e+00  0.0000000000000000e+00  0.0000000000000000e+00  0.0000000000000000e+00  0.0000000000000000e+00  0.0000000000000000e+00  0.0000000000000000e+00  0.0000000000000000e+00  0.0000000000000000e+00  0.0000000000000000e+00  0.0000000000000000e+00  0.0000000000000000e+00  0.0000000000000000e+00  0.0000000000000000e+00  0.0000000000000000e+00  0.0000000000000000e+00  0.0000000000000000e+00  0.0000000000000000e+00  0.0000000000000000e+00  0.0000000000000000e+00  0.0000000000000000e+00  0.0000000000000000e+00  0.0000000000000000e+00  0.0000000000000000e+00  0.0000000000000000e+00  0.0000000000000000e+00  0.0000000000000000e+00  0.0000000000000000e+00  0.0000000000000000e+00  0.0000000000000000e+00  0.0000000000000000e+00  0.0000000000000000e+00  0.0000000000000000e+00  0.0000000000000000e+00  0.0000000000000000e+00  0.0000000000000000e+00  0.0000000000000000e+00  0.0000000000000000e+00  0.0000000000000000e+00  0.0000000000000000e+00  0.0000000000000000e+00  0.0000000000000000e+00  0.0000000000000000e+00  0.0000000000000000e+00  0.0000000000000000e+00  0.0000000000000000e+00  0.0000000000000000e+00  0.0000000000000000e+00  0.0000000000000000e+00  0.0000000000000000e+00  0.0000000000000000e+00  0.0000000000000000e+00  0.0000000000000000e+00  0.0000000000000000e+00  0.0000000000000000e+00  0.0000000000000000e+00  0.0000000000000000e+00  0.0000000000000000e+00  0.0000000000000000e+00  0.0000000000000000e+00  1.8009374529194165e+03  1.7986649500987382e+03  1.3639499288372826e+03  1.7163287051301916e+03  1.6243163271970193e+03  1.7224494227126550e+03  1.5324426871271198e+03  1.6367590163816692e+03  2.0412791304061350e+03  1.5492796509949994e+03  2.0568582619796853e+03  1.9639994285462874e+03  1.8617695191126841e+03  1.9489385468280248e+03  2.0918016896677577e+03  1.8613238479654940e+03  1.8086949187055041e+03  1.8083723926367977e+03  2.1051453006804722e+03  1.7860988419725572e+03  1.7862274058443209e+03  1.7449456576695459e+03  1.4423316763633886e+03  1.7450336811401226e+03  1.7026969547699584e+03  1.6527488679276157e+03  1.7022695093593038e+03  1.6572080040255548e+03  1.6111261409457766e+03  1.5765374914059164e+03  1.5680104566559428e+03  2.0178484631129859e+03  1.5274299977477601e+03  2.0191604791951909e+03  1.5320202220739152e+03  1.4713338439960705e+03  1.8168799149711410e+03  1.8157939045041837e+03  1.4796585093562660e+03  1.4860664835048358e+03  1.6108481931624608e+03  2.1162224601372423e+03  1.8731092513280300e+03  1.9054655799069599e+03  1.1963369457476454e+03  1.9450301822921390e+03  2.0662081780248382e+03  2.0658236332206652e+03  1.0309009544549185e+03  1.6738203699517824e+03  1.8017782765780319e+03  1.4880251553696255e+03  1.8020715119705378e+03  1.7681660137924839e+03  1.7246319191301413e+03  1.9420657882770879e+03  1.8414108356702873e+03  1.7682089680496488e+03  1.5612693624961466e+03  1.7245533115240730e+03  1.8238713510491307e+03  1.4286251232080028e+03  1.6802645064537705e+03  1.9949899380406900e+03  8.6737916723117030e+02  1.6359021807208953e+03  1.5908303501055718e+03  1.7641974284148112e+03  1.5433231968153259e+03  1.6341413926200976e+03  1.5915783807856251e+03  1.5104946437102308e+03  2.1116763704377481e+03  1.5022428121637161e+03  6.9996733439112268e+02  1.4889562035645909e+03  1.7650145941193966e+03  1.9970204553955789e+03  1.5342880172530670e+03  2.0956966916276756e+03  2.1238047544651681e+03  2.0310294101001100e+03  1.8078366346770354e+03  1.8055522797431070e+03  1.8082493441571030e+03  1.8059329342050323e+03  1.6809883982547631e+03  1.5088896797405312e+03  1.7874749457512121e+03  1.6955798075954317e+03  2.1061788509763765e+03  1.7876621365783101e+03  2.0017738622825023e+03  5.3462159989923634e+02  1.7467533274314906e+03  1.3941597509996750e+03  1.4874729903983407e+03  1.5897521346330423e+03  2.0708979203981166e+03  1.7467259304818622e+03  1.7024997140581645e+03  2.0630583431247910e+03  1.8283272430309921e+03  1.9195979538273666e+03  2.1132479712372433e+03  1.6581202922144960e+03  1.8689077096063729e+03  1.6134573549371255e+03  1.7812825624343407e+03  1.6703333819600623e+03  1.2763737367489739e+03  1.2765394300919452e+03  1.5673083503181913e+03  3.9230998455646221e+02  2.0674264904367856e+03  1.6588555826395425e+03  1.8697335497717679e+03  1.5804531779935237e+03  1.8087120321177538e+03  1.8086527515262640e+03  1.4920687913724744e+03  1.4781441022836896e+03  1.8093331309839436e+03  2.0158329456604079e+03  1.6134198882339595e+03  1.7803916459488053e+03  1.8284564325501663e+03  1.5055009708567793e+03  2.2390231798545415e+02  2.0549271701667772e+03  1.8027590036772306e+03  1.5751730243451361e+03  1.1138990214387773e+03  1.1128817777150539e+03  1.7106708054896772e+03  1.6804435135316430e+03  1.6789563355936145e+03  1.9084480343086937e+03  1.8257088524095236e+03  1.5250990978650991e+03  1.8010755355164815e+03  1.6958365023952751e+03  2.0051404828638533e+03  1.9782821304398080e+03  1.5510395686020927e+03  1.3512018244186197e+03  1.8013184408524996e+03  1.6919189616767621e+03  2.0629951233460588e+03  1.8115549576548572e+03  1.4850110442861767e+03  1.6435311152880683e+03  1.8113934770649118e+03  1.9130636387340483e+03  2.1128057154826888e+03  1.6081006406540321e+03  9.4972948400482312e+02  9.5253165352479425e+02  1.7234931373543534e+03  1.7756309207564605e+03  1.7612467152115828e+03  2.0591854475618611e+03  1.7662556361557602e+03  1.7609313002177773e+03  1.7757724500393076e+03  1.7315586351666520e+03  1.7984780953869206e+03  1.7326034491355697e+03  1.7173785240022253e+03  1.2010785895439469e+03  1.1987095060425056e+03  1.8181058195463177e+03  2.1109743165346476e+03  1.7987602684661233e+03  1.7664483335508748e+03  1.6725257825629674e+03  1.6877431685153854e+03  1.7363041850390136e+03  1.6437315846624304e+03  1.6284156637420060e+03  2.0969327586663226e+03  1.4243358512593732e+03  1.5824299671693882e+03  1.5982714374126990e+03  2.1279823632206867e+03  1.8809133018190300e+03  1.7227602442416328e+03  1.5500031229061992e+03  1.4480785952115850e+03  1.3988890158049414e+03  1.9442125922782081e+03  7.8395247229772610e+02  7.8803450489876616e+02  2.0689154966807878e+03  1.9040250855917525e+03  1.8725694564499549e+03  1.6281558452899060e+03  1.6439618340096667e+03  2.0599109763432671e+03  1.6804905107256618e+03  1.5974617534756605e+03  2.0843915204935211e+03  1.8018690713072704e+03  1.6073549261937922e+03  1.7388772009682586e+03  1.5032724586971751e+03  1.4903727121134743e+03  1.9124098285957220e+03  1.9180872838110236e+03  1.6351498629972414e+03  1.5495690631494328e+03  1.8378913050758813e+03  2.1159894147615687e+03  1.8301442048774109e+03  2.0385608890725168e+03  1.5932660316191213e+03  1.5467989188190863e+03  1.5313334786816679e+03  1.5014658909187203e+03  1.7900128428985743e+03  1.9854338715678914e+03  1.8070672810300646e+03  2.0991205671596590e+03  1.8106934041286429e+03  1.0340032329523106e+03  1.0330098263119626e+03  1.8074569075959623e+03  1.8189495810999099e+03  1.9917879508741644e+03  1.5447197779121652e+03  6.1737813724790340e+02  6.1977995459173894e+02  1.5018173086486038e+03  1.7889673820825712e+03  1.8040312362226953e+03  2.0933361393452174e+03  1.4543478971997110e+03  1.8045328235961667e+03  1.6547547693935144e+03  1.3341719994247651e+03  1.8104876899045762e+03  1.8398130156289355e+03  2.0560894246663702e+03  1.4675044422312840e+03  1.9567048742069264e+03  1.8812811769010636e+03  1.5257216627531859e+03  1.4651200740547811e+03  1.6998079244781684e+03  1.4436338451314678e+03  2.0411727644677019e+03  1.7375501635085679e+03  1.7991623498436340e+03  1.8000721314206426e+03  1.7061216238925533e+03  1.9807298755405707e+03  1.6084590163746532e+03  2.0425213350525462e+03  1.2962370387531662e+03  1.6282780735352460e+03  1.6455057556100503e+03  1.5967841144783711e+03  2.0860435496003875e+03  1.7485190061298922e+03  2.1151945206088403e+03  1.4802941440430486e+03  1.5793035710925740e+03  4.4850422660878974e+02  4.4846056259881124e+02  1.7879387323492276e+03  1.6952988740822666e+03  8.6917412049913366e+02  8.6757584162744536e+02  2.0933756005973387e+03  1.7881468808248903e+03  1.6512754178101916e+03  1.0141567661056492e+02  1.6183966462283790e+03  1.8099954109582743e+03  1.7469200828186749e+03  2.0675095720046647e+03  1.6507954096164108e+03  1.8104723434367095e+03  2.0304602959130841e+03  1.7469378019701883e+03  1.8751268519915816e+03  1.6655201273040873e+03  2.1135760524343209e+03  2.0762367388005541e+03  1.7025776858695676e+03  2.0356109058850338e+03  1.9820711963992144e+03  1.8082983901585646e+03  1.6581624027131650e+03  1.7210735230049486e+03  1.6134271850075904e+03  2.1397739316159004e+03  1.5546908726116319e+03  1.5775973323453293e+03  1.7284830193622256e+03  1.8436300868697797e+03  6.9985383580815017e+02  7.0810409314849312e+02  1.5670885397461350e+03  2.0419248527101101e+03  1.8090314896019429e+03  1.5255298348826484e+03  1.9915342165530972e+03  1.4998583930829584e+03  2.0795863637738739e+03  1.4749596024576069e+03  1.5856554841809218e+03  1.7439425706452116e+03  1.5640336559145978e+03  2.0197209293611882e+03  1.5693874082819200e+03  1.8132543538171544e+03  2.0505467856810269e+03  2.8423504968276598e+02  2.8695536397426730e+02  1.6878143654021005e+03  1.8226137574496254e+03  1.9859999103558453e+03  1.5378725509488463e+03  1.4321663527404701e+03  2.1312229148547349e+03  1.3870143865910716e+03  1.8711862781070508e+03  1.7099012413475414e+03  2.0691721684177514e+03  1.7936557898390024e+03  1.2388539500087622e+02  1.7812704641314178e+03  1.1353346202532116e+03  2.1138115376838168e+03  1.3492893732564012e+03  1.4026176428454435e+03  1.8678023633660853e+03  1.7794716665897720e+03  1.9439550713042270e+03  1.8066080193818900e+03  1.8071980243287974e+03  1.9188658011673087e+03  1.7938654670921296e+03  1.8076303689958863e+03  1.9717815255646174e+03  1.8028328116566345e+03  1.8235972653772380e+03  1.3020270437360432e+03  1.5394308453939991e+03  1.9835627415270742e+03  1.5003931190836940e+03  2.0921229603622196e+03  1.9382089953344178e+03  1.8066150427581165e+03  1.4765978637828766e+03  1.6386499880961624e+03  1.8183006886014621e+03  1.7997569015166155e+03  1.5276279154896324e+03  1.7782997596517296e+03  1.6134801547050351e+03  1.8003229512316800e+03  2.0078999414992870e+03  2.1180654222063736e+03  2.1107786169513329e+03  2.0177559586015768e+03  1.9353321654357408e+03  2.1089737029765211e+03  1.7947261995862743e+03  1.7957315271458942e+03  2.0895301588695233e+03  1.7685369680090403e+03  1.5867882849248547e+03  2.0918182550910578e+03  2.1150381366523725e+03  2.0857141900078964e+03  1.5446914566509008e+03  1.7686057944746512e+03  1.2463906848408808e+03  1.7783930307019436e+03  1.2417352551237416e+03  1.3229024296093889e+03  1.8003562141885025e+03  1.7248841503700501e+03  2.1209932056155599e+03  5.3186759114212805e+02  5.3579430672647243e+02  2.0782816326598117e+03  1.5230027103297818e+03  1.7566994867528838e+03  1.6803343449448982e+03  1.6983198787748699e+03  2.0180393678229373e+03  1.9356409520046718e+03  1.7369921394357330e+03  1.6359220363112522e+03  1.5905796712916358e+03  1.5252702372594979e+03  1.7433708869274906e+03  1.8020143973819877e+03  1.7340235984414458e+03  1.8978273930572091e+03  1.9359629080533903e+03  1.4892454513658574e+03  1.7623604873375755e+03  1.8966169075766850e+03  1.4874882766285662e+03  2.0910155600139351e+03  1.8022250394752900e+03  2.0370443657681856e+03  1.7566783548007522e+03  1.6931497230788384e+03  1.6500836073295152e+03  1.6359995078260117e+03  9.6502964886761197e+02  1.4746332609168639e+03  1.8079953310105823e+03  1.7374475778946437e+03  1.7975941931403117e+03  1.8426952185041096e+03  1.2499777705379663e+03  1.8096380574815587e+03  1.1479179932954851e+03  1.8431959197625674e+03  1.8429205678907506e+03  2.1312907663496385e+03  1.7112975450403105e+03  2.0326273636088899e+03  1.8101087997545039e+03  1.1467408417106951e+03  1.8089987759928417e+03  1.4347931859282892e+03  1.4786006323074680e+03  1.4870356655230487e+03  1.8531284773370014e+03  2.1071094266414652e+03  1.6919973817511520e+03  1.8423993023585824e+03  2.0197150104434038e+03  1.8446017143519473e+03  1.9968810958473794e+03  1.5146572766551792e+03  1.7962506564485245e+03  1.9559254792112697e+03  1.9550889113561761e+03  1.7973182409184028e+03  2.0898813109746648e+03  1.6637451218798369e+03  2.0644651471223119e+03  1.8036876954221534e+03  2.0200339510749438e+03  2.0885773482143595e+03  2.1313757416819999e+03  1.9021108645814329e+03  1.3897420274809665e+03  1.8040092403988722e+03  1.7790941519418420e+03  1.6667190883961141e+03  1.6461543782127424e+03  2.0385719790818232e+03  1.6158197043982786e+03  1.6491322382696683e+03  1.8203043921636881e+03  1.8019222799085903e+03  1.8045337480808075e+03  1.6230096324771746e+03  1.8185804973750758e+03  1.8168744313450825e+03  1.80698906053