<?xml version="1.0"?>
<VTKFile type="UnstructuredGrid"  version="0.1"  >
<UnstructuredGrid>
<Piece  NumberOfPoints="1419" NumberOfCells="2698">
<Points>
<DataArray  type="Float64"  NumberOfComponents="3"  format="ascii">0 0 0  0 0.41 0  2.5 0 0  2.5 0.41 0  0.5999928144197678 0.1898820157689673 0  0.6000019876365 0.2098755820590985 0  0.25 0.2 0  0.15 0.2 0  0.2489897948556636 0.21 0  0.2489897948556636 0.19 0  0.5999967586237396 0.1998787986818379 0  0 0.3807142857143437 0  0 0.3514285714286952 0  0 0.3221428571430699 0  0 0.29285714285744 0  0 0.2635714285718054 0  0 0.2342857142861561 0  0 0.2050000000005308 0  0 0.175714285714732 0  0 0.1464285714289574 0  0 0.1171428571431897 0  0 0.08785714285737878 0  0 0.05857142857161107 0  0 0.02928571428580012 0  0.03015443760436003 0 0  0.06140001986583606 0 0  0.09377624077125973 0 0  0.1273239957535082 0 0  0.1620856860351972 0 0  0.1981052433264291 0 0  0.235428184091502 0 0  0.2741016576309132 0 0  0.3141745521465447 0 0  0.3556974926295285 0 0  0.3987229542472677 0 0  0.4433053055141081 0 0  0.4895008759286886 0 0  0.5373680609405097 0 0  0.5869673343216626 0 0  0.6383613676634521 0 0  0.6916151138468254 0 0  0.7467958595648856 0 0  0.8039733463919316 0 0  0.8632198139502143 0 0  0.9246101326867038 0 0  0.9882218810934433 0 0  1.054135445558498 0 0  1.122434100542598 0 0  1.193204177141305 0 0  1.266535089879536 0 0  1.342519516046404 0 0  1.421253448503939 0 0  1.502836389106271 0 0  1.587371439758838 0 0  1.674965418777374 0 0  1.765729001825544 0 0  1.859776908880082 0 0  1.957227977487062 0 0  2.058205329869943 0 0  2.162836591189951 0 0  2.271253957290865 0 0  2.383594446803425 0 0  2.5 0.1024999999997612 0  2.5 0.2049999999994743 0  2.5 0.3074999999997183 0  2.383594446803656 0.41 0  2.271253957291315 0.41 0  2.162836591190598 0.41 0  2.058205329870775 0.41 0  1.957227977488067 0.41 0  1.859776908881246 0.41 0  1.765729001826854 0.41 0  1.674965418778818 0.41 0  1.58737143976041 0.41 0  1.502836389107956 0.41 0  1.421253448505726 0.41 0  1.342519516048286 0.41 0  1.266535089881505 0.41 0  1.193204177143353 0.41 0  1.122434100544716 0.41 0  1.05413544556068 0.41 0  0.9882218810956305 0.41 0  0.9246101326886647 0.41 0  0.8632198139519631 0.41 0  0.8039733463934788 0.41 0  0.7467958595662458 0.41 0  0.6916151138480078 0.41 0  0.6383613676644679 0.41 0  0.5869673343225223 0.41 0  0.5373680609412221 0.41 0  0.4895008759292634 0.41 0  0.4433053055145528 0.41 0  0.3987229542475914 0.41 0  0.3556974926297398 0.41 0  0.3141745521466497 0.41 0  0.2741016576310038 0.41 0  0.2354281840915826 0.41 0  0.1981052433265003 0.41 0  0.1620856860352591 0.41 0  0.1273239957535623 0.41 0  0.09377624077128965 0.41 0  0.06140001986584975 0.41 0  0.03015443760436654 0.41 0  0.2497468076502589 0.2050254481002335 0  0.2497468076502614 0.1949745518997913 0  0.2469965252529372 0.1829317073451959 0  0.2439893735792749 0.1762316384219906 0  0.2400332147834255 0.1700443375285386 0  0.2352133972704371 0.1645032867342007 0  0.2296339016332438 0.1597280261969788 0  0.2234150974217223 0.1558215752574715 0  0.2166911463437691 0.1528682099456123 0  0.2096071079204251 0.1509316448471593 0  0.2023158100364996 0.1500536585536553 0  0.194974551899914 0.1502531923497262 0  0.1877417105387872 0.1515259415822739 0  0.1807733240461124 0.153844448527136 0  0.1742197252835808 0.15715869474974 0  0.1682222986673531 0.1613971801805478 0  0.162910430003803 0.1664684656256651 0  0.1583987151779087 0.1722631454351573 0  0.1547844879126891 0.178656207771761 0  0.1521457199348551 0.1855097315605723 0  0.1505393388476355 0.1926758619366523 0  0.1505393388476328 0.2073241380633295 0  0.1521457199348437 0.2144902684393899 0  0.1547844879126531 0.221343792228163 0  0.1583987151778488 0.2277368545647528 0  0.1629104300036858 0.2335315343742052 0  0.1682222986671726 0.2386028198193036 0  0.1742197252833576 0.2428413052501257 0  0.1807733240458683 0.2461555514727623 0  0.1877417105384929 0.2484740584176516 0  0.1949745518995776 0.2497468076502398 0  0.202315810036185 0.2499463414463592 0  0.2096071079201568 0.2490683551528932 0  0.2166911463435495 0.2471317900544655 0  0.2234150974215506 0.2441784247426195 0  0.2296339016331197 0.2402719738031125 0  0.2352133972703547 0.2354967132658811 0  0.2400332147833751 0.2299556624715287 0  0.2439893735792577 0.2237683615780412 0  0.246996525252926 0.2170682926548348 0  0.2564595913259499 0.2099934447819488 0  0.2639286825378669 0.209992932521193 0  0.2713984114724794 0.2099924908154877 0  0.2788682422381569 0.2099918563305251 0  0.2863380267251088 0.209991006000801 0  0.2938077702190605 0.2099899785477499 0  0.3012774298287562 0.2099888026830626 0  0.3087470450381901 0.2099874433711963 0  0.3162165768544767 0.2099859513655889 0  0.3236860188748918 0.209984302636003 0  0.3311554123951923 0.2099825309484511 0  0.3386247008631619 0.2099806187132768 0  0.3460939347317254 0.2099785901765485 0  0.3535630674858956 0.2099764562100243 0  0.3610321471215173 0.2099742009150015 0  0.368501134124927 0.2099718575931877 0  0.3759700348930027 0.2099694098892457 0  0.3834388741572111 0.2099668896312297 0  0.3909076175747404 0.2099642761437092 0  0.39837630051304 0.2099616007094857 0  0.4058448907207469 0.2099588470695012 0  0.413313414790546 0.2099560364036691 0  0.4207818447816593 0.2099531710302649 0  0.4282502208174403 0.2099502460533786 0  0.4357185085770209 0.2099472775824347 0  0.4431867175736259 0.2099442588630906 0  0.4506548559594374 0.2099412084320562 0  0.4581229135954851 0.209938112990045 0  0.4655909000393302 0.2099349930889822 0  0.4730588071614172 0.2099318348728842 0  0.4805266426255473 0.2099286585283305 0  0.4879943996880594 0.2099254496818187 0  0.4954620847452047 0.2099222280786658 0  0.5029296920733668 0.2099189791922376 0  0.5103972265450061 0.2099157221045425 0  0.5178646839191584 0.2099124420640843 0  0.5253320677127957 0.2099091582367552 0  0.5327993744353334 0.20990585519723 0  0.5402666063861227 0.2099025522832043 0  0.547733761096624 0.2098992338021538 0  0.5552008401973296 0.2098959156033355 0  0.5626678299554105 0.2098925942068564 0  0.5701347606843998 0.2098892686794646 0  0.5776015990228078 0.2098859496357118 0  0.5850683639899592 0.2098826352509438 0  0.5925351439104234 0.209879357632065 0  0.5999991499420455 0.2048771497487923 0  0.5999945697082305 0.194880444263976 0  0.5925259698303532 0.1898850871211817 0  0.5850591920889749 0.1898886571743596 0  0.5775924349354652 0.1898921920351759 0  0.5701256053147548 0.189895720073207 0  0.5626586858919894 0.1898992339372558 0  0.5551917090895839 0.1899027425690732 0  0.5477246444404162 0.189906246036213 0  0.5402575095053944 0.1899097321860772 0  0.5327903031929839 0.1899132231594124 0  0.5253230231795839 0.1899166893817408 0  0.5178556747130677 0.1899201583993943 0  0.5103882529304332 0.1899235994540891 0  0.5029207647835098 0.1899270395994821 0  0.4954532034958955 0.1899304480964173 0  0.4879855778045548 0.1899338513717498 0  0.4805178788398933 0.1899372186170618 0  0.4730501174919159 0.1899405756774026 0  0.4655822824932771 0.1899438915269849 0  0.4581143873002351 0.1899471913379857 0  0.4506464179481879 0.1899504438758777 0  0.4431783906783363 0.1899536734208546 0  0.4357102887643697 0.1899568499718539 0  0.4282421310790057 0.1899599898355285 0  0.4207738967556409 0.1899630842607243 0  0.4133056132942108 0.1899661166451807 0  0.4058372572161205 0.1899690965943401 0  0.3983688338540383 0.1899720080400882 0  0.3909003562539565 0.1899748590812962 0  0.3834318067924055 0.1899776282930297 0  0.3759632059214498 0.1899803247067363 0  0.3684945331326788 0.1899829279879749 0  0.3610258074158244 0.1899854411163721 0  0.3535570147022946 0.1899878630279847 0  0.3460881746273045 0.1899901594938845 0  0.3386192694884379 0.1899923508639008 0  0.3311502983494207 0.18999441306317 0  0.323681287482282 0.1899963509454609 0  0.3162122049161556 0.1899981428199929 0  0.3087430819737804 0.1899997878536157 0  0.3012739033125718 0.1900012867219034 0  0.2938046852445487 0.190002592930298 0  0.2863354227121528 0.1900037333316532 0  0.2788661030232057 0.1900046852921384 0  0.2713968146829486 0.1900054801048693 0  0.2639275971568041 0.1900060792459539 0  0.2564590499999859 0.1900061463427186 0  0.2607809695319532 0.2000724485673138 0  0.5887798325038571 0.2000111463506987 0  0.5745097623019659 0.2000948674361177 0  0.5511958473067986 0.2000133837981118 0  0.2751323335212439 0.1999987741055155 0  0.5365283583120458 0.1999078476630738 0  0.2894679657294938 0.1998662945728358 0  0.5215937734953414 0.1999146213998399 0  0.3127882849786383 0.1998587474865198 0  0.327418175818801 0.1999895001043827 0  0.5066588959579771 0.1999213473556929 0  0.3650778953286384 0.1998446681749323 0  0.4767882743658283 0.1999345914771145 0  0.3417530011261595 0.1998549305624729 0  0.3797008958903842 0.1999736260038509 0  0.4618525340357749 0.1999410712897477 0  0.4917237288641192 0.1999280099749771 0  0.3946381907517403 0.1999682396624005 0  0.4469165089024882 0.1999474253532058 0  0.4089718075165282 0.1998320376603526 0  0.4322888648239162 0.2000808881390247 0  0.420165736466643 0.1999550237316447 0  0.3529061367047853 0.2000009792629278 0  0.5633167760739747 0.1998770533480203 0  0.3006634659387665 0.1999918674484368 0  0.5815921142139127 0.1965427852950826 0  0.267707303169658 0.1964264187902704 0  0.5290597896549074 0.1970039050685428 0  0.5439942195025975 0.1969970608840354 0  0.2825182826235083 0.2035435873397314 0  0.3199496084627661 0.2028979414918902 0  0.4842547630161652 0.1970241269998693 0  0.5141250676719975 0.1970107071141942 0  0.3722331208715642 0.2028830118551994 0  0.4693191857884016 0.19703070943245 0  0.3348881084049159 0.202894267184032 0  0.3871706226925841 0.2028778349820902 0  0.4543833280608002 0.1970371784041898 0  0.4991900577700553 0.1970174532360858 0  0.4020240476519317 0.203511532053398 0  0.439447191676695 0.1970435083507864 0  0.2550653153506419 0.2034069812016748 0  0.2548902845237312 0.1966957217077509 0  0.5946530807758881 0.202
[...]
<PointData  Scalars="f_46-2"> 
<DataArray  type="Float64"  Name="f_46-2"  format="ascii">1.8118365865235980e+03  1.8088710043670449e+03  3.4598665546771534e+00  4.2925921072729292e+00  1.2968133652129331e+03  1.3003635394174798e+03  0.0000000000000000e+00  1.8269827694055275e+03  1.5890999122575768e+03  1.5891926640988313e+03  1.2939708841181739e+03  1.8120542695239924e+03  1.8214560262853468e+03  1.8345941190996230e+03  1.8498451347236980e+03  1.8646013662461230e+03  1.8763182185310741e+03  1.8802198958616793e+03  1.8772438150573169e+03  1.8668646115747765e+03  1.8528667793522270e+03  1.8373716856822164e+03  1.8239465668479909e+03  1.8144814670468368e+03  1.8087677943458036e+03  1.7954096407278937e+03  1.7741599303272915e+03  1.7454373727798552e+03  1.7122694857519539e+03  1.6759075464178134e+03  1.6379516269717926e+03  1.6009634611429067e+03  1.5666559925829706e+03  1.5318293126565836e+03  1.4961510818107290e+03  1.4604825765054586e+03  1.4224455133885776e+03  1.3850665246357028e+03  1.3454714969485162e+03  1.3070047639304453e+03  1.2693462246478223e+03  1.2292034716224382e+03  1.1886677234220360e+03  1.1481600050331035e+03  1.1051121302524991e+03  1.0596409114813821e+03  1.0157398742192933e+03  9.6581398820862080e+02  9.1632111469787981e+02  8.6743653558707956e+02  8.1221225811788304e+02  7.5789980437268889e+02  6.9903237109764666e+02  6.4239901654381447e+02  5.7856818538101106e+02  5.1644533088513435e+02  4.5091387242790364e+02  3.8103898086745102e+02  3.1208144302156762e+02  2.3700926844877486e+02  1.6309357538598974e+02  8.0534529020286499e+01  -1.2557663948102824e+00  1.7839154053901621e-01  -9.1177739929608559e-01  8.1281507522833579e+01  1.5884695659630100e+02  2.3889302323622252e+02  3.1254072048489161e+02  3.8070199698186099e+02  4.5131556045000985e+02  5.1675044115189462e+02  5.7669323783703419e+02  6.4351627146799615e+02  6.9904575474576302e+02  7.5800044074548202e+02  8.1246236616954104e+02  8.6751790409703256e+02  9.1655667898664308e+02  9.6570266575103653e+02  1.0158000977139531e+03  1.0597012641337892e+03  1.1047437642438936e+03  1.1486985184627965e+03  1.1891968400876972e+03  1.2298859338854020e+03  1.2690067075027710e+03  1.3076832121292061e+03  1.3468489159298774e+03  1.3855475442874797e+03  1.4231999702738115e+03  1.4608005551536387e+03  1.4975242455570178e+03  1.5319032941830399e+03  1.5673147236892298e+03  1.6025230043629749e+03  1.6384891307694522e+03  1.6756714447051088e+03  1.7105664513944587e+03  1.7437746286688036e+03  1.7715135657105559e+03  1.7925993868623771e+03  1.8063390704804151e+03  0.0000000000000000e+00  0.0000000000000000e+00  1.5870507534162375e+03  1.5851633877550212e+03  1.5852958085249873e+03  1.5860541103473495e+03  1.5881722496225373e+03  1.5920718991130668e+03  1.5983462173252778e+03  1.6069606655841530e+03  1.6194930740173759e+03  1.6342268720640420e+03  1.6530249109306972e+03  1.6738879251218850e+03  1.6981636146004857e+03  1.7224292798510262e+03  1.7484117861178977e+03  1.7721424429608958e+03  1.7944667368634016e+03  1.8115067783987381e+03  1.8229943919299844e+03  1.8222777302555767e+03  1.8140383453873360e+03  1.7946809766903384e+03  1.7721217630649824e+03  1.7483103553500523e+03  1.7221879929637694e+03  1.6971460424981244e+03  1.6739549507622548e+03  1.6523959687456077e+03  1.6338135087945732e+03  1.6188792785361363e+03  1.6067179392648159e+03  1.5982943988643603e+03  1.5916896118037098e+03  1.5882574148132935e+03  1.5857839834280219e+03  1.5852935099349361e+03  1.5850669626987606e+03  1.5869682169107209e+03  1.5914033058928094e+03  1.5922687807689992e+03  1.5914045514641823e+03  1.5889005595377873e+03  1.5853767954717737e+03  1.5809455846664353e+03  1.5759565294939093e+03  1.5706191034959843e+03  1.5649460574477848e+03  1.5591408615708740e+03  1.5531539654078817e+03  1.5471159936202071e+03  1.5409727506897727e+03  1.5348468701907475e+03  1.5286590138163115e+03  1.5224911993152759e+03  1.5162673847593612e+03  1.5100671451126475e+03  1.5038502966272702e+03  1.4976472900220379e+03  1.4914136878625930e+03  1.4851741892421089e+03  1.4789733777210843e+03  1.4727066282032315e+03  1.4665072640694734e+03  1.4602188987203615e+03  1.4539973876477234e+03  1.4477330331633057e+03  1.4414499844168404e+03  1.4351958321590232e+03  1.4288594247579820e+03  1.4225780118354562e+03  1.4162472713474417e+03  1.4098437366074700e+03  1.4034703530773270e+03  1.3970539110179809e+03  1.3905860428680119e+03  1.3840717218797768e+03  1.3774480726601798e+03  1.3708023706391302e+03  1.3640254270848638e+03  1.3570940145482093e+03  1.3500285537068089e+03  1.3427798102829486e+03  1.3342561342366998e+03  1.3309231699448453e+03  1.2808776073143697e+03  1.2805726138836617e+03  1.3311737759541902e+03  1.3341293024302206e+03  1.3427277521458125e+03  1.3499743860228318e+03  1.3570474357803250e+03  1.3639564649109739e+03  1.3707594538785349e+03  1.3774021809626613e+03  1.3840068838516190e+03  1.3905080317184866e+03  1.3970104245038985e+03  1.4034165957658915e+03  1.4098176321533708e+03  1.4161547545258240e+03  1.4225003363931717e+03  1.4287873841667342e+03  1.4351127332634098e+03  1.4413774792028196e+03  1.4476561837973070e+03  1.4538898299435507e+03  1.4601518280103494e+03  1.4663738049263713e+03  1.4726418948592313e+03  1.4788548263332461e+03  1.4850959955669070e+03  1.4913026899069905e+03  1.4975391804201124e+03  1.5037367191114674e+03  1.5099853558229916e+03  1.5161834483792029e+03  1.5224055315511109e+03  1.5285796470327673e+03  1.5347773487509762e+03  1.5409177486653332e+03  1.5470741229737305e+03  1.5531192669452846e+03  1.5591247132539502e+03  1.5649466540777810e+03  1.5706359294867052e+03  1.5759940523695168e+03  1.5809960583267609e+03  1.5854410127236793e+03  1.5889809491307019e+03  1.5914989108524114e+03  1.5923701531529587e+03  1.5914960961234078e+03  0.0000000000000000e+00  0.0000000000000000e+00  0.0000000000000000e+00  0.0000000000000000e+00  0.0000000000000000e+00  0.0000000000000000e+00  0.0000000000000000e+00  0.0000000000000000e+00  0.0000000000000000e+00  0.0000000000000000e+00  0.0000000000000000e+00  0.0000000000000000e+00  0.0000000000000000e+00  0.0000000000000000e+00  0.0000000000000000e+00  0.0000000000000000e+00  0.0000000000000000e+00  0.0000000000000000e+00  0.0000000000000000e+00  0.0000000000000000e+00  0.0000000000000000e+00  0.0000000000000000e+00  0.0000000000000000e+00  0.0000000000000000e+00  0.0000000000000000e+00  0.0000000000000000e+00  0.0000000000000000e+00  0.0000000000000000e+00  0.0000000000000000e+00  0.0000000000000000e+00  0.0000000000000000e+00  0.0000000000000000e+00  0.0000000000000000e+00  0.0000000000000000e+00  0.0000000000000000e+00  0.0000000000000000e+00  0.0000000000000000e+00  0.0000000000000000e+00  0.0000000000000000e+00  0.0000000000000000e+00  0.0000000000000000e+00  0.0000000000000000e+00  0.0000000000000000e+00  0.0000000000000000e+00  0.0000000000000000e+00  0.0000000000000000e+00  0.0000000000000000e+00  0.0000000000000000e+00  0.0000000000000000e+00  0.0000000000000000e+00  0.0000000000000000e+00  0.0000000000000000e+00  0.0000000000000000e+00  0.0000000000000000e+00  0.0000000000000000e+00  0.0000000000000000e+00  0.0000000000000000e+00  0.0000000000000000e+00  0.0000000000000000e+00  0.0000000000000000e+00  0.0000000000000000e+00  0.0000000000000000e+00  0.0000000000000000e+00  0.0000000000000000e+00  0.0000000000000000e+00  0.0000000000000000e+00  0.0000000000000000e+00  0.0000000000000000e+00  0.0000000000000000e+00  0.0000000000000000e+00  0.0000000000000000e+00  0.0000000000000000e+00  0.0000000000000000e+00  0.0000000000000000e+00  0.0000000000000000e+00  0.0000000000000000e+00  0.0000000000000000e+00  0.0000000000000000e+00  0.0000000000000000e+00  0.0000000000000000e+00  0.0000000000000000e+00  0.0000000000000000e+00  0.0000000000000000e+00  0.0000000000000000e+00  0.0000000000000000e+00  0.0000000000000000e+00  0.0000000000000000e+00  0.0000000000000000e+00  0.0000000000000000e+00  0.0000000000000000e+00  0.0000000000000000e+00  0.0000000000000000e+00  0.0000000000000000e+00  0.0000000000000000e+00  0.0000000000000000e+00  0.0000000000000000e+00  0.0000000000000000e+00  0.0000000000000000e+00  0.0000000000000000e+00  0.0000000000000000e+00  0.0000000000000000e+00  0.0000000000000000e+00  0.0000000000000000e+00  0.0000000000000000e+00  0.0000000000000000e+00  0.0000000000000000e+00  0.0000000000000000e+00  0.0000000000000000e+00  0.0000000000000000e+00  0.0000000000000000e+00  0.0000000000000000e+00  0.0000000000000000e+00  0.0000000000000000e+00  0.0000000000000000e+00  0.0000000000000000e+00  0.0000000000000000e+00  0.0000000000000000e+00  0.0000000000000000e+00  0.0000000000000000e+00  0.0000000000000000e+00  0.0000000000000000e+00  0.0000000000000000e+00  0.0000000000000000e+00  1.5776051059911670e+03  1.5753188347471057e+03  1.1924752834575168e+03  1.5011165535013665e+03  1.4218163789318583e+03  1.5062596043969913e+03  1.3420142993174752e+03  1.4325556069169129e+03  1.7766686456265122e+03  1.3570582999072185e+03  1.7875964876236130e+03  1.7139734689097752e+03  1.6350706644205238e+03  1.7043560005883919e+03  1.8088179633420898e+03  1.6337267367897466e+03  1.5880017165109446e+03  1.5882509403115359e+03  1.8164960974676646e+03  1.5611330578937582e+03  1.5610723129901303e+03  1.5243625348987291e+03  1.2599357830789575e+03  1.5243355099226835e+03  1.4885110839639131e+03  1.4462044779611367e+03  1.4881252937736540e+03  1.4499806223135533e+03  1.4108581216396608e+03  1.3811804152342211e+03  1.3742729009697744e+03  1.7565605331669396e+03  1.3394435399200402e+03  1.7572995989756089e+03  1.3433924198861585e+03  1.2870080224350777e+03  1.6042595621433661e+03  1.6029351316894906e+03  1.2930635106145974e+03  1.3009159320269407e+03  1.4106535347319068e+03  1.8165493362044044e+03  1.6531437489923755e+03  1.6768414061661565e+03  1.0462803311133041e+03  1.7085463124393088e+03  1.7856707746312736e+03  1.7856082947262937e+03  9.0162954881468704e+02  1.4640241269957096e+03  1.5765107071095126e+03  1.3023574684640735e+03  1.5765314024769059e+03  1.5439801188510403e+03  1.5068256133755017e+03  1.7075156512954538e+03  1.6329764336190415e+03  1.5438781738755456e+03  1.3688140220687803e+03  1.5066909099416237e+03  1.6185925099364088e+03  1.2494937926290381e+03  1.4694307301151082e+03  1.7427218730268419e+03  7.5864797189762214e+02  1.4319231905993029e+03  1.3937998781514777e+03  1.5427676486084074e+03  1.3538355726507027e+03  1.4304334148507512e+03  1.3944242085624146e+03  1.3260414454557151e+03  1.8104350081986688e+03  1.3152218572302875e+03  6.1212966727528942e+02  1.3041037258813583e+03  1.5436364148325567e+03  1.7439228038692486e+03  1.3464470542730544e+03  1.8223315264367868e+03  1.8388045213192124e+03  1.7669034856835140e+03  1.5899880474901870e+03  1.5918597463781293e+03  1.5900506918350623e+03  1.5921947042054833e+03  1.4705498025769382e+03  1.3249579156477832e+03  1.5613614059707818e+03  1.4823420528953257e+03  1.8282097713076153e+03  1.5613309294161668e+03  1.7426058547415637e+03  4.6750544755720648e+02  1.5254085514010101e+03  1.2191985909079074e+03  1.3038723554760013e+03  1.3921692100683904e+03  1.8038313729082863e+03  1.5252848113918467e+03  1.4881184410118626e+03  1.7982734370593143e+03  1.6006069214642680e+03  1.6761381618323976e+03  1.8106184469189243e+03  1.4507201769896003e+03  1.6591572197783235e+03  1.4129417648765984e+03  1.5589335223164990e+03  1.4614109268172997e+03  1.1162495413310667e+03  1.1164132093622054e+03  1.3740523222248023e+03  3.4315858617571945e+02  1.7914934790728082e+03  1.4513498296708533e+03  1.6596513723572662e+03  1.3837576983751112e+03  1.5861699315274573e+03  1.6053570718440844e+03  1.3090109498281149e+03  1.2934901750108718e+03  1.5864720115474183e+03  1.7550664868703816e+03  1.4129035946646277e+03  1.5582996280571017e+03  1.6011410159340101e+03  1.3189283317060858e+03  1.9600683519743271e+02  1.7847148210118260e+03  1.5969698839934576e+03  1.3806618895843885e+03  9.7419082515242724e+02  9.7330445490789293e+02  1.4950054866325361e+03  1.4695768495420805e+03  1.4685321880443501e+03  1.6709771614617243e+03  1.6032848679643232e+03  1.3391112757777439e+03  1.5773987765392976e+03  1.4838926758811360e+03  1.7474323845416861e+03  1.7275469032566127e+03  1.3605000818494357e+03  1.1816419219117383e+03  1.5774848200738036e+03  1.4804685093616611e+03  1.7825825092728714e+03  1.5903335909136076e+03  1.3028115189977350e+03  1.4383888415829579e+03  1.5904397368100472e+03  1.6932519916989763e+03  1.8233395972498970e+03  1.4076258952432863e+03  8.3060487559532010e+02  8.3305136521739917e+02  1.5066197139021497e+03  1.5502949195767710e+03  1.5377085856941505e+03  1.7808218466087881e+03  1.5432224054925630e+03  1.5372974348689631e+03  1.5502520313145026e+03  1.5125365201570874e+03  1.5722499419032890e+03  1.5133354530907529e+03  1.5005739330711808e+03  1.0505192083310551e+03  1.0483911324983510e+03  1.6206919820775445e+03  1.8304751896304638e+03  1.5722687059601344e+03  1.5433211405244231e+03  1.4628733536891716e+03  1.4756939144873681e+03  1.5192427628676764e+03  1.4385518086671202e+03  1.4255987791019352e+03  1.8057227413421913e+03  1.2450520408643436e+03  1.3867902533247959e+03  1.4001308534638324e+03  1.8180267856066309e+03  1.6449127999918514e+03  1.5056328964533006e+03  1.3596761749642369e+03  1.2661426731776096e+03  1.2228672796125027e+03  1.6954493980237737e+03  6.8550466752800605e+02  6.8913734677470700e+02  1.8021277797041132e+03  1.6682257528391415e+03  1.6382679004461031e+03  1.4253759184525309e+03  1.4387507791206244e+03  1.7855001118440937e+03  1.4697701704260617e+03  1.3994328488732310e+03  1.8132758844342291e+03  1.5949615746741420e+03  1.4074245222484751e+03  1.5215291436549076e+03  1.3211250471089461e+03  1.3085513519652973e+03  1.6931279382775765e+03  1.6866964573702699e+03  1.4312448294256128e+03  1.3575583249738420e+03  1.6228709956942484e+03  1.8320528603234500e+03  1.6078010072363595e+03  1.7748668959882543e+03  1.3956107045205392e+03  1.3539938830645783e+03  1.3406200046792590e+03  1.3160877092789635e+03  1.5664231574837086e+03  1.7334475310580249e+03  1.5825412782519409e+03  1.8081543005380042e+03  1.5948702987338531e+03  9.0432381290837793e+02  9.0344280562599499e+02  1.5826277794635266e+03  1.6216510841567792e+03  1.7336852319399188e+03  1.3541677102113485e+03  5.3991462942090675e+02  5.4209586187511854e+02  1.3200410659218414e+03  1.5652397339005206e+03  1.5891029226462274e+03  1.8136073715057753e+03  1.2707979284066819e+03  1.5893056196270857e+03  1.4481474088752639e+03  1.1668151455394211e+03  1.5951273371936861e+03  1.6222176961526852e+03  1.7896339539194510e+03  1.2840624869389364e+03  1.7066858510643713e+03  1.6541496048514750e+03  1.3396501718578099e+03  1.2801254526508396e+03  1.4864082368398954e+03  1.2626508061043214e+03  1.7742186374306934e+03  1.5188476181196811e+03  1.5915110087315256e+03  1.6000582856174765e+03  1.4918139102542380e+03  1.7362607434401766e+03  1.4079059566032042e+03  1.7773219892439936e+03  1.1335255377693240e+03  1.4253663010376806e+03  1.4400524145007346e+03  1.3986441622149680e+03  1.8099020839273792e+03  1.5283153360851588e+03  1.8109593268905699e+03  1.2993791634461411e+03  1.3826774738710196e+03  3.9211868924827456e+02  3.9204021366641689e+02  1.5615745946115087e+03  1.4820821204584258e+03  7.6035512522800684e+02  7.5906816164764723e+02  1.7992999494927139e+03  1.5615591874018260e+03  1.4449951351627251e+03  8.8762955925973600e+01  1.4168811959654954e+03  1.5892758506449752e+03  1.5254689402788658e+03  1.7981359114264646e+03  1.4445377138772187e+03  1.5894513316569967e+03  1.7667551245825539e+03  1.5253776178160642e+03  1.6695256901249438e+03  1.4569780145882248e+03  1.8156542573894912e+03  1.8094296045811568e+03  1.4881549100191601e+03  1.7676301786711645e+03  1.7371923656203498e+03  1.5903924319267769e+03  1.4507475501108213e+03  1.5037327672517815e+03  1.4129279673660994e+03  1.8561307077215124e+03  1.3626603156257381e+03  1.3825834841781950e+03  1.5104198520139855e+03  1.6157416839934390e+03  6.1236337228440993e+02  6.1966345685789042e+02  1.3739269928005265e+03  1.7770951190885996e+03  1.5895061013487391e+03  1.3363248185091177e+03  1.7388991312352196e+03  1.3129083761119746e+03  1.8128455726289696e+03  1.2906007101454720e+03  1.3894830879940803e+03  1.5254160911765928e+03  1.3713389714648140e+03  1.7585298355818375e+03  1.3748278161784840e+03  1.5886109510994727e+03  1.7779096694804796e+03  2.4841568105580120e+02  2.5082693547309552e+02  1.4758794198209823e+03  1.6294712112110963e+03  1.7353587655681517e+03  1.3496398515117585e+03  1.2529378106099236e+03  1.8491151809043413e+03  1.2132851319720708e+03  1.6676827655995075e+03  1.4944585054356078e+03  1.8040604530208284e+03  1.5679943933277398e+03  1.0821697758896225e+02  1.5589378768293839e+03  9.9297301505833570e+02  1.8198263864533699e+03  1.1798476113044144e+03  1.2259025958503844e+03  1.6439414330966267e+03  1.5570647080095034e+03  1.7043254959211199e+03  1.5835304156781388e+03  1.5895818967822656e+03  1.6822767410745159e+03  1.5679764356958917e+03  1.5896788533512388e+03  1.7171601860020846e+03  1.6069735492701261e+03  1.6298847558588882e+03  1.1387986198917215e+03  1.3509019088372333e+03  1.7293571492261183e+03  1.3152632782579353e+03  1.8219222666168741e+03  1.6967465865991664e+03  1.5831546276110018e+03  1.2912424731938781e+03  1.4342235300713519e+03  1.5936850046825168e+03  1.5887492245293834e+03  1.3384107131825283e+03  1.5533082472267431e+03  1.4129632569599951e+03  1.5885569955075307e+03  1.7492554194977583e+03  1.8401481757804818e+03  1.8355367827899809e+03  1.7585390489053391e+03  1.7104331622499760e+03  1.8163721296681335e+03  1.5708433996866424e+03  1.5930347700190005e+03  1.7980231350672259e+03  1.5439516227989100e+03  1.3896013400193879e+03  1.7987898112494699e+03  1.8270502469209935e+03  1.8114740099127473e+03  1.3546547150385431e+03  1.5438598814230072e+03  1.0900587707657112e+03  1.5532298219756594e+03  1.0861015045779932e+03  1.1568113504484697e+03  1.6055869949300411e+03  1.5068439457415052e+03  1.8137654174012303e+03  4.6503941342374401e+02  4.6861582035445474e+02  1.7953221609696675e+03  1.3332357795727526e+03  1.5341826568982515e+03  1.4694506339433860e+03  1.4857329557657667e+03  1.7589215105382711e+03  1.7106566787020265e+03  1.5173836544329808e+03  1.4319470357357366e+03  1.3936509850622219e+03  1.3386179387318573e+03  1.5248980130124164e+03  1.5790505450093463e+03  1.5161136655171661e+03  1.6800494633331912e+03  1.6924743599755318e+03  1.3089129350225824e+03  1.5424921958932357e+03  1.6566226029889356e+03  1.3014117412782480e+03  1.8208496021323560e+03  1.5790073068230224e+03  1.7678285443204002e+03  1.5340553929542323e+03  1.4812775224111590e+03  1.4439276912880327e+03  1.4320120235774359e+03  8.4402709767887450e+02  1.2957867946950573e+03  1.5964811702696086e+03  1.5176467018091084e+03  1.5901564921897168e+03  1.6341873963692206e+03  1.0931503307098212e+03  1.5868193310961260e+03  1.0039672149147601e+03  1.6163336453138099e+03  1.6475077038002732e+03  1.8504626408151582e+03  1.4956086051523157e+03  1.7654597237891417e+03  1.5869630544243103e+03  1.0028945833180020e+03  1.5893738439498991e+03  1.2552618986242539e+03  1.2924060899108849e+03  1.3016185786069768e+03  1.6208432193365215e+03  1.8228924400395133e+03  1.4793637525267291e+03  1.6464767959937333e+03  1.7562327337221609e+03  1.6401839989238001e+03  1.7390329145099829e+03  1.3283177179477577e+03  1.5932277976054556e+03  1.7190521187844638e+03  1.7188985548371090e+03  1.5985282114778606e+03  1.8065456182372980e+03  1.4555241346861665e+03  1.7962980660815433e+03  1.5778207617394121e+03  1.7572064739796588e+03  1.7971209980056051e+03  1.8192581426656559e+03  1.6821604833574986e+03  1.2156449018006438e+03  1.5778547167677541e+03  1.5554035575007672e+03  1.4580094725163485e+03  1.4406341769947774e+03  1.7733213437311645e+03  1.4144904791157437e+03  1.4431253981169655e+03  1.6016650823536245e+03  1.5777291749842334e+03  1.5797368125477715e+03  1.4210003546631781e+03  1.6167948360752312e+03  1.6087935457718054e+03  1.58504543462