<?xml version="1.0"?>
<VTKFile type="UnstructuredGrid"  version="0.1"  >
<UnstructuredGrid>
<Piece  NumberOfPoints="1419" NumberOfCells="2698">
<Points>
<DataArray  type="Float64"  NumberOfComponents="3"  format="ascii">0 0 0  0 0.41 0  2.5 0 0  2.5 0.41 0  0.5999999999993605 0.1900000000410636 0  0.5999999999994813 0.2100000000294875 0  0.25 0.2 0  0.15 0.2 0  0.2489897948556636 0.21 0  0.2489897948556636 0.19 0  0.6000000000006365 0.1999999999606341 0  0 0.3807142857143437 0  0 0.3514285714286952 0  0 0.3221428571430699 0  0 0.29285714285744 0  0 0.2635714285718054 0  0 0.2342857142861561 0  0 0.2050000000005308 0  0 0.175714285714732 0  0 0.1464285714289574 0  0 0.1171428571431897 0  0 0.08785714285737878 0  0 0.05857142857161107 0  0 0.02928571428580012 0  0.03015443760436003 0 0  0.06140001986583606 0 0  0.09377624077125973 0 0  0.1273239957535082 0 0  0.1620856860351972 0 0  0.1981052433264291 0 0  0.235428184091502 0 0  0.2741016576309132 0 0  0.3141745521465447 0 0  0.3556974926295285 0 0  0.3987229542472677 0 0  0.4433053055141081 0 0  0.4895008759286886 0 0  0.5373680609405097 0 0  0.5869673343216626 0 0  0.6383613676634521 0 0  0.6916151138468254 0 0  0.7467958595648856 0 0  0.8039733463919316 0 0  0.8632198139502143 0 0  0.9246101326867038 0 0  0.9882218810934433 0 0  1.054135445558498 0 0  1.122434100542598 0 0  1.193204177141305 0 0  1.266535089879536 0 0  1.342519516046404 0 0  1.421253448503939 0 0  1.502836389106271 0 0  1.587371439758838 0 0  1.674965418777374 0 0  1.765729001825544 0 0  1.859776908880082 0 0  1.957227977487062 0 0  2.058205329869943 0 0  2.162836591189951 0 0  2.271253957290865 0 0  2.383594446803425 0 0  2.5 0.1024999999997612 0  2.5 0.2049999999994743 0  2.5 0.3074999999997183 0  2.383594446803656 0.41 0  2.271253957291315 0.41 0  2.162836591190598 0.41 0  2.058205329870775 0.41 0  1.957227977488067 0.41 0  1.859776908881246 0.41 0  1.765729001826854 0.41 0  1.674965418778818 0.41 0  1.58737143976041 0.41 0  1.502836389107956 0.41 0  1.421253448505726 0.41 0  1.342519516048286 0.41 0  1.266535089881505 0.41 0  1.193204177143353 0.41 0  1.122434100544716 0.41 0  1.05413544556068 0.41 0  0.9882218810956305 0.41 0  0.9246101326886647 0.41 0  0.8632198139519631 0.41 0  0.8039733463934788 0.41 0  0.7467958595662458 0.41 0  0.6916151138480078 0.41 0  0.6383613676644679 0.41 0  0.5869673343225223 0.41 0  0.5373680609412221 0.41 0  0.4895008759292634 0.41 0  0.4433053055145528 0.41 0  0.3987229542475914 0.41 0  0.3556974926297398 0.41 0  0.3141745521466497 0.41 0  0.2741016576310038 0.41 0  0.2354281840915826 0.41 0  0.1981052433265003 0.41 0  0.1620856860352591 0.41 0  0.1273239957535623 0.41 0  0.09377624077128965 0.41 0  0.06140001986584975 0.41 0  0.03015443760436654 0.41 0  0.2497468076502589 0.2050254481002335 0  0.2497468076502614 0.1949745518997913 0  0.2469965252529372 0.1829317073451959 0  0.2439893735792749 0.1762316384219906 0  0.2400332147834255 0.1700443375285386 0  0.2352133972704371 0.1645032867342007 0  0.2296339016332438 0.1597280261969788 0  0.2234150974217223 0.1558215752574715 0  0.2166911463437691 0.1528682099456123 0  0.2096071079204251 0.1509316448471593 0  0.2023158100364996 0.1500536585536553 0  0.194974551899914 0.1502531923497262 0  0.1877417105387872 0.1515259415822739 0  0.1807733240461124 0.153844448527136 0  0.1742197252835808 0.15715869474974 0  0.1682222986673531 0.1613971801805478 0  0.162910430003803 0.1664684656256651 0  0.1583987151779087 0.1722631454351573 0  0.1547844879126891 0.178656207771761 0  0.1521457199348551 0.1855097315605723 0  0.1505393388476355 0.1926758619366523 0  0.1505393388476328 0.2073241380633295 0  0.1521457199348437 0.2144902684393899 0  0.1547844879126531 0.221343792228163 0  0.1583987151778488 0.2277368545647528 0  0.1629104300036858 0.2335315343742052 0  0.1682222986671726 0.2386028198193036 0  0.1742197252833576 0.2428413052501257 0  0.1807733240458683 0.2461555514727623 0  0.1877417105384929 0.2484740584176516 0  0.1949745518995776 0.2497468076502398 0  0.202315810036185 0.2499463414463592 0  0.2096071079201568 0.2490683551528932 0  0.2166911463435495 0.2471317900544655 0  0.2234150974215506 0.2441784247426195 0  0.2296339016331197 0.2402719738031125 0  0.2352133972703547 0.2354967132658811 0  0.2400332147833751 0.2299556624715287 0  0.2439893735792577 0.2237683615780412 0  0.246996525252926 0.2170682926548348 0  0.2564580970931545 0.209999999970097 0  0.2639263993290492 0.2100000000632304 0  0.2713947015679309 0.2099999999252143 0  0.2788630038026427 0.2100000001084331 0  0.2863313060432002 0.2099999998432274 0  0.293799608274898 0.2100000002545764 0  0.3012679105185361 0.2099999997568923 0  0.3087362127435053 0.2100000006712957 0  0.3162045150026127 0.2099999990207374 0  0.323672817209569 0.2100000012667922 0  0.3311411194863655 0.2099999983216732 0  0.3386094216753961 0.2100000018697981 0  0.3460777239597143 0.2099999983951278 0  0.3535460261670495 0.210000000580208 0  0.361014328419843 0.2099999994227968 0  0.3684826306435061 0.2100000004281408 0  0.3759509328904139 0.2099999996730919 0  0.383419235121203 0.2100000001847671 0  0.3908875373614686 0.2099999998804622 0  0.3983558395978615 0.210000000037951 0  0.4058241418332312 0.210000000022654 0  0.4132924440739489 0.2099999999096958 0  0.4207607463066854 0.2100000001086462 0  0.4282290485502248 0.2099999997697365 0  0.4356973507777201 0.2100000002874818 0  0.4431656530244579 0.2099999997659697 0  0.450633955256604 0.2100000000432363 0  0.4581022574922153 0.210000000112794 0  0.465570559735914 0.2099999997720149 0  0.4730388619634726 0.2100000002775701 0  0.4805071642098636 0.2099999997846128 0  0.4879754664416608 0.2100000000712132 0  0.4954437686779336 0.2100000001096933 0  0.5029120709209901 0.2099999998059481 0  0.5103803731516388 0.210000000146582 0  0.5178486753932333 0.2099999999065567 0  0.525316977628441 0.2100000000158228 0  0.5327852798645902 0.2100000000572686 0  0.540253582105171 0.2099999998871213 0  0.5477218843377356 0.2100000001216947 0  0.5551901865790591 0.2099999998993518 0  0.5626584888135142 0.2100000000457761 0  0.5701267910523015 0.2099999999538683 0  0.5775950932879634 0.2100000000346259 0  0.5850633955262056 0.2099999999764469 0  0.5925316977627156 0.2100000000034319 0  0.599999999999731 0.2050000000190959 0  0.599999999999568 0.1950000000250072 0  0.5925316977627085 0.1900000000154667 0  0.5850633955266158 0.1899999999415714 0  0.5775950932875037 0.1900000000859114 0  0.5701267910533544 0.1899999998798902 0  0.5626584888128651 0.1900000001128415 0  0.5551901865822321 0.189999999670946 0  0.547721884333062 0.190000000493804 0  0.5402535821128549 0.1899999993507194 0  0.5327852798531318 0.1900000008775251 0  0.5253169776440237 0.1899999989986083 0  0.5178486753780215 0.1900000009295769 0  0.510380373165598 0.1899999992926859 0  0.5029120709117181 0.1900000004002056 0  0.4954437686832585 0.1899999998374024 0  0.4879754664453239 0.1899999998832178 0  0.4805071642014464 0.1900000003376844 0  0.4730388619773612 0.1899999994786523 0  0.465570559723493 0.1900000005792272 0  0.4581022575046571 0.1899999993898238 0  0.4506339552479041 0.1900000006638386 0  0.4431656530330683 0.1899999992288915 0  0.4356973507714614 0.1900000008004974 0  0.428229048557242 0.1899999993403519 0  0.4207607463053178 0.1900000002811728 0  0.4132924440784296 0.1899999996277683 0  0.4058241418302619 0.1900000003412018 0  0.3983558396019003 0.1899999997644163 0  0.3908875373610141 0.1900000000229667 0  0.3834192351216933 0.1900000001454504 0  0.375950932891493 0.1899999997102408 0  0.3684826306449859 0.1900000003118394 0  0.3610143284165181 0.1899999997453539 0  0.3535460261737564 0.1900000001229288 0  0.3460777239387617 0.189999999982085 0  0.3386094217027886 0.1899999998918053 0  0.3311411194617911 0.190000000165564 0  0.323672817229627 0.1899999998225197 0  0.3162045149877887 0.1900000001389162 0  0.3087362127538789 0.1899999999302628 0  0.3012679105156567 0.1899999999912254 0  0.2937996082782766 0.1900000000219344 0  0.2863313060415094 0.1899999999825973 0  0.2788630038040623 0.1900000000142109 0  0.2713947015671542 0.189999999991532 0  0.2639263993298644 0.1900000000067115 0  0.2564580970928272 0.1899999999971828 0  0.260780315992199 0.2000727136297325 0  0.5887803774233124 0.2001272386963331 0  0.574507240374069 0.200204443500968 0  0.551189143010036 0.2001122610029958 0  0.2751288526855136 0.199999999999401 0  0.5365194309847106 0.1999999999994271 0  0.2894621222999265 0.1998691686414256 0  0.5215828265104723 0.2000000000014301 0  0.3127789816667794 0.1998657885524433 0  0.3274069683451842 0.1999999999991216 0  0.5066462220363418 0.2000000000012399 0  0.3650630746574339 0.1998660178045263 0  0.4767730130879633 0.2000000000023087 0  0.3417402379597823 0.1998691686316248 0  0.379685084004753 0.2000000000012717 0  0.4618364086137469 0.2000000000042422 0  0.491709617562101 0.2000000000046725 0  0.3946216884789236 0.2000000000020884 0  0.4468998041396656 0.1999999999974525 0  0.4089549580935165 0.1998691686389502 0  0.4322718174608993 0.2001274512634892 0  0.4201487168044553 0.1999966198162243 0  0.3528922713242708 0.2000185701935558 0  0.563312243668054 0.1999814296086466 0  0.300655881008622 0.1999966199636061 0  0.5815926498169171 0.1966545283106156 0  0.2677053789419067 0.1964246479133201 0  0.5290511287472524 0.1970915827123894 0  0.5439877332212091 0.1970915827268038 0  0.2825131256991923 0.2035478996077479 0  0.3199386661090355 0.2029084172391752 0  0.4842413153259268 0.1970915826314341 0  0.5141145242741362 0.1970915826416066 0  0.3722167817680206 0.2029084172917761 0  0.4693047108511162 0.1970915826703829 0  0.3348752705824021 0.2029084172964793 0  0.3871533862420565 0.2029084173018128 0  0.4543681063768001 0.197091582678851 0  0.4991779198001955 0.1970915826268184 0  0.4020059614930098 0.2035478995881876 0  0.439431501902447 0.1970915826894076 0  0.2550657455368922 0.2034088125406021 0  0.2548908499171216 0.1966940311609729 0  0.5946539510195886 0.20243029730
[...]
<PointData  Scalars="f_40-2"> 
<DataArray  type="Float64"  Name="f_40-2"  format="ascii">3.6042631589497239e+02  3.6012386951537917e+02  0.0000000000000000e+00  0.0000000000000000e+00  2.6813173066331575e+02  2.6842847408499586e+02  0.0000000000000000e+00  3.5421996791819140e+02  3.2066783112224704e+02  3.2058390466119698e+02  2.6644269845745964e+02  3.6128977449978731e+02  3.6378666251462658e+02  3.6661052936804953e+02  3.6920968675268426e+02  3.7143997182799791e+02  3.7297276136013897e+02  3.7339488621973408e+02  3.7299782112217969e+02  3.7157424991646684e+02  3.6943059325184117e+02  3.6681198770916689e+02  3.6393469041244248e+02  3.6140567452774383e+02  3.5934341630835837e+02  3.5618238562535669e+02  3.5216915853359711e+02  3.4718407421790465e+02  3.4160782454991835e+02  3.3563439444596230e+02  3.2911379022112504e+02  3.2243821713553712e+02  3.1575297949609183e+02  3.0912087574130669e+02  3.0220788935085807e+02  2.9537786815677168e+02  2.8811066156987357e+02  2.8095901247871507e+02  2.7335769210346444e+02  2.6570082115541834e+02  2.5825888980861043e+02  2.5027779304232004e+02  2.4191257743064509e+02  2.3357012208924701e+02  2.2511887609544695e+02  2.1575081757366775e+02  2.0678518027060446e+02  1.9684095776437317e+02  1.8650433313118000e+02  1.7658564632507441e+02  1.6556988898329985e+02  1.5428802762641698e+02  1.4259301908573516e+02  1.3079696797401292e+02  1.1800370890318474e+02  1.0508259209535586e+02  9.1654542888281483e+01  7.7846053610793959e+01  6.3348767717266099e+01  4.8590022187442393e+01  3.3315911936292991e+01  1.6549246443439994e+01  0.0000000000000000e+00  0.0000000000000000e+00  0.0000000000000000e+00  1.6346141733081488e+01  3.2877958784561464e+01  4.8904015330541924e+01  6.3424083869668394e+01  7.7875209782399679e+01  9.1636864455483661e+01  1.0503934966824771e+02  1.1783663830041998e+02  1.3103185636138008e+02  1.4261336733668375e+02  1.5429011238419008e+02  1.6559908228464451e+02  1.7660415292249752e+02  1.8651496368520296e+02  1.9680286753270428e+02  2.0677863624179830e+02  2.1569764976820480e+02  2.2499827906741044e+02  2.3379416058987684e+02  2.4201627019580863e+02  2.5027813411053236e+02  2.5820005800354585e+02  2.6593644959815299e+02  2.7357977479138123e+02  2.8101713988766107e+02  2.8831637112446867e+02  2.9551182713502953e+02  3.0244154022609337e+02  3.0914436566313810e+02  3.1595233371041707e+02  3.2259496286358461e+02  3.2914917892187515e+02  3.3555596840867310e+02  3.4147636503919296e+02  3.4707839581723289e+02  3.5189493585077469e+02  3.5596661995542530e+02  3.5918267682583070e+02  0.0000000000000000e+00  0.0000000000000000e+00  3.2055953480333909e+02  3.2105509161552277e+02  3.2214389544171678e+02  3.2362251525606712e+02  3.2541928634568995e+02  3.2747781610526022e+02  3.2978364582420994e+02  3.3224767172885828e+02  3.3478972558532337e+02  3.3739951696209874e+02  3.4000786015499614e+02  3.4254211564363942e+02  3.4494942679378886e+02  3.4717892374819957e+02  3.4917885195588838e+02  3.5090128535056971e+02  3.5231077756995984e+02  3.5335320123270259e+02  3.5399233958641332e+02  3.5395303199444169e+02  3.5348766617968590e+02  3.5235284475892325e+02  3.5093585085063319e+02  3.4922745812558304e+02  3.4724008583327094e+02  3.4497906676123449e+02  3.4257908374366644e+02  3.4008870126524295e+02  3.3747594388956560e+02  3.3483260716801072e+02  3.3227742618925151e+02  3.2983665525247142e+02  3.2754874493469555e+02  3.2548374153155362e+02  3.2370276517035387e+02  3.2223741813555654e+02  3.2113294192793575e+02  3.2064402888686470e+02  3.2086093184883248e+02  3.2040950188640716e+02  3.1978310682801828e+02  3.1899968233232966e+02  3.1814591902951548e+02  3.1722584424254745e+02  3.1625198347019335e+02  3.1526246364067924e+02  3.1422809393966702e+02  3.1319351624473217e+02  3.1212254820849608e+02  3.1105403735258847e+02  3.0995039191064228e+02  3.0886230222403179e+02  3.0774746264801524e+02  3.0664497201325503e+02  3.0551421608805589e+02  3.0439441483538724e+02  3.0326307159669761e+02  3.0213484132293860e+02  3.0099634176817295e+02  2.9984780832788607e+02  2.9871927060596931e+02  2.9756024920473135e+02  2.9642933815876000e+02  2.9525902868752155e+02  2.9412491149983907e+02  2.9296368319128158e+02  2.9180319451937743e+02  2.9065947912138972e+02  2.8948089800456796e+02  2.8833195737174134e+02  2.8717416733987278e+02  2.8598529983297897e+02  2.8482105704091026e+02  2.8365232651248715e+02  2.8247240982961290e+02  2.8129852122939428e+02  2.8009242127149065e+02  2.7890690598420156e+02  2.7770147034458199e+02  2.7647795336922911e+02  2.7525313551796177e+02  2.7400452540775223e+02  2.7266054022023485e+02  2.7174642644725657e+02  2.6556702612113764e+02  2.6565715097514027e+02  2.7173016828774888e+02  2.7258078608316083e+02  2.7393557271055221e+02  2.7517704088543775e+02  2.7640096841668560e+02  2.7760982650245251e+02  2.7882384812857646e+02  2.8000222818812904e+02  2.8119731030151360e+02  2.8236775118240377e+02  2.8355992829532460e+02  2.8472096832671434e+02  2.8589756427381116e+02  2.8705298354233679e+02  2.8822418306697870e+02  2.8937404836335315e+02  2.9054902830047661e+02  2.9169688166266178e+02  2.9285901707290714e+02  2.9400109952304098e+02  2.9516020467280669e+02  2.9629998963258805e+02  2.9746322650832320e+02  2.9859754038757677e+02  2.9974825314602072e+02  3.0087816208878712e+02  3.0202332337019919e+02  3.0314637982997345e+02  3.0429213408211274e+02  3.0540880252254044e+02  3.0653751704458699e+02  3.0764134618674962e+02  3.0875714449702491e+02  3.0984833978234036e+02  3.1095332083547049e+02  3.1202140583704204e+02  3.1309524271986305e+02  3.1413150472888901e+02  3.1516762295620089e+02  3.1615920884482824e+02  3.1713460168749219e+02  3.1805609476879221e+02  3.1891116016004202e+02  3.1969762509540283e+02  3.2032513125106414e+02  3.2077714347167995e+02  0.0000000000000000e+00  0.0000000000000000e+00  0.0000000000000000e+00  0.0000000000000000e+00  0.0000000000000000e+00  0.0000000000000000e+00  0.0000000000000000e+00  0.0000000000000000e+00  0.0000000000000000e+00  0.0000000000000000e+00  0.0000000000000000e+00  0.0000000000000000e+00  0.0000000000000000e+00  0.0000000000000000e+00  0.0000000000000000e+00  0.0000000000000000e+00  0.0000000000000000e+00  0.0000000000000000e+00  0.0000000000000000e+00  0.0000000000000000e+00  0.0000000000000000e+00  0.0000000000000000e+00  0.0000000000000000e+00  0.0000000000000000e+00  0.0000000000000000e+00  0.0000000000000000e+00  0.0000000000000000e+00  0.0000000000000000e+00  0.0000000000000000e+00  0.0000000000000000e+00  0.0000000000000000e+00  0.0000000000000000e+00  0.0000000000000000e+00  0.0000000000000000e+00  0.0000000000000000e+00  0.0000000000000000e+00  0.0000000000000000e+00  0.0000000000000000e+00  0.0000000000000000e+00  0.0000000000000000e+00  0.0000000000000000e+00  0.0000000000000000e+00  0.0000000000000000e+00  0.0000000000000000e+00  0.0000000000000000e+00  0.0000000000000000e+00  0.0000000000000000e+00  0.0000000000000000e+00  0.0000000000000000e+00  0.0000000000000000e+00  0.0000000000000000e+00  0.0000000000000000e+00  0.0000000000000000e+00  0.0000000000000000e+00  0.0000000000000000e+00  0.0000000000000000e+00  0.0000000000000000e+00  0.0000000000000000e+00  0.0000000000000000e+00  0.0000000000000000e+00  0.0000000000000000e+00  0.0000000000000000e+00  0.0000000000000000e+00  0.0000000000000000e+00  0.0000000000000000e+00  0.0000000000000000e+00  0.0000000000000000e+00  0.0000000000000000e+00  0.0000000000000000e+00  0.0000000000000000e+00  0.0000000000000000e+00  0.0000000000000000e+00  0.0000000000000000e+00  0.0000000000000000e+00  0.0000000000000000e+00  0.0000000000000000e+00  0.0000000000000000e+00  0.0000000000000000e+00  0.0000000000000000e+00  0.0000000000000000e+00  0.0000000000000000e+00  0.0000000000000000e+00  0.0000000000000000e+00  0.0000000000000000e+00  0.0000000000000000e+00  0.0000000000000000e+00  0.0000000000000000e+00  0.0000000000000000e+00  0.0000000000000000e+00  0.0000000000000000e+00  0.0000000000000000e+00  0.0000000000000000e+00  0.0000000000000000e+00  0.0000000000000000e+00  0.0000000000000000e+00  0.0000000000000000e+00  0.0000000000000000e+00  0.0000000000000000e+00  0.0000000000000000e+00  0.0000000000000000e+00  0.0000000000000000e+00  0.0000000000000000e+00  0.0000000000000000e+00  0.0000000000000000e+00  0.0000000000000000e+00  0.0000000000000000e+00  0.0000000000000000e+00  0.0000000000000000e+00  0.0000000000000000e+00  0.0000000000000000e+00  0.0000000000000000e+00  0.0000000000000000e+00  0.0000000000000000e+00  0.0000000000000000e+00  0.0000000000000000e+00  0.0000000000000000e+00  0.0000000000000000e+00  0.0000000000000000e+00  0.0000000000000000e+00  0.0000000000000000e+00  0.0000000000000000e+00  0.0000000000000000e+00  0.0000000000000000e+00  3.1784433334737855e+02  3.1742113913297470e+02  2.4260171678497684e+02  3.0302185235389987e+02  2.8808449714411239e+02  3.0390597324559820e+02  2.7283627295134960e+02  2.9005743321330925e+02  3.5351007864912748e+02  2.7580200427515382e+02  3.5498434859733396e+02  3.4286365551743137e+02  3.3004312469892272e+02  3.4185601722055867e+02  3.5719025627947298e+02  3.2952981867554405e+02  3.1987515662303747e+02  3.2011633076054392e+02  3.5774085586627973e+02  3.1399910076577436e+02  3.1390086615504828e+02  3.0712219584214887e+02  2.5617275651424666e+02  3.0703402373295489e+02  3.0051230186107955e+02  2.9268325136389819e+02  3.0036386581846494e+02  2.9330791021070689e+02  2.8607360143324155e+02  2.8058707376001473e+02  2.7935911416984669e+02  3.4977133924071745e+02  2.7290816108730314e+02  3.4973377806263761e+02  2.7368646311669380e+02  2.6180559552226021e+02  3.2569027952086117e+02  3.2529501102979953e+02  2.6293982694836239e+02  2.6486318571428501e+02  2.8611951197265137e+02  3.5571651428668639e+02  3.3552463189431035e+02  3.3896497434324124e+02  2.1299671833610745e+02  3.4419659827735609e+02  3.5248998115079456e+02  3.5244490761095904e+02  1.8360191543297162e+02  2.9597746647912720e+02  3.1676068160679461e+02  2.6533663877643113e+02  3.1666861306997038e+02  3.1061714254462686e+02  3.0384245276835981e+02  3.4426819740424565e+02  3.3343364621557600e+02  3.1051123404792884e+02  2.7850896885076213e+02  3.0373256751551986e+02  3.3091605949363037e+02  2.5416512758547012e+02  2.9688781480827367e+02  3.4837254766150693e+02  1.5453892144291757e+02  2.8996856510089077e+02  2.8297731089624023e+02  3.1087596732875949e+02  2.7580584433786743e+02  2.8977701639326079e+02  2.8316899208741091e+02  2.7094946630213076e+02  3.5406403303165405e+02  2.6750988485589119e+02  1.2469152250733785e+02  2.6577188053918758e+02  3.1102171839322210e+02  3.4839215755016176e+02  2.7463521945595596e+02  3.6239802247391725e+02  3.6353946957837030e+02  3.5133055536196696e+02  3.2072866419384724e+02  3.2254980796669713e+02  3.2063888279812016e+02  3.2262015696354473e+02  2.9719096688461974e+02  2.7082746582230158e+02  3.1374128076397955e+02  2.9934357723046696e+02  3.6265420559023232e+02  3.1364241570913572e+02  3.4727220570656226e+02  9.5230033697061614e+01  3.0720710482332436e+02  2.4802886776499341e+02  2.6641583733469923e+02  2.8248132852045541e+02  3.5892278090496717e+02  3.0709697592587884e+02  3.0031653027094956e+02  3.5799129821289802e+02  3.2233664994449919e+02  3.3600444636197881e+02  3.5390996893877821e+02  2.9343293375539957e+02  3.3882793403033332e+02  2.8647937052048093e+02  3.1422886336244801e+02  2.9553630462438866e+02  2.2720077761624714e+02  2.2723991196411856e+02  2.7942456287065067e+02  6.9935985872120668e+01  3.5460517141735346e+02  2.9363534255594823e+02  3.3884662151903109e+02  2.8082580685615847e+02  3.1889822455854397e+02  3.2855519022772535e+02  2.6752138118366764e+02  2.6303907422576856e+02  3.1882443261708147e+02  3.4952322122286853e+02  2.8655552624599255e+02  3.1408955813209190e+02  3.2245533387247968e+02  2.6856638332250941e+02  4.0009733661209680e+01  3.5427728523685226e+02  3.2614919429404955e+02  2.8069053868270214e+02  1.9836279347485913e+02  1.9819251441520075e+02  3.0165877561719236e+02  2.9699300175539167e+02  2.9683521665641757e+02  3.3595516720019151e+02  3.2361754321334678e+02  2.7342121673347827e+02  3.1746317441757276e+02  2.9979566776991567e+02  3.4852846086398455e+02  3.4553542775147713e+02  2.7710966368595962e+02  2.4044696409982379e+02  3.1740919236118810e+02  2.9919313469263602e+02  3.5171881733254327e+02  3.2073172331456971e+02  2.6675320184729799e+02  2.9119105996186903e+02  3.2084109789142639e+02  3.4380161505669281e+02  3.5910677280550010e+02  2.8529620773032462e+02  1.6917530160964424e+02  1.6966872411870199e+02  3.0394135246695987e+02  3.1167393715302569e+02  3.0940804728683298e+02  3.5154195197880244e+02  3.1068434201258907e+02  3.0924156750236239e+02  3.1157348560917058e+02  3.0485399045217173e+02  3.1572629012556968e+02  3.0491167817083993e+02  3.0258687316497918e+02  2.1389651345223072e+02  2.1344658358189312e+02  3.3330494463024786e+02  3.6264160866814461e+02  3.1563235229993109e+02  3.1063076086522403e+02  2.9566684500996394e+02  2.9802800504424812e+02  3.0658946678552456e+02  2.9118617876325999e+02  2.8880125963826225e+02  3.5492502340652874e+02  2.5321416501606168e+02  2.8171745481096389e+02  2.8413831440021079e+02  3.5420207425033135e+02  3.3052904928154049e+02  3.0362861197484750e+02  2.7690074248277665e+02  2.5751172893028973e+02  2.4874323959173657e+02  3.3914558595087254e+02  1.3965737190956830e+02  1.4037625264346059e+02  3.5879011620046708e+02  3.3570804688588458e+02  3.2940731908019472e+02  2.8884863187029964e+02  2.9131269467696524e+02  3.5364721950079826e+02  2.9698340896006272e+02  2.8409346131754472e+02  3.6056170552446861e+02  3.2546862753316140e+02  2.8544211013460506e+02  3.0698066698493284e+02  2.7060848861154074e+02  2.6796845669070831e+02  3.4378285678310380e+02  3.4056732464780168e+02  2.8983654228583777e+02  2.7602141052739427e+02  3.2957905468862066e+02  3.6220354220522802e+02  3.2459591562149967e+02  3.5315554463068588e+02  2.8324412271108645e+02  2.7498646606626659e+02  2.7239816166663627e+02  2.6825933797341952e+02  3.1542807426787124e+02  3.4659564582397417e+02  3.1781726563868460e+02  3.5545083257424403e+02  3.2265960039139708e+02  1.8416573646654152e+02  1.8397433490464002e+02  3.1773078845268600e+02  3.3354723056999813e+02  3.4554930814348580e+02  2.7558865800754387e+02  1.0996828074496997e+02  1.1043551650850165e+02  2.7045603868847809e+02  3.1510838420340883e+02  3.2173370700777076e+02  3.5883570232555940e+02  2.5839787750732222e+02  3.2167597698163701e+02  2.9299774055060357e+02  2.3744730061129707e+02  3.2280228490012286e+02  3.2887076660916500e+02  3.5548044026773493e+02  2.6113278955530723e+02  3.4138667260579086e+02  3.3424826902870689e+02  2.7356682503409547e+02  2.6028177801655721e+02  3.0017930508643076e+02  2.5681495882430056e+02  3.5249072275373805e+02  3.0618977642999977e+02  3.2467706931054744e+02  3.2856838425442334e+02  3.0112420489873921e+02  3.4810708060199647e+02  2.8538166372577405e+02  3.5339784501869826e+02  2.3068562755168023e+02  2.8880794482796028e+02  2.9152556620910963e+02  2.8388444012503550e+02  3.5879125893882832e+02  3.0801862485724644e+02  3.5356480544637395e+02  2.6668820737936431e+02  2.8054961328260066e+02  7.9831812553026921e+01  7.9827778266592205e+01  3.1370653830350363e+02  2.9928888385501813e+02  1.5496160308088946e+02  1.5472554514043549e+02  3.5276591487169259e+02  3.1360877207742055e+02  2.9239211446672289e+02  1.8145100638367566e+01  2.8714510042992981e+02  3.1973264995802100e+02  3.0719376601123531e+02  3.5742456671178280e+02  2.9237791662373922e+02  3.1966342883863433e+02  3.5155633713077202e+02  3.0708743811173480e+02  3.4147481319878938e+02  2.9467147365759621e+02  3.5582240104321443e+02  3.6026182975992492e+02  3.0031232868885525e+02  3.5090297949697981e+02  3.4813006418275478e+02  3.2093045516433114e+02  2.9343149864444399e+02  3.0325099522531895e+02  2.8647445663683982e+02  3.6809540032646322e+02  2.7720173222105547e+02  2.8100100271299760e+02  3.0456796428942408e+02  3.2554259751500308e+02  1.2482527447139348e+02  1.2635171698097946e+02  2.7941020463282763e+02  3.5319722197363188e+02  3.2029584514669898e+02  2.7181964423038829e+02  3.4760252205574204e+02  2.6698806579427588e+02  3.6165316487012080e+02  2.6253547561910887e+02  2.8228490515315838e+02  3.0766984038478046e+02  2.7902160781292298e+02  3.5023905618569319e+02  2.7927819977083897e+02  3.2015521400219444e+02  3.5219894670787050e+02  5.0700389030294460e+01  5.1112404805370403e+01  2.9817025062353486e+02  3.3600567534745227e+02  3.4714320576349314e+02  2.7517385490024674e+02  2.5488076094901788e+02  3.6678043391975564e+02  2.4691126076347140e+02  3.4138237638035105e+02  3.0158199393910712e+02  3.5918976424485550e+02  3.1516576415587525e+02  2.2045015801359469e+01  3.1413515033503825e+02  2.0217922918042143e+02  3.5746884473294836e+02  2.4006208650722289e+02  2.4934185606116631e+02  3.3262214066730996e+02  3.1376982614488281e+02  3.4272328120520353e+02  3.1848924752035566e+02  3.2075858833836486e+02  3.3862463339748012e+02  3.1507080063742978e+02  3.2067632831796857e+02  3.4275179451815654e+02  3.3104584082613997e+02  3.3597415425616953e+02  2.3182441897087000e+02  2.7545005231566557e+02  3.4539725556924213e+02  2.6818313815071792e+02  3.6320195275440756e+02  3.4078132701660803e+02  3.1831904694601855e+02  2.6266050261843083e+02  2.9046388130965039e+02  3.2117906972658761e+02  3.2314798500653382e+02  2.7234486516316753e+02  3.1239349789910415e+02  2.8656888777038137e+02  3.2289019007461246e+02  3.4866680311188856e+02  3.6571161934644334e+02  3.6530859653301627e+02  3.4996399165263074e+02  3.4602114070655932e+02  3.5698836601214271e+02  3.1659307158926379e+02  3.2656475482855001e+02  3.5317386820784492e+02  3.1051116344062808e+02  2.8204802463901336e+02  3.5267646364008039e+02  3.6018410505393376e+02  3.5947563627317157e+02  2.7590115786816932e+02  3.1040220879593960e+02  2.2190728975030501e+02  3.1229171933986726e+02  2.2112364193950583e+02  2.3540343161630202e+02  3.3103434294658240e+02  3.0372332299113367e+02  3.5366149401019425e+02  9.4747296351938289e+01  9.5492872631362104e+01  3.5418740588708903e+02  2.7095804159317129e+02  3.0886987522357657e+02  2.9687484589920314e+02  3.0008890683652669e+02  3.4994574446091877e+02  3.4596798634005216e+02  3.0579955715988245e+02  2.8996668580162810e+02  2.8295607849728202e+02  2.7312311317964492e+02  3.0751721492935178e+02  3.1810014547317775e+02  3.0579237540802956e+02  3.4159637578823674e+02  3.3953142064576826e+02  2.6859398464181169e+02  3.1112082694818315e+02  3.3239958054147013e+02  2.6498300580357125e+02  3.6283599206233947e+02  3.1799599516603382e+02  3.5066721543157036e+02  3.0876288994084888e+02  2.9930657107276392e+02  2.9226569636645621e+02  2.9006962141800528e+02  1.7190471302580991e+02  2.6695829563321678e+02  3.2414361823870644e+02  3.0575610765265884e+02  3.2461898265421922e+02  3.3370763361703985e+02  2.2250699955119862e+02  3.1884570985865395e+02  2.0443989806781423e+02  3.2578456707719357e+02  3.3898184366698979e+02  3.6749131060843609e+02  3.0171565858032022e+02  3.5047315732054710e+02  3.1876504537145388e+02  2.0422527786817184e+02  3.2015553702102227e+02  2.5537771936051075e+02  2.6285220222140453e+02  2.6508975555586511e+02  3.2598594328327300e+02  3.6006345143752407e+02  2.9872844360501409e+02  3.3869864413585231e+02  3.4920385071387176e+02  3.3587889046802263e+02  3.4671497338221474e+02  2.7085223830329818e+02  3.2653299127417074e+02  3.4608095992316919e+02  3.4621500123724644e+02  3.2870895851243591e+02  3.5654812686200597e+02  2.9441009769640431e+02  3.5707008888866676e+02  3.1674262484463657e+02  3.4953264476854287e+02  3.5287784801202150e+02  3.5393212890879136e+02  3.4170686555293770e+02  2.4736303999069909e+02  3.1664874054038370e+02  3.1310754929960757e+02  2.9478567733303959e+02  2.9162639867208850e+02  3.5259448028627168e+02  2.8664220102092918e+02  2.9203614629688877e+02  3.2382366208639166e+02  3.1787931379742577e+02  3.1828273173076411e+02  2.8803815538781367e+02  3.3143390265657717e+02  3.2792545677630062e+02  3.1931976631338