<?xml version="1.0"?>
<VTKFile type="UnstructuredGrid"  version="0.1"  >
<UnstructuredGrid>
<Piece  NumberOfPoints="1419" NumberOfCells="2698">
<Points>
<DataArray  type="Float64"  NumberOfComponents="3"  format="ascii">0 0 0  0 0.41 0  2.5 0 0  2.5 0.41 0  0.5999853301894205 0.1899926805046013 0  0.5999856881229203 0.2099897985864632 0  0.25 0.2 0  0.15 0.2 0  0.2489897948556636 0.21 0  0.2489897948556636 0.19 0  0.5999853275307825 0.1999912392425145 0  0 0.3807142857143437 0  0 0.3514285714286952 0  0 0.3221428571430699 0  0 0.29285714285744 0  0 0.2635714285718054 0  0 0.2342857142861561 0  0 0.2050000000005308 0  0 0.175714285714732 0  0 0.1464285714289574 0  0 0.1171428571431897 0  0 0.08785714285737878 0  0 0.05857142857161107 0  0 0.02928571428580012 0  0.03015443760436003 0 0  0.06140001986583606 0 0  0.09377624077125973 0 0  0.1273239957535082 0 0  0.1620856860351972 0 0  0.1981052433264291 0 0  0.235428184091502 0 0  0.2741016576309132 0 0  0.3141745521465447 0 0  0.3556974926295285 0 0  0.3987229542472677 0 0  0.4433053055141081 0 0  0.4895008759286886 0 0  0.5373680609405097 0 0  0.5869673343216626 0 0  0.6383613676634521 0 0  0.6916151138468254 0 0  0.7467958595648856 0 0  0.8039733463919316 0 0  0.8632198139502143 0 0  0.9246101326867038 0 0  0.9882218810934433 0 0  1.054135445558498 0 0  1.122434100542598 0 0  1.193204177141305 0 0  1.266535089879536 0 0  1.342519516046404 0 0  1.421253448503939 0 0  1.502836389106271 0 0  1.587371439758838 0 0  1.674965418777374 0 0  1.765729001825544 0 0  1.859776908880082 0 0  1.957227977487062 0 0  2.058205329869943 0 0  2.162836591189951 0 0  2.271253957290865 0 0  2.383594446803425 0 0  2.5 0.1024999999997612 0  2.5 0.2049999999994743 0  2.5 0.3074999999997183 0  2.383594446803656 0.41 0  2.271253957291315 0.41 0  2.162836591190598 0.41 0  2.058205329870775 0.41 0  1.957227977488067 0.41 0  1.859776908881246 0.41 0  1.765729001826854 0.41 0  1.674965418778818 0.41 0  1.58737143976041 0.41 0  1.502836389107956 0.41 0  1.421253448505726 0.41 0  1.342519516048286 0.41 0  1.266535089881505 0.41 0  1.193204177143353 0.41 0  1.122434100544716 0.41 0  1.05413544556068 0.41 0  0.9882218810956305 0.41 0  0.9246101326886647 0.41 0  0.8632198139519631 0.41 0  0.8039733463934788 0.41 0  0.7467958595662458 0.41 0  0.6916151138480078 0.41 0  0.6383613676644679 0.41 0  0.5869673343225223 0.41 0  0.5373680609412221 0.41 0  0.4895008759292634 0.41 0  0.4433053055145528 0.41 0  0.3987229542475914 0.41 0  0.3556974926297398 0.41 0  0.3141745521466497 0.41 0  0.2741016576310038 0.41 0  0.2354281840915826 0.41 0  0.1981052433265003 0.41 0  0.1620856860352591 0.41 0  0.1273239957535623 0.41 0  0.09377624077128965 0.41 0  0.06140001986584975 0.41 0  0.03015443760436654 0.41 0  0.2497468076502589 0.2050254481002335 0  0.2497468076502614 0.1949745518997913 0  0.2469965252529372 0.1829317073451959 0  0.2439893735792749 0.1762316384219906 0  0.2400332147834255 0.1700443375285386 0  0.2352133972704371 0.1645032867342007 0  0.2296339016332438 0.1597280261969788 0  0.2234150974217223 0.1558215752574715 0  0.2166911463437691 0.1528682099456123 0  0.2096071079204251 0.1509316448471593 0  0.2023158100364996 0.1500536585536553 0  0.194974551899914 0.1502531923497262 0  0.1877417105387872 0.1515259415822739 0  0.1807733240461124 0.153844448527136 0  0.1742197252835808 0.15715869474974 0  0.1682222986673531 0.1613971801805478 0  0.162910430003803 0.1664684656256651 0  0.1583987151779087 0.1722631454351573 0  0.1547844879126891 0.178656207771761 0  0.1521457199348551 0.1855097315605723 0  0.1505393388476355 0.1926758619366523 0  0.1505393388476328 0.2073241380633295 0  0.1521457199348437 0.2144902684393899 0  0.1547844879126531 0.221343792228163 0  0.1583987151778488 0.2277368545647528 0  0.1629104300036858 0.2335315343742052 0  0.1682222986671726 0.2386028198193036 0  0.1742197252833576 0.2428413052501257 0  0.1807733240458683 0.2461555514727623 0  0.1877417105384929 0.2484740584176516 0  0.1949745518995776 0.2497468076502398 0  0.202315810036185 0.2499463414463592 0  0.2096071079201568 0.2490683551528932 0  0.2166911463435495 0.2471317900544655 0  0.2234150974215506 0.2441784247426195 0  0.2296339016331197 0.2402719738031125 0  0.2352133972703547 0.2354967132658811 0  0.2400332147833751 0.2299556624715287 0  0.2439893735792577 0.2237683615780412 0  0.246996525252926 0.2170682926548348 0  0.2564583010877078 0.2099973876305033 0  0.2639264883071702 0.2099972416213642 0  0.2713949265591481 0.209997176305599 0  0.278863395630146 0.2099970796199314 0  0.2863318517800578 0.2099969413518608 0  0.2938002865032864 0.2099967792004878 0  0.301268692752546 0.2099965990391787 0  0.3087370811547108 0.2099963995834674 0  0.3162054412933879 0.2099961886560538 0  0.3236737766958358 0.2099959631863104 0  0.3311420892328781 0.209995733623182 0  0.3386103753533957 0.2099954935814025 0  0.3460786391835899 0.2099952524612514 0  0.3535468738968918 0.2099950087279721 0  0.361015089567448 0.2099947654026574 0  0.3684832770210318 0.2099945240772765 0  0.3759514418487937 0.2099942827952613 0  0.3834195816071633 0.2099940502817214 0  0.3908876983688321 0.2099938184477776 0  0.3983557906967224 0.2099935974583656 0  0.4058238600048968 0.2099933793776877 0  0.4132919058136717 0.2099931715857994 0  0.4207599254457726 0.2099929701274966 0  0.4282279262128281 0.2099927788189639 0  0.4356959015098552 0.2099925950829357 0  0.4431638546605592 0.2099924180973497 0  0.4506317840736846 0.2099922519347608 0  0.4580996917645468 0.2099920909260816 0  0.4655675757709293 0.2099919404436223 0  0.4730354381434568 0.2099917942751373 0  0.4805032770857585 0.2099916578373394 0  0.4879710942496223 0.2099915246987394 0  0.4954388882631899 0.2099914001429464 0  0.5029066602998128 0.2099912778518796 0  0.5103744091162165 0.2099911628363927 0  0.5178421358202369 0.2099910487756445 0  0.5253098393452679 0.2099909408960033 0  0.5327775203479596 0.2099908327066363 0  0.5402451779784058 0.2099907296675576 0  0.5477128126527208 0.2099906252913147 0  0.5551804238650385 0.209990524063496 0  0.5626480088783468 0.2099904236143862 0  0.5701155740965329 0.2099903233406822 0  0.5775831123103893 0.2099902254403882 0  0.5850506281726453 0.209990128552344 0  0.5925181492589114 0.2099900416911054 0  0.5999854421804213 0.2049905050902351 0  0.5999852650819286 0.1949919722690805 0  0.5925177914003851 0.189992702754045 0  0.585050270671989 0.1899928808186676 0  0.5775827561915647 0.1899930495251219 0  0.5701152185070519 0.1899932172649771 0  0.5626476528617932 0.1899933815931574 0  0.5551800668865694 0.1899935461954251 0  0.5477124526285347 0.1899937114070831 0  0.5402448150141504 0.1899938739716959 0  0.5327771523434781 0.1899940425988154 0  0.5253094656835468 0.189994207867045 0  0.517841753990905 0.1899943807155922 0  0.5103740186471662 0.1899945513789527 0  0.5029062581672527 0.1899947308527375 0  0.4954384744512564 0.1899949094703956 0  0.4879706654717386 0.1899950981495769 0  0.4805028336847251 0.1899952872555468 0  0.4730349765588213 0.1899954876117786 0  0.4655670970422446 0.189995689531556 0  0.4580991922363723 0.1899959036597741 0  0.4506312654964889 0.1899961202808051 0  0.443163313673253 0.1899963497433362 0  0.4356953400901302 0.1899965825850699 0  0.4282273432623834 0.1899968271302304 0  0.4207593207851128 0.1899970784648907 0  0.4132912802314294 0.1899973387071117 0  0.4058232144024362 0.189997606497391 0  0.3983551274789 0.1899978800651343 0  0.3908870177501376 0.1899981631976676 0  0.3834188872910325 0.1899984496830026 0  0.3759507348602561 0.1899987440539556 0  0.3684825621210803 0.1899990398417935 0  0.3610143685141247 0.1899993401133501 0  0.3535461532384396 0.1899996415455557 0  0.3460779215182589 0.1899999419668756 0  0.3386096683720442 0.1900002405250805 0  0.3311413962972294 0.1900005329136751 0  0.3236731067141856 0.1900008209661973 0  0.3162047983217443 0.1900010972353465 0  0.308736473611268 0.1900013627558417 0  0.3012681316764338 0.1900016140835832 0  0.2937997758470989 0.1900018440021707 0  0.2863314046424174 0.1900020532914141 0  0.278863015214496 0.1900022371736249 0  0.2713946315544462 0.1900024076029176 0  0.2639262808810826 0.1900025465442793 0  0.2564581887757965 0.1900025185547914 0  0.2607800225221238 0.2000726418375011 0  0.5887669826842493 0.2001186608657363 0  0.5744953769292672 0.2001961068269469 0  0.551179551120901 0.2001043499259921 0  0.2751289719237059 0.1999997483941096 0  0.5365111453586884 0.1999923684527156 0  0.2894624674115137 0.1998686383053568 0  0.5215757778750731 0.1999926424290639 0  0.3127795453736065 0.1998645837678874 0  0.3274075735080716 0.1999982687560855 0  0.5066403158637098 0.1999929276876072 0  0.365063389559285 0.1998629530172493 0  0.4767691108582195 0.199993551994801 0  0.3417407949405102 0.1998669559888681 0  0.3796851414921356 0.1999963784574424 0  0.4618333687724338 0.1999939007133882 0  0.4917047600237902 0.1999932291965109 0  0.3946213883953358 0.1999958599920608 0  0.4468975341052955 0.1999942791207594 0  0.4089542246660801 0.199864583943784 0  0.4322702152121389 0.2001221066898099 0  0.4201475915323898 0.1999916591042504 0  0.3528927420764983 0.2000159155956482 0  0.5633014949130776 0.1999733232424205 0  0.3006563556385956 0.1999957552773125 0  0.581579985628186 0.1966465587722381 0  0.2677052995229009 0.1964254784023001 0  0.5290434202124209 0.1970845580326949 0  0.5439787415211308 0.1970842698413829 0  0.2825134478980886 0.2035465859932465 0  0.319939357800015 0.2029062321840366 0  0.4842368842860465 0.1970854943060876 0  0.5141080031005959 0.19708485483055 0  0.3722170879793437 0.2029044100302444 0  0.4693011836877239 0.1970858469893802 0  0.3348759651979106 0.2029057274475656 0  0.3871533767911822 0.2029038981855135 0  0.4543653896538128 0.19708622755139 0  0.499172490929955 0.1970851652230661 0  0.4020055688415025 0.203542758623114 0  0.4394295027166581 0.1970866393346097 0  0.2550652914678363 0.2034080796320233 0  0.254890374683029 0.196694711107261 0  0.5946399275793293 0.202421
[...]
<PointData  Scalars="f_46-2"> 
<DataArray  type="Float64"  Name="f_46-2"  format="ascii">8.3925502618785083e+02  8.3827942514728250e+02  1.2773634293849634e+00  1.4395675910493348e+00  6.1633894838665310e+02  6.1749211817295202e+02  0.0000000000000000e+00  8.2820302543264722e+02  7.4323682910369075e+02  7.4318117536881687e+02  6.1197260121347927e+02  8.4059112144565893e+02  8.4619315801289190e+02  8.5270414078708529e+02  8.5896682616184728e+02  8.6442219363592847e+02  8.6825178857254252e+02  8.6937844232949499e+02  8.6838958072820162e+02  8.6487607930422371e+02  8.5971969422097163e+02  8.5338257385016914e+02  8.4674216386392663e+02  8.4107901541535273e+02  8.3706058682549167e+02  8.2966787921217656e+02  8.2002094725972279e+02  8.0808428562200493e+02  7.9460442594958874e+02  7.8000430723908948e+02  7.6416770616988981e+02  7.4805237657344162e+02  7.3225006145913949e+02  7.1638665824257544e+02  7.0005570854889686e+02  6.8376305969615191e+02  6.6657782391904175e+02  6.4955259655454154e+02  6.3153428942375706e+02  6.1352887777311719e+02  5.9597129216695510e+02  5.7742824681685113e+02  5.5829574613531543e+02  5.3894450271175481e+02  5.1913162840232008e+02  4.9776276973764408e+02  4.7685662970412989e+02  4.5401467478121333e+02  4.3032942478113205e+02  4.0717735770696152e+02  3.8195477229538523e+02  3.5587885852985460e+02  3.2875157998439965e+02  3.0156636664568282e+02  2.7218230121605256e+02  2.4252550044650829e+02  2.1153432985474296e+02  1.7943418951883510e+02  1.4615321914950309e+02  1.1173758327875346e+02  7.6597530313338467e+01  3.8265849426909362e+01  -2.2675653871166673e-01  4.9111886103279191e-02  -2.3562753026695110e-01  3.7892354414147228e+01  7.5506268836881048e+01  1.1237681067703987e+02  1.4645061410737503e+02  1.7944422560553238e+02  2.1151903148388834e+02  2.4244478398619933e+02  2.7180453147665600e+02  3.0205845097369274e+02  3.2879896409140014e+02  3.5588990080548257e+02  3.8205710531727169e+02  4.0722705504454609e+02  4.3036422857860498e+02  4.5395583575584783e+02  4.7687629602228395e+02  4.9770105164895006e+02  5.1900925268816309e+02  5.3931164552377857e+02  5.5842556185457488e+02  5.7749386652888904e+02  5.9584294136723690e+02  6.1394679210771062e+02  6.3202142268066621e+02  6.4963708529845496e+02  6.6686997705702697e+02  6.8394997939885286e+02  7.0048376606118370e+02  7.1638749181273590e+02  7.3255227931395325e+02  7.4843458892227045e+02  7.6415822916705815e+02  7.7967926641758186e+02  7.9406522025017500e+02  8.0757383155515288e+02  8.1922458328296591e+02  8.2890422688611022e+02  8.3651054314769544e+02  0.0000000000000000e+00  0.0000000000000000e+00  7.4266734824901891e+02  7.4331681156928823e+02  7.4566511653661553e+02  7.4891405961605358e+02  7.5304303139830927e+02  7.5788865684293830e+02  7.6342441338845674e+02  7.6935308333149794e+02  7.7584332352418801e+02  7.8235314665647388e+02  7.8918462923320249e+02  7.9575487338749451e+02  8.0233738174998825e+02  8.0826762974492010e+02  8.1392738621646481e+02  8.1865420614828770e+02  8.2273895169080231e+02  8.2567176437666910e+02  8.2755934553488100e+02  8.2741669921612242e+02  8.2612414891497906e+02  8.2275477404670482e+02  8.1868937378935993e+02  8.1395752445927701e+02  8.0832353913273846e+02  8.0225271685354585e+02  7.9584657514952983e+02  7.8915949467283610e+02  7.8240977369145037e+02  7.7579444200476473e+02  7.6931514145480367e+02  7.6346953269563369e+02  7.5784608109740668e+02  7.5312464157787053e+02  7.4891721258849896e+02  7.4575125603647598e+02  7.4336124412580011e+02  7.4272546575638353e+02  7.4411037144448335e+02  7.4337468386842954e+02  7.4201995992855279e+02  7.4019250242165253e+02  7.3815462891136747e+02  7.3593637844122645e+02  7.3360216319036465e+02  7.3121490733437531e+02  7.2873912468879882e+02  7.2624568387499505e+02  7.2368565054867327e+02  7.2111577805365971e+02  7.1848789751020820e+02  7.1587327545948767e+02  7.1321585832461062e+02  7.1056807404484357e+02  7.0787687653712226e+02  7.0519556194297559e+02  7.0249625517960942e+02  6.9979901369054346e+02  6.9708040916790208e+02  6.9434904707527960e+02  6.9164247429987154e+02  6.8888827872480499e+02  6.8617837329614201e+02  6.8340564585647860e+02  6.8068062484946779e+02  6.7792374042002882e+02  6.7515885409777889e+02  6.7241779548664181e+02  6.6962498357461448e+02  6.6687355152015607e+02  6.6410365658130127e+02  6.6128906708449142e+02  6.5850509347158072e+02  6.5571092382343704e+02  6.5289830413693949e+02  6.5008358044267231e+02  6.4721957200454131e+02  6.4437449530161359e+02  6.4149183060064388e+02  6.3856787399712118e+02  6.3562780558983104e+02  6.3266056710832879e+02  6.2930563546317853e+02  6.2785102426692629e+02  6.0820291910120193e+02  6.0819847928378954e+02  6.2797554523699512e+02  6.2929840267978909e+02  6.3267845068642725e+02  6.3564079119051746e+02  6.3858339274419927e+02  6.4149009249048470e+02  6.4438852017835643e+02  6.4722497845457019e+02  6.5007457632041371e+02  6.5288273076916073e+02  6.5571472944166351e+02  6.5849842908812639e+02  6.6129695806767108e+02  6.6406419553601927e+02  6.6684778595572232e+02  6.6960011334934109e+02  6.7238471293684779e+02  6.7513039346251776e+02  6.7789107549822336e+02  6.8062353859554605e+02  6.8337623325069694e+02  6.8610183321217710e+02  6.8885771739868778e+02  6.9157204126717090e+02  6.9430500302995927e+02  6.9700933511031440e+02  6.9972994755042100e+02  7.0241881511998258e+02  7.0513567072969886e+02  7.0780999362851378e+02  7.1049477719347794e+02  7.1314154971298228e+02  7.1579786481077019e+02  7.1841510184428535e+02  7.2104280285457423e+02  7.2360990801412538e+02  7.2617276968339240e+02  7.2866740076332371e+02  7.3114461874196093e+02  7.3353452038348257e+02  7.3587009158422620e+02  7.3808917510461379e+02  7.4012940315558558e+02  7.4196279772347634e+02  7.4331925200577405e+02  7.4405381970107430e+02  0.0000000000000000e+00  0.0000000000000000e+00  0.0000000000000000e+00  0.0000000000000000e+00  0.0000000000000000e+00  0.0000000000000000e+00  0.0000000000000000e+00  0.0000000000000000e+00  0.0000000000000000e+00  0.0000000000000000e+00  0.0000000000000000e+00  0.0000000000000000e+00  0.0000000000000000e+00  0.0000000000000000e+00  0.0000000000000000e+00  0.0000000000000000e+00  0.0000000000000000e+00  0.0000000000000000e+00  0.0000000000000000e+00  0.0000000000000000e+00  0.0000000000000000e+00  0.0000000000000000e+00  0.0000000000000000e+00  0.0000000000000000e+00  0.0000000000000000e+00  0.0000000000000000e+00  0.0000000000000000e+00  0.0000000000000000e+00  0.0000000000000000e+00  0.0000000000000000e+00  0.0000000000000000e+00  0.0000000000000000e+00  0.0000000000000000e+00  0.0000000000000000e+00  0.0000000000000000e+00  0.0000000000000000e+00  0.0000000000000000e+00  0.0000000000000000e+00  0.0000000000000000e+00  0.0000000000000000e+00  0.0000000000000000e+00  0.0000000000000000e+00  0.0000000000000000e+00  0.0000000000000000e+00  0.0000000000000000e+00  0.0000000000000000e+00  0.0000000000000000e+00  0.0000000000000000e+00  0.0000000000000000e+00  0.0000000000000000e+00  0.0000000000000000e+00  0.0000000000000000e+00  0.0000000000000000e+00  0.0000000000000000e+00  0.0000000000000000e+00  0.0000000000000000e+00  0.0000000000000000e+00  0.0000000000000000e+00  0.0000000000000000e+00  0.0000000000000000e+00  0.0000000000000000e+00  0.0000000000000000e+00  0.0000000000000000e+00  0.0000000000000000e+00  0.0000000000000000e+00  0.0000000000000000e+00  0.0000000000000000e+00  0.0000000000000000e+00  0.0000000000000000e+00  0.0000000000000000e+00  0.0000000000000000e+00  0.0000000000000000e+00  0.0000000000000000e+00  0.0000000000000000e+00  0.0000000000000000e+00  0.0000000000000000e+00  0.0000000000000000e+00  0.0000000000000000e+00  0.0000000000000000e+00  0.0000000000000000e+00  0.0000000000000000e+00  0.0000000000000000e+00  0.0000000000000000e+00  0.0000000000000000e+00  0.0000000000000000e+00  0.0000000000000000e+00  0.0000000000000000e+00  0.0000000000000000e+00  0.0000000000000000e+00  0.0000000000000000e+00  0.0000000000000000e+00  0.0000000000000000e+00  0.0000000000000000e+00  0.0000000000000000e+00  0.0000000000000000e+00  0.0000000000000000e+00  0.0000000000000000e+00  0.0000000000000000e+00  0.0000000000000000e+00  0.0000000000000000e+00  0.0000000000000000e+00  0.0000000000000000e+00  0.0000000000000000e+00  0.0000000000000000e+00  0.0000000000000000e+00  0.0000000000000000e+00  0.0000000000000000e+00  0.0000000000000000e+00  0.0000000000000000e+00  0.0000000000000000e+00  0.0000000000000000e+00  0.0000000000000000e+00  0.0000000000000000e+00  0.0000000000000000e+00  0.0000000000000000e+00  0.0000000000000000e+00  0.0000000000000000e+00  0.0000000000000000e+00  0.0000000000000000e+00  0.0000000000000000e+00  0.0000000000000000e+00  0.0000000000000000e+00  0.0000000000000000e+00  7.3715647901004286e+02  7.3603189369896177e+02  5.5974065038155425e+02  7.0186223163560510e+02  6.6632994482976915e+02  7.0411669210570392e+02  6.3013132192973512e+02  6.7117642526388818e+02  8.2282856653880140e+02  6.3724261485031138e+02  8.2662400267260148e+02  7.9736664568514425e+02  7.6601984335622694e+02  7.9470868459175438e+02  8.3231678189188460e+02  7.6494791762353384e+02  7.4185886206898874e+02  7.4227284215407565e+02  8.3389900964288506e+02  7.2800045156451097e+02  7.2791676567726972e+02  7.1165974595911882e+02  5.9101493448187375e+02  7.1161384189767125e+02  6.9591310809022389e+02  6.7725953297580566e+02  6.9573631753852328e+02  6.7893240225377872e+02  6.6168762991683900e+02  6.4844217698270347e+02  6.4564059575117676e+02  8.1432578244648971e+02  6.3016003004457752e+02  8.1439829317917645e+02  6.3191051959525919e+02  6.0408170693248735e+02  7.5512058734352945e+02  7.5430580954410323e+02  6.0638562681414612e+02  6.1104485732320063e+02  6.6161045683107614e+02  8.2984808600371093e+02  7.7886342953712187e+02  7.8751789258447263e+02  4.9135333260182546e+02  8.0034812082186170e+02  8.2170655137150845e+02  8.2166520217216510e+02  4.2350196246592503e+02  6.8510801058639402e+02  7.3460382122274029e+02  6.1154738711655546e+02  7.3453315530614759e+02  7.2001253587203519e+02  7.0386025132398413e+02  8.0062468332120136e+02  7.7352723132496499e+02  7.1992137481805514e+02  6.4342126587650398e+02  7.0377722594822183e+02  7.6720912692386867e+02  5.8654317717717970e+02  6.8747203208894359e+02  8.1112270907949801e+02  3.5642897879392962e+02  6.7098505224653616e+02  6.5429799714049557e+02  7.2053427773694204e+02  6.3708017922712759e+02  6.7032708375582354e+02  6.5456009565745626e+02  6.2511544308026498e+02  8.2636026745468814e+02  6.1763571184516468e+02  2.8759514430539673e+02  6.1287546075303658e+02  7.2101416332154372e+02  8.1129775169151162e+02  6.3407946826527439e+02  8.4366198878957300e+02  8.4692776955785803e+02  8.1780063871677703e+02  7.4355287340278767e+02  7.4749914568279371e+02  7.4348013876618484e+02  7.4778511504209041e+02  6.8814771943132519e+02  6.2489076249852724e+02  7.2747971495823685e+02  6.9313456381852984e+02  8.4458401681740179e+02  7.2740043643422609e+02  8.0790576751381388e+02  2.1963612711564139e+02  7.1189341634635946e+02  5.7231134455614108e+02  6.1359561860004692e+02  6.5313696995961209e+02  8.3558441680110366e+02  7.1180430947587740e+02  6.9564678053638534e+02  8.3323359911842033e+02  7.4779458889247769e+02  7.8067868980863364e+02  8.2608143398494872e+02  6.7924577136568780e+02  7.8652031637263508e+02  6.6266678522265261e+02  7.2849246053692741e+02  6.8405529114101921e+02  5.2415477635273680e+02  5.2424462524399974e+02  6.4579202570275106e+02  1.6124925852920987e+02  8.2615839493612862e+02  6.7952355054737961e+02  7.8668456390852668e+02  6.4909871563648301e+02  7.3962858011298226e+02  7.6142817857777504e+02  6.1671257965775021e+02  6.0720473663249220e+02  7.3962379066200333e+02  8.1351236514993184e+02  6.6264227073024563e+02  7.2827302312530571e+02  7.4818492324074111e+02  6.1985208491099797e+02  9.2187939244770988e+01  8.2498566163610110e+02  7.5553148594270999e+02  6.4863253900419181e+02  4.5756503664135454e+02  4.5716252843214272e+02  6.9865971885607610e+02  6.8752939589522259e+02  6.8714947243196218e+02  7.8052492081252467e+02  7.5064883437856759e+02  6.3127425632474012e+02  7.3613405432811680e+02  6.9431672204556742e+02  8.1099288115162699e+02  8.0387761028451280e+02  6.4005029706210735e+02  5.5478001503302448e+02  7.3614526524504731e+02  6.9274780609162440e+02  8.2028690191907958e+02  7.4389436756164719e+02  6.1410672373758860e+02  6.7372617157193997e+02  7.4401430622159751e+02  7.9909880509397613e+02  8.3701990902056787e+02  6.5986137286702740e+02  3.9020140671931904e+02  3.9134054597448278e+02  7.0406657772666745e+02  7.2257126328259392e+02  7.1715912241310184e+02  8.1993515682757425e+02  7.2012009737991264e+02  7.1693228129425302e+02  7.2249500447289279e+02  7.0628551570890193e+02  7.3224175867360896e+02  7.0660414054228988e+02  7.0106411304982555e+02  4.9341648934612641e+02  4.9239121912110005e+02  7.7252423935148977e+02  8.4462183953606575e+02  7.3217096708409451e+02  7.2014420501139421e+02  6.8457585334032922e+02  6.9019891862549980e+02  7.1033227267670793e+02  6.7389745246383541e+02  6.6821310577095187e+02  8.2765083252288991e+02  5.8425530019186408e+02  6.5129742499003407e+02  6.5708325705549578e+02  8.2712881217367249e+02  7.6756261294675119e+02  7.0349768536092279e+02  6.3973416930772373e+02  5.9421311443703098e+02  5.7393214137424059e+02  7.8844054874130074e+02  3.2207391924712391e+02  3.2375635201058202e+02  8.3510806744031368e+02  7.7976580350347251e+02  7.6474075731524101e+02  6.6811046362001389e+02  6.7398439979243813e+02  8.2383551280054905e+02  6.8768026240470431e+02  6.5676523407316517e+02  8.3947948864386672e+02  7.5400777084781441e+02  6.6002143435771677e+02  7.1138758960574683e+02  6.2407490521655859e+02  6.1741865395829814e+02  7.9916007688339698e+02  7.9134721140698366e+02  6.7065754710374927e+02  6.3760864909803104e+02  7.6460307064410108e+02  8.4384180665213319e+02  7.5308249591549031e+02  8.2191096080388820e+02  6.5493384734759172e+02  6.3530514890065115e+02  6.2927908650154825e+02  6.1902186210615673e+02  7.3132271358594994e+02  8.0635139469234298e+02  7.3721273581152889e+02  8.2885444389653617e+02  7.4806574517127751e+02  4.2479871636460854e+02  4.2436922894596421e+02  7.3715780580735031e+02  7.7320812876140496e+02  8.0394397279183681e+02  6.3662044000145659e+02  2.5364550631863278e+02  2.5472241081029293e+02  6.2376720278326468e+02  7.3070856255095941e+02  7.4538449247762981e+02  8.3596285500341173e+02  5.9613737973975060e+02  7.4540126039034681e+02  6.7816397026691391e+02  5.4783361896005067e+02  7.4849287188838969e+02  7.6291667142426195e+02  8.2769575662713976e+02  6.0280218362321250e+02  7.9366703741098070e+02  7.7615325300648294e+02  6.3149424118078252e+02  6.0043241025857560e+02  6.9510985355384764e+02  5.9265592278175689e+02  8.2080235953393640e+02  7.0956329615693107e+02  7.5183748040505282e+02  7.6090282324730424e+02  6.9752017450509413e+02  8.1052152645227147e+02  6.5993014454533420e+02  8.2269525683878817e+02  5.3220967750815510e+02  6.6803005361847477e+02  6.7451063083957388e+02  6.5628626614484222e+02  8.3560535754046987e+02  7.1376321604531972e+02  8.2560611964425027e+02  6.1333844313148188e+02  6.4857879103142227e+02  1.8411683378093647e+02  1.8410575425328389e+02  7.2743594965623902e+02  6.9300660105940847e+02  3.5738115629662605e+02  3.5683422610053549e+02  8.2346159738007077e+02  7.2736114252572543e+02  6.7673698345882474e+02  4.1816514629211987e+01  6.6424128940292121e+02  7.4159002007061474e+02  7.1187418486944341e+02  8.3211071518267943e+02  6.7652873490033096e+02  7.4157720922102874e+02  8.1836246320713701e+02  7.1179682895715530e+02  7.9295933458663876e+02  6.8199325799254200e+02  8.3001972657384488e+02  8.3867614527262333e+02  6.9564538014048321e+02  8.1740178877146877e+02  8.1069235109790145e+02  7.4405568301052358e+02  6.7925103048658161e+02  7.0246021091044793e+02  6.6266488218836696e+02  8.5722968611290196e+02  6.4034455222143242e+02  6.4938488443743074e+02  7.0557297432419546e+02  7.5539068234375986e+02  2.8787807257288546e+02  2.9137577173269239e+02  6.4577200169375510e+02  8.2213177140713765e+02  7.4280021035917241e+02  6.2776233850795120e+02  8.0897979272246982e+02  6.1640041839288824e+02  8.4156589456194718e+02  6.0591855064324773e+02  6.5244473200506843e+02  7.1291163650384499e+02  6.4464064375388875e+02  8.1498740872517169e+02  6.4548801341708736e+02  7.4254706548531078e+02  8.2059654129960757e+02  1.1678453308493448e+02  1.1780293724425889e+02  6.9033420291074628e+02  7.7890222993750763e+02  8.0796784367343287e+02  6.3556421364910932e+02  5.8821512355480593e+02  8.5412594559243757e+02  5.6973444077688907e+02  7.9279514833091775e+02  6.9846915836020867e+02  8.3609015533662955e+02  7.3080061315931414e+02  5.0836105295988176e+01  7.2838498500601816e+02  4.6637859863937473e+02  8.3351821470114282e+02  5.5387667125416908e+02  5.7529366107108228e+02  7.7205081650865691e+02  7.2739402789195822e+02  7.9688036076440528e+02  7.3859302267013311e+02  7.4352894871287219e+02  7.8676993697827334e+02  7.3072523868155838e+02  7.4347643774321671e+02  7.9705151002251114e+02  7.6683559261660207e+02  7.7895630069156050e+02  5.3481699295494957e+02  6.3605995182992899e+02  8.0335395822343912e+02  6.1872161063335318e+02  8.4525530332058395e+02  7.9219603766960836e+02  7.3833488590373042e+02  6.0590146556507011e+02  6.7197045877572941e+02  7.4507903904074317e+02  7.4824430319791645e+02  6.2886734454198233e+02  7.2422141639434471e+02  6.6267143436761899e+02  7.4777777564628025e+02  8.1152988492368684e+02  8.5143395399140411e+02  8.5040154052598757e+02  8.1569411053193699e+02  8.0492618338136685e+02  8.3235447577733657e+02  7.3410681552784024e+02  7.5596661692600208e+02  8.2386582773976897e+02  7.1980606136470806e+02  6.5196021728563437e+02  8.2335108392270968e+02  8.3942413392396497e+02  8.3714890347062953e+02  6.3718045884745084e+02  7.1971374772881461e+02  5.1191489350895796e+02  7.2413453332826396e+02  5.1011532376714734e+02  5.4311309060970541e+02  7.6659920748927436e+02  7.0377821659984363e+02  8.2600094398801320e+02  2.1853311369737503e+02  2.2026182375628557e+02  8.2555068373793722e+02  6.2579192904749664e+02  7.1583630095817978e+02  6.8745730605615461e+02  6.9503028063121212e+02  8.1573729768755129e+02  8.0490359673318778e+02  7.0851859780870268e+02  6.7099623340050061e+02  6.5426621009700852e+02  6.3056856999270326e+02  7.1267951715471372e+02  7.3761065885261939e+02  7.0845810030817495e+02  7.9365729016603575e+02  7.8909863700024709e+02  6.1880820575983535e+02  7.2111185306161042e+02  7.7200697090399240e+02  6.1082404698925450e+02  8.4454373658556540e+02  7.3750411290823934e+02  8.1715454732793830e+02  7.1574465690573481e+02  6.9302130350947789e+02  6.7625628576251700e+02  6.7102147553184022e+02  3.9650133529943332e+02  6.1331315803228597e+02  7.5129498549583968e+02  7.0858871986525514e+02  7.5162413144023924e+02  7.7407154866978146e+02  5.1331463028367409e+02  7.3963339412926234e+02  4.7157071678102807e+02  7.5604808376424148e+02  7.8642708488588607e+02  8.5569016653819790e+02  6.9896674410751734e+02  8.1655169777932565e+02  7.3959328683766626e+02  4.7105869341230317e+02  7.4239235730067207e+02  5.8936775370338626e+02  6.0622418827913907e+02  6.1129008877632157e+02  7.5656148669897038e+02  8.3893371002904848e+02  6.9185035638383181e+02  7.8583713146474895e+02  8.1279764095119822e+02  7.7925790837456054e+02  8.0672228056461358e+02  6.2509413823323143e+02  7.5601436637128370e+02  8.0523250101408848e+02  8.0546353680078823e+02  7.6114363938840847e+02  8.3094046358183755e+02  6.8137310322825863e+02  8.3135018149520238e+02  7.3471062674068219e+02  8.1339807692933584e+02  8.2333957255487724e+02  8.2690047107563475e+02  7.9386652640325906e+02  5.7077566888289891e+02  7.3463894210519027e+02  7.2585093280118065e+02  6.8246004864009058e+02  6.7475509093880623e+02  8.2088517477555797e+02  6.6305044702110069e+02  6.7590975829347769e+02  7.5099171228190892e+02  7.3728228715216494e+02  7.3823896115859395e+02  6.6618082123807153e+02  7.6833235596067652e+02  7.6019106523400251e+02  7.40586538753