<?xml version="1.0"?>
<VTKFile type="UnstructuredGrid"  version="0.1"  >
<UnstructuredGrid>
<Piece  NumberOfPoints="1419" NumberOfCells="2698">
<Points>
<DataArray  type="Float64"  NumberOfComponents="3"  format="ascii">0 0 0  0 0.41 0  2.5 0 0  2.5 0.41 0  0.3223327057338652 0.1286288278818649 0  0.9880038292582041 -0.2179743558663 0  0.25 0.2 0  0.15 0.2 0  0.2489897948556636 0.21 0  0.2489897948556636 0.19 0  0.5677236360437163 0.2939285028412694 0  0 0.3807142857143437 0  1.00374213176952e-12 0.3514285714461701 0  0 0.3221428571430699 0  0 0.29285714285744 0  -8.067648980657857e-12 0.2635714309099702 0  0 0.2342857142861561 0  1.426316720853692e-09 0.205000001722647 0  0 0.175714285714732 0  0 0.1464285714289574 0  0 0.1171428571431897 0  0 0.08785713984781444 0  0 0.05857142857161107 0  0 0.02928571428580012 0  0.03015443760436003 0 0  0.06140001986583606 0 0  0.09377624077125973 0 0  0.1273239957698454 -3.781695381365674e-09 0  0.1620856860351972 0 0  0.1981052433264291 0 0  0.2354281840186012 -1.30125098464568e-09 0  0.2741016576228856 -9.672538249295363e-11 0  0.3141745521465447 0 0  0.355697492631341 -1.401458591069267e-10 0  0.3987229542472677 0 0  0.4433053055141081 0 0  0.4895008759286886 0 0  0.5373680609405097 0 0  0.5869673343216626 0 0  0.6383613676634521 0 0  0.6916151138468254 0 0  0.7467958595648856 0 0  0.8039733463919316 0 0  0.8632198139502143 0 0  0.9246101326867038 0 0  0.9882218810934433 0 0  1.054135445558498 0 0  1.122434100542598 0 0  1.193204177142181 -6.561148636143505e-14 0  1.266535089879536 0 0  1.342519516046404 0 0  1.421253448503939 0 0  1.502836389106271 0 0  1.587371439758838 0 0  1.674965418777374 0 0  1.765729001825544 0 0  1.859776908880082 0 0  1.957227977487062 0 0  2.058205329869943 0 0  2.162836591189951 0 0  2.271253957290865 0 0  2.383594446803425 0 0  2.5 0.1024999999997612 0  2.5 0.2049999999994743 0  2.5 0.3074999999997183 0  2.383594446803656 0.41 0  2.271253957291315 0.41 0  2.162836591190598 0.41 0  2.058205329870775 0.41 0  1.957227977488067 0.41 0  1.859776908881246 0.4099999999999293 0  1.765729001826854 0.41 0  1.674965418778818 0.41 0  1.58737143976041 0.41 0  1.502836389107956 0.41 0  1.421253448505726 0.41 0  1.342519516048286 0.41 0  1.266535089881505 0.41 0  1.193204177143353 0.41 0  1.122434100544716 0.41 0  1.05413544556068 0.41 0  0.9882218810956305 0.4100000000053715 0  0.9246101326886647 0.41 0  0.8632198139519631 0.41 0  0.8039733463934788 0.4100000002210452 0  0.7467958595662458 0.41 0  0.6916151138480078 0.41 0  0.638361367664434 0.409999999994879 0  0.5869673343225223 0.41 0  0.5373680609412221 0.41 0  0.4895008759292634 0.4100000002395673 0  0.4433053055145528 0.41 0  0.3987229542475914 0.41 0  0.3556974926297398 0.41 0  0.3141745521466497 0.4100000009172629 0  0.2741016576310038 0.409999999898762 0  0.2354281840915511 0.4099999999867832 0  0.1981052433237697 0.4099999999994087 0  0.1620856860352591 0.41 0  0.1273239947329338 0.4099999987491176 0  0.09377624077128965 0.41 0  0.06140001988986528 0.4099999899008226 0  0.03015443760436654 0.41 0  0.2497468076502589 0.2050254481002335 0  0.2497468076502614 0.1949745518997913 0  0.2469965252529372 0.1829317073452068 0  0.2439893735792749 0.1762316384219562 0  0.2400332147834255 0.1700443375285386 0  0.2352133972704371 0.1645032867342007 0  0.2296339016332438 0.1597280261969788 0  0.2234150974097604 0.1558215759052486 0  0.2166911463437247 0.1528682099456123 0  0.2096071079204251 0.1509316452056804 0  0.2023158100364996 0.1500536585536553 0  0.194974551899914 0.1502531923497262 0  0.1877417105394479 0.1515259415486897 0  0.1807733240461124 0.153844448527136 0  0.1742197252835808 0.15715869474974 0  0.1682222986673531 0.1613971801805478 0  0.162910430003803 0.1664684656256651 0  0.1583987151779087 0.1722631454351573 0  0.1547844879126891 0.178656207771761 0  0.1521457200863953 0.1855097315605723 0  0.1505393388476355 0.1926758619366523 0  0.1505393388476328 0.2073241380633295 0  0.1521457199348437 0.2144902684393899 0  0.1547844879126531 0.221343792228163 0  0.1583987151667241 0.2277368462614464 0  0.1629104300036858 0.2335315346057871 0  0.1682222986671726 0.2386028198193036 0  0.1742197252833576 0.2428413052501257 0  0.1807733240458683 0.2461555514727623 0  0.1877417105384929 0.2484740584176516 0  0.1949745519140115 0.2497468076471729 0  0.202315810036185 0.2499463414463592 0  0.2096071079212665 0.2490683551528932 0  0.2166911463435495 0.2471317900544655 0  0.2234150974215506 0.2441784247022656 0  0.2296339016331197 0.2402719738031125 0  0.2352133972703547 0.2354967132658811 0  0.2400332147833751 0.2299556624715287 0  0.2439893735792577 0.2237683615780412 0  0.2469965252583127 0.217068292651408 0  0.2373027594328683 -0.045211430526996 0  0.3995998998151787 1.053790572088324 0  -0.212375903474401 -3.245646135653873 0  1.733701176414198 10.56963594599169 0  -0.6263663125959198 -6.249527799969044 0  0.2359904356981677 -0.2462349536737233 0  0.4210425254566715 0.1395165802828766 0  0.3011596379921892 0.2340926828200851 0  0.2984848823790205 0.1642013561410007 0  0.5588332193400212 -1.096037549510889 0  0.4914579562661529 -0.6674859799568518 0  0.3336960332659591 0.2573908302012408 0  0.06528997961949046 0.827067142275535 0  0.6520694720958421 -0.4489332221928849 0  1.124646541595286 -1.506526711930705 0  -0.7419019364731051 2.589044068282771 0  0.6525389649077923 -0.3754034953790164 0  0.6840022705051514 0.02733503282608941 0  -0.3524867644211753 -0.3610903627834216 0  -0.3399267513197303 -0.3609371713957367 0  0.7677570605152292 0.4796176863610934 0  0.7388740077396598 0.5216195531120704 0  0.3221167911349598 -0.1910426558754862 0  1.249093358416664 -1.300889550383707 0  0.9410167875978035 -0.7053719887284603 0  0.09029212643405736 0.7778807346240225 0  0.2051670150245488 0.7891368501644647 0  0.4810332440013648 -0.2038393172945161 0  1.483853158132861 -0.5612843557212427 0  -6.57990955324801 4.243141072387407 0  6.653027264631991 -3.260874430278655 0  -3.061320951662308 2.450015155942175 0  0.9352778423228119 0.08558175269832879 0  0.5775662526838238 0.07384486795082915 0  0.3184139642084687 0.6106374691445899 0  -0.2934993461733366 0.9642855189456935 0  1.276978962081574 -0.1606909639836285 0  0.3197608179670383 0.4185620376190795 0  0.7831702732614114 -0.05283166713039764 0  0.4479249413218506 0.3506789231753827 0  0.9407505979318309 -0.237474091736768 0  0.5882370801880604 0.02337981158063127 0  0.436554582403855 0.2537551583841868 0  0.4779723756691602 0.2758663929423341 0  0.4383108978280736 0.399587426336334 0  0.490362374103006 0.3449123401845443 0  0.9616468160673048 -0.1926197200997247 0  0.5791913660320797 0.2713410658687922 0  0.6645838457981443 0.351361628966997 0  2.253340031102663 -0.03815904993297916 0  -1.062602414899223 0.1420527040347889 0  1.389872941430908 -0.01223360389614003 0  0.1432137725192685 0.1818128040685895 0  0.6701277620948289 0.360258831634761 0  0.3594902564831445 0.3201379861167352 0  0.436681518766197 0.1922013251600973 0  -0.02650198259517862 0.2616788588283054 0  0.8647279807514231 0.2769876198609342 0  0.5793998445762302 0.08173858063957044 0  0.4655806038730258 0.09624558284701806 0  0.5463715073835284 0.3149274681790269 0  0.4711215918889819 0.2375105264896494 0  0.455894899187302 0.1344547057579443 0  0.6357858615210332 0.5377887937091684 0  0.4396136386061633 0.2352394464932745 0  -0.0795399455966605 0.1415755037836749 0  0.9070560320719183 0.2317216672280224 0  0.3125685069636978 0.09849869543893502 0  0.4871815868088738 0.1027713815065279 0  0.4349097044148542 0.2289495794204567 0  0.4729974632750208 0.2350073962322476 0  0.2785808296868075 0.5214987339469399 0  0.4247074221641015 0.4861144137227124 0  0.6304330755324122 0.2321071698106449 0  0.3152606783111998 -0.215802068316503 0  0.4394094842927059 0.1157977647741879 0  0.8288617327191486 -0.3417304775054396 0  -0.6027338787133599 1.384003495879788 0  1.665397014894555 -1.432601312616015 0  0.1451264586569825 0.3043975168677454 0  0.4084778703006883 0.2277063788273206 0  0.3977050763135633 0.2561530554978418 0  0.3090008239117578 0.540406729603839 0  0.3222037259831129 0.01901223017216545 0  0.3142529559499058 0.1460089091750749 0  0.3191783028123046 0.6934700677890836 0  0.2734861233418424 0.09679747259974728 0  0.373415092088916 0.1330033410394815 0  0.0750854288832597 0.2956917582017885 0  0.7826838121635895 -0.0237009886823917 0  0.3358939869215812 0.08981546838457453 0  -1.091838271797233 0.5813113408842816 0  1.394733604325989 -0.1639199044445699 0  1.131662443228386 -0.1962868035141679 0  0.2438124598542097 -0.1539949488427232 0  0.5915923412053961 0.2233485719097043 0  0.4765285496322266 0.1375684427349499 0  0.5520762442619787 0.1756831624911415 0  0.3147188899611379 0.9385166443595265 0  0.529268281364964 0.2290226154797149 0  0.2858537749032296 0.1649632977801104 0  0.5304130898018989 0.279713415294439 0  0.310770471817024 0.2269333647067711 0  0.3179226243920502 0.1456614957522105 0  0.5895581581615428 0.2247734599015676 0  0.4416404823592893 0.02984913892451881 0  0.4659528548480229 0.2426523992219349 0  0.3564069247871265 0.2136719895092533 0  0.4777817438225379 0.03259260252414093 0  0.4485530050037369 0.189861259826706 0  0.4250278739388801 0.3018375270474906 0  0.4371536817046941 0.1173442303639312 0  0.4322047166630957 0.1773041906881646 0  0.4470750515122699 0.1991101722798939 0  0.4877914432805112 0.1199698738512179 0  0.4404405769681708 0.2061351153722748 0  0.3382649915872468 0.2085459150708569 0  0.6258860917532169 0.1280597034138757 0  0.2839504333848594 0.3066441209468344 0  0.6540814095905747 0.07479587146076555 0  0.4002950522167168 0.0538925967210879 0  0.5458817882257987 0.2622002845306819 0  0.5404875031020785 0.2386776491385134 0  0.1622830865778512 -0.7876332490139976 0  0.3122854640684236 0.2125435945858311 0  0.5419963092223373 0.2339909253691941 0  0.5521881307272355 0.2479822940392899 0  0.5756751262779883 -0.2780416935888413 0  0.4775718298090812 0.2235617865755
[...]
<PointData  Scalars="f_40-2"> 
<DataArray  type="Float64"  Name="f_40-2"  format="ascii">-7.2797063135908208e+16  -1.1366309755118218e+17  0.0000000000000000e+00  0.0000000000000000e+00  -1.1980779371046216e+16  -1.9388362788239260e+16  0.0000000000000000e+00  -9.3998817646345940e+15  -9.3149463043784300e+15  -6.5685549986658624e+16  1.3467771099979414e+16  -6.2871734139524072e+16  -5.5379651964729760e+16  -7.4061852315202528e+16  1.8540820814081460e+16  -2.7057748389653764e+16  6.6227433188006862e+14  -6.4784821438315830e+15  5.3375175427632730e+17  6.6370861584741158e+17  4.8980502015299738e+17  1.0720826120438266e+17  -7.3233694818684464e+16  -2.8215567433032019e+17  -5.0251440573694528e+17  -3.8836526091293416e+16  -4.3950037659585848e+16  -1.3837186860929692e+16  -5.1615536134462232e+16  -3.6670587916848048e+16  3.9604121761893800e+15  2.7869098220090615e+15  -2.4460375593830620e+15  -9.8246618428958520e+15  -6.6693729392945248e+16  -4.8213295458841768e+16  -5.5261715555437480e+16  1.2467221760940184e+16  -8.0637770207187690e+15  -4.7823277031999344e+16  -5.6013443695009008e+16  -3.4019280100557652e+16  1.2524740648954309e+17  2.1052212358058413e+17  -2.5542491018842944e+17  -1.2318925180868298e+18  -2.5392434768807910e+18  -2.5482798014359363e+18  -5.4913649878677473e+18  -9.2823762497985126e+18  -1.3296790883881847e+19  -9.2139969469043466e+18  -8.6749595389139497e+18  -7.5496595522195548e+18  -2.8567408522404516e+18  -4.1596368580216694e+18  -4.9249302705527235e+18  -1.2985206187587750e+18  -7.4434816509246730e+18  1.8542043196377219e+18  5.9437390617108531e+18  -4.5959740028694871e+18  0.0000000000000000e+00  0.0000000000000000e+00  0.0000000000000000e+00  -2.1024747815448535e+18  -2.8645769336634819e+18  -4.8017092829889352e+18  -4.9159728090448036e+18  -9.2109028036246446e+18  -1.0446069698799384e+18  -3.7294153377402618e+17  -2.9918047709080146e+18  -5.8944179207123692e+18  -1.1155756487135795e+19  -7.7932361250852895e+18  -7.3605271353189110e+18  -9.8816378756174991e+18  -8.1387936523804723e+18  -3.5063824441418271e+18  -2.4080212794341074e+18  -9.3120904272945024e+16  2.7647841310229100e+16  2.6944942031537908e+16  1.2740064815150342e+16  -9.2907317025983360e+15  -1.3625304879853708e+16  4.6641726164248080e+15  -1.8558144841666164e+16  -2.7668218666871495e+15  2.5975200156036780e+15  2.2568635678277448e+16  1.2790958108533054e+16  -2.8323081600127816e+16  8.8988764551706500e+15  4.8916071029206570e+15  9.2613517959308820e+15  8.7334638957016310e+15  3.2275457124820770e+15  8.2416948695159260e+15  -1.3469654943513770e+16  -8.4689109671056500e+15  -1.0662162400970194e+17  0.0000000000000000e+00  0.0000000000000000e+00  2.7451485730271036e+16  4.2046885877988008e+16  -7.7004048826221190e+15  7.8640829619938380e+15  -1.3473498268028466e+16  -3.1398670130860810e+15  -3.4489889303296420e+15  1.5872628099907892e+16  -7.7809798707659380e+15  -1.2581576300980422e+15  4.1524511940542768e+16  1.4864013139364476e+16  1.9622602851940936e+16  -4.0965248086850936e+16  -1.0110515212554470e+16  -1.6760306433765722e+17  -1.6568039495257318e+17  4.8776449361662374e+17  -3.2500047288658317e+17  -9.3432836093933328e+16  -2.4922365671935254e+17  -7.0648636760961784e+16  2.3298486106660336e+16  5.0925215588230664e+16  4.1111333469937536e+16  1.7202638560173780e+16  1.3642176037895962e+16  -3.7875825314330630e+15  1.3540798636448944e+14  2.2643704338071066e+14  -1.3594544638288503e+14  3.1251483141218775e+14  9.7936516584127050e+14  1.6164664686663842e+15  -1.7038103589118882e+15  -2.3644234270967940e+15  -2.1130202710114480e+15  2.7154939749571912e+16  -9.9556858653665580e+15  -3.1342276675355055e+15  1.1175734447391292e+16  1.1221082608474034e+16  1.0593529615062940e+16  -7.9945153707150330e+15  9.5649415415941104e+16  8.3524504810309856e+16  1.2472658625004656e+16  -7.0523168643090030e+15  1.6921228174986030e+16  -7.9879697845583912e+14  -7.1386108338062850e+14  -1.4888429077749447e+14  -1.5730853951192738e+14  3.0839715145952395e+15  -5.1534973840360094e+14  -4.5863734152133862e+14  6.2027217625774320e+15  -2.8753837934198115e+15  1.0978060479814766e+15  1.7056623970381780e+15  -2.5265608377627038e+14  -1.4127571045280305e+15  1.1767754764737338e+15  -1.0431318081128014e+15  -8.1832550421481160e+15  -1.6176609993658558e+16  -1.0452770161306154e+16  3.1586815846978970e+15  1.9540648524134148e+15  -8.9952983407744575e+14  5.9391287466538550e+15  1.0327099727008850e+16  -1.9597003472100924e+16  -8.6769075208516810e+15  -5.2574052417866700e+15  3.5812023722951155e+15  -9.0442596822595860e+15  9.1761632158977480e+15  -3.1773143281994795e+15  -2.6351500742648550e+15  2.5350503218473528e+16  1.1179256370407720e+16  -5.9201229418833250e+15  5.8474089238705392e+16  -3.6738208811974928e+16  -2.0215092487883100e+16  -3.2739639719964604e+16  1.3381728198793758e+16  4.1150790394521270e+15  -3.6955994199726736e+16  -2.1151443936159468e+16  -1.3481566454527941e+17  2.7649237581067240e+15  2.4984382952202355e+17  -2.3326961415837901e+17  -1.0076121671364868e+15  2.4599776586831690e+15  5.1451736034924176e+16  -1.9026993610456472e+16  8.0732138663690912e+16  5.6782608927346160e+16  5.9747140110956824e+16  7.1443720831280544e+16  8.5160634076420240e+16  -2.2015251083962044e+16  3.5994921373796346e+17  1.8679633975170896e+16  -4.0115567773391248e+16  -1.6258352910825734e+16  6.8004430904895744e+16  4.8605628349828720e+15  -1.9734240517287400e+16  -9.3955748776349584e+16  -2.7587732060232500e+16  -2.7252159633125132e+16  9.4471677109708680e+15  -3.2124078798973988e+16  5.6953475101735700e+15  -1.2583175913786450e+16  9.6736068197284040e+15  2.5085100721801110e+15  1.5857457609648490e+16  -2.7465585577609908e+16  -4.2779525677607760e+16  -4.5446902530505480e+15  3.1064994330728868e+16  -2.1953530593629820e+16  -3.1081833940680472e+16  -1.8283843822452627e+17  -3.3762576367334899e+17  8.1957980526052256e+16  -4.6647114167774440e+16  0.0000000000000000e+00  0.0000000000000000e+00  0.0000000000000000e+00  0.0000000000000000e+00  0.0000000000000000e+00  0.0000000000000000e+00  0.0000000000000000e+00  0.0000000000000000e+00  0.0000000000000000e+00  0.0000000000000000e+00  0.0000000000000000e+00  0.0000000000000000e+00  0.0000000000000000e+00  0.0000000000000000e+00  0.0000000000000000e+00  0.0000000000000000e+00  0.0000000000000000e+00  0.0000000000000000e+00  0.0000000000000000e+00  0.0000000000000000e+00  0.0000000000000000e+00  0.0000000000000000e+00  0.0000000000000000e+00  0.0000000000000000e+00  0.0000000000000000e+00  0.0000000000000000e+00  0.0000000000000000e+00  0.0000000000000000e+00  0.0000000000000000e+00  0.0000000000000000e+00  0.0000000000000000e+00  0.0000000000000000e+00  0.0000000000000000e+00  0.0000000000000000e+00  0.0000000000000000e+00  0.0000000000000000e+00  0.0000000000000000e+00  0.0000000000000000e+00  0.0000000000000000e+00  0.0000000000000000e+00  0.0000000000000000e+00  0.0000000000000000e+00  0.0000000000000000e+00  0.0000000000000000e+00  0.0000000000000000e+00  0.0000000000000000e+00  0.0000000000000000e+00  0.0000000000000000e+00  0.0000000000000000e+00  0.0000000000000000e+00  0.0000000000000000e+00  0.0000000000000000e+00  0.0000000000000000e+00  0.0000000000000000e+00  0.0000000000000000e+00  0.0000000000000000e+00  0.0000000000000000e+00  0.0000000000000000e+00  0.0000000000000000e+00  0.0000000000000000e+00  0.0000000000000000e+00  0.0000000000000000e+00  0.0000000000000000e+00  0.0000000000000000e+00  0.0000000000000000e+00  0.0000000000000000e+00  0.0000000000000000e+00  0.0000000000000000e+00  0.0000000000000000e+00  0.0000000000000000e+00  0.0000000000000000e+00  0.0000000000000000e+00  0.0000000000000000e+00  0.0000000000000000e+00  0.0000000000000000e+00  0.0000000000000000e+00  0.0000000000000000e+00  0.0000000000000000e+00  0.0000000000000000e+00  0.0000000000000000e+00  0.0000000000000000e+00  0.0000000000000000e+00  0.0000000000000000e+00  0.0000000000000000e+00  0.0000000000000000e+00  0.0000000000000000e+00  0.0000000000000000e+00  0.0000000000000000e+00  0.0000000000000000e+00  0.0000000000000000e+00  0.0000000000000000e+00  0.0000000000000000e+00  0.0000000000000000e+00  0.0000000000000000e+00  0.0000000000000000e+00  0.0000000000000000e+00  0.0000000000000000e+00  0.0000000000000000e+00  0.0000000000000000e+00  0.0000000000000000e+00  0.0000000000000000e+00  0.0000000000000000e+00  0.0000000000000000e+00  0.0000000000000000e+00  0.0000000000000000e+00  0.0000000000000000e+00  0.0000000000000000e+00  0.0000000000000000e+00  0.0000000000000000e+00  0.0000000000000000e+00  0.0000000000000000e+00  0.0000000000000000e+00  0.0000000000000000e+00  0.0000000000000000e+00  0.0000000000000000e+00  0.0000000000000000e+00  0.0000000000000000e+00  0.0000000000000000e+00  0.0000000000000000e+00  0.0000000000000000e+00  0.0000000000000000e+00  0.0000000000000000e+00  0.0000000000000000e+00  -1.0815814174429604e+16  1.2727659234813908e+16  -2.1727987134465306e+17  -4.4524668651246350e+14  2.8254324834354464e+16  -3.9219028282112965e+15  -4.3420160221249296e+16  -9.0017923825121808e+16  7.3374921731185392e+16  7.0270287995639800e+16  4.0196549217568934e+17  -1.1227303943610700e+16  1.8998805361270056e+16  4.1226576490099100e+14  9.3177712427257600e+14  -1.4832406172391328e+16  1.8042165191469008e+16  1.2368460090572162e+15  3.1624991332151412e+16  2.6865474859576880e+15  1.5919328866652238e+16  1.3695601588648434e+16  7.5847909153586800e+16  -3.9102386550060728e+16  2.4065558267012438e+14  1.0748813110403825e+15  -1.5885228705585277e+17  -2.8984454873372940e+16  -5.2428978504420320e+15  2.1828663097947866e+14  1.0083794994751738e+16  -7.7006670286322970e+15  -4.4657810205216864e+16  5.9767961214929616e+16  -3.9081791288702392e+16  -6.3616065698462864e+16  -3.5073828570746635e+15  -2.7487420410037116e+16  -9.3598289705609800e+15  6.0764906761982184e+16  1.4583918871666835e+15  -1.5482480632765050e+17  1.6577491238040515e+15  -2.2259471203546176e+16  -1.4806429448609942e+17  -2.7130623488371772e+16  1.8880330242902467e+17  2.1124931076084733e+17  -3.5793439771255890e+18  -3.8624621614712888e+14  1.5798707862418912e+15  -1.5812137588196564e+16  -1.9818913675165632e+15  1.1305316008629020e+15  -8.0221273696993440e+15  -5.8849696080807224e+16  -1.7800765339018874e+16  2.6419462574132800e+15  -1.0241808364191794e+16  2.6427156380825400e+16  -3.8380989929953912e+14  3.2251220120839048e+16  2.1189285976269436e+16  7.5914656536758738e+14  -2.8710331156004424e+18  -4.5986182778785600e+16  6.4687373625155850e+15  -1.6532346500849960e+16  3.2883964763788684e+16  4.2736609660121695e+15  -4.1510146869508010e+15  1.0697384626815089e+15  8.9683091070775250e+15  2.1259519366030051e+17  -5.8636897364770171e+18  -1.4518999710418464e+16  1.9498358006345490e+15  -5.7118869071084368e+16  2.8738479102810970e+15  2.9587240824517656e+16  -4.1723916245410912e+16  -1.4405284953575625e+15  -2.2509449240405280e+16  1.4180092325243904e+16  8.3665105669792992e+16  1.4183000998684050e+16  3.6430142083512664e+16  5.0165332237745730e+15  3.3186598695218775e+14  2.0527406524705802e+15  -7.0794057003899699e+17  -7.3696947590988912e+14  -2.2885115493296845e+15  -4.3233492141565194e+18  -1.9150923512760190e+15  1.1847493063203027e+17  5.3843288156553016e+16  -3.1251786704032429e+17  5.8425805307067256e+16  5.6408781363162578e+13  -2.5317188730861800e+15  3.6986698778376388e+14  1.6680433612573774e+16  1.6233669679700872e+15  -3.1392962476151032e+16  3.1280228889560588e+16  2.3774853416464890e+15  -7.8681018149323072e+16  9.7759869421542220e+15  2.6944101883961292e+16  -5.2445262495452416e+16  -4.8173159935918605e+17  1.6075823617316258e+16  -4.8488467162850939e+18  5.2134595031899040e+17  -7.4391158150959900e+15  3.0268292842752628e+16  3.1790582168217788e+16  7.4259015674151062e+14  2.6647881679738940e+15  -3.8405626692716424e+16  6.0289785596363090e+15  -2.9932571640822828e+16  -1.1431038112462636e+16  -8.1800441897363550e+15  2.4342721947679344e+16  -1.3502805904184602e+15  -1.1655387004496338e+17  9.7421903003546032e+16  6.1891784800083232e+16  6.2579204858615120e+15  8.8169624865599860e+15  6.3944828672715904e+17  -5.6820126129899715e+18  -2.2861236835425640e+15  -1.4250663184439785e+15  -4.3172825275455625e+14  -8.0531154901406980e+15  -1.3251363742634002e+16  -3.5188459768497520e+15  9.2333046132140200e+15  1.9004045732362696e+16  -3.2020613415111464e+16  2.4304774932244536e+16  -1.6998609026236062e+15  4.4188178084929280e+16  6.8491964685986430e+15  9.6495012374959500e+15  -2.5316514476977492e+16  -1.3499281224463608e+15  -4.8409070993638152e+16  5.4603393835644030e+15  -4.9595214600755896e+16  6.2636249171068930e+15  -1.5179585493009750e+17  -3.2885690594638748e+16  -1.0159993664317622e+19  -6.2381813137941432e+18  -9.5678358597752820e+15  3.5195366116635619e+14  -1.0941264680278795e+15  -1.5486738184986138e+17  -2.7879485977114116e+16  3.0320953975571000e+14  1.4412367240648975e+15  1.1552961297694645e+15  3.6225581446122961e+13  -1.9322880233632012e+16  2.8796623048085705e+15  4.2483355365820136e+16  4.5171050288433331e+17  8.6012937585109625e+14  5.4543722670756792e+16  3.2494699292158665e+15  -6.8417688061974160e+15  1.8761831821322272e+16  -1.3288718846335272e+16  -7.7970623237024660e+15  2.1834951258198432e+16  -5.4418503162033032e+16  1.5026900694026204e+16  -1.4602653646266112e+16  -5.5660272667189356e+14  -1.5651018018601778e+16  -1.3819226200042500e+16  -1.2223666473900144e+16  3.0518956053848772e+16  -7.0764075161520584e+16  9.0935707480130020e+15  2.0234918729661693e+17  -2.8533434070771580e+16  -1.7723268314472952e+19  -6.9646376591981957e+18  3.8409745254086238e+14  5.6605035710316820e+15  -1.4460739640373942e+16  -2.5884158466686240e+15  -1.2850839553490995e+15  4.7492880485772960e+16  2.4446578946703052e+16  3.4630833016180964e+16  3.4677569331204134e+17  1.9744056934167658e+15  -1.2537138366033066e+16  1.5035152265346204e+16  1.7569179741623828e+14  2.4880517359867732e+16  -1.0122473631504992e+16  -4.1225888845675445e+15  -2.0068512230297588e+16  -1.0877743244024832e+16  1.6087543752000166e+16  -6.5351131440236992e+17  -1.1031274254157384e+16  1.0848403520426630e+15  1.1579956771623404e+16  3.9446993953047580e+15  -8.9229842200017188e+14  8.7529602339651088e+16  1.4078979110760198e+15  -3.0243200434814288e+16  1.0823897628185096e+15  1.3299217861917216e+17  6.1861115617124990e+15  -2.9549033037121080e+18  -6.6545879076884931e+18  -5.6902549024811576e+16  -1.2929912382798114e+16  2.6927859578002368e+16  -2.8335917771760145e+15  -3.6328475253514629e+18  -4.7564824838243686e+18  6.9620760936300352e+16  1.0623895518201212e+15  -2.3693816101590488e+16  -7.5771125756226960e+16  4.9336356752370944e+16  7.6412547775907296e+16  -4.2863415950591304e+16  1.9586121270009996e+16  -1.8906437781393308e+16  3.3980551694703310e+15  1.5192644443806058e+17  9.2542758353748020e+15  5.5621745765079956e+14  6.5480425777600944e+16  1.6765932351346450e+16  1.5091258961558052e+16  -2.7754204062694625e+15  1.7242689388366342e+16  -3.1877179142245564e+16  1.9681558308767748e+16  -4.1407290024877685e+15  3.6958585321548838e+14  -3.1632054212330224e+16  1.2375755019133440e+16  -9.0623402711257138e+14  4.3738184472405160e+16  1.5330478131834515e+17  1.1982309463351190e+15  2.7942076789088104e+16  -1.4426544747433778e+16  -2.4505100038750980e+16  7.4958514548716820e+15  6.0559978527872026e+17  -4.7049169290918128e+16  -2.5673768825664212e+16  -3.0760403960680771e+18  -7.6301691836919613e+18  3.4182314994208450e+15  2.9000765533686720e+15  -5.3332062169788119e+18  -7.7707679167065539e+18  2.1218892171277612e+16  -2.8069354481901135e+15  7.6106584972047640e+15  -2.4969578262703544e+18  -2.5305056885285750e+17  5.4856413823380180e+15  -6.7975349332073850e+15  7.8387441376232720e+16  8.5375607186478250e+14  3.1790826632503108e+16  -2.6376440006198952e+16  2.3361627491863970e+15  -3.1913194765908380e+15  -3.4702752132721945e+15  9.6923113329674080e+16  -9.8469513153796272e+16  -1.3657915562375172e+16  -2.2029269681781164e+16  -2.8346158327946184e+16  1.5172370353470510e+16  7.7519250340397888e+16  -5.3451631779928425e+14  -6.2337591350544940e+15  -4.1550245656547878e+17  -6.8500148627821888e+16  -1.5507747519280918e+16  -1.9748409486371130e+15  -3.9105373040592968e+16  -4.7279865655800300e+18  -8.5156517296517181e+18  1.1404970246819630e+16  1.3050354127882044e+16  -2.8152310897779744e+16  -1.1095703261762506e+17  -1.1727397719799234e+16  -7.6741190743301888e+16  5.9003926026836480e+15  -2.1986301749204320e+16  1.9728600432652572e+16  -5.8497611318750650e+15  -2.5639941297945600e+15  -2.5009914667357165e+15  -7.9222806707218800e+16  -3.7421371195043885e+15  8.6016186574524432e+16  -7.2216251376197120e+16  -1.5599698181462577e+18  1.8024053353365772e+14  -2.1151649962092844e+14  -3.9929437133417856e+16  -2.2365612297560032e+16  1.5280081021892932e+16  -9.6507900344110400e+16  2.5527856680104965e+15  1.8154541919429256e+16  3.9924939158521660e+15  2.1373900772957020e+16  5.8748697918804370e+15  -3.4804246772554317e+18  -1.1090945633155744e+16  -5.7989730627011789e+17  -5.8147695201417496e+16  1.0495940906196717e+17  1.3156381625602507e+17  -4.0704163140103940e+15  2.2951354217748212e+16  8.7818515982657136e+16  2.6715456473289665e+15  -2.1402518946468784e+16  4.9520160170978880e+15  1.1387619190812708e+15  2.3498352093653088e+16  3.8243193863016315e+15  -1.6805384134621280e+16  2.6593480191809976e+16  -1.6877647387344134e+17  2.7320408931628555e+15  -3.9887371720261696e+16  -6.9440779436371832e+16  -2.1134793075426484e+16  -6.0163684145526328e+16  2.3347163156765165e+15  -4.2426731864279592e+16  8.2458925031217925e+14  7.0887512297519660e+15  -3.3474769220299606e+14  -1.5749781430497490e+16  5.4999224195275412e+14  2.7718420395616050e+15  -4.4253662831080020e+15  -9.7465982954601012e+14  1.9735855518463840e+16  -8.1271969374551475e+17  -2.6788516807782384e+16  -1.5489424097993774e+16  -3.8152434650047616e+17  -9.8869792817637700e+15  -1.5928074449477382e+15  4.2806692819051216e+16  8.4953431812569388e+14  -2.8721088021816980e+15  4.2385392325175501e+17  1.5272875305604925e+17  4.9221628151462515e+17  2.0095652210723872e+15  1.7036521155796260e+15  4.7244855786877912e+16  -2.6172158788856640e+15  5.5133642485313472e+16  2.7418638066659792e+16  -2.6716342304108316e+14  1.9124858565618936e+16  1.0816721072417258e+17  -2.9824750984127165e+18  -4.9324500052135096e+18  1.8330078836755603e+17  5.6192302622706470e+15  -1.6142059236857640e+15  3.9635900345950040e+16  -5.1968587547215400e+15  7.0715936156905520e+16  -1.9348199685539252e+16  2.3345282653141104e+16  -4.0100109163744416e+16  1.6193339203129515e+15  -6.7860966202223568e+16  -1.0768896397680476e+16  -4.6974911126594040e+15  3.9404807950744770e+15  1.2298685524012306e+17  -1.4282091706323140e+16  -4.0271529341552056e+16  -3.0346819835011200e+14  2.9407541774998360e+15  4.7541280603988210e+15  -1.4377875533089278e+16  4.5293377554331840e+15  6.4288369877869090e+15  4.3230351358262185e+15  -8.8743549701410820e+15  1.2524895345557688e+16  3.2263245458066500e+14  -6.2211960673967022e+18  4.0205020588261980e+15  2.5646749961151305e+15  7.4038102029552064e+16  1.9820322102017048e+15  -6.5801829547916562e+14  -1.6002352047302835e+17  1.6824426862668272e+15  1.4050620354920890e+17  -5.5675150355223780e+15  9.3678662803286800e+14  -5.5919156696098598e+17  -5.9130567753293952e+16  2.3083608605661325e+17  2.0147150882026408e+16  -2.7844108687452969e+18  -4.1261257949648505e+15  5.0983186093065072e+16  -6.3676468407338944e+16  2.7751194751092956e+16  -7.5409258570428230e+15  -1.4765603693028291e+17  1.4592426353669320e+16  5.2396487996437952e+16  1.4730553313842294e+16  -1.3980286577199621e+17  2.9517562581646164e+16  1.5812949146445802e+15  -1.5534856972614280e+15  3.7293349032963744e+16  -1.3749515335854820e+16  -3.5823494553158265e+15  2.7601770898155530e+17  -2.6070837842168320e+15  -3.4113002583985350e+17  9.1064243572310400e+14  7.5865292579780940e+15  -1.5548792116257174e+17  2.2655275311256390e+17  7.4455400