<?xml version="1.0"?>
<VTKFile type="UnstructuredGrid"  version="0.1"  >
<UnstructuredGrid>
<Piece  NumberOfPoints="1419" NumberOfCells="2698">
<Points>
<DataArray  type="Float64"  NumberOfComponents="3"  format="ascii">0 0 0  0 0.41 0  2.5 0 0  2.5 0.41 0  0.5999956877829056 0.189855019235515 0  0.6000071468779589 0.209848186839153 0  0.25 0.2 0  0.15 0.2 0  0.2489897948556636 0.21 0  0.2489897948556636 0.19 0  0.6000007064011117 0.1998516030658782 0  0 0.3807142857143437 0  0 0.3514285714286952 0  0 0.3221428571430699 0  0 0.29285714285744 0  0 0.2635714285718054 0  0 0.2342857142861561 0  0 0.2050000000005308 0  0 0.175714285714732 0  0 0.1464285714289574 0  0 0.1171428571431897 0  0 0.08785714285737878 0  0 0.05857142857161107 0  0 0.02928571428580012 0  0.03015443760436003 0 0  0.06140001986583606 0 0  0.09377624077125973 0 0  0.1273239957535082 0 0  0.1620856860351972 0 0  0.1981052433264291 0 0  0.235428184091502 0 0  0.2741016576309132 0 0  0.3141745521465447 0 0  0.3556974926295285 0 0  0.3987229542472677 0 0  0.4433053055141081 0 0  0.4895008759286886 0 0  0.5373680609405097 0 0  0.5869673343216626 0 0  0.6383613676634521 0 0  0.6916151138468254 0 0  0.7467958595648856 0 0  0.8039733463919316 0 0  0.8632198139502143 0 0  0.9246101326867038 0 0  0.9882218810934433 0 0  1.054135445558498 0 0  1.122434100542598 0 0  1.193204177141305 0 0  1.266535089879536 0 0  1.342519516046404 0 0  1.421253448503939 0 0  1.502836389106271 0 0  1.587371439758838 0 0  1.674965418777374 0 0  1.765729001825544 0 0  1.859776908880082 0 0  1.957227977487062 0 0  2.058205329869943 0 0  2.162836591189951 0 0  2.271253957290865 0 0  2.383594446803425 0 0  2.5 0.1024999999997612 0  2.5 0.2049999999994743 0  2.5 0.3074999999997183 0  2.383594446803656 0.41 0  2.271253957291315 0.41 0  2.162836591190598 0.41 0  2.058205329870775 0.41 0  1.957227977488067 0.41 0  1.859776908881246 0.41 0  1.765729001826854 0.41 0  1.674965418778818 0.41 0  1.58737143976041 0.41 0  1.502836389107956 0.41 0  1.421253448505726 0.41 0  1.342519516048286 0.41 0  1.266535089881505 0.41 0  1.193204177143353 0.41 0  1.122434100544716 0.41 0  1.05413544556068 0.41 0  0.9882218810956305 0.41 0  0.9246101326886647 0.41 0  0.8632198139519631 0.41 0  0.8039733463934788 0.41 0  0.7467958595662458 0.41 0  0.6916151138480078 0.41 0  0.6383613676644679 0.41 0  0.5869673343225223 0.41 0  0.5373680609412221 0.41 0  0.4895008759292634 0.41 0  0.4433053055145528 0.41 0  0.3987229542475914 0.41 0  0.3556974926297398 0.41 0  0.3141745521466497 0.41 0  0.2741016576310038 0.41 0  0.2354281840915826 0.41 0  0.1981052433265003 0.41 0  0.1620856860352591 0.41 0  0.1273239957535623 0.41 0  0.09377624077128965 0.41 0  0.06140001986584975 0.41 0  0.03015443760436654 0.41 0  0.2497468076502589 0.2050254481002335 0  0.2497468076502614 0.1949745518997913 0  0.2469965252529372 0.1829317073451959 0  0.2439893735792749 0.1762316384219906 0  0.2400332147834255 0.1700443375285386 0  0.2352133972704371 0.1645032867342007 0  0.2296339016332438 0.1597280261969788 0  0.2234150974217223 0.1558215752574715 0  0.2166911463437691 0.1528682099456123 0  0.2096071079204251 0.1509316448471593 0  0.2023158100364996 0.1500536585536553 0  0.194974551899914 0.1502531923497262 0  0.1877417105387872 0.1515259415822739 0  0.1807733240461124 0.153844448527136 0  0.1742197252835808 0.15715869474974 0  0.1682222986673531 0.1613971801805478 0  0.162910430003803 0.1664684656256651 0  0.1583987151779087 0.1722631454351573 0  0.1547844879126891 0.178656207771761 0  0.1521457199348551 0.1855097315605723 0  0.1505393388476355 0.1926758619366523 0  0.1505393388476328 0.2073241380633295 0  0.1521457199348437 0.2144902684393899 0  0.1547844879126531 0.221343792228163 0  0.1583987151778488 0.2277368545647528 0  0.1629104300036858 0.2335315343742052 0  0.1682222986671726 0.2386028198193036 0  0.1742197252833576 0.2428413052501257 0  0.1807733240458683 0.2461555514727623 0  0.1877417105384929 0.2484740584176516 0  0.1949745518995776 0.2497468076502398 0  0.202315810036185 0.2499463414463592 0  0.2096071079201568 0.2490683551528932 0  0.2166911463435495 0.2471317900544655 0  0.2234150974215506 0.2441784247426195 0  0.2296339016331197 0.2402719738031125 0  0.2352133972703547 0.2354967132658811 0  0.2400332147833751 0.2299556624715287 0  0.2439893735792577 0.2237683615780412 0  0.246996525252926 0.2170682926548348 0  0.2564598127043617 0.209992940053165 0  0.2639290845986519 0.2099923746753603 0  0.2713990496336581 0.209991868129801 0  0.2788691331802582 0.209991137201842 0  0.2863391703720143 0.2099901580641738 0  0.2938091701604304 0.2099889698873531 0  0.3012790829391459 0.2099876058140527 0  0.3087489505905958 0.2099860216074345 0  0.3162187302596359 0.2099842767374111 0  0.3236884104087929 0.2099823417761864 0  0.3311580421380583 0.2099802533683958 0  0.3386275549761903 0.2099779920744731 0  0.346097010458371 0.2099755832610135 0  0.3535663530948454 0.2099730412698026 0  0.3610356377615082 0.2099703437154723 0  0.3685048195265116 0.2099675321459082 0  0.3759739028999106 0.2099645862965898 0  0.3834429211240335 0.2099615422161961 0  0.3909118287274524 0.2099583774030496 0  0.3983806720399446 0.2099551265432307 0  0.4058494086897559 0.209951772815298 0  0.4133180731533673 0.2099483394307115 0  0.4207866312008481 0.209944831481878 0  0.4282551297769543 0.209941240393917 0  0.4357235289732634 0.2099375884247142 0  0.443191838862719 0.209933867229484 0  0.4506600710025112 0.2099300984953044 0  0.4581282110352238 0.2099262681354822 0  0.4655962725226646 0.2099223997620332 0  0.4730642436892108 0.2099184788616398 0  0.4805321355657698 0.2099145285958733 0  0.4879999383712822 0.2099105339024882 0  0.4954676612901916 0.2099065174536057 0  0.5029352961147557 0.2099024639700067 0  0.51040284995661 0.2098983953905093 0  0.5178703166210322 0.2098942961505412 0  0.525337701345041 0.2098901882090902 0  0.5328049991583685 0.2098860552103982 0  0.5402722135934319 0.2098819192182816 0  0.5477393411549908 0.209877763520088 0  0.5552063842837156 0.2098736061934714 0  0.5626733270208751 0.2098694440815393 0  0.5701402042664501 0.2098652762802776 0  0.5776069776464504 0.2098611152408344 0  0.5850736686701888 0.2098569592886338 0  0.5925403736348295 0.2098528445117996 0  0.6000036808082182 0.2048498510304833 0  0.5999979584666763 0.1948533514671686 0  0.5925289136475969 0.1898589159299944 0  0.5850622117097367 0.1898633564093383 0  0.5775955303001868 0.1898677569455921 0  0.5701287683092867 0.1898721493278532 0  0.5626619064390369 0.1898765253309293 0  0.5551949815721128 0.1898808942219234 0  0.5477279595867557 0.1898852559284875 0  0.5402608599252275 0.1898895964336692 0  0.532793682352545 0.1898939395662738 0  0.5253264231035174 0.1898982522035998 0  0.5178590896972559 0.1899025639281293 0  0.5103916748984101 0.1899068402733292 0  0.5029241887072019 0.1899111101611795 0  0.4954566210960554 0.189915339103737 0  0.4879889846932354 0.1899195552595847 0  0.4805212664343058 0.1899237240384468 0  0.4730534820215673 0.1899278729129289 0  0.4655856149965573 0.1899319670432293 0  0.4581176845968297 0.189936033147785 0  0.4506496706426567 0.1899400361503996 0  0.4431815960941969 0.1899440018016071 0  0.4357134372546325 0.1899478964970329 0  0.4282452193901725 0.1899517368003939 0  0.4207769171204745 0.189955514166941 0  0.4133085610543735 0.1899592059416216 0  0.4058401254974546 0.1899628254490945 0  0.3983716146775698 0.1899663529437725 0  0.3909030464473291 0.1899697969579483 0  0.3834343968132847 0.1899731333050015 0  0.3759656928322408 0.1899763713648199 0  0.3684969071394571 0.1899794885394221 0  0.3610280644649577 0.1899824872622408 0  0.3535591472576473 0.1899853680678256 0  0.3460901776123603 0.1899880885214455 0  0.3386211358986066 0.1899906753346023 0  0.3311520196841324 0.1899931002813189 0  0.3236828617984953 0.1899953689332441 0  0.316213622657208 0.1899974579046623 0  0.3087443409725295 0.1899993660590591 0  0.3012749982767929 0.1900010962882143 0  0.2938056137002618 0.190002594744967 0  0.2863361822653493 0.1900038952632502 0  0.2788666897350731 0.1900049734146119 0  0.2713972355690997 0.1900058642277035 0  0.2639278578971921 0.1900065298420766 0  0.2564592060972499 0.1900066101994547 0  0.2607811753528162 0.2000724265116172 0  0.5887839459845188 0.1999852313352012 0  0.574514036063836 0.2000705820070361 0  0.5512002765008819 0.1999917589193082 0  0.2751329649973917 0.1999986299351106 0  0.5365328363510017 0.1998878875594146 0  0.2894689994078863 0.1998659140725182 0  0.5215982816613803 0.1998963387301235 0  0.3127899647184912 0.1998577164554625 0  0.327420245465491 0.19998789074495 0  0.5066634022787748 0.1999047203405235 0  0.365080833769 0.1998410309365755 0  0.4767926829040459 0.1999211794261358 0  0.3417554185870556 0.1998526452527037 0  0.3797041323694564 0.199968991107909 0  0.4618568471519932 0.199929201544736 0  0.4917282018692559 0.1999130092453882 0  0.3946416923189335 0.1999624854992319 0  0.4469206957053117 0.1999370423403929 0  0.4089755234787095 0.1998251217487707 0  0.4322929094988656 0.2000718930342842 0  0.4201696181300768 0.1999471348290464 0  0.3529088195834271 0.1999980780160054 0  0.5633211133665285 0.199854050844884 0  0.3006648159238247 0.1999912090745134 0  0.5815959157591193 0.1965177581062656 0  0.2677076912027131 0.1964265364837483 0  0.5290639618469797 0.1969848620272275 0  0.543998342215364 0.196976326911956 0  0.2825191844010083 0.2035431519922599 0  0.3199515970303931 0.2028964953963367 0  0.4842589003769331 0.1970100166178108 0  0.5141292583186539 0.196993336513408 0  0.3722364089621994 0.2028787680037097 0  0.4693232523005777 0.1970181704439449 0  0.334890504397792 0.2028921767515359 0  0.3871742124665473 0.202872529320509 0  0.4543872945986757 0.1970261598621253 0  0.4991942366284804 0.1970017294875663 0  0.4020279571847183 0.2035050421771596 0  0.439451029277371 0.1970339499732056 0  0.2550653604821075 0.2034068427450856 0  0.2548903104652693 0.1966958548854412 0  0.5946573798603478 0.20228423762
[...]
<PointData  Scalars="f_46-2"> 
<DataArray  type="Float64"  Name="f_46-2"  format="ascii">1.9231919262777658e+03  1.9197194520134908e+03  4.1462354384253848e+00  5.0605127494003854e+00  1.3710079330511887e+03  1.3748665733124349e+03  0.0000000000000000e+00  1.9534264626498411e+03  1.6821086997308255e+03  1.6822968514806437e+03  1.3696624277706594e+03  1.9230022097565836e+03  1.9328094299817462e+03  1.9469394122866499e+03  1.9637928911253007e+03  1.9803820275535279e+03  1.9937348600585549e+03  1.9982709737160478e+03  1.9948989783063430e+03  1.9831383986548856e+03  1.9673876869942289e+03  1.9502976142593916e+03  1.9358119522058889e+03  1.9259702863205364e+03  1.9200421987220684e+03  1.9067858216158493e+03  1.8848387651450480e+03  1.8540045845824172e+03  1.8178010889142779e+03  1.7779050724541028e+03  1.7365682748383015e+03  1.6966550807488709e+03  1.6603467218710909e+03  1.6234385615665039e+03  1.5856180926197026e+03  1.5478906097115398e+03  1.5073704656237430e+03  1.4677868007456486e+03  1.4256781883237234e+03  1.3850367941433060e+03  1.3452911144443667e+03  1.3026683914281396e+03  1.2597666057535325e+03  1.2170846367926524e+03  1.1712572526084234e+03  1.1230245942785232e+03  1.0768255407537474e+03  1.0234399313480725e+03  9.7120680255950117e+02  9.1967456271373067e+02  8.6061041041612293e+02  8.0344337111667244e+02  7.4058641777376999e+02  6.8119625155836957e+02  6.1291418494062975e+02  5.4752195807119506e+02  4.7810383836045554e+02  4.0360999861935818e+02  3.3115129500680138e+02  2.5091258502524749e+02  1.7316076136379758e+02  8.4866120492870834e+01  -1.5288834821888906e+00  2.1276669923469396e-01  -1.0514878764471149e+00  8.6273152894966572e+01  1.6781842719458092e+02  2.5323286074481246e+02  3.3163021954431861e+02  4.0311004418602380e+02  4.7865413496957387e+02  5.4808426002340275e+02  6.1046484136651168e+02  6.8252114381280160e+02  7.4054652413576252e+02  8.0357752347974315e+02  8.6090413961162835e+02  9.1974697392314079e+02  9.7150688752539963e+02  1.0233123665397084e+03  1.0768829557776014e+03  1.1231098629753576e+03  1.1708365398824910e+03  1.2176156120962746e+03  1.2603690879215198e+03  1.3035083397500466e+03  1.3448462691935415e+03  1.3857273285902472e+03  1.4272391526910155e+03  1.4683172742086826e+03  1.5082176127967546e+03  1.5481704404049508e+03  1.5872231636373481e+03  1.6234753324062433e+03  1.6611046233154557e+03  1.6985907600129583e+03  1.7372962445801634e+03  1.7777987674387073e+03  1.8158602640980439e+03  1.8520826815985183e+03  1.8817507491001422e+03  1.9034480833966454e+03  1.9170854265444473e+03  0.0000000000000000e+00  0.0000000000000000e+00  1.6800423874454148e+03  1.6774641625899424e+03  1.6764507383466678e+03  1.6757479542412586e+03  1.6762362304047565e+03  1.6785337591748971e+03  1.6834264699291055e+03  1.6910692865178983e+03  1.7034280829057684e+03  1.7187801815432904e+03  1.7393697024648950e+03  1.7631283742282124e+03  1.7916542513879999e+03  1.8209393335826151e+03  1.8529495951736342e+03  1.8827895901892477e+03  1.9112505876587757e+03  1.9332616283813118e+03  1.9481961413886984e+03  1.9473624076400865e+03  1.9365335695728095e+03  1.9116808840958372e+03  1.8828183535490934e+03  1.8528709828850301e+03  1.8206001255712504e+03  1.7903153621546812e+03  1.7631144910035721e+03  1.7384966495378321e+03  1.7181063193544976e+03  1.7025742036414529e+03  1.6907016343187331e+03  1.6832532181664308e+03  1.6780184469819264e+03  1.6762416416356095e+03  1.6753643147968291e+03  1.6763585822318232e+03  1.6772780560929605e+03  1.6798656249604155e+03  1.6843929536210214e+03  1.6858594951820087e+03  1.6856343201621573e+03  1.6836879255467209e+03  1.6805656660214402e+03  1.6763446576930862e+03  1.6714111731849164e+03  1.6659848573654356e+03  1.6601040456625713e+03  1.6540038603110963e+03  1.6476518988538107e+03  1.6412038433059593e+03  1.6346179744795209e+03  1.6280320238409531e+03  1.6213709446425732e+03  1.6147254892616170e+03  1.6080208869408445e+03  1.6013418345646269e+03  1.5946482462761601e+03  1.5879724799579387e+03  1.5812681337562722e+03  1.5745622335859009e+03  1.5678986513342668e+03  1.5611706863243317e+03  1.5545137449610952e+03  1.5477684165991677e+03  1.5410924279958617e+03  1.5343742458856971e+03  1.5276372310121740e+03  1.5209290446624884e+03  1.5141363842049209e+03  1.5073989071024014e+03  1.5006070729894468e+03  1.4937393606437263e+03  1.4868992291113614e+03  1.4800092243246650e+03  1.4730611600741038e+03  1.4660563252685570e+03  1.4589313102041667e+03  1.4517726379988208e+03  1.4444626781190163e+03  1.4369742770301336e+03  1.4293225681607325e+03  1.4214442689949324e+03  1.4121544640445579e+03  1.4083241735275360e+03  1.3552649834603505e+03  1.3549019013524526e+03  1.4085692765449944e+03  1.4119931234038504e+03  1.4213666348346530e+03  1.4292445815021501e+03  1.4369053761333844e+03  1.4443723020146397e+03  1.4517100414181743e+03  1.4588687395562647e+03  1.4659757905791068e+03  1.4729676033150911e+03  1.4799532030943133e+03  1.4868348999819325e+03  1.4937056259328861e+03  1.5005073020460670e+03  1.5073145990945786e+03  1.5140597671946939e+03  1.5208426967196312e+03  1.5275635735451931e+03  1.5342980733815230e+03  1.5409869085522785e+03  1.5477057830744491e+03  1.5543852230208784e+03  1.5611139190168335e+03  1.5677894066228741e+03  1.5744962692119504e+03  1.5811716164667905e+03  1.5878811961981144e+03  1.5945544259060177e+03  1.6012839773109108e+03  1.6079647636772368e+03  1.6146716973862212e+03  1.6213277389535942e+03  1.6280040351521361e+03  1.6346096464885040e+03  1.6412149475047870e+03  1.6476754978368822e+03  1.6540520335243716e+03  1.6601750871296717e+03  1.6660778894598488e+03  1.6715309675576611e+03  1.6764816434361578e+03  1.6807211536577299e+03  1.6838634495076838e+03  1.6858243079526235e+03  1.6860581443637132e+03  1.6845818785605147e+03  0.0000000000000000e+00  0.0000000000000000e+00  0.0000000000000000e+00  0.0000000000000000e+00  0.0000000000000000e+00  0.0000000000000000e+00  0.0000000000000000e+00  0.0000000000000000e+00  0.0000000000000000e+00  0.0000000000000000e+00  0.0000000000000000e+00  0.0000000000000000e+00  0.0000000000000000e+00  0.0000000000000000e+00  0.0000000000000000e+00  0.0000000000000000e+00  0.0000000000000000e+00  0.0000000000000000e+00  0.0000000000000000e+00  0.0000000000000000e+00  0.0000000000000000e+00  0.0000000000000000e+00  0.0000000000000000e+00  0.0000000000000000e+00  0.0000000000000000e+00  0.0000000000000000e+00  0.0000000000000000e+00  0.0000000000000000e+00  0.0000000000000000e+00  0.0000000000000000e+00  0.0000000000000000e+00  0.0000000000000000e+00  0.0000000000000000e+00  0.0000000000000000e+00  0.0000000000000000e+00  0.0000000000000000e+00  0.0000000000000000e+00  0.0000000000000000e+00  0.0000000000000000e+00  0.0000000000000000e+00  0.0000000000000000e+00  0.0000000000000000e+00  0.0000000000000000e+00  0.0000000000000000e+00  0.0000000000000000e+00  0.0000000000000000e+00  0.0000000000000000e+00  0.0000000000000000e+00  0.0000000000000000e+00  0.0000000000000000e+00  0.0000000000000000e+00  0.0000000000000000e+00  0.0000000000000000e+00  0.0000000000000000e+00  0.0000000000000000e+00  0.0000000000000000e+00  0.0000000000000000e+00  0.0000000000000000e+00  0.0000000000000000e+00  0.0000000000000000e+00  0.0000000000000000e+00  0.0000000000000000e+00  0.0000000000000000e+00  0.0000000000000000e+00  0.0000000000000000e+00  0.0000000000000000e+00  0.0000000000000000e+00  0.0000000000000000e+00  0.0000000000000000e+00  0.0000000000000000e+00  0.0000000000000000e+00  0.0000000000000000e+00  0.0000000000000000e+00  0.0000000000000000e+00  0.0000000000000000e+00  0.0000000000000000e+00  0.0000000000000000e+00  0.0000000000000000e+00  0.0000000000000000e+00  0.0000000000000000e+00  0.0000000000000000e+00  0.0000000000000000e+00  0.0000000000000000e+00  0.0000000000000000e+00  0.0000000000000000e+00  0.0000000000000000e+00  0.0000000000000000e+00  0.0000000000000000e+00  0.0000000000000000e+00  0.0000000000000000e+00  0.0000000000000000e+00  0.0000000000000000e+00  0.0000000000000000e+00  0.0000000000000000e+00  0.0000000000000000e+00  0.0000000000000000e+00  0.0000000000000000e+00  0.0000000000000000e+00  0.0000000000000000e+00  0.0000000000000000e+00  0.0000000000000000e+00  0.0000000000000000e+00  0.0000000000000000e+00  0.0000000000000000e+00  0.0000000000000000e+00  0.0000000000000000e+00  0.0000000000000000e+00  0.0000000000000000e+00  0.0000000000000000e+00  0.0000000000000000e+00  0.0000000000000000e+00  0.0000000000000000e+00  0.0000000000000000e+00  0.0000000000000000e+00  0.0000000000000000e+00  0.0000000000000000e+00  0.0000000000000000e+00  0.0000000000000000e+00  0.0000000000000000e+00  0.0000000000000000e+00  0.0000000000000000e+00  0.0000000000000000e+00  0.0000000000000000e+00  1.6717439602475533e+03  1.6694068116659387e+03  1.2640783271618716e+03  1.5912577858088439e+03  1.5067103709429771e+03  1.5967903883338552e+03  1.4218808507360181e+03  1.5181518539956551e+03  1.8866501637967262e+03  1.4377137527830957e+03  1.8991259501332731e+03  1.8182417552654110e+03  1.7309516777134274e+03  1.8067905837286423e+03  1.9248015332872485e+03  1.7298646943254225e+03  1.6818578070762803e+03  1.6819277448231344e+03  1.9343468907736108e+03  1.6555199666082876e+03  1.6555137850857129e+03  1.6165311493856882e+03  1.3359594698267717e+03  1.6165397127324575e+03  1.5780794501082942e+03  1.5327322124434111e+03  1.5776782675118809e+03  1.5367814212205005e+03  1.4948693973804493e+03  1.4631879590396563e+03  1.4556565473598600e+03  1.8649976127122254e+03  1.4184741820714924e+03  1.8659316920695237e+03  1.4226874613938064e+03  1.3641329475402961e+03  1.6955218030548835e+03  1.6942538682327943e+03  1.3710492863010356e+03  1.3785254238713740e+03  1.4946359291412380e+03  1.9375990254188939e+03  1.7471039782732473e+03  1.7738433804613790e+03  1.1089852955941001e+03  1.8085301234289539e+03  1.9003362373697114e+03  1.9002019384776700e+03  9.5565030704410924e+02  1.5518379318073269e+03  1.6715144055151641e+03  1.3802190420028498e+03  1.6716142005096103e+03  1.6376756327465723e+03  1.5978073497105252e+03  1.8068876912627841e+03  1.7230574317438911e+03  1.6376155308463394e+03  1.4497028700590060e+03  1.5976897794237675e+03  1.7075313722083686e+03  1.3243817763961742e+03  1.5576540796413792e+03  1.8480915873069955e+03  8.0408507838551304e+02  1.5174244521695070e+03  1.4765235316116896e+03  1.6355928738651799e+03  1.4335457111928288e+03  1.5158237819478450e+03  1.4771956381688742e+03  1.4037192597798780e+03  1.9317088750384603e+03  1.3936107596059003e+03  6.4881922181413995e+02  1.3816772369822122e+03  1.6364615372845494e+03  1.8495892041183724e+03  1.4255136795098642e+03  1.9355297319446497e+03  1.9559311910649235e+03  1.8766517097908718e+03  1.6830364849611922e+03  1.6834447286217660e+03  1.6831977554773175e+03  1.6837701215381403e+03  1.5587008360673522e+03  1.4024429446674724e+03  1.6561334999943858e+03  1.5715094174023091e+03  1.9429521777365651e+03  1.6561667639503908e+03  1.8502995062159710e+03  4.9554304453588031e+02  1.6178190681937633e+03  1.2923140159239306e+03  1.3810605306776808e+03  1.4750531120995965e+03  1.9149383745731370e+03  1.6177238141530474e+03  1.5777348241371728e+03  1.9086704961027167e+03  1.6962823574653244e+03  1.7777449872647569e+03  1.9322623319477957e+03  1.5375824948046177e+03  1.7500898512050023e+03  1.4970606323898392e+03  1.6522959833787313e+03  1.5489413880553118e+03  1.1831595587385686e+03  1.1833257085743762e+03  1.4552732681391124e+03  3.6370833469618373e+02  1.9050231242776943e+03  1.5382510807460301e+03  1.7506868430162549e+03  1.4662382500927888e+03  1.6806566375942859e+03  1.6934687206419806e+03  1.3860303435115322e+03  1.3707990058212620e+03  1.6810602520556572e+03  1.8634529605135317e+03  1.4970200692140188e+03  1.6515754197838644e+03  1.6967161650544024e+03  1.3972324500999832e+03  2.0769613082028488e+02  1.8964217968683827e+03  1.6858371737627297e+03  1.4623832381267480e+03  1.0325675599964325e+03  1.0316252470705342e+03  1.5851259029797932e+03  1.5578075807250318e+03  1.5566241934422796e+03  1.7706469411852534e+03  1.6975433978007359e+03  1.4174602087719893e+03  1.6718463691620507e+03  1.5727596671914066e+03  1.8547133808220792e+03  1.8322898311168603e+03  1.4406454473752833e+03  1.2524922691646307e+03  1.6719758722336380e+03  1.5691214393670955e+03  1.8970672530806066e+03  1.6841772073060865e+03  1.3794956223568270e+03  1.5243852683536225e+03  1.6842126443066754e+03  1.7879568894316828e+03  1.9415921820342921e+03  1.4916670389408389e+03  8.8037506893356317e+02  8.8297163912592771e+02  1.5973434885231025e+03  1.6445078234612056e+03  1.6310550863390645e+03  1.8947120674201994e+03  1.6365493163789988e+03  1.6306641051885654e+03  1.6445197240774060e+03  1.6039891232984726e+03  1.6674169923004417e+03  1.6048803313101869e+03  1.5911406745891247e+03  1.1134406081109912e+03  1.1112049472851920e+03  1.7071483180338837e+03  1.9460610847435739e+03  1.6675131828108829e+03  1.6366801178966041e+03  1.5506259077698624e+03  1.5643910674532042e+03  1.6102884437534938e+03  1.5245312234288363e+03  1.5106368926618882e+03  1.9240205257130729e+03  1.3198992537284209e+03  1.4689641406150201e+03  1.4833022616942399e+03  1.9419580656566407e+03  1.7437535736037980e+03  1.5964070748208380e+03  1.4397393348882154e+03  1.3421661330764648e+03  1.2963479652020587e+03  1.7989926719127250e+03  7.2661311839591622e+02  7.3044476297105382e+02  1.9130926542806167e+03  1.7673477014236653e+03  1.7365005811379697e+03  1.5103963390206511e+03  1.5247397992535900e+03  1.8984248765239581e+03  1.5579729700508892e+03  1.4825571596269001e+03  1.9256789544631094e+03  1.6841538132135104e+03  1.4912804296700579e+03  1.6127085894162508e+03  1.3979529338917418e+03  1.3851408468500993e+03  1.7876936332909042e+03  1.7847356379150665e+03  1.5167162952557180e+03  1.4381535374192902e+03  1.7149636159011066e+03  1.9487485608941427e+03  1.7020817081298076e+03  1.8846526862492940e+03  1.4785639690760961e+03  1.4347902698185376e+03  1.4205498081473356e+03  1.3939634618846569e+03  1.6604609616834505e+03  1.8386797174348269e+03  1.6775388546940649e+03  1.9264639392149154e+03  1.6871723512078918e+03  9.5850761117926686e+02  9.5757877015037468e+02  1.6777145659478922e+03  1.7080644813099125e+03  1.8408282549300461e+03  1.4342378532717487e+03  5.7227933177578291e+02  5.7455825022267459e+02  1.3967264997785257e+03  1.6592907263637424e+03  1.6810866805266744e+03  1.9287201569824283e+03  1.3473922987759940e+03  1.6813718009894178e+03  1.5347593257139572e+03  1.2367567899646488e+03  1.6872625477134891e+03  1.7151444804015164e+03  1.9005708057256211e+03  1.3608424914483846e+03  1.8108292452297778e+03  1.7503630343629209e+03  1.4180357299375000e+03  1.3573409755660414e+03  1.5757192448630929e+03  1.3383270057078737e+03  1.8847778371078416e+03  1.6103624405372364e+03  1.6809353755525817e+03  1.6870009871116390e+03  1.5814998674259248e+03  1.8392238546377896e+03  1.4919785216215025e+03  1.8875521478013698e+03  1.2015041921245950e+03  1.5104343487738181e+03  1.5261543502355339e+03  1.4817953538440488e+03  1.9238450669219692e+03  1.6204653395021455e+03  1.9330472455995955e+03  1.3755849259601264e+03  1.4651201213246211e+03  4.1567823042386232e+02  4.1560123467846017e+02  1.6564318162779325e+03  1.5712379603041434e+03  8.0583653803092966e+02  8.0443104397799846e+02  1.9181446460203686e+03  1.6564825018564654e+03  1.5314313309835522e+03  9.4052812687327148e+01  1.5013834620414007e+03  1.6832767658197888e+03  1.6179114948643462e+03  1.9098511236604372e+03  1.5309460006562667e+03  1.6835396184212455e+03  1.8761971660697848e+03  1.6178531735283987e+03  1.7595100013542587e+03  1.5442894421272513e+03  1.9361766143547750e+03  1.9205157015018567e+03  1.5777840040285348e+03  1.8782304221932507e+03  1.8403306639491211e+03  1.6834299972090696e+03  1.5376145690469757e+03  1.5945146472708332e+03  1.4970412223947417e+03  1.9730367797125448e+03  1.4433297151895467e+03  1.4644959642947897e+03  1.6015574804133730e+03  1.7117377957479234e+03  6.4895068419084510e+02  6.5666028313298818e+02  1.4551149629373242e+03  1.8873404766923122e+03  1.6830568504083640e+03  1.4157156324152818e+03  1.8443687359917319e+03  1.3912400661803583e+03  1.9238284683472975e+03  1.3677807455806860e+03  1.4718670231212229e+03  1.6170147373390403e+03  1.4523392265106679e+03  1.8671789813783575e+03  1.4564888474183897e+03  1.6832405877866543e+03  1.8901474729256420e+03  2.6335526215342975e+02  2.6591389779182612e+02  1.5645456711540605e+03  1.7147884081324160e+03  1.8401633883697916e+03  1.4288757261566886e+03  1.3279177310694035e+03  1.9654417994988191e+03  1.2859264429560424e+03  1.7570272780353478e+03  1.5845053544965303e+03  1.9146130610969592e+03  1.6628222618656816e+03  1.1473899975435411e+02  1.6523401286422779e+03  1.0524636678447152e+03  1.9393387824847796e+03  1.2506315662880645e+03  1.2996363740224797e+03  1.7390277633321468e+03  1.6504562985002412e+03  1.8052057201572559e+03  1.6780690177179545e+03  1.6825398278474197e+03  1.7818580571285845e+03  1.6628704323618454e+03  1.6827315298245071e+03  1.8229149279532023e+03  1.6926480863945578e+03  1.7153654400848193e+03  1.2070166710745143e+03  1.4302543844234017e+03  1.8352350685510567e+03  1.3930471697164924e+03  1.9340806053596975e+03  1.7980631134480143e+03  1.6777881742166171e+03  1.3687806673395110e+03  1.5199009387090807e+03  1.6884143284311870e+03  1.6793172646012210e+03  1.4178352006550076e+03  1.6474934958808155e+03  1.4970807070340804e+03  1.6793616623050923e+03  1.8568346809557827e+03  1.9550092380947176e+03  1.9494659561268238e+03  1.8663578672904159e+03  1.8071272038847619e+03  1.9353828363209025e+03  1.6648438060197086e+03  1.6807669398119203e+03  1.9161445517990467e+03  1.6377662963841085e+03  1.4723212073802511e+03  1.9173606334489266e+03  1.9449417471794795e+03  1.9248564178694303e+03  1.4345601768609047e+03  1.6377214700307857e+03  1.1553880940675283e+03  1.6474645297948919e+03  1.1511501509642155e+03  1.2261979874953333e+03  1.6909161119901694e+03  1.5978963667910643e+03  1.9367528442022870e+03  4.9293170638553573e+02  4.9667463420976270e+02  1.9109597089465362e+03  1.4127600459324613e+03  1.6271408250773911e+03  1.5576883561318457e+03  1.5748137811465019e+03  1.8667670478468051e+03  1.8074088533009867e+03  1.6091136395255153e+03  1.5174468112396173e+03  1.4763391699181084e+03  1.4171883006102908e+03  1.6164738974273025e+03  1.6732176546791220e+03  1.6073412409455234e+03  1.7738244500663673e+03  1.7943590545682314e+03  1.3849820926462048e+03  1.6347939027429320e+03  1.7568591417532700e+03  1.3793934788814736e+03  1.9329904946130257e+03  1.6732495582824968e+03  1.8787379183503876e+03  1.6270440054521316e+03  1.5700619442557345e+03  1.5302924090626834e+03  1.5175138025337176e+03  8.9458811198575233e+02  1.3712096363021649e+03  1.6873531109731114e+03  1.6094406614110014e+03  1.6794518940774840e+03  1.7243212730964126e+03  1.1586797833295059e+03  1.6814211496148048e+03  1.0641193027760523e+03  1.7120385525438478e+03  1.7339521002824990e+03  1.9663843417391131e+03  1.5857541109664280e+03  1.8757793132889169e+03  1.6816621475229222e+03  1.0629960970424102e+03  1.6829991397619344e+03  1.3303683526867774e+03  1.3702443131285652e+03  1.3793523415098159e+03  1.7181839248305910e+03  1.9395407698053409e+03  1.5683037823301195e+03  1.7330302643077073e+03  1.8655447938857171e+03  1.7291276001811075e+03  1.8462099360230004e+03  1.4066631519178552e+03  1.6810440862345818e+03  1.8193789519601680e+03  1.8189981636134096e+03  1.6850074812430873e+03  1.9225923148039199e+03  1.5427175920611337e+03  1.9076682855789766e+03  1.6730703522171955e+03  1.8663810188341913e+03  1.9152088084098891e+03  1.9437972208955341e+03  1.7766216027790797e+03  1.2884415412994319e+03  1.6731885517542198e+03  1.6492225753341033e+03  1.5453950550677653e+03  1.5267755121410326e+03  1.8834157488204198e+03  1.4989050845273775e+03  1.5294360093573634e+03  1.6948118871980037e+03  1.6720066723499244e+03  1.6741794712783940e+03  1.5057119817289972e+03  1.7045567071497285e+03  1.6985748202690488e+03  1.67910697835