<?xml version="1.0"?>
<VTKFile type="UnstructuredGrid"  version="0.1"  >
<UnstructuredGrid>
<Piece  NumberOfPoints="1419" NumberOfCells="2698">
<Points>
<DataArray  type="Float64"  NumberOfComponents="3"  format="ascii">0 0 0  0 0.41 0  2.5 0 0  2.5 0.41 0  0.5999850633035351 0.1899784113007097 0  0.5999863759950977 0.209974485717787 0  0.25 0.2 0  0.15 0.2 0  0.2489897948556636 0.21 0  0.2489897948556636 0.19 0  0.5999854252503017 0.1999764479839795 0  0 0.3807142857143437 0  0 0.3514285714286952 0  0 0.3221428571430699 0  0 0.29285714285744 0  0 0.2635714285718054 0  0 0.2342857142861561 0  0 0.2050000000005308 0  0 0.175714285714732 0  0 0.1464285714289574 0  0 0.1171428571431897 0  0 0.08785714285737878 0  0 0.05857142857161107 0  0 0.02928571428580012 0  0.03015443760436003 0 0  0.06140001986583606 0 0  0.09377624077125973 0 0  0.1273239957535082 0 0  0.1620856860351972 0 0  0.1981052433264291 0 0  0.235428184091502 0 0  0.2741016576309132 0 0  0.3141745521465447 0 0  0.3556974926295285 0 0  0.3987229542472677 0 0  0.4433053055141081 0 0  0.4895008759286886 0 0  0.5373680609405097 0 0  0.5869673343216626 0 0  0.6383613676634521 0 0  0.6916151138468254 0 0  0.7467958595648856 0 0  0.8039733463919316 0 0  0.8632198139502143 0 0  0.9246101326867038 0 0  0.9882218810934433 0 0  1.054135445558498 0 0  1.122434100542598 0 0  1.193204177141305 0 0  1.266535089879536 0 0  1.342519516046404 0 0  1.421253448503939 0 0  1.502836389106271 0 0  1.587371439758838 0 0  1.674965418777374 0 0  1.765729001825544 0 0  1.859776908880082 0 0  1.957227977487062 0 0  2.058205329869943 0 0  2.162836591189951 0 0  2.271253957290865 0 0  2.383594446803425 0 0  2.5 0.1024999999997612 0  2.5 0.2049999999994743 0  2.5 0.3074999999997183 0  2.383594446803656 0.41 0  2.271253957291315 0.41 0  2.162836591190598 0.41 0  2.058205329870775 0.41 0  1.957227977488067 0.41 0  1.859776908881246 0.41 0  1.765729001826854 0.41 0  1.674965418778818 0.41 0  1.58737143976041 0.41 0  1.502836389107956 0.41 0  1.421253448505726 0.41 0  1.342519516048286 0.41 0  1.266535089881505 0.41 0  1.193204177143353 0.41 0  1.122434100544716 0.41 0  1.05413544556068 0.41 0  0.9882218810956305 0.41 0  0.9246101326886647 0.41 0  0.8632198139519631 0.41 0  0.8039733463934788 0.41 0  0.7467958595662458 0.41 0  0.6916151138480078 0.41 0  0.6383613676644679 0.41 0  0.5869673343225223 0.41 0  0.5373680609412221 0.41 0  0.4895008759292634 0.41 0  0.4433053055145528 0.41 0  0.3987229542475914 0.41 0  0.3556974926297398 0.41 0  0.3141745521466497 0.41 0  0.2741016576310038 0.41 0  0.2354281840915826 0.41 0  0.1981052433265003 0.41 0  0.1620856860352591 0.41 0  0.1273239957535623 0.41 0  0.09377624077128965 0.41 0  0.06140001986584975 0.41 0  0.03015443760436654 0.41 0  0.2497468076502589 0.2050254481002335 0  0.2497468076502614 0.1949745518997913 0  0.2469965252529372 0.1829317073451959 0  0.2439893735792749 0.1762316384219906 0  0.2400332147834255 0.1700443375285386 0  0.2352133972704371 0.1645032867342007 0  0.2296339016332438 0.1597280261969788 0  0.2234150974217223 0.1558215752574715 0  0.2166911463437691 0.1528682099456123 0  0.2096071079204251 0.1509316448471593 0  0.2023158100364996 0.1500536585536553 0  0.194974551899914 0.1502531923497262 0  0.1877417105387872 0.1515259415822739 0  0.1807733240461124 0.153844448527136 0  0.1742197252835808 0.15715869474974 0  0.1682222986673531 0.1613971801805478 0  0.162910430003803 0.1664684656256651 0  0.1583987151779087 0.1722631454351573 0  0.1547844879126891 0.178656207771761 0  0.1521457199348551 0.1855097315605723 0  0.1505393388476355 0.1926758619366523 0  0.1505393388476328 0.2073241380633295 0  0.1521457199348437 0.2144902684393899 0  0.1547844879126531 0.221343792228163 0  0.1583987151778488 0.2277368545647528 0  0.1629104300036858 0.2335315343742052 0  0.1682222986671726 0.2386028198193036 0  0.1742197252833576 0.2428413052501257 0  0.1807733240458683 0.2461555514727623 0  0.1877417105384929 0.2484740584176516 0  0.1949745518995776 0.2497468076502398 0  0.202315810036185 0.2499463414463592 0  0.2096071079201568 0.2490683551528932 0  0.2166911463435495 0.2471317900544655 0  0.2234150974215506 0.2441784247426195 0  0.2296339016331197 0.2402719738031125 0  0.2352133972703547 0.2354967132658811 0  0.2400332147833751 0.2299556624715287 0  0.2439893735792577 0.2237683615780412 0  0.246996525252926 0.2170682926548348 0  0.2564585670111987 0.2099963248823192 0  0.2639269055819284 0.2099960907723279 0  0.271395595266027 0.2099959473990283 0  0.2788643291419722 0.2099957414697392 0  0.2863330398142981 0.2099954591688876 0  0.2938017199539112 0.2099951258161047 0  0.3012703555239548 0.209994752220008 0  0.3087389649672598 0.2099943332390452 0  0.3162075306764384 0.2099938847577628 0  0.3236760568605125 0.2099934010826353 0  0.3311445503248523 0.2099928987174537 0  0.3386130007947259 0.2099923689609164 0  0.3460814188027327 0.2099918259137857 0  0.3535497908753709 0.2099912693867712 0  0.3610181350022226 0.2099907019410126 0  0.3684864352397685 0.2099901290810698 0  0.3759546997946789 0.2099895473824206 0  0.3834229275408508 0.2099889706309602 0  0.3908911183651208 0.2099883875727807 0  0.3983592733119189 0.2099878136110114 0  0.4058273916831364 0.2099872379381189 0  0.4132954750232361 0.2099866716737572 0  0.4207635174016037 0.2099861101981833 0  0.4282315321693682 0.2099855583971922 0  0.4356995074314746 0.2099850141613783 0  0.4431674487057396 0.2099844762170992 0  0.4506353542649487 0.2099839511339017 0  0.4581032263307999 0.2099834309189175 0  0.4655710627737398 0.2099829238485181 0  0.4730388660246624 0.2099824211791339 0  0.4805066339974782 0.2099819311151199 0  0.4879743687433786 0.2099814445728187 0  0.4954420685843233 0.2099809695069138 0  0.5029097350377686 0.2099804968857965 0  0.5103773665301472 0.209980034272496 0  0.5178449644958917 0.2099795725884804 0  0.5253125275420401 0.2099791196109676 0  0.5327800565395747 0.2099786660008168 0  0.5402475503270527 0.2099782198136918 0  0.547715009469199 0.2099777716949036 0  0.5551824332829099 0.2099773282457158 0  0.5626498170462333 0.2099768860856071 0  0.5701171718757 0.2099764443809665 0  0.5775844853513726 0.2099760065753713 0  0.5850517652398374 0.2099755708630145 0  0.5925190550802257 0.2099751513279834 0  0.5999857955137761 0.2049754456513911 0  0.5999851419859979 0.1949774485869975 0  0.5925177421411273 0.1899787229326455 0  0.585050452493555 0.1899792804256508 0  0.577583174486206 0.1899798231112717 0  0.5701158615921019 0.1899803640190063 0  0.5626485059364122 0.1899808996922232 0  0.5551811205822387 0.1899814358029489 0  0.5477136921204118 0.1899819727790731 0  0.5402462288077107 0.189982505896153 0  0.5327787279623304 0.1899830477670152 0  0.5253111911930957 0.1899835846190012 0  0.5178436171195672 0.1899841322661456 0  0.5103760076620034 0.1899846764157005 0  0.5029083608994935 0.1899852328921311 0  0.4954406793726377 0.1899857875044213 0  0.4879729605314408 0.1899863559051607 0  0.4805052075401249 0.1899869239097212 0  0.4730374173250578 0.1899875069622813 0  0.4655695935444776 0.1899880907636372 0  0.458101732825192 0.189988690429559 0  0.4506338391439066 0.1899892915516554 0  0.4431659090604114 0.1899899087462521 0  0.4356979462139781 0.1899905279467365 0  0.4282299497639546 0.1899911606303059 0  0.420761915042797 0.1899917997495285 0  0.4132938544070741 0.1899924468061498 0  0.405825756342758 0.1899931003419479 0  0.3983576269136502 0.1899937568044498 0  0.3908894648425494 0.1899944211708801 0  0.3834212715577221 0.189995083823582 0  0.3759530470968021 0.1899957506591644 0  0.368484791931476 0.189996411764756 0  0.3610165069847932 0.1899970706541341 0  0.3535481900635369 0.1899977228415798 0  0.3460798495728302 0.1899983620745382 0  0.3386114776438621 0.1899989887535895 0  0.331143077194564 0.1899995949782715 0  0.3236746527321298 0.190000182729264 0  0.3162061991983994 0.1900007406250856 0  0.3087377229939668 0.1900012690148846 0  0.3012692213588967 0.1900017636742244 0  0.293800699717377 0.1900022098355477 0  0.2863321558751002 0.1900026112496428 0  0.2788635845916226 0.1900029586961553 0  0.2713950239154063 0.1900032681907161 0  0.2639265073676823 0.1900035139324024 0  0.2564583579948193 0.190003504491926 0  0.2607801589921428 0.2000725915351017 0  0.5887674935907425 0.2001043989800952 0  0.5744963582918323 0.2001825213081949 0  0.5511811724075386 0.2000918816927984 0  0.2751296018345647 0.199999525831741 0  0.5365131048914084 0.1999806080831507 0  0.2894635105226998 0.1998681326878964 0  0.5215780394776764 0.1999815993976559 0  0.3127811913591036 0.1998633960886499 0  0.3274095523243781 0.1999965376001994 0  0.5066428321772304 0.1999826061420844 0  0.3650660164671455 0.1998596173883936 0  0.4767719961966688 0.1999846899952035 0  0.3417430498689468 0.199864657062759 0  0.3796879525147512 0.1999923391203142 0  0.4618363689761315 0.1999857776726132 0  0.4917074841449781 0.1999836344090355 0  0.3946243363681493 0.1999910926041741 0  0.4469006029998419 0.1999869004696043 0  0.4089572546653094 0.1998591161416226 0  0.432273312952274 0.2001154507394518 0  0.4201506662925138 0.1999856212324414 0  0.3528951932061875 0.2000131198024915 0  0.5633027884759548 0.1999602831975245 0  0.3006577019137111 0.1999949379710161 0  0.5815805781626421 0.1966328070249363 0  0.2677056570449541 0.1964257478099987 0  0.5290453974670142 0.1970733282377206 0  0.5439803933725685 0.1970723159848243 0  0.2825143683885578 0.2035458582910362 0  0.3199412773849558 0.2029044981604492 0  0.4842395527227335 0.1970764616062383 0  0.5141102578943504 0.1970743524146033 0  0.3722199500330445 0.2029004716985106 0  0.4693039890672755 0.1970775581163829 0  0.3348782121269998 0.2029034261170303 0  0.3871564029729508 0.2028992493902232 0  0.4543682858907342 0.1970786883941998 0  0.4991749759680974 0.1970753948410625 0  0.4020087438658724 0.2035373335320953 0  0.4394324440947925 0.1970798545927129 0  0.2550652379379704 0.2034077816032495 0  0.2548902973008388 0.1966949815332533 0  0.5946403344392795 
[...]
<PointData  Scalars="f_46-2"> 
<DataArray  type="Float64"  Name="f_46-2"  format="ascii">1.1246080015097896e+03  1.1232102558502188e+03  1.7066772297463211e+00  1.9790361975971271e+00  8.2029727498129137e+02  8.2208054287077198e+02  0.0000000000000000e+00  1.1131117044114451e+03  9.9380618246187362e+02  9.9373835686576308e+02  8.1485647822289195e+02  1.1259560667815397e+03  1.1330601301086704e+03  1.1415961917802179e+03  1.1501242247313978e+03  1.1576643149726642e+03  1.1631295586405322e+03  1.1647909623016060e+03  1.1633818181091749e+03  1.1584128094415216e+03  1.1512902581211274e+03  1.1426351984963210e+03  1.1339466607996139e+03  1.1267532171718951e+03  1.1219529045471302e+03  1.1121068585494947e+03  1.0989383176026511e+03  1.0825571123736220e+03  1.0640319925975762e+03  1.0438847775116697e+03  1.0221909219486344e+03  1.0002828601382790e+03  9.7895788035838200e+02  9.5751350417406775e+02  9.3549567414604292e+02  9.1347884134470075e+02  8.9028133409214593e+02  8.6725802619091780e+02  8.4297595303583978e+02  8.1882175885752179e+02  7.9522847683465807e+02  7.7037510493757009e+02  7.4487759541594630e+02  7.1910484416706549e+02  6.9252888929969322e+02  6.6407756262388500e+02  6.3614873350310347e+02  6.0561083228728694e+02  5.7412904477189250e+02  5.4317428876872646e+02  5.0944903887664384e+02  4.7476290818983733e+02  4.3847683359369148e+02  4.0224939704963640e+02  3.6302513843963249e+02  3.2351825014838971e+02  2.8224986630357068e+02  2.3923238339240331e+02  1.9503401833474354e+02  1.4891772552151028e+02  1.0205822582568146e+02  5.1019277968470305e+01  -3.9243617213598186e-01  7.2222405379084073e-02  -3.7132398972241187e-01  5.0631961119945046e+01  1.0050516157127453e+02  1.4977271083048296e+02  1.9540830662202117e+02  2.3920666573476004e+02  2.8227261798860127e+02  3.2343342729048248e+02  3.6248322046455638e+02  4.0286428955560734e+02  4.3853057137106703e+02  4.7478623295522783e+02  5.0958578976480248e+02  5.4323882827442424e+02  5.7418781969016084e+02  6.0554295807581730e+02  6.3618292691153852e+02  6.6402625493124435e+02  6.9238032108219613e+02  7.1953840281186217e+02  7.4508092874560577e+02  7.7053901607195417e+02  7.9508994229042423e+02  8.1935308093363778e+02  8.4365119264580983e+02  8.6742961460470451e+02  8.9068400304073191e+02  9.1374136598825623e+02  9.3611240806157514e+02  9.5756447404966502e+02  9.7936400108861631e+02  1.0008535806755737e+03  1.0222354937680083e+03  1.0434861116292138e+03  1.0632347321012692e+03  1.0817849198592019e+03  1.0977673659442614e+03  1.1109552213388140e+03  1.1210887344132439e+03  0.0000000000000000e+00  0.0000000000000000e+00  9.9278293870223536e+02  9.9318963907209138e+02  9.9585953050654484e+02  9.9965297461725595e+02  1.0046413347759294e+03  1.0106648048969680e+03  1.0177427572780184e+03  1.0255013797982133e+03  1.0343261958464682e+03  1.0433143319697369e+03  1.0530598365622016e+03  1.0626072405586631e+03  1.0724520198560701e+03  1.0814344230767144e+03  1.0902297780171423e+03  1.0976623173430467e+03  1.1042191062711263e+03  1.1089642456870924e+03  1.1120602100059134e+03  1.1118227924411758e+03  1.1097053436756521e+03  1.1042284198203952e+03  1.0976922559844350e+03  1.0902437713638594e+03  1.0814751283283588e+03  1.0722599700421019e+03  1.0627388919054997e+03  1.0529699842377211e+03  1.0433540108700506e+03  1.0342173655778072e+03  1.0254465114722386e+03  1.0178105780477721e+03  1.0105782739713064e+03  1.0047636688089063e+03  9.9963355063471886e+02  9.9597289287667570e+02  9.9324338416339708e+02  9.9285499228248887e+02  9.9516672992211761e+02  9.9447210177012084e+02  9.9280561812775056e+02  9.9039377709179610e+02  9.8764246986697219e+02  9.8461161816183574e+02  9.8141570899119904e+02  9.7814249312564505e+02  9.7475327392069039e+02  9.7133925041701332e+02  9.6784215050565570e+02  9.6433128674767408e+02  9.6075096217789917e+02  9.5718542027349383e+02  9.5356889508713459e+02  9.4996287000694167e+02  9.4630535513336338e+02  9.4265894623568181e+02  9.3899131343664965e+02  9.3532634297516631e+02  9.3163429621107730e+02  9.2792838573613983e+02  9.2425068690377827e+02  9.2051645264202193e+02  9.1683401506711004e+02  9.1307741683098152e+02  9.0937535622487360e+02  9.0563676439743870e+02  9.0188639730129182e+02  8.9816314628790417e+02  8.9437778049734732e+02  8.9064017852457278e+02  8.8687715043634512e+02  8.8306077392653458e+02  8.7927815495417360e+02  8.7547937057128479e+02  8.7165570278696316e+02  8.6782307293905592e+02  8.6392775887462608e+02  8.6004755861997182e+02  8.5611316002354886e+02  8.5211711502178218e+02  8.4808926786673044e+02  8.4401847175983835e+02  8.3934616619672090e+02  8.3761001925764913e+02  8.0874485385686012e+02  8.0869338693250518e+02  8.3780042950828954e+02  8.3933457722904120e+02  8.4404170457404348e+02  8.4810567600511581e+02  8.5213545361684749e+02  8.5610989372048152e+02  8.6006175102623206e+02  8.6393126321650948e+02  8.6780816533391464e+02  8.7163047163576323e+02  8.7547589875671918e+02  8.7926120785607395e+02  8.8305987422839792e+02  8.8681931670728818e+02  8.9059549753364388e+02  8.9433316755422845e+02  8.9810714064132924e+02  9.0183492855925726e+02  9.0557863235691696e+02  9.0928835429323419e+02  9.1302111510222778e+02  9.1672158441565989e+02  9.2045711350609952e+02  9.2414403843493858e+02  9.2785189583109980e+02  9.3152636198059315e+02  9.3521939856883273e+02  9.3887510661954263e+02  9.4256345286833562e+02  9.4620231749448556e+02  9.4985277109497531e+02  9.5345822808964635e+02  9.5707453866668777e+02  9.6064431511950704e+02  9.6422589489110521e+02  9.6773473364358870e+02  9.7123689725620818e+02  9.7465418864272601e+02  9.7804689232654914e+02  9.8132554258013295e+02  9.8452472043703949e+02  9.8755823497927827e+02  9.9031451549109715e+02  9.9273570204887562e+02  9.9440538322148052e+02  9.9509802972120212e+02  0.0000000000000000e+00  0.0000000000000000e+00  0.0000000000000000e+00  0.0000000000000000e+00  0.0000000000000000e+00  0.0000000000000000e+00  0.0000000000000000e+00  0.0000000000000000e+00  0.0000000000000000e+00  0.0000000000000000e+00  0.0000000000000000e+00  0.0000000000000000e+00  0.0000000000000000e+00  0.0000000000000000e+00  0.0000000000000000e+00  0.0000000000000000e+00  0.0000000000000000e+00  0.0000000000000000e+00  0.0000000000000000e+00  0.0000000000000000e+00  0.0000000000000000e+00  0.0000000000000000e+00  0.0000000000000000e+00  0.0000000000000000e+00  0.0000000000000000e+00  0.0000000000000000e+00  0.0000000000000000e+00  0.0000000000000000e+00  0.0000000000000000e+00  0.0000000000000000e+00  0.0000000000000000e+00  0.0000000000000000e+00  0.0000000000000000e+00  0.0000000000000000e+00  0.0000000000000000e+00  0.0000000000000000e+00  0.0000000000000000e+00  0.0000000000000000e+00  0.0000000000000000e+00  0.0000000000000000e+00  0.0000000000000000e+00  0.0000000000000000e+00  0.0000000000000000e+00  0.0000000000000000e+00  0.0000000000000000e+00  0.0000000000000000e+00  0.0000000000000000e+00  0.0000000000000000e+00  0.0000000000000000e+00  0.0000000000000000e+00  0.0000000000000000e+00  0.0000000000000000e+00  0.0000000000000000e+00  0.0000000000000000e+00  0.0000000000000000e+00  0.0000000000000000e+00  0.0000000000000000e+00  0.0000000000000000e+00  0.0000000000000000e+00  0.0000000000000000e+00  0.0000000000000000e+00  0.0000000000000000e+00  0.0000000000000000e+00  0.0000000000000000e+00  0.0000000000000000e+00  0.0000000000000000e+00  0.0000000000000000e+00  0.0000000000000000e+00  0.0000000000000000e+00  0.0000000000000000e+00  0.0000000000000000e+00  0.0000000000000000e+00  0.0000000000000000e+00  0.0000000000000000e+00  0.0000000000000000e+00  0.0000000000000000e+00  0.0000000000000000e+00  0.0000000000000000e+00  0.0000000000000000e+00  0.0000000000000000e+00  0.0000000000000000e+00  0.0000000000000000e+00  0.0000000000000000e+00  0.0000000000000000e+00  0.0000000000000000e+00  0.0000000000000000e+00  0.0000000000000000e+00  0.0000000000000000e+00  0.0000000000000000e+00  0.0000000000000000e+00  0.0000000000000000e+00  0.0000000000000000e+00  0.0000000000000000e+00  0.0000000000000000e+00  0.0000000000000000e+00  0.0000000000000000e+00  0.0000000000000000e+00  0.0000000000000000e+00  0.0000000000000000e+00  0.0000000000000000e+00  0.0000000000000000e+00  0.0000000000000000e+00  0.0000000000000000e+00  0.0000000000000000e+00  0.0000000000000000e+00  0.0000000000000000e+00  0.0000000000000000e+00  0.0000000000000000e+00  0.0000000000000000e+00  0.0000000000000000e+00  0.0000000000000000e+00  0.0000000000000000e+00  0.0000000000000000e+00  0.0000000000000000e+00  0.0000000000000000e+00  0.0000000000000000e+00  0.0000000000000000e+00  0.0000000000000000e+00  0.0000000000000000e+00  0.0000000000000000e+00  0.0000000000000000e+00  0.0000000000000000e+00  0.0000000000000000e+00  9.8561636473373665e+02  9.8411887321443521e+02  7.4684202614271294e+02  9.3801909699649730e+02  8.8993667864577003e+02  9.4106439932710236e+02  8.4103952785795684e+02  8.9647825822427978e+02  1.1023242966687867e+03  8.5057854782078550e+02  1.1076874023325468e+03  1.0673980809188454e+03  1.0242208565158210e+03  1.0635139659624567e+03  1.1160386077088874e+03  1.0228437471003984e+03  9.9206771621549910e+02  9.9257947026342947e+02  1.1185182564267791e+03  9.7352626482827111e+02  9.7340968571824567e+02  9.5138070302469384e+02  7.8859830795047662e+02  9.5131005017712278e+02  9.3002221904540897e+02  9.0472753107205165e+02  9.2977006051171054e+02  9.0698401412157455e+02  8.8359686960744352e+02  8.6566331888578236e+02  8.6180767649334177e+02  1.0908483989367260e+03  8.4080486710024923e+02  1.0910198129270921e+03  8.4318356210921206e+02  8.0604884644222170e+02  1.0089654472319514e+03  1.0078944033029227e+03  8.0906260443285441e+02  8.1524590531957153e+02  8.8349756339514602e+02  1.1138460171119004e+03  1.0408253402854336e+03  1.0529136275246055e+03  6.5552427499578528e+02  1.0706083436464078e+03  1.1019026553224298e+03  1.1018666038229469e+03  5.6496414884918499e+02  9.1537436187430899e+02  9.8258610009326537e+02  8.1576386716574586e+02  9.8249164815184213e+02  9.6276564414177403e+02  9.4082238399295591e+02  1.0708795281043228e+03  1.0328987152736686e+03  9.6263564234308615e+02  8.5875930247036263e+02  9.4069914538236401e+02  1.0242789092734986e+03  7.8264631871069264e+02  9.1857084461957038e+02  1.0861074436146807e+03  4.7545115678885946e+02  8.9620606046751084e+02  8.7354909707261936e+02  9.6328370670367303e+02  8.5008849195517564e+02  8.9532356729330627e+02  8.7391157475450848e+02  8.3372107030786799e+02  1.1093638112307747e+03  8.2423017055611069e+02  3.8361833449013437e+02  8.1758265255138076e+02  9.6390541520376155e+02  1.0864221539118798e+03  8.4594974625743214e+02  1.1303171059159545e+03  1.1354627946798762e+03  1.0956564716056414e+03  9.9429518271156917e+02  9.9895931404554176e+02  9.9420374455195179e+02  9.9930833289985264e+02  9.1945130295205524e+02  8.3335424294697782e+02  9.7295494024151685e+02  9.2626925636058513e+02  1.1318893153819408e+03  9.7284511386380927e+02  1.0820416370627820e+03  2.9295935519705574e+02  9.5174508672607180e+02  7.6364267179002252e+02  8.1818714080634095e+02  8.7205678427395105e+02  1.1195264909551763e+03  9.5161510108292021e+02  9.2966722228895219e+02  1.1163456162218556e+03  9.9997267642277177e+02  1.0446943728469701e+03  1.1090594534504553e+03  9.0741329442878771e+02  1.0503367624203997e+03  8.8491601273572098e+02  9.7394147991103921e+02  9.1392586807370901e+02  6.9931284910687907e+02  6.9942933151876196e+02  8.6196637208629090e+02  2.1506554016889447e+02  1.1074934461290552e+03  9.0780228919426565e+02  1.0505684534182139e+03  8.6665381491215237e+02  9.8937649344689589e+02  1.0163130484059490e+03  8.2239864560677677e+02  8.1032532826703573e+02  9.8939732600921593e+02  1.0896906654851980e+03  8.8489125016212165e+02  9.7362153322026336e+02  1.0004722852674092e+03  8.2707995936183022e+02  1.2292556450158557e+02  1.1055337970426290e+03  1.0086616580146042e+03  8.6583944558927101e+02  6.1041803029539244e+02  6.0987603110090174e+02  9.3377333766246795e+02  9.1866532531252858e+02  9.1813033900451614e+02  1.0441405225687884e+03  1.0035890974075421e+03  8.4204090017624719e+02  9.8441764747583989e+02  9.2776551987379196e+02  1.0861184710973114e+03  1.0762054243319253e+03  8.5412167403836327e+02  7.4020677176725758e+02  9.8442640498073229e+02  9.2566311725849084e+02  1.1001138134525322e+03  9.9459541543184491e+02  8.1860386997423166e+02  8.9995112693777753e+02  9.9475487772152383e+02  1.0680086338307603e+03  1.1226857858907815e+03  8.8119124345454918e+02  5.2050938809772401e+02  5.2203285922859129e+02  9.4104559748960480e+02  9.6629221959275014e+02  9.5891927960058240e+02  1.0996008962863777e+03  9.6282572593762961e+02  9.5860441256636227e+02  9.6618409485979384e+02  9.4413219313128820e+02  9.7947618625869836e+02  9.4455380650985921e+02  9.3702693546515366e+02  6.5826194955051915e+02  6.5689893704457791e+02  1.0305985847391805e+03  1.1320918943304450e+03  9.7938088411470062e+02  9.6284840443987162e+02  9.1464678591361564e+02  9.2227596387718324e+02  9.4942516194810742e+02  9.0015866604329153e+02  8.9244564304584776e+02  1.1104127148318378e+03  7.7959170819312396e+02  8.6946323342299138e+02  8.7733106974382918e+02  1.1108916897776689e+03  1.0267598272828359e+03  9.4028416263031295e+02  8.5368523056670574e+02  7.9287938232839758e+02  7.6579256528528902e+02  1.0553810192056264e+03  4.2959991444149028e+02  4.3186306796655026e+02  1.1187643309870855e+03  1.0430297393826461e+03  1.0229194038965837e+03  8.9231611898995084e+02  9.0028748391141835e+02  1.1042913208514778e+03  9.1884056917420241e+02  8.7690654178256170e+02  1.1247676913143098e+03  1.0066735105051455e+03  8.8137218269393475e+02  9.5083337942868422e+02  8.3200581369371139e+02  8.2309151317296596e+02  1.0680867511045903e+03  1.0582141913040562e+03  8.9576512849828134e+02  8.5104691218061430e+02  1.0216123948468914e+03  1.1313304572571453e+03  1.0068132564809014e+03  1.1011011497007908e+03  8.7444046063445410e+02  8.4808477229329708e+02  8.3993932318287330e+02  8.2583054222407816e+02  9.7785916162428850e+02  1.0795861491556566e+03  9.8623679756424099e+02  1.1120105221239428e+03  9.9991831337936605e+02  5.6668402165869509e+02  5.6611569666078697e+02  9.8616793142357471e+02  1.0314691932451290e+03  1.0766898030620944e+03  8.4959186119944593e+02  3.3833515191388113e+02  3.3976546490945856e+02  8.3153963100550686e+02  9.7702961246559732e+02  9.9618819599471010e+02  1.1206754545128397e+03  7.9543468224165383e+02  9.9622037396638075e+02  9.0593256935996396e+02  7.3093690767730186e+02  1.0004320554020828e+03  1.0195818937915752e+03  1.1091831319836131e+03  8.0441751152382733e+02  1.0624225749819570e+03  1.0376906619040024e+03  8.4234743732080005e+02  8.0114996128102325e+02  9.2890977334651848e+02  7.9083351985194781e+02  1.0998152493938535e+03  9.4846605798527503e+02  1.0037695016934240e+03  1.0150882378656850e+03  9.3215985390957678e+02  1.0850027970382914e+03  8.8130880340814292e+02  1.1022433256548550e+03  7.1007375181661428e+02  8.9221730362564074e+02  9.0100537421202228e+02  8.7627905222532513e+02  1.1199381086547498e+03  9.5416946343500717e+02  1.1086114795183807e+03  8.1723816908718186e+02  8.6594960611278611e+02  2.4559909133704389e+02  2.4557552514162469e+02  9.7293359252852576e+02  9.2610036198645116e+02  4.7668285402257646e+02  4.7594684631107231e+02  1.1052271635591003e+03  9.7282987810830525e+02  9.0400511762649944e+02  5.5737925702795010e+01  8.8707814318109445e+02  9.9200752497219457e+02  9.5173175906630979e+02  1.1149144731861820e+03  9.0373684766468330e+02  9.9200004344161562e+02  1.0963300963916190e+03  9.5161737994374857e+02  1.0588385417324246e+03  9.1115515946097673e+02  1.1139745278621447e+03  1.1236510655587069e+03  9.2967000006567298e+02  1.0953887600279520e+03  1.0852926208596325e+03  9.9488080064217934e+02  9.0742288558455084e+02  9.3893556632181787e+02  8.8491425501821357e+02  1.1488099214335050e+03  8.5465615858422507e+02  8.6687846694300879e+02  9.4311800876516486e+02  1.0101380785356671e+03  3.8396277815660818e+02  3.8860714996501679e+02  8.6193592532931120e+02  1.1015981653748297e+03  9.9333683342546578e+02  8.3778449947270190e+02  1.0831787682205797e+03  8.2262339855107291e+02  1.1271384147493541e+03  8.0852192046523828e+02  8.7103026243176532e+02  9.5294594169670472e+02  8.6039732672142497e+02  1.0916502586428976e+03  8.6168033083020509e+02  9.9285269842747050e+02  1.0999446022302002e+03  1.5570905823449166e+02  1.5711311854001394e+02  9.2246067897705893e+02  1.0388146015181651e+03  1.0817312999334029e+03  8.4796472977854057e+02  7.8490712226945141e+02  1.1446342847644023e+03  7.6016117839049775e+02  1.0585068085300877e+03  9.3350190814111204e+02  1.1202377705286378e+03  9.7738482853100743e+02  6.7795239275375025e+01  9.7380184999359506e+02  6.2218466463019104e+02  1.1183453480157932e+03  7.3901250527025138e+02  7.6761108058995001e+02  1.0320507527921275e+03  9.7249569529345854e+02  1.0661368131812749e+03  9.8787051470664744e+02  9.9421047353246649e+02  1.0524188940078211e+03  9.7728161190465323e+02  9.9414687017112021e+02  1.0672373857860414e+03  1.0226110543369401e+03  1.0389084640411147e+03  7.1352520650593135e+02  8.4864905239498194e+02  1.0756489059988685e+03  8.2540229043268141e+02  1.1321083468814318e+03  1.0599683931491845e+03  9.8751996572898747e+02  8.0843866281451983e+02  8.9755610609783810e+02  9.9623203941488919e+02  9.9932492398943464e+02  8.3924335697780350e+02  9.6845716457584899e+02  8.8493159687735977e+02  9.9875382089525647e+02  1.0869316078021893e+03  1.1407619144600096e+03  1.1391821797003367e+03  1.0929459889760940e+03  1.0763880328362834e+03  1.1167140930236988e+03  9.8148714115525377e+02  1.0086140722017052e+03  1.1054505417723624e+03  9.6253458939981613e+02  8.7047649606795426e+02  1.1051001724942846e+03  1.1257846340718002e+03  1.1218851413678767e+03  8.5028036798058304e+02  9.6240308123896887e+02  6.8295619931781755e+02  9.6833470617146895e+02  6.8055031716476913e+02  7.2463177279891329e+02  1.0221987358907073e+03  9.4071709500304053e+02  1.1093163290262992e+03  2.9147710333111263e+02  2.9377945035392065e+02  1.1071146973757711e+03  8.3526911842795539e+02  9.5707250417618945e+02  9.1855760171962197e+02  9.2875200475770419e+02  1.0930427302110072e+03  1.0763906620987150e+03  9.4713521572600075e+02  8.9622323618904954e+02  8.7350346217106460e+02  8.4118346703886311e+02  9.5261717192009883e+02  9.8628169993190500e+02  9.4696427328236655e+02  1.0604699580039385e+03  1.0559383370342023e+03  8.2466538615426066e+02  9.6395876353872575e+02  1.0329244595776106e+03  8.1486421953667548e+02  1.1312400169647085e+03  9.8614162039747146e+02  1.0951883145583356e+03  9.5693998623049777e+02  9.2604821165271630e+02  9.0337169007431862e+02  8.9626803600252970e+02  5.2892236385981789e+02  8.1668829904325912e+02  1.0038131825474435e+03  9.4722417192496675e+02  1.0033083800882549e+03  1.0336396641000763e+03  6.8484396172566221e+02  9.8949065635700595e+02  6.2909620064689216e+02  1.0109630364133149e+03  1.0492724513685587e+03  1.1465407999444797e+03  9.3416310895588640e+02  1.0942615450442438e+03  9.8944543914397309e+02  6.2841032283699849e+02  9.9289387282851237e+02  7.8641593216307808e+02  8.0883788830411663e+02  8.1549960317259593e+02  1.0118964469954906e+03  1.1248683212512258e+03  9.2450655731893494e+02  1.0484788322732923e+03  1.0889298851420172e+03  1.0402078975524016e+03  1.0803974079869874e+03  8.3394636608903977e+02  1.0086752090139835e+03  1.0773024969180949e+03  1.0775662792215235e+03  1.0151496687892954e+03  1.1142770425596768e+03  9.1030627379270481e+02  1.1139140450397294e+03  9.8287933218451155e+02  1.0897032947427490e+03  1.1048085912574816e+03  1.1108270914563500e+03  1.0608750206849538e+03  7.6157767074245476e+02  9.8278462979417066e+02  9.7053775059069926e+02  9.1177036688898795e+02  9.0133904087513838e+02  1.0998127042463827e+03  8.8548903350627302e+02  9.0288645845615167e+02  1.0038917889232065e+03  9.8577495080338781e+02  9.8705605662507821e+02  8.8969634812337074e+02  1.0253827858628613e+03  1.0152590687959972e+03  9.90279828902