<?xml version="1.0"?>
<VTKFile type="UnstructuredGrid"  version="0.1"  >
<UnstructuredGrid>
<Piece  NumberOfPoints="1419" NumberOfCells="2698">
<Points>
<DataArray  type="Float64"  NumberOfComponents="3"  format="ascii">0 0 0  0 0.41 0  2.5 0 0  2.5 0.41 0  0.5998991736976965 0.2418876200640397 0  0.903405924053481 -0.132333278610988 0  0.25 0.2 0  0.15 0.2 0  0.2489897948556636 0.21 0  0.2489897948556636 0.19 0  0.5218799434617925 0.3298965131501129 0  0 0.3807142857143437 0  1.00374213176952e-12 0.3514285714461701 0  0 0.3221428571430699 0  0 0.29285714285744 0  -6.955249658022586e-14 0.2635714285732049 0  0 0.2342857142861561 0  -2.850636562159225e-13 0.2050000000481435 0  0 0.175714285714732 0  0 0.1464285714289574 0  0 0.1171428571431897 0  0 0.08785714285737878 0  0 0.05857142857161107 0  0 0.02928571428580012 0  0.03015443760436003 0 0  0.06140001986583606 0 0  0.09377624077125973 0 0  0.1273239957534807 -4.121094175304352e-11 0  0.1620856860351972 0 0  0.1981052433264291 0 0  0.2354281840186012 -1.30125098464568e-09 0  0.2741016576309411 -2.490334251487372e-11 0  0.3141745521465447 0 0  0.355697492631341 -1.401458591069267e-10 0  0.3987229542472677 0 0  0.4433053055141081 0 0  0.4895008759286886 0 0  0.5373680609405097 0 0  0.5869673343216626 0 0  0.6383613676634521 0 0  0.6916151138468254 0 0  0.7467958595648856 0 0  0.8039733463919316 0 0  0.8632198139502143 0 0  0.9246101326867038 0 0  0.9882218810934433 0 0  1.054135445558498 0 0  1.122434100542598 0 0  1.193204177142181 -6.561148636143505e-14 0  1.266535089879536 0 0  1.342519516046404 0 0  1.421253448503939 0 0  1.502836389106271 0 0  1.587371439758838 0 0  1.674965418777374 0 0  1.765729001825544 0 0  1.859776908880082 0 0  1.957227977487062 0 0  2.058205329869943 0 0  2.162836591189951 0 0  2.271253957290865 0 0  2.383594446803425 0 0  2.5 0.1024999999997612 0  2.5 0.2049999999994743 0  2.5 0.3074999999997183 0  2.383594446803656 0.41 0  2.271253957291315 0.41 0  2.162836591190598 0.41 0  2.058205329870775 0.41 0  1.957227977488067 0.41 0  1.859776908881246 0.4099999999999293 0  1.765729001826854 0.41 0  1.674965418778818 0.41 0  1.58737143976041 0.41 0  1.502836389107956 0.41 0  1.421253448505726 0.41 0  1.342519516048286 0.41 0  1.266535089881505 0.41 0  1.193204177143353 0.41 0  1.122434100544716 0.41 0  1.05413544556068 0.41 0  0.9882218810956305 0.41 0  0.9246101326886647 0.41 0  0.8632198139519631 0.41 0  0.8039733463934788 0.4099999999969019 0  0.7467958595662458 0.41 0  0.6916151138480078 0.41 0  0.638361367664434 0.409999999994879 0  0.5869673343225223 0.41 0  0.5373680609412221 0.41 0  0.4895008759292634 0.4100000002395673 0  0.4433053055145528 0.41 0  0.3987229542475914 0.41 0  0.3556974926297398 0.41 0  0.3141745521466497 0.4100000000016857 0  0.2741016576310038 0.409999999898762 0  0.2354281840915826 0.41 0  0.1981052433237697 0.4099999999994087 0  0.1620856860352591 0.41 0  0.127323995753355 0.4099999998048416 0  0.09377624077128965 0.41 0  0.06140001988986528 0.4099999998673389 0  0.03015443760436654 0.41 0  0.2497468076502589 0.2050254481002335 0  0.2497468076502614 0.1949745518997913 0  0.2469965252529372 0.1829317073452068 0  0.2439893735792749 0.1762316384219562 0  0.2400332147834255 0.1700443375285386 0  0.2352133972704371 0.1645032867342007 0  0.2296339016332438 0.1597280261969788 0  0.2234150974217223 0.1558215752574715 0  0.2166911463437247 0.1528682099456123 0  0.2096071079204251 0.1509316448471593 0  0.2023158100364996 0.1500536585536553 0  0.194974551899914 0.1502531923497262 0  0.1877417105387872 0.1515259415822739 0  0.1807733240461124 0.153844448527136 0  0.1742197252835808 0.15715869474974 0  0.1682222986673531 0.1613971801805478 0  0.162910430003803 0.1664684656256651 0  0.1583987151779087 0.1722631454351573 0  0.1547844879126891 0.178656207771761 0  0.1521457200227072 0.1855097315605723 0  0.1505393388476355 0.1926758619366523 0  0.1505393388476328 0.2073241380633295 0  0.1521457199348437 0.2144902684393899 0  0.1547844879126531 0.221343792228163 0  0.1583987151778488 0.2277368545647528 0  0.1629104300036858 0.2335315346057871 0  0.1682222986671726 0.2386028198193036 0  0.1742197252833576 0.2428413052501257 0  0.1807733240458683 0.2461555514727623 0  0.1877417105384929 0.2484740584176516 0  0.1949745518995776 0.2497468076502398 0  0.202315810036185 0.2499463414463592 0  0.2096071079212665 0.2490683551528932 0  0.2166911463435495 0.2471317900544655 0  0.2234150974215506 0.2441784247022656 0  0.2296339016331197 0.2402719738031125 0  0.2352133972703547 0.2354967132658811 0  0.2400332147833751 0.2299556624715287 0  0.2439893735792577 0.2237683615780412 0  0.2469965252586125 0.217068292651679 0  0.2798757761532574 0.4686441402120216 0  0.3179558665059153 0.2770733041679291 0  0.198787640003884 -0.2256962477241774 0  0.2776412937377596 0.358907881253822 0  0.3818263052931025 0.5786774715816665 0  0.1634734648603697 -0.5239499241325077 0  0.4633584534576479 0.2341008233959262 0  0.2905370401999192 0.262106867822579 0  0.3233316524049912 0.001420254996222199 0  0.3441946873187878 0.2061431411630753 0  0.2978674166870146 0.1730183957147531 0  0.3902500852637468 0.1231658135848131 0  0.03475629884306193 0.8945332538567338 0  0.6327140777247182 -0.4083126405732168 0  1.155702067721151 -1.585949676099594 0  -0.7587862426934053 2.652661728403883 0  0.6955747354100902 -0.4709370808492516 0  0.4881363825403449 0.004284390176973974 0  0.4246428266051753 0.2307353035070113 0  0.4206970707727992 0.09776613252143428 0  0.5335447900114015 0.2493221515232532 0  0.4440398574472223 0.3332455791147479 0  0.4035666918369945 0.2120698990895096 0  1.354109284815917 -1.43403987737445 0  0.9500957741212886 -0.7202725175374685 0  0.1095774833833003 0.81129913467632 0  0.1122523048605742 0.8387406350746582 0  0.7763945182760175 -0.4185448260585521 0  0.5222821179465983 0.09696768665186145 0  0.5604409158927831 0.1418040015889746 0  0.2857462580497764 0.4376258002514474 0  0.7428481136052403 -0.05776566547272016 0  0.09916707446733464 0.7398789406895081 0  0.7174628471639635 -0.0780116886498527 0  0.2925162434993037 0.6993733155864806 0  0.4276981078897 0.4318055664328257 0  0.4941860042102109 0.295646487312296 0  0.5007508405613229 0.2875509550001699 0  0.5752445104815634 0.1855028195469384 0  0.4645197487821292 0.3202840355820735 0  0.9583480185684068 -0.2478030098133381 0  0.5820739056305099 0.01961500649464747 0  0.4347404732406341 0.2572814964483764 0  0.5272295396343444 0.3802300835869376 0  0.4864462115804352 0.3303466619624426 0  0.4061254339284971 0.4287226602094577 0  1.049384985737489 -0.2885647422683757 0  0.6024885930908346 0.1675166750817751 0  0.5549036548250568 0.2455639236922158 0  0.6656736995111204 0.02164735666875633 0  0.5343594527778831 0.1312131444399772 0  0.4080330799454326 0.1414370334564183 0  0.5853399300958553 0.02847010962293447 0  0.412099852433922 0.5021494490680782 0  0.537705120515661 0.202924067906472 0  0.45974229907335 0.185252187971211 0  -0.04137682731364364 0.2637786182019695 0  0.8838411935610837 0.276289487031066 0  0.5701350963317546 0.08311988775457228 0  0.4547531724691921 0.1010671359525033 0  0.6063508248002585 0.3680493924246326 0  0.4375309125900622 0.1201106239035778 0  0.3936067074751325 0.07318141237847045 0  0.7690413279718888 0.5775148987186615 0  0.1815207112968781 0.2185006173259513 0  0.6066731353594497 0.1508797986351429 0  0.3403358712744602 0.1947833225021365 0  0.481872833279782 0.04107516422571983 0  0.3742297374012888 0.5398024400319 0  0.4845968125380914 0.1322854682728966 0  0.4145830099442543 0.05767395724214447 0  0.3865521673945212 0.344091053669207 0  0.436513034639345 0.558704591252129 0  0.4140916332808841 0.02522012717232716 0  0.4105996378343382 -0.09317231096353165 0  0.4383312213195479 -0.03573387240626463 0  0.3966909623483669 0.2582206905677267 0  0.3099601636819415 0.2619181877165398 0  0.2963184135136166 0.1983443991028159 0  0.1419883574534881 0.292239231793661 0  0.5126666053974458 0.177517551743034 0  0.3414478471016172 0.3083562930179652 0  0.3292819523697661 0.04913477393445431 0  0.3363958354396351 0.4331349542535582 0  0.306400275955319 0.1081473951503029 0  0.3123093611137394 0.3031227914499622 0  0.2972409835815455 0.1748290259737897 0  0.2930584479251936 0.2211020035217265 0  0.2932006025367995 0.08632705149283436 0  0.2989291645235795 0.1375297188710221 0  0.299665377100452 0.2864937235737735 0  0.2699697915488885 0.1643149730372416 0  0.3172042557136384 0.09683113866648124 0  0.1737459383533431 0.1310059401474017 0  0.2730727812710271 0.2042450610924066 0  0.5845077852662255 0.2156588023502875 0  0.5321140510349459 0.1789435978648344 0  0.5695234915895765 0.1973971570700126 0  0.2616544561347564 0.1498422453928777 0  0.5217589908793064 0.2482749417774844 0  0.2985306931734099 0.2525871736646431 0  0.4992620044991694 0.2120514960592653 0  0.3050337817935888 0.2340683249557848 0  0.3155941109447696 0.2230796478862562 0  0.4991802295384964 0.1962959718151334 0  0.4317220904559724 0.0585758919823236 0  0.4941227096181429 0.2175257740015043 0  0.3345886334298134 0.2291500382922113 0  0.4586243548746211 0.03935574275147166 0  0.4662069738194163 0.192992134466138 0  0.4649919964288185 0.2704612436806879 0  0.4191095238558589 0.1441752091275732 0  0.4428211704104322 0.2125968784803016 0  0.4286414771649228 0.1748776075159921 0  0.5464537755738499 0.0237633462223617 0  0.4466855446730329 0.1579492535285557 0  0.3608614278279051 0.1913420561815128 0  0.5588721144264481 0.1730236151866957 0  0.3016105979608313 0.1964981792573672 0  0.5360821543650449 0.162513218352205 0  0.2694255468016704 0.1932884021545643 0  0.5436668402566222 0.2481550697736875 0  0.5261686317643146 0.2193493996936826 0  0.2416737906564503 -0.0145444476440057 0  0.2877992547795892 0.1803291265274441 0  0.4589492391586142 0.2231774998588688 0  0.5142445211978529 0.196482387751372 0  0.5907371417926943 -0.271647760193606 0  0.4403512269420728 0.2169470078204892 0  0.3287670986462672 0.24164014160
[...]
<PointData  Scalars="f_40-2"> 
<DataArray  type="Float64"  Name="f_40-2"  format="ascii">1.3613911268022258e+15  -4.2168380647882920e+15  0.0000000000000000e+00  0.0000000000000000e+00  -9.0443330242034590e+12  7.3458830589833086e+12  0.0000000000000000e+00  -2.9246725193594675e+15  1.1799723130587809e+14  6.5019785951934453e+13  -3.0552749421748465e+13  -3.7913039883343460e+15  -8.9141247682066270e+15  -7.5829453300473490e+15  -4.4033075883889105e+15  -3.4235237203931155e+15  -1.7037018343806938e+15  -5.9686609712759088e+14  -3.1155835550642335e+15  -1.6903839066904640e+15  -1.3161703562663525e+14  -6.3406466517020162e+14  -2.0944582625930342e+15  -1.6559807320137078e+15  -1.2686712503521850e+15  8.8257956994939781e+13  -4.4290722926436894e+14  2.5111391834624166e+14  2.4597093260429097e+14  -8.4410964241418662e+12  -1.9044973076690961e+13  -3.4362369935451323e+12  1.0164190191031949e+13  2.2184322400901773e+13  -1.0724924921214572e+13  -2.4604338277182125e+13  -7.4402207185296074e+12  -2.2413601773642961e+13  -1.0394930853497806e+14  -1.0853717127185695e+14  -1.5438594677823166e+14  -1.2538841121343697e+14  -3.2436261256934319e+14  -5.4245461274759444e+14  -5.8808752273766150e+14  -2.8729238513780738e+14  -3.3641673439171538e+14  -3.3737654451009300e+14  -2.5662920397754903e+14  2.7644132347565051e+13  -2.0433806904704106e+14  -2.2736109895204516e+14  -4.2004007711564829e+12  -1.7908316632154828e+13  -3.2043455831423066e+13  2.7719479796430516e+13  1.0282922906669695e+14  -1.8639669959511560e+12  2.8972099371832494e+14  2.8442333091691425e+14  3.1263342217622069e+14  3.4634297185844919e+14  0.0000000000000000e+00  0.0000000000000000e+00  0.0000000000000000e+00  -1.5483555099715025e+14  -4.9285151029501781e+14  -4.4646932839590962e+14  -3.4365657908934289e+13  7.7107779704208672e+12  6.9097061274571516e+13  9.6081227136787016e+13  5.8968458955635922e+13  2.9764632629424441e+13  -5.2747145528489586e+13  -7.6452797250399609e+13  9.3628852306213031e+13  1.1197230617129603e+14  2.3687345467290386e+12  -4.1048692336366150e+14  -4.2421151749431875e+14  -6.1626897359089578e+13  1.6338400592630603e+14  1.0863411235267205e+14  -2.0359102567842822e+14  7.7942498909884043e+12  2.9146947331615444e+12  2.5499248291883335e+12  -6.8704835476660217e+11  -3.0195840855667827e+12  -1.8904715589001043e+13  -1.7444263306001186e+13  -2.5762111319769922e+13  1.3945755958272571e+11  1.3950062207743549e+13  -3.2530902716819950e+14  -1.1805853397338742e+15  -2.1430279269001725e+15  -3.4689870216193650e+15  -3.8881701885641685e+15  -4.3206156593047705e+15  -6.1620656548400080e+15  -2.3417919455829495e+15  0.0000000000000000e+00  0.0000000000000000e+00  1.7263813940717461e+13  8.5967836869631906e+13  2.5264742236011353e+14  1.6021463349432172e+14  5.2171763775901539e+13  4.6421871911894375e+13  -2.2852172795075003e+14  -4.0985073311139800e+14  3.2718609886582812e+14  4.8697068706946644e+14  6.7373032737089475e+14  3.5380828522344888e+14  4.1862611126160394e+14  4.0497925021330638e+14  6.3241876388155850e+14  1.0253466636373570e+15  5.7179013486274350e+14  -2.5496625348668895e+15  -2.3627101115016500e+15  -2.7754128217940534e+14  -4.8331708373102160e+15  -5.9066201860791240e+15  -3.7286974105971865e+15  -4.1235924310646295e+15  -1.2026278058651920e+15  2.4322362003424591e+14  -2.8887269949775800e+14  -2.9160701202487975e+14  7.4465139888846953e+13  9.9716242813708047e+13  3.4796219063597431e+14  2.9815875636310694e+14  2.5479662556236675e+14  3.6160915738633444e+14  3.7598868805445188e+14  3.0561187207325962e+14  2.1930175921086291e+14  -3.3027308767173246e+13  1.0474537483229056e+14  -3.1729812294822719e+14  4.0693500642719069e+14  3.3968012627536438e+14  2.7268979951807200e+14  2.7925332111794688e+14  4.6960739120127356e+14  -2.9503220356864819e+14  -6.2514993262545875e+14  3.8914225913743388e+14  3.8549937819943078e+13  5.4427127879293219e+13  -6.5710976630875010e+12  -1.1951420329524959e+13  8.9492423820845625e+12  5.2050546015382406e+13  9.4958168398890938e+13  2.2052265050633449e+13  9.0136609353158062e+13  3.7075013841099438e+12  1.5742506296795242e+13  2.0854181818422949e+13  3.7573242464576062e+13  3.9260104937465953e+13  4.5905014755226688e+13  6.1454651432529570e+12  -3.9137390105679875e+13  4.3064359779216016e+13  3.7979474372900102e+13  2.8503628034069829e+12  2.1929095911358457e+13  3.1399674016346185e+11  1.6511926856607168e+12  1.2631306216658281e+13  -4.1274522527894562e+13  1.8072838050564051e+13  8.9065246477299375e+12  1.5996147252627390e+11  8.7132410523994990e+12  -2.5124819184670871e+13  5.0760463666803820e+13  -8.1104115807323760e+12  -5.1998574972389639e+12  -2.4626893787628109e+13  -3.9292476598907358e+12  1.2903464789212297e+13  -2.6070289439707824e+13  4.6060068897152117e+13  3.1343508356482152e+13  -2.9392187321788609e+13  -5.7124015557381875e+13  7.6890151834929453e+13  6.3721209905831846e+12  -1.3232707022625766e+14  -8.1394874649631656e+13  5.4398664922352803e+12  -3.3377783297641961e+13  3.3659040820672832e+13  -2.9848692569903438e+13  -1.6852447201105975e+13  2.2008427633896676e+13  1.2259392762769104e+13  -3.5617880230624277e+12  -4.9075118826223906e+12  -5.5297192489658193e+12  -2.3782109957533779e+12  -2.2584755320209980e+12  -7.7156166236687021e+12  -3.1559783666117500e+12  -8.6021692005838291e+12  -3.5537018985750259e+12  1.0748467925962160e+13  7.3879629112516348e+12  1.1659975080478203e+13  2.9589985707521547e+13  -2.1057034569339652e+13  -2.1992071210418618e+12  -8.0868591575052227e+12  -1.6880934662405918e+12  1.6123578786288418e+12  -2.0694704538453316e+13  -3.2637507230050278e+12  4.4636663727576672e+13  2.3716599031025727e+13  -1.9826747632359816e+13  -3.9087309077902203e+13  2.5459949916215117e+13  2.9836382143662988e+12  2.2122608506687199e+13  -1.7594485181165555e+13  -5.3410693132761328e+13  -2.0275466372207241e+14  4.2595056430993656e+13  3.2887619941676117e+13  0.0000000000000000e+00  0.0000000000000000e+00  0.0000000000000000e+00  0.0000000000000000e+00  0.0000000000000000e+00  0.0000000000000000e+00  0.0000000000000000e+00  0.0000000000000000e+00  0.0000000000000000e+00  0.0000000000000000e+00  0.0000000000000000e+00  0.0000000000000000e+00  0.0000000000000000e+00  0.0000000000000000e+00  0.0000000000000000e+00  0.0000000000000000e+00  0.0000000000000000e+00  0.0000000000000000e+00  0.0000000000000000e+00  0.0000000000000000e+00  0.0000000000000000e+00  0.0000000000000000e+00  0.0000000000000000e+00  0.0000000000000000e+00  0.0000000000000000e+00  0.0000000000000000e+00  0.0000000000000000e+00  0.0000000000000000e+00  0.0000000000000000e+00  0.0000000000000000e+00  0.0000000000000000e+00  0.0000000000000000e+00  0.0000000000000000e+00  0.0000000000000000e+00  0.0000000000000000e+00  0.0000000000000000e+00  0.0000000000000000e+00  0.0000000000000000e+00  0.0000000000000000e+00  0.0000000000000000e+00  0.0000000000000000e+00  0.0000000000000000e+00  0.0000000000000000e+00  0.0000000000000000e+00  0.0000000000000000e+00  0.0000000000000000e+00  0.0000000000000000e+00  0.0000000000000000e+00  0.0000000000000000e+00  0.0000000000000000e+00  0.0000000000000000e+00  0.0000000000000000e+00  0.0000000000000000e+00  0.0000000000000000e+00  0.0000000000000000e+00  0.0000000000000000e+00  0.0000000000000000e+00  0.0000000000000000e+00  0.0000000000000000e+00  0.0000000000000000e+00  0.0000000000000000e+00  0.0000000000000000e+00  0.0000000000000000e+00  0.0000000000000000e+00  0.0000000000000000e+00  0.0000000000000000e+00  0.0000000000000000e+00  0.0000000000000000e+00  0.0000000000000000e+00  0.0000000000000000e+00  0.0000000000000000e+00  0.0000000000000000e+00  0.0000000000000000e+00  0.0000000000000000e+00  0.0000000000000000e+00  0.0000000000000000e+00  0.0000000000000000e+00  0.0000000000000000e+00  0.0000000000000000e+00  0.0000000000000000e+00  0.0000000000000000e+00  0.0000000000000000e+00  0.0000000000000000e+00  0.0000000000000000e+00  0.0000000000000000e+00  0.0000000000000000e+00  0.0000000000000000e+00  0.0000000000000000e+00  0.0000000000000000e+00  0.0000000000000000e+00  0.0000000000000000e+00  0.0000000000000000e+00  0.0000000000000000e+00  0.0000000000000000e+00  0.0000000000000000e+00  0.0000000000000000e+00  0.0000000000000000e+00  0.0000000000000000e+00  0.0000000000000000e+00  0.0000000000000000e+00  0.0000000000000000e+00  0.0000000000000000e+00  0.0000000000000000e+00  0.0000000000000000e+00  0.0000000000000000e+00  0.0000000000000000e+00  0.0000000000000000e+00  0.0000000000000000e+00  0.0000000000000000e+00  0.0000000000000000e+00  0.0000000000000000e+00  0.0000000000000000e+00  0.0000000000000000e+00  0.0000000000000000e+00  0.0000000000000000e+00  0.0000000000000000e+00  0.0000000000000000e+00  0.0000000000000000e+00  0.0000000000000000e+00  0.0000000000000000e+00  0.0000000000000000e+00  0.0000000000000000e+00  0.0000000000000000e+00  1.0486546972049604e+13  -7.6937272928748703e+13  -5.5919121970936562e+13  6.0635275763200133e+13  1.5186022556979334e+14  -3.8226577401622641e+13  6.0078812164173758e+13  -1.6382821865570320e+13  2.0106699012684254e+13  6.8461323188740016e+13  -1.1697491201342383e+14  -6.1194004131332822e+12  -9.3290573234530922e+13  -2.0018259478237225e+14  -1.9197417437758172e+15  8.3914557949601404e+11  2.4645782399387324e+13  6.7591855428922914e+13  -5.7539902179832000e+14  -1.4588800931179628e+14  2.5068362273929902e+13  5.1456913801529562e+14  5.2426994690930075e+14  -2.1911418401690883e+13  -1.1321083758501717e+14  -4.0200966265628906e+13  1.0706555010333447e+13  -4.7515029246368750e+13  6.9807426218120289e+13  -9.7378531552894941e+12  -1.9328412977992070e+13  4.9255277525369700e+15  1.1120341802054944e+14  -1.6870833672229769e+14  4.8105009651075109e+13  1.0104108711023770e+14  -1.2277070565747319e+12  9.7279108782588016e+13  7.8679245214296812e+13  -8.2466067021516719e+12  3.3031088270516090e+13  1.7458639865306245e+15  7.8020866707479053e+11  -2.2623472749259988e+14  -6.1844418637467102e+13  7.0991183123666422e+13  -1.1592198590697380e+15  5.6377918460790775e+14  -7.0825275826040516e+13  1.0049045957198289e+14  5.9659592073182461e+12  -7.0322280653373336e+13  8.6333857634271504e+12  -1.9636999791370688e+14  -2.1274989011269097e+14  -2.6111103426240938e+13  -1.4732214694525666e+13  2.8052168031381436e+12  6.8800298007102529e+12  4.8732472191834121e+12  1.7186182211145444e+12  1.3140327021596266e+13  -7.0777638837787295e+12  3.1681071218980995e+15  -1.8317638538318641e+14  -6.5711235879935898e+12  4.7168214444131680e+12  -7.9521537824320578e+13  1.2114617328131148e+14  1.0636477597450361e+13  -9.0319727964622441e+12  1.4306266509878439e+13  2.7780106370767644e+14  2.4611790879754781e+13  3.1847550212824457e+13  -4.1532147905660375e+13  4.1218180834392578e+12  -4.2447708391394862e+14  -9.4764007993143555e+12  9.5276899717878250e+14  -3.0981916040696981e+14  -2.4223317544985747e+14  5.8304076645118125e+13  4.5797153655924212e+14  1.9365493007946715e+13  5.2355799395966973e+12  2.5408831190207250e+13  -1.6757229120611347e+14  7.9921370361730750e+13  1.5433962406428309e+14  -7.1047117548309703e+13  -2.7270618425242334e+12  -2.1487422039054348e+13  1.3414362643375650e+14  -8.8538603733576578e+13  6.1218387722354326e+12  -4.7742469193932393e+12  3.3240087196119212e+14  -9.9169470736251800e+14  -1.6456227533314106e+12  -1.9589171799590336e+13  -6.0578681619730100e+14  -1.1179913504800023e+14  -1.2275760981127044e+14  2.1960268547720098e+15  -1.2059004893192791e+13  1.3645398840586644e+14  1.0060749434001934e+13  -1.4152834073751508e+13  -3.8258590240992734e+13  -3.2999334839663631e+14  -3.0155351137051188e+13  2.0977590897266215e+13  -1.1813505278611102e+14  7.8396948062590975e+14  -5.6102817098436828e+13  -3.5242322948795431e+14  1.3490470914388039e+14  2.4416991877090840e+13  -2.9437095226970965e+13  -1.9646004049834422e+13  8.6236771563507344e+12  2.9310452266140881e+11  -5.8221560951227881e+12  6.7434170096471836e+12  6.1011141934376494e+12  1.5207430424220525e+13  3.2239210977901406e+13  1.0596350745079930e+13  -1.0563370199532805e+15  -3.0318768016916387e+13  -1.4718213781683557e+12  -1.2261382492760905e+14  -2.1928188134331256e+14  -4.1844643839698383e+13  3.4890099556917707e+13  1.2713377676756297e+14  5.0368847942511699e+12  1.5340744178044675e+14  1.8013632099634391e+13  -3.7912356135428812e+13  9.0115503913761578e+13  7.4783824088396788e+14  -2.7638455903775788e+14  9.4847387456911836e+12  8.8334760445207625e+13  2.3901199295072039e+13  1.0433882225234348e+14  3.1425879377646035e+15  -9.3673298433501282e+09  -7.4949419432279516e+13  -4.3042606149716055e+13  -2.1327959729721400e+14  -2.2260163590504591e+14  3.6973148106046519e+14  2.0208366002846434e+14  -1.1162486479579342e+14  -1.2411512983005819e+14  -3.2507209761429044e+14  2.8355580091852965e+13  4.6246379887694203e+13  4.8232115045342762e+14  3.1845305433166319e+14  -1.1093952427078660e+12  5.9005324263217559e+12  7.0093683414604359e+13  3.3406486382006980e+13  7.4896160770399207e+11  2.3796529828837244e+11  -4.0582469864097638e+14  3.7649545018754200e+14  -1.2586082471055694e+14  -8.1235141525317875e+14  3.2143807891693125e+12  2.1687147920390004e+13  4.6624252895377861e+12  9.3857245467546113e+12  -3.4279073873926480e+13  -6.2972889830770205e+12  1.6120981145923729e+13  5.3220068485470830e+15  6.9722120603697094e+13  -1.3317190904939406e+13  -4.8188307985467725e+12  -7.0729779483967075e+14  3.0007303952000062e+13  -2.1997689713103662e+12  -4.0024832329058656e+13  1.3954178154917788e+14  -4.7760680909366195e+13  -1.6611329807343326e+13  -6.8740881255491281e+13  -4.3915041912983633e+13  -9.8771228647737162e+14  1.0475376005679233e+14  3.3074744934911684e+13  1.2554940449759812e+13  -2.1634165170520617e+13  3.3953278137852490e+15  -1.1001742638373545e+14  5.3573926124792547e+13  8.5176692428290712e+14  -4.5304766990456047e+13  4.6672694926735984e+13  2.6138450632100415e+12  -2.2565403796620324e+13  2.3416918478250473e+13  -2.3487158128242397e+14  2.4429369144599709e+14  -2.3404061146007176e+13  9.9741879451111895e+12  -1.5359157976092451e+13  -7.8125915208947188e+14  -3.4717505124628564e+12  7.8330950601616350e+14  2.6112385390033944e+14  6.4075588230192021e+12  -7.6783025323307859e+13  1.5216360428435678e+14  -5.1903076381429625e+13  5.2102076824709069e+14  -9.9719564266920172e+13  8.9995654347057250e+14  -9.3062853314268100e+14  -4.0107456669209088e+14  -8.9519683987896453e+13  -5.6493468375143898e+13  -2.3292597666182122e+14  -9.1385837608070422e+13  -2.0441156168897891e+14  -1.0962925841879195e+14  3.4530185198866180e+13  8.2890075214290750e+13  5.1869691428927773e+13  3.1823236107091681e+14  4.1148732729576256e+14  3.4015394586871973e+13  7.2228205052114688e+13  1.5479159469327206e+14  6.0329535940396484e+12  -2.1198284899280621e+13  -9.2704770321468828e+12  -9.4670943192284825e+14  -6.6273292431857055e+13  -3.6822613395569756e+14  1.6077891953997824e+13  1.9392672946025676e+13  1.5800214000662528e+14  6.6803295721131625e+13  1.2240269291459822e+14  -2.2117806960104616e+14  5.8095763811771006e+12  -6.5694068840154289e+13  -1.1152574645491086e+14  -5.1493868971532797e+13  2.1307489849550980e+15  -3.4423000629037188e+13  -9.1908578850556699e+12  -2.8719674982284619e+14  -2.7133860503073121e+13  -1.7702535823279184e+14  -1.8907212465276723e+13  4.5859165393658756e+14  4.8838100642790719e+14  -2.6352222350434134e+14  6.3105286517404859e+13  5.5054859198596031e+13  6.8400660199288523e+13  3.7405306131862930e+13  1.0030878171871561e+14  3.0347184512478345e+12  -6.0737382200875953e+13  -7.2899252184536812e+13  1.8903270760644370e+15  -6.4779490015156104e+12  7.2093558059527172e+13  1.8454849538614541e+14  -2.8295959865510883e+13  2.0334104161110891e+14  9.3908919491434016e+13  -2.5134673956257603e+14  8.1418555828636289e+12  -3.7338175653211943e+12  2.6600440492002769e+14  1.9933979744035127e+12  5.4592575991019062e+14  -2.1407945479959949e+13  4.0825638771630690e+15  2.1203769820584572e+14  3.7721293456116523e+12  3.5754123764137075e+14  -3.8685146851196025e+14  -3.4574942645049712e+14  1.7538711488144592e+12  2.6153082410856156e+13  8.6803932801212598e+11  -7.6624822276423088e+14  -4.9865071796315508e+12  -2.6748663777004707e+13  -2.3279365171313959e+14  -4.7167562754278600e+14  2.1196654843447480e+13  6.4039300620098484e+13  -1.0838891381450318e+13  -1.2312085210696460e+15  3.2027314369107212e+12  3.1273808438303613e+13  4.0563650997455260e+15  -3.1865935582556631e+12  -6.0857604024831520e+15  -5.0431756134359070e+13  -3.4595835591298867e+13  2.3580874178956789e+13  2.9065309728718191e+13  6.9918418781678070e+13  -1.0861196464148803e+14  -5.4058529803712047e+13  -4.5925636240228193e+12  -1.1369608387258445e+14  6.0548409594397041e+12  6.5995916573134758e+13  1.4695574106329719e+14  -2.1604647678973116e+14  1.6357529521944131e+13  -1.4615037332709643e+13  2.5876815952427669e+14  1.1653503106959480e+12  -1.5454536264906597e+14  5.4394841274232883e+13  -3.7558623567891550e+15  -3.2153100787915652e+13  -1.8385759703802543e+13  1.1091801868108871e+13  -4.4374054571548250e+14  3.1151165594517515e+15  -1.1423964434739767e+14  1.6537524783961912e+14  -1.0487930061824852e+14  -7.9923088500061734e+13  -8.6403179488216812e+13  -8.1520587356644541e+12  2.3793465934874481e+14  8.9140912755158781e+13  -5.6858726745922344e+12  -6.8453975192048445e+13  8.3883933544496188e+14  4.2987290881734023e+13  -1.0046300554469789e+14  -1.7166907689240819e+14  -8.6640290622805586e+12  -6.7997022044068475e+14  3.7716309695130789e+13  -1.1119823797384636e+15  6.3438202202260488e+12  1.0171347758421854e+13  2.3358038869957770e+13  -1.4909504699109697e+13  -4.9195983142690204e+11  -1.3024489837799897e+14  1.8606016061723622e+14  -4.8676326258727219e+13  7.9606325301974268e+12  -7.3300641752603578e+13  7.2900134974465742e+12  8.3256205685832700e+14  -5.6274901287309406e+14  2.1100082914067315e+15  1.1836806316324858e+15  -1.1707473240308698e+15  -5.5868462988064977e+13  -6.6593269710063492e+13  1.1161604666772784e+16  6.5542902852910742e+12  1.7573447184314348e+13  1.3808499337955990e+15  -1.4670475175494155e+15  3.8653775412777706e+14  1.1924693531145586e+13  3.3823746035762012e+12  -3.7968089413723994e+14  -4.2808606615515669e+12  -7.4769042375027906e+13  7.2007524029380094e+13  -1.1963313997433445e+13  6.4041754955264932e+12  9.3559602693338250e+14  7.3317789041800984e+13  -2.5174973647351559e+13  -3.8545239285297515e+15  1.9091528206183531e+13  -3.0876511643789844e+14  9.5052281885993555e+12  1.0082251331798727e+13  4.8531317638405525e+14  -1.0431334136888156e+14  -1.0934007686105717e+14  7.7551353571720986e+12  8.6377643920195581e+11  -7.4573146942156625e+13  3.9402859634497815e+11  3.6442476467205945e+13  -5.6300728539897539e+13  -8.1707117590408750e+13  9.5095745616378203e+13  -2.5943228751144953e+13  -1.6550667313220730e+13  2.3001268217355856e+14  5.9166218664442141e+13  -2.0901506884724368e+15  9.6539367500080469e+12  4.1058284009330240e+15  -4.5123981236848181e+11  2.6384493109159828e+13  -5.0965967847414984e+13  -2.2178253412807104e+12  -1.6636060910473781e+14  1.0058182047844619e+13  -1.5207633436623591e+14  1.8553103689236078e+13  7.1989640195721391e+13  1.7480921366231908e+13  -4.6362926794736719e+13  -4.1827397077309769e+14  4.1716402117944680e+13  -4.4918673123207471e+11  2.5425205495536491e+14  4.1542644084841030e+15  -1.0397598665799449e+13  -5.6984408352762900e+14  -1.2386323343281756e+14  -3.0072078879847194e+14  -1.6757999950083453e+14  2.3445769236559844e+13  1.6730345344315096e+13  3.0034193109429051e+13  8.0678693971171594e+13  -4.1012285119089797e+13  -8.9985750218167141e+13  -1.7689304950067153e+14  4.6452156817232725e+14  -1.0604094479799200e+14  9.9575327465856219e+13  1.7944759724590797e+13  6.6396357168659844e+13  -4.3556038174751106e+14  2.5198104502068240e+15  4.8382391305548672e+13  8.2072368733678112e+14  -3.0251596963417277e+13  2.1613849596650039e+13  -2.8417503766130824e+13  -1.8281248344267802e+15  6.0479780119723875e+14  8.9538762508708700e+14  -7.0782656727755479e+12  2.1178166700