<?xml version="1.0"?>
<VTKFile type="UnstructuredGrid"  version="0.1"  >
<UnstructuredGrid>
<Piece  NumberOfPoints="1419" NumberOfCells="2698">
<Points>
<DataArray  type="Float64"  NumberOfComponents="3"  format="ascii">0 0 0  0 0.41 0  2.5 0 0  2.5 0.41 0  0.5999902073608961 0.1899998605589601 0  0.5999902296313864 0.2099986137318897 0  0.25 0.2 0  0.15 0.2 0  0.2489897948556636 0.21 0  0.2489897948556636 0.19 0  0.5999901703515526 0.1999992371129743 0  0 0.3807142857143437 0  0 0.3514285714286952 0  0 0.3221428571430699 0  0 0.29285714285744 0  0 0.2635714285718054 0  0 0.2342857142861561 0  0 0.2050000000005308 0  0 0.175714285714732 0  0 0.1464285714289574 0  0 0.1171428571431897 0  0 0.08785714285737878 0  0 0.05857142857161107 0  0 0.02928571428580012 0  0.03015443760436003 0 0  0.06140001986583606 0 0  0.09377624077125973 0 0  0.1273239957535082 0 0  0.1620856860351972 0 0  0.1981052433264291 0 0  0.235428184091502 0 0  0.2741016576309132 0 0  0.3141745521465447 0 0  0.3556974926295285 0 0  0.3987229542472677 0 0  0.4433053055141081 0 0  0.4895008759286886 0 0  0.5373680609405097 0 0  0.5869673343216626 0 0  0.6383613676634521 0 0  0.6916151138468254 0 0  0.7467958595648856 0 0  0.8039733463919316 0 0  0.8632198139502143 0 0  0.9246101326867038 0 0  0.9882218810934433 0 0  1.054135445558498 0 0  1.122434100542598 0 0  1.193204177141305 0 0  1.266535089879536 0 0  1.342519516046404 0 0  1.421253448503939 0 0  1.502836389106271 0 0  1.587371439758838 0 0  1.674965418777374 0 0  1.765729001825544 0 0  1.859776908880082 0 0  1.957227977487062 0 0  2.058205329869943 0 0  2.162836591189951 0 0  2.271253957290865 0 0  2.383594446803425 0 0  2.5 0.1024999999997612 0  2.5 0.2049999999994743 0  2.5 0.3074999999997183 0  2.383594446803656 0.41 0  2.271253957291315 0.41 0  2.162836591190598 0.41 0  2.058205329870775 0.41 0  1.957227977488067 0.41 0  1.859776908881246 0.41 0  1.765729001826854 0.41 0  1.674965418778818 0.41 0  1.58737143976041 0.41 0  1.502836389107956 0.41 0  1.421253448505726 0.41 0  1.342519516048286 0.41 0  1.266535089881505 0.41 0  1.193204177143353 0.41 0  1.122434100544716 0.41 0  1.05413544556068 0.41 0  0.9882218810956305 0.41 0  0.9246101326886647 0.41 0  0.8632198139519631 0.41 0  0.8039733463934788 0.41 0  0.7467958595662458 0.41 0  0.6916151138480078 0.41 0  0.6383613676644679 0.41 0  0.5869673343225223 0.41 0  0.5373680609412221 0.41 0  0.4895008759292634 0.41 0  0.4433053055145528 0.41 0  0.3987229542475914 0.41 0  0.3556974926297398 0.41 0  0.3141745521466497 0.41 0  0.2741016576310038 0.41 0  0.2354281840915826 0.41 0  0.1981052433265003 0.41 0  0.1620856860352591 0.41 0  0.1273239957535623 0.41 0  0.09377624077128965 0.41 0  0.06140001986584975 0.41 0  0.03015443760436654 0.41 0  0.2497468076502589 0.2050254481002335 0  0.2497468076502614 0.1949745518997913 0  0.2469965252529372 0.1829317073451959 0  0.2439893735792749 0.1762316384219906 0  0.2400332147834255 0.1700443375285386 0  0.2352133972704371 0.1645032867342007 0  0.2296339016332438 0.1597280261969788 0  0.2234150974217223 0.1558215752574715 0  0.2166911463437691 0.1528682099456123 0  0.2096071079204251 0.1509316448471593 0  0.2023158100364996 0.1500536585536553 0  0.194974551899914 0.1502531923497262 0  0.1877417105387872 0.1515259415822739 0  0.1807733240461124 0.153844448527136 0  0.1742197252835808 0.15715869474974 0  0.1682222986673531 0.1613971801805478 0  0.162910430003803 0.1664684656256651 0  0.1583987151779087 0.1722631454351573 0  0.1547844879126891 0.178656207771761 0  0.1521457199348551 0.1855097315605723 0  0.1505393388476355 0.1926758619366523 0  0.1505393388476328 0.2073241380633295 0  0.1521457199348437 0.2144902684393899 0  0.1547844879126531 0.221343792228163 0  0.1583987151778488 0.2277368545647528 0  0.1629104300036858 0.2335315343742052 0  0.1682222986671726 0.2386028198193036 0  0.1742197252833576 0.2428413052501257 0  0.1807733240458683 0.2461555514727623 0  0.1877417105384929 0.2484740584176516 0  0.1949745518995776 0.2497468076502398 0  0.202315810036185 0.2499463414463592 0  0.2096071079201568 0.2490683551528932 0  0.2166911463435495 0.2471317900544655 0  0.2234150974215506 0.2441784247426195 0  0.2296339016331197 0.2402719738031125 0  0.2352133972703547 0.2354967132658811 0  0.2400332147833751 0.2299556624715287 0  0.2439893735792577 0.2237683615780412 0  0.246996525252926 0.2170682926548348 0  0.2564580671149553 0.2099989327888068 0  0.2639262009348864 0.2099988876196741 0  0.2713944389692072 0.2099988861330775 0  0.2788626902410296 0.2099988800325047 0  0.2863309393575532 0.2099988646491464 0  0.2937991807327313 0.2099988465198468 0  0.3012674135411777 0.2099988267317394 0  0.3087356398877596 0.2099988055405859 0  0.3162038575267431 0.2099987840195513 0  0.3236720674728249 0.2099987610426957 0  0.3311402694730754 0.2099987398019656 0  0.3386084634422933 0.2099987173911208 0  0.3460766496815404 0.2099986968807824 0  0.3535448269819613 0.2099986769562557 0  0.3610129973389902 0.2099986586727272 0  0.3684811588855049 0.2099986418495912 0  0.3759493128702546 0.209998625501471 0  0.3834174585071979 0.2099986124585866 0  0.3908855964909374 0.2099985993669534 0  0.3983537262859463 0.2099985897004108 0  0.4058218483226821 0.2099985802437324 0  0.4132899623719091 0.2099985734705125 0  0.4207580679090619 0.2099985678330778 0  0.4282261664046398 0.2099985642568752 0  0.4356942565230473 0.2099985619720832 0  0.4431623388210388 0.2099985604369029 0  0.4506304130847402 0.2099985611089111 0  0.4580984795826907 0.2099985618309254 0  0.4655665379911319 0.2099985646080354 0  0.4730345885987767 0.2099985670971008 0  0.4805026311510303 0.2099985714263828 0  0.4879706657797398 0.2099985751846027 0  0.4954386924177154 0.2099985804937334 0  0.502906711032184 0.2099985850695559 0  0.5103747215287538 0.2099985909107023 0  0.5178427239882385 0.2099985957541576 0  0.5253107183099303 0.2099986017447472 0  0.532778704461472 0.2099986065425705 0  0.5402466823684406 0.2099986124026705 0  0.5477146519891465 0.2099986169739237 0  0.5551826132869239 0.2099986221216099 0  0.5626505655654332 0.2099986271064515 0  0.5701185102608767 0.2099986317270994 0  0.5775864457034008 0.2099986368766496 0  0.5850543730537541 0.2099986420154595 0  0.5925223000538046 0.2099986501109816 0  0.5999901820080455 0.2049989212017132 0  0.5999901715118807 0.1949995527165781 0  0.5925222780190877 0.1899998403640393 0  0.5850543514200939 0.1899998643490224 0  0.5775864248524104 0.1899998853062389 0  0.570118490121799 0.1899999060190787 0  0.5626505461553291 0.1899999254316851 0  0.5551825946080855 0.189999944562622 0  0.5477146338086574 0.18999996352302 0  0.5402466647806261 0.1899999808620818 0  0.5327786873472685 0.1899999997584007 0  0.5253107015064168 0.1900000164890782 0  0.5178427072929295 0.1900000350468807 0  0.5103747047153324 0.1900000515728527 0  0.5029066937682202 0.1900000700969613 0  0.4954386745287591 0.1900000868179758 0  0.4879706468827145 0.1900001057563208 0  0.4805026110175735 0.1900001231450522 0  0.4730345667004552 0.1900001430109402 0  0.4655665142236359 0.1900001615920447 0  0.4580984532761348 0.1900001828955418 0  0.4506303842660243 0.1900002032047035 0  0.4431623067740625 0.1900002264724183 0  0.4356942212660343 0.1900002491395678 0  0.4282261276098925 0.190000274407603 0  0.4207580250726304 0.1900003006778329 0  0.4132899154958604 0.1900003285494826 0  0.4058217971159322 0.1900003579986976 0  0.3983536709530892 0.1900003884423321 0  0.3908855365842165 0.1900004215924027 0  0.3834173945192763 0.1900004553525635 0  0.375949244366339 0.1900004917768432 0  0.3684810866877007 0.1900005287324637 0  0.3610129211889548 0.1900005678097046 0  0.3535447477318429 0.190000608051771 0  0.3460765676783553 0.1900006493692134 0  0.3386083796882674 0.1900006916261973 0  0.3311401846416588 0.1900007337789422 0  0.323671982515699 0.1900007771261617 0  0.3162037735578958 0.1900008192654209 0  0.3087355579487653 0.1900008613585098 0  0.3012673357203889 0.1900009021519027 0  0.2937991078420533 0.1900009407273539 0  0.2863308738371042 0.190000976848415 0  0.2788626330412251 0.1900010099036396 0  0.2713943934585791 0.1900010455283895 0  0.2639261683073663 0.1900010769169993 0  0.2564580468670239 0.1900010496071901 0  0.2607800337979673 0.2000726961918407 0  0.5887711416140148 0.2001264805186267 0  0.5744987290311775 0.2002036951185332 0  0.5511817383874054 0.2001115408049442 0  0.2751285327875954 0.1999999586450204 0  0.5365126801463571 0.1999993000300485 0  0.2894616917622868 0.1998690937312823 0  0.521576708229503 0.1999993122892618 0  0.3127783167987889 0.1998656191692543 0  0.3274061219308268 0.1999997529149746 0  0.5066407032456001 0.1999993243001331 0  0.3650616252895917 0.1998656276811407 0  0.4767685948893082 0.1999993507096829 0  0.3417391845145942 0.1998688722880846 0  0.3796833482175002 0.1999995451094429 0  0.4618324918120054 0.1999993670724202 0  0.4917046654115468 0.1999993367961281 0  0.394619628171571 0.1999994985019763 0  0.4468963562934399 0.1999993869504396 0  0.4089525559061498 0.199868640537525 0  0.4322687976494184 0.2001268512699181 0  0.42014602715348 0.1999960549238585 0  0.3528910378427338 0.2000182131180525 0  0.5633042732242617 0.1999807066307986 0  0.3006553460784968 0.1999964881650473 0  0.5815837819879398 0.196653991243846 0  0.267705095402646 0.1964250235661843 0  0.5290446960004531 0.1970910930699617 0  0.5439806511568029 0.1970910736648709 0  0.2825127643429349 0.2035474585398357 0  0.3199379285284162 0.2029079083661716 0  0.4842366314941068 0.1970911503377727 0  0.5141087075346312 0.1970911118291858 0  0.3722152067222873 0.202907715337744 0  0.469300544195997 0.1970911719404412 0  0.3348743324387219 0.2029078491832243 0  0.3871515013105345 0.2029076718931729 0  0.4543644241982241 0.1970911965074218 0  0.4991726859807013 0.1970911306330609 0  0.4020037388504207 0.2035470605428748 0  0.43942827161484 0.1970912251549422 0  0.2550654778354224 0.2034085137663479 0  0.2548905815987073 0.1966943126511359 0  0.594644406450929
[...]
<PointData  Scalars="f_46-2"> 
<DataArray  type="Float64"  Name="f_46-2"  format="ascii">3.7791175129413892e+02  3.7754167150050586e+02  5.8811356138486637e-01  6.5034568001966298e-01  2.8080611960458936e+02  2.8115653036889086e+02  0.0000000000000000e+00  3.7153068062487148e+02  3.3601958048192336e+02  3.3599836229117619e+02  2.7901282304971176e+02  3.7876455427512047e+02  3.8138826894498726e+02  3.8433860039246099e+02  3.8707478815686500e+02  3.8944031862228377e+02  3.9104860751026871e+02  3.9149965414046920e+02  3.9108189567207444e+02  3.8958589716138914e+02  3.8734281251804998e+02  3.8457997880615108e+02  3.8156065283907367e+02  3.7891796534666253e+02  3.7677506587979195e+02  3.7347500669754010e+02  3.6925114037889699e+02  3.6402574248425714e+02  3.5816233810807034e+02  3.5189119172188873e+02  3.4501662904354754e+02  3.3796862067126096e+02  3.3099103775333549e+02  3.2400080401180782e+02  3.1675554200581473e+02  3.0956719968870181e+02  3.0194486437513564e+02  2.9444031112402331e+02  2.8642084023447444e+02  2.7838055806896011e+02  2.7056563487943055e+02  2.6219710098934382e+02  2.5347615379741458e+02  2.4470513468277022e+02  2.3580426959732017e+02  2.2604039054598479e+02  2.1661562450456017e+02  2.0622208064397648e+02  1.9541596284831195e+02  1.8499015134702208e+02  1.7350072700348196e+02  1.6165052968316169e+02  1.4937454492831006e+02  1.3702989897428321e+02  1.2365213549244420e+02  1.1015135419174496e+02  9.6064426893601848e+01  8.1569725924382112e+01  6.6390025723903022e+01  5.0875684131111370e+01  3.4895419776293252e+01  1.7392402420037786e+01  -6.5241270563677428e-02  2.3682762401822672e-02  -7.9932540366799712e-02  1.7184651608885542e+01  3.4414554238663271e+01  5.1190746107079782e+01  6.6511478511333237e+01  8.1595928806946020e+01  9.6045392308280341e+01  1.1010602795756967e+02  1.2347497840161004e+02  1.3727798177114050e+02  1.4940231468702501e+02  1.6165392163163480e+02  1.7354085043250350e+02  1.8501275344551223e+02  1.9542800606821439e+02  2.0618517442442899e+02  2.1661441672182025e+02  2.2599327380639392e+02  2.3571137133427345e+02  2.4491611945042774e+02  2.5354284028969974e+02  2.6218513259582500e+02  2.7046572721965850e+02  2.7858307098370955e+02  2.8664174421134538e+02  2.9444480219654122e+02  3.0207431086534945e+02  3.0963831120066715e+02  3.1693039289033669e+02  3.2395666959165101e+02  3.3111607992515542e+02  3.3811430393846399e+02  3.4499408466969743e+02  3.5173757928731737e+02  3.5796998892696803e+02  3.6386443954076543e+02  3.6894350479542584e+02  3.7321002610109434e+02  3.7658780255816004e+02  0.0000000000000000e+00  0.0000000000000000e+00  3.3595761071503654e+02  3.3646233610177649e+02  3.3761217492684329e+02  3.3915423896689941e+02  3.4104919034734831e+02  3.4322458594478314e+02  3.4565868876486644e+02  3.4824310121013821e+02  3.5096122860521700e+02  3.5369835303527549e+02  3.5647359754781723e+02  3.5913526616036296e+02  3.6171329484858779e+02  3.6404739831703841e+02  3.6619651419720020e+02  3.6800247799325484e+02  3.6951391427471424e+02  3.7060702840523260e+02  3.7129141264436424e+02  3.7124538734063492e+02  3.7075750617720257e+02  3.6953394650014570e+02  3.6802389159974109e+02  3.6622240137497198e+02  3.6408527142237244e+02  3.6170660989097843e+02  3.5916454051925501e+02  3.5649422047126671e+02  3.5373614193226285e+02  3.5095748838485071e+02  3.4822860858214091e+02  3.4567293823168529e+02  3.4322359120962739e+02  3.4107255992124908e+02  3.3916597449323058e+02  3.3764413862143567e+02  3.3647940169183676e+02  3.3597951417362572e+02  3.3625602023687009e+02  3.3579298933173095e+02  3.3513804190967193e+02  3.3431810648297767e+02  3.3342065394962185e+02  3.3245235238632910e+02  3.3142987472284881e+02  3.3038766717018871e+02  3.2930161777632856e+02  3.2821156798056012e+02  3.2708700307056159e+02  3.2596151080206585e+02  3.2480350625018326e+02  3.2365726286683429e+02  3.2248691507424326e+02  3.2132532809828388e+02  3.2013862581047852e+02  3.1896015751167573e+02  3.1777154991697267e+02  3.1658479720992517e+02  3.1538804529666936e+02  3.1418267650908570e+02  3.1299424197886532e+02  3.1177752574042694e+02  3.1058840338142642e+02  3.0936128041042002e+02  3.0816571614605596e+02  3.0694861859554806e+02  3.0573005546355967e+02  3.0452628143993570e+02  3.0329170480745751e+02  3.0208332718049479e+02  3.0086606920271709e+02  2.9962166459282219e+02  2.9839782659453846e+02  2.9717047151051520e+02  2.9593323611282591e+02  2.9469923109935092e+02  2.9343702818661990e+02  2.9219134948126265e+02  2.9092725911401516e+02  2.8964582168538163e+02  2.8836029609025786e+02  2.8705754081746852e+02  2.8563379568865810e+02  2.8472801369962338e+02  2.7802019396735187e+02  2.7803517424539064e+02  2.8475798084784662e+02  2.8562346826891599e+02  2.8705881389347599e+02  2.8836025382224796e+02  2.8964894489517962e+02  2.9092122460743059e+02  2.9219608443120734e+02  2.9343793080523710e+02  2.9469290045136694e+02  2.9592549798911466e+02  2.9717618093704243e+02  2.9839877822537039e+02  2.9963353433341109e+02  3.0085004443491101e+02  3.0207883565019301e+02  3.0328909962870119e+02  3.0452083994961572e+02  3.0572862072932111e+02  3.0694742199194752e+02  3.0814915686275157e+02  3.0936455115080611e+02  3.1056343624975369e+02  3.1178217102584966e+02  3.1297524802059661e+02  3.1418140059050421e+02  3.1536986536622686e+02  3.1657003771441850e+02  3.1775104415231567e+02  3.1895098810037302e+02  3.2012505915501356e+02  3.2130782907850551e+02  3.2246859348845499e+02  3.2363781288049887e+02  3.2478500352882247e+02  3.2594206036729236e+02  3.2706514329832754e+02  3.2819035546223375e+02  3.2927997759568512e+02  3.3036571955530496e+02  3.3140803748652087e+02  3.3243013775774301e+02  3.3339797820721486e+02  3.3429539106703140e+02  3.3511681926566052e+02  3.3577187388748501e+02  3.3623434164104532e+02  0.0000000000000000e+00  0.0000000000000000e+00  0.0000000000000000e+00  0.0000000000000000e+00  0.0000000000000000e+00  0.0000000000000000e+00  0.0000000000000000e+00  0.0000000000000000e+00  0.0000000000000000e+00  0.0000000000000000e+00  0.0000000000000000e+00  0.0000000000000000e+00  0.0000000000000000e+00  0.0000000000000000e+00  0.0000000000000000e+00  0.0000000000000000e+00  0.0000000000000000e+00  0.0000000000000000e+00  0.0000000000000000e+00  0.0000000000000000e+00  0.0000000000000000e+00  0.0000000000000000e+00  0.0000000000000000e+00  0.0000000000000000e+00  0.0000000000000000e+00  0.0000000000000000e+00  0.0000000000000000e+00  0.0000000000000000e+00  0.0000000000000000e+00  0.0000000000000000e+00  0.0000000000000000e+00  0.0000000000000000e+00  0.0000000000000000e+00  0.0000000000000000e+00  0.0000000000000000e+00  0.0000000000000000e+00  0.0000000000000000e+00  0.0000000000000000e+00  0.0000000000000000e+00  0.0000000000000000e+00  0.0000000000000000e+00  0.0000000000000000e+00  0.0000000000000000e+00  0.0000000000000000e+00  0.0000000000000000e+00  0.0000000000000000e+00  0.0000000000000000e+00  0.0000000000000000e+00  0.0000000000000000e+00  0.0000000000000000e+00  0.0000000000000000e+00  0.0000000000000000e+00  0.0000000000000000e+00  0.0000000000000000e+00  0.0000000000000000e+00  0.0000000000000000e+00  0.0000000000000000e+00  0.0000000000000000e+00  0.0000000000000000e+00  0.0000000000000000e+00  0.0000000000000000e+00  0.0000000000000000e+00  0.0000000000000000e+00  0.0000000000000000e+00  0.0000000000000000e+00  0.0000000000000000e+00  0.0000000000000000e+00  0.0000000000000000e+00  0.0000000000000000e+00  0.0000000000000000e+00  0.0000000000000000e+00  0.0000000000000000e+00  0.0000000000000000e+00  0.0000000000000000e+00  0.0000000000000000e+00  0.0000000000000000e+00  0.0000000000000000e+00  0.0000000000000000e+00  0.0000000000000000e+00  0.0000000000000000e+00  0.0000000000000000e+00  0.0000000000000000e+00  0.0000000000000000e+00  0.0000000000000000e+00  0.0000000000000000e+00  0.0000000000000000e+00  0.0000000000000000e+00  0.0000000000000000e+00  0.0000000000000000e+00  0.0000000000000000e+00  0.0000000000000000e+00  0.0000000000000000e+00  0.0000000000000000e+00  0.0000000000000000e+00  0.0000000000000000e+00  0.0000000000000000e+00  0.0000000000000000e+00  0.0000000000000000e+00  0.0000000000000000e+00  0.0000000000000000e+00  0.0000000000000000e+00  0.0000000000000000e+00  0.0000000000000000e+00  0.0000000000000000e+00  0.0000000000000000e+00  0.0000000000000000e+00  0.0000000000000000e+00  0.0000000000000000e+00  0.0000000000000000e+00  0.0000000000000000e+00  0.0000000000000000e+00  0.0000000000000000e+00  0.0000000000000000e+00  0.0000000000000000e+00  0.0000000000000000e+00  0.0000000000000000e+00  0.0000000000000000e+00  0.0000000000000000e+00  0.0000000000000000e+00  0.0000000000000000e+00  0.0000000000000000e+00  0.0000000000000000e+00  0.0000000000000000e+00  3.3316677078104630e+02  3.3265595526424369e+02  2.5415413549280584e+02  3.1752803845099498e+02  3.0183909005074992e+02  3.1853509370198395e+02  2.8583290711644651e+02  3.0398896099651665e+02  3.7062891884136258e+02  2.8900195453264649e+02  3.7220942461483060e+02  3.5947389043237649e+02  3.4593173057305899e+02  3.5837260552058302e+02  3.7452649511945651e+02  3.4544485695310345e+02  3.3528819895967030e+02  3.3547439872152211e+02  3.7512135881787066e+02  3.2905708275366538e+02  3.2902942726310704e+02  3.2183170573428634e+02  2.6836486811051930e+02  3.2182367158091671e+02  3.1488618107839716e+02  3.0666305461795150e+02  3.1482093951643100e+02  3.0741025173566356e+02  2.9980818867374916e+02  2.9396407044810576e+02  2.9274716687716625e+02  3.6672431868751875e+02  2.8595385711456152e+02  3.6671365127514446e+02  2.8671804943078030e+02  2.7425821883564277e+02  3.4133223661251691e+02  3.4097458319608063e+02  2.7543320079675613e+02  2.7747658124075821e+02  2.9976847355977861e+02  3.7301867222718693e+02  3.5169813491709601e+02  3.5537007173776226e+02  2.2314483451236802e+02  3.6085084853379982e+02  3.6961561835123246e+02  3.6958481223942022e+02  1.9235806293313382e+02  3.1012031979118206e+02  3.3195714308556654e+02  2.7792513419925626e+02  3.3193329207720865e+02  3.2550368429297703e+02  3.1838363848820643e+02  3.6096248113376731e+02  3.4953598740855557e+02  3.2547500060378786e+02  2.9177903143494007e+02  3.1836024969449693e+02  3.4682940537237903e+02  2.6628132925568394e+02  3.1117346270679928e+02  3.6527142481021957e+02  1.6191390933750310e+02  3.0390522350189093e+02  2.9655668158437845e+02  3.2577850953577223e+02  2.8901012777150481e+02  3.0360684951064536e+02  2.9666884436259051e+02  2.8383806085097478e+02  3.7130713130178765e+02  2.8028245605776362e+02  1.3065270682458811e+02  2.7839391499120279e+02  3.2600575582168079e+02  3.6531886551406376e+02  2.8771289412497595e+02  3.7995652736364116e+02  3.8118014443953672e+02  3.6836836292428478e+02  3.3610422207617165e+02  3.3801301153399152e+02  3.3607631728834815e+02  3.3815028440511071e+02  3.1148280768283263e+02  2.8375728827777306e+02  3.2878672048547946e+02  3.1365506370177496e+02  3.8025006497019734e+02  3.2876137221589244e+02  3.6407103365214158e+02  9.9792410361181069e+01  3.2191919019499187e+02  2.5983454772583303e+02  2.7902249943949005e+02  2.9602636533419127e+02  3.7632801771438056e+02  3.2189286034594630e+02  3.1477507557408342e+02  3.7532094764508520e+02  3.3782951395460776e+02  3.5221137816565715e+02  3.7114359478559322e+02  3.0754597827756857e+02  3.5517893306577275e+02  3.0023976761514120e+02  3.2930551250128713e+02  3.0966439306256399e+02  2.3802109435361302e+02  2.3806429659336320e+02  2.9282133156653083e+02  7.3285199789054133e+01  3.7182629136896855e+02  3.0765745831374920e+02  3.5524081405284659e+02  2.9422103990992645e+02  3.3419892874961585e+02  3.4438869110692031e+02  2.8024170923694879e+02  2.7555748603991117e+02  3.3419202797522962e+02  3.6647377836953154e+02  3.0022306662346483e+02  3.2922733405346554e+02  3.3801304085831316e+02  2.8134501366786657e+02  4.1923341387160818e+01  3.7145081603213293e+02  3.4179385481864665e+02  2.9406620414035712e+02  2.0781692756991580e+02  2.0763756140771258e+02  3.1608691859615919e+02  3.1118432758262713e+02  3.1102518001941667e+02  3.5220490230798129e+02  3.3916781983357225e+02  2.8650354118830353e+02  3.3269423232557750e+02  3.1421680456896627e+02  3.6539898267150107e+02  3.6228726645197116e+02  2.9030908711718877e+02  2.5190419739878962e+02  3.3270743030874286e+02  3.1350964766544519e+02  3.6882730901609733e+02  3.3619364748240275e+02  2.7937629280432753e+02  3.0510285378010201e+02  3.3624349726753383e+02  3.6043996580144182e+02  3.7654620660501524e+02  2.9898586381479925e+02  1.7725082448483698e+02  1.7776494409287707e+02  3.1849148134364009e+02  3.2661422014846494e+02  3.2423251667668433e+02  3.6866063934413518e+02  3.2557507596575414e+02  3.2414482210383181e+02  3.2659181948647267e+02  3.1944519683889149e+02  3.3087313503139785e+02  3.1960008362483433e+02  3.1715983271495827e+02  2.2408701441084307e+02  2.2361723960779261e+02  3.4934099297923456e+02  3.8022915191457815e+02  3.3085005321877907e+02  3.2559766083597225e+02  3.0989417538546996e+02  3.1237332613723157e+02  3.2127828475464497e+02  3.0518769822665041e+02  3.0268196660769883e+02  3.7217558832660069e+02  2.6526481030957865e+02  2.9523586462399146e+02  2.9778096219381348e+02  3.7146507471291488e+02  3.4650203875548146e+02  3.1824762371244782e+02  2.9016854760784946e+02  2.6977991685665364e+02  2.6059022562513070e+02  3.5556387641950590e+02  1.4632481186695355e+02  1.4707818416260406e+02  3.7616451023819309e+02  3.5189726748321169e+02  3.4526822174643672e+02  3.0262910067617082e+02  3.0521655806223077e+02  3.7080383234737894e+02  3.1126967288169510e+02  2.9763686565771064e+02  3.7805029969199381e+02  3.4113374048537588e+02  2.9906200759648652e+02  3.2176064952091514e+02  2.8348026952885988e+02  2.8066895473321262e+02  3.6045389764232044e+02  3.5701718454412816e+02  3.0376162832695485e+02  2.8917364230621234e+02  3.4548509544035284e+02  3.7978286103192164e+02  3.4025559499493602e+02  3.7024911090111669e+02  2.9683212065638230e+02  2.8809435023626384e+02  2.8542464169663270e+02  2.8105211505012153e+02  3.3055950564021009e+02  3.6337050454097681e+02  3.3306905092038193e+02  3.7273308790851428e+02  3.3814412305763005e+02  1.9294915994001980e+02  1.9275146987465078e+02  3.3305018523363196e+02  3.4964499066495836e+02  3.6229705911181657e+02  2.8877756868310934e+02  1.1523413077640056e+02  1.1572114872076664e+02  2.8336301249099495e+02  3.3029527088697279e+02  3.3714110158477285e+02  3.7625483573991818e+02  2.7068966724257496e+02  3.3714651192635040e+02  3.0707487912345539e+02  2.4875222122092811e+02  3.3835496527499453e+02  3.4468884425157978e+02  3.7272358210086139e+02  2.7359159351804345e+02  3.5787612404757817e+02  3.5040531224827549e+02  2.8659492496909093e+02  2.7266699222623640e+02  3.1453910554119233e+02  2.6903552757474301e+02  3.6959720120477652e+02  3.2093437099237491e+02  3.4023088006190306e+02  3.4433564792438324e+02  3.1561587431666391e+02  3.6500254501316124e+02  2.9900418648163532e+02  3.7053761604776292e+02  2.4167207719337608e+02  3.0259441488962926e+02  3.0545107643003826e+02  2.9742349102944252e+02  3.7618798887030437e+02  3.2277564694505389e+02  3.7080366389409420e+02  2.7926294483205163e+02  2.9399369410417683e+02  8.3658097921555594e+01  8.3654271185506545e+01  3.2875100217635782e+02  3.1359597621076307e+02  1.6235910373228913e+02  1.6210938826184199e+02  3.6995324733717871e+02  3.2872793517801705e+02  3.0644387786535003e+02  1.9022590539893397e+01  3.0093031875018340e+02  3.3507295061077537e+02  3.2190462892670911e+02  3.7474103152118283e+02  3.0634000677098015e+02  3.3506878135833017e+02  3.6858648172449347e+02  3.2188426899556589e+02  3.5797708015396461e+02  3.0874406546035573e+02  3.7312999415081634e+02  3.7772833817062377e+02  3.1477239849799105e+02  3.6792939398425608e+02  3.6505343010228387e+02  3.3632193039197210e+02  3.0754689490246619e+02  3.1776023781214775e+02  3.0023745409641606e+02  3.8594902039784222e+02  2.9040946751264141e+02  2.9439442811278684e+02  3.1914801236669837e+02  3.4119894723432748e+02  1.3079232813014886e+02  1.3239010934905454e+02  2.9280975242078307e+02  3.7029360741704591e+02  3.3572513648348752e+02  2.8481189797598040e+02  3.6444304063396538e+02  2.7969940420465980e+02  3.7915618377934641e+02  2.7505279907166943e+02  2.9573856266044874e+02  3.2241231316192398e+02  2.9231466279652102e+02  3.6718824951930554e+02  2.9265871745449283e+02  3.3553327600827106e+02  3.6930924882134815e+02  5.3118051903740799e+01  5.3555239197421685e+01  3.1242477048822929e+02  3.5218758806355430e+02  3.6399073967215776e+02  2.8835074474827678e+02  2.6700997590071285e+02  3.8456461873925520e+02  2.5867905355519400e+02  3.5791873728130651e+02  3.1600862347118436e+02  3.7657447942107268e+02  3.3028232794906165e+02  2.3110948368575880e+01  3.2927396748637199e+02  2.1181443481540461e+02  3.7484118820983593e+02  2.5149117255948732e+02  2.6121221724860561e+02  3.4864264965288203e+02  3.2882038234222892e+02  3.5932881699518094e+02  3.3376922838566747e+02  3.3612794457050694e+02  3.5496891785553447e+02  3.3025742066842548e+02  3.3610802370415405e+02  3.5931466382741178e+02  3.4699982554314482e+02  3.5220042882410394e+02  2.4286467522481712e+02  2.8856831322334722e+02  3.6209849531103652e+02  2.8093411081714873e+02  3.8078770124343447e+02  3.5728283086615454e+02  3.3366052161352400e+02  2.7514622879174675e+02  3.0433143054635093e+02  3.3666926802060249e+02  3.3861607874158369e+02  2.8531384260019865e+02  3.2737026353144557e+02  3.0023464626317434e+02  3.3840758774416065e+02  3.6557916899122779e+02  3.8343547418558683e+02  3.8302158021752228e+02  3.6697891724274223e+02  3.6279654181607725e+02  3.7433419745797431e+02  3.3179195345190010e+02  3.4221425973120563e+02  3.7035371833705716e+02  3.2539206811557415e+02  2.9550064399374355e+02  3.6987439229074414e+02  3.7767384053315885e+02  3.7691696535924393e+02  2.8904264013182006e+02  3.2536360676718482e+02  2.3247837636180344e+02  3.2734227340887975e+02  2.3165700984672685e+02  2.4661619926364762e+02  3.4693213955436460e+02  3.1835379360484245e+02  3.7090613491311927e+02  9.9288079911933821e+01  1.0007011088552355e+02  3.7138762954814246e+02  2.8386761909366589e+02  3.2366766061454729e+02  3.1116372256716221e+02  3.1452548264157258e+02  3.6698159622263842e+02  3.6276980618308625e+02  3.2044108156957958e+02  3.0390803676107936e+02  2.9653974520261130e+02  2.8618185660970624e+02  3.2232510358002503e+02  3.3336545125944406e+02  3.2043726933519730e+02  3.5814312172079377e+02  3.5592435223931165e+02  2.8136644864296835e+02  3.2604191964182684e+02  3.4841777909885394e+02  2.7755467808722761e+02  3.8042834434001327e+02  3.3332416266695509e+02  3.6769835652372552e+02  3.2363937381599277e+02  3.1362601258696509e+02  3.0621648468273293e+02  3.0391042883493077e+02  1.8010665519859791e+02  2.7947608708724152e+02  3.3969606449507501e+02  3.2048361626574820e+02  3.4022375643919446e+02  3.4977533691921553e+02  2.3310470431963611e+02  3.3414811128094163e+02  2.1418096474174138e+02  3.4150809687422844e+02  3.5533887564754451e+02  3.8531534550743891e+02  3.1624195245390655e+02  3.6750536521329576e+02  3.3413388654753783e+02  2.1395380868390475e+02  3.3551111657141092e+02  2.6755503024335104e+02  2.7534990785899186e+02  2.7769293564341234e+02  3.4166723511377273e+02  3.7753600213652066e+02  3.1310506430624929e+02  3.5508020552671474e+02  3.6613764231715544e+02  3.5210932826860898e+02  3.6352199034181780e+02  2.8373961789281196e+02  3.4223800988048157e+02  3.6287906082480015e+02  3.6299156163046223e+02  3.4453122347054438e+02  3.7386798629995565e+02  3.0847538569257364e+02  3.7439060600723542e+02  3.3194248609848086e+02  3.6644338010722129e+02  3.7006150049327778e+02  3.7120238657870124e+02  3.5822194644716922e+02  2.5913607614204176e+02  3.3191810034663945e+02  3.2812120504938258e+02  3.0896457754794000e+02  3.0555876386099101e+02  3.6969923214829026e+02  3.0039846359907102e+02  3.0607632632643589e+02  3.3937779627313358e+02  3.3320606228515334e+02  3.3362828039640436e+02  3.0178143531825037e+02  3.4742089771665644e+02  3.4368051716483131e+02  3.34710021660