<?xml version="1.0"?>
<VTKFile type="UnstructuredGrid"  version="0.1"  >
<UnstructuredGrid>
<Piece  NumberOfPoints="1419" NumberOfCells="2698">
<Points>
<DataArray  type="Float64"  NumberOfComponents="3"  format="ascii">0 0 0  0 0.41 0  2.5 0 0  2.5 0.41 0  0.5999795671377697 0.1905189285309585 0  0.5999846683211434 0.2103701923090868 0  0.25 0.2 0  0.15 0.2 0  0.2489897948556636 0.21 0  0.2489897948556636 0.19 0  0.6000198536826826 0.1995034047003882 0  0 0.3807142857143437 0  0 0.3514285714286952 0  0 0.3221428571430699 0  0 0.29285714285744 0  0 0.2635714285718054 0  0 0.2342857142861561 0  0 0.2050000000005308 0  0 0.175714285714732 0  0 0.1464285714289574 0  0 0.1171428571431897 0  0 0.08785714285737878 0  0 0.05857142857161107 0  0 0.02928571428580012 0  0.03015443760436003 0 0  0.06140001986583606 0 0  0.09377624077125973 0 0  0.1273239957535082 0 0  0.1620856860351972 0 0  0.1981052433264291 0 0  0.235428184091502 0 0  0.2741016576309132 0 0  0.3141745521465447 0 0  0.3556974926295285 0 0  0.3987229542472677 0 0  0.4433053055141081 0 0  0.4895008759286886 0 0  0.5373680609405097 0 0  0.5869673343216626 0 0  0.6383613676634521 0 0  0.6916151138468254 0 0  0.7467958595648856 0 0  0.8039733463919316 0 0  0.8632198139502143 0 0  0.9246101326867038 0 0  0.9882218810934433 0 0  1.054135445558498 0 0  1.122434100542598 0 0  1.193204177141305 0 0  1.266535089879536 0 0  1.342519516046404 0 0  1.421253448503939 0 0  1.502836389106271 0 0  1.587371439758838 0 0  1.674965418777374 0 0  1.765729001825544 0 0  1.859776908880082 0 0  1.957227977487062 0 0  2.058205329869943 0 0  2.162836591189951 0 0  2.271253957290865 0 0  2.383594446803425 0 0  2.5 0.1024999999997612 0  2.5 0.2049999999994743 0  2.5 0.3074999999997183 0  2.383594446803656 0.41 0  2.271253957291315 0.41 0  2.162836591190598 0.41 0  2.058205329870775 0.41 0  1.957227977488067 0.41 0  1.859776908881246 0.41 0  1.765729001826854 0.41 0  1.674965418778818 0.41 0  1.58737143976041 0.41 0  1.502836389107956 0.41 0  1.421253448505726 0.41 0  1.342519516048286 0.41 0  1.266535089881505 0.41 0  1.193204177143353 0.41 0  1.122434100544716 0.41 0  1.05413544556068 0.41 0  0.9882218810956305 0.41 0  0.9246101326886647 0.41 0  0.8632198139519631 0.41 0  0.8039733463934788 0.41 0  0.7467958595662458 0.41 0  0.6916151138480078 0.41 0  0.6383613676644679 0.41 0  0.5869673343225223 0.41 0  0.5373680609412221 0.41 0  0.4895008759292634 0.41 0  0.4433053055145528 0.41 0  0.3987229542475914 0.41 0  0.3556974926297398 0.41 0  0.3141745521466497 0.41 0  0.2741016576310038 0.41 0  0.2354281840915826 0.41 0  0.1981052433265003 0.41 0  0.1620856860352591 0.41 0  0.1273239957535623 0.41 0  0.09377624077128965 0.41 0  0.06140001986584975 0.41 0  0.03015443760436654 0.41 0  0.2497468076502589 0.2050254481002335 0  0.2497468076502614 0.1949745518997913 0  0.2469965252529372 0.1829317073451959 0  0.2439893735792749 0.1762316384219906 0  0.2400332147834255 0.1700443375285386 0  0.2352133972704371 0.1645032867342007 0  0.2296339016332438 0.1597280261969788 0  0.2234150974217223 0.1558215752574715 0  0.2166911463437691 0.1528682099456123 0  0.2096071079204251 0.1509316448471593 0  0.2023158100364996 0.1500536585536553 0  0.194974551899914 0.1502531923497262 0  0.1877417105387872 0.1515259415822739 0  0.1807733240461124 0.153844448527136 0  0.1742197252835808 0.15715869474974 0  0.1682222986673531 0.1613971801805478 0  0.162910430003803 0.1664684656256651 0  0.1583987151779087 0.1722631454351573 0  0.1547844879126891 0.178656207771761 0  0.1521457199348551 0.1855097315605723 0  0.1505393388476355 0.1926758619366523 0  0.1505393388476328 0.2073241380633295 0  0.1521457199348437 0.2144902684393899 0  0.1547844879126531 0.221343792228163 0  0.1583987151778488 0.2277368545647528 0  0.1629104300036858 0.2335315343742052 0  0.1682222986671726 0.2386028198193036 0  0.1742197252833576 0.2428413052501257 0  0.1807733240458683 0.2461555514727623 0  0.1877417105384929 0.2484740584176516 0  0.1949745518995776 0.2497468076502398 0  0.202315810036185 0.2499463414463592 0  0.2096071079201568 0.2490683551528932 0  0.2166911463435495 0.2471317900544655 0  0.2234150974215506 0.2441784247426195 0  0.2296339016331197 0.2402719738031125 0  0.2352133972703547 0.2354967132658811 0  0.2400332147833751 0.2299556624715287 0  0.2439893735792577 0.2237683615780412 0  0.246996525252926 0.2170682926548348 0  0.2564720160569114 0.2096190900689177 0  0.2638969205714401 0.2108054183192302 0  0.2714296253862695 0.2090474953362925 0  0.2788122849113758 0.2113809305285266 0  0.2864047599955467 0.2080037928411574 0  0.2936801994147586 0.2132413994393803 0  0.3013820490080438 0.2069058180835598 0  0.3084199750418715 0.2185436250006208 0  0.3166664871532341 0.1975465391380855 0  0.3230735898044503 0.2261173238690349 0  0.3319357866056952 0.1886682496889063 0  0.3377215454946377 0.2337904424137659 0  0.34683955035242 0.1896133601418129 0  0.3532701280546048 0.2173755282312633 0  0.3612878266248276 0.2026594678385381 0  0.3682810204765489 0.2154545915492583 0  0.3761035258154655 0.2058281014158838 0  0.3833355870431527 0.2123722030848225 0  0.3909383202334795 0.2084477975406893 0  0.3983471444550548 0.2105304124177741 0  0.4058019368506678 0.2102310360562932 0  0.4133465061070489 0.2089050274565736 0  0.4207022230102134 0.2113503678734299 0  0.4283514892874897 0.2071342521168653 0  0.4355453085269879 0.2135811214630112 0  0.4432889566228683 0.2070835775220571 0  0.4506121175388014 0.2105419666756875 0  0.4580411712942646 0.2114005850543803 0  0.4656923457569896 0.207163297772291 0  0.4728910361521153 0.2134567099545994 0  0.4806213669762242 0.2073161449778989 0  0.4879381424734712 0.2108886341787649 0  0.495384265156319 0.2113633529800912 0  0.5030162192293139 0.2075842964416637 0  0.5103021293627099 0.2118267484535059 0  0.5178978894608693 0.208832557108699 0  0.5253096341274257 0.2102014893402394 0  0.532753439384321 0.2107098792648381 0  0.5403149392472709 0.2085955251208833 0  0.5476565166497277 0.2115179366053819 0  0.555243635951757 0.2087419686348551 0  0.5626346881864178 0.2105744770915355 0  0.5701509020598701 0.209421590724347 0  0.5775766469735295 0.2104326837069121 0  0.5850763264377483 0.2097072529610683 0  0.5925291289641321 0.2100397730930985 0  0.5999908023332459 0.2052426855469229 0  0.5999870917221861 0.1953138483421549 0  0.5925246722873536 0.1901978930111896 0  0.5850914365100202 0.1892575763535433 0  0.5775534871919318 0.1910904575655214 0  0.5701852969655546 0.188476399964387 0  0.5626033722131681 0.191430843718972 0  0.5553508725501413 0.1858255930545232 0  0.5474805459955709 0.1962629133107292 0  0.5405715751643978 0.1817626098606019 0  0.5323549497851999 0.2011280273436118 0  0.525809352776261 0.1772938220321771 0  0.5173911714585173 0.2017856695660103 0  0.5107295077311731 0.1810289249912004 0  0.5027139290041408 0.1950729921679948 0  0.4955248514892085 0.1879400727359953 0  0.48803242991691 0.1885156213645654 0  0.4803405015056902 0.1942851721508226 0  0.4732970843847722 0.1833835445922988 0  0.4652831028410363 0.1973476742159828 0  0.4584058993114989 0.1822576009798773 0  0.4503031148349343 0.1984208665867576 0  0.4435509393556688 0.1802153368896593 0  0.4352968324040229 0.2001514467052515 0  0.4285598312699183 0.1816313959057179 0  0.4206195450515074 0.1935639875036267 0  0.413478362491511 0.1852787875507997 0  0.4056548610156109 0.194328661759047 0  0.3984718895747592 0.1870090276141533 0  0.3908780572818479 0.1902944785983827 0  0.3833449112510647 0.1918427159200534 0  0.3760962533202417 0.1863240560511671 0  0.36832714433891 0.1939566560830553 0  0.3611401535947503 0.1867668971976255 0  0.353485957933077 0.1915613971081338 0  0.346087385699545 0.1897729594642456 0  0.3386610479285547 0.1886250388442098 0  0.3310610497706103 0.192103163118305 0  0.3237594979764744 0.1877457530035548 0  0.316135849144375 0.1917634802579966 0  0.3087715870701321 0.1891156843872518 0  0.301271032876773 0.1898871202001926 0  0.2937904000191939 0.1902805015439434 0  0.2863386719340906 0.1897775071386766 0  0.278856903769074 0.1901816110835975 0  0.2713983462154088 0.1898917789736994 0  0.2639234924567971 0.1900857641699813 0  0.2564593137084608 0.1899639918955629 0  0.2607802211404241 0.2000746345070644 0  0.5887814454973214 0.2001015977620265 0  0.5745077249904652 0.2001930025298701 0  0.5511913794401598 0.2000524731299429 0  0.2751291045217205 0.1999921165243921 0  0.536519571067762 0.1999934064415221 0  0.2894609070509135 0.1998994430328099 0  0.5215818329501123 0.2000188904709062 0  0.3127752142601118 0.199974734998272 0  0.3274077988512701 0.1999877881725292 0  0.5066455290632847 0.2000173806487442 0  0.365064283188582 0.1998278367687498 0  0.4767719987624564 0.2000309815066299 0  0.341744353361756 0.1997745104121266 0  0.379684456366767 0.2000142085297292 0  0.4618343142112517 0.2000552926254326 0  0.4917072226594227 0.2000607093694285 0  0.3946206750838568 0.200024610147144 0  0.4469011001316232 0.1999698272651543 0  0.4089549454614321 0.1998665738499739 0  0.4322730605219184 0.2000985447425885 0  0.4201940712179623 0.1988792746545117 0  0.3529681302714981 0.1979891342292053 0  0.5633312321425558 0.1994996767166755 0  0.3006283977473259 0.2007449524533836 0  0.5815952155442921 0.1965873279256744 0  0.2677054843650969 0.1964219706491328 0  0.5290386795469127 0.1974208325350248 0  0.5439681622287349 0.1976041939537437 0  0.2825084837409083 0.2036745087878531 0  0.3199734834600667 0.2019621174993061 0  0.4842685843389886 0.196395737401091 0  0.5141368079420784 0.1965230002401617 0  0.3722275259998401 0.202632127294097 0  0.4693123591730712 0.1968886073999244 0  0.3348825376779638 0.2026903766712856 0  0.387159310895331 0.2027603065274415 0  0.4543714564310621 0.1969948373328674 0  0.4992075509287499 0.1963365105643899 0  0.4020107321982174 0.203426138191253 0  0.4394295968144594 0.1971299219590189 0  0.2550635137977442 0.2034691444104104 0  0.254891055951758 0.1966882688685581 0  0.5946512743677229 0.2024945
[...]
<PointData  Scalars="f_40-2"> 
<DataArray  type="Float64"  Name="f_40-2"  format="ascii">3.6004999357851204e+02  3.5955890119176735e+02  0.0000000000000000e+00  0.0000000000000000e+00  2.7195276175385533e+02  2.6785842190699981e+02  0.0000000000000000e+00  3.5367254481254071e+02  3.1752185703943081e+02  3.1959177198967052e+02  2.6772922232652655e+02  3.6073071802452250e+02  3.6324234176112697e+02  3.6608553298514153e+02  3.6870694801100689e+02  3.7096278252991897e+02  3.7252156466764620e+02  3.7296807845837958e+02  3.7259430069334115e+02  3.7118835315660937e+02  3.6905760031145007e+02  3.6644272654716059e+02  3.6356525599055260e+02  3.6103161133357196e+02  3.5896415518075713e+02  3.5579609809848455e+02  3.5178047341838248e+02  3.4680283384130547e+02  3.4124765057633465e+02  3.3531661353009144e+02  3.2889457528447576e+02  3.2237394076976943e+02  3.1593238220007134e+02  3.0965044760096106e+02  3.0315859692505040e+02  2.9671756332551689e+02  2.8977125684060923e+02  2.8277374910953432e+02  2.7521177111429239e+02  2.6752285072713295e+02  2.5997761938801005e+02  2.5187431181065512e+02  2.4339250828926967e+02  2.3495235124419978e+02  2.2641684172044759e+02  2.1697330999880202e+02  2.0794178526463671e+02  1.9793353588563787e+02  1.8753376410929437e+02  1.7755646221923294e+02  1.6647853401023622e+02  1.5513356660627326e+02  1.4337356375552721e+02  1.3151250669675613e+02  1.1864929760807273e+02  1.0565749599259296e+02  9.2155918592017628e+01  7.8271534291194001e+01  6.3695080181276793e+01  4.8855120623639735e+01  3.3497593025490524e+01  1.6639773792167247e+01  0.0000000000000000e+00  0.0000000000000000e+00  0.0000000000000000e+00  1.6435664647694662e+01  3.3057245732630847e+01  4.9170576833176973e+01  6.3770894467164005e+01  7.8300777158195260e+01  9.2138043065379748e+01  1.0561378042841669e+02  1.1848087250659395e+02  1.3174763616825331e+02  1.4339223258191788e+02  1.5513216044046229e+02  1.6650179908282442e+02  1.7756462311105645e+02  1.8752629687203464e+02  1.9786362891465666e+02  2.0788399888201857e+02  2.1683599142474310e+02  2.2616149295574922e+02  2.3496868526388553e+02  2.4318499723768741e+02  2.5142231784592263e+02  2.5930670266094302e+02  2.6701919727443055e+02  2.7467414655136054e+02  2.8215706942156692e+02  2.8951726753819190e+02  2.9666821784244843e+02  3.0336424012711018e+02  3.0967684954393394e+02  3.1601231445538627e+02  3.2232776498415836e+02  3.2866157632876821e+02  3.3496279290793558e+02  3.4084916281819642e+02  3.4645362726670834e+02  3.5128701514494105e+02  3.5537934157215091e+02  3.5861345970855757e+02  0.0000000000000000e+00  0.0000000000000000e+00  3.1957981976800693e+02  3.2009994677631994e+02  3.2122669509805570e+02  3.2275734040052271e+02  3.2461254161991957e+02  3.2673099254229635e+02  3.2909449862195254e+02  3.3161239894580729e+02  3.3419858839066035e+02  3.3684422343431947e+02  3.3948023407938916e+02  3.4203355830168204e+02  3.4445319937333375e+02  3.4668824798024951e+02  3.4868959864340326e+02  3.5040787339439157e+02  3.5180991242257807e+02  3.5284022205982740e+02  3.5346477043660701e+02  3.5338083345299981e+02  3.5289047582516503e+02  3.5172427059651034e+02  3.5027014209441211e+02  3.4852037406819005e+02  3.4648732712679271e+02  3.4417106597970724e+02  3.4170875663757687e+02  3.3914762636545186e+02  3.3644211389344849e+02  3.3368376734116043e+02  3.3099085912849029e+02  3.2837363465634593e+02  3.2587714271459930e+02  3.2355146409184800e+02  3.2149017253424796e+02  3.1970359954696244e+02  3.1830773230392140e+02  3.1757935663233593e+02  3.1696076119458792e+02  3.1799369879743483e+02  3.1544684103331622e+02  3.1615548663082257e+02  3.1037906728089331e+02  3.1768082213218713e+02  3.0981604839314656e+02  3.3412066210262901e+02  3.2126897335737885e+02  3.3012798870227709e+02  3.5942639461498487e+02  2.5341257036574609e+02  3.5473645303578780e+02  4.7064026543447994e+02  3.5744925444377259e+02  3.2561480341688713e+02  3.2691866534944995e+02  3.0934362380003984e+02  3.1312527868574512e+02  3.0403909330824541e+02  3.0842810722699244e+02  3.0190566813918645e+02  3.0479461813857449e+02  2.9463880427550629e+02  3.0084327540196239e+02  3.0555613112469166e+02  2.8582271111203050e+02  2.9860186340342347e+02  2.8811428230024359e+02  2.9344943723413343e+02  2.9792571441977344e+02  2.8147825542314700e+02  2.9626425461401260e+02  2.8809320998504131e+02  2.8195973512859416e+02  2.8705805772403289e+02  2.7892918234630991e+02  2.8552686579025209e+02  2.7968494192146005e+02  2.7931529371467127e+02  2.8007925376131828e+02  2.7436454689419327e+02  2.7419797304051065e+02  2.7207283055325263e+02  2.7168801846782287e+02  2.6831148036701205e+02  2.6608856414820997e+02  2.6799492536554055e+02  2.8149561105457269e+02  2.7758307850532088e+02  2.8200683676063619e+02  2.8123898117531604e+02  2.8560001289743303e+02  2.6806277355574230e+02  2.8459800372285383e+02  2.7074776847970088e+02  2.9148280977272134e+02  2.7979880625269328e+02  2.7267797531210073e+02  2.9638529037875998e+02  2.7064454211114054e+02  3.0127170741033410e+02  2.8022113260962414e+02  3.0765632962647555e+02  2.9361495763706296e+02  2.9825927652559028e+02  2.9854372196830184e+02  3.0707571896763375e+02  2.9880445522224892e+02  3.0397569999869165e+02  3.1846195488943624e+02  2.9386262992039366e+02  2.9741054952102564e+02  2.9644117175840415e+02  3.0793828489687087e+02  2.9141692104497037e+02  3.1000520388643230e+02  2.9970140431804936e+02  3.0213332431143084e+02  3.0912094377050573e+02  3.0095211378671837e+02  3.1385796233177189e+02  3.0599512830461168e+02  3.1259727419238777e+02  3.1345641838073243e+02  3.1083721713153375e+02  3.1764974004748228e+02  3.1266247851171431e+02  3.1528692888533050e+02  3.1683323358205979e+02  3.1748893037088413e+02  3.1868731699494055e+02  3.1916537643080096e+02  3.1984788256101297e+02  0.0000000000000000e+00  0.0000000000000000e+00  0.0000000000000000e+00  0.0000000000000000e+00  0.0000000000000000e+00  0.0000000000000000e+00  0.0000000000000000e+00  0.0000000000000000e+00  0.0000000000000000e+00  0.0000000000000000e+00  0.0000000000000000e+00  0.0000000000000000e+00  0.0000000000000000e+00  0.0000000000000000e+00  0.0000000000000000e+00  0.0000000000000000e+00  0.0000000000000000e+00  0.0000000000000000e+00  0.0000000000000000e+00  0.0000000000000000e+00  0.0000000000000000e+00  0.0000000000000000e+00  0.0000000000000000e+00  0.0000000000000000e+00  0.0000000000000000e+00  0.0000000000000000e+00  0.0000000000000000e+00  0.0000000000000000e+00  0.0000000000000000e+00  0.0000000000000000e+00  0.0000000000000000e+00  0.0000000000000000e+00  0.0000000000000000e+00  0.0000000000000000e+00  0.0000000000000000e+00  0.0000000000000000e+00  0.0000000000000000e+00  0.0000000000000000e+00  0.0000000000000000e+00  0.0000000000000000e+00  0.0000000000000000e+00  0.0000000000000000e+00  0.0000000000000000e+00  0.0000000000000000e+00  0.0000000000000000e+00  0.0000000000000000e+00  0.0000000000000000e+00  0.0000000000000000e+00  0.0000000000000000e+00  0.0000000000000000e+00  0.0000000000000000e+00  0.0000000000000000e+00  0.0000000000000000e+00  0.0000000000000000e+00  0.0000000000000000e+00  0.0000000000000000e+00  0.0000000000000000e+00  0.0000000000000000e+00  0.0000000000000000e+00  0.0000000000000000e+00  0.0000000000000000e+00  0.0000000000000000e+00  0.0000000000000000e+00  0.0000000000000000e+00  0.0000000000000000e+00  0.0000000000000000e+00  0.0000000000000000e+00  0.0000000000000000e+00  0.0000000000000000e+00  0.0000000000000000e+00  0.0000000000000000e+00  0.0000000000000000e+00  0.0000000000000000e+00  0.0000000000000000e+00  0.0000000000000000e+00  0.0000000000000000e+00  0.0000000000000000e+00  0.0000000000000000e+00  0.0000000000000000e+00  0.0000000000000000e+00  0.0000000000000000e+00  0.0000000000000000e+00  0.0000000000000000e+00  0.0000000000000000e+00  0.0000000000000000e+00  0.0000000000000000e+00  0.0000000000000000e+00  0.0000000000000000e+00  0.0000000000000000e+00  0.0000000000000000e+00  0.0000000000000000e+00  0.0000000000000000e+00  0.0000000000000000e+00  0.0000000000000000e+00  0.0000000000000000e+00  0.0000000000000000e+00  0.0000000000000000e+00  0.0000000000000000e+00  0.0000000000000000e+00  0.0000000000000000e+00  0.0000000000000000e+00  0.0000000000000000e+00  0.0000000000000000e+00  0.0000000000000000e+00  0.0000000000000000e+00  0.0000000000000000e+00  0.0000000000000000e+00  0.0000000000000000e+00  0.0000000000000000e+00  0.0000000000000000e+00  0.0000000000000000e+00  0.0000000000000000e+00  0.0000000000000000e+00  0.0000000000000000e+00  0.0000000000000000e+00  0.0000000000000000e+00  0.0000000000000000e+00  0.0000000000000000e+00  0.0000000000000000e+00  0.0000000000000000e+00  0.0000000000000000e+00  0.0000000000000000e+00  0.0000000000000000e+00  3.1750078829823843e+02  3.1704976575835644e+02  2.4393525933817386e+02  3.0452382332612069e+02  2.8938777250426023e+02  3.0460912154648048e+02  2.7371445183320111e+02  2.9214056786474498e+02  3.5289154780799782e+02  2.7789816322266608e+02  3.5454908866656422e+02  3.4244846393356818e+02  3.2924411179713587e+02  3.4111127579072553e+02  3.5662185339712300e+02  3.2912977097635820e+02  3.1896944615346280e+02  3.1835439537166707e+02  3.5725271763719871e+02  3.1268096697201867e+02  3.1319696024438571e+02  3.1033215781702205e+02  2.5761975631155599e+02  3.0655693124419378e+02  3.0375919700048928e+02  2.9443906198619436e+02  3.0171778186510909e+02  2.9644215727818914e+02  2.8862557371497076e+02  2.8144755763987058e+02  2.8110014935207306e+02  3.4909038435185369e+02  2.7557765757467195e+02  3.4926973005373759e+02  2.7402798446925851e+02  2.6287980608522344e+02  3.2439103131572733e+02  3.2463189736762814e+02  2.6428839558521963e+02  2.6690010472580735e+02  2.8740053850825984e+02  3.5517253181434944e+02  3.3458602547423709e+02  3.3849361911359063e+02  2.1416198915977438e+02  3.4340614140412009e+02  3.5185827748724705e+02  3.5195734912436160e+02  1.8460585228132874e+02  2.9823184762578427e+02  3.1604704068844029e+02  2.6694572708295402e+02  3.1562686964602756e+02  3.0588260419017530e+02  3.0956411497110537e+02  3.4378881279634106e+02  3.3288611888408809e+02  3.0956372358302514e+02  2.7898930977344963e+02  3.0321444421762396e+02  3.2972547362353981e+02  2.5580332371929697e+02  3.0079219385389030e+02  3.4765511231259188e+02  1.5538406664348321e+02  2.9346734883039943e+02  2.8489475870598153e+02  3.1139938230186362e+02  2.7841925275230972e+02  2.9138365308887035e+02  2.8400986424479470e+02  2.7085265637049014e+02  3.5354692306819732e+02  2.6953497415136576e+02  1.2537339822846060e+02  2.6670006405389989e+02  3.1101550523583325e+02  3.4791027391167137e+02  2.7423325995396709e+02  3.6185757199355658e+02  3.6305286605668482e+02  3.5092829614397107e+02  3.1779311304279213e+02  3.2040438697344752e+02  3.1963864568541032e+02  3.2175047510094248e+02  2.9879422241348254e+02  2.7464761892628030e+02  3.1262998709214156e+02  3.0284586166208533e+02  3.6222251473762071e+02  3.1277846364418758e+02  3.4662976726840998e+02  9.5750721587319873e+01  3.1802243299559160e+02  2.4922796685798261e+02  2.6758669922725647e+02  2.8454799450648846e+02  3.5852620794915731e+02  3.0568741361842990e+02  3.0119678883564262e+02  3.5741342932196858e+02  3.2201159050867000e+02  3.3536643704087459e+02  3.5332859773011575e+02  2.9785010634001958e+02  3.3788961250742892e+02  2.8968365543596127e+02  3.1442183173913594e+02  2.9713629334324099e+02  2.2839912206738742e+02  2.2852785682576754e+02  2.7954622260976930e+02  7.0318219892295616e+01  3.5414248441124732e+02  2.9486568676731395e+02  3.3833408145512703e+02  2.8188590972227223e+02  3.1624872856752427e+02  3.2788467507488548e+02  2.6998799648644956e+02  2.6409360262667292e+02  3.1766014061998396e+02  3.4909642995563456e+02  2.8817291714738872e+02  3.1423283818567643e+02  3.2228150395214141e+02  2.6929521710836747e+02  4.0228245928651390e+01  3.5366221586749566e+02  3.2446485554798500e+02  2.8151488786787098e+02  1.9943868748729716e+02  1.9928597758291835e+02  3.0641148677277835e+02  2.9946900367753176e+02  2.9899376874904789e+02  3.3555311305271869e+02  3.2284497081784002e+02  2.7828948284762652e+02  3.1640128469156770e+02  3.0092655004836541e+02  3.4785102783964498e+02  3.4509081022913062e+02  2.7697125057726066e+02  2.4187389534564042e+02  3.1667636747763174e+02  3.0037049427775548e+02  3.5107524482326141e+02  3.2014089979961926e+02  2.6842521913262016e+02  2.9244767394194167e+02  3.1984170328984305e+02  3.4297693763359302e+02  3.5858264054462768e+02  2.8714632798393171e+02  1.7009852122147061e+02  1.7059866292947115e+02  3.0629883608134656e+02  2.9363077287465632e+02  3.2763394989408312e+02  3.5104584866597514e+02  3.1069020368375067e+02  3.0807440426039688e+02  3.1007997164735804e+02  3.1364330429294773e+02  3.1797497403874428e+02  3.0379377419428954e+02  3.0122744926880671e+02  2.1509317730922962e+02  2.1458917591884699e+02  3.3213630521826468e+02  3.6212071897643619e+02  3.1459380215058638e+02  3.1013788558552631e+02  2.9978955148541149e+02  3.0283481879320163e+02  3.0741061076491906e+02  2.9405998571193516e+02  2.9218023706040071e+02  3.5434233273618480e+02  2.5446205514998238e+02  2.8335780737995515e+02  2.8859593572043553e+02  3.5365520060028388e+02  3.3024307630488227e+02  3.0401259499619920e+02  2.7875256120324235e+02  2.5919137749540641e+02  2.5019751063703299e+02  3.3878189750855120e+02  1.4042061695151497e+02  1.4114434389316980e+02  3.5821694360503261e+02  3.3494557974627668e+02  3.2884487933996456e+02  2.8992951759619410e+02  2.9223117667892041e+02  3.5302652062073116e+02  2.9930957788958449e+02  2.8485157123878338e+02  3.6014953944949485e+02  3.2468649463651951e+02  2.8663647067787315e+02  3.0755714626077491e+02  2.6973031929249782e+02  2.6847629678516182e+02  3.4328840297187719e+02  3.3973439141975729e+02  2.9259946509595261e+02  2.7678596572805799e+02  3.2903576621313977e+02  3.6174023828284442e+02  3.2414370993434676e+02  3.5254371214908940e+02  2.8535733183167923e+02  2.7604715168342329e+02  2.7431346998583263e+02  2.7073013889688798e+02  3.1496348522754909e+02  3.4587781588466805e+02  3.1449313573826544e+02  3.5495450053493443e+02  3.2111423254148383e+02  1.8517854056610383e+02  1.8497502576320966e+02  3.1637305860309118e+02  3.3295778221227300e+02  3.4515726881286338e+02  2.7789838756756882e+02  1.1056950529500578e+02  1.1103950221418381e+02  2.7562430431416186e+02  3.1468287773427045e+02  3.1907948200937511e+02  3.5838035580584670e+02  2.5966855292384133e+02  3.2073556006465566e+02  2.9460454369972285e+02  2.3864442550436212e+02  3.2204299232813224e+02  3.2786351903174159e+02  3.5508837320098428e+02  2.6291775499783279e+02  3.4071077805868538e+02  3.3379364435857258e+02  2.7252467451291932e+02  2.6187746810049856e+02  3.0246475762080019e+02  2.5794638328893916e+02  3.5204621573011121e+02  3.0643185968451769e+02  3.2268071569165755e+02  3.2705214431438105e+02  3.0221596843959253e+02  3.4737959391017301e+02  2.8656330310830094e+02  3.5298445440875105e+02  2.3194724195109094e+02  2.9024684869316644e+02  2.9304092818597263e+02  2.8493287032138898e+02  3.5822748117011366e+02  3.0940940233854940e+02  3.5304466997164860e+02  2.6798538180006909e+02  2.8249459143346502e+02  8.0268212152107964e+01  8.0264195857009682e+01  3.1771355045597306e+02  3.0274819179315591e+02  1.5580778363042080e+02  1.5557299261873322e+02  3.5215181123258213e+02  3.1231284001063386e+02  2.9470589252585762e+02  1.8244156179863342e+01  2.8944148348635775e+02  3.1652246208866785e+02  3.2252399968259942e+02  3.5684124236767951e+02  2.9408826331006594e+02  3.1855815405506092e+02  3.5090973781873765e+02  3.0605586959828935e+02  3.4058453466681681e+02  2.9561919732646470e+02  3.5530495246626504e+02  3.5988038694650004e+02  2.9854093061742833e+02  3.5023812077056994e+02  3.4764240267945240e+02  3.1866655473144522e+02  2.9765352439537259e+02  3.0959802342903492e+02  2.9060240686123808e+02  3.6765636937582025e+02  2.7778419089389729e+02  2.8172467659109049e+02  3.0818882047924546e+02  3.2496971481184687e+02  1.2550813153092921e+02  1.2704232478626739e+02  2.7838517840702747e+02  3.5259441265588350e+02  3.1932148621798660e+02  2.7399742374689964e+02  3.4688129898104029e+02  2.6795511220872191e+02  3.6109856797990631e+02  2.6441589338169712e+02  2.8259945610095633e+02  3.0859820934548355e+02  2.7948977247358380e+02  3.4960123034411077e+02  2.8133327018051290e+02  3.1979161679622712e+02  3.5172748111773836e+02  5.0977229422836686e+01  5.1391636800807696e+01  3.0098992078922925e+02  3.3492517112863658e+02  3.4667372625074660e+02  2.7978852647761806e+02  2.5600730533706576e+02  3.6629475567898595e+02  2.4844625012575329e+02  3.4086981556473313e+02  3.0574288814084667e+02  3.5861973174624654e+02  3.1428812959815338e+02  2.2165439795705904e+01  3.1411418507596198e+02  2.0328394115915955e+02  3.5694775903030865e+02  2.4130280857645212e+02  2.5069887126399226e+02  3.3172675181256704e+02  3.1392258236610297e+02  3.4226300884552739e+02  3.1675681656603450e+02  3.1754229531559264e+02  3.3783118406546100e+02  3.1422322374176741e+02  3.1969425660174335e+02  3.4211434116405479e+02  3.3039396356288495e+02  3.3540691709863296e+02  2.3317348212656452e+02  2.7468222087032905e+02  3.4471516178667639e+02  2.6877810379386676e+02  3.6266114406590674e+02  3.4034462819947015e+02  3.1733055450130553e+02  2.6378789615645422e+02  2.9205640350333948e+02  3.2088915532908749e+02  3.2081658829883247e+02  2.7304904992060131e+02  3.0937931996103379e+02  2.9195853112214581e+02  3.2199657848171648e+02  3.4822523877805173e+02  3.6520342877167496e+02  3.6490640310544762e+02  3.4927779281568098e+02  3.4524290128310770e+02  3.5644178721317201e+02  3.1663710314647454e+02  3.2478652070452159e+02  3.5256373124574105e+02  1.8253368070003677e+02  2.8308163548972021e+02  3.5216872572154375e+02  3.5969180080355108e+02  3.5904382632825894e+02  2.7614413365185794e+02  3.0981572507650588e+02  2.2317036867746515e+02  3.1150504954750147e+02  2.2228624960735948e+02  2.3673468060467331e+02  3.2968089969570741e+02  3.0064431786249895e+02  3.5308069327013976e+02  9.5265332302667801e+01  9.6015111690483508e+01  3.5358226859080133e+02  2.7196281596618559e+02  3.1066790131091210e+02  3.1421052219677136e+02  3.0126649777426013e+02  3.4945418237968380e+02  3.4547580357741577e+02  3.1095938990950214e+02  3.0010085223251514e+02  2.7695225436876808e+02  2.7661130852285902e+02  3.0791945436248170e+02  3.1732715246292355e+02  3.0736146731895252e+02  3.4109973629648829e+02  3.3880326435187561e+02  2.7184677086094473e+02  3.1154103940110019e+02  3.3183591065907990e+02  2.6624386187914956e+02  3.6244383254720532e+02  3.1744360819849470e+02  3.4999809148848902e+02  3.0792813927017193e+02  3.0072913115794961e+02  2.9578600861743246e+02  2.9606802029534146e+02  1.7284497191841481e+02  2.6870969714417328e+02  3.2247363551186504e+02  3.0506493585214048e+02  3.2378678875341080e+02  3.3264886928178743e+02  2.2371486771189362e+02  3.1546657034137655e+02  2.0553855151899373e+02  3.2544976699615830e+02  3.3800995886264235e+02  3.6707322633716734e+02  3.0225877635043122e+02  3.4999436633053608e+02  3.1749487799931427e+02  2.0536193174218761e+02  3.1746990399746767e+02  2.5705422583081139e+02  2.6449289866332015e+02  2.6698054813992570e+02  3.2557846946528014e+02  3.5953048897003902e+02  3.0103803700606898e+02  3.3816227554535010e+02  3.4881307357701741e+02  3.3533800862587663e+02  3.4630390133409423e+02  2.7123088974051115e+02  3.2576173886480291e+02  3.4559662657272395e+02  3.4544911530951185e+02  3.2799819082029285e+02  3.5607384493641086e+02  2.9636953512741633e+02  3.5665499231044248e+02  3.1748792213193400e+02  3.4891322736275237e+02  3.5237448611236528e+02  3.5339495006510049e+02  3.4084557809280784e+02  2.4852886840594763e+02  3.1454684836057248e+02  3.1265995923962709e+02  2.9853253370596633e+02  2.9300960369900247e+02  3.5216472305587234e+02  2.8860780022856505e+02  2.9564332238884782e+02  3.2279721029509705e+02  3.1779916775568131e+02  3.1832027534705838e+02  2.8959342426356210e+02  3.3082765260093248e+02  3.2662105026292085e+02  3.1861452105587