<?xml version="1.0"?>
<VTKFile type="UnstructuredGrid"  version="0.1"  >
<UnstructuredGrid>
<Piece  NumberOfPoints="1419" NumberOfCells="2698">
<Points>
<DataArray  type="Float64"  NumberOfComponents="3"  format="ascii">0 0 0  0 0.41 0  2.5 0 0  2.5 0.41 0  0.6018073844260701 0.1971585930489402 0  0.595124478979114 0.2159532346341831 0  0.25 0.2 0  0.15 0.2 0  0.2489897948556636 0.21 0  0.2489897948556636 0.19 0  0.5970263351138289 0.2055490733645329 0  0 0.3807142857143437 0  0 0.3514285714286952 0  0 0.3221428571430699 0  0 0.29285714285744 0  0 0.2635714285718054 0  0 0.2342857142861561 0  0 0.2050000000005308 0  0 0.175714285714732 0  0 0.1464285714289574 0  0 0.1171428571431897 0  0 0.08785714285737878 0  0 0.05857142857161107 0  0 0.02928571428580012 0  0.03015443760436003 0 0  0.06140001986583606 0 0  0.09377624077125973 0 0  0.1273239957535082 0 0  0.1620856860351972 0 0  0.1981052433264291 0 0  0.235428184091502 0 0  0.2741016576309132 0 0  0.3141745521465447 0 0  0.3556974926295285 0 0  0.3987229542472677 0 0  0.4433053055141081 0 0  0.4895008759286886 0 0  0.5373680609405097 0 0  0.5869673343216626 0 0  0.6383613676634521 0 0  0.6916151138468254 0 0  0.7467958595648856 0 0  0.8039733463919316 0 0  0.8632198139502143 0 0  0.9246101326867038 0 0  0.9882218810934433 0 0  1.054135445558498 0 0  1.122434100542598 0 0  1.193204177141305 0 0  1.266535089879536 0 0  1.342519516046404 0 0  1.421253448503939 0 0  1.502836389106271 0 0  1.587371439758838 0 0  1.674965418777374 0 0  1.765729001825544 0 0  1.859776908880082 0 0  1.957227977487062 0 0  2.058205329869943 0 0  2.162836591189951 0 0  2.271253957290865 0 0  2.383594446803425 0 0  2.5 0.1024999999997612 0  2.5 0.2049999999994743 0  2.5 0.3074999999997183 0  2.383594446803656 0.41 0  2.271253957291315 0.41 0  2.162836591190598 0.41 0  2.058205329870775 0.41 0  1.957227977488067 0.41 0  1.859776908881246 0.41 0  1.765729001826854 0.41 0  1.674965418778818 0.41 0  1.58737143976041 0.41 0  1.502836389107956 0.41 0  1.421253448505726 0.41 0  1.342519516048286 0.41 0  1.266535089881505 0.41 0  1.193204177143353 0.41 0  1.122434100544716 0.41 0  1.05413544556068 0.41 0  0.9882218810956305 0.41 0  0.9246101326886647 0.41 0  0.8632198139519631 0.41 0  0.8039733463934788 0.41 0  0.7467958595662458 0.41 0  0.6916151138480078 0.41 0  0.6383613676644679 0.41 0  0.5869673343225223 0.41 0  0.5373680609412221 0.41 0  0.4895008759292634 0.41 0  0.4433053055145528 0.41 0  0.3987229542475914 0.41 0  0.3556974926297398 0.41 0  0.3141745521466497 0.41 0  0.2741016576310038 0.41 0  0.2354281840915826 0.41 0  0.1981052433265003 0.41 0  0.1620856860352591 0.41 0  0.1273239957535623 0.41 0  0.09377624077128965 0.41 0  0.06140001986584975 0.41 0  0.03015443760436654 0.41 0  0.2497468076502589 0.2050254481002335 0  0.2497468076502614 0.1949745518997913 0  0.2469965252529372 0.1829317073451959 0  0.2439893735792749 0.1762316384219906 0  0.2400332147834255 0.1700443375285386 0  0.2352133972704371 0.1645032867342007 0  0.2296339016332438 0.1597280261969788 0  0.2234150974217223 0.1558215752574715 0  0.2166911463437691 0.1528682099456123 0  0.2096071079204251 0.1509316448471593 0  0.2023158100364996 0.1500536585536553 0  0.194974551899914 0.1502531923497262 0  0.1877417105387872 0.1515259415822739 0  0.1807733240461124 0.153844448527136 0  0.1742197252835808 0.15715869474974 0  0.1682222986673531 0.1613971801805478 0  0.162910430003803 0.1664684656256651 0  0.1583987151779087 0.1722631454351573 0  0.1547844879126891 0.178656207771761 0  0.1521457199348551 0.1855097315605723 0  0.1505393388476355 0.1926758619366523 0  0.1505393388476328 0.2073241380633295 0  0.1521457199348437 0.2144902684393899 0  0.1547844879126531 0.221343792228163 0  0.1583987151778488 0.2277368545647528 0  0.1629104300036858 0.2335315343742052 0  0.1682222986671726 0.2386028198193036 0  0.1742197252833576 0.2428413052501257 0  0.1807733240458683 0.2461555514727623 0  0.1877417105384929 0.2484740584176516 0  0.1949745518995776 0.2497468076502398 0  0.202315810036185 0.2499463414463592 0  0.2096071079201568 0.2490683551528932 0  0.2166911463435495 0.2471317900544655 0  0.2234150974215506 0.2441784247426195 0  0.2296339016331197 0.2402719738031125 0  0.2352133972703547 0.2354967132658811 0  0.2400332147833751 0.2299556624715287 0  0.2439893735792577 0.2237683615780412 0  0.246996525252926 0.2170682926548348 0  0.2542025521346609 0.2335283938327139 0  0.2656368110880923 0.2149662702992782 0  0.2870882640461397 0.2119239474918853 0  0.2433384519958966 0.1990185777647964 0  0.305246529042028 0.2095948747161623 0  0.2908605877966753 0.2311158931454653 0  0.3121814705222853 0.2065792533816948 0  0.3120204788661856 0.2639674436509125 0  0.3091414510579679 -0.006130991197904041 0  0.3219636369433564 0.1686462378714548 0  0.3340252425232167 0.2160512278556852 0  0.3400764565270776 0.238818840041996 0  0.3422073213889695 0.2229607229120291 0  0.3555213484567802 0.2189453073236268 0  0.3637905307741542 0.1909003466949878 0  0.3671997831558135 0.1587361527855 0  0.3821205092592848 0.2182906979566125 0  0.3741329506307465 0.2160385247216088 0  0.3755096240634068 0.2112713762489261 0  0.3912880580726209 0.2409294546915896 0  0.3785385447788887 0.2547030384025292 0  0.4022898516729551 0.2748871763767518 0  0.4827160091904135 0.07907939163552435 0  0.424017920901696 0.2507678663465002 0  0.3171742718366964 0.4428044901128258 0  0.4457376755412781 0.2231874687259544 0  0.4325409299846614 0.2780431715043137 0  0.767272084227305 -0.4204232172694821 0  0.5002443511357478 0.1720485301146739 0  0.569488220300762 0.01521079723602186 0  0.4409403230827464 0.3275522582304711 0  0.3347743062087503 0.5147514229429988 0  0.5125270262387698 0.1901354544827849 0  0.573639821996784 0.0450046789999783 0  0.2859316812770892 0.7265917205958909 0  0.4182504503402524 0.4442525218126039 0  0.4985730667540489 0.2609971665984393 0  0.519973134564132 0.2474036802379212 0  0.530019165615885 0.2361857319490063 0  0.5337245668335087 0.2857192387434869 0  0.5618324431314696 0.1796133037762359 0  0.5616008247495342 0.2192512642225603 0  0.5779259497161571 0.2414919256354544 0  0.5616144730239844 0.1879824615608415 0  0.5900508418806151 0.2207248155402899 0  0.6013636240249746 0.2113538581834064 0  0.6050962459812581 0.2104650511767922 0  0.6024957451049626 0.1803848592731139 0  0.5916091181945901 0.1825059948815688 0  0.5858996131825588 0.188569968402503 0  0.5783950898964597 0.1886147765367244 0  0.5694111812054093 0.1890151900802705 0  0.5594740303783133 0.1947916007766576 0  0.5668273115969744 0.1718983697195472 0  0.5444937132806915 0.1990511232432086 0  0.5162620912092005 0.1957691850872585 0  0.5358954920074772 0.1818253489296716 0  0.5294342635466175 0.1866219798513906 0  0.5100437792229902 0.2233912915401537 0  0.5136474596167985 0.1811142075604201 0  0.500405886955372 0.1943102842577296 0  0.4985805223399761 0.1796232961525818 0  0.4736218194347574 0.208907955556977 0  0.4732821165667866 0.1809682541845991 0  0.4786100158382274 0.1864459503810795 0  0.4723190987646183 0.1890080827841676 0  0.451135818881703 0.1993962351968168 0  0.454241990324961 0.154712751994211 0  0.444799788609214 0.1926900317896116 0  0.4346151171671049 0.2060496020728664 0  0.4289875952207537 0.203250600261535 0  0.4164644326091984 0.1874995438238995 0  0.4152086624936698 0.2172875839231452 0  0.4067255874152602 0.1519994227372774 0  0.3959060513907343 0.2189491158320298 0  0.3915367224185812 0.1377535497431938 0  0.3870685657319138 0.2478343370123995 0  0.3745317195821968 0.1812865199908291 0  0.3694099074606789 0.1796156604044761 0  0.3549878318121333 0.2200438678320147 0  0.354553145622219 0.1341592908599684 0  0.3543870955501339 0.3504005557921822 0  0.3206064909598123 -0.00326810496763031 0  0.3446919948367328 0.4611546433098127 0  0.321632702373653 0.04686408388687448 0  0.3193792976332345 0.3544598391100556 0  0.2952726026325069 0.1098163910263344 0  0.3041529830553125 0.2218707280703687 0  0.28976472740447 0.1459248435714468 0  0.287215683313701 0.2151780986911015 0  0.2789085592204413 0.1741481712379699 0  0.2752963321679904 0.2190935697623275 0  0.2630720547092201 0.1825079745959285 0  0.2568617360238789 0.1852726785803337 0  0.2610621207236143 0.1998921256783757 0  0.5902858650262118 0.2008491207544097 0  0.5737636694052284 0.1993014004554731 0  0.5548413167191879 0.1981829400962858 0  0.2750266344489224 0.2027368596939757 0  0.5261060670744435 0.2037432393837299 0  0.2912785087396614 0.2062636428446995 0  0.5131463149613114 0.2154596204960013 0  0.3129500349892101 0.1943238306547355 0  0.3264481408083706 0.2023753372954202 0  0.5140571994564029 0.195884780372944 0  0.3667227840945527 0.1920200215773815 0  0.484931447048073 0.2123078363928532 0  0.3415691165918979 0.2191235978092242 0  0.3793051310120688 0.2013886661306522 0  0.4796450464945982 0.1898671879067814 0  0.4963101998073934 0.2134042182035507 0  0.3915363158911155 0.2044604185055519 0  0.4633593034594974 0.1987505735086462 0  0.4112325001945728 0.2147997854315242 0  0.4382827509051679 0.2155020534431083 0  0.434062703525161 0.215596659774511 0  0.3539670808524734 0.2032361324344045 0  0.5635747614652936 0.2037632884189556 0  0.3005682551233678 0.2111525446747382 0  0.580787786630899 0.197459800092985 0  0.2680891621575033 0.2001073027544066 0  0.5237038006319427 0.189971186618094 0  0.5449561755710465 0.2017168266638959 0  0.2841751149546138 0.208484747709718 0  0.3212881678248441 0.2276376454163284 0  0.490062542231921 0.2060175879493048 0  0.5107201568869204 0.2042195632060075 0  0.372384602071383 0.1943061328125508 0  0.4744843532044039 0.2022121952820764 0  0.3366373011481147 0.2096376926253022 0  0.3873342192349885 0.1979212089460774 0  0.4640847569623627 0.1950674378757295 0  0.507188429692106 0.1927151689083896 0  0.4036933804299696 0.2326556647812351 0  0.4425989945703116 0.2042680608672479 0  0.2562731387131588 0.2059814201303536 0  0.2572622370379821 0.1999171664817984 0  0.5966079461916473 0.
[...]
<PointData  Scalars="f_40-2"> 
<DataArray  type="Float64"  Name="f_40-2"  format="ascii">2.6761408602295986e+10  1.8700104923026264e+10  0.0000000000000000e+00  0.0000000000000000e+00  1.5785515097947598e+11  -3.2311800833698877e+11  0.0000000000000000e+00  -7.0632894076107721e+09  -9.7796069895244274e+09  -7.9360923050050690e+10  7.7784582369670929e+10  4.2986274153678886e+10  2.0456283957644745e+10  2.4891957922324635e+10  1.5643401913961184e+10  2.8262880055203331e+08  1.3710583516877298e+10  1.1966645853671215e+09  1.8118935861695732e+10  3.2580921697570892e+10  4.3720180078263388e+09  2.0804733935611393e+10  6.8426974731758003e+10  5.0377538283636375e+10  2.8292607733363499e+10  8.9300714529831787e+10  7.0342066256061935e+10  2.5471873933933926e+10  3.1426964664880890e+10  2.2866887065220543e+10  7.9054797516727400e+09  2.0632468466864574e+10  -3.4079783058736320e+10  -1.6543627157502430e+10  -9.2857761912089951e+10  -2.0136395405315530e+11  -8.8244225301145721e+10  -3.1107051380975780e+10  1.2835046348183908e+10  -1.5482312618915380e+10  -4.2645169136594894e+10  -7.4111538586309509e+10  2.8217092260220894e+10  2.5719879041966455e+11  -1.4208732613211438e+11  -1.0450988638641812e+11  -5.7311295154483345e+10  2.2051943899302545e+09  4.4544159463404732e+10  4.3570598007638873e+11  6.3103375255987634e+11  -9.0848975182379471e+10  -4.2686571876125137e+10  -7.1863004989350128e+10  7.1115802877448090e+10  1.2433530505624533e+11  6.6691621227774277e+10  3.8635878690233414e+10  4.9866731382547398e+09  -3.0731781343327818e+09  -1.7362304863157593e+10  7.9805894309086442e+08  0.0000000000000000e+00  0.0000000000000000e+00  0.0000000000000000e+00  5.6419604220007105e+09  1.0694847347700575e+10  2.1424560552724232e+10  3.6457030703926268e+09  3.6240859977698341e+10  1.0724395413368303e+11  1.4216138580629480e+11  -8.3905524995041885e+10  1.4424817375535437e+10  8.7769735842256134e+10  9.1730275228026398e+10  9.8113616029923492e+10  4.9396693832167191e+10  -1.0937221463997432e+11  3.0156473419300531e+11  1.6113455843629211e+11  -1.7672666348192139e+11  -4.9172837305591943e+11  -1.6741027593590192e+11  -2.0511299952047946e+11  -1.6636168072148978e+11  -9.5017338678880356e+10  -7.9057800821163895e+10  -3.0288368107430599e+10  -6.9249621031911087e+10  -6.5446379209346581e+10  -6.3164850877851418e+10  -3.3373020264943023e+09  -1.2430685641977125e+10  -2.5953441848638779e+10  -2.1702272713271317e+10  -3.8466900020066805e+09  5.4708243135700500e+08  3.1099413441315651e+10  2.6975843754931484e+10  6.1006956498457962e+10  2.2373511297058548e+10  7.2888129988600403e+10  0.0000000000000000e+00  0.0000000000000000e+00  -7.5899358784451660e+10  -1.2866595982686258e+11  -6.6491936307211304e+10  -2.6322236767182640e+10  -2.1424899566720947e+10  -5.2464699467471260e+10  -2.2282896975107651e+10  -1.6572346703889757e+10  -3.9437029435245255e+10  6.9465618335740356e+10  4.8236003895130913e+10  3.9209842198865837e+10  3.8973622683601761e+10  3.7315758602997070e+10  2.5507002708196655e+10  1.8426536573100388e+10  6.5487889911723220e+08  -2.7602742341902843e+10  -4.5244917280736580e+09  2.8220680528549252e+10  1.4819509830970604e+10  7.2864354388069626e+10  -9.7113898286350465e+08  -6.2407226679131081e+10  3.3211264191973854e+10  -9.6780436225333080e+09  4.1987245641874576e+08  4.0989118431309543e+09  6.9432852467369995e+10  -2.6570767534452469e+10  3.6850566287518291e+09  1.0427947137128769e+10  -1.2097422001634449e+10  -3.0737792472207069e+10  1.9629859920732368e+10  -7.4697106139653912e+09  1.2094398690793372e+11  -3.2182043849229650e+09  -4.5555806139985399e+09  -1.0800361844812809e+10  3.1298822597187237e+10  8.9436547659340134e+09  6.9608259250671463e+10  1.7463014085275198e+11  6.6959796835725355e+09  1.5694258350818911e+09  1.0354749391543800e+09  -6.1908424863856483e+08  6.7639507380596495e+09  -8.9343676293600723e+10  6.9593406703001587e+10  -8.5865013564058065e+09  2.6930450887383127e+08  9.4792156967550313e+08  3.6818784573104320e+09  4.9723524504987011e+09  -9.8084552383951521e+08  -1.6291152508983585e+08  5.1878030676847845e+08  -2.3167520926601148e+08  -5.4865669184121955e+06  -2.9928790447581634e+06  1.2013352093071167e+08  -1.4984890851183870e+08  3.7924893799296483e+07  -2.3632695587464619e+08  1.8824016274564764e+08  -1.7791569061243773e+07  6.5233018046118808e+08  1.5240096284118521e+08  -4.2485753825928944e+08  3.5966755617417552e+07  -1.2447906568778455e+07  -6.4122894670988274e+08  -3.7327799759953821e+08  -1.6708510982852816e+10  -2.1858765349245583e+10  5.6147661726238470e+09  -1.1538834546350958e+10  1.4000674810002008e+10  -3.6985848990453285e+10  2.6225955829636784e+10  -5.1278128116562904e+10  -4.5089429882806679e+10  -2.9003162776732471e+10  5.2944155317806903e+11  5.4023153017245483e+10  -1.3091796353818692e+11  -1.1392143655751352e+11  1.5049165417085141e+11  -2.2310832946956791e+10  7.2715638004578094e+10  7.3043518103193237e+10  -7.2789946799405853e+10  -6.8124402344284412e+11  -4.0412775613795757e+09  8.8141825468776023e+08  -4.2647654195659451e+09  -9.8902222326132828e+10  3.7560009147068779e+10  -4.1921819857997375e+10  1.0802392517509650e+11  4.9242592704589722e+10  -3.0992406544242092e+10  -2.8200139964280647e+10  1.9495201164482311e+10  -6.1039025661241898e+10  -5.1252060782565392e+10  7.0099718669412247e+10  1.7876563893766254e+11  -1.2539353468834450e+10  3.1894555422291003e+11  -2.1181855168551199e+09  -9.3046027050725842e+09  4.2019203906330994e+10  -5.9713568537360058e+09  2.4952838491424828e+10  -8.1164715485781631e+09  5.3491765459818268e+09  -2.5524084111662045e+10  8.7369254701508942e+09  -5.4287727975696320e+10  2.6593909163212671e+09  9.3062183411200924e+09  -3.0425307301813310e+08  -8.1192680596082473e+08  3.1542302518503290e+08  1.3212727497899237e+09  -9.6217590942368584e+09  4.8809830007588851e+08  2.6110167279391926e+10  5.8376026797059982e+10  0.0000000000000000e+00  0.0000000000000000e+00  0.0000000000000000e+00  0.0000000000000000e+00  0.0000000000000000e+00  0.0000000000000000e+00  0.0000000000000000e+00  0.0000000000000000e+00  0.0000000000000000e+00  0.0000000000000000e+00  0.0000000000000000e+00  0.0000000000000000e+00  0.0000000000000000e+00  0.0000000000000000e+00  0.0000000000000000e+00  0.0000000000000000e+00  0.0000000000000000e+00  0.0000000000000000e+00  0.0000000000000000e+00  0.0000000000000000e+00  0.0000000000000000e+00  0.0000000000000000e+00  0.0000000000000000e+00  0.0000000000000000e+00  0.0000000000000000e+00  0.0000000000000000e+00  0.0000000000000000e+00  0.0000000000000000e+00  0.0000000000000000e+00  0.0000000000000000e+00  0.0000000000000000e+00  0.0000000000000000e+00  0.0000000000000000e+00  0.0000000000000000e+00  0.0000000000000000e+00  0.0000000000000000e+00  0.0000000000000000e+00  0.0000000000000000e+00  0.0000000000000000e+00  0.0000000000000000e+00  0.0000000000000000e+00  0.0000000000000000e+00  0.0000000000000000e+00  0.0000000000000000e+00  0.0000000000000000e+00  0.0000000000000000e+00  0.0000000000000000e+00  0.0000000000000000e+00  0.0000000000000000e+00  0.0000000000000000e+00  0.0000000000000000e+00  0.0000000000000000e+00  0.0000000000000000e+00  0.0000000000000000e+00  0.0000000000000000e+00  0.0000000000000000e+00  0.0000000000000000e+00  0.0000000000000000e+00  0.0000000000000000e+00  0.0000000000000000e+00  0.0000000000000000e+00  0.0000000000000000e+00  0.0000000000000000e+00  0.0000000000000000e+00  0.0000000000000000e+00  0.0000000000000000e+00  0.0000000000000000e+00  0.0000000000000000e+00  0.0000000000000000e+00  0.0000000000000000e+00  0.0000000000000000e+00  0.0000000000000000e+00  0.0000000000000000e+00  0.0000000000000000e+00  0.0000000000000000e+00  0.0000000000000000e+00  0.0000000000000000e+00  0.0000000000000000e+00  0.0000000000000000e+00  0.0000000000000000e+00  0.0000000000000000e+00  0.0000000000000000e+00  0.0000000000000000e+00  0.0000000000000000e+00  0.0000000000000000e+00  0.0000000000000000e+00  0.0000000000000000e+00  0.0000000000000000e+00  0.0000000000000000e+00  0.0000000000000000e+00  0.0000000000000000e+00  0.0000000000000000e+00  0.0000000000000000e+00  0.0000000000000000e+00  0.0000000000000000e+00  0.0000000000000000e+00  0.0000000000000000e+00  0.0000000000000000e+00  0.0000000000000000e+00  0.0000000000000000e+00  0.0000000000000000e+00  0.0000000000000000e+00  0.0000000000000000e+00  0.0000000000000000e+00  0.0000000000000000e+00  0.0000000000000000e+00  0.0000000000000000e+00  0.0000000000000000e+00  0.0000000000000000e+00  0.0000000000000000e+00  0.0000000000000000e+00  0.0000000000000000e+00  0.0000000000000000e+00  0.0000000000000000e+00  0.0000000000000000e+00  0.0000000000000000e+00  0.0000000000000000e+00  0.0000000000000000e+00  0.0000000000000000e+00  0.0000000000000000e+00  0.0000000000000000e+00  0.0000000000000000e+00  0.0000000000000000e+00  -3.5826823144438759e+10  -3.8071639254066223e+10  -5.7988110767096710e+10  -3.1678179516680962e+10  -1.2122652840088442e+10  -1.9606132057913673e+10  -1.5600752269742526e+11  -9.4863220903767715e+10  1.0429762143950279e+10  1.0756490732893462e+11  3.1693996151873135e+10  6.0305480105019562e+10  -2.2518860356769344e+10  -1.5702240199118916e+10  -3.9472267831207662e+09  2.4659639337567249e+10  -3.0276314015518467e+10  -7.1856607849198486e+10  2.2881616667777645e+10  -8.2636992749302349e+09  -1.1340317135992465e+11  -8.3484171839870300e+09  -3.1651841228400887e+10  -2.6688993568547864e+11  2.4764414225536804e+10  3.1755652635799704e+09  5.3987997624663269e+10  -2.5315751658946927e+11  3.4781076861932220e+11  -8.5696413256484299e+10  -3.7038338376534966e+10  -2.3911142310901970e+10  9.1470199998859665e+10  2.7784454034984956e+09  -1.9292757753067188e+11  -2.3886613970102863e+11  -5.4267810683644394e+10  -1.3019112314885559e+09  -2.6541673713601780e+10  3.5529832889814162e+09  -5.6504497337195511e+09  -3.4606862549726181e+10  1.3097691046258059e+10  5.0086303734354851e+10  -1.1880705013346588e+11  -2.5927757306582989e+10  -5.1651924352429703e+10  1.3572383489942360e+10  -1.6814328419863095e+11  3.7189001113895643e+08  -2.8614021655935406e+10  -4.7911251759124719e+11  -3.1391365886885017e+10  -1.9289823717578854e+10  3.8545592149716163e+09  3.7912519693157585e+10  -2.6222391063826519e+10  -5.4604700158218750e+10  -1.1308269126805562e+11  -5.0710141179559265e+10  2.0177819034080994e+10  -4.6844511158055038e+10  1.2502431462123184e+11  -2.0390821024866676e+10  2.8128698277617194e+11  1.8298115494693921e+11  -1.8044487339384152e+11  -2.7408663971581337e+10  -7.5078491507942520e+10  2.0117228365332553e+09  -5.3119470744427471e+09  -1.3887583403730292e+11  4.1926405535354546e+10  -1.2304708922615065e+11  1.3893597917149619e+11  -3.1959031303373175e+09  -5.5741714540237709e+10  1.2986988368544386e+10  -3.6882409018255089e+10  2.5880873527792137e+10  -1.5601582471663279e+10  5.4260232555443619e+10  -2.8555779294154266e+10  1.2685759789508934e+10  7.6340998360435648e+09  -6.2073927735533043e+10  -8.9639036812432022e+10  -1.3343581557613130e+08  1.0440640620870877e+11  9.1084538912208462e+08  2.1649001732775162e+10  2.2952820804507004e+11  1.3001161091930004e+10  7.2189769243220749e+10  3.5388131801372447e+09  -3.5096613340468063e+10  -1.2704990416043460e+11  6.5667710949692589e+10  3.7581552642608368e+10  -3.1124511643640087e+10  -2.6109161694443928e+10  9.5875933166319675e+09  -1.0541064428689331e+10  5.1127607260633030e+09  -4.9163509413180740e+10  -4.1776203947741351e+11  1.6388891397315268e+10  7.5925031525526978e+10  -3.6509465476694328e+10  -1.3206151491479895e+10  -6.9737106283624039e+10  -6.1953901447830521e+10  2.9229318281559658e+10  1.7690696386010191e+09  1.7913862132177921e+10  -1.5839013489196271e+07  1.0597116081085515e+11  -1.3777440393773837e+11  -1.5034738306337828e+10  3.8725752417080994e+10  -5.2213687558333672e+10  -5.8481545976286545e+10  -3.9781421232227798e+10  4.8727331580518494e+10  6.0559173337713611e+08  -4.2816675595692871e+10  -3.5520135202994194e+10  -7.2117252214387619e+10  -6.7115797818493423e+09  -1.3834296038860283e+10  -2.3595553830250854e+10  -1.6096654098751579e+10  -1.4398230490700867e+11  4.6393862297008324e+10  4.2226669646468693e+08  1.2945004231822364e+09  3.8877472341103180e+10  2.5374390046582050e+10  -1.3863028278890457e+10  2.5444413068877464e+10  -3.4937833027937950e+10  -5.7895850862376724e+10  2.3670804303323410e+10  3.1124964968775803e+10  -1.4302380048961143e+10  4.5315557120238285e+09  -5.8334789740640610e+10  -2.6844244946483479e+10  -1.3194053961193039e+10  1.1659153016904364e+10  -7.1174615832252393e+11  -6.9921685012124710e+10  -1.4054940896949949e+10  8.0017615626097321e+10  -8.8518458540375347e+09  -1.5596823433315137e+11  2.2213908712800620e+11  7.0701282590442780e+10  -2.1546387590565819e+10  1.6616335233237305e+10  -1.7113814428060248e+09  -1.7424602219511574e+10  -8.0503170007378874e+09  1.2546429999891043e+10  -2.0271947572588605e+11  1.2058136680569377e+09  -6.7125576769911890e+09  -2.1153398121264069e+10  -9.2508143587128963e+09  -5.1814375342906517e+10  -1.1352042285456161e+11  9.7002118238042617e+08  -2.7243066097352318e+10  -7.2977919511725836e+09  -9.8671872315044231e+09  -6.1100585366393768e+10  -1.0840952906520367e+11  -3.5650513097696342e+10  1.6885179594405710e+11  6.9801362385268539e+10  1.5378826310354702e+09  -1.9346744012468124e+11  3.2462785365408466e+10  1.0209554158588688e+10  -9.1194323469702435e+09  4.0982558666640274e+10  -1.5528485700132660e+11  -1.8673716293749931e+10  1.4807209385745261e+11  -3.0807685001089294e+10  4.5719921949280701e+09  8.9913918449411488e+09  2.8391453141049445e+11  2.4531450615092262e+10  2.0781379611596767e+10  2.6082003332134510e+10  3.6038819735406429e+08  5.8611126975199357e+07  -4.0512379861564194e+10  -2.2164800596367221e+11  -3.9302982551382673e+08  1.8133395562962692e+10  -2.3432406463967033e+10  3.9483814977184631e+10  4.4010272373368807e+09  1.9372784594025266e+11  1.6073108364501559e+11  4.8351028855454323e+10  2.1664335325709042e+10  -2.2719319131827866e+11  -1.4210111148399139e+11  -5.5730526042804337e+09  4.6902181102403610e+10  -1.6789602663428663e+10  1.4406622996263521e+10  5.4384277724230469e+10  -9.2337657810676224e+10  1.3443949516808765e+10  1.0642603747797752e+11  -2.3071439611437057e+10  1.1332681968518898e+10  2.4209872899984598e+09  -1.3322640936087317e+10  -2.0665858032862909e+09  1.3334410679612698e+11  -2.5024075805917622e+10  1.2321194719179539e+10  8.0090431318083710e+10  4.1094478026982239e+10  -1.0384052175924001e+11  5.8508615988122778e+09  1.0221064940968974e+11  -1.9192041236014316e+11  2.2391566447263447e+10  -1.3997409269273489e+11  2.4260327573916706e+10  1.5511317197983716e+11  -1.4207390460446127e+11  -1.4689055530385530e+10  -1.4726777393471091e+11  -4.7477792795855278e+10  -6.4733799167773676e+09  5.7667313151667114e+10  -8.0816704858748413e+10  1.0686857080056774e+10  4.4226101663784237e+09  -2.4724308645763371e+10  1.6138788326886484e+11  -4.0925706960059705e+09  -1.5769102360028735e+11  2.8124715915818787e+10  1.0909830021023031e+10  -4.3050218948020897e+10  1.8281494155462273e+10  -5.2864022546502266e+10  -4.8670983277119286e+10  -3.5100733269047729e+10  5.7871554639978149e+10  -8.5843054691323746e+10  -1.8991495097268410e+10  4.7970195382841140e+08  7.2260642560252199e+09  2.3796107230982647e+10  5.4023771849284821e+09  -1.4792733926111780e+10  -2.8963485952812738e+11  -1.0590017252004948e+10  1.8059154744368942e+10  9.7586562727904938e+10  4.2411015178921766e+09  9.4425796011120522e+08  6.6836320710733902e+10  2.3920280545748483e+11  -1.0738584412718932e+11  -1.5999392823997705e+11  -9.9525337811959396e+10  -1.6340361108520188e+09  9.4308047166717865e+10  3.1131236071687786e+10  -4.4922386710205555e+09  1.9071202237917946e+10  -2.3376164043441887e+09  -4.8153171458878571e+10  5.2916552834866199e+09  1.2658973543741646e+10  6.7809373802993980e+10  -2.0228885408087555e+08  2.6795547710877384e+10  3.7683736021603973e+10  3.3621103697596416e+10  -2.7989883763359169e+10  4.4343797074538643e+10  -3.6349738090575211e+10  1.2504607194231920e+09  4.4101979635467124e+08  -2.9122865967900532e+10  -1.1712250460310503e+10  -9.5771337954082809e+10  1.0083282420699024e+10  -2.4358900441463585e+10  -1.9934400875420097e+10  6.1810096338581825e+10  -1.4646440024400356e+10  -1.7118409130812012e+10  2.1613437400604042e+10  -8.9641240595297653e+10  1.5231117662387264e+10  7.5903942570850611e+09  -1.7612881352027151e+11  3.0657999384617805e+10  3.9040609733001106e+10  6.2709812070865846e+08  -1.1164674567552280e+10  3.6468525599860620e+09  1.2503431970599239e+10  -5.9731943336854582e+09  -2.8721168028471565e+10  -4.5929581336172428e+09  5.1974706864606316e+10  1.1669274045644775e+10  -6.7507726747046499e+09  3.0147745862004829e+10  4.3230726064512917e+10  1.4218268196474448e+11  -1.6677778706522739e+11  5.6328678105724709e+10  -5.3605809808385323e+10  3.9368734818929405e+10  -2.0839407306602871e+10  5.7590252336340019e+10  -2.6163500922108620e+10  2.2673206201380343e+09  -2.3198216854504124e+10  -1.7246807291002936e+11  -1.0720433291631927e+10  -2.1051273202210220e+11  -5.3173649129745415e+10  -1.3070705714515659e+10  9.2519931803886998e+08  1.6572032849131754e+10  1.1287039294616899e+10  3.4091747227129578e+10  7.8446825244802790e+09  6.7705684577967316e+10  8.4375131509550724e+09  2.3298810732095360e+10  -3.4531672861476166e+10  8.8238695238422348e+10  1.7355065165426846e+11  -7.0997970535935938e+08  1.0868705530997305e+10  -8.2653409718108702e+09  3.9701128198319138e+10  1.7247466199384754e+10  -7.7384307560431976e+10  -1.5986952991567770e+11  -2.6439992713447502e+10  -9.3480613861727676e+10  9.8297778694930477e+09  -1.7559763309202188e+11  1.0246271599335831e+10  -4.6883891129199517e+08  -5.6566120239493187e+10  4.7274720300200600e+10  3.2146468919219448e+10  4.8096993821297207e+09  -4.5254338558717926e+10  -2.8417921323962692e+10  -2.1911878945629200e+10  -9.5108692553851433e+09  -2.0235508213376904e+10  -7.2893676738070648e+10  3.3734440595149776e+10  -7.6786112456317551e+10  3.9482057555955303e+08  1.6333332599112045e+10  2.2694492089501423e+10  -2.6106165257766232e+10  -7.9450481425203266e+09  -3.2400066087655926e+10  -3.5980166686497046e+11  -2.8495778471202472e+11  -2.2197880039111622e+10  -3.1634488016852903e+09  -2.3609927348301158e+09  -6.3470486926611412e+10  4.3548422148893280e+10  6.5054536834961433e+10  -2.1789686492612183e+10  -1.0258545493751709e+11  -8.4826485743481159e+09  -1.5471511313169104e+10  -1.0489478156156865e+11  2.4026821374511364e+10  2.0949701119373814e+10  1.9855266351771763e+10  -4.2894960546178513e+10  -1.4094301905341896e+10  4.3048724287645454e+10  -3.5465356328220848e+10  -2.5156806047782131e+10  -1.4572060722530354e+10  5.4900969470454941e+10  3.4467619982261448e+09  -4.6335751856519647e+11  -2.0453274604463673e+10  6.8568434899874067e+09  -1.0817931827745053e+11  2.8413075877499111e+10  7.3968037116838486e+10  -4.6647425521664795e+10  -3.4701542654152246e+11  -5.3566240769415504e+10  -1.4122542201758608e+08  -5.0530054667568579e+06  7.7994540889266937e+10  -3.4541579638508716e+11  -4.5479042034213943e+09  -5.3064580240746773e+10  -3.5574689896146637e+10  6.3761571338471973e+08  -4.3459472042460138e+11  -7.0991606265819962e+10  -1.9105223405887796e+11  -3.5451535440461545e+09  6.4057479318876495e+09  -8.0867289310218239e+09  -9.9652211691318607e+09  -1.4790615345167506e+08  -6.3132202316661842e+10  -4.3379195172748375e+10  -3.5731294164031952e+10  1.9685709389648129e+10  -8.9304631836943314e+10  8.5154625828856216e+10  -6.5518724203978529e+09  1.2495933325428251e+10  5.8696564877441994e+10  9.0570394997341888e+10  4.1205777949525627e+10  1.2107855864606108e+10  3.4837255603871391e+10  -9.1040185428290146e+10  -2.1969889846227440e+10  2.9826534958595718e+10  -1.2779015483378977e+10  -4.4466778602163208e+10  -1.2577549921333136e+10  1.2496520947290442e+10  3.2080706422579815e+10  -2.3030207309730373e+10  5.7471427446977921e+10  -1.3198492229102848e+10  -1.5806727147575208e+11  -1.7697214712956959