<?xml version="1.0"?>
<VTKFile type="UnstructuredGrid"  version="0.1"  >
<UnstructuredGrid>
<Piece  NumberOfPoints="1419" NumberOfCells="2698">
<Points>
<DataArray  type="Float64"  NumberOfComponents="3"  format="ascii">0 0 0  0 0.41 0  2.5 0 0  2.5 0.41 0  0.6037785239450768 0.1825999010323131 0  0.6008642046158557 0.2169834987658825 0  0.25 0.2 0  0.15 0.2 0  0.2489897948556636 0.21 0  0.2489897948556636 0.19 0  0.5999917720092635 0.1998309854728043 0  0 0.3807142857143437 0  0 0.3514285714286952 0  0 0.3221428571430699 0  0 0.29285714285744 0  0 0.2635714285718054 0  0 0.2342857142861561 0  0 0.2050000000005308 0  0 0.175714285714732 0  0 0.1464285714289574 0  0 0.1171428571431897 0  0 0.08785714285737878 0  0 0.05857142857161107 0  0 0.02928571428580012 0  0.03015443760436003 0 0  0.06140001986583606 0 0  0.09377624077125973 0 0  0.1273239957535082 0 0  0.1620856860351972 0 0  0.1981052433264291 0 0  0.235428184091502 0 0  0.2741016576309132 0 0  0.3141745521465447 0 0  0.3556974926295285 0 0  0.3987229542472677 0 0  0.4433053055141081 0 0  0.4895008759286886 0 0  0.5373680609405097 0 0  0.5869673343216626 0 0  0.6383613676634521 0 0  0.6916151138468254 0 0  0.7467958595648856 0 0  0.8039733463919316 0 0  0.8632198139502143 0 0  0.9246101326867038 0 0  0.9882218810934433 0 0  1.054135445558498 0 0  1.122434100542598 0 0  1.193204177141305 0 0  1.266535089879536 0 0  1.342519516046404 0 0  1.421253448503939 0 0  1.502836389106271 0 0  1.587371439758838 0 0  1.674965418777374 0 0  1.765729001825544 0 0  1.859776908880082 0 0  1.957227977487062 0 0  2.058205329869943 0 0  2.162836591189951 0 0  2.271253957290865 0 0  2.383594446803425 0 0  2.5 0.1024999999997612 0  2.5 0.2049999999994743 0  2.5 0.3074999999997183 0  2.383594446803656 0.41 0  2.271253957291315 0.41 0  2.162836591190598 0.41 0  2.058205329870775 0.41 0  1.957227977488067 0.41 0  1.859776908881246 0.41 0  1.765729001826854 0.41 0  1.674965418778818 0.41 0  1.58737143976041 0.41 0  1.502836389107956 0.41 0  1.421253448505726 0.41 0  1.342519516048286 0.41 0  1.266535089881505 0.41 0  1.193204177143353 0.41 0  1.122434100544716 0.41 0  1.05413544556068 0.41 0  0.9882218810956305 0.41 0  0.9246101326886647 0.41 0  0.8632198139519631 0.41 0  0.8039733463934788 0.41 0  0.7467958595662458 0.41 0  0.6916151138480078 0.41 0  0.6383613676644679 0.41 0  0.5869673343225223 0.41 0  0.5373680609412221 0.41 0  0.4895008759292634 0.41 0  0.4433053055145528 0.41 0  0.3987229542475914 0.41 0  0.3556974926297398 0.41 0  0.3141745521466497 0.41 0  0.2741016576310038 0.41 0  0.2354281840915826 0.41 0  0.1981052433265003 0.41 0  0.1620856860352591 0.41 0  0.1273239957535623 0.41 0  0.09377624077128965 0.41 0  0.06140001986584975 0.41 0  0.03015443760436654 0.41 0  0.2497468076502589 0.2050254481002335 0  0.2497468076502614 0.1949745518997913 0  0.2469965252529372 0.1829317073451959 0  0.2439893735792749 0.1762316384219906 0  0.2400332147834255 0.1700443375285386 0  0.2352133972704371 0.1645032867342007 0  0.2296339016332438 0.1597280261969788 0  0.2234150974217223 0.1558215752574715 0  0.2166911463437691 0.1528682099456123 0  0.2096071079204251 0.1509316448471593 0  0.2023158100364996 0.1500536585536553 0  0.194974551899914 0.1502531923497262 0  0.1877417105387872 0.1515259415822739 0  0.1807733240461124 0.153844448527136 0  0.1742197252835808 0.15715869474974 0  0.1682222986673531 0.1613971801805478 0  0.162910430003803 0.1664684656256651 0  0.1583987151779087 0.1722631454351573 0  0.1547844879126891 0.178656207771761 0  0.1521457199348551 0.1855097315605723 0  0.1505393388476355 0.1926758619366523 0  0.1505393388476328 0.2073241380633295 0  0.1521457199348437 0.2144902684393899 0  0.1547844879126531 0.221343792228163 0  0.1583987151778488 0.2277368545647528 0  0.1629104300036858 0.2335315343742052 0  0.1682222986671726 0.2386028198193036 0  0.1742197252833576 0.2428413052501257 0  0.1807733240458683 0.2461555514727623 0  0.1877417105384929 0.2484740584176516 0  0.1949745518995776 0.2497468076502398 0  0.202315810036185 0.2499463414463592 0  0.2096071079201568 0.2490683551528932 0  0.2166911463435495 0.2471317900544655 0  0.2234150974215506 0.2441784247426195 0  0.2296339016331197 0.2402719738031125 0  0.2352133972703547 0.2354967132658811 0  0.2400332147833751 0.2299556624715287 0  0.2439893735792577 0.2237683615780412 0  0.246996525252926 0.2170682926548348 0  0.2540549253111284 0.2294248489648985 0  0.26158705717028 0.212985366177644 0  0.2817931515889779 0.2089446946438065 0  0.2495164880032489 0.1970628993018288 0  0.2993736167936499 0.211135485927134 0  0.2765427713090712 0.235975286792787 0  0.4684314640935394 0.1321065891684184 0  0.2854160035848055 0.2755992570865328 0  0.2917038119859022 0.0009099460105435166 0  0.3261589954642828 0.1670888302750483 0  0.3369707598788593 0.2167956607907174 0  0.3383778158579744 0.2332054186677294 0  0.3312106512190899 0.2168797745286368 0  0.3600010106537344 0.2180057407218908 0  0.3561298725551073 0.1898163760004251 0  0.3734972009461539 0.1617041171970334 0  0.3500051437490605 0.205390404643081 0  0.3936024771701712 0.2238504278690448 0  0.3830388918793052 0.2165446944366023 0  0.3876644725659211 0.2394572511629926 0  0.3853729254152261 0.2556511696541944 0  0.4004285714153235 0.273023493316194 0  0.4834633357230733 0.07866013308440058 0  0.4224157808288234 0.2508391381242345 0  0.3197442794031453 0.4391614655815693 0  0.4455044399093183 0.2259444201068463 0  0.4259125557351374 0.2776702102170867 0  0.7646693553325419 -0.4151578201623692 0  0.4860612602148858 0.1692854511595798 0  0.6114118232190214 0.01631623145457928 0  0.4284504045447549 0.3252062228636049 0  0.3414408264414082 0.5133878468129516 0  0.5097710644224526 0.1903278410814013 0  0.574527841146939 0.04640486684186067 0  0.2863389158179108 0.7262115263280552 0  0.4166553678811858 0.4438496610196771 0  0.4999554447127088 0.2608226732832297 0  0.5168419631578915 0.2482916073067611 0  0.530445220136705 0.2376996679357636 0  0.5332477042570398 0.2796984861507577 0  0.5605252631847027 0.1785909499760264 0  0.5626155227779835 0.2191489911511212 0  0.573786399492864 0.2380421631882261 0  0.5649747204738946 0.191800908527815 0  0.5923730429327232 0.2182546663798688 0  0.5887204245315868 0.221119114768528 0  0.596160064752714 0.2133466530676003 0  0.6011241372750236 0.1884039778383057 0  0.5939294922642665 0.1843764674873772 0  0.5753114973009661 0.2080489135728136 0  0.5961174447253946 0.1628471826530143 0  0.5546803520452674 0.2140621262059096 0  0.5759994761324859 0.1762235487529285 0  0.5617704061293842 0.1804601745625802 0  0.5087094526652333 0.2043949322263953 0  0.5202749507029101 0.1928482138576636 0  0.5367863617779245 0.1847852684312346 0  0.5258301481952384 0.1876009001368451 0  0.511532903531539 0.2219346957710684 0  0.5120623574188109 0.1885822190194927 0  0.5004703913811986 0.1856062229728629 0  0.4945025568531987 0.192672264521342 0  0.4772890154581104 0.1991720222305061 0  0.4682171694844692 0.1902148122459808 0  0.4858863589660714 0.1955888224241684 0  0.4590977285850595 0.1867491699747353 0  0.4584674851160923 0.199326803080742 0  0.4485143939074341 0.1640625179359001 0  0.431397842778769 0.1900179163781849 0  0.4488959861823934 0.2212912589352117 0  0.441682455223802 0.2082705283431809 0  0.4141705055931556 0.190884158092563 0  0.423744160971226 0.196747783375648 0  0.4087408901617663 0.1553861211234416 0  0.3829711844494531 0.2010825193848261 0  0.3903646782084284 0.138759857547866 0  0.3903319043138849 0.2596359129411216 0  0.376984638273927 0.1803043663599886 0  0.3742841003960929 0.1799356089007726 0  0.3631040781077745 0.2161860822500737 0  0.3354171259785034 0.1430057576805459 0  0.3475955409148855 0.3505848538513164 0  0.3180358898060226 -0.002634633762940585 0  0.3452371668834814 0.4611143424977932 0  0.3237233939510385 0.04777263946685505 0  0.3208023481728277 0.3538725424391802 0  0.2945227842926465 0.1139649114389318 0  0.3029847694074486 0.2175993684632197 0  0.2877281499318086 0.1494618738738678 0  0.2959423875747777 0.2184248366984192 0  0.2827126224554971 0.1771655089247823 0  0.2749156838625689 0.2189580494526447 0  0.2650556614750988 0.1881426188511653 0  0.254424216632074 0.1841161456833013 0  0.261612363887641 0.2029931810877657 0  0.5883933762997517 0.2041632212051894 0  0.5734588915251527 0.1984015128576753 0  0.5491252544172717 0.197172197126346 0  0.2761200466732739 0.2003917531027059 0  0.5324019300461745 0.2133510361591592 0  0.295263445398275 0.2059664635280826 0  0.5146538626463132 0.2096541621131873 0  0.313118737759113 0.1933248194861051 0  0.3270273894693011 0.1990232257771022 0  0.5117783397156904 0.1920286830092308 0  0.3638324687815334 0.1902604228572199 0  0.487991723961953 0.2057093400023705 0  0.3384526454135056 0.2226738034076192 0  0.3804973540548964 0.2064974259237232 0  0.4673504809950125 0.1929626507639477 0  0.4972434608177999 0.2042806472660987 0  0.3923890301565572 0.2172371031536079 0  0.4525283264665287 0.1956444850975362 0  0.4073084310282771 0.2197435806545235 0  0.4413580497556901 0.2133602872343916 0  0.4269465877371905 0.2065698090529095 0  0.3571048221602172 0.2068622380304689 0  0.5632905393766275 0.2041690474194124 0  0.2706689427202849 0.2358686269053923 0  0.5815823055780568 0.1976068962799016 0  0.2691351705044476 0.2048312392324848 0  0.5320335876391219 0.1958483880038518 0  0.5408119799319394 0.2079467421189325 0  0.2823899712347902 0.2028440933684496 0  0.3232668482436067 0.2221358901553847 0  0.4911516533126771 0.1973385990910634 0  0.5137936028877528 0.2013311767116417 0  0.3790173439911059 0.1904228413457294 0  0.4717911242724732 0.2020510467011142 0  0.3348319574762431 0.2152729312072411 0  0.3928045743909299 0.2187272976956082 0  0.4557647829267211 0.1949768421923965 0  0.502915919299645 0.1916996848958722 0  0.3973781707744493 0.2332188380364682 0  0.4421877154887375 0.2027102985293968 0  0.2579708478869824 0.2094274030376197 0  0.2610766057003995 0.1997060652875969 0  0.59200604397
[...]
<PointData  Scalars="f_40-2"> 
<DataArray  type="Float64"  Name="f_40-2"  format="ascii">-3.9526665964741143e+12  1.5884000147524131e+12  0.0000000000000000e+00  0.0000000000000000e+00  6.0905849791030106e+10  3.3234852808595233e+11  0.0000000000000000e+00  -4.1494842765096392e+12  -4.0570320697853125e+11  7.1157955805500229e+10  -1.3863875752322339e+12  -2.4556847768728687e+12  3.0694756855341968e+11  -4.3455217000628400e+11  -2.2062841896818286e+12  -3.1190218023911128e+12  -2.2840266737408003e+12  -1.0952570881976873e+12  -1.1193847691455566e+11  -1.2275848215689138e+12  5.1520009828492683e+10  -5.0905044652099512e+12  -2.6567068217309297e+12  -3.3840091693145747e+12  -2.8862943420450957e+12  -1.7963182939071145e+12  -2.2936192744237236e+12  -2.0485888012599526e+12  -2.0626315326164187e+12  -8.4576156011937122e+11  -5.2669479132559192e+11  -6.0672358921066418e+11  -5.7285718608195935e+11  -2.8980235314170099e+11  -3.0952030020510883e+11  -1.4860175878054669e+11  -8.5567925768195740e+11  -9.1383245571251331e+11  -3.6591567427786176e+11  -7.5776479722805923e+10  1.7049729962427094e+10  5.6016387069783691e+10  2.4830684989656543e+11  3.4184888775782489e+11  -1.8039521590187714e+10  1.4617762276812363e+11  -1.1742421353332793e+11  -9.6667306279125320e+10  7.8039538822831558e+10  -1.2001889456435677e+11  4.9884680886378002e+09  1.9811941194458549e+10  2.2097433085130692e+10  2.7790661927771191e+10  -1.0376467150877077e+11  -1.8311154176391994e+10  -6.6092584117336792e+10  6.9638268927616867e+10  1.2895772316422246e+11  8.8084693826143845e+10  2.8277635861639328e+10  1.3450961823188269e+10  0.0000000000000000e+00  0.0000000000000000e+00  0.0000000000000000e+00  -1.6380181413272087e+10  9.6527106015844746e+09  -8.2570038217243385e+09  1.4605164997785786e+10  1.6802964394950885e+11  4.0598691144678551e+10  -1.4434064630754656e+10  4.1713431105464425e+09  -5.1082889622471886e+10  -1.0902646286159212e+11  -8.9090641655175186e+10  -5.1424951474665848e+10  -1.3685739698927296e+11  1.0002569941586727e+10  1.0058940497234322e+11  1.2888390351911089e+11  1.7608030922931671e+11  3.9368902004124713e+11  -7.5368952463189583e+09  1.0822124710539806e+11  -6.0276485781709702e+10  1.7161961092074026e+11  -2.0971500110918784e+11  9.4531655261023083e+11  1.5060159459536197e+11  9.9630207626796790e+11  9.5165053959055078e+11  7.5026681478500598e+11  1.3667047437877903e+12  9.7749248554767126e+11  7.4608320715243286e+11  9.7926938944840100e+11  9.0129767015344873e+11  2.1241989010816780e+12  1.1412067112271577e+12  6.6003398465260669e+11  -3.6986789833546936e+10  -1.2773238803465254e+12  0.0000000000000000e+00  0.0000000000000000e+00  -9.6472039721876831e+10  -2.4527211335905783e+11  5.7408904758121899e+11  2.3589056676076405e+10  -3.8663882420273035e+11  2.5031549912184604e+12  -2.4784401508558740e+12  -2.0063758918187881e+12  3.1078908857685913e+12  -1.9456608625663037e+12  -2.0001819013766914e+12  -2.0037132840492554e+12  -4.1606967320497969e+12  -3.6576546344207056e+12  -5.8422011208727861e+12  -4.2950457845160562e+12  -3.8191331909491509e+12  -1.3472701716180200e+12  -2.8727952848643218e+12  -4.8334776096907197e+12  4.3218871131841621e+12  1.7479587103421885e+12  -1.4866288586901409e+12  -1.5977134978594055e+12  -1.2032251082371322e+13  2.0800479375490364e+12  -1.2716637593679871e+12  1.5808123708606907e+12  1.6462027798242539e+12  1.0213021916505284e+12  8.2942183899276871e+10  2.0193223809942444e+12  2.3946092835339497e+12  2.4991838386117358e+12  2.8383970760246714e+12  1.3076729911286169e+12  9.4263283328451794e+11  -1.5857211220067957e+11  2.0806118104384772e+11  -4.7034786828861816e+11  9.5478092127436600e+10  -2.0882402169378162e+11  1.5458335656422397e+11  8.7440679373897842e+10  1.7168556700395816e+11  1.0280223103825560e+10  -4.3004134646589298e+09  -2.3774862220486393e+10  -4.5120285506848901e+11  2.7087383473595477e+11  1.6124802857116528e+12  2.3574848613907256e+12  -3.6483517632787524e+11  4.1295484027311928e+10  -1.0111419319946968e+11  2.5169192595564801e+11  -2.1898775219044385e+11  -1.0661333693735712e+11  7.2518998642492322e+11  8.4040360405504532e+10  -1.6024493797204776e+11  2.7757551260917688e+11  5.4120817646545227e+10  -4.1050059872320976e+10  4.4337386896043816e+09  4.3020253516803131e+09  -7.9212063264183974e+08  1.0975837125827236e+10  -2.7400577124565144e+10  1.1255004800896300e+11  -7.1931668530272644e+10  9.7341732744706131e+10  -3.3004483782022667e+10  2.8633451355152612e+09  -2.5128250681533289e+09  1.3796260222490284e+10  5.4914190116683512e+09  -3.1594416743581692e+10  -4.1612613149121468e+10  1.1328286754868509e+11  1.1503838197107754e+10  1.4108781856525396e+10  3.0859075899498394e+10  6.4763773918160217e+11  3.5347888677050525e+11  6.6104769023659424e+11  1.1815977127052876e+12  2.5215718287547565e+10  2.4315258896923676e+11  -9.5517375235021851e+11  -3.5161110533308856e+11  3.4241835145380108e+10  -6.9841024033631851e+10  8.5045737720940536e+10  1.0579016477466733e+11  -1.5892232010955640e+11  -2.8588234855087654e+10  -2.0804963477468876e+10  -2.0266652615085971e+11  3.6070508786380028e+10  -1.3078221851779904e+11  -8.2705549392349503e+10  1.4914981865267599e+11  5.3950681283941229e+11  -1.7616522352400470e+11  5.3499306950437813e+10  -3.4680372344335614e+11  2.7675209587797583e+11  8.0310844255908435e+11  1.7514808132980466e+12  2.0963108608779318e+11  2.6498125555559019e+12  6.0216870869262108e+10  -6.3719258744579895e+10  1.4712735960845032e+11  -1.3612248419989033e+10  -1.0545973054036337e+10  -3.1406739849378939e+09  -4.1638982142271671e+09  2.0769000687890038e+10  3.2418125661805052e+08  -4.0826049171708900e+08  -2.8001919323207426e+09  1.5282710391027981e+10  -6.5150093632363758e+09  -2.1078905452293011e+10  1.5271344612363339e+11  5.2837310798973818e+09  9.8190356874021484e+10  -5.7351617256958023e+10  4.1711364621401024e+10  -3.1964592517992649e+10  0.0000000000000000e+00  0.0000000000000000e+00  0.0000000000000000e+00  0.0000000000000000e+00  0.0000000000000000e+00  0.0000000000000000e+00  0.0000000000000000e+00  0.0000000000000000e+00  0.0000000000000000e+00  0.0000000000000000e+00  0.0000000000000000e+00  0.0000000000000000e+00  0.0000000000000000e+00  0.0000000000000000e+00  0.0000000000000000e+00  0.0000000000000000e+00  0.0000000000000000e+00  0.0000000000000000e+00  0.0000000000000000e+00  0.0000000000000000e+00  0.0000000000000000e+00  0.0000000000000000e+00  0.0000000000000000e+00  0.0000000000000000e+00  0.0000000000000000e+00  0.0000000000000000e+00  0.0000000000000000e+00  0.0000000000000000e+00  0.0000000000000000e+00  0.0000000000000000e+00  0.0000000000000000e+00  0.0000000000000000e+00  0.0000000000000000e+00  0.0000000000000000e+00  0.0000000000000000e+00  0.0000000000000000e+00  0.0000000000000000e+00  0.0000000000000000e+00  0.0000000000000000e+00  0.0000000000000000e+00  0.0000000000000000e+00  0.0000000000000000e+00  0.0000000000000000e+00  0.0000000000000000e+00  0.0000000000000000e+00  0.0000000000000000e+00  0.0000000000000000e+00  0.0000000000000000e+00  0.0000000000000000e+00  0.0000000000000000e+00  0.0000000000000000e+00  0.0000000000000000e+00  0.0000000000000000e+00  0.0000000000000000e+00  0.0000000000000000e+00  0.0000000000000000e+00  0.0000000000000000e+00  0.0000000000000000e+00  0.0000000000000000e+00  0.0000000000000000e+00  0.0000000000000000e+00  0.0000000000000000e+00  0.0000000000000000e+00  0.0000000000000000e+00  0.0000000000000000e+00  0.0000000000000000e+00  0.0000000000000000e+00  0.0000000000000000e+00  0.0000000000000000e+00  0.0000000000000000e+00  0.0000000000000000e+00  0.0000000000000000e+00  0.0000000000000000e+00  0.0000000000000000e+00  0.0000000000000000e+00  0.0000000000000000e+00  0.0000000000000000e+00  0.0000000000000000e+00  0.0000000000000000e+00  0.0000000000000000e+00  0.0000000000000000e+00  0.0000000000000000e+00  0.0000000000000000e+00  0.0000000000000000e+00  0.0000000000000000e+00  0.0000000000000000e+00  0.0000000000000000e+00  0.0000000000000000e+00  0.0000000000000000e+00  0.0000000000000000e+00  0.0000000000000000e+00  0.0000000000000000e+00  0.0000000000000000e+00  0.0000000000000000e+00  0.0000000000000000e+00  0.0000000000000000e+00  0.0000000000000000e+00  0.0000000000000000e+00  0.0000000000000000e+00  0.0000000000000000e+00  0.0000000000000000e+00  0.0000000000000000e+00  0.0000000000000000e+00  0.0000000000000000e+00  0.0000000000000000e+00  0.0000000000000000e+00  0.0000000000000000e+00  0.0000000000000000e+00  0.0000000000000000e+00  0.0000000000000000e+00  0.0000000000000000e+00  0.0000000000000000e+00  0.0000000000000000e+00  0.0000000000000000e+00  0.0000000000000000e+00  0.0000000000000000e+00  0.0000000000000000e+00  0.0000000000000000e+00  0.0000000000000000e+00  0.0000000000000000e+00  0.0000000000000000e+00  0.0000000000000000e+00  0.0000000000000000e+00  -4.0858566825985065e+11  1.5783298681714978e+12  1.1999086464695584e+11  7.9184814705363696e+11  -5.9164865786556030e+11  -8.8651996598620923e+11  1.4129198110909964e+11  -5.6567247170525403e+11  -2.3295815586632397e+11  -7.5191835712876556e+10  -5.0111088132100830e+12  -7.6717704966351514e+11  -1.8987292321641577e+11  7.7527684609107178e+11  3.9860231034584076e+10  -9.1320319184898560e+11  -7.0841284521157722e+09  -2.3653341950783655e+11  -2.1764737497521316e+12  -4.4452811764178809e+11  2.9849099226819336e+10  3.2862303246056018e+11  -1.9284987852416889e+10  3.8738702411349872e+11  3.5147900753430396e+11  1.7323825000056428e+12  -3.4691563680822620e+11  -7.6962785017344568e+11  -5.1544629274529865e+11  -1.3832132522604340e+11  -3.4128102536050690e+11  2.6192379091844673e+12  2.1105053361466385e+10  -1.1349644034255950e+12  7.8065258489215613e+11  1.7618004849730914e+11  -1.6740312426717542e+11  -3.0036768267563562e+11  4.6280664009788861e+11  -2.6725911124349237e+11  -2.3548909052257571e+11  -3.3685169420792461e+12  1.2013649554886494e+12  -5.4944116756518671e+11  2.2258872464685922e+11  1.3848433176659158e+12  7.6270553939844348e+11  -2.6685073853794370e+12  -1.6474655262627220e+10  4.7087369375085030e+10  -2.9580075461674213e+10  2.3918692841403404e+10  -4.5261168555135205e+11  1.7215992498650040e+10  -2.9548162993192633e+11  -3.5032626446283218e+12  -7.2036012519593185e+10  7.1425076189832245e+10  -1.3763904682884705e+11  -2.5394373248229458e+10  -2.4224099356822437e+11  -3.3755464803123898e+10  5.5901742632225305e+11  1.2030083436885398e+12  1.2149294918326852e+11  6.5821794048337439e+11  -1.1852634169523591e+12  2.5976176348058662e+12  4.6550436359310669e+11  -1.6220921482656842e+11  -8.4634347360695053e+10  -6.3337159430304419e+11  1.0198158770213204e+12  -1.1307988922520586e+11  1.4256267258173933e+10  9.6118892686869763e+11  -7.1379962018272974e+11  -2.5902990899476968e+12  8.9865744292194092e+11  2.3642731434695752e+12  3.0986672585648066e+12  -2.1000816960739265e+12  -1.4023260153636771e+11  1.3841318790808789e+12  -2.7682657918110425e+11  6.2248780041756458e+11  -5.8141540175772302e+11  7.1588064969105493e+11  -2.0663867030557642e+11  3.7103372004586273e+11  4.0565217515137585e+11  -7.1463798457295561e+09  5.5449853724316638e+11  -1.7909259832318005e+10  -3.8225677798818115e+11  1.9674816201010776e+11  -1.2371066650372161e+12  -2.3874098987982162e+11  -3.9578582579635146e+12  -3.3421754327368494e+11  -2.7305155212850128e+11  -8.3260711633208228e+11  1.9296181791075381e+11  4.6159862403596753e+11  -1.5946693397940295e+12  1.2273226099924078e+11  3.5466678199635266e+11  -8.9157055209521240e+10  5.0181708194481055e+11  1.6295476556187385e+12  1.1361399217425096e+11  2.1207648983665997e+11  -1.3127708257809523e+11  8.6540993418712372e+10  -4.7065492604328574e+12  1.5309815579184843e+10  1.5066315523389343e+12  6.4995440345558276e+11  1.2055540099035452e+12  6.3104742041883069e+11  -5.5556203840410400e+11  -4.9240836413905296e+10  -4.7010549481992432e+11  -3.0614528224592954e+12  -6.5667236966153130e+10  -4.7005605064897388e+11  -5.8844109766203088e+11  1.5349491026527323e+10  -4.2775952286236948e+08  1.4903969418781311e+12  1.5389626236688809e+12  5.9794936775581894e+10  1.3062142487066766e+11  -9.8017970627059574e+09  -1.1619715715143246e+11  -5.0006523117347821e+11  1.1384745740561609e+12  -6.6757002620835596e+11  1.1159434199480759e+12  -3.3069139057203906e+11  1.2281069847846016e+12  -3.4366500283418640e+11  8.0814057382303198e+11  -8.9053496617317834e+11  2.4538712718290811e+11  2.5491695353994122e+11  -1.5310819140490201e+11  1.3294798846659617e+12  -1.5158422938873333e+12  -2.0096889144972528e+11  -4.5588284363289227e+11  1.2069283043465876e+12  -1.8097982608506511e+12  1.0535305733634781e+11  -1.2820519274154661e+12  -7.9855716589477539e+10  1.8036010035447882e+11  1.0454075150496056e+11  3.9782465729593823e+11  2.3154617119721225e+11  3.5737261655416272e+11  -1.4705206319881174e+12  1.2290513332038582e+12  8.3040776330940018e+09  2.4719354059223798e+08  -1.8569119907475292e+10  -1.2326360743221765e+11  9.1215660345246460e+10  -1.4323456680429544e+11  2.2104575936449438e+11  -5.9614496292939384e+10  6.3139193144290015e+11  -7.4042268802150330e+11  2.0926619954521561e+11  8.2710779112061722e+10  2.3816272540183578e+11  1.1084406606882452e+11  7.5003245364591187e+11  -5.2419991281061316e+11  -1.9511338929238660e+11  3.6966869239626898e+11  1.5050570405958167e+11  2.0740514872754993e+11  6.5418874751435226e+10  -3.7946842399082061e+12  -5.7482862425298877e+11  -8.3989359125441223e+10  -9.3822377833697498e+11  5.5742162541572571e+11  1.2481394683149644e+11  -9.1834404962141565e+11  -1.1765352146715996e+10  1.4223628862205051e+11  2.3441739545358838e+12  -2.9032006854683417e+11  7.6293725081338245e+11  1.2627268077640263e+10  -1.5580449467185122e+10  9.4486285400377344e+11  -6.2757724109084094e+11  -7.2368444571362190e+09  -1.8201521636229797e+12  5.9406505430900220e+11  1.2101368476509373e+12  -3.4666405193337451e+11  -3.0348011542224377e+11  -1.2220476783464072e+12  -1.8186825046503567e+12  1.8304763226837771e+12  -2.6029906362827124e+11  -6.3021810922430554e+11  -2.8517938381614301e+11  -7.7449831656350879e+11  -4.7910203008297595e+11  1.1572948076968455e+12  2.1382519866173877e+11  -1.9791152411741101e+11  -5.1885547707312363e+10  7.4465582177780777e+10  5.4881753452862964e+11  1.4575705624792722e+12  2.6809618853210663e+11  -3.4300466443438105e+12  2.8506597667883271e+12  -7.2030751198628433e+10  5.1010438416344383e+10  1.5757418326224356e+11  3.9293566891472833e+11  -1.0701068887276693e+12  7.4677962854014783e+11  1.6587158990654501e+10  -6.8333137104341831e+09  -2.1325147191554614e+11  -4.1703856806787238e+11  5.5537744665764734e+11  -3.2166214424303525e+12  -4.6497722421647656e+11  4.9298696910154121e+10  -6.9455699174499158e+11  -3.4311778156119006e+11  -2.2731897987311658e+11  1.0941516077844856e+12  -2.5949785848002686e+12  3.4267578205885212e+10  1.1119563026525693e+12  -1.1918509775838168e+11  1.7328985676624112e+11  1.6227543174317007e+11  1.5198529178391157e+12  -1.7390839003189545e+11  -2.0582584369489836e+12  -6.9113121003044531e+11  2.6520896051005771e+12  2.4421396389886909e+12  -3.5245728940613391e+11  3.1107695851658745e+12  7.1190495535602051e+10  -2.2136895722829404e+12  1.6044437762322220e+11  1.0854390716092611e+12  -3.6083562506750049e+11  -5.0123406064276105e+11  -1.1632252545787856e+12  1.1880580141484958e+12  -3.5904298170291138e+12  1.9058305879474585e+11  -3.5831806758186871e+11  5.2267358377778435e+09  -1.6165504763599260e+10  6.9752517336954056e+10  -3.2126695172431281e+11  6.7339419110016241e+09  2.7625284990364960e+10  -1.9171513383838909e+12  1.6855217885588779e+11  1.3137428127854417e+11  -3.2695728180190582e+10  -1.2291844348100151e+12  1.8769191166957941e+11  4.4106826944656593e+10  -1.4235084147737571e+12  -7.5769963823293152e+11  -1.6350328274536801e+11  4.7241305904796484e+12  5.2081694858425217e+10  1.5515061642475767e+12  -2.0826656422417671e+10  -1.3597635156231488e+11  -2.9831218263219644e+12  1.6638432802641879e+11  1.5594077535692483e+12  -9.7735322168523389e+11  1.9743425905183215e+12  -5.8779280739805153e+10  -1.0050329877254988e+10  -2.5150305296154996e+11  3.4906008244987314e+12  5.5730707686271753e+11  1.3824091334183725e+11  1.3320252773285339e+12  8.4461556888300980e+10  -1.9445124143046715e+10  3.5548290069498840e+10  6.3071138665717636e+10  1.4267198242668643e+09  -1.4118449744291830e+11  2.6018475677597652e+10  2.4957477955846401e+12  -3.9563340935889941e+11  9.5126351545803198e+11  -5.4722824887764685e+11  2.1593859633995163e+10  9.6734163614973169e+11  -8.4707011988136154e+10  7.4379801883523389e+11  -4.5239546005544598e+11  5.9174768099483325e+11  -1.3951074627153809e+12  8.5408004788504074e+10  -1.8476303685409387e+11  3.2050328791984678e+12  1.4386910598581504e+12  -2.2664687628905571e+12  -3.1974944095816602e+11  7.1720782806072220e+10  -1.2360248166357595e+12  4.3708444392963727e+11  1.5816948302375205e+12  4.3126821425870490e+11  -2.5911641539233618e+11  -5.6425363211563831e+11  4.4708909510833635e+09  -4.3815443848013538e+11  3.1053690785849888e+10  -1.7649982069318640e+12  3.5368559445058495e+10  1.7445458939113135e+11  1.3243587361792378e+12  5.0724654375786476e+10  -2.9811160888502344e+11  1.0727934846221412e+12  2.9717086873601608e+10  1.0618565720493013e+10  -2.8630651754064526e+11  5.6942532012926468e+10  1.2179129452927668e+12  2.2550698086992542e+11  1.1133936014158672e+12  3.8502171044591119e+11  -5.3073576126934914e+10  1.4905367106005354e+12  2.3611639514688879e+11  1.2049130311144976e+12  5.8320744838648613e+10  -3.9732940289112543e+11  -3.0652832165100500e+11  7.8099055318684851e+11  -4.3718621927997937e+11  1.7006322057029319e+12  2.8027334035411646e+11  1.5181298004436292e+12  6.5284407644347458e+10  7.3591390634832397e+11  -2.0413674459214763e+12  4.0386976760361011e+11  -1.6722619443902800e+12  5.1967944779791895e+12  -4.2683138830402509e+11  1.5066925738638521e+12  1.3172221185164722e+12  1.4281987135392341e+12  -1.0919457884125594e+12  -7.3424218019603369e+11  -5.6921538890862109e+11  -1.0036649120860140e+12  -2.0650238939952817e+12  -2.7623369345981382e+12  1.1212225680598728e+12  5.0584285162094688e+09  2.2509865093899722e+11  -1.4403360782000034e+10  5.1113384134947212e+10  3.0539200993564178e+11  6.1126893993519385e+11  9.7659530173442123e+10  -3.4642048332264056e+11  2.4286940142217232e+10  -3.4708441918905785e+10  8.1842293676507349e+11  -1.0484728192651316e+12  1.0252981665977826e+12  -8.1300251299334152e+10  -4.6911624850323596e+11  -2.9981964228463535e+12  1.8603107641219250e+12  -9.1771640164992325e+10  5.0602912859058723e+10  -1.1633789827002930e+11  3.2253366793461859e+11  -6.3292516337392603e+11  7.7725478817143530e+11  4.8719854899212323e+11  5.5234117857757263e+11  6.5683319863056348e+11  3.4070223342791010e+11  1.0729102246664847e+12  6.2798189274896252e+11  7.3211470869817517e+11  -9.6466709599059375e+11  -3.4611195208304694e+11  1.7121540198863723e+12  -3.7994464140735132e+11  3.0200725531231211e+12  -9.9152060060282154e+09  -3.4946339374630409e+10  3.0760269152217743e+10  -3.9306440552145966e+10  3.3443794089179878e+12  -3.4778939022375958e+11  -3.3457905936140227e+09  2.9760109435400562e+11  2.2168069055003361e+10  2.2115025231605200e+11  2.2079992259098566e+11  -2.8813368798792224e+11  1.0701531549995309e+12  4.6693728382461664e+11  -9.3041043064975281e+10  -1.6528819710598618e+12  5.0239183904459576e+11  -1.9696881305716522e+10  -1.9097185111718436e+11  2.1863893793607162e+11  3.5120638148424280e+11  -4.4687520467497546e+11  4.1193191037208752e+11  1.2792729004323359e+12  -2.1855316269747720e+11  -3.4979944100036567e+12  -1.8389604082098076e+12  3.1042943537194429e+12  -8.2219752157813452e+11  -6.2882764099272491e+10  -4.5824607888274152e+11  -2.8403387345169424e+12  2.8147336855032041e+12  2.8239282326453223e+12  -2.9199964577576689e+12  -1.7232933269895488e+12  -3.7120995115902021e+12  -7.5127428778834180e+11  2.2582336899980060e+11  -4.0406257274656592e+12  -3.0103436513054336e+12  1.8748799536748755e+12  -2.4459066617788477