<?xml version="1.0"?>
<VTKFile type="UnstructuredGrid"  version="0.1"  >
<UnstructuredGrid>
<Piece  NumberOfPoints="1419" NumberOfCells="2698">
<Points>
<DataArray  type="Float64"  NumberOfComponents="3"  format="ascii">0 0 0  0 0.41 0  2.5 0 0  2.5 0.41 0  0.5999870698024996 0.1899460209066192 0  0.5999909079083587 0.2099408988764258 0  0.25 0.2 0  0.15 0.2 0  0.2489897948556636 0.21 0  0.2489897948556636 0.19 0  0.5999885428524353 0.1999434592733618 0  0 0.3807142857143437 0  0 0.3514285714286952 0  0 0.3221428571430699 0  0 0.29285714285744 0  0 0.2635714285718054 0  0 0.2342857142861561 0  0 0.2050000000005308 0  0 0.175714285714732 0  0 0.1464285714289574 0  0 0.1171428571431897 0  0 0.08785714285737878 0  0 0.05857142857161107 0  0 0.02928571428580012 0  0.03015443760436003 0 0  0.06140001986583606 0 0  0.09377624077125973 0 0  0.1273239957535082 0 0  0.1620856860351972 0 0  0.1981052433264291 0 0  0.235428184091502 0 0  0.2741016576309132 0 0  0.3141745521465447 0 0  0.3556974926295285 0 0  0.3987229542472677 0 0  0.4433053055141081 0 0  0.4895008759286886 0 0  0.5373680609405097 0 0  0.5869673343216626 0 0  0.6383613676634521 0 0  0.6916151138468254 0 0  0.7467958595648856 0 0  0.8039733463919316 0 0  0.8632198139502143 0 0  0.9246101326867038 0 0  0.9882218810934433 0 0  1.054135445558498 0 0  1.122434100542598 0 0  1.193204177141305 0 0  1.266535089879536 0 0  1.342519516046404 0 0  1.421253448503939 0 0  1.502836389106271 0 0  1.587371439758838 0 0  1.674965418777374 0 0  1.765729001825544 0 0  1.859776908880082 0 0  1.957227977487062 0 0  2.058205329869943 0 0  2.162836591189951 0 0  2.271253957290865 0 0  2.383594446803425 0 0  2.5 0.1024999999997612 0  2.5 0.2049999999994743 0  2.5 0.3074999999997183 0  2.383594446803656 0.41 0  2.271253957291315 0.41 0  2.162836591190598 0.41 0  2.058205329870775 0.41 0  1.957227977488067 0.41 0  1.859776908881246 0.41 0  1.765729001826854 0.41 0  1.674965418778818 0.41 0  1.58737143976041 0.41 0  1.502836389107956 0.41 0  1.421253448505726 0.41 0  1.342519516048286 0.41 0  1.266535089881505 0.41 0  1.193204177143353 0.41 0  1.122434100544716 0.41 0  1.05413544556068 0.41 0  0.9882218810956305 0.41 0  0.9246101326886647 0.41 0  0.8632198139519631 0.41 0  0.8039733463934788 0.41 0  0.7467958595662458 0.41 0  0.6916151138480078 0.41 0  0.6383613676644679 0.41 0  0.5869673343225223 0.41 0  0.5373680609412221 0.41 0  0.4895008759292634 0.41 0  0.4433053055145528 0.41 0  0.3987229542475914 0.41 0  0.3556974926297398 0.41 0  0.3141745521466497 0.41 0  0.2741016576310038 0.41 0  0.2354281840915826 0.41 0  0.1981052433265003 0.41 0  0.1620856860352591 0.41 0  0.1273239957535623 0.41 0  0.09377624077128965 0.41 0  0.06140001986584975 0.41 0  0.03015443760436654 0.41 0  0.2497468076502589 0.2050254481002335 0  0.2497468076502614 0.1949745518997913 0  0.2469965252529372 0.1829317073451959 0  0.2439893735792749 0.1762316384219906 0  0.2400332147834255 0.1700443375285386 0  0.2352133972704371 0.1645032867342007 0  0.2296339016332438 0.1597280261969788 0  0.2234150974217223 0.1558215752574715 0  0.2166911463437691 0.1528682099456123 0  0.2096071079204251 0.1509316448471593 0  0.2023158100364996 0.1500536585536553 0  0.194974551899914 0.1502531923497262 0  0.1877417105387872 0.1515259415822739 0  0.1807733240461124 0.153844448527136 0  0.1742197252835808 0.15715869474974 0  0.1682222986673531 0.1613971801805478 0  0.162910430003803 0.1664684656256651 0  0.1583987151779087 0.1722631454351573 0  0.1547844879126891 0.178656207771761 0  0.1521457199348551 0.1855097315605723 0  0.1505393388476355 0.1926758619366523 0  0.1505393388476328 0.2073241380633295 0  0.1521457199348437 0.2144902684393899 0  0.1547844879126531 0.221343792228163 0  0.1583987151778488 0.2277368545647528 0  0.1629104300036858 0.2335315343742052 0  0.1682222986671726 0.2386028198193036 0  0.1742197252833576 0.2428413052501257 0  0.1807733240458683 0.2461555514727623 0  0.1877417105384929 0.2484740584176516 0  0.1949745518995776 0.2497468076502398 0  0.202315810036185 0.2499463414463592 0  0.2096071079201568 0.2490683551528932 0  0.2166911463435495 0.2471317900544655 0  0.2234150974215506 0.2441784247426195 0  0.2296339016331197 0.2402719738031125 0  0.2352133972703547 0.2354967132658811 0  0.2400332147833751 0.2299556624715287 0  0.2439893735792577 0.2237683615780412 0  0.246996525252926 0.2170682926548348 0  0.2564589809359665 0.2099950168343598 0  0.2639276026010677 0.2099946627581033 0  0.2713967013574917 0.2099943991577739 0  0.2788658650315894 0.2099940228000525 0  0.2863349927070921 0.2099935152289803 0  0.2938040811565239 0.2099929095634135 0  0.3012731051787655 0.2099922237308139 0  0.3087420933786363 0.2099914430914763 0  0.3162110187055459 0.2099905967827345 0  0.3236798834196653 0.2099896731466625 0  0.3311487058097349 0.2099886964907581 0  0.3386174603965293 0.2099876546135855 0  0.346086171343585 0.2099865668196264 0  0.3535548132653622 0.2099854364426993 0  0.3610234161021918 0.2099842611715424 0  0.3684919542750707 0.2099830556305349 0  0.375960436984744 0.2099818123420272 0  0.3834288703516094 0.2099805523540369 0  0.3908972444315664 0.2099792603194074 0  0.3983655702956063 0.2099779584425016 0  0.4058338381067071 0.2099766329811482 0  0.4133020568502633 0.2099752995773564 0  0.4207702132463188 0.2099739550041708 0  0.4282383307033422 0.2099726021975304 0  0.435706388764745 0.2099712439223551 0  0.4431743951325205 0.2099698772468521 0  0.4506423505281862 0.2099685131031747 0  0.4581102541123052 0.209967140897358 0  0.465578106656916 0.2099657735685707 0  0.4730459080785713 0.209964399717693 0  0.4805136586375134 0.2099630320813989 0  0.4879813583311194 0.2099616588161501 0  0.4954490073919335 0.2099602923051065 0  0.5029166056532948 0.2099589206745822 0  0.5103841530245513 0.2099575557902177 0  0.5178516496484681 0.2099561856667484 0  0.5253190952231388 0.2099548223523005 0  0.5327864896100502 0.2099534534508601 0  0.5402538323731118 0.2099520912863892 0  0.5477211233780879 0.2099507233752554 0  0.5551883624434506 0.2099493598133179 0  0.5626555414724089 0.2099479966673086 0  0.5701226790362254 0.2099466329724211 0  0.5775897545647014 0.2099452746876689 0  0.5850567804116015 0.2099439197764478 0  0.5925238205039484 0.2099425896750173 0  0.5999895681635589 0.2049421488197491 0  0.5999876533256693 0.1949447672556115 0  0.5925199817684076 0.1899471925005891 0  0.5850529421839278 0.1899487250245711 0  0.5775859199351694 0.1899502346402563 0  0.5701188470212576 0.1899517407533794 0  0.5626517114688092 0.1899532383712266 0  0.5551845341905676 0.1899547350798124 0  0.5477172944920191 0.1899562312522303 0  0.5402500047936789 0.189957719483366 0  0.5327826622964897 0.1899592168762534 0  0.5253152678853663 0.1899607033078438 0  0.517847821703689 0.1899622001614995 0  0.5103803242079694 0.1899636865307125 0  0.5029127755287103 0.1899651836590454 0  0.4954451761424715 0.1899666707229889 0  0.4879775261262717 0.1899681686326328 0  0.4805098259181397 0.1899696565410089 0  0.4730420757467169 0.1899711549990935 0  0.4655742758065988 0.1899726429904434 0  0.4581064267923432 0.1899741405758517 0  0.4506385284048523 0.1899756265671217 0  0.4431705820912339 0.1899771203233522 0  0.4357025864421041 0.1899786012792661 0  0.4282345460086747 0.1899800838345332 0  0.4207664507462932 0.1899815593919436 0  0.4132983194867847 0.1899830245311761 0  0.4058301353048442 0.1899844805830671 0  0.398361905117829 0.1899859198829526 0  0.3908936315127686 0.1899873488620845 0  0.3834253107450977 0.1899887531089647 0  0.3759569487129634 0.1899901400702067 0  0.368488539943271 0.1899914953704412 0  0.3610200907295196 0.1899928226507781 0  0.353551595106293 0.1899941176887029 0  0.3460830660831711 0.1899953649787252 0  0.3386144916787875 0.189996570662045 0  0.3311458740585384 0.1899977208150547 0  0.3236772248588082 0.1899988182548236 0  0.3162085301027897 0.1899998468347845 0  0.3087398045263707 0.1900008062553973 0  0.3012710410080035 0.1900016931118988 0  0.2938022488294976 0.1900024803162273 0  0.286333424396124 0.1900031790832407 0  0.2788645591741832 0.1900037740211955 0  0.2713957116995515 0.1900042870931086 0  0.2639269203906847 0.1900046844304023 0  0.256458631834502 0.1900047071303614 0  0.2607804513389348 0.2000725258747496 0  0.5887710836806995 0.2000728203693596 0  0.5745004653345039 0.2001527396204776 0  0.5511859351192465 0.2000650446844946 0  0.2751306640195547 0.1999992061181434 0  0.5365181893747378 0.1999556204634114 0  0.2894652455747422 0.1998673755213332 0  0.5215834014220728 0.199958477759677 0  0.3127839354265085 0.1998615411136556 0  0.3274128708618571 0.1999937728229315 0  0.5066484078536991 0.1999613363788235 0  0.3650705256674654 0.1998539548515297 0  0.4767778109130801 0.1999670610015495 0  0.3417468600133231 0.1998608937728783 0  0.379692837207491 0.1999853334005979 0  0.4618422098757608 0.1999699255118328 0  0.4917132105763948 0.1999641974139871 0  0.3946295323989177 0.1999826352574937 0  0.4469064082154455 0.1999727867022226 0  0.4089626783241141 0.1998492007054243 0  0.4322790372478073 0.2001029821714723 0  0.4201562504018163 0.1999744991185858 0  0.3528993654714963 0.2000084687611626 0  0.5633072060727858 0.199931927229821 0  0.3006599402818325 0.1999936921012118 0  0.5815840023017028 0.1966023278097558 0  0.2677062875913135 0.19642605873057 0  0.5290502669530169 0.197049478345473 0  0.543984951141474 0.1970465838518205 0  0.2825158964830654 0.2035448764732418 0  0.3199444885823203 0.202901860683438 0  0.4842449809651757 0.1970581666302366 0  0.5141153757216256 0.1970523725933717 0  0.3722249186666893 0.20289384438848 0  0.4693094807118144 0.1970610666460903 0  0.3348820033424955 0.2028998118907513 0  0.3871617324324352 0.2028912267574776 0  0.4543737803987166 0.1970639656907807 0  0.4991802797973314 0.1970552684190874 0  0.4020144354058138 0.2035277709187777 0  0.4394378813675975 0.1970668582697728 0  0.2550652351113014 0.2034074164391828 0  0.2548902578238685 0.1966953152803121 0  0.5946439764231308
[...]
<PointData  Scalars="f_46-2"> 
<DataArray  type="Float64"  Name="f_46-2"  format="ascii">1.4502833642728485e+03  1.4483189733062281e+03  2.2823149132288449e+00  2.7672147419543767e+00  1.0491961068884930e+03  1.0517839967678196e+03  0.0000000000000000e+00  1.4434036454770592e+03  1.2781993103991665e+03  1.2781547844228423e+03  1.0437926240345962e+03  1.4513328446369756e+03  1.4596949165994963e+03  1.4703416871092754e+03  1.4816602922202305e+03  1.4920224290807018e+03  1.4998733741356352e+03  1.5023559363935424e+03  1.5003395286685516e+03  1.4932811786339232e+03  1.4834814663022016e+03  1.4719584193536457e+03  1.4611364678374584e+03  1.4526684847058889e+03  1.4473367370439867e+03  1.4351202930760483e+03  1.4178310854758979e+03  1.3959300892985821e+03  1.3710949130859249e+03  1.3440104986321478e+03  1.3151810137389259e+03  1.2864440654563407e+03  1.2588639854457472e+03  1.2310261611397220e+03  1.2025030891441343e+03  1.1739343865682974e+03  1.1437859315313558e+03  1.1138904869301141e+03  1.0823923776283154e+03  1.0513235883096004e+03  1.0209205939681377e+03  9.8883627811989811e+02  9.5614970744857601e+02  9.2321472445552251e+02  8.8889648487424870e+02  8.5239383880520234e+02  8.1664125036150949e+02  7.7717315286892995e+02  7.3699011369564016e+02  6.9730536743821563e+02  6.5369138030828083e+02  6.0943340996823463e+02  5.6264229719265211e+02  5.1634803630681290e+02  4.6578293375121893e+02  4.1525269476477285e+02  3.6241628768042102e+02  3.0684050008735272e+02  2.5053065365750857e+02  1.9096389254788409e+02  1.3092863186142691e+02  6.5344182379501021e+01  -6.8414438278775713e-01  1.1027223730878292e-01  -5.7606049256748060e-01  6.5149777084450591e+01  1.2857608518881813e+02  1.9213754453028116e+02  2.5095572156304840e+02  3.0673772024119148e+02  3.6254462282442444e+02  4.1522152484951755e+02  4.6489162855288674e+02  5.1711594800741591e+02  5.6269953171256066e+02  6.0948032655082920e+02  6.5386729712104614e+02  6.9738504136201664e+02  7.3710037247028879e+02  7.7709297574651396e+02  8.1669079689250771e+02  8.5238037931692656e+02  8.8867743033783154e+02  9.2371013997678563e+02  9.5648010960235570e+02  9.8917866357961270e+02  1.0207412963186948e+03  1.0519487742853041e+03  1.0833372561578003e+03  1.1141959798123269e+03  1.1443287998630046e+03  1.1742626947070007e+03  1.2033925943602878e+03  1.2311244653410763e+03  1.2593710188346549e+03  1.2873282856776739e+03  1.3153663349511041e+03  1.3435972652357557e+03  1.3699429428128810e+03  1.3948078884858010e+03  1.4161156812015872e+03  1.4333866127367232e+03  1.4459519732712083e+03  0.0000000000000000e+00  0.0000000000000000e+00  1.2766125232117504e+03  1.2763004049277192e+03  1.2785490261115442e+03  1.2819355384272799e+03  1.2867635059369909e+03  1.2930176420924902e+03  1.3008773337990203e+03  1.3099979144255403e+03  1.3211605066096838e+03  1.3330153979925349e+03  1.3466196365179958e+03  1.3605108653135442e+03  1.3755064714246571e+03  1.3896194908547350e+03  1.4039487582235849e+03  1.4163988956540290e+03  1.4276830025354434e+03  1.4360094487500028e+03  1.4415226133413669e+03  1.4411156309429159e+03  1.4372839495255480e+03  1.4277034843356362e+03  1.4164006476451066e+03  1.4039152314107835e+03  1.3895890834792222e+03  1.3750780919152860e+03  1.3606644514495727e+03  1.3463866659649643e+03  1.3329659676143049e+03  1.3209190079988123e+03  1.3099065232673493e+03  1.3009499049036463e+03  1.2928463584457727e+03  1.2869136698542814e+03  1.2818508603649243e+03  1.2786593587265404e+03  1.2763315640008575e+03  1.2766638793558311e+03  1.2801177031182210e+03  1.2798056001145621e+03  1.2780794766366282e+03  1.2751993253120447e+03  1.2717399752988649e+03  1.2678068299122369e+03  1.2636057138770793e+03  1.2592718849030080e+03  1.2547736734135231e+03  1.2502369863723022e+03  1.2455968930802051e+03  1.2409400822305170e+03  1.2362048073835099e+03  1.2314889934888529e+03  1.2267174177715838e+03  1.2219599261853818e+03  1.2171460999939886e+03  1.2123469176062570e+03  1.2075257069411443e+03  1.2027098045600071e+03  1.1978625017642757e+03  1.1930023691487484e+03  1.1881742597811879e+03  1.1832824061698932e+03  1.1784495945955496e+03  1.1735329132730571e+03  1.1686769477096120e+03  1.1637802802679519e+03  1.1588679958132764e+03  1.1539846745144878e+03  1.1490288435353746e+03  1.1441256985143850e+03  1.1391873522928622e+03  1.1341864504065863e+03  1.1292199239984106e+03  1.1242272832726208e+03  1.1191997618971379e+03  1.1141501759577684e+03  1.1090193194254164e+03  1.1038920769818321e+03  1.0986824422669274e+03  1.0933770135946504e+03  1.0880056959561473e+03  1.0825483123965187e+03  1.0762010742018349e+03  1.0739576471404398e+03  1.0345776103158644e+03  1.0344301606208999e+03  1.0741990922767516e+03  1.0761568515469926e+03  1.0825542817344528e+03  1.0880051756567700e+03  1.0933797061232735e+03  1.0986612478466461e+03  1.1038914089720097e+03  1.1090089933724323e+03  1.1141193445317185e+03  1.1191559661815211e+03  1.1242096930343162e+03  1.1291881972833023e+03  1.1341745285575573e+03  1.1391113226629893e+03  1.1440628514956220e+03  1.1489670470487438e+03  1.1539099149932449e+03  1.1587991974318534e+03  1.1637041116834682e+03  1.1685691049374823e+03  1.1734595958506604e+03  1.1783129073552489e+03  1.1832060819453959e+03  1.1880450962607192e+03  1.1929074999101749e+03  1.1977333709399081e+03  1.2025811955760491e+03  1.2073879627319877e+03  1.2122337652127151e+03  1.2170260134223538e+03  1.2218332123592111e+03  1.2265914502696789e+03  1.2313651042882161e+03  1.2360878529383690e+03  1.2408272680531225e+03  1.2454839924192988e+03  1.2501329348683744e+03  1.2546766172819068e+03  1.2591818811409985e+03  1.2635258562358063e+03  1.2677332583752336e+03  1.2716724234117951e+03  1.2751408438398589e+03  1.2780336654362818e+03  1.2797646670913998e+03  1.2800725671277817e+03  0.0000000000000000e+00  0.0000000000000000e+00  0.0000000000000000e+00  0.0000000000000000e+00  0.0000000000000000e+00  0.0000000000000000e+00  0.0000000000000000e+00  0.0000000000000000e+00  0.0000000000000000e+00  0.0000000000000000e+00  0.0000000000000000e+00  0.0000000000000000e+00  0.0000000000000000e+00  0.0000000000000000e+00  0.0000000000000000e+00  0.0000000000000000e+00  0.0000000000000000e+00  0.0000000000000000e+00  0.0000000000000000e+00  0.0000000000000000e+00  0.0000000000000000e+00  0.0000000000000000e+00  0.0000000000000000e+00  0.0000000000000000e+00  0.0000000000000000e+00  0.0000000000000000e+00  0.0000000000000000e+00  0.0000000000000000e+00  0.0000000000000000e+00  0.0000000000000000e+00  0.0000000000000000e+00  0.0000000000000000e+00  0.0000000000000000e+00  0.0000000000000000e+00  0.0000000000000000e+00  0.0000000000000000e+00  0.0000000000000000e+00  0.0000000000000000e+00  0.0000000000000000e+00  0.0000000000000000e+00  0.0000000000000000e+00  0.0000000000000000e+00  0.0000000000000000e+00  0.0000000000000000e+00  0.0000000000000000e+00  0.0000000000000000e+00  0.0000000000000000e+00  0.0000000000000000e+00  0.0000000000000000e+00  0.0000000000000000e+00  0.0000000000000000e+00  0.0000000000000000e+00  0.0000000000000000e+00  0.0000000000000000e+00  0.0000000000000000e+00  0.0000000000000000e+00  0.0000000000000000e+00  0.0000000000000000e+00  0.0000000000000000e+00  0.0000000000000000e+00  0.0000000000000000e+00  0.0000000000000000e+00  0.0000000000000000e+00  0.0000000000000000e+00  0.0000000000000000e+00  0.0000000000000000e+00  0.0000000000000000e+00  0.0000000000000000e+00  0.0000000000000000e+00  0.0000000000000000e+00  0.0000000000000000e+00  0.0000000000000000e+00  0.0000000000000000e+00  0.0000000000000000e+00  0.0000000000000000e+00  0.0000000000000000e+00  0.0000000000000000e+00  0.0000000000000000e+00  0.0000000000000000e+00  0.0000000000000000e+00  0.0000000000000000e+00  0.0000000000000000e+00  0.0000000000000000e+00  0.0000000000000000e+00  0.0000000000000000e+00  0.0000000000000000e+00  0.0000000000000000e+00  0.0000000000000000e+00  0.0000000000000000e+00  0.0000000000000000e+00  0.0000000000000000e+00  0.0000000000000000e+00  0.0000000000000000e+00  0.0000000000000000e+00  0.0000000000000000e+00  0.0000000000000000e+00  0.0000000000000000e+00  0.0000000000000000e+00  0.0000000000000000e+00  0.0000000000000000e+00  0.0000000000000000e+00  0.0000000000000000e+00  0.0000000000000000e+00  0.0000000000000000e+00  0.0000000000000000e+00  0.0000000000000000e+00  0.0000000000000000e+00  0.0000000000000000e+00  0.0000000000000000e+00  0.0000000000000000e+00  0.0000000000000000e+00  0.0000000000000000e+00  0.0000000000000000e+00  0.0000000000000000e+00  0.0000000000000000e+00  0.0000000000000000e+00  0.0000000000000000e+00  0.0000000000000000e+00  0.0000000000000000e+00  0.0000000000000000e+00  0.0000000000000000e+00  0.0000000000000000e+00  0.0000000000000000e+00  1.2675981387714810e+03  1.2656866363517497e+03  9.5882409333924704e+02  1.2059819530001491e+03  1.1433107930837930e+03  1.2099736729444046e+03  1.0798048776559187e+03  1.1518175007793573e+03  1.4213545545458805e+03  1.0920458362514221e+03  1.4288646940617455e+03  1.3745019885728573e+03  1.3164008737993256e+03  1.3686512520929771e+03  1.4414910025636425e+03  1.3148281091403273e+03  1.2762388445821102e+03  1.2767530055397815e+03  1.4456001061222735e+03  1.2526709772240361e+03  1.2525434609588892e+03  1.2236854603798804e+03  1.0125871280368392e+03  1.2236085908086645e+03  1.1956959340261631e+03  1.1625846505036084e+03  1.1953692923863014e+03  1.1655342780231215e+03  1.1349110887867153e+03  1.1115110033324177e+03  1.1063327626571329e+03  1.4061065789300435e+03  1.0788902084315723e+03  1.4064593866273983e+03  1.0820015495570397e+03  1.0348902752750316e+03  1.2952667055735817e+03  1.2939833720791648e+03  1.0389723152940994e+03  1.0465189414491228e+03  1.1347754564218831e+03  1.4413939387980079e+03  1.3356873791278890e+03  1.3523511273396375e+03  8.4146774638055399e+02  1.3760701675758830e+03  1.4231629439836997e+03  1.4231392596410774e+03  7.2517385354129340e+02  1.1765261313784240e+03  1.2647612056100718e+03  1.0472753886598762e+03  1.2646731000852108e+03  1.2387479324337810e+03  1.2098949952141775e+03  1.3760649601155180e+03  1.3235490462529133e+03  1.2385986573206146e+03  1.1022427170493045e+03  1.2097453282661122e+03  1.3122876307182905e+03  1.0047989775245949e+03  1.1807206090411510e+03  1.3984687141312072e+03  6.1022587304481010e+02  1.1514165865470170e+03  1.1216857697336350e+03  1.2389179996301477e+03  1.0907411471263811e+03  1.1502618971293527e+03  1.1221683942533316e+03  1.0691408840252045e+03  1.4358833978299147e+03  1.0581431610394807e+03  4.9235153593024762e+02  1.0493780128721839e+03  1.2396846053346396e+03  1.3990598674824400e+03  1.0851797149036056e+03  1.4575863451458636e+03  1.4662616926713222e+03  1.4129861998192316e+03  1.2788913109724895e+03  1.2833134065722863e+03  1.2788170381352345e+03  1.2836884161314301e+03  1.1817865446687210e+03  1.0685179324361361e+03  1.2522431566979303e+03  1.1908123074599016e+03  1.4604600362040953e+03  1.2521289106380848e+03  1.3947098102317843e+03  3.7599922962387853e+02  1.2242735836326656e+03  9.8039829330933583e+02  1.0497534197149648e+03  1.1199579644030505e+03  1.4436192010416953e+03  1.2241197922979372e+03  1.1952776508903175e+03  1.4394771433221451e+03  1.2860985880359804e+03  1.3447879447150819e+03  1.4356349180738109e+03  1.1661030746718761e+03  1.3456263610350429e+03  1.1366080019523786e+03  1.2524716140626390e+03  1.1745855005268875e+03  8.9771017348872022e+02  8.9785365378739129e+02  1.1064097281909171e+03  2.7601675654240984e+02  1.4296304539779110e+03  1.1666119718873597e+03  1.3459457209066716e+03  1.1130540651060951e+03  1.2734684338102102e+03  1.3017970378372092e+03  1.0548056594982399e+03  1.0403805612764770e+03  1.2735706616207272e+03  1.4046889952693107e+03  1.1365800260538908e+03  1.2520254715969445e+03  1.2866845833011103e+03  1.0615824269827765e+03  1.5772275185014303e+02  1.4261952353299268e+03  1.2929167254826482e+03  1.1115231898787897e+03  7.8352624775645904e+02  7.8282264261460500e+02  1.2006636334848308e+03  1.1808476691443173e+03  1.1801084801077309e+03  1.3430443076153936e+03  1.2901228950146728e+03  1.0798192740306170e+03  1.2665566948665435e+03  1.1925369365087925e+03  1.3995903957058395e+03  1.3857898667915463e+03  1.0960098575291909e+03  9.5025153656327575e+02  1.2665784659389515e+03  1.1898155549394337e+03  1.4208379452060685e+03  1.2789088391622261e+03  1.0497575646540390e+03  1.1563809635128475e+03  1.2790874208798230e+03  1.3700359716891210e+03  1.4510032806799893e+03  1.1319622458674467e+03  6.6807304361155229e+02  6.7003300285168905e+02  1.2100467031175701e+03  1.2434929699191957e+03  1.2337508032013880e+03  1.4199950195074523e+03  1.2386108536369786e+03  1.2333595168173745e+03  1.2433776442800108e+03  1.2142740648318809e+03  1.2608950752181424e+03  1.2148424886300259e+03  1.2049478055143106e+03  8.4494566853179970e+02  8.4320672621759934e+02  1.3182581838924716e+03  1.4611805193608500e+03  1.2608059313595184e+03  1.2386491660890233e+03  1.1755870917429570e+03  1.1855884191790465e+03  1.2206898359864949e+03  1.1565972264907296e+03  1.1464850893478292e+03  1.4356850720241555e+03  1.0009510246743820e+03  1.1162880179020597e+03  1.1266421771502721e+03  1.4390675216063212e+03  1.3210121344007423e+03  1.2091122739299419e+03  1.0954112507626780e+03  1.0179931884258540e+03  9.8318731983362420e+02  1.3591365665419846e+03  5.5135788458748982e+02  5.5428394494581255e+02  1.4424337017110706e+03  1.3413775848828693e+03  1.3159467394855678e+03  1.1463177643836630e+03  1.1567659700096181e+03  1.4252700717773985e+03  1.1810447844988485e+03  1.1260923998354240e+03  1.4504897932112583e+03  1.2906250045411568e+03  1.1320770116876213e+03  1.2225109769941348e+03  1.0662594165942337e+03  1.0552051308735211e+03  1.3700890420652293e+03  1.3595437892134216e+03  1.1508532779286525e+03  1.0925869993806007e+03  1.3110926460844323e+03  1.4609047553522266e+03  1.2941290745532951e+03  1.4198485416000167e+03  1.1229365684273273e+03  1.0890789245249657e+03  1.0784784662212721e+03  1.0597299927189729e+03  1.2578672081096845e+03  1.3902824120299636e+03  1.2696934827180080e+03  1.4377297874173662e+03  1.2849291798615586e+03  7.2736003226937066e+02  7.2663956676211103e+02  1.2696465411480131e+03  1.3192480020154405e+03  1.3877058842283384e+03  1.0904150342228484e+03  4.3424694108985062e+02  4.3605746458168716e+02  1.0655497496634482e+03  1.2568204281081548e+03  1.2801448786382803e+03  1.4468472666905527e+03  1.0213645250160575e+03  1.2802204629632688e+03  1.1641425715028545e+03  9.3834713782812582e+02  1.2854450796987835e+03  1.3091436289356313e+03  1.4309046704613295e+03  1.0327741209579237e+03  1.3682201503026135e+03  1.3331441722026630e+03  1.0802334668417839e+03  1.0287365977099043e+03  1.1941820236640856e+03  1.0153495442109639e+03  1.4185096017547378e+03  1.2197115860687607e+03  1.2871344083656252e+03  1.2991659691989303e+03  1.1984233531155289e+03  1.3960040021738369e+03  1.1321496518329052e+03  1.4214748410458728e+03  9.1155220943695076e+02  1.1462271586868874e+03  1.1577317913087932e+03  1.1253381464109566e+03  1.4452672036913364e+03  1.2271680004791945e+03  1.4353528655289633e+03  1.0475484817355793e+03  1.1121513940742213e+03  3.1526968879613025e+02  3.1522091580251089e+02  1.2522891688244611e+03  1.1905982569029595e+03  6.1172429519728450e+02  6.1075332681472355e+02  1.4295305825421069e+03  1.2521841515931619e+03  1.1616337004018583e+03  7.1471893743888629e+01  1.1395213059696709e+03  1.2767187435160579e+03  1.2242797673793905e+03  1.4379208147289271e+03  1.1612852476413473e+03  1.2767527060577652e+03  1.4135285157777498e+03  1.2241477932304319e+03  1.3559074299732451e+03  1.1710073169488485e+03  1.4413018576309748e+03  1.4487358588860025e+03  1.1952906082407505e+03  1.4129023399454500e+03  1.3965113735167060e+03  1.2794340238905040e+03  1.1661195808158509e+03  1.2074440878529122e+03  1.1366039638423488e+03  1.4823326580203850e+03  1.0970601218503255e+03  1.1129338459009418e+03  1.2128385303686537e+03  1.2989833508261074e+03  4.9271269450812133e+02  4.9863530452248517e+02  1.1063516377680648e+03  1.4209371679438036e+03  1.2778389993881347e+03  1.0754697014239377e+03  1.3948600345288103e+03  1.0561540170386152e+03  1.4524529569374383e+03  1.0380109851178006e+03  1.1183623356350734e+03  1.2253663981045818e+03  1.1043324109896123e+03  1.4072854620076907e+03  1.1063720105184104e+03  1.2767926615833219e+03  1.4195366730030203e+03  1.9978546151686811e+02  2.0166050231946971e+02  1.1858027745425511e+03  1.3277594587930130e+03  1.3926965254650268e+03  1.0877772912825599e+03  1.0076953445859334e+03  1.4768987492926854e+03  9.7583117146845927e+02  1.3551626852216227e+03  1.2002829027588318e+03  1.4444611759918262e+03  1.2578773225650721e+03  8.7008140954402236e+01  1.2523507032558784e+03  7.9863874911321773e+02  1.4462423743918519e+03  9.4874718483984395e+02  9.8554478938213538e+02  1.3256007890539809e+03  1.2507181279385377e+03  1.3710017283255784e+03  1.2713368336460599e+03  1.2786963188953328e+03  1.3532587705007959e+03  1.2577721471433615e+03  1.2786567516293276e+03  1.3751295711980649e+03  1.3075120979660696e+03  1.3279335929614456e+03  9.1591856038512117e+02  1.0887089161993490e+03  1.3857014846611137e+03  1.0591377163877260e+03  1.4590108297203062e+03  1.3635926295716811e+03  1.2709094744652687e+03  1.0380242122126947e+03  1.1531990678206616e+03  1.2810864388042194e+03  1.2825765070587531e+03  1.0772859092219692e+03  1.2461710893959091e+03  1.1366316109023555e+03  1.2820243989065841e+03  1.4007866169666709e+03  1.4711987565188545e+03  1.4686151959369288e+03  1.4086802341464779e+03  1.3819676428294506e+03  1.4439346263533243e+03  1.2621619148882148e+03  1.2916019446732175e+03  1.4293473246444257e+03  1.2385443978026960e+03  1.1179138831469763e+03  1.4293413775204367e+03  1.4547066462143946e+03  1.4474281551752902e+03  1.0911349740943224e+03  1.2383961720921538e+03  8.7667710222204369e+02  1.2460340216950647e+03  8.7356260724935646e+02  9.3025693614095348e+02  1.3067822069669655e+03  1.2098031283621513e+03  1.4366622535749611e+03  3.7405956148631589e+02  3.7699552870399043e+02  1.4301982331781919e+03  1.0724883227879639e+03  1.2312142550696935e+03  1.1807160184773825e+03  1.1938747222236286e+03  1.4088849879494364e+03  1.3820370563531003e+03  1.2181573635588170e+03  1.1514394383332781e+03  1.1216090876664493e+03  1.0789654481982043e+03  1.2249368326120425e+03  1.2686027182396519e+03  1.2176992304955681e+03  1.3599219059543791e+03  1.3589142951556362e+03  1.0565664672939918e+03  1.2394645854481482e+03  1.3294210585763265e+03  1.0462453825173325e+03  1.4580230051699916e+03  1.2684592390661560e+03  1.4127781596396642e+03  1.2310569836869022e+03  1.1903577058843041e+03  1.1608093582029248e+03  1.1514996011989003e+03  6.7887835032788223e+02  1.0459095389633155e+03  1.2887516658174634e+03  1.2182957232147207e+03  1.2862813538983714e+03  1.3245201188510002e+03  8.7913162957993052e+02  1.2737895456869171e+03  8.0749055200608484e+02  1.2998849675544084e+03  1.3417628429208567e+03  1.4788649557382084e+03  1.2011530620767155e+03  1.4113781450372287e+03  1.2737794824506479e+03  8.0661238373455797e+02  1.2774734788452752e+03  1.0095973859082163e+03  1.0386186439581522e+03  1.0468886217610773e+03  1.3017599560007741e+03  1.4528583761479983e+03  1.1884907645265876e+03  1.3407685538506955e+03  1.4043031247687654e+03  1.3318018515119920e+03  1.3923603026862563e+03  1.0699966087275884e+03  1.2916906983331114e+03  1.3847471883303961e+03  1.3849507706223230e+03  1.2987177944553430e+03  1.4393785846930066e+03  1.1698854876932751e+03  1.4366310055603210e+03  1.2654216461732103e+03  1.4052559877004035e+03  1.4285785357097484e+03  1.4393605383860800e+03  1.3608045495668234e+03  9.7768845633117803e+02  1.2653368560286233e+03  1.2485539284318866e+03  1.1718064824767362e+03  1.1581764974400380e+03  1.4182871925919162e+03  1.1375105670533931e+03  1.1601700436074962e+03  1.2900741527793000e+03  1.2677343987549882e+03  1.2693629645715619e+03  1.1428875829236035e+03  1.3127043226007543e+03  1.3019088603401110e+03  1.27375440178