<?xml version="1.0"?>
<VTKFile type="UnstructuredGrid"  version="0.1"  >
<UnstructuredGrid>
<Piece  NumberOfPoints="1419" NumberOfCells="2698">
<Points>
<DataArray  type="Float64"  NumberOfComponents="3"  format="ascii">0 0 0  0 0.41 0  2.5 0 0  2.5 0.41 0  0.5464752675908744 0.2917731770980027 0  0.5865572939056501 0.2219017749204823 0  0.25 0.2 0  0.15 0.2 0  0.2489897948556636 0.21 0  0.2489897948556636 0.19 0  0.5548822452414166 0.3056385011787355 0  0 0.3807142857143437 0  0 0.3514285714286952 0  0 0.3221428571430699 0  0 0.29285714285744 0  0 0.2635714285718054 0  0 0.2342857142861561 0  0 0.2050000000005308 0  0 0.175714285714732 0  0 0.1464285714289574 0  0 0.1171428571431897 0  0 0.08785714285737878 0  0 0.05857142857161107 0  0 0.02928571428580012 0  0.03015443760436003 0 0  0.06140001986583606 0 0  0.09377624077125973 0 0  0.1273239957535082 0 0  0.1620856860351972 0 0  0.1981052433264291 0 0  0.2354281840903869 -2.724523593175554e-15 0  0.2741016576309091 -5.127466242035351e-14 0  0.3141745521465447 0 0  0.355697492631341 -2.599663229853414e-12 0  0.3987229542472677 0 0  0.4433053055141081 0 0  0.4895008759286886 0 0  0.5373680609405097 0 0  0.5869673343216626 0 0  0.6383613676634521 0 0  0.6916151138468254 0 0  0.7467958595648856 0 0  0.8039733463919316 0 0  0.8632198139502143 0 0  0.9246101326867038 0 0  0.9882218810934433 0 0  1.054135445558498 0 0  1.122434100542598 0 0  1.193204177141305 0 0  1.266535089879536 0 0  1.342519516046404 0 0  1.421253448503939 0 0  1.502836389106271 0 0  1.587371439758838 0 0  1.674965418777374 0 0  1.765729001825544 0 0  1.859776908880082 0 0  1.957227977487062 0 0  2.058205329869943 0 0  2.162836591189951 0 0  2.271253957290865 0 0  2.383594446803425 0 0  2.5 0.1024999999997612 0  2.5 0.2049999999994743 0  2.5 0.3074999999997183 0  2.383594446803656 0.41 0  2.271253957291315 0.41 0  2.162836591190598 0.41 0  2.058205329870775 0.41 0  1.957227977488067 0.41 0  1.859776908881246 0.41 0  1.765729001826854 0.41 0  1.674965418778818 0.41 0  1.58737143976041 0.41 0  1.502836389107956 0.41 0  1.421253448505726 0.41 0  1.342519516048286 0.41 0  1.266535089881505 0.41 0  1.193204177143353 0.41 0  1.122434100544716 0.41 0  1.05413544556068 0.41 0  0.9882218810956305 0.41 0  0.9246101326886647 0.41 0  0.8632198139519631 0.41 0  0.8039733463934788 0.4099999999969019 0  0.7467958595662458 0.41 0  0.6916151138480078 0.41 0  0.638361367664451 0.4099999999955798 0  0.5869673343225223 0.41 0  0.5373680609412221 0.41 0  0.4895008759292634 0.41 0  0.4433053055145528 0.41 0  0.3987229542475914 0.41 0  0.3556974926297398 0.41 0  0.3141745521466497 0.41 0  0.2741016576310038 0.41 0  0.2354281840915826 0.41 0  0.1981052433265003 0.41 0  0.1620856860352591 0.41 0  0.1273239957535623 0.41 0  0.09377624077128965 0.41 0  0.06140001986584975 0.41 0  0.03015443760436654 0.41 0  0.2497468076502589 0.2050254481002335 0  0.2497468076502614 0.1949745518997913 0  0.2469965252529372 0.1829317073452068 0  0.2439893735792749 0.1762316384219562 0  0.2400332147834255 0.1700443375285386 0  0.2352133972704371 0.1645032867342007 0  0.2296339016332438 0.1597280261969788 0  0.2234150974217223 0.1558215752574715 0  0.2166911463437247 0.1528682099456123 0  0.2096071079204251 0.1509316448471593 0  0.2023158100364996 0.1500536585536553 0  0.194974551899914 0.1502531923497262 0  0.1877417105387872 0.1515259415822739 0  0.1807733240461124 0.153844448527136 0  0.1742197252835808 0.15715869474974 0  0.1682222986673531 0.1613971801805478 0  0.162910430003803 0.1664684656256651 0  0.1583987151779087 0.1722631454351573 0  0.1547844879126891 0.178656207771761 0  0.1521457199348551 0.1855097315605723 0  0.1505393388476355 0.1926758619366523 0  0.1505393388476328 0.2073241380633295 0  0.1521457199348437 0.2144902684393899 0  0.1547844879126531 0.221343792228163 0  0.1583987151778488 0.2277368545647528 0  0.1629104300036858 0.2335315343742052 0  0.1682222986671726 0.2386028198193036 0  0.1742197252833576 0.2428413052501257 0  0.1807733240458683 0.2461555514727623 0  0.1877417105384929 0.2484740584176516 0  0.1949745518995776 0.2497468076502398 0  0.202315810036185 0.2499463414463592 0  0.2096071079201568 0.2490683551528932 0  0.2166911463435495 0.2471317900544655 0  0.2234150974215506 0.2441784247430548 0  0.2296339016331197 0.2402719738031125 0  0.2352133972703547 0.2354967132658811 0  0.2400332147833751 0.2299556624715287 0  0.2439893735792577 0.2237683615780412 0  0.246996525252926 0.217068292654834 0  0.257875902462802 0.2196231245065357 0  0.3083810886727812 0.3117176857662568 0  0.2883741872704939 0.199985263668291 0  0.2299452031669734 0.09524035385453118 0  0.2899397926645763 0.2471769413428081 0  0.2846546748379646 0.2318072453544951 0  0.4641254598743768 0.1414532794037432 0  0.287530599421237 0.2698470263433463 0  0.2976634730614333 -0.0009348519310974801 0  0.3243095830394688 0.1675381644740105 0  0.3326003302008507 0.2084682927345945 0  0.315568779155398 0.2619401304083431 0  0.3514557892826159 0.1983140751350412 0  0.3710248431467454 0.2210406127572441 0  0.3330289938510561 0.1521937617481954 0  0.3641685623141747 0.170024534073298 0  0.3761148821970258 0.2465117450592235 0  0.3787711229403269 0.2065336990906336 0  0.3238275658434089 0.2202119905636046 0  0.3951437153961004 0.2308423545391389 0  0.4103349701217799 0.264818342621242 0  0.4068066010527492 0.2597003463334093 0  0.4805158139784275 0.08577468786111482 0  0.417940132154711 0.2537991841207449 0  0.3297235397843729 0.42545341022669 0  0.4410034017632412 0.2345975609132308 0  0.4277446116631827 0.2746462282686509 0  0.7603937431495806 -0.4088929450958139 0  0.4898851856673649 0.169754467195633 0  0.6062308746695827 0.01319957186567647 0  0.4304677760289913 0.3248409548631362 0  0.3463366244290998 0.4976843733645162 0  0.509460645240755 0.189747249436456 0  0.5669616939266864 0.06062836024649055 0  0.2891416243492134 0.7248615529146596 0  0.4176343925860469 0.442302752205724 0  0.501408783038052 0.2608320389532977 0  0.5179964098996256 0.2457360330051625 0  0.5284405800122568 0.2442857430562417 0  0.5339337506442063 0.2691294076192111 0  0.5561971718751249 0.1852876322368647 0  0.5804678305590268 0.2609719983967435 0  0.522150884245949 0.1186384723597996 0  0.5895388164687808 0.2276814660439262 0  0.5959633409908061 0.1995503107247223 0  0.5826075153085509 0.1892986856385786 0  0.5867211596122629 0.2327454061785134 0  0.6242766059311706 0.1168379908115495 0  0.6071325816523193 0.1575550417006773 0  0.5964314536364175 0.1831882930370295 0  0.5873465268437842 0.1725933973732738 0  0.5554211823757789 0.2015491376851876 0  0.5727728861421905 0.1910210872663108 0  0.5653778735356685 0.1460513244988273 0  0.4840172503716639 0.2396642478409885 0  0.5030015159254765 0.2402760415576736 0  0.4952299714998653 0.2029204345962035 0  0.5326688690234059 0.1912427919518288 0  0.5499502739536961 0.2664418855933726 0  0.4303824799512858 0.06778661852839525 0  0.6249124742924508 0.3838440306295455 0  0.4453393276877571 0.1262600583414861 0  0.3515619796984567 -0.001909476161953896 0  0.7544818759482634 0.6298142405073157 0  0.4384844377679579 0.1424720583815481 0  0.455170050981648 0.2060811399509188 0  0.4924539987231501 0.1970707249214162 0  0.4335029778007007 0.1686341214283727 0  0.4384948599538397 0.1903289760918452 0  0.4699697546475223 0.235012057966781 0  0.4107278340790693 0.1695371441254329 0  0.4295357308356043 0.2246668642653592 0  0.4152123145639863 0.1871938775937524 0  0.4118053249050234 0.1650386217891137 0  0.4101635298705922 0.1804376204849397 0  0.3779836817971355 0.1564294304822571 0  0.3501942919397679 0.2599232951882679 0  0.384539623225426 0.1907924245382372 0  0.2582127765653301 0.1879385442347883 0  0.3237515714441376 0.2032184347316345 0  0.3344055474880516 0.1583740852857172 0  0.3444491927266654 0.340892714010481 0  0.3284826376448931 0.002268046239092657 0  0.3358023744346073 0.463139544757578 0  0.3036461645804956 0.05547066623122954 0  0.3201052402181916 0.3512527757881009 0  0.2994907718334177 0.1221431770523615 0  0.300029100413701 0.2025095184633429 0  0.2870606422725744 0.162283664946463 0  0.2897072799364523 0.1931104584893217 0  0.2704453260337391 0.1944528163531506 0  0.3092629543490596 0.2250151218670512 0  0.2703966088417496 0.186440577544314 0  0.2452411070452079 0.1798492886479268 0  0.2608406281005643 0.2029293617433744 0  0.5913275744828267 0.1980650123655592 0  0.575818118376673 0.1989253924153313 0  0.5500267888579087 0.1964665960259162 0  0.2752904629907548 0.1968577285681225 0  0.5323140052617504 0.2106982884404878 0  0.2912302205968689 0.2144986604678175 0  0.519750287392165 0.1999615274936623 0  0.3032732647949823 0.2130818048316801 0  0.3202200837189489 0.2119300671043154 0  0.5166625782245021 0.1863303695276125 0  0.3517476198077117 0.187156543353931 0  0.4865753137301563 0.2041250950949434 0  0.3347144964325674 0.2185110665778103 0  0.3753824431582138 0.2038802458848166 0  0.4715500640572893 0.1982098219874831 0  0.4968370174123605 0.2078761864200059 0  0.4004971794476367 0.1989291539009155 0  0.4605324070578062 0.1939387229099799 0  0.4113271242417554 0.2150617153378729 0  0.4420791873971194 0.205346710631678 0  0.4343682895488377 0.1925059673312777 0  0.3398486642320639 0.2048647625866294 0  0.5686581265491663 0.188532185654007 0  0.3092400226129958 0.2163756358910545 0  0.5864496912415814 0.1902322837770164 0  0.2720731522531588 0.1968326822160145 0  0.5299731206109385 0.1994287831039952 0  0.5401913989166529 0.2028170286949328 0  0.2792600897521758 0.204071969393782 0  0.3150503704501814 0.212434320324928 0  0.4804609393146949 0.196826942455597 0  0.5136574279429429 0.2077991677106846 0  0.3514519496135755 0.1856426441920979 0  0.4739475480008296 0.2022667513379469 0  0.3369949300891256 0.2120781165664182 0  0.3949755060212555 0.2087774358964912 0  0.4633247526234456 0.1979994295094203 0  0.4973686244779659 0.1951675788196851 0  0.3897213412349529 0.2265557384174247 0  0.4502853076677648 0.2090902416312124 0  0.
[...]
<PointData  Vectors="f_40-0"> 
<DataArray  type="Float64"  Name="f_40-0"  NumberOfComponents="3" format="ascii">0.0000000000000000e+00 0.0000000000000000e+00 0.0000000000000000e+00  0.0000000000000000e+00 0.0000000000000000e+00 0.0000000000000000e+00  0.0000000000000000e+00 0.0000000000000000e+00 0.0000000000000000e+00  0.0000000000000000e+00 0.0000000000000000e+00 0.0000000000000000e+00  0.0000000000000000e+00 0.0000000000000000e+00 0.0000000000000000e+00  0.0000000000000000e+00 0.0000000000000000e+00 0.0000000000000000e+00  1.3874951059642191e+01 -7.8627993449734213e+00 0.0000000000000000e+00  0.0000000000000000e+00 0.0000000000000000e+00 0.0000000000000000e+00  0.0000000000000000e+00 0.0000000000000000e+00 0.0000000000000000e+00  0.0000000000000000e+00 0.0000000000000000e+00 0.0000000000000000e+00  0.0000000000000000e+00 0.0000000000000000e+00 0.0000000000000000e+00  3.1153007499444057e-03 0.0000000000000000e+00 0.0000000000000000e+00  5.7513386346854222e-03 0.0000000000000000e+00 0.0000000000000000e+00  7.9080711344747881e-03 0.0000000000000000e+00 0.0000000000000000e+00  9.5855407690626417e-03 0.0000000000000000e+00 0.0000000000000000e+00  1.0783733365199551e-02 0.0000000000000000e+00 0.0000000000000000e+00  1.1502648922885448e-02 0.0000000000000000e+00 0.0000000000000000e+00  1.1742287442119611e-02 0.0000000000000000e+00 0.0000000000000000e+00  1.1502648922899981e-02 0.0000000000000000e+00 0.0000000000000000e+00  1.0783733365224519e-02 0.0000000000000000e+00 0.0000000000000000e+00  9.5855407690935614e-03 0.0000000000000000e+00 0.0000000000000000e+00  7.9080711345041604e-03 0.0000000000000000e+00 0.0000000000000000e+00  5.7513244614612732e-03 0.0000000000000000e+00 0.0000000000000000e+00  3.1153007499585294e-03 0.0000000000000000e+00 0.0000000000000000e+00  0.0000000000000000e+00 0.0000000000000000e+00 0.0000000000000000e+00  0.0000000000000000e+00 0.0000000000000000e+00 0.0000000000000000e+00  0.0000000000000000e+00 0.0000000000000000e+00 0.0000000000000000e+00  0.0000000000000000e+00 0.0000000000000000e+00 0.0000000000000000e+00  0.0000000000000000e+00 0.0000000000000000e+00 0.0000000000000000e+00  0.0000000000000000e+00 0.0000000000000000e+00 0.0000000000000000e+00  0.0000000000000000e+00 0.0000000000000000e+00 0.0000000000000000e+00  0.0000000000000000e+00 0.0000000000000000e+00 0.0000000000000000e+00  0.0000000000000000e+00 0.0000000000000000e+00 0.0000000000000000e+00  0.0000000000000000e+00 0.0000000000000000e+00 0.0000000000000000e+00  0.0000000000000000e+00 0.0000000000000000e+00 0.0000000000000000e+00  0.0000000000000000e+00 0.0000000000000000e+00 0.0000000000000000e+00  0.0000000000000000e+00 0.0000000000000000e+00 0.0000000000000000e+00  0.0000000000000000e+00 0.0000000000000000e+00 0.0000000000000000e+00  0.0000000000000000e+00 0.0000000000000000e+00 0.0000000000000000e+00  0.0000000000000000e+00 0.0000000000000000e+00 0.0000000000000000e+00  0.0000000000000000e+00 0.0000000000000000e+00 0.0000000000000000e+00  0.0000000000000000e+00 0.0000000000000000e+00 0.0000000000000000e+00  0.0000000000000000e+00 0.0000000000000000e+00 0.0000000000000000e+00  0.0000000000000000e+00 0.0000000000000000e+00 0.0000000000000000e+00  0.0000000000000000e+00 0.0000000000000000e+00 0.0000000000000000e+00  0.0000000000000000e+00 0.0000000000000000e+00 0.0000000000000000e+00  0.0000000000000000e+00 0.0000000000000000e+00 0.0000000000000000e+00  0.0000000000000000e+00 0.0000000000000000e+00 0.0000000000000000e+00  0.0000000000000000e+00 0.0000000000000000e+00 0.0000000000000000e+00  0.0000000000000000e+00 0.0000000000000000e+00 0.0000000000000000e+00  0.0000000000000000e+00 0.0000000000000000e+00 0.0000000000000000e+00  0.0000000000000000e+00 0.0000000000000000e+00 0.0000000000000000e+00  0.0000000000000000e+00 0.0000000000000000e+00 0.0000000000000000e+00  0.0000000000000000e+00 0.0000000000000000e+00 0.0000000000000000e+00  0.0000000000000000e+00 0.0000000000000000e+00 0.0000000000000000e+00  0.0000000000000000e+00 0.0000000000000000e+00 0.0000000000000000e+00  0.0000000000000000e+00 0.0000000000000000e+00 0.0000000000000000e+00  0.0000000000000000e+00 0.0000000000000000e+00 0.0000000000000000e+00  0.0000000000000000e+00 0.0000000000000000e+00 0.0000000000000000e+00  0.0000000000000000e+00 0.0000000000000000e+00 0.0000000000000000e+00  0.0000000000000000e+00 0.0000000000000000e+00 0.0000000000000000e+00  0.0000000000000000e+00 0.0000000000000000e+00 0.0000000000000000e+00  1.9609248710050335e+04 2.1462127936078923e+04 0.0000000000000000e+00  -7.8323055233691484e+03 1.1972688277497646e+04 0.0000000000000000e+00  1.3056478476601624e+04 -2.5300069825688362e+04 0.0000000000000000e+00  0.0000000000000000e+00 0.0000000000000000e+00 0.0000000000000000e+00  0.0000000000000000e+00 0.0000000000000000e+00 0.0000000000000000e+00  0.0000000000000000e+00 0.0000000000000000e+00 0.0000000000000000e+00  0.0000000000000000e+00 0.0000000000000000e+00 0.0000000000000000e+00  0.0000000000000000e+00 0.0000000000000000e+00 0.0000000000000000e+00  0.0000000000000000e+00 0.0000000000000000e+00 0.0000000000000000e+00  0.0000000000000000e+00 0.0000000000000000e+00 0.0000000000000000e+00  0.0000000000000000e+00 0.0000000000000000e+00 0.0000000000000000e+00  0.0000000000000000e+00 0.0000000000000000e+00 0.0000000000000000e+00  0.0000000000000000e+00 0.0000000000000000e+00 0.0000000000000000e+00  0.0000000000000000e+00 0.0000000000000000e+00 0.0000000000000000e+00  0.0000000000000000e+00 0.0000000000000000e+00 0.0000000000000000e+00  0.0000000000000000e+00 0.0000000000000000e+00 0.0000000000000000e+00  0.0000000000000000e+00 0.0000000000000000e+00 0.0000000000000000e+00  0.0000000000000000e+00 0.0000000000000000e+00 0.0000000000000000e+00  0.0000000000000000e+00 0.0000000000000000e+00 0.0000000000000000e+00  0.0000000000000000e+00 0.0000000000000000e+00 0.0000000000000000e+00  0.0000000000000000e+00 0.0000000000000000e+00 0.0000000000000000e+00  0.0000000000000000e+00 0.0000000000000000e+00 0.0000000000000000e+00  0.0000000000000000e+00 0.0000000000000000e+00 0.0000000000000000e+00  0.0000000000000000e+00 0.0000000000000000e+00 0.0000000000000000e+00  0.0000000000000000e+00 0.0000000000000000e+00 0.0000000000000000e+00  0.0000000000000000e+00 0.0000000000000000e+00 0.0000000000000000e+00  0.0000000000000000e+00 0.0000000000000000e+00 0.0000000000000000e+00  0.0000000000000000e+00 0.0000000000000000e+00 0.0000000000000000e+00  0.0000000000000000e+00 0.0000000000000000e+00 0.0000000000000000e+00  0.0000000000000000e+00 0.0000000000000000e+00 0.0000000000000000e+00  0.0000000000000000e+00 0.0000000000000000e+00 0.0000000000000000e+00  0.0000000000000000e+00 0.0000000000000000e+00 0.0000000000000000e+00  0.0000000000000000e+00 0.0000000000000000e+00 0.0000000000000000e+00  0.0000000000000000e+00 0.0000000000000000e+00 0.0000000000000000e+00  0.0000000000000000e+00 0.0000000000000000e+00 0.0000000000000000e+00  0.0000000000000000e+00 0.0000000000000000e+00 0.0000000000000000e+00  0.0000000000000000e+00 0.0000000000000000e+00 0.0000000000000000e+00  0.0000000000000000e+00 0.0000000000000000e+00 0.0000000000000000e+00  0.0000000000000000e+00 0.0000000000000000e+00 0.0000000000000000e+00  0.0000000000000000e+00 0.0000000000000000e+00 0.0000000000000000e+00  0.0000000000000000e+00 0.0000000000000000e+00 0.0000000000000000e+00  9.7668450267693565e+00 -5.9007723868726636e+00 0.0000000000000000e+00  1.3249079866828151e+01 -7.8232308239729180e+00 0.0000000000000000e+00  0.0000000000000000e+00 0.0000000000000000e+00 0.0000000000000000e+00  8.5348861764427168e-09 0.0000000000000000e+00 0.0000000000000000e+00  0.0000000000000000e+00 0.0000000000000000e+00 0.0000000000000000e+00  0.0000000000000000e+00 0.0000000000000000e+00 0.0000000000000000e+00  0.0000000000000000e+00 0.0000000000000000e+00 0.0000000000000000e+00  0.0000000000000000e+00 0.0000000000000000e+00 0.0000000000000000e+00  0.0000000000000000e+00 0.0000000000000000e+00 0.0000000000000000e+00  0.0000000000000000e+00 0.0000000000000000e+00 0.0000000000000000e+00  0.0000000000000000e+00 0.0000000000000000e+00 0.0000000000000000e+00  0.0000000000000000e+00 0.0000000000000000e+00 0.0000000000000000e+00  0.0000000000000000e+00 0.0000000000000000e+00 0.0000000000000000e+00  0.0000000000000000e+00 0.0000000000000000e+00 0.0000000000000000e+00  0.0000000000000000e+00 0.0000000000000000e+00 0.0000000000000000e+00  0.0000000000000000e+00 0.0000000000000000e+00 0.0000000000000000e+00  0.0000000000000000e+00 0.0000000000000000e+00 0.0000000000000000e+00  0.0000000000000000e+00 0.0000000000000000e+00 0.0000000000000000e+00  0.0000000000000000e+00 0.0000000000000000e+00 0.0000000000000000e+00  0.0000000000000000e+00 0.0000000000000000e+00 0.0000000000000000e+00  0.0000000000000000e+00 0.0000000000000000e+00 0.0000000000000000e+00  0.0000000000000000e+00 0.0000000000000000e+00 0.0000000000000000e+00  0.0000000000000000e+00 0.0000000000000000e+00 0.0000000000000000e+00  0.0000000000000000e+00 0.0000000000000000e+00 0.0000000000000000e+00  0.0000000000000000e+00 0.0000000000000000e+00 0.0000000000000000e+00  0.0000000000000000e+00 0.0000000000000000e+00 0.0000000000000000e+00  0.0000000000000000e+00 0.0000000000000000e+00 0.0000000000000000e+00  0.0000000000000000e+00 0.0000000000000000e+00 0.0000000000000000e+00  0.0000000000000000e+00 0.0000000000000000e+00 0.0000000000000000e+00  0.0000000000000000e+00 0.0000000000000000e+00 0.0000000000000000e+00  0.0000000000000000e+00 0.0000000000000000e+00 0.0000000000000000e+00  0.0000000000000000e+00 0.0000000000000000e+00 0.0000000000000000e+00  0.0000000000000000e+00 0.0000000000000000e+00 0.0000000000000000e+00  0.0000000000000000e+00 0.0000000000000000e+00 0.0000000000000000e+00  0.0000000000000000e+00 0.0000000000000000e+00 0.0000000000000000e+00  0.0000000000000000e+00 0.0000000000000000e+00 0.0000000000000000e+00  0.0000000000000000e+00 0.0000000000000000e+00 0.0000000000000000e+00  0.0000000000000000e+00 0.0000000000000000e+00 0.0000000000000000e+00  0.0000000000000000e+00 0.0000000000000000e+00 0.0000000000000000e+00  0.0000000000000000e+00 0.0000000000000000e+00 0.0000000000000000e+00  0.0000000000000000e+00 0.0000000000000000e+00 0.0000000000000000e+00  0.0000000000000000e+00 0.0000000000000000e+00 0.0000000000000000e+00  0.0000000000000000e+00 0.0000000000000000e+00 0.0000000000000000e+00  0.0000000000000000e+00 0.0000000000000000e+00 0.0000000000000000e+00  0.0000000000000000e+00 0.0000000000000000e+00 0.0000000000000000e+00  0.0000000000000000e+00 0.0000000000000000e+00 0.0000000000000000e+00  -5.4110430421289326e-10 0.0000000000000000e+00 0.0000000000000000e+00  0.0000000000000000e+00 0.0000000000000000e+00 0.0000000000000000e+00  0.0000000000000000e+00 0.0000000000000000e+00 0.0000000000000000e+00  0.0000000000000000e+00 0.0000000000000000e+00 0.0000000000000000e+00  0.0000000000000000e+00 0.0000000000000000e+00 0.0000000000000000e+00  0.0000000000000000e+00 0.0000000000000000e+00 0.0000000000000000e+00  0.0000000000000000e+00 0.0000000000000000e+00 0.0000000000000000e+00  0.0000000000000000e+00 0.0000000000000000e+00 0.0000000000000000e+00  0.0000000000000000e+00 0.0000000000000000e+00 0.0000000000000000e+00  0.0000000000000000e+00 0.0000000000000000e+00 0.0000000000000000e+00  0.0000000000000000e+00 0.0000000000000000e+00 0.0000000000000000e+00  0.0000000000000000e+00 0.0000000000000000e+00 0.0000000000000000e+00  0.0000000000000000e+00 0.0000000000000000e+00 0.0000000000000000e+00  0.0000000000000000e+00 0.0000000000000000e+00 0.0000000000000000e+00  0.0000000000000000e+00 0.0000000000000000e+00 0.0000000000000000e+00  0.0000000000000000e+00 0.0000000000000000e+00 0.0000000000000000e+00  0.0000000000000000e+00 0.0000000000000000e+00 0.0000000000000000e+00  0.0000000000000000e+00 0.0000000000000000e+00 0.0000000000000000e+00  0.0000000000000000e+00 0.0000000000000000e+00 0.0000000000000000e+00  0.0000000000000000e+00 0.0000000000000000e+00 0.0000000000000000e+00  0.0000000000000000e+00 3.6401228717800860e-10 0.0000000000000000e+00  0.0000000000000000e+00 0.0000000000000000e+00 0.0000000000000000e+00  0.0000000000000000e+00 0.0000000000000000e+00 0.0000000000000000e+00  0.0000000000000000e+00 0.0000000000000000e+00 0.0000000000000000e+00  0.0000000000000000e+00 0.0000000000000000e+00 0.0000000000000000e+00  0.0000000000000000e+00 0.0000000000000000e+00 0.0000000000000000e+00  0.0000000000000000e+00 0.0000000000000000e+00 0.0000000000000000e+00  0.0000000000000000e+00 0.0000000000000000e+00 0.0000000000000000e+00  0.0000000000000000e+00 0.0000000000000000e+00 0.0000000000000000e+00  0.0000000000000000e+00 0.0000000000000000e+00 0.0000000000000000e+00  0.0000000000000000e+00 0.0000000000000000e+00 0.0000000000000000e+00  0.0000000000000000e+00 0.0000000000000000e+00 0.0000000000000000e+00  0.0000000000000000e+00 0.0000000000000000e+00 0.0000000000000000e+00  0.0000000000000000e+00 0.0000000000000000e+00 0.0000000000000000e+00  1.0685757703104488e-09 0.0000000000000000e+00 0.0000000000000000e+00  0.0000000000000000e+00 0.0000000000000000e+00 0.0000000000000000e+00  0.0000000000000000e+00 0.0000000000000000e+00 0.0000000000000000e+00  0.0000000000000000e+00 0.0000000000000000e+00 0.0000000000000000e+00  0.0000000000000000e+00 0.0000000000000000e+00 0.0000000000000000e+00  0.0000000000000000e+00 0.0000000000000000e+00 0.0000000000000000e+00  0.0000000000000000e+00 0.0000000000000000e+00 0.0000000000000000e+00  0.0000000000000000e+00 0.0000000000000000e+00 0.0000000000000000e+00  0.0000000000000000e+00 0.0000000000000000e+00 0.0000000000000000e+00  0.0000000000000000e+00 0.0000000000000000e+00 0.0000000000000000e+00  0.0000000000000000e+00 0.0000000000000000e+00 0.0000000000000000e+00  0.0000000000000000e+00 0.0000000000000000e+00 0.0000000000000000e+00  0.0000000000000000e+00 0.0000000000000000e+00 0.0000000000000000e+00  0.0000000000000000e+00 0.0000000000000000e+00 0.0000000000000000e+00  0.0000000000000000e+00 0.0000000000000000e+00 0.0000000000000000e+00  0.0000000000000000e+00 0.0000000000000000e+00 0.0000000000000000e+00  0.0000000000000000e+00 0.0000000000000000e+00 0.0000000000000000e+00  0.0000000000000000e+00 0.0000000000000000e+00 0.0000000000000000e+00  0.0000000000000000e+00 0.0000000000000000e+00 0.0000000000000000e+00  0.0000000000000000e+00 0.0000000000000000e+00 0.0000000000000000e+00  0.0000000000000000e+00 0.0000000000000000e+00 0.0000000000000000e+00  0.0000000000000000e+00 0.0000000000000000e+00 0.0000000000000000e+00  0.0000000000000000e+00 0.0000000000000000e+00 0.0000000000000000e+00  0.0000000000000000e+00 0.0000000000000000e+00 0.0000000000000000e+00  0.0000000000000000e+00 0.0000000000000000e+00 0.0000000000000000e+00  0.0000000000000000e+00 0.0000000000000000e+00 0.0000000000000000e+00  6.6144129222601241e-10 6.3793145480204939e-08 0.0000000000000000e+00  0.0000000000000000e+00 0.0000000000000000e+00 0.0000000000000000e+00  0.0000000000000000e+00 0.0000000000000000e+00 0.0000000000000000e+00  0.0000000000000000e+00 0.0000000000000000e+00 0.0000000000000000e+00  0.0000000000000000e+00 0.0000000000000000e+00 0.0000000000000000e+00  0.0000000000000000e+00 0.0000000000000000e+00 0.0000000000000000e+00  0.0000000000000000e+00 0.0000000000000000e+00 0.0000000000000000e+00  0.0000000000000000e+00 0.0000000000000000e+00 0.0000000000000000e+00  0.0000000000000000e+00 0.0000000000000000e+00 0.0000000000000000e+00  0.0000000000000000e+00 0.0000000000000000e+00 0.0000000000000000e+00  0.0000000000000000e+00 0.0000000000000000e+00 0.0000000000000000e+00  0.0000000000000000e+00 0.0000000000000000e+00 0.0000000000000000e+00  0.0000000000000000e+00 0.0000000000000000e+00 0.0000000000000000e+00  0.0000000000000000e+00 0.0000000000000000e+00 0.0000000000000000e+00  0.0000000000000000e+00 0.0000000000000000e+00 0.0000000000000000e+00  0.0000000000000000e+00 0.0000000000000000e+00 0.0000000000000000e+00  0.0000000000000000e+00 0.0000000000000000e+00 0.0000000000000000e+00  0.0000000000000000e+00 0.0000000000000000e+00 0.0000000000000000e+00  0.0000000000000000e+00 0.0000000000000000e+00 0.0000000000000000e+00  0.0000000000000000e+00 0.0000000000000000e+00 0.0000000000000000e+00  0.0000000000000000e+00 0.0000000000000000e+00 0.0000000000000000e+00  0.0000000000000000e+00 0.0000000000000000e+00 0.0000000000000000e+00  0.0000000000000000e+00 0.0000000000000000e+00 0.0000000000000000e+00  0.0000000000000000e+00 0.0000000000000000e+00 0.0000000000000000e+00  0.0000000000000000e+00 0.0000000000000000e+00 0.0000000000000000e+00  0.0000000000000000e+00 0.0000000000000000e+00 0.0000000000000000e+00  0.0000000000000000e+00 0.0000000000000000e+00 0.0000000000000000e+00  0.0000000000000000e+00 0.0000000000000000e+00 0.0000000000000000e+00  -2.3383668467211702e+01 -2.5362640374291033e+01 0.0000000000000000e+00  7.6449710464224809e+00 5.1178905904161729e+00 0.0000000000000000e+00  8.6042579976153419e+00 1.3032113576330749e+01 0.0000000000000000e+00  1.6814740063017108e+01 -1.6699177477353341e+01 0.0000000000000000e+00  -1.7137639595060222e+01 -7.7566217425710349e+00 0.0000000000000000e+00  -6.0201777619611203e+00 2.3288185106542492e+00 0.0000000000000000e+00  -2.8351799230115429e+01 2.9249025597054413e+01 0.0000000000000000e+00  1.1003570396600098e+01 -3.1744889162017191e+00 0.0000000000000000e+00  -1.8295125397588166e+01 9.0904657025350701e+00 0.0000000000000000e+00  8.9106882680291211e+00 1.1972019350033317e+01 0.0000000000000000e+00  1.7785030580700962e+01 -2.5440147587970902e+01 0.0000000000000000e+00  8.9303370187213709e+00 -3.6585081336404841e+01 0.0000000000000000e+00  5.0596436205757165e+00 -2.9324227197996155e+01 0.0000000000000000e+00  -8.7316746019653166e+00 2.6194985079118212e+01 0.0000000000000000e+00  9.0003653596753797e+00 -1.1569702526868269e+01 0.0000000000000000e+00  -1.5733924346392972e-01 2.0982310460795230e+01 0.0000000000000000e+00  2.3551337107067511e+01 -1.0003726343943754e+01 0.0000000000000000e+00  1.8888697245213066e+01 -2.2590203545699378e+01 0.0000000000000000e+00  7.8506244734942197e+00 -1.4263252015882686e+00 0.0000000000000000e+00  6.8616278609443349e+00 -6.5570977316420835e+00 0.0000000000000000e+00  6.2490057416461076e+00 1.1808570091130490e+00 0.0000000000000000e+00  1.5045175633960978e+01 -9.1093444814461417e+00 0.0000000000000000e+00  -1.8843205583509100e+01 -3.5873322674176855e+01 0.0000000000000000e+00  1.9820838449051077e+01 6.3763207232901557e+01 0.0000000000000000e+00  2.9641372869127832e+01 -5.5498590273059856e+00 0.0000000000000000e+00  1.9355497297052555e+01 1.1666983484619802e+01 0.0000000000000000e+00  3.8929235103777657e+01 3.1724696422911634e+01 0.0000000000000000e+00  3.1239413522249755e+01 -2.1733291016306557e+00 0.0000000000000000e+00  1.7814614223926625e+01 1.8789447309658293e+01 0.0000000000000000e+00  -3.7771559809330775e+01 -4.0826699477345132e+00 0.0000000000000000e+00  -3.9117126291062005e+00 1.1156794915442333e+01 0.0000000000000000e+00  3.5731932772179476e+01 -7.2905805468701346e-01 0.0000000000000000e+00  9.5950046796148527e+00 4.6534551784055296e+00 0.0000000000000000e+00  9.3853211453544034e+00 -1.3574205456655669e+01 0.0000000000000000e+00  -1.6062743642045834e+01 -1.4088147309764496e+01 0.0000000000000000e+00  -9.8953345648084653e-02 2.9810437321206255e+01 0.0000000000000000e+00  -1.3185832344730752e+01 -2.8829934714237957e+01 0.0000000000000000e+00  1.0603496990895820e+01 -3.3621070725091311e+00 0.0000000000000000e+00  3.4303120556209443e+01 -5.4835309532094003e+00 0.0000000000000000e+00  8.1928465806083803e+00 -2.2622651480071116e+01 0.0000000000000000e+00  2.5888031304955948e+01 1.1396504575677556e+01 0.0000000000000000e+00  -1.4151962603573956e+01 -1.0368031569251670e+01 0.0000000000000000e+00  -8.9510068138777683e+00 -9.3321529491318123e-01 0.0000000000000000e+00  1.2253545096209353e+00 3.5799631255362158e+01 0.0000000000000000e+00  4.8968958576977002e+01 8.1419166156068002e+01 0.0000000000000000e+00  -1.7403311159906561e+01 -6.2473368771278999e+00 0.0000000000000000e+00  -4.5140848035908647e+01 -6.88