<?xml version="1.0"?>
<VTKFile type="UnstructuredGrid"  version="0.1"  >
<UnstructuredGrid>
<Piece  NumberOfPoints="1419" NumberOfCells="2698">
<Points>
<DataArray  type="Float64"  NumberOfComponents="3"  format="ascii">0 0 0  0 0.41 0  2.5 0 0  2.5 0.41 0  0.5999917841309029 0.1898923757950448 0  0.600000083201213 0.2098861123256082 0  0.25 0.2 0  0.15 0.2 0  0.2489897948556636 0.21 0  0.2489897948556636 0.19 0  0.5999953189940754 0.1998892437389594 0  0 0.3807142857143437 0  0 0.3514285714286952 0  0 0.3221428571430699 0  0 0.29285714285744 0  0 0.2635714285718054 0  0 0.2342857142861561 0  0 0.2050000000005308 0  0 0.175714285714732 0  0 0.1464285714289574 0  0 0.1171428571431897 0  0 0.08785714285737878 0  0 0.05857142857161107 0  0 0.02928571428580012 0  0.03015443760436003 0 0  0.06140001986583606 0 0  0.09377624077125973 0 0  0.1273239957535082 0 0  0.1620856860351972 0 0  0.1981052433264291 0 0  0.235428184091502 0 0  0.2741016576309132 0 0  0.3141745521465447 0 0  0.3556974926295285 0 0  0.3987229542472677 0 0  0.4433053055141081 0 0  0.4895008759286886 0 0  0.5373680609405097 0 0  0.5869673343216626 0 0  0.6383613676634521 0 0  0.6916151138468254 0 0  0.7467958595648856 0 0  0.8039733463919316 0 0  0.8632198139502143 0 0  0.9246101326867038 0 0  0.9882218810934433 0 0  1.054135445558498 0 0  1.122434100542598 0 0  1.193204177141305 0 0  1.266535089879536 0 0  1.342519516046404 0 0  1.421253448503939 0 0  1.502836389106271 0 0  1.587371439758838 0 0  1.674965418777374 0 0  1.765729001825544 0 0  1.859776908880082 0 0  1.957227977487062 0 0  2.058205329869943 0 0  2.162836591189951 0 0  2.271253957290865 0 0  2.383594446803425 0 0  2.5 0.1024999999997612 0  2.5 0.2049999999994743 0  2.5 0.3074999999997183 0  2.383594446803656 0.41 0  2.271253957291315 0.41 0  2.162836591190598 0.41 0  2.058205329870775 0.41 0  1.957227977488067 0.41 0  1.859776908881246 0.41 0  1.765729001826854 0.41 0  1.674965418778818 0.41 0  1.58737143976041 0.41 0  1.502836389107956 0.41 0  1.421253448505726 0.41 0  1.342519516048286 0.41 0  1.266535089881505 0.41 0  1.193204177143353 0.41 0  1.122434100544716 0.41 0  1.05413544556068 0.41 0  0.9882218810956305 0.41 0  0.9246101326886647 0.41 0  0.8632198139519631 0.41 0  0.8039733463934788 0.41 0  0.7467958595662458 0.41 0  0.6916151138480078 0.41 0  0.6383613676644679 0.41 0  0.5869673343225223 0.41 0  0.5373680609412221 0.41 0  0.4895008759292634 0.41 0  0.4433053055145528 0.41 0  0.3987229542475914 0.41 0  0.3556974926297398 0.41 0  0.3141745521466497 0.41 0  0.2741016576310038 0.41 0  0.2354281840915826 0.41 0  0.1981052433265003 0.41 0  0.1620856860352591 0.41 0  0.1273239957535623 0.41 0  0.09377624077128965 0.41 0  0.06140001986584975 0.41 0  0.03015443760436654 0.41 0  0.2497468076502589 0.2050254481002335 0  0.2497468076502614 0.1949745518997913 0  0.2469965252529372 0.1829317073451959 0  0.2439893735792749 0.1762316384219906 0  0.2400332147834255 0.1700443375285386 0  0.2352133972704371 0.1645032867342007 0  0.2296339016332438 0.1597280261969788 0  0.2234150974217223 0.1558215752574715 0  0.2166911463437691 0.1528682099456123 0  0.2096071079204251 0.1509316448471593 0  0.2023158100364996 0.1500536585536553 0  0.194974551899914 0.1502531923497262 0  0.1877417105387872 0.1515259415822739 0  0.1807733240461124 0.153844448527136 0  0.1742197252835808 0.15715869474974 0  0.1682222986673531 0.1613971801805478 0  0.162910430003803 0.1664684656256651 0  0.1583987151779087 0.1722631454351573 0  0.1547844879126891 0.178656207771761 0  0.1521457199348551 0.1855097315605723 0  0.1505393388476355 0.1926758619366523 0  0.1505393388476328 0.2073241380633295 0  0.1521457199348437 0.2144902684393899 0  0.1547844879126531 0.221343792228163 0  0.1583987151778488 0.2277368545647528 0  0.1629104300036858 0.2335315343742052 0  0.1682222986671726 0.2386028198193036 0  0.1742197252833576 0.2428413052501257 0  0.1807733240458683 0.2461555514727623 0  0.1877417105384929 0.2484740584176516 0  0.1949745518995776 0.2497468076502398 0  0.202315810036185 0.2499463414463592 0  0.2096071079201568 0.2490683551528932 0  0.2166911463435495 0.2471317900544655 0  0.2234150974215506 0.2441784247426195 0  0.2296339016331197 0.2402719738031125 0  0.2352133972703547 0.2354967132658811 0  0.2400332147833751 0.2299556624715287 0  0.2439893735792577 0.2237683615780412 0  0.246996525252926 0.2170682926548348 0  0.2564595018268989 0.2099936572125073 0  0.2639285213964045 0.2099931671424881 0  0.2713981560873684 0.2099927517545958 0  0.2788678864728545 0.2099921559214789 0  0.2863375712717495 0.2099913570330769 0  0.2938072143750654 0.2099903933743164 0  0.3012767755785777 0.2099892919687966 0  0.3087462931224071 0.2099880212155374 0  0.3162157296589134 0.2099866284983444 0  0.3236850805149013 0.2099850918354462 0  0.3311543832415692 0.2099834437342034 0  0.3386235864710257 0.2099816673878028 0  0.3460927364086402 0.2099797864792843 0  0.35356178993463 0.2099778106039984 0  0.361030792322965 0.2099757262437984 0  0.3684997061627852 0.2099735636054405 0  0.3759685384888075 0.2099713078073934 0  0.3834373108470931 0.2099689890382653 0  0.3909059930524038 0.2099665873709606 0  0.3983746163569262 0.2099641327532848 0  0.4058431523076224 0.2099616091990466 0  0.4133116245310079 0.2099590370918503 0  0.4207800074753171 0.2099564177383878 0  0.4282483386463193 0.2099537476274979 0  0.4357165858755307 0.2099510405699122 0  0.4431847584533216 0.2099482904318051 0  0.4506528632485937 0.2099455145448962 0  0.4581208917207749 0.2099426999510975 0  0.4655888519142988 0.2099398660206757 0  0.4730567370853876 0.2099369991896215 0  0.480524553621492 0.2099341184908922 0  0.4879922959382559 0.2099312098532425 0  0.4954599693708991 0.2099282918830188 0  0.5029275691482199 0.2099253503774327 0  0.5103950992879254 0.2099224033032595 0  0.5178625563003446 0.2099194362533312 0  0.5253299430439282 0.2099164672986404 0  0.5327972565995729 0.2099134814014772 0  0.5402644987932211 0.2099104968268412 0  0.5477316675538908 0.2099074983018865 0  0.5551987642002003 0.2099045007971811 0  0.5626657758691355 0.2099015007155701 0  0.5701327310827456 0.209898497112539 0  0.5775995984339836 0.2098954998774679 0  0.585066395956151 0.2098925071317264 0  0.5925332086705494 0.2098895494030832 0  0.5999974871253935 0.2048876387890199 0  0.5999933436372953 0.1948908454564825 0  0.592524908753473 0.1898951327157208 0  0.5850580979050629 0.1898983696705021 0  0.5775913074978699 0.1899015732929634 0  0.5701244478299946 0.1899047706163576 0  0.5626575023425231 0.1899079546396942 0  0.5551905017214214 0.1899111341625611 0  0.5477234169334286 0.1899143093061024 0  0.5402562648013518 0.1899174686528238 0  0.5327890439073942 0.1899206336581105 0  0.5253217524858085 0.1899237761551067 0  0.5178543949106575 0.1899269228589992 0  0.5103869672335103 0.1899300444805489 0  0.5029194752367205 0.1899331673035289 0  0.4954519133919031 0.1899362620708569 0  0.4879842889482592 0.1899393544889906 0  0.4805165946397092 0.1899424152412124 0  0.4730488395226348 0.1899454694891506 0  0.4655810143060954 0.189948487707751 0  0.458113130250752 0.189951494414409 0  0.450645175749265 0.1899544598822816 0  0.4431771644989685 0.189957407764153 0  0.4357090824098476 0.1899603094707049 0  0.4282409459292024 0.1899631811501218 0  0.4207727359315088 0.1899660139890537 0  0.4133044786700082 0.1899687936492723 0  0.4058361515706261 0.1899715283219328 0  0.398367760344323 0.189974203324408 0  0.3908993162387978 0.1899768265509193 0  0.3834308040149798 0.1899793776422523 0  0.3759622416504799 0.1899818654509997 0  0.3684936112042923 0.1899842705237918 0  0.3610249295189418 0.1899865960075185 0  0.3535561838581227 0.1899888402447012 0  0.3460873928817393 0.1899909720979444 0  0.3386185396968971 0.1899930095148855 0  0.3311496239279984 0.1899949300204115 0  0.3236806694057873 0.1899967381588211 0  0.3162116470821466 0.1899984129781503 0  0.3087425855235957 0.1899999537375158 0  0.3012734706478591 0.1900013603398525 0  0.2938043176575886 0.1900025892220958 0  0.2863351215789915 0.1900036646332686 0  0.2788658703144324 0.1900045648216632 0  0.271396647946857 0.1900053196446335 0  0.2639274942084086 0.1900058906997322 0  0.256458987757451 0.1900059517907271 0  0.2607808888683141 0.2000724585519927 0  0.588778322545374 0.200021101793048 0  0.5745081826354994 0.2001041997699767 0  0.5511941957060952 0.200021698685188 0  0.2751320823757031 0.1999988348033546 0  0.5365266807873864 0.1999155259343651 0  0.2894675557025372 0.1998664509983227 0  0.5215920775542134 0.1999216583935367 0  0.3127876236398561 0.1998591626596425 0  0.3274173647545074 0.1999901425928633 0  0.5066571943064142 0.1999277514777023 0  0.3650767549890575 0.1998460978556105 0  0.4767865986973103 0.1999397668172224 0  0.3417520576372676 0.1998558365608769 0  0.3796996437068676 0.1999754403917143 0  0.4618508898518772 0.1999456571063348 0  0.4917220340124061 0.1999337925108997 0  0.3946368398381387 0.1999704842852811 0  0.4469149084710505 0.1999514427431838 0  0.4089703775549414 0.1998347277946077 0  0.4322873147128646 0.2000843747697952 0  0.420164245689022 0.1999580867823718 0  0.3529050926406396 0.2000021244856045 0  0.5633151659749253 0.1998858949010275 0  0.300662932330554 0.1999921351040545 0  0.5815907191637485 0.196552398451869 0  0.2677071493666272 0.1964263702335224 0  0.5290582255484498 0.1970112300592025 0  0.5439926814661857 0.1970050324458096 0  0.2825179239408885 0.203543768237268 0  0.3199488273742454 0.2028985226547091 0  0.4842531936774597 0.1970295662836813 0  0.5141234898419085 0.1970173926864064 0  0.3722318471617916 0.2028846788284364 0  0.4693176383223669 0.1970355480208957 0  0.3348871716751814 0.2028951003002461 0  0.3871692362122723 0.2028799105632133 0  0.4543818140829607 0.1970414356759225 0  0.4991884782638614 0.1970235092438616 0  0.4020225417963428 0.2035140629640693 0  0.4394457227342486 0.1970472071485695 0  0.2550652992275269 0.2034070397089853 0  0.2548902762237088 0.1966956662206374 0  0.5946515035432743
[...]
<PointData  Vectors="f_46-0"> 
<DataArray  type="Float64"  Name="f_46-0"  NumberOfComponents="3" format="ascii">0.0000000000000000e+00 0.0000000000000000e+00 0.0000000000000000e+00  0.0000000000000000e+00 0.0000000000000000e+00 0.0000000000000000e+00  0.0000000000000000e+00 0.0000000000000000e+00 0.0000000000000000e+00  0.0000000000000000e+00 0.0000000000000000e+00 0.0000000000000000e+00  5.8419526884880890e-05 -4.9495969558217747e-04 0.0000000000000000e+00  1.0225215872169273e-04 -5.2706954500455594e-04 0.0000000000000000e+00  0.0000000000000000e+00 0.0000000000000000e+00 0.0000000000000000e+00  0.0000000000000000e+00 0.0000000000000000e+00 0.0000000000000000e+00  0.0000000000000000e+00 0.0000000000000000e+00 0.0000000000000000e+00  0.0000000000000000e+00 0.0000000000000000e+00 0.0000000000000000e+00  7.1001864770936439e-05 -5.1052734061620114e-04 0.0000000000000000e+00  7.7023596466869071e-02 0.0000000000000000e+00 0.0000000000000000e+00  1.4219740886192153e-01 0.0000000000000000e+00 0.0000000000000000e+00  1.9552143718514220e-01 0.0000000000000000e+00 0.0000000000000000e+00  2.3699568143659266e-01 0.0000000000000000e+00 0.0000000000000000e+00  2.6662014161626763e-01 0.0000000000000000e+00 0.0000000000000000e+00  2.8439481772416531e-01 0.0000000000000000e+00 0.0000000000000000e+00  2.9031970976026794e-01 0.0000000000000000e+00 0.0000000000000000e+00  2.8439481772452463e-01 0.0000000000000000e+00 0.0000000000000000e+00  2.6662014161688491e-01 0.0000000000000000e+00 0.0000000000000000e+00  2.3699568143735711e-01 0.0000000000000000e+00 0.0000000000000000e+00  1.9552143718586840e-01 0.0000000000000000e+00 0.0000000000000000e+00  1.4219740886254126e-01 0.0000000000000000e+00 0.0000000000000000e+00  7.7023596467218236e-02 0.0000000000000000e+00 0.0000000000000000e+00  0.0000000000000000e+00 0.0000000000000000e+00 0.0000000000000000e+00  0.0000000000000000e+00 0.0000000000000000e+00 0.0000000000000000e+00  0.0000000000000000e+00 0.0000000000000000e+00 0.0000000000000000e+00  0.0000000000000000e+00 0.0000000000000000e+00 0.0000000000000000e+00  0.0000000000000000e+00 0.0000000000000000e+00 0.0000000000000000e+00  0.0000000000000000e+00 0.0000000000000000e+00 0.0000000000000000e+00  0.0000000000000000e+00 0.0000000000000000e+00 0.0000000000000000e+00  0.0000000000000000e+00 0.0000000000000000e+00 0.0000000000000000e+00  0.0000000000000000e+00 0.0000000000000000e+00 0.0000000000000000e+00  0.0000000000000000e+00 0.0000000000000000e+00 0.0000000000000000e+00  0.0000000000000000e+00 0.0000000000000000e+00 0.0000000000000000e+00  0.0000000000000000e+00 0.0000000000000000e+00 0.0000000000000000e+00  0.0000000000000000e+00 0.0000000000000000e+00 0.0000000000000000e+00  0.0000000000000000e+00 0.0000000000000000e+00 0.0000000000000000e+00  0.0000000000000000e+00 0.0000000000000000e+00 0.0000000000000000e+00  0.0000000000000000e+00 0.0000000000000000e+00 0.0000000000000000e+00  0.0000000000000000e+00 0.0000000000000000e+00 0.0000000000000000e+00  0.0000000000000000e+00 0.0000000000000000e+00 0.0000000000000000e+00  0.0000000000000000e+00 0.0000000000000000e+00 0.0000000000000000e+00  0.0000000000000000e+00 0.0000000000000000e+00 0.0000000000000000e+00  0.0000000000000000e+00 0.0000000000000000e+00 0.0000000000000000e+00  0.0000000000000000e+00 0.0000000000000000e+00 0.0000000000000000e+00  0.0000000000000000e+00 0.0000000000000000e+00 0.0000000000000000e+00  0.0000000000000000e+00 0.0000000000000000e+00 0.0000000000000000e+00  0.0000000000000000e+00 0.0000000000000000e+00 0.0000000000000000e+00  0.0000000000000000e+00 0.0000000000000000e+00 0.0000000000000000e+00  0.0000000000000000e+00 0.0000000000000000e+00 0.0000000000000000e+00  0.0000000000000000e+00 0.0000000000000000e+00 0.0000000000000000e+00  0.0000000000000000e+00 0.0000000000000000e+00 0.0000000000000000e+00  0.0000000000000000e+00 0.0000000000000000e+00 0.0000000000000000e+00  0.0000000000000000e+00 0.0000000000000000e+00 0.0000000000000000e+00  0.0000000000000000e+00 0.0000000000000000e+00 0.0000000000000000e+00  0.0000000000000000e+00 0.0000000000000000e+00 0.0000000000000000e+00  0.0000000000000000e+00 0.0000000000000000e+00 0.0000000000000000e+00  0.0000000000000000e+00 0.0000000000000000e+00 0.0000000000000000e+00  0.0000000000000000e+00 0.0000000000000000e+00 0.0000000000000000e+00  0.0000000000000000e+00 0.0000000000000000e+00 0.0000000000000000e+00  0.0000000000000000e+00 0.0000000000000000e+00 0.0000000000000000e+00  1.9787258760441528e-01 6.4725818112152450e-03 0.0000000000000000e+00  2.1105086980690019e-01 8.8138977236533662e-04 0.0000000000000000e+00  1.9583370734480743e-01 -7.0660358083695961e-03 0.0000000000000000e+00  0.0000000000000000e+00 0.0000000000000000e+00 0.0000000000000000e+00  0.0000000000000000e+00 0.0000000000000000e+00 0.0000000000000000e+00  0.0000000000000000e+00 0.0000000000000000e+00 0.0000000000000000e+00  0.0000000000000000e+00 0.0000000000000000e+00 0.0000000000000000e+00  0.0000000000000000e+00 0.0000000000000000e+00 0.0000000000000000e+00  0.0000000000000000e+00 0.0000000000000000e+00 0.0000000000000000e+00  0.0000000000000000e+00 0.0000000000000000e+00 0.0000000000000000e+00  0.0000000000000000e+00 0.0000000000000000e+00 0.0000000000000000e+00  0.0000000000000000e+00 0.0000000000000000e+00 0.0000000000000000e+00  0.0000000000000000e+00 0.0000000000000000e+00 0.0000000000000000e+00  0.0000000000000000e+00 0.0000000000000000e+00 0.0000000000000000e+00  0.0000000000000000e+00 0.0000000000000000e+00 0.0000000000000000e+00  0.0000000000000000e+00 0.0000000000000000e+00 0.0000000000000000e+00  0.0000000000000000e+00 0.0000000000000000e+00 0.0000000000000000e+00  0.0000000000000000e+00 0.0000000000000000e+00 0.0000000000000000e+00  0.0000000000000000e+00 0.0000000000000000e+00 0.0000000000000000e+00  0.0000000000000000e+00 0.0000000000000000e+00 0.0000000000000000e+00  0.0000000000000000e+00 0.0000000000000000e+00 0.0000000000000000e+00  0.0000000000000000e+00 0.0000000000000000e+00 0.0000000000000000e+00  0.0000000000000000e+00 0.0000000000000000e+00 0.0000000000000000e+00  0.0000000000000000e+00 0.0000000000000000e+00 0.0000000000000000e+00  0.0000000000000000e+00 0.0000000000000000e+00 0.0000000000000000e+00  0.0000000000000000e+00 0.0000000000000000e+00 0.0000000000000000e+00  0.0000000000000000e+00 0.0000000000000000e+00 0.0000000000000000e+00  0.0000000000000000e+00 0.0000000000000000e+00 0.0000000000000000e+00  0.0000000000000000e+00 0.0000000000000000e+00 0.0000000000000000e+00  0.0000000000000000e+00 0.0000000000000000e+00 0.0000000000000000e+00  0.0000000000000000e+00 0.0000000000000000e+00 0.0000000000000000e+00  0.0000000000000000e+00 0.0000000000000000e+00 0.0000000000000000e+00  0.0000000000000000e+00 0.0000000000000000e+00 0.0000000000000000e+00  0.0000000000000000e+00 0.0000000000000000e+00 0.0000000000000000e+00  0.0000000000000000e+00 0.0000000000000000e+00 0.0000000000000000e+00  0.0000000000000000e+00 0.0000000000000000e+00 0.0000000000000000e+00  0.0000000000000000e+00 0.0000000000000000e+00 0.0000000000000000e+00  0.0000000000000000e+00 0.0000000000000000e+00 0.0000000000000000e+00  0.0000000000000000e+00 0.0000000000000000e+00 0.0000000000000000e+00  0.0000000000000000e+00 0.0000000000000000e+00 0.0000000000000000e+00  0.0000000000000000e+00 0.0000000000000000e+00 0.0000000000000000e+00  0.0000000000000000e+00 0.0000000000000000e+00 0.0000000000000000e+00  0.0000000000000000e+00 0.0000000000000000e+00 0.0000000000000000e+00  0.0000000000000000e+00 0.0000000000000000e+00 0.0000000000000000e+00  0.0000000000000000e+00 0.0000000000000000e+00 0.0000000000000000e+00  0.0000000000000000e+00 0.0000000000000000e+00 0.0000000000000000e+00  0.0000000000000000e+00 0.0000000000000000e+00 0.0000000000000000e+00  0.0000000000000000e+00 0.0000000000000000e+00 0.0000000000000000e+00  0.0000000000000000e+00 0.0000000000000000e+00 0.0000000000000000e+00  0.0000000000000000e+00 0.0000000000000000e+00 0.0000000000000000e+00  0.0000000000000000e+00 0.0000000000000000e+00 0.0000000000000000e+00  0.0000000000000000e+00 0.0000000000000000e+00 0.0000000000000000e+00  0.0000000000000000e+00 0.0000000000000000e+00 0.0000000000000000e+00  0.0000000000000000e+00 0.0000000000000000e+00 0.0000000000000000e+00  0.0000000000000000e+00 0.0000000000000000e+00 0.0000000000000000e+00  0.0000000000000000e+00 0.0000000000000000e+00 0.0000000000000000e+00  0.0000000000000000e+00 0.0000000000000000e+00 0.0000000000000000e+00  0.0000000000000000e+00 0.0000000000000000e+00 0.0000000000000000e+00  0.0000000000000000e+00 0.0000000000000000e+00 0.0000000000000000e+00  0.0000000000000000e+00 0.0000000000000000e+00 0.0000000000000000e+00  0.0000000000000000e+00 0.0000000000000000e+00 0.0000000000000000e+00  0.0000000000000000e+00 0.0000000000000000e+00 0.0000000000000000e+00  0.0000000000000000e+00 0.0000000000000000e+00 0.0000000000000000e+00  0.0000000000000000e+00 0.0000000000000000e+00 0.0000000000000000e+00  0.0000000000000000e+00 0.0000000000000000e+00 0.0000000000000000e+00  0.0000000000000000e+00 0.0000000000000000e+00 0.0000000000000000e+00  0.0000000000000000e+00 0.0000000000000000e+00 0.0000000000000000e+00  0.0000000000000000e+00 0.0000000000000000e+00 0.0000000000000000e+00  0.0000000000000000e+00 0.0000000000000000e+00 0.0000000000000000e+00  0.0000000000000000e+00 0.0000000000000000e+00 0.0000000000000000e+00  0.0000000000000000e+00 0.0000000000000000e+00 0.0000000000000000e+00  0.0000000000000000e+00 0.0000000000000000e+00 0.0000000000000000e+00  0.0000000000000000e+00 0.0000000000000000e+00 0.0000000000000000e+00  0.0000000000000000e+00 0.0000000000000000e+00 0.0000000000000000e+00  0.0000000000000000e+00 0.0000000000000000e+00 0.0000000000000000e+00  0.0000000000000000e+00 0.0000000000000000e+00 0.0000000000000000e+00  0.0000000000000000e+00 0.0000000000000000e+00 0.0000000000000000e+00  0.0000000000000000e+00 0.0000000000000000e+00 0.0000000000000000e+00  0.0000000000000000e+00 0.0000000000000000e+00 0.0000000000000000e+00  0.0000000000000000e+00 0.0000000000000000e+00 0.0000000000000000e+00  0.0000000000000000e+00 0.0000000000000000e+00 0.0000000000000000e+00  1.6863793479797708e-06 3.4331556328324954e-05 0.0000000000000000e+00  9.2758946843822475e-06 -9.7618233755555859e-06 0.0000000000000000e+00  1.2073539134099533e-05 -1.4088148796308396e-05 0.0000000000000000e+00  1.7478880620096996e-05 -1.6993212500811470e-05 0.0000000000000000e+00  2.3300183835177631e-05 -1.9214586098660001e-05 0.0000000000000000e+00  2.7573984237797388e-05 -2.2070476232404058e-05 0.0000000000000000e+00  3.3458965196012094e-05 -2.6906920167931671e-05 0.0000000000000000e+00  3.7034033088517567e-05 -3.0088771207012768e-05 0.0000000000000000e+00  4.1580681715578267e-05 -3.5498792842460356e-05 0.0000000000000000e+00  4.7260621704959423e-05 -4.0282051566966915e-05 0.0000000000000000e+00  5.0409126962532323e-05 -4.6922738505890002e-05 0.0000000000000000e+00  5.5788533062546485e-05 -5.3003687599866646e-05 0.0000000000000000e+00  5.8939538137933594e-05 -6.0167861244935491e-05 0.0000000000000000e+00  6.3941466060367223e-05 -6.8563333114734921e-05 0.0000000000000000e+00  6.6487832287380835e-05 -7.6265354078944661e-05 0.0000000000000000e+00  7.0129955609608661e-05 -8.5521840025296647e-05 0.0000000000000000e+00  7.4169966279876725e-05 -9.4188593621286878e-05 0.0000000000000000e+00  7.6625750575010136e-05 -1.0465291090260959e-04 0.0000000000000000e+00  8.0348220976557538e-05 -1.1430588747220033e-04 0.0000000000000000e+00  8.2431298287221675e-05 -1.2557027624380255e-04 0.0000000000000000e+00  8.5572908393732834e-05 -1.3629300136060732e-04 0.0000000000000000e+00  8.7573516647936953e-05 -1.4800057418262226e-04 0.0000000000000000e+00  9.0899018791629167e-05 -1.6029595178118766e-04 0.0000000000000000e+00  9.2005213644150044e-05 -1.7244524885967022e-04 0.0000000000000000e+00  9.3980220815062027e-05 -1.8536384302766115e-04 0.0000000000000000e+00  9.5949843992700962e-05 -1.9802662146338294e-04 0.0000000000000000e+00  9.7313258280023394e-05 -2.1180465325261073e-04 0.0000000000000000e+00  9.8885312677903452e-05 -2.2505874381966177e-04 0.0000000000000000e+00  9.9933919453584823e-05 -2.3937984249723077e-04 0.0000000000000000e+00  1.0110806171307749e-04 -2.5315473639262506e-04 0.0000000000000000e+00  1.0183063948858229e-04 -2.6794433766316755e-04 0.0000000000000000e+00  1.0261473993350432e-04 -2.8215021596774098e-04 0.0000000000000000e+00  1.0300610587830185e-04 -2.9733561744728099e-04 0.0000000000000000e+00  1.0340791985091727e-04 -3.1188485772199836e-04 0.0000000000000000e+00  1.0345807678920364e-04 -3.2738373768633020e-04 0.0000000000000000e+00  1.0347968981945438e-04 -3.4220977715628995e-04 0.0000000000000000e+00  1.0319239039626468e-04 -3.5795079312045804e-04 0.0000000000000000e+00  1.0283632625136447e-04 -3.7297465410669333e-04 0.0000000000000000e+00  1.0221452342366122e-04 -3.8889083645760037e-04 0.0000000000000000e+00  1.0145788042011918e-04 -4.0408036963320021e-04 0.0000000000000000e+00  1.0040626859135688e-04 -4.1983899576094594e-04 0.0000000000000000e+00  1.0017407135923863e-04 -4.3565813483209249e-04 0.0000000000000000e+00  9.7881264884823731e-05 -4.5126429358975184e-04 0.0000000000000000e+00  9.6385393087549821e-05 -4.6714596247611245e-04 0.0000000000000000e+00  9.4983294992166526e-05 -4.8232223431378933e-04 0.0000000000000000e+00  9.2245159093666554e-05 -5.0374824939479446e-04 0.0000000000000000e+00  8.4817448221872227e-05 -5.1305866040248307e-04 0.0000000000000000e+00  6.3708770674960285e-05 -5.0856822861765003e-04 0.0000000000000000e+00  5.0643617635206627e-05 -4.8516359078571125e-04 0.0000000000000000e+00  5.2663379708505449e-05 -4.7460744808211481e-04 0.0000000000000000e+00  5.3895183042302660e-05 -4.5784294289463880e-04 0.0000000000000000e+00  5.5399819386457728e-05 -4.4208601986856519e-04 0.0000000000000000e+00  5.7705573458343695e-05 -4.2597062806619342e-04 0.0000000000000000e+00  5.8055986476682431e-05 -4.1004940447876310e-04 0.0000000000000000e+00  5.9449534686625710e-05 -3.9431989969055488e-04 0.0000000000000000e+00  6.0390831467382537e-05 -3.7777413193981849e-04 0.0000000000000000e+00  6.1106229801153510e-05 -3.6257406460319801e-04 0.0000000000000000e+00  6.1838240083353439e-05 -3.4611458226128873e-04 0.0000000000000000e+00  6.2239249338795065e-05 -3.3110361027703243e-04 0.0000000000000000e+00  6.2729078508139851e-05 -3.1486317218751194e-04 0.0000000000000000e+00  6.2830860890993482e-05 -3.0009140746728474e-04 0.0000000000000000e+00  6.3093068222206205e-05 -2.8413839326062206e-04 0.0000000000000000e+00  6.2896852771300178e-05 -2.6967669095281536e-04 0.0000000000000000e+00  6.2944307274880669e-05 -2.5408436054751086e-04 0.0000000000000000e+00  6.2447526983183281e-05 -2.4000886276665103e-04 0.0000000000000000e+00  6.2290615568452143e-05 -2.2485508804864966e-04 0.0000000000000000e+00  6.1489221325843226e-05 -2.1125057220288770e-04 0.0000000000000000e+00  6.1141171321625699e-05 -1.9661980729166647e-04 0.0000000000000000e+00  6.0031773469874861e-05 -1.8354544471754634e-04 0.0000000000000000e+00  5.9494438681645842e-05 -1.6961224109455185e-04 0.0000000000000000e+00  5.8037917469337651e-05 -1.5672286163228780e-04 0.0000000000000000e+00  5.7554968544232580e-05 -1.4443803403005770e-04 0.0000000000000000e+00  5.5482670548383761e-05 -1.3179333119564931e-04 0.0000000000000000e+00  5.4124262069601370e-05 -1.1998268848764392e-04 0.0000000000000000e+00  5.2938236974951537e-05 -1.0807292787423952e-04 0.0000000000000000e+00  5.0927231895081583e-05 -9.7359395298218354e-05 0.0000000000000000e+00  4.9559906402486295e-05 -8.6365785189206640e-05 0.0000000000000000e+00  4.7205818663317061e-05 -7.6560329623801384e-05 0.0000000000000000e+00  4.5606654679273877e-05 -6.6618228486306404e-05 0.0000000000000000e+00  4.3238980034205395e-05 -5.7505446532706453e-05 0.0000000000000000e+00  4.1408533205787575e-05 -4.9709630940769697e-05 0.0000000000000000e+00  3.8287933609059217e-05 -4.0957624372036679e-05 0.0000000000000000e+00  3.5676426427189460e-05 -3.3609331940257585e-05 0.0000000000000000e+00  3.3678148185947079e-05 -2.6324498187987551e-05 0.0000000000000000e+00  3.0120720785378936e-05 -2.0307837628869248e-05 0.0000000000000000e+00  2.7935854865210886e-05 -1.4365613211656023e-05 0.0000000000000000e+00  2.4558197873613990e-05 -9.2592114575665742e-06 0.0000000000000000e+00  2.1640929790177691e-05 -5.9441760453858489e-06 0.0000000000000000e+00  1.7919196935968159e-05 -1.1117463246086143e-06 0.0000000000000000e+00  1.4280933411413902e-05 1.9642225658667245e-06 0.0000000000000000e+00  1.2526034128306953e-05 4.9038386481466400e-06 0.0000000000000000e+00  6.1862288919392046e-06 5.7252280379303452e-06 0.0000000000000000e+00  7.1957457511363063e-06 3.3541974023081524e-06 0.0000000000000000e+00  1.7512795296721145e-06 -3.4733655830462997e-05 0.0000000000000000e+00  6.5343857345877788e-06 -2.4809690014908854e-06 0.0000000000000000e+00  7.2588747145102897e-05 -4.8657414759522227e-04 0.0000000000000000e+00  7.6013725539826846e-05 -4.5604451299893881e-04 0.0000000000000000e+00  7.9658679365372933e-05 -4.0658862419417149e-04 0.0000000000000000e+00  1.2419790886151889e-05 -5.3310356268219605e-06 0.0000000000000000e+00  8.0969198250854295e-05 -3.7552587960837706e-04 0.0000000000000000e+00  2.0387471783882607e-05 -9.4078163521983514e-06 0.0000000000000000e+00  8.2024511081424305e-05 -3.4429485517501401e-04 0.0000000000000000e+00  3.2406218623109187e-05 -2.2103246959667280e-05 0.0000000000000000e+00  3.9796871961023767e-05 -3.3351686250298815e-05 0.0000000000000000e+00  8.2449930119044999e-05 -3.1348929134399154e-04 0.0000000000000000e+00  5.5845687140503966e-05 -7.1477892318505361e-05 0.0000000000000000e+00  8.1435129482827111e-05 -2.5369434423383404e-04 0.0000000000000000e+00  4.6575658370017832e-05 -4.5775685614427361e-05 0.0000000000000000e+00  6.1253848605739394e-05 -9.0287199011659675e-05 0.0000000000000000e+00  8.0005714084131253e-05 -2.2501585351956808e-04 0.0000000000000000e+00  8.2251197430830957e-05 -2.8323850451894214e-04 0.0000000000000000e+00  6.6119587346686988e-05 -1.1114598968286331e-04 0.0000000000000000e+00  7.7976437211001385e-05 -1.9735837710625016e-04 0.0000000000000000e+00  7.0099755697060641e-05 -1.3268577373137534e-04 0.0000000000000000e+00  7.5770432983677085e-05 -1.7140997822009612e-04 0.0000000000000000e+00  7.3987459147562183e-05 -1.5097913370067659e-04 0.0000000000000000e+00  5.2327477050264582e-05 -5.7799762583007619e-05 0.0000000000000000e+00  7.8681016368946225e-05 -4.3216985655909794e-04 0.0000000000000000e+00  2.7199977841662200e-05 -1.5212722687748736e-05 0.0000000000000000e+00  6.6876833528350929e-05 -4.6947937914509468e-04 0.0000000000000000e+00  7.8852333882695766e-06 -1.5047693623717304e-06 0.0000000000000000e+00  7.6026011872033935e-05 -3.5825243340968736e-04 0.0000000000000000e+00  7.4591074338251285e-05 -3.8971131296584806e-04 0.0000000000000000e+00  1.7827142068291529e-05 -1.1119854931194269e-05 0.0000000000000000e+00  3.8857498338500413e-05 -3.0541287522549075e-05 0.0000000000000000e+00  7.6686827457049701e-05 -2.6647339550564753e-04 0.0000000000000000e+00  7.6844493364036811e-05 -3.2712590170753990e-04 0.0000000000000000e+00  6.2870498214996886e-05 -8.3238380627480657e-05 0.0000000000000000e+00  7.5727690194074489e-05 -2.3724886855483885e-04 0.0000000000000000e+00  4.6403840440553966e-05 -4.2780016000849809e-05 0.0000000000000000e+00  6.8290425470663799e-05 -1.0312603703003765e-04 0.0000000000000000e+00  7.4187489946377671e-05 -2.0897476533458586e-04 0.0000000000000000e+00  7.7061365508312852e-05 -2.9648427294195974e-04 0.0000000000000000e+00  7.4069929679469447e-05 -1.2524522793307694e-04 0.0000000000000000e+00  7.2061204949763270e-05 -1.8182985889159071e-04 0.0000000000000000e+00  2.2289030351463065e-05 -5.7133341097515122e-06 0.0000000000000000e+00  2.0917548639589329e-05 4.7886941891813840e-08 0.0000000000000000e+00  7.7534339219314225e-05 -5.0122683741354987e-04 0.0000000000000000e+00  9.5088010325671214e-06 -6.2145540211068385e-06 0.0000000000000000e+00  6.876214189