<?xml version="1.0"?>
<VTKFile type="UnstructuredGrid"  version="0.1"  >
<UnstructuredGrid>
<Piece  NumberOfPoints="5536" NumberOfCells="10792">
<Points>
<DataArray  type="Float64"  NumberOfComponents="3"  format="ascii">0 0 0  0 0.41 0  2.5 0 0  2.5 0.41 0  0.5999982262992299 0.1900000650454591 0  0.5999982271329317 0.2099999200399419 0  0.25 0.2 0  0.15 0.2 0  0.2489897948556636 0.21 0  0.2489897948556636 0.19 0  0.5999982242531962 0.1999999924861167 0  0 0.3807142857143437 0  0 0.3514285714286952 0  0 0.3221428571430699 0  0 0.29285714285744 0  0 0.2635714285718054 0  0 0.2342857142861561 0  0 0.2050000000005308 0  0 0.175714285714732 0  0 0.1464285714289574 0  0 0.1171428571431897 0  0 0.08785714285737878 0  0 0.05857142857161107 0  0 0.02928571428580012 0  0.03015443760436003 0 0  0.06140001986583606 0 0  0.09377624077125973 0 0  0.1273239957535082 0 0  0.1620856860351972 0 0  0.1981052433264291 0 0  0.235428184091502 0 0  0.2741016576309132 0 0  0.3141745521465447 0 0  0.3556974926295285 0 0  0.3987229542472677 0 0  0.4433053055141081 0 0  0.4895008759286886 0 0  0.5373680609405097 0 0  0.5869673343216626 0 0  0.6383613676634521 0 0  0.6916151138468254 0 0  0.7467958595648856 0 0  0.8039733463919316 0 0  0.8632198139502143 0 0  0.9246101326867038 0 0  0.9882218810934433 0 0  1.054135445558498 0 0  1.122434100542598 0 0  1.193204177141305 0 0  1.266535089879536 0 0  1.342519516046404 0 0  1.421253448503939 0 0  1.502836389106271 0 0  1.587371439758838 0 0  1.674965418777374 0 0  1.765729001825544 0 0  1.859776908880082 0 0  1.957227977487062 0 0  2.058205329869943 0 0  2.162836591189951 0 0  2.271253957290865 0 0  2.383594446803425 0 0  2.5 0.1024999999997612 0  2.5 0.2049999999994743 0  2.5 0.3074999999997183 0  2.383594446803656 0.41 0  2.271253957291315 0.41 0  2.162836591190598 0.41 0  2.058205329870775 0.41 0  1.957227977488067 0.41 0  1.859776908881246 0.41 0  1.765729001826854 0.41 0  1.674965418778818 0.41 0  1.58737143976041 0.41 0  1.502836389107956 0.41 0  1.421253448505726 0.41 0  1.342519516048286 0.41 0  1.266535089881505 0.41 0  1.193204177143353 0.41 0  1.122434100544716 0.41 0  1.05413544556068 0.41 0  0.9882218810956305 0.41 0  0.9246101326886647 0.41 0  0.8632198139519631 0.41 0  0.8039733463934788 0.41 0  0.7467958595662458 0.41 0  0.6916151138480078 0.41 0  0.6383613676644679 0.41 0  0.5869673343225223 0.41 0  0.5373680609412221 0.41 0  0.4895008759292634 0.41 0  0.4433053055145528 0.41 0  0.3987229542475914 0.41 0  0.3556974926297398 0.41 0  0.3141745521466497 0.41 0  0.2741016576310038 0.41 0  0.2354281840915826 0.41 0  0.1981052433265003 0.41 0  0.1620856860352591 0.41 0  0.1273239957535623 0.41 0  0.09377624077128965 0.41 0  0.06140001986584975 0.41 0  0.03015443760436654 0.41 0  0.2497468076502589 0.2050254481002335 0  0.2497468076502614 0.1949745518997913 0  0.2469965252529372 0.1829317073451959 0  0.2439893735792749 0.1762316384219906 0  0.2400332147834255 0.1700443375285386 0  0.2352133972704371 0.1645032867342007 0  0.2296339016332438 0.1597280261969788 0  0.2234150974217223 0.1558215752574715 0  0.2166911463437691 0.1528682099456123 0  0.2096071079204251 0.1509316448471593 0  0.2023158100364996 0.1500536585536553 0  0.194974551899914 0.1502531923497262 0  0.1877417105387872 0.1515259415822739 0  0.1807733240461124 0.153844448527136 0  0.1742197252835808 0.15715869474974 0  0.1682222986673531 0.1613971801805478 0  0.162910430003803 0.1664684656256651 0  0.1583987151779087 0.1722631454351573 0  0.1547844879126891 0.178656207771761 0  0.1521457199348551 0.1855097315605723 0  0.1505393388476355 0.1926758619366523 0  0.1505393388476328 0.2073241380633295 0  0.1521457199348437 0.2144902684393899 0  0.1547844879126531 0.221343792228163 0  0.1583987151778488 0.2277368545647528 0  0.1629104300036858 0.2335315343742052 0  0.1682222986671726 0.2386028198193036 0  0.1742197252833576 0.2428413052501257 0  0.1807733240458683 0.2461555514727623 0  0.1877417105384929 0.2484740584176516 0  0.1949745518995776 0.2497468076502398 0  0.202315810036185 0.2499463414463592 0  0.2096071079201568 0.2490683551528932 0  0.2166911463435495 0.2471317900544655 0  0.2234150974215506 0.2441784247426195 0  0.2296339016331197 0.2402719738031125 0  0.2352133972703547 0.2354967132658811 0  0.2400332147833751 0.2299556624715287 0  0.2439893735792577 0.2237683615780412 0  0.246996525252926 0.2170682926548348 0  0.2564580738284982 0.2099998966895461 0  0.263926339210434 0.2099998868645353 0  0.2713946133802204 0.209999887527851 0  0.2788628897977344 0.209999888106685 0  0.2863311660461846 0.2099998882031848 0  0.29379944183316 0.2099998882594915 0  0.3012677170659586 0.2099998883084204 0  0.3087359917912778 0.2099998884293306 0  0.3162042659471722 0.2099998887080696 0  0.3236725395232469 0.2099998889960708 0  0.3311408125255088 0.2099998894512966 0  0.3386090849601962 0.2099998899421146 0  0.3460773567561881 0.209999890641263 0  0.3535456279456006 0.209999891359501 0  0.361013898544787 0.209999892166055 0  0.3684821684841637 0.2099998931163761 0  0.3759504378232391 0.2099998940429653 0  0.3834187064829523 0.2099998951246239 0  0.3908869745336132 0.209999896150318 0  0.3983552419059239 0.2099998973169868 0  0.4058235086112379 0.2099998984205378 0  0.4132917746822905 0.2099998996021243 0  0.4207600400615958 0.2099999007313713 0  0.4282283048036499 0.2099999018641907 0  0.4356965688533906 0.2099999030479291 0  0.4431648322457981 0.20999990419295 0  0.4506330949752666 0.2099999053317341 0  0.4581013570453011 0.2099999064551999 0  0.4655696184583681 0.2099999075647223 0  0.4730378792240915 0.2099999086557621 0  0.4805061393490649 0.2099999097266639 0  0.4879743988439878 0.2099999107744704 0  0.4954426577178441 0.2099999117967439 0  0.5029109159828151 0.2099999127874144 0  0.5103791736496824 0.2099999137467903 0  0.5178474307346604 0.2099999146664719 0  0.5253156872531339 0.2099999155471215 0  0.5327839432206315 0.2099999163851434 0  0.5402521986529553 0.2099999171821102 0  0.5477204535684804 0.2099999179337319 0  0.5551887079963425 0.2099999186712297 0  0.5626569619187054 0.2099999193178002 0  0.570125215408341 0.2099999199289106 0  0.577593468450058 0.2099999205698463 0  0.5850617211435236 0.2099999212076999 0  0.5925299737554838 0.2099999217303248 0  0.5999982247318071 0.2049999562651806 0  0.5999982243616508 0.1950000286487924 0  0.5925299729675063 0.1900000638875141 0  0.5850617203702366 0.1900000650400687 0  0.5775934677146215 0.1900000662222477 0  0.5701252147134684 0.1900000674282399 0  0.5626569612742383 0.1900000685503333 0  0.5551887074145091 0.1900000696619758 0  0.5477204530763899 0.1900000708438994 0  0.540252198223842 0.1900000719045139 0  0.5327839428864509 0.1900000730434594 0  0.5253156869831536 0.190000074068178 0  0.5178474305563262 0.1900000751702747 0  0.5103791735276587 0.1900000761566674 0  0.5029109159295948 0.1900000771998729 0  0.4954426577428983 0.1900000781524152 0  0.4879743989109761 0.1900000791863233 0  0.4805061394840127 0.1900000801095721 0  0.4730378793916196 0.1900000811174378 0  0.4655696186841229 0.1900000820141484 0  0.4581013573088631 0.1900000830228978 0  0.4506330952552279 0.1900000838947671 0  0.4431648325730559 0.1900000848570885 0  0.4356965691852949 0.1900000857061168 0  0.4282283051524507 0.190000086638594 0  0.420760040415353 0.1900000874963649 0  0.4132917750314118 0.1900000883442613 0  0.4058235089452334 0.1900000892473603 0  0.3983552421850836 0.1900000901201163 0  0.3908869747477269 0.1900000910086486 0  0.3834187066364513 0.1900000919094731 0  0.375950437850765 0.1900000928375773 0  0.3684821683993478 0.1900000937961831 0  0.3610138982970433 0.190000094825645 0  0.353545627523857 0.1900000958554615 0  0.3460773561445736 0.190000096939751 0  0.3386090841176969 0.1900000981366485 0  0.3311408114966281 0.1900000993700431 0  0.3236725382944454 0.190000100665268 0  0.3162042645334823 0.1900001020124143 0  0.3087359902462112 0.1900001034192701 0  0.3012677154410416 0.1900001048019942 0  0.2937994401847026 0.1900001061693189 0  0.2863311644630968 0.1900001075380573 0  0.2788628883439989 0.1900001089107239 0  0.2713946121560215 0.1900001105864458 0  0.2639263383121254 0.1900001121785487 0  0.2564580733575186 0.1900001028889488 0  0.2607802570657844 0.2000727126297368 0  0.5887786773406544 0.2001272307638701 0  0.5745056354087876 0.2002044355270023 0  0.5511876896998525 0.2001122544543367 0  0.2751287506400517 0.1999999988634501 0  0.5365180706874311 0.1999999946439091 0  0.2894619704360736 0.1998691676807805 0  0.5215815588420994 0.1999999948771561 0  0.312778744773453 0.1998657855592913 0  0.3274066754845188 0.1999999945676666 0  0.5066450447521472 0.1999999949903519 0  0.365062627236596 0.1998660125912891 0  0.4767720093631794 0.1999999949202104 0  0.3417398881047556 0.1998691638818218 0  0.3796845722298488 0.1999999934555631 0  0.4618354878798296 0.199999994773543 0  0.4917085282934588 0.1999999949982502 0  0.3946211083712519 0.1999999936367615 0  0.4468989637801137 0.1999999945699321 0  0.4089543099153926 0.199869163765197 0  0.432271053244126 0.2001274444173026 0  0.4201480137291682 0.1999966140373611 0  0.3528918755750629 0.200018563740879 0  0.563310712049618 0.1999814237101694 0  0.3006556889296506 0.1999966165403393 0  0.581590997779913 0.1966545457428904 0  0.2677053011967532 0.1964246882598542 0  0.5290498149966034 0.1970916003777496 0  0.5439863257495193 0.1970915995349511 0  0.2825129985564187 0.2035478587694186 0  0.3199384022815572 0.2029083814538688 0  0.4842402691584225 0.197091602294898 0  0.5141133020664345 0.1970916011125076 0  0.3722163031760332 0.2029083816873928 0  0.4693037489739791 0.197091602771295 0  0.3348749484325464 0.2029083810855389 0  0.3871528406068688 0.2029083823682383 0  0.4543672261996665 0.1970916031865736 0  0.4991767868255019 0.1970916017483808 0  0.4020053465725503 0.2035478593183252 0  0.4394307007818443 0.1970916035532234 0  0.2550657070229919 0.2034087816934571 0  0.2548908122668681 0.1966940597628059 0  0.5946522113548481 0.20243
[...]
<PointData  Vectors="f_49-0"> 
<DataArray  type="Float64"  Name="f_49-0"  NumberOfComponents="3" format="ascii">0.0000000000000000e+00 0.0000000000000000e+00 0.0000000000000000e+00  0.0000000000000000e+00 0.0000000000000000e+00 0.0000000000000000e+00  0.0000000000000000e+00 0.0000000000000000e+00 0.0000000000000000e+00  0.0000000000000000e+00 0.0000000000000000e+00 0.0000000000000000e+00  -1.1784075072944562e-04 2.7810257447746874e-06 0.0000000000000000e+00  -1.1779517693678137e-04 -3.8312256314451312e-06 0.0000000000000000e+00  0.0000000000000000e+00 0.0000000000000000e+00 0.0000000000000000e+00  0.0000000000000000e+00 0.0000000000000000e+00 0.0000000000000000e+00  0.0000000000000000e+00 0.0000000000000000e+00 0.0000000000000000e+00  0.0000000000000000e+00 0.0000000000000000e+00 0.0000000000000000e+00  -1.1802626841882221e-04 -5.1549206695161642e-07 0.0000000000000000e+00  9.8184417022614419e-05 0.0000000000000000e+00 0.0000000000000000e+00  1.8126353911868476e-04 0.0000000000000000e+00 0.0000000000000000e+00  2.4923736628819164e-04 0.0000000000000000e+00 0.0000000000000000e+00  3.0210589853121362e-04 0.0000000000000000e+00 0.0000000000000000e+00  3.3986913584774394e-04 0.0000000000000000e+00 0.0000000000000000e+00  3.6252707823778021e-04 0.0000000000000000e+00 0.0000000000000000e+00  3.7007972570130004e-04 0.0000000000000000e+00 0.0000000000000000e+00  3.6252707823823834e-04 0.0000000000000000e+00 0.0000000000000000e+00  3.3986913584853085e-04 0.0000000000000000e+00 0.0000000000000000e+00  3.0210589853218810e-04 0.0000000000000000e+00 0.0000000000000000e+00  2.4923736628911739e-04 0.0000000000000000e+00 0.0000000000000000e+00  1.8126353911947476e-04 0.0000000000000000e+00 0.0000000000000000e+00  9.8184417023059511e-05 0.0000000000000000e+00 0.0000000000000000e+00  0.0000000000000000e+00 0.0000000000000000e+00 0.0000000000000000e+00  0.0000000000000000e+00 0.0000000000000000e+00 0.0000000000000000e+00  0.0000000000000000e+00 0.0000000000000000e+00 0.0000000000000000e+00  0.0000000000000000e+00 0.0000000000000000e+00 0.0000000000000000e+00  0.0000000000000000e+00 0.0000000000000000e+00 0.0000000000000000e+00  0.0000000000000000e+00 0.0000000000000000e+00 0.0000000000000000e+00  0.0000000000000000e+00 0.0000000000000000e+00 0.0000000000000000e+00  0.0000000000000000e+00 0.0000000000000000e+00 0.0000000000000000e+00  0.0000000000000000e+00 0.0000000000000000e+00 0.0000000000000000e+00  0.0000000000000000e+00 0.0000000000000000e+00 0.0000000000000000e+00  0.0000000000000000e+00 0.0000000000000000e+00 0.0000000000000000e+00  0.0000000000000000e+00 0.0000000000000000e+00 0.0000000000000000e+00  0.0000000000000000e+00 0.0000000000000000e+00 0.0000000000000000e+00  0.0000000000000000e+00 0.0000000000000000e+00 0.0000000000000000e+00  0.0000000000000000e+00 0.0000000000000000e+00 0.0000000000000000e+00  0.0000000000000000e+00 0.0000000000000000e+00 0.0000000000000000e+00  0.0000000000000000e+00 0.0000000000000000e+00 0.0000000000000000e+00  0.0000000000000000e+00 0.0000000000000000e+00 0.0000000000000000e+00  0.0000000000000000e+00 0.0000000000000000e+00 0.0000000000000000e+00  0.0000000000000000e+00 0.0000000000000000e+00 0.0000000000000000e+00  0.0000000000000000e+00 0.0000000000000000e+00 0.0000000000000000e+00  0.0000000000000000e+00 0.0000000000000000e+00 0.0000000000000000e+00  0.0000000000000000e+00 0.0000000000000000e+00 0.0000000000000000e+00  0.0000000000000000e+00 0.0000000000000000e+00 0.0000000000000000e+00  0.0000000000000000e+00 0.0000000000000000e+00 0.0000000000000000e+00  0.0000000000000000e+00 0.0000000000000000e+00 0.0000000000000000e+00  0.0000000000000000e+00 0.0000000000000000e+00 0.0000000000000000e+00  0.0000000000000000e+00 0.0000000000000000e+00 0.0000000000000000e+00  0.0000000000000000e+00 0.0000000000000000e+00 0.0000000000000000e+00  0.0000000000000000e+00 0.0000000000000000e+00 0.0000000000000000e+00  0.0000000000000000e+00 0.0000000000000000e+00 0.0000000000000000e+00  0.0000000000000000e+00 0.0000000000000000e+00 0.0000000000000000e+00  0.0000000000000000e+00 0.0000000000000000e+00 0.0000000000000000e+00  0.0000000000000000e+00 0.0000000000000000e+00 0.0000000000000000e+00  0.0000000000000000e+00 0.0000000000000000e+00 0.0000000000000000e+00  0.0000000000000000e+00 0.0000000000000000e+00 0.0000000000000000e+00  0.0000000000000000e+00 0.0000000000000000e+00 0.0000000000000000e+00  0.0000000000000000e+00 0.0000000000000000e+00 0.0000000000000000e+00  2.3247221763638643e-04 1.5433384072845203e-06 0.0000000000000000e+00  2.4185798398798042e-04 -2.9402591322848488e-08 0.0000000000000000e+00  2.3449744493180471e-04 -1.1486313998902570e-06 0.0000000000000000e+00  0.0000000000000000e+00 0.0000000000000000e+00 0.0000000000000000e+00  0.0000000000000000e+00 0.0000000000000000e+00 0.0000000000000000e+00  0.0000000000000000e+00 0.0000000000000000e+00 0.0000000000000000e+00  0.0000000000000000e+00 0.0000000000000000e+00 0.0000000000000000e+00  0.0000000000000000e+00 0.0000000000000000e+00 0.0000000000000000e+00  0.0000000000000000e+00 0.0000000000000000e+00 0.0000000000000000e+00  0.0000000000000000e+00 0.0000000000000000e+00 0.0000000000000000e+00  0.0000000000000000e+00 0.0000000000000000e+00 0.0000000000000000e+00  0.0000000000000000e+00 0.0000000000000000e+00 0.0000000000000000e+00  0.0000000000000000e+00 0.0000000000000000e+00 0.0000000000000000e+00  0.0000000000000000e+00 0.0000000000000000e+00 0.0000000000000000e+00  0.0000000000000000e+00 0.0000000000000000e+00 0.0000000000000000e+00  0.0000000000000000e+00 0.0000000000000000e+00 0.0000000000000000e+00  0.0000000000000000e+00 0.0000000000000000e+00 0.0000000000000000e+00  0.0000000000000000e+00 0.0000000000000000e+00 0.0000000000000000e+00  0.0000000000000000e+00 0.0000000000000000e+00 0.0000000000000000e+00  0.0000000000000000e+00 0.0000000000000000e+00 0.0000000000000000e+00  0.0000000000000000e+00 0.0000000000000000e+00 0.0000000000000000e+00  0.0000000000000000e+00 0.0000000000000000e+00 0.0000000000000000e+00  0.0000000000000000e+00 0.0000000000000000e+00 0.0000000000000000e+00  0.0000000000000000e+00 0.0000000000000000e+00 0.0000000000000000e+00  0.0000000000000000e+00 0.0000000000000000e+00 0.0000000000000000e+00  0.0000000000000000e+00 0.0000000000000000e+00 0.0000000000000000e+00  0.0000000000000000e+00 0.0000000000000000e+00 0.0000000000000000e+00  0.0000000000000000e+00 0.0000000000000000e+00 0.0000000000000000e+00  0.0000000000000000e+00 0.0000000000000000e+00 0.0000000000000000e+00  0.0000000000000000e+00 0.0000000000000000e+00 0.0000000000000000e+00  0.0000000000000000e+00 0.0000000000000000e+00 0.0000000000000000e+00  0.0000000000000000e+00 0.0000000000000000e+00 0.0000000000000000e+00  0.0000000000000000e+00 0.0000000000000000e+00 0.0000000000000000e+00  0.0000000000000000e+00 0.0000000000000000e+00 0.0000000000000000e+00  0.0000000000000000e+00 0.0000000000000000e+00 0.0000000000000000e+00  0.0000000000000000e+00 0.0000000000000000e+00 0.0000000000000000e+00  0.0000000000000000e+00 0.0000000000000000e+00 0.0000000000000000e+00  0.0000000000000000e+00 0.0000000000000000e+00 0.0000000000000000e+00  0.0000000000000000e+00 0.0000000000000000e+00 0.0000000000000000e+00  0.0000000000000000e+00 0.0000000000000000e+00 0.0000000000000000e+00  0.0000000000000000e+00 0.0000000000000000e+00 0.0000000000000000e+00  0.0000000000000000e+00 0.0000000000000000e+00 0.0000000000000000e+00  0.0000000000000000e+00 0.0000000000000000e+00 0.0000000000000000e+00  0.0000000000000000e+00 0.0000000000000000e+00 0.0000000000000000e+00  0.0000000000000000e+00 0.0000000000000000e+00 0.0000000000000000e+00  0.0000000000000000e+00 0.0000000000000000e+00 0.0000000000000000e+00  0.0000000000000000e+00 0.0000000000000000e+00 0.0000000000000000e+00  0.0000000000000000e+00 0.0000000000000000e+00 0.0000000000000000e+00  0.0000000000000000e+00 0.0000000000000000e+00 0.0000000000000000e+00  0.0000000000000000e+00 0.0000000000000000e+00 0.0000000000000000e+00  0.0000000000000000e+00 0.0000000000000000e+00 0.0000000000000000e+00  0.0000000000000000e+00 0.0000000000000000e+00 0.0000000000000000e+00  0.0000000000000000e+00 0.0000000000000000e+00 0.0000000000000000e+00  0.0000000000000000e+00 0.0000000000000000e+00 0.0000000000000000e+00  0.0000000000000000e+00 0.0000000000000000e+00 0.0000000000000000e+00  0.0000000000000000e+00 0.0000000000000000e+00 0.0000000000000000e+00  0.0000000000000000e+00 0.0000000000000000e+00 0.0000000000000000e+00  0.0000000000000000e+00 0.0000000000000000e+00 0.0000000000000000e+00  0.0000000000000000e+00 0.0000000000000000e+00 0.0000000000000000e+00  0.0000000000000000e+00 0.0000000000000000e+00 0.0000000000000000e+00  0.0000000000000000e+00 0.0000000000000000e+00 0.0000000000000000e+00  0.0000000000000000e+00 0.0000000000000000e+00 0.0000000000000000e+00  0.0000000000000000e+00 0.0000000000000000e+00 0.0000000000000000e+00  0.0000000000000000e+00 0.0000000000000000e+00 0.0000000000000000e+00  0.0000000000000000e+00 0.0000000000000000e+00 0.0000000000000000e+00  0.0000000000000000e+00 0.0000000000000000e+00 0.0000000000000000e+00  0.0000000000000000e+00 0.0000000000000000e+00 0.0000000000000000e+00  0.0000000000000000e+00 0.0000000000000000e+00 0.0000000000000000e+00  0.0000000000000000e+00 0.0000000000000000e+00 0.0000000000000000e+00  0.0000000000000000e+00 0.0000000000000000e+00 0.0000000000000000e+00  0.0000000000000000e+00 0.0000000000000000e+00 0.0000000000000000e+00  0.0000000000000000e+00 0.0000000000000000e+00 0.0000000000000000e+00  0.0000000000000000e+00 0.0000000000000000e+00 0.0000000000000000e+00  0.0000000000000000e+00 0.0000000000000000e+00 0.0000000000000000e+00  0.0000000000000000e+00 0.0000000000000000e+00 0.0000000000000000e+00  0.0000000000000000e+00 0.0000000000000000e+00 0.0000000000000000e+00  0.0000000000000000e+00 0.0000000000000000e+00 0.0000000000000000e+00  0.0000000000000000e+00 0.0000000000000000e+00 0.0000000000000000e+00  0.0000000000000000e+00 0.0000000000000000e+00 0.0000000000000000e+00  0.0000000000000000e+00 0.0000000000000000e+00 0.0000000000000000e+00  0.0000000000000000e+00 0.0000000000000000e+00 0.0000000000000000e+00  -2.0193810084287027e-06 -3.3414804119507825e-06 0.0000000000000000e+00  -4.6919902643340287e-06 -3.7927017886328050e-06 0.0000000000000000e+00  -7.0010220340974889e-06 -3.8419648598570003e-06 0.0000000000000000e+00  -9.2324861723635071e-06 -3.8522296082588405e-06 0.0000000000000000e+00  -1.1461264599143507e-05 -3.8722005541485696e-06 0.0000000000000000e+00  -1.3707972930107526e-05 -3.9064186381690488e-06 0.0000000000000000e+00  -1.5969476547502474e-05 -3.9354288054004973e-06 0.0000000000000000e+00  -1.8250447032931888e-05 -3.9625483171686667e-06 0.0000000000000000e+00  -2.0548321487071180e-05 -3.9972616169307727e-06 0.0000000000000000e+00  -2.2863435831856629e-05 -4.0128354369021716e-06 0.0000000000000000e+00  -2.5199850979917603e-05 -4.0313927491840568e-06 0.0000000000000000e+00  -2.7559351242948086e-05 -4.0327009068416704e-06 0.0000000000000000e+00  -2.9935475461305303e-05 -4.0414888864115334e-06 0.0000000000000000e+00  -3.2332359559738904e-05 -4.0313127445203378e-06 0.0000000000000000e+00  -3.4752242503377482e-05 -4.0140879278721748e-06 0.0000000000000000e+00  -3.7189941550133947e-05 -3.9994541310877646e-06 0.0000000000000000e+00  -3.9652719222463113e-05 -3.9667408652456734e-06 0.0000000000000000e+00  -4.2130953837952312e-05 -3.9430762814772593e-06 0.0000000000000000e+00  -4.4634601633508332e-05 -3.9021547766783632e-06 0.0000000000000000e+00  -4.7155944553725299e-05 -3.8733203354850903e-06 0.0000000000000000e+00  -4.9694597730561786e-05 -3.8298147453848068e-06 0.0000000000000000e+00  -5.2256648584289488e-05 -3.7940242654506065e-06 0.0000000000000000e+00  -5.4834822978072596e-05 -3.7495703561380648e-06 0.0000000000000000e+00  -5.7434492019000167e-05 -3.7054085608121681e-06 0.0000000000000000e+00  -6.0048324650699436e-05 -3.6701805123393160e-06 0.0000000000000000e+00  -6.2679666929926948e-05 -3.6318086239290348e-06 0.0000000000000000e+00  -6.5326144509244690e-05 -3.5955997997140845e-06 0.0000000000000000e+00  -6.7986349018535138e-05 -3.5611806798123294e-06 0.0000000000000000e+00  -7.0659060208996442e-05 -3.5294982248995974e-06 0.0000000000000000e+00  -7.3341988825040134e-05 -3.5005833961033379e-06 0.0000000000000000e+00  -7.6033359849134155e-05 -3.4748023911296291e-06 0.0000000000000000e+00  -7.8731090885260122e-05 -3.4522468736722602e-06 0.0000000000000000e+00  -8.1432872637124401e-05 -3.4334321818896364e-06 0.0000000000000000e+00  -8.4136576777252880e-05 -3.4186111107757094e-06 0.0000000000000000e+00  -8.6839480831064499e-05 -3.4082065689397466e-06 0.0000000000000000e+00  -8.9538695490400672e-05 -3.4025154381367593e-06 0.0000000000000000e+00  -9.2230920159649813e-05 -3.4022531132689551e-06 0.0000000000000000e+00  -9.4912938319654223e-05 -3.4062558067758943e-06 0.0000000000000000e+00  -9.7582012198691169e-05 -3.4151561996892091e-06 0.0000000000000000e+00  -1.0023390520015863e-04 -3.4288642895494299e-06 0.0000000000000000e+00  -1.0286696671853156e-04 -3.4525951216234948e-06 0.0000000000000000e+00  -1.0547021637215796e-04 -3.4709422910943200e-06 0.0000000000000000e+00  -1.0804913124754629e-04 -3.4935875294397548e-06 0.0000000000000000e+00  -1.1058920019693670e-04 -3.5320005078819710e-06 0.0000000000000000e+00  -1.1308727575691067e-04 -3.5684729564042024e-06 0.0000000000000000e+00  -1.1552062733381923e-04 -3.6163650803515133e-06 0.0000000000000000e+00  -1.1797876021791619e-04 -2.1287732616145353e-06 0.0000000000000000e+00  -1.1800951683314414e-04 1.1040187178326115e-06 0.0000000000000000e+00  -1.1556777964560715e-04 2.6160439056720050e-06 0.0000000000000000e+00  -1.1313643100877381e-04 2.5930225659271004e-06 0.0000000000000000e+00  -1.1063495357579711e-04 2.6034416798348781e-06 0.0000000000000000e+00  -1.0809614453169343e-04 2.5994832344192803e-06 0.0000000000000000e+00  -1.0551629362015644e-04 2.6119189408005516e-06 0.0000000000000000e+00  -1.0291040776889310e-04 2.6270385623084347e-06 0.0000000000000000e+00  -1.0027748048951455e-04 2.6289724118184881e-06 0.0000000000000000e+00  -9.7617200843043732e-05 2.6541946955727263e-06 0.0000000000000000e+00  -9.4947326566918849e-05 2.6626750296245859e-06 0.0000000000000000e+00  -9.2255934099121081e-05 2.6901181959531809e-06 0.0000000000000000e+00  -8.9561956550041505e-05 2.7001758912893989e-06 0.0000000000000000e+00  -8.6853327315967438e-05 2.7275638526182592e-06 0.0000000000000000e+00  -8.4144729543196646e-05 2.7423454462310946e-06 0.0000000000000000e+00  -8.1438819074139421e-05 2.7694439207379150e-06 0.0000000000000000e+00  -7.8728289408386086e-05 2.7802048249824301e-06 0.0000000000000000e+00  -7.6028800537159428e-05 2.8065166331352015e-06 0.0000000000000000e+00  -7.3329296649205026e-05 2.8167898722260235e-06 0.0000000000000000e+00  -7.0645278945351828e-05 2.8427981621111108e-06 0.0000000000000000e+00  -6.7969080591273956e-05 2.8494555546959637e-06 0.0000000000000000e+00  -6.5302473651379124e-05 2.8745582572329604e-06 0.0000000000000000e+00  -6.2656082390315576e-05 2.8845383602629181e-06 0.0000000000000000e+00  -6.0019700456684174e-05 2.9092062084535519e-06 0.0000000000000000e+00  -5.7405599646687716e-05 2.9199242841817413e-06 0.0000000000000000e+00  -5.4805785547948645e-05 2.9407419262016306e-06 0.0000000000000000e+00  -5.2228509452659721e-05 2.9620131390653805e-06 0.0000000000000000e+00  -4.9669673891391015e-05 2.9764191720699506e-06 0.0000000000000000e+00  -4.7132844436893351e-05 2.9965543346172054e-06 0.0000000000000000e+00  -4.4617723070782228e-05 3.0178662289471910e-06 0.0000000000000000e+00  -4.2124518080676313e-05 3.0418726810947397e-06 0.0000000000000000e+00  -3.9653924642608270e-05 3.0688534730829335e-06 0.0000000000000000e+00  -3.7205940269680774e-05 3.0998826566329690e-06 0.0000000000000000e+00  -3.4781232014699572e-05 3.1309683457923201e-06 0.0000000000000000e+00  -3.2375947336058782e-05 3.1744684363476423e-06 0.0000000000000000e+00  -2.9994889191344353e-05 3.2231000997200277e-06 0.0000000000000000e+00  -2.7632489596769602e-05 3.2698013030623257e-06 0.0000000000000000e+00  -2.5290100304215946e-05 3.3253868118477462e-06 0.0000000000000000e+00  -2.2965739568779693e-05 3.3849693644653591e-06 0.0000000000000000e+00  -2.0658158639134589e-05 3.4478699175542019e-06 0.0000000000000000e+00  -1.8366302101897443e-05 3.5086350173999639e-06 0.0000000000000000e+00  -1.6085736225700863e-05 3.5753327255287827e-06 0.0000000000000000e+00  -1.3818728221377531e-05 3.6387433157528557e-06 0.0000000000000000e+00  -1.1560119393591143e-05 3.6905920539824754e-06 0.0000000000000000e+00  -9.3122783394235377e-06 3.7403559103953663e-06 0.0000000000000000e+00  -7.0589769108612597e-06 3.7898334210809430e-06 0.0000000000000000e+00  -4.7250888705402414e-06 3.7712540019061128e-06 0.0000000000000000e+00  -2.0330645836895361e-06 3.3421952116482132e-06 0.0000000000000000e+00  -4.0541415865034812e-06 -4.1091872499419461e-08 0.0000000000000000e+00  -1.1439135033329552e-04 -5.3321040234476980e-07 0.0000000000000000e+00  -1.0960322796517015e-04 -5.1946995161650416e-07 0.0000000000000000e+00  -1.0151195206442424e-04 -4.3816351964917061e-07 0.0000000000000000e+00  -8.1784259672756654e-06 -3.8224041155502592e-08 0.0000000000000000e+00  -9.6295529665889543e-05 -3.7385248560711123e-07 0.0000000000000000e+00  -1.2472429391715372e-05 -5.5909094047988676e-08 0.0000000000000000e+00  -9.0924872125925662e-05 -3.5120178650992928e-07 0.0000000000000000e+00  -1.9568919223359522e-05 -2.0352975534296823e-07 0.0000000000000000e+00  -2.4097478266759760e-05 -3.3679002669278743e-07 0.0000000000000000e+00  -8.5520308336116508e-05 -3.3776838455433547e-07 0.0000000000000000e+00  -3.6102982499668965e-05 -4.0217629190507160e-07 0.0000000000000000e+00  -7.4705754408381763e-05 -3.3779909216397140e-07 0.0000000000000000e+00  -2.8606896719142964e-05 -3.5032362379597220e-07 0.0000000000000000e+00  -4.0907784519951389e-05 -4.5345680793014588e-07 0.0000000000000000e+00  -6.9335338039836641e-05 -3.4873680145577194e-07 0.0000000000000000e+00  -8.0106809355458204e-05 -3.3367676984390182e-07 0.0000000000000000e+00  -4.5902122246093926e-05 -4.4256622929698887e-07 0.0000000000000000e+00  -6.4011130021712683e-05 -3.6555161256438468e-07 0.0000000000000000e+00  -5.0774357638354070e-05 -3.7827717363343452e-07 0.0000000000000000e+00  -5.8855437013371425e-05 -4.2785243807609761e-07 0.0000000000000000e+00  -5.4630730229534044e-05 -4.0452472938864257e-07 0.0000000000000000e+00  -3.2165216229265349e-05 -4.3706277968751017e-07 0.0000000000000000e+00  -1.0575524461231220e-04 -4.2520148852598959e-07 0.0000000000000000e+00  -1.5861689108490156e-05 -1.7413030160917574e-07 0.0000000000000000e+00  -1.1199929555391502e-04 5.5297308962783442e-07 0.0000000000000000e+00  -5.9841375264400692e-06 1.3778790936503145e-06 0.0000000000000000e+00  -9.3618205314566791e-05 5.2353956589723701e-07 0.0000000000000000e+00  -9.8962994609345329e-05 4.9425811559023561e-07 0.0000000000000000e+00  -1.0363996820728102e-05 -1.4128860399243325e-06 0.0000000000000000e+00  -2.1759856596140831e-05 -1.3757259249589123e-06 0.0000000000000000e+00  -7.7401277242757533e-05 5.7495166815919668e-07 0.0000000000000000e+00  -8.8225892781610240e-05 5.4744141042090466e-07 0.0000000000000000e+00  -3.8440062926384431e-05 -1.4823516680231505e-06 0.0000000000000000e+00  -7.2012168122191706e-05 5.8013443728431735e-07 0.0000000000000000e+00  -2.6424489528244794e-05 -1.4383101905894995e-06 0.0000000000000000e+00  -4.3394543568676877e-05 -1.4615233986666419e-06 0.0000000000000000e+00  -6.6662098443477159e-05 5.8103746812265725e-07 0.0000000000000000e+00  -8.2812441757714250e-05 5.6416120892355986e-07 0.0000000000000000e+00  -4.8404620975657748e-05 -1.6464316060258048e-06 0.0000000000000000e+00  -6.1365259048737057e-05 5.7764111561828127e-07 0.0000000000000000e+00  -2.1729015760918143e-06 -9.3151516945211629e-07 0.0000000000000000e+00  -2.1671560856460545e-06 9.6060160501556355e-07 0.0000000000000000e+00  -1.1630609987174567e-04 -1.2648127442193449e-06 0.000000000000000