<?xml version="1.0"?>
<VTKFile type="UnstructuredGrid"  version="0.1"  >
<UnstructuredGrid>
<Piece  NumberOfPoints="1419" NumberOfCells="2698">
<Points>
<DataArray  type="Float64"  NumberOfComponents="3"  format="ascii">0 0 0  0 0.41 0  2.5 0 0  2.5 0.41 0  0.5480668874609195 0.09320215435736937 0  0.6242322362504625 0.1395899176281573 0  0.25 0.2 0  0.15 0.2 0  0.2489897948556636 0.21 0  0.2489897948556636 0.19 0  0.6097918123283422 0.116778040848313 0  0 0.3807142857143437 0  0 0.3514285714286952 0  0 0.3221428571430699 0  0 0.29285714285744 0  0 0.2635714285718054 0  0 0.2342857142861561 0  0 0.2050000000005308 0  0 0.175714285714732 0  0 0.1464285714289574 0  0 0.1171428571431897 0  0 0.08785714285737878 0  0 0.05857142857161107 0  0 0.02928571428580012 0  0.03015443760436003 0 0  0.06140001986583606 0 0  0.09377624077125973 0 0  0.1273239957535082 0 0  0.1620856860351972 0 0  0.1981052433264291 0 0  0.235428184091502 0 0  0.2741016576309132 0 0  0.3141745521465447 0 0  0.3556974926295285 0 0  0.3987229542472677 0 0  0.4433053055141081 0 0  0.4895008759286886 0 0  0.5373680609405097 0 0  0.5869673343216626 0 0  0.6383613676634521 0 0  0.6916151138468254 0 0  0.7467958595648856 0 0  0.8039733463919316 0 0  0.8632198139502143 0 0  0.9246101326867038 0 0  0.9882218810934433 0 0  1.054135445558498 0 0  1.122434100542598 0 0  1.193204177141305 0 0  1.266535089879536 0 0  1.342519516046404 0 0  1.421253448503939 0 0  1.502836389106271 0 0  1.587371439758838 0 0  1.674965418777374 0 0  1.765729001825544 0 0  1.859776908880082 0 0  1.957227977487062 0 0  2.058205329869943 0 0  2.162836591189951 0 0  2.271253957290865 0 0  2.383594446803425 0 0  2.5 0.1024999999997612 0  2.5 0.2049999999994743 0  2.5 0.3074999999997183 0  2.383594446803656 0.41 0  2.271253957291315 0.41 0  2.162836591190598 0.41 0  2.058205329870775 0.41 0  1.957227977488067 0.41 0  1.859776908881246 0.41 0  1.765729001826854 0.41 0  1.674965418778818 0.41 0  1.58737143976041 0.41 0  1.502836389107956 0.41 0  1.421253448505726 0.41 0  1.342519516048286 0.41 0  1.266535089881505 0.41 0  1.193204177143353 0.41 0  1.122434100544716 0.41 0  1.05413544556068 0.41 0  0.9882218810956305 0.41 0  0.9246101326886647 0.41 0  0.8632198139519631 0.41 0  0.8039733463934788 0.41 0  0.7467958595662458 0.41 0  0.6916151138480078 0.41 0  0.6383613676644679 0.41 0  0.5869673343225223 0.41 0  0.5373680609412221 0.41 0  0.4895008759292634 0.41 0  0.4433053055145528 0.41 0  0.3987229542475914 0.41 0  0.3556974926297398 0.41 0  0.3141745521466497 0.41 0  0.2741016576310038 0.41 0  0.2354281840915826 0.41 0  0.1981052433265003 0.41 0  0.1620856860352591 0.41 0  0.1273239957535623 0.41 0  0.09377624077128965 0.41 0  0.06140001986584975 0.41 0  0.03015443760436654 0.41 0  0.2497468076502589 0.2050254481002335 0  0.2497468076502614 0.1949745518997913 0  0.2469965252529372 0.1829317073451959 0  0.2439893735792749 0.1762316384219906 0  0.2400332147834255 0.1700443375285386 0  0.2352133972704371 0.1645032867342007 0  0.2296339016332438 0.1597280261969788 0  0.2234150974217223 0.1558215752574715 0  0.2166911463437691 0.1528682099456123 0  0.2096071079204251 0.1509316448471593 0  0.2023158100364996 0.1500536585536553 0  0.194974551899914 0.1502531923497262 0  0.1877417105387872 0.1515259415822739 0  0.1807733240461124 0.153844448527136 0  0.1742197252835808 0.15715869474974 0  0.1682222986673531 0.1613971801805478 0  0.162910430003803 0.1664684656256651 0  0.1583987151779087 0.1722631454351573 0  0.1547844879126891 0.178656207771761 0  0.152145719934856 0.1855097315605749 0  0.1505393388476355 0.1926758619366523 0  0.1505393388476328 0.2073241380633295 0  0.1521457199348437 0.2144902684393899 0  0.1547844879126531 0.221343792228163 0  0.1583987151778488 0.2277368545647528 0  0.1629104300036858 0.2335315343742052 0  0.1682222986671726 0.2386028198193036 0  0.1742197252833576 0.2428413052501257 0  0.1807733240458683 0.2461555514727623 0  0.1877417105384929 0.2484740584176516 0  0.1949745518995776 0.2497468076502398 0  0.202315810036185 0.2499463414463592 0  0.2096071079201568 0.2490683551528932 0  0.2166911463435495 0.2471317900544655 0  0.2234150974215506 0.2441784247426195 0  0.2296339016331197 0.2402719738031125 0  0.2352133972703547 0.2354967132658811 0  0.2400332147833751 0.2299556624715287 0  0.2439893735792577 0.2237683615780412 0  0.246996525252926 0.2170682926548348 0  0.2601974987703642 0.2122540359687213 0  0.2762768578381783 0.2114667775405479 0  0.2902243867641242 0.1994849365695953 0  0.2990072697148551 0.1869681553867747 0  0.3035573635611503 0.1809876063130442 0  0.3073029060949971 0.1820037408844686 0  0.3137667391461258 0.1892614876437131 0  0.3211419073985224 0.1985872929224438 0  0.3317090487687501 0.2079504867796606 0  0.3410139776251803 0.2174638236856971 0  0.3492832637263451 0.2145392894281794 0  0.3566233028233514 0.2101082180394586 0  0.3619692816359033 0.2098136160581318 0  0.3657411893830542 0.2103516156371071 0  0.3697519312568714 0.215944821407936 0  0.3734957822904952 0.2269060962761096 0  0.3794790060833427 0.2382026699281516 0  0.3877017511491663 0.2502886097530546 0  0.3976779870556534 0.2613794183896756 0  0.4117779798677363 0.2685694634088978 0  0.4281780062586165 0.2713655904800079 0  0.4446191583367154 0.2664007667007137 0  0.4585366251320695 0.2585488632220814 0  0.4690847773750864 0.2457037086491499 0  0.4731014800491552 0.2130525481657591 0  0.4755479699245672 0.19416212204917 0  0.4734503045404994 0.1851767566572863 0  0.4729518458982855 0.1899095536455853 0  0.4728843495523505 0.2027612975037009 0  0.4749181742324599 0.2177212458018245 0  0.4808413792069403 0.2383265917376258 0  0.489935651309143 0.2546837341578789 0  0.5034711029090779 0.2646371191908802 0  0.5181018644327242 0.2675521458174497 0  0.5342477465908209 0.2585344714065336 0  0.5500121978481115 0.2399922691616051 0  0.5612541316444544 0.2135427574623462 0  0.5622733128285101 0.1823129216462032 0  0.5530092322254315 0.1685826674126534 0  0.5457779915593111 0.1742657009560526 0  0.5446229960443385 0.199310279696739 0  0.5531757005969082 0.2112458090665087 0  0.5705146661353026 0.2028568900121572 0  0.5894298500450489 0.1853308860887607 0  0.6048217402776308 0.1645916857785392 0  0.6172622907039804 0.1388272325846585 0  0.6214717707797428 0.1277115132845165 0  0.5925149157085051 0.106257938828729 0  0.5631082443461586 0.1313606208187547 0  0.5595724398338366 0.1476071617689941 0  0.5556047530547582 0.1663034243053226 0  0.5571201490816505 0.1827039670289017 0  0.5569080293873708 0.184413762706549 0  0.5566406448946903 0.1630720796541547 0  0.5445084505794359 0.1391835984670236 0  0.5248275889193108 0.1234007380756924 0  0.5070808158003532 0.1462178138509959 0  0.5014323272853487 0.2022030649219618 0  0.4996048243227875 0.2277794806637812 0  0.5025536265444572 0.2387853148965403 0  0.5085348594781366 0.242823492444548 0  0.5121088243217763 0.2416867625336771 0  0.5134701727240766 0.2340199762897424 0  0.5109979136745486 0.2153274128188519 0  0.5059306862074049 0.1992709292584397 0  0.4961337872084018 0.1832413718057769 0  0.4825776160823669 0.1729347795348213 0  0.4665311248655442 0.1713642340399968 0  0.4496898617280244 0.1785771279092603 0  0.4365342472807264 0.1954139501837938 0  0.4272168244581931 0.2159120876019955 0  0.4241950931833307 0.2334292643790357 0  0.4219916813293944 0.2509474532196995 0  0.4192259947869664 0.2644686185296926 0  0.4172832423348995 0.2592182936687701 0  0.4161596318774857 0.2428876285925758 0  0.4119448524630171 0.2326138934669598 0  0.4053267073758031 0.2199316871959861 0  0.3973297415548571 0.2083263094320699 0  0.3875701982761253 0.1983872161822655 0  0.3773477353109194 0.1924056243664288 0  0.3672337504398332 0.1916182516127708 0  0.3572765338594378 0.1925136136322833 0  0.3511177228218743 0.1931509402286647 0  0.3479591338241863 0.1976646145317367 0  0.3423897062110425 0.1906448318594641 0  0.3361077765270409 0.1870418160135687 0  0.3254847631530322 0.1783472314687263 0  0.3137684401079799 0.1698047620995976 0  0.3005730365411742 0.1664153697979645 0  0.2880278370088393 0.1719634433785417 0  0.2782528562344142 0.1930720384279889 0  0.2703563219866781 0.2117334190319344 0  0.2625487617516536 0.2146598407018235 0  0.2674796814318173 0.2131839231925391 0  0.5894884903549553 0.1491403559511318 0  0.5691424388449359 0.1875186640018327 0  0.5473152284520471 0.1650207249379543 0  0.2895304968753112 0.1878307817641534 0  0.5433328741183898 0.1503246684273768 0  0.3047424665402196 0.1729576724691081 0  0.5305523399889075 0.2224175469933098 0  0.3338917029455556 0.1968048876102611 0  0.3474385824462908 0.2065781014036334 0  0.5150529890519709 0.2575423372549068 0  0.3827113627356639 0.2114468464968189 0  0.4936426541621384 0.217792397136576 0  0.3603302989853774 0.2002294962272697 0  0.3959428306813104 0.2357261154000616 0  0.4807718618133493 0.1837607121488399 0  0.5049383477813348 0.2524263406314337 0  0.4099374243220862 0.2612210270186303 0  0.4651957030241553 0.1780574135031512 0  0.4296107066033152 0.2674470138554116 0  0.449866431320017 0.2153163992927153 0  0.4417326852585592 0.2491873570030726 0  0.3709471933689246 0.2004577477542411 0  0.5561302677161608 0.1967417024765055 0  0.3184807217214083 0.182055958765353 0  0.5721154614319831 0.1661740836986235 0  0.2791576271709896 0.2042282739550066 0  0.5353224793257997 0.1811851849681654 0  0.5399607776565787 0.13979295929034 0  0.2980129678350041 0.1781638080471876 0  0.3401161210034833 0.2070454522905265 0  0.5021217919374606 0.234241820812027 0  0.5153912258184303 0.2431777190300503 0  0.3858768831796055 0.2255153445564376 0  0.4904715668043429 0.1962282975161042 0  0.3528783816965597 0.2055061030603684 0  0.4001948070057268 0.2513562480164284 0  0.473475992091699 0.1734826477321806 0  0.509804986343626 0.2554061146548934 0  0.4201814793852118 0.270279860915619 0  0.4532567275763484 0.190290386820235 0  0.2572146561521609 0.210249809871231 0  0.2561326710592087 0.2095091750181986 0  0.607620422963
[...]
<PointData  Vectors="f_46-0"> 
<DataArray  type="Float64"  Name="f_46-0"  NumberOfComponents="3" format="ascii">0.0000000000000000e+00 0.0000000000000000e+00 0.0000000000000000e+00  0.0000000000000000e+00 0.0000000000000000e+00 0.0000000000000000e+00  0.0000000000000000e+00 0.0000000000000000e+00 0.0000000000000000e+00  0.0000000000000000e+00 0.0000000000000000e+00 0.0000000000000000e+00  -5.9040520749270389e+00 -1.0337956574137928e+01 0.0000000000000000e+00  1.9854182231119792e+00 -6.1779991622867971e+00 0.0000000000000000e+00  0.0000000000000000e+00 0.0000000000000000e+00 0.0000000000000000e+00  0.0000000000000000e+00 0.0000000000000000e+00 0.0000000000000000e+00  0.0000000000000000e+00 0.0000000000000000e+00 0.0000000000000000e+00  0.0000000000000000e+00 0.0000000000000000e+00 0.0000000000000000e+00  8.5809897392043777e-01 -8.2885073160633347e+00 0.0000000000000000e+00  2.3010685783921739e-01 0.0000000000000000e+00 0.0000000000000000e+00  4.2481266062627560e-01 0.0000000000000000e+00 0.0000000000000000e+00  5.8411740836112924e-01 0.0000000000000000e+00 0.0000000000000000e+00  7.0802110104396221e-01 0.0000000000000000e+00 0.0000000000000000e+00  7.9652373867475890e-01 0.0000000000000000e+00 0.0000000000000000e+00  8.4962532125351387e-01 0.0000000000000000e+00 0.0000000000000000e+00  8.6732584878017416e-01 0.0000000000000000e+00 0.0000000000000000e+00  8.4962532125458745e-01 0.0000000000000000e+00 0.0000000000000000e+00  7.9652373867660309e-01 0.0000000000000000e+00 0.0000000000000000e+00  7.0802110104624605e-01 0.0000000000000000e+00 0.0000000000000000e+00  5.8411740836329873e-01 0.0000000000000000e+00 0.0000000000000000e+00  4.2481266062812700e-01 0.0000000000000000e+00 0.0000000000000000e+00  2.3010685784026053e-01 0.0000000000000000e+00 0.0000000000000000e+00  0.0000000000000000e+00 0.0000000000000000e+00 0.0000000000000000e+00  0.0000000000000000e+00 0.0000000000000000e+00 0.0000000000000000e+00  0.0000000000000000e+00 0.0000000000000000e+00 0.0000000000000000e+00  0.0000000000000000e+00 0.0000000000000000e+00 0.0000000000000000e+00  0.0000000000000000e+00 0.0000000000000000e+00 0.0000000000000000e+00  0.0000000000000000e+00 0.0000000000000000e+00 0.0000000000000000e+00  0.0000000000000000e+00 0.0000000000000000e+00 0.0000000000000000e+00  0.0000000000000000e+00 0.0000000000000000e+00 0.0000000000000000e+00  0.0000000000000000e+00 0.0000000000000000e+00 0.0000000000000000e+00  0.0000000000000000e+00 0.0000000000000000e+00 0.0000000000000000e+00  0.0000000000000000e+00 0.0000000000000000e+00 0.0000000000000000e+00  0.0000000000000000e+00 0.0000000000000000e+00 0.0000000000000000e+00  0.0000000000000000e+00 0.0000000000000000e+00 0.0000000000000000e+00  0.0000000000000000e+00 0.0000000000000000e+00 0.0000000000000000e+00  0.0000000000000000e+00 0.0000000000000000e+00 0.0000000000000000e+00  0.0000000000000000e+00 0.0000000000000000e+00 0.0000000000000000e+00  0.0000000000000000e+00 0.0000000000000000e+00 0.0000000000000000e+00  0.0000000000000000e+00 0.0000000000000000e+00 0.0000000000000000e+00  0.0000000000000000e+00 0.0000000000000000e+00 0.0000000000000000e+00  0.0000000000000000e+00 0.0000000000000000e+00 0.0000000000000000e+00  0.0000000000000000e+00 0.0000000000000000e+00 0.0000000000000000e+00  0.0000000000000000e+00 0.0000000000000000e+00 0.0000000000000000e+00  0.0000000000000000e+00 0.0000000000000000e+00 0.0000000000000000e+00  0.0000000000000000e+00 0.0000000000000000e+00 0.0000000000000000e+00  0.0000000000000000e+00 0.0000000000000000e+00 0.0000000000000000e+00  0.0000000000000000e+00 0.0000000000000000e+00 0.0000000000000000e+00  0.0000000000000000e+00 0.0000000000000000e+00 0.0000000000000000e+00  0.0000000000000000e+00 0.0000000000000000e+00 0.0000000000000000e+00  0.0000000000000000e+00 0.0000000000000000e+00 0.0000000000000000e+00  0.0000000000000000e+00 0.0000000000000000e+00 0.0000000000000000e+00  0.0000000000000000e+00 0.0000000000000000e+00 0.0000000000000000e+00  0.0000000000000000e+00 0.0000000000000000e+00 0.0000000000000000e+00  0.0000000000000000e+00 0.0000000000000000e+00 0.0000000000000000e+00  0.0000000000000000e+00 0.0000000000000000e+00 0.0000000000000000e+00  0.0000000000000000e+00 0.0000000000000000e+00 0.0000000000000000e+00  0.0000000000000000e+00 0.0000000000000000e+00 0.0000000000000000e+00  0.0000000000000000e+00 0.0000000000000000e+00 0.0000000000000000e+00  0.0000000000000000e+00 0.0000000000000000e+00 0.0000000000000000e+00  4.8129198081558500e-01 1.2034227990525084e-02 0.0000000000000000e+00  5.1079919512879368e-01 3.9517807470596904e-03 0.0000000000000000e+00  4.8084259993351186e-01 -1.2800696522072967e-02 0.0000000000000000e+00  0.0000000000000000e+00 0.0000000000000000e+00 0.0000000000000000e+00  0.0000000000000000e+00 0.0000000000000000e+00 0.0000000000000000e+00  0.0000000000000000e+00 0.0000000000000000e+00 0.0000000000000000e+00  0.0000000000000000e+00 0.0000000000000000e+00 0.0000000000000000e+00  0.0000000000000000e+00 0.0000000000000000e+00 0.0000000000000000e+00  0.0000000000000000e+00 0.0000000000000000e+00 0.0000000000000000e+00  0.0000000000000000e+00 0.0000000000000000e+00 0.0000000000000000e+00  0.0000000000000000e+00 0.0000000000000000e+00 0.0000000000000000e+00  0.0000000000000000e+00 0.0000000000000000e+00 0.0000000000000000e+00  0.0000000000000000e+00 0.0000000000000000e+00 0.0000000000000000e+00  0.0000000000000000e+00 0.0000000000000000e+00 0.0000000000000000e+00  0.0000000000000000e+00 0.0000000000000000e+00 0.0000000000000000e+00  0.0000000000000000e+00 0.0000000000000000e+00 0.0000000000000000e+00  0.0000000000000000e+00 0.0000000000000000e+00 0.0000000000000000e+00  0.0000000000000000e+00 0.0000000000000000e+00 0.0000000000000000e+00  0.0000000000000000e+00 0.0000000000000000e+00 0.0000000000000000e+00  0.0000000000000000e+00 0.0000000000000000e+00 0.0000000000000000e+00  0.0000000000000000e+00 0.0000000000000000e+00 0.0000000000000000e+00  0.0000000000000000e+00 0.0000000000000000e+00 0.0000000000000000e+00  0.0000000000000000e+00 0.0000000000000000e+00 0.0000000000000000e+00  0.0000000000000000e+00 0.0000000000000000e+00 0.0000000000000000e+00  0.0000000000000000e+00 0.0000000000000000e+00 0.0000000000000000e+00  0.0000000000000000e+00 0.0000000000000000e+00 0.0000000000000000e+00  0.0000000000000000e+00 0.0000000000000000e+00 0.0000000000000000e+00  0.0000000000000000e+00 0.0000000000000000e+00 0.0000000000000000e+00  0.0000000000000000e+00 0.0000000000000000e+00 0.0000000000000000e+00  0.0000000000000000e+00 0.0000000000000000e+00 0.0000000000000000e+00  0.0000000000000000e+00 0.0000000000000000e+00 0.0000000000000000e+00  0.0000000000000000e+00 0.0000000000000000e+00 0.0000000000000000e+00  0.0000000000000000e+00 0.0000000000000000e+00 0.0000000000000000e+00  0.0000000000000000e+00 0.0000000000000000e+00 0.0000000000000000e+00  0.0000000000000000e+00 0.0000000000000000e+00 0.0000000000000000e+00  0.0000000000000000e+00 0.0000000000000000e+00 0.0000000000000000e+00  0.0000000000000000e+00 0.0000000000000000e+00 0.0000000000000000e+00  0.0000000000000000e+00 0.0000000000000000e+00 0.0000000000000000e+00  0.0000000000000000e+00 0.0000000000000000e+00 0.0000000000000000e+00  0.0000000000000000e+00 0.0000000000000000e+00 0.0000000000000000e+00  0.0000000000000000e+00 0.0000000000000000e+00 0.0000000000000000e+00  0.0000000000000000e+00 0.0000000000000000e+00 0.0000000000000000e+00  0.0000000000000000e+00 0.0000000000000000e+00 0.0000000000000000e+00  0.0000000000000000e+00 0.0000000000000000e+00 0.0000000000000000e+00  0.0000000000000000e+00 0.0000000000000000e+00 0.0000000000000000e+00  0.0000000000000000e+00 0.0000000000000000e+00 0.0000000000000000e+00  0.0000000000000000e+00 0.0000000000000000e+00 0.0000000000000000e+00  0.0000000000000000e+00 0.0000000000000000e+00 0.0000000000000000e+00  0.0000000000000000e+00 0.0000000000000000e+00 0.0000000000000000e+00  0.0000000000000000e+00 0.0000000000000000e+00 0.0000000000000000e+00  0.0000000000000000e+00 0.0000000000000000e+00 0.0000000000000000e+00  0.0000000000000000e+00 0.0000000000000000e+00 0.0000000000000000e+00  0.0000000000000000e+00 0.0000000000000000e+00 0.0000000000000000e+00  0.0000000000000000e+00 0.0000000000000000e+00 0.0000000000000000e+00  0.0000000000000000e+00 0.0000000000000000e+00 0.0000000000000000e+00  0.0000000000000000e+00 0.0000000000000000e+00 0.0000000000000000e+00  0.0000000000000000e+00 0.0000000000000000e+00 0.0000000000000000e+00  0.0000000000000000e+00 0.0000000000000000e+00 0.0000000000000000e+00  0.0000000000000000e+00 0.0000000000000000e+00 0.0000000000000000e+00  0.0000000000000000e+00 0.0000000000000000e+00 0.0000000000000000e+00  0.0000000000000000e+00 0.0000000000000000e+00 0.0000000000000000e+00  0.0000000000000000e+00 0.0000000000000000e+00 0.0000000000000000e+00  0.0000000000000000e+00 0.0000000000000000e+00 0.0000000000000000e+00  0.0000000000000000e+00 0.0000000000000000e+00 0.0000000000000000e+00  0.0000000000000000e+00 0.0000000000000000e+00 0.0000000000000000e+00  0.0000000000000000e+00 0.0000000000000000e+00 0.0000000000000000e+00  0.0000000000000000e+00 0.0000000000000000e+00 0.0000000000000000e+00  0.0000000000000000e+00 0.0000000000000000e+00 0.0000000000000000e+00  0.0000000000000000e+00 0.0000000000000000e+00 0.0000000000000000e+00  0.0000000000000000e+00 0.0000000000000000e+00 0.0000000000000000e+00  0.0000000000000000e+00 0.0000000000000000e+00 0.0000000000000000e+00  0.0000000000000000e+00 0.0000000000000000e+00 0.0000000000000000e+00  0.0000000000000000e+00 0.0000000000000000e+00 0.0000000000000000e+00  0.0000000000000000e+00 0.0000000000000000e+00 0.0000000000000000e+00  0.0000000000000000e+00 0.0000000000000000e+00 0.0000000000000000e+00  0.0000000000000000e+00 0.0000000000000000e+00 0.0000000000000000e+00  0.0000000000000000e+00 0.0000000000000000e+00 0.0000000000000000e+00  0.0000000000000000e+00 0.0000000000000000e+00 0.0000000000000000e+00  0.0000000000000000e+00 0.0000000000000000e+00 0.0000000000000000e+00  0.0000000000000000e+00 0.0000000000000000e+00 0.0000000000000000e+00  0.0000000000000000e+00 0.0000000000000000e+00 0.0000000000000000e+00  3.3620528348137729e-01 2.3681863092724398e-01 0.0000000000000000e+00  1.2305152757311084e+00 1.1124096746407248e-01 0.0000000000000000e+00  1.8724595036883829e+00 -9.7665256427561986e-01 0.0000000000000000e+00  2.0006549585030942e+00 -2.1678023797273833e+00 0.0000000000000000e+00  1.6976340878514122e+00 -2.7178968899947256e+00 0.0000000000000000e+00  1.3198184694493000e+00 -2.6239041533197631e+00 0.0000000000000000e+00  1.1591469589295320e+00 -1.8709902254798767e+00 0.0000000000000000e+00  1.2239752360111700e+00 -9.5461982422516134e-01 0.0000000000000000e+00  1.4940300323742381e+00 -5.4239604469960470e-02 0.0000000000000000e+00  1.6945963618914117e+00 8.7193648163850845e-01 0.0000000000000000e+00  1.8778888250169521e+00 6.4850219340098203e-01 0.0000000000000000e+00  1.8147807140255350e+00 2.4875863358273118e-01 0.0000000000000000e+00  1.5854927956920279e+00 1.6415080161943213e-01 0.0000000000000000e+00  1.2379602319287086e+00 2.4872665676622419e-01 0.0000000000000000e+00  8.7891728128496327e-01 7.7001652996237413e-01 0.0000000000000000e+00  4.8324831587276862e-01 1.8475537316052011e+00 0.0000000000000000e+00  3.6052406043960994e-01 2.9282605843820644e+00 0.0000000000000000e+00  4.0616440776935320e-01 4.1381214945731752e+00 0.0000000000000000e+00  7.0335757365307849e-01 5.2057097382182658e+00 0.0000000000000000e+00  1.3231089515837839e+00 5.9184043622298592e+00 0.0000000000000000e+00  2.2439953369121475e+00 6.1901783197324303e+00 0.0000000000000000e+00  3.1271012972356016e+00 5.7109210182753705e+00 0.0000000000000000e+00  3.7474045097067914e+00 4.9119716310044756e+00 0.0000000000000000e+00  4.1236110320973411e+00 3.6791272255885263e+00 0.0000000000000000e+00  3.8073257149155983e+00 3.2639069344008032e-01 0.0000000000000000e+00  3.2664362450174451e+00 -1.5021413258862555e+00 0.0000000000000000e+00  2.3008313547743597e+00 -2.3634463864988859e+00 0.0000000000000000e+00  1.3849153568433941e+00 -1.9279791836780500e+00 0.0000000000000000e+00  7.5111383333318849e-01 -6.7653279052388082e-01 0.0000000000000000e+00  1.3761290080692642e-01 7.8451035491738819e-01 0.0000000000000000e+00  -1.4768061412642034e-02 2.8685079102540434e+00 0.0000000000000000e+00  1.8948978004394829e-01 4.4671749912497090e+00 0.0000000000000000e+00  7.6084959110646844e-01 5.4418020518248085e+00 0.0000000000000000e+00  1.5443812209613212e+00 5.7223212240849524e+00 0.0000000000000000e+00  2.3783601103587957e+00 4.8264918204815732e+00 0.0000000000000000e+00  3.2188467139341985e+00 2.9828455759156856e+00 0.0000000000000000e+00  3.6103992608189763e+00 3.5232555164631230e-01 0.0000000000000000e+00  2.9505930505892568e+00 -2.5620348754984108e+00 0.0000000000000000e+00  1.2514158550665584e+00 -3.8601355191420499e+00 0.0000000000000000e+00  -2.6705111396304898e-01 -3.4923940564264302e+00 0.0000000000000000e+00  -1.0854483007580016e+00 -1.0424879263153024e+00 0.0000000000000000e+00  -1.0857158311049904e+00 6.7523531014453034e-02 0.0000000000000000e+00  1.0786223450135403e-01 -7.6575839767471532e-01 0.0000000000000000e+00  1.1674389198522042e+00 -2.4522967437901610e+00 0.0000000000000000e+00  2.0166923992902981e+00 -4.5403591808628931e+00 0.0000000000000000e+00  2.5054455810537224e+00 -6.8279497753245160e+00 0.0000000000000000e+00  1.9853678494674860e+00 -7.7401077290506528e+00 0.0000000000000000e+00  -9.9115068490870128e-01 -8.8050177370181171e+00 0.0000000000000000e+00  -2.6495102711208331e+00 -6.1136758318684894e+00 0.0000000000000000e+00  -2.6569440819773766e+00 -4.2004419020876655e+00 0.0000000000000000e+00  -2.2052998291728763e+00 -2.3587929354329469e+00 0.0000000000000000e+00  -1.3376984817010376e+00 -8.1262398080899079e-01 0.0000000000000000e+00  -4.5914724951434333e-01 -6.4396832995783926e-01 0.0000000000000000e+00  1.9472389096677650e-01 -2.6568425740454367e+00 0.0000000000000000e+00  -1.5763242826935112e-01 -4.8976247750887314e+00 0.0000000000000000e+00  -1.5117682862090813e+00 -6.4809990323015647e+00 0.0000000000000000e+00  -2.9317725771073899e+00 -4.3272765838323641e+00 0.0000000000000000e+00  -2.6060637838115439e+00 1.1734739873416100e+00 0.0000000000000000e+00  -1.7663924048740010e+00 3.7202944432942884e+00 0.0000000000000000e+00  -7.4895383373652302e-01 4.9191912088008429e+00 0.0000000000000000e+00  5.4358471013297738e-01 5.2636388078835674e+00 0.0000000000000000e+00  1.6839256966857150e+00 5.1252529347832718e+00 0.0000000000000000e+00  2.5580815517866737e+00 4.3690433912894830e+00 0.0000000000000000e+00  3.0604499172503230e+00 2.5119411761364958e+00 0.0000000000000000e+00  3.2919321582974930e+00 9.9700973942657456e-01 0.0000000000000000e+00  3.0651286545346434e+00 -5.7844046340405753e-01 0.0000000000000000e+00  2.4852393617136657e+00 -1.6012067162380681e+00 0.0000000000000000e+00  1.5588284489559241e+00 -1.7222780586026623e+00 0.0000000000000000e+00  6.6268618846138472e-01 -1.0165095157880488e+00 0.0000000000000000e+00  1.9591814618142193e-02 6.2892691030885362e-01 0.0000000000000000e+00  -1.0134955012803142e-01 2.6439285012548774e+00 0.0000000000000000e+00  2.8312929002283116e-01 4.4027461613338508e+00 0.0000000000000000e+00  7.9057633482834433e-01 6.0533102553705946e+00 0.0000000000000000e+00  1.2361798478312467e+00 7.3606106806337515e+00 0.0000000000000000e+00  1.9342178696926333e+00 6.9284547133020613e+00 0.0000000000000000e+00  2.5370009028014819e+00 5.3499038241738672e+00 0.0000000000000000e+00  2.8346541795992799e+00 4.3978605926793044e+00 0.0000000000000000e+00  2.9237958352361355e+00 3.1268310220032349e+00 0.0000000000000000e+00  2.8672576995264856e+00 1.9886164404908977e+00 0.0000000000000000e+00  2.6386257994526661e+00 1.0136664633297841e+00 0.0000000000000000e+00  2.3493800448329436e+00 4.4510882638606919e-01 0.0000000000000000e+00  2.0943830519483537e+00 3.4719119501609608e-01 0.0000000000000000e+00  1.8482823302473941e+00 4.8491418124732960e-01 0.0000000000000000e+00  1.9658403807710072e+00 5.1905538243269600e-01 0.0000000000000000e+00  2.4377423712825372e+00 9.3802765548171718e-01 0.0000000000000000e+00  2.6403193949371282e+00 2.2974105748293985e-01 0.0000000000000000e+00  2.6918410169623446e+00 -1.9919225038040203e-01 0.0000000000000000e+00  2.5241263605506052e+00 -1.0094600667170694e+00 0.0000000000000000e+00  2.0105363517918753e+00 -1.8504555397013693e+00 0.0000000000000000e+00  1.4724427045347663e+00 -2.1392158961844614e+00 0.0000000000000000e+00  8.6749886627181416e-01 -1.5325517080349389e+00 0.0000000000000000e+00  7.3601249453659134e-01 3.5856705428731811e-01 0.0000000000000000e+00  6.7577816292729065e-01 2.1431796793811801e+00 0.0000000000000000e+00  6.6476504694321847e-01 2.3828298560210994e+00 0.0000000000000000e+00  6.6408221308985349e-01 1.2353095169023971e+00 0.0000000000000000e+00  5.3809905399158565e-02 -5.0501091947063133e+00 0.0000000000000000e+00  -5.3890638424867965e-01 -1.2745811937860152e+00 0.0000000000000000e+00  -3.8487430507173237e-01 -3.4171995578028804e+00 0.0000000000000000e+00  1.4196623885814097e+00 -1.0882731934655852e+00 0.0000000000000000e+00  6.3447743558954928e-01 -4.6510135785140783e+00 0.0000000000000000e+00  1.5363494839197536e+00 -2.5115264166905948e+00 0.0000000000000000e+00  8.7026700195958340e-01 2.1451684022881086e+00 0.0000000000000000e+00  2.0962143131989870e+00 -1.1290302894920574e-01 0.0000000000000000e+00  1.9967254997963433e+00 7.9234533586276634e-01 0.0000000000000000e+00  8.3807744595669242e-01 5.6888643589390142e+00 0.0000000000000000e+00  1.7574118186806913e+00 1.3299159904720754e+00 0.0000000000000000e+00  1.6787900057185279e+00 1.8303096454516727e+00 0.0000000000000000e+00  1.8525874549304431e+00 2.2791471104997624e-01 0.0000000000000000e+00  1.6167252346213046e+00 3.6925798555051790e+00 0.0000000000000000e+00  1.8814723639736177e+00 -1.5130619287824363e+00 0.0000000000000000e+00  1.3137765091501008e+00 5.1986991166831693e+00 0.0000000000000000e+00  1.5442760136458857e+00 6.1807119651214162e+00 0.0000000000000000e+00  1.8241383073381536e+00 -2.0287232132251010e+00 0.0000000000000000e+00  2.0449155591131443e+00 6.7601331264227982e+00 0.0000000000000000e+00  1.7655227676290675e+00 1.5902040115758731e+00 0.0000000000000000e+00  2.1215318249155306e+00 4.9416474752546469e+00 0.0000000000000000e+00  1.7988647708764514e+00 2.4213013810468961e-01 0.0000000000000000e+00  -7.3203229323702779e-01 -3.5583645592294444e-01 0.0000000000000000e+00  1.7926408863829071e+00 -1.6007921847317987e+00 0.0000000000000000e+00  -9.6979552534918934e-01 -3.0605521703622753e+00 0.0000000000000000e+00  1.1118726499788805e+00 7.7408199954676005e-01 0.0000000000000000e+00  3.9591352529911689e-01 -1.5287570431883335e+00 0.0000000000000000e+00  -3.5307560988623438e-01 -5.4589791733101958e+00 0.0000000000000000e+00  1.5476520082843230e+00 -2.3519360701348928e+00 0.0000000000000000e+00  1.9796596955322807e+00 5.5817359100330521e-01 0.0000000000000000e+00  1.8035572381653153e+00 3.7087072432508323e+00 0.0000000000000000e+00  1.5260926726273144e-01 4.5488626006287705e+00 0.0000000000000000e+00  1.3585910080750359e+00 2.4079232603070384e+00 0.0000000000000000e+00  2.1202641496427068e+00 -8.0686827636495592e-03 0.0000000000000000e+00  1.8189724644374867e+00 4.6640284648403768e-01 0.0000000000000000e+00  1.3027089823160423e+00 4.9358153742619431e+00 0.0000000000000000e+00  1.9021596652429862e+00 -2.2070025473800174e+00 0.0000000000000000e+00  1.0619894712294518e+00 5.7844139597753781e+00 0.0000000000000000e+00  1.8042960737765239e+00 6.6785509104843168e+00 0.0000000000000000e+00  1.3741991689830990e+00 -5.3864466146890622e-01 0.0000000000000000e+00  2.2649550723487838e-01 6.5264449553980219e-01 0.0000000000000000e+00  1.8578746555971171e-01 1.2362571471284887e+00 0.0000000000000000e+00  1.2180146103878742e+00 -6.7996695402822729e+00 0.0000000000000000e+00  1.2083868421794801e+00 1.3668261535239293e-01 0.0000000000000000e+00  1.3203761556013189e+00 3.3348677571784346e+00 0.000000000000000