<?xml version="1.0"?>
<VTKFile type="UnstructuredGrid"  version="0.1"  >
<UnstructuredGrid>
<Piece  NumberOfPoints="1419" NumberOfCells="2698">
<Points>
<DataArray  type="Float64"  NumberOfComponents="3"  format="ascii">0 0 0  0 0.41 0  2.5 0 0  2.5 0.41 0  0.5999969531667183 0.1898439309574722 0  0.600009353616725 0.2098369501194767 0  0.25 0.2 0  0.15 0.2 0  0.2489897948556636 0.21 0  0.2489897948556636 0.19 0  0.6000024154120821 0.1998404406831386 0  0 0.3807142857143437 0  0 0.3514285714286952 0  0 0.3221428571430699 0  0 0.29285714285744 0  0 0.2635714285718054 0  0 0.2342857142861561 0  0 0.2050000000005308 0  0 0.175714285714732 0  0 0.1464285714289574 0  0 0.1171428571431897 0  0 0.08785714285737878 0  0 0.05857142857161107 0  0 0.02928571428580012 0  0.03015443760436003 0 0  0.06140001986583606 0 0  0.09377624077125973 0 0  0.1273239957535082 0 0  0.1620856860351972 0 0  0.1981052433264291 0 0  0.235428184091502 0 0  0.2741016576309132 0 0  0.3141745521465447 0 0  0.3556974926295285 0 0  0.3987229542472677 0 0  0.4433053055141081 0 0  0.4895008759286886 0 0  0.5373680609405097 0 0  0.5869673343216626 0 0  0.6383613676634521 0 0  0.6916151138468254 0 0  0.7467958595648856 0 0  0.8039733463919316 0 0  0.8632198139502143 0 0  0.9246101326867038 0 0  0.9882218810934433 0 0  1.054135445558498 0 0  1.122434100542598 0 0  1.193204177141305 0 0  1.266535089879536 0 0  1.342519516046404 0 0  1.421253448503939 0 0  1.502836389106271 0 0  1.587371439758838 0 0  1.674965418777374 0 0  1.765729001825544 0 0  1.859776908880082 0 0  1.957227977487062 0 0  2.058205329869943 0 0  2.162836591189951 0 0  2.271253957290865 0 0  2.383594446803425 0 0  2.5 0.1024999999997612 0  2.5 0.2049999999994743 0  2.5 0.3074999999997183 0  2.383594446803656 0.41 0  2.271253957291315 0.41 0  2.162836591190598 0.41 0  2.058205329870775 0.41 0  1.957227977488067 0.41 0  1.859776908881246 0.41 0  1.765729001826854 0.41 0  1.674965418778818 0.41 0  1.58737143976041 0.41 0  1.502836389107956 0.41 0  1.421253448505726 0.41 0  1.342519516048286 0.41 0  1.266535089881505 0.41 0  1.193204177143353 0.41 0  1.122434100544716 0.41 0  1.05413544556068 0.41 0  0.9882218810956305 0.41 0  0.9246101326886647 0.41 0  0.8632198139519631 0.41 0  0.8039733463934788 0.41 0  0.7467958595662458 0.41 0  0.6916151138480078 0.41 0  0.6383613676644679 0.41 0  0.5869673343225223 0.41 0  0.5373680609412221 0.41 0  0.4895008759292634 0.41 0  0.4433053055145528 0.41 0  0.3987229542475914 0.41 0  0.3556974926297398 0.41 0  0.3141745521466497 0.41 0  0.2741016576310038 0.41 0  0.2354281840915826 0.41 0  0.1981052433265003 0.41 0  0.1620856860352591 0.41 0  0.1273239957535623 0.41 0  0.09377624077128965 0.41 0  0.06140001986584975 0.41 0  0.03015443760436654 0.41 0  0.2497468076502589 0.2050254481002335 0  0.2497468076502614 0.1949745518997913 0  0.2469965252529372 0.1829317073451959 0  0.2439893735792749 0.1762316384219906 0  0.2400332147834255 0.1700443375285386 0  0.2352133972704371 0.1645032867342007 0  0.2296339016332438 0.1597280261969788 0  0.2234150974217223 0.1558215752574715 0  0.2166911463437691 0.1528682099456123 0  0.2096071079204251 0.1509316448471593 0  0.2023158100364996 0.1500536585536553 0  0.194974551899914 0.1502531923497262 0  0.1877417105387872 0.1515259415822739 0  0.1807733240461124 0.153844448527136 0  0.1742197252835808 0.15715869474974 0  0.1682222986673531 0.1613971801805478 0  0.162910430003803 0.1664684656256651 0  0.1583987151779087 0.1722631454351573 0  0.1547844879126891 0.178656207771761 0  0.1521457199348551 0.1855097315605723 0  0.1505393388476355 0.1926758619366523 0  0.1505393388476328 0.2073241380633295 0  0.1521457199348437 0.2144902684393899 0  0.1547844879126531 0.221343792228163 0  0.1583987151778488 0.2277368545647528 0  0.1629104300036858 0.2335315343742052 0  0.1682222986671726 0.2386028198193036 0  0.1742197252833576 0.2428413052501257 0  0.1807733240458683 0.2461555514727623 0  0.1877417105384929 0.2484740584176516 0  0.1949745518995776 0.2497468076502398 0  0.202315810036185 0.2499463414463592 0  0.2096071079201568 0.2490683551528932 0  0.2166911463435495 0.2471317900544655 0  0.2234150974215506 0.2441784247426195 0  0.2296339016331197 0.2402719738031125 0  0.2352133972703547 0.2354967132658811 0  0.2400332147833751 0.2299556624715287 0  0.2439893735792577 0.2237683615780412 0  0.246996525252926 0.2170682926548348 0  0.2564598989787539 0.2099927505813144 0  0.2639292425814189 0.2099921653958802 0  0.2713993009316202 0.2099916339548669 0  0.2788694849956939 0.2099908653420196 0  0.2863396234332504 0.2099898355696518 0  0.293809726713657 0.2099885837006242 0  0.3012797426122977 0.2099871447182003 0  0.3087497136348547 0.2099854704941224 0  0.3162195955332284 0.2099836240674862 0  0.3236893743745828 0.2099815737765692 0  0.3311591053139526 0.2099793572747874 0  0.3386287119575894 0.2099769544616755 0  0.3460982604024128 0.2099743910125361 0  0.3535676913887387 0.209971682771364 0  0.3610370625349298 0.2099688045601489 0  0.3685063266806105 0.2099658014076345 0  0.37597548746592 0.209962651408758 0  0.3834445817116112 0.2099593923408681 0  0.3909135592438161 0.2099560009956971 0  0.3983824709943906 0.2099525134460967 0  0.4058512703378983 0.2099489126923499 0  0.4133199950548052 0.2099452227802323 0  0.4207886082930208 0.2099414499955524 0  0.4282571598261559 0.209937584237061 0  0.4357256074355522 0.2099336503505344 0  0.443193961429768 0.2099296393523537 0  0.4506622347826654 0.2099255742388298 0  0.4581304113932538 0.2099214406340681 0  0.4655985064842038 0.2099172634111908 0  0.4730665067802395 0.20991302782004 0  0.4805344247024633 0.209908758241569 0  0.4880022492276308 0.2099044393607269 0  0.4954699906854125 0.209900095043321 0  0.5029376398579476 0.209895709727119 0  0.5104052047724478 0.2098913065109948 0  0.5178726784431247 0.2098868695189243 0  0.5253400668071458 0.2098824218385089 0  0.532807364298212 0.2098779467518456 0  0.5402745749482282 0.20987346741981 0  0.5477416948498577 0.2098689667279739 0  0.5552087267710829 0.2098644636483552 0  0.5626756538504658 0.2098599551562605 0  0.5701425128545214 0.2098554403583801 0  0.5776092633650872 0.2098509324378838 0  0.5850759278933767 0.2098464297824903 0  0.5925426058127994 0.2098419700771496 0  0.6000056297926025 0.2048386502147289 0  0.5999994371078825 0.1948422274099487 0  0.5925302044606692 0.1898481685240843 0  0.5850635299227458 0.1898529672872737 0  0.577596875732546 0.1898577241785111 0  0.5701301376836636 0.1898624723845079 0  0.5626632956816912 0.1898672033346695 0  0.5551963884377149 0.1898719264230138 0  0.547729380337359 0.1898766415204063 0  0.5402622915956018 0.1898813338642481 0  0.5327951223211663 0.1898860279532727 0  0.525327868172126 0.1898906892441197 0  0.5178605375868708 0.1898953481230922 0  0.5103931223733642 0.1898999686362748 0  0.5029256337703625 0.1899045804368247 0  0.4954580604313334 0.1899091475294674 0  0.4879904165726094 0.1899136987439255 0  0.4805226874181599 0.1899181979647355 0  0.473054890643358 0.1899226732885564 0  0.4655870076599031 0.1899270883322713 0  0.4581190600866908 0.1899314704008697 0  0.4506510251804033 0.1899357828579198 0  0.4431829286811768 0.1899400520057474 0  0.4357147440041984 0.1899442427715705 0  0.4282464990624991 0.1899483717718036 0  0.4207781666291769 0.1899524305501336 0  0.4133097785501258 0.1899563939038309 0  0.4058413082626695 0.1899602766885533 0  0.3983727595016822 0.1899640576122877 0  0.3909041521424359 0.1899677453431586 0  0.383435459515017 0.1899713145497825 0  0.3759667114573298 0.1899747747050453 0  0.3684978777230366 0.1899781022789167 0  0.361028985468453 0.1899812994297305 0  0.3535600157138524 0.1899843673593487 0  0.3460909915425519 0.1899872601895877 0  0.3386218926161645 0.1899900072818519 0  0.3311527158831894 0.1899925787092338 0  0.3236834969673796 0.1899949802912955 0  0.3162141931580428 0.1899971880520507 0  0.3087448463046698 0.1899992006968994 0  0.301275436722572 0.1900010221297896 0  0.2938059846555018 0.1900025956019531 0  0.2863364852800927 0.190003957921052 0  0.2788669236975539 0.1900050841436775 0  0.2713974036271025 0.1900060108572931 0  0.263927962391828 0.190006700878771 0  0.2564592681106839 0.1900067854836763 0  0.2607812581010086 0.20007241924139 0  0.5887857169165537 0.1999745964075659 0  0.5745158652429818 0.2000606182178213 0  0.5512021578944554 0.1999828908142228 0  0.2751332156793617 0.1999985769942006 0  0.5365347308579925 0.1998797051555748 0  0.2894694110909641 0.1998657697832291 0  0.5216001817749127 0.1998888474981717 0  0.3127906395272406 0.199857314880255 0  0.3274210814515719 0.1999872571912746 0  0.5066652951587425 0.1998979115047899 0  0.3650820343588419 0.1998395728383214 0  0.4767945235302037 0.1999156962526931 0  0.3417563998015793 0.1998517381426247 0  0.3797054593198795 0.1999671244590752 0  0.461858642954913 0.1999243545358601 0  0.4917300748783261 0.199906870903951 0  0.3946431324830727 0.1999601591061416 0  0.4469224342586359 0.1999328085989001 0  0.4089770560701464 0.1998223171435747 0  0.432294584674542 0.2000682318131132 0  0.4201712223510801 0.1999439295059189 0  0.3529099121962856 0.1999969205380893 0  0.5633229629486207 0.1998446152390601 0  0.3006653557791316 0.1999909556796561 0  0.5815975542189837 0.1965074863366726 0  0.2677078458119941 0.1964265824202464 0  0.5290657268900071 0.1969770551369396 0  0.5440000938758046 0.1969678234467549 0  0.2825195423016811 0.203542987825269 0  0.3199523979244229 0.2028959296370697 0  0.4842606320459286 0.1970042428717104 0  0.5141310242921755 0.1969862187680138 0  0.3722377547902652 0.2028770643617727 0  0.4693249491017213 0.1970130447408986 0  0.3348914746745114 0.2028913510535859 0  0.3871756866256021 0.2028703900249178 0  0.4543889448594889 0.1970216612688239 0  0.4991959914038141 0.1969952905460922 0  0.4020295673172831 0.2035024165065736 0  0.4394526213856711 0.1970300535889122 0  0.2550653799916676 0.203406791031057 0  0.2548903226103375 0.196695905594415 0  0.5946592305922387 0.20227331
[...]
<PointData  Vectors="f_46-0"> 
<DataArray  type="Float64"  Name="f_46-0"  NumberOfComponents="3" format="ascii">0.0000000000000000e+00 0.0000000000000000e+00 0.0000000000000000e+00  0.0000000000000000e+00 0.0000000000000000e+00 0.0000000000000000e+00  0.0000000000000000e+00 0.0000000000000000e+00 0.0000000000000000e+00  0.0000000000000000e+00 0.0000000000000000e+00 0.0000000000000000e+00  7.5290134380539850e-05 -5.4288327230859362e-04 0.0000000000000000e+00  1.2390774942153514e-04 -5.7765621890597122e-04 0.0000000000000000e+00  0.0000000000000000e+00 0.0000000000000000e+00 0.0000000000000000e+00  0.0000000000000000e+00 0.0000000000000000e+00 0.0000000000000000e+00  0.0000000000000000e+00 0.0000000000000000e+00 0.0000000000000000e+00  0.0000000000000000e+00 0.0000000000000000e+00 0.0000000000000000e+00  8.8908554958448129e-05 -5.5970934363523575e-04 0.0000000000000000e+00  1.0039342821989876e-01 0.0000000000000000e+00 0.0000000000000000e+00  1.8534171363674842e-01 0.0000000000000000e+00 0.0000000000000000e+00  2.5484485625052922e-01 0.0000000000000000e+00 0.0000000000000000e+00  3.0890285606132134e-01 0.0000000000000000e+00 0.0000000000000000e+00  3.4751571306911799e-01 0.0000000000000000e+00 0.0000000000000000e+00  3.7068342727391684e-01 0.0000000000000000e+00 0.0000000000000000e+00  3.7840599867569469e-01 0.0000000000000000e+00 0.0000000000000000e+00  3.7068342727438519e-01 0.0000000000000000e+00 0.0000000000000000e+00  3.4751571306992263e-01 0.0000000000000000e+00 0.0000000000000000e+00  3.0890285606231777e-01 0.0000000000000000e+00 0.0000000000000000e+00  2.5484485625147574e-01 0.0000000000000000e+00 0.0000000000000000e+00  1.8534171363755619e-01 0.0000000000000000e+00 0.0000000000000000e+00  1.0039342822035387e-01 0.0000000000000000e+00 0.0000000000000000e+00  0.0000000000000000e+00 0.0000000000000000e+00 0.0000000000000000e+00  0.0000000000000000e+00 0.0000000000000000e+00 0.0000000000000000e+00  0.0000000000000000e+00 0.0000000000000000e+00 0.0000000000000000e+00  0.0000000000000000e+00 0.0000000000000000e+00 0.0000000000000000e+00  0.0000000000000000e+00 0.0000000000000000e+00 0.0000000000000000e+00  0.0000000000000000e+00 0.0000000000000000e+00 0.0000000000000000e+00  0.0000000000000000e+00 0.0000000000000000e+00 0.0000000000000000e+00  0.0000000000000000e+00 0.0000000000000000e+00 0.0000000000000000e+00  0.0000000000000000e+00 0.0000000000000000e+00 0.0000000000000000e+00  0.0000000000000000e+00 0.0000000000000000e+00 0.0000000000000000e+00  0.0000000000000000e+00 0.0000000000000000e+00 0.0000000000000000e+00  0.0000000000000000e+00 0.0000000000000000e+00 0.0000000000000000e+00  0.0000000000000000e+00 0.0000000000000000e+00 0.0000000000000000e+00  0.0000000000000000e+00 0.0000000000000000e+00 0.0000000000000000e+00  0.0000000000000000e+00 0.0000000000000000e+00 0.0000000000000000e+00  0.0000000000000000e+00 0.0000000000000000e+00 0.0000000000000000e+00  0.0000000000000000e+00 0.0000000000000000e+00 0.0000000000000000e+00  0.0000000000000000e+00 0.0000000000000000e+00 0.0000000000000000e+00  0.0000000000000000e+00 0.0000000000000000e+00 0.0000000000000000e+00  0.0000000000000000e+00 0.0000000000000000e+00 0.0000000000000000e+00  0.0000000000000000e+00 0.0000000000000000e+00 0.0000000000000000e+00  0.0000000000000000e+00 0.0000000000000000e+00 0.0000000000000000e+00  0.0000000000000000e+00 0.0000000000000000e+00 0.0000000000000000e+00  0.0000000000000000e+00 0.0000000000000000e+00 0.0000000000000000e+00  0.0000000000000000e+00 0.0000000000000000e+00 0.0000000000000000e+00  0.0000000000000000e+00 0.0000000000000000e+00 0.0000000000000000e+00  0.0000000000000000e+00 0.0000000000000000e+00 0.0000000000000000e+00  0.0000000000000000e+00 0.0000000000000000e+00 0.0000000000000000e+00  0.0000000000000000e+00 0.0000000000000000e+00 0.0000000000000000e+00  0.0000000000000000e+00 0.0000000000000000e+00 0.0000000000000000e+00  0.0000000000000000e+00 0.0000000000000000e+00 0.0000000000000000e+00  0.0000000000000000e+00 0.0000000000000000e+00 0.0000000000000000e+00  0.0000000000000000e+00 0.0000000000000000e+00 0.0000000000000000e+00  0.0000000000000000e+00 0.0000000000000000e+00 0.0000000000000000e+00  0.0000000000000000e+00 0.0000000000000000e+00 0.0000000000000000e+00  0.0000000000000000e+00 0.0000000000000000e+00 0.0000000000000000e+00  0.0000000000000000e+00 0.0000000000000000e+00 0.0000000000000000e+00  0.0000000000000000e+00 0.0000000000000000e+00 0.0000000000000000e+00  2.5920424163636718e-01 8.1656619528579222e-03 0.0000000000000000e+00  2.7556024225078968e-01 1.1388314982087695e-03 0.0000000000000000e+00  2.5642412429137379e-01 -9.2399742258884848e-03 0.0000000000000000e+00  0.0000000000000000e+00 0.0000000000000000e+00 0.0000000000000000e+00  0.0000000000000000e+00 0.0000000000000000e+00 0.0000000000000000e+00  0.0000000000000000e+00 0.0000000000000000e+00 0.0000000000000000e+00  0.0000000000000000e+00 0.0000000000000000e+00 0.0000000000000000e+00  0.0000000000000000e+00 0.0000000000000000e+00 0.0000000000000000e+00  0.0000000000000000e+00 0.0000000000000000e+00 0.0000000000000000e+00  0.0000000000000000e+00 0.0000000000000000e+00 0.0000000000000000e+00  0.0000000000000000e+00 0.0000000000000000e+00 0.0000000000000000e+00  0.0000000000000000e+00 0.0000000000000000e+00 0.0000000000000000e+00  0.0000000000000000e+00 0.0000000000000000e+00 0.0000000000000000e+00  0.0000000000000000e+00 0.0000000000000000e+00 0.0000000000000000e+00  0.0000000000000000e+00 0.0000000000000000e+00 0.0000000000000000e+00  0.0000000000000000e+00 0.0000000000000000e+00 0.0000000000000000e+00  0.0000000000000000e+00 0.0000000000000000e+00 0.0000000000000000e+00  0.0000000000000000e+00 0.0000000000000000e+00 0.0000000000000000e+00  0.0000000000000000e+00 0.0000000000000000e+00 0.0000000000000000e+00  0.0000000000000000e+00 0.0000000000000000e+00 0.0000000000000000e+00  0.0000000000000000e+00 0.0000000000000000e+00 0.0000000000000000e+00  0.0000000000000000e+00 0.0000000000000000e+00 0.0000000000000000e+00  0.0000000000000000e+00 0.0000000000000000e+00 0.0000000000000000e+00  0.0000000000000000e+00 0.0000000000000000e+00 0.0000000000000000e+00  0.0000000000000000e+00 0.0000000000000000e+00 0.0000000000000000e+00  0.0000000000000000e+00 0.0000000000000000e+00 0.0000000000000000e+00  0.0000000000000000e+00 0.0000000000000000e+00 0.0000000000000000e+00  0.0000000000000000e+00 0.0000000000000000e+00 0.0000000000000000e+00  0.0000000000000000e+00 0.0000000000000000e+00 0.0000000000000000e+00  0.0000000000000000e+00 0.0000000000000000e+00 0.0000000000000000e+00  0.0000000000000000e+00 0.0000000000000000e+00 0.0000000000000000e+00  0.0000000000000000e+00 0.0000000000000000e+00 0.0000000000000000e+00  0.0000000000000000e+00 0.0000000000000000e+00 0.0000000000000000e+00  0.0000000000000000e+00 0.0000000000000000e+00 0.0000000000000000e+00  0.0000000000000000e+00 0.0000000000000000e+00 0.0000000000000000e+00  0.0000000000000000e+00 0.0000000000000000e+00 0.0000000000000000e+00  0.0000000000000000e+00 0.0000000000000000e+00 0.0000000000000000e+00  0.0000000000000000e+00 0.0000000000000000e+00 0.0000000000000000e+00  0.0000000000000000e+00 0.0000000000000000e+00 0.0000000000000000e+00  0.0000000000000000e+00 0.0000000000000000e+00 0.0000000000000000e+00  0.0000000000000000e+00 0.0000000000000000e+00 0.0000000000000000e+00  0.0000000000000000e+00 0.0000000000000000e+00 0.0000000000000000e+00  0.0000000000000000e+00 0.0000000000000000e+00 0.0000000000000000e+00  0.0000000000000000e+00 0.0000000000000000e+00 0.0000000000000000e+00  0.0000000000000000e+00 0.0000000000000000e+00 0.0000000000000000e+00  0.0000000000000000e+00 0.0000000000000000e+00 0.0000000000000000e+00  0.0000000000000000e+00 0.0000000000000000e+00 0.0000000000000000e+00  0.0000000000000000e+00 0.0000000000000000e+00 0.0000000000000000e+00  0.0000000000000000e+00 0.0000000000000000e+00 0.0000000000000000e+00  0.0000000000000000e+00 0.0000000000000000e+00 0.0000000000000000e+00  0.0000000000000000e+00 0.0000000000000000e+00 0.0000000000000000e+00  0.0000000000000000e+00 0.0000000000000000e+00 0.0000000000000000e+00  0.0000000000000000e+00 0.0000000000000000e+00 0.0000000000000000e+00  0.0000000000000000e+00 0.0000000000000000e+00 0.0000000000000000e+00  0.0000000000000000e+00 0.0000000000000000e+00 0.0000000000000000e+00  0.0000000000000000e+00 0.0000000000000000e+00 0.0000000000000000e+00  0.0000000000000000e+00 0.0000000000000000e+00 0.0000000000000000e+00  0.0000000000000000e+00 0.0000000000000000e+00 0.0000000000000000e+00  0.0000000000000000e+00 0.0000000000000000e+00 0.0000000000000000e+00  0.0000000000000000e+00 0.0000000000000000e+00 0.0000000000000000e+00  0.0000000000000000e+00 0.0000000000000000e+00 0.0000000000000000e+00  0.0000000000000000e+00 0.0000000000000000e+00 0.0000000000000000e+00  0.0000000000000000e+00 0.0000000000000000e+00 0.0000000000000000e+00  0.0000000000000000e+00 0.0000000000000000e+00 0.0000000000000000e+00  0.0000000000000000e+00 0.0000000000000000e+00 0.0000000000000000e+00  0.0000000000000000e+00 0.0000000000000000e+00 0.0000000000000000e+00  0.0000000000000000e+00 0.0000000000000000e+00 0.0000000000000000e+00  0.0000000000000000e+00 0.0000000000000000e+00 0.0000000000000000e+00  0.0000000000000000e+00 0.0000000000000000e+00 0.0000000000000000e+00  0.0000000000000000e+00 0.0000000000000000e+00 0.0000000000000000e+00  0.0000000000000000e+00 0.0000000000000000e+00 0.0000000000000000e+00  0.0000000000000000e+00 0.0000000000000000e+00 0.0000000000000000e+00  0.0000000000000000e+00 0.0000000000000000e+00 0.0000000000000000e+00  0.0000000000000000e+00 0.0000000000000000e+00 0.0000000000000000e+00  0.0000000000000000e+00 0.0000000000000000e+00 0.0000000000000000e+00  0.0000000000000000e+00 0.0000000000000000e+00 0.0000000000000000e+00  0.0000000000000000e+00 0.0000000000000000e+00 0.0000000000000000e+00  0.0000000000000000e+00 0.0000000000000000e+00 0.0000000000000000e+00  0.0000000000000000e+00 0.0000000000000000e+00 0.0000000000000000e+00  0.0000000000000000e+00 0.0000000000000000e+00 0.0000000000000000e+00  0.0000000000000000e+00 0.0000000000000000e+00 0.0000000000000000e+00  1.1347122675862324e-06 4.2101759593688752e-05 0.0000000000000000e+00  9.2416884260560635e-06 -8.1097434112577899e-06 0.0000000000000000e+00  1.1905814774572860e-05 -1.2830004049279366e-05 0.0000000000000000e+00  1.7183350084480161e-05 -1.5786257835166362e-05 0.0000000000000000e+00  2.3496385162319786e-05 -1.8031796381902621e-05 0.0000000000000000e+00  2.7830705168321576e-05 -2.0783137485314990e-05 0.0000000000000000e+00  3.4184756747735117e-05 -2.6162292811487803e-05 0.0000000000000000e+00  3.7903142052715585e-05 -2.8990028934976050e-05 0.0000000000000000e+00  4.2739238247992263e-05 -3.4745513887933373e-05 0.0000000000000000e+00  4.9477223755599682e-05 -3.9646888959322203e-05 0.0000000000000000e+00  5.2583045392349569e-05 -4.6701712206677259e-05 0.0000000000000000e+00  5.9099284055343332e-05 -5.3108255678899616e-05 0.0000000000000000e+00  6.2520339704549298e-05 -6.0663262483403650e-05 0.0000000000000000e+00  6.8410027045194986e-05 -7.0012699872570820e-05 0.0000000000000000e+00  7.1197127800621244e-05 -7.7981022583858067e-05 0.0000000000000000e+00  7.5340385010531927e-05 -8.8137495610342791e-05 0.0000000000000000e+00  8.0431874343648958e-05 -9.7472355937103729e-05 0.0000000000000000e+00  8.2974832646383098e-05 -1.0896855608380986e-04 0.0000000000000000e+00  8.7760849273697564e-05 -1.1948290681078346e-04 0.0000000000000000e+00  8.9943027600792314e-05 -1.3187106499588515e-04 0.0000000000000000e+00  9.3995421482189940e-05 -1.4365691402679851e-04 0.0000000000000000e+00  9.6322828330881917e-05 -1.5653568096214672e-04 0.0000000000000000e+00  1.0049488815629923e-04 -1.7036963983763201e-04 0.0000000000000000e+00  1.0177962041727946e-04 -1.8357119301310858e-04 0.0000000000000000e+00  1.0423580707122670e-04 -1.9793360212550551e-04 0.0000000000000000e+00  1.0689459526174408e-04 -2.1191907547081821e-04 0.0000000000000000e+00  1.0855825072265996e-04 -2.2724830659517185e-04 0.0000000000000000e+00  1.1078937259524085e-04 -2.4191940868230384e-04 0.0000000000000000e+00  1.1215050586425031e-04 -2.5785750547775650e-04 0.0000000000000000e+00  1.1393939227045140e-04 -2.7311530394120721e-04 0.0000000000000000e+00  1.1498606205783143e-04 -2.8957737560957980e-04 0.0000000000000000e+00  1.1634479736155016e-04 -3.0531481412678595e-04 0.0000000000000000e+00  1.1707185332338306e-04 -3.2221480752287531e-04 0.0000000000000000e+00  1.1801184673357053e-04 -3.3833049591784452e-04 0.0000000000000000e+00  1.1840898154432449e-04 -3.5557388486309510e-04 0.0000000000000000e+00  1.1893524633453128e-04 -3.7199054305902044e-04 0.0000000000000000e+00  1.1900623195013773e-04 -3.8949695933158631e-04 0.0000000000000000e+00  1.1912441245853512e-04 -4.0612618434996485e-04 0.0000000000000000e+00  1.1887264693344553e-04 -4.2382121689073942e-04 0.0000000000000000e+00  1.1855755713276615e-04 -4.4063270946639329e-04 0.0000000000000000e+00  1.1786798565982232e-04 -4.5811985111210603e-04 0.0000000000000000e+00  1.1829423761144451e-04 -4.7569732037071040e-04 0.0000000000000000e+00  1.1611922041850845e-04 -4.9297535289497191e-04 0.0000000000000000e+00  1.1504057371187150e-04 -5.1060403979652882e-04 0.0000000000000000e+00  1.1406721327427257e-04 -5.2739131263617920e-04 0.0000000000000000e+00  1.1149299332614829e-04 -5.5151896532226264e-04 0.0000000000000000e+00  1.0433328475566198e-04 -5.6200334354124086e-04 0.0000000000000000e+00  8.0945899845660446e-05 -5.5811664463088718e-04 0.0000000000000000e+00  6.5483729550778509e-05 -5.3228149374119507e-04 0.0000000000000000e+00  6.7207161957570763e-05 -5.2099568956504711e-04 0.0000000000000000e+00  6.7982147982249963e-05 -5.0239056703324991e-04 0.0000000000000000e+00  6.9061250574414972e-05 -4.8498597555248597e-04 0.0000000000000000e+00  7.1205013200182219e-05 -4.6716884831278342e-04 0.0000000000000000e+00  7.0937230103625622e-05 -4.4954868642362424e-04 0.0000000000000000e+00  7.1984413761836961e-05 -4.3217209174622507e-04 0.0000000000000000e+00  7.2572864049108259e-05 -4.1381062242038956e-04 0.0000000000000000e+00  7.2808198113523726e-05 -3.9704169553521790e-04 0.0000000000000000e+00  7.3231990937949200e-05 -3.7876983819942712e-04 0.0000000000000000e+00  7.3116519888398020e-05 -3.6220338415003276e-04 0.0000000000000000e+00  7.3333917822315583e-05 -3.4417079409666086e-04 0.0000000000000000e+00  7.2884132075156017e-05 -3.2786136808974964e-04 0.0000000000000000e+00  7.2914807436503645e-05 -3.1014389103242056e-04 0.0000000000000000e+00  7.2130138963536684e-05 -2.9417230027138939e-04 0.0000000000000000e+00  7.1991417937708146e-05 -2.7685283535180125e-04 0.0000000000000000e+00  7.0868002564536216e-05 -2.6130750871877637e-04 0.0000000000000000e+00  7.0573467489697524e-05 -2.4447610502817977e-04 0.0000000000000000e+00  6.9106896400734916e-05 -2.2945654404923034e-04 0.0000000000000000e+00  6.8671186725329772e-05 -2.1321230301688367e-04 0.0000000000000000e+00  6.6866812207749319e-05 -1.9878829053794235e-04 0.0000000000000000e+00  6.6260040433581538e-05 -1.8335504229653691e-04 0.0000000000000000e+00  6.4230852394963749e-05 -1.6906650544581416e-04 0.0000000000000000e+00  6.3478705069138969e-05 -1.5575025947163782e-04 0.0000000000000000e+00  6.0853011032851419e-05 -1.4157850842177219e-04 0.0000000000000000e+00  5.9078701002528214e-05 -1.2860866452985681e-04 0.0000000000000000e+00  5.7791542560017871e-05 -1.1547894354676818e-04 0.0000000000000000e+00  5.5137166199650082e-05 -1.0377382635002915e-04 0.0000000000000000e+00  5.3699874159517486e-05 -9.1727518754568068e-05 0.0000000000000000e+00  5.0675617019660373e-05 -8.1077087883340806e-05 0.0000000000000000e+00  4.9007415420109723e-05 -7.0285811383924792e-05 0.0000000000000000e+00  4.6154820579009858e-05 -6.0414849754295135e-05 0.0000000000000000e+00  4.4042540674634617e-05 -5.2417349543895771e-05 0.0000000000000000e+00  4.0390661789861638e-05 -4.2734270937083703e-05 0.0000000000000000e+00  3.7377558659839626e-05 -3.5004650354195213e-05 0.0000000000000000e+00  3.5399431449364914e-05 -2.7303272235483914e-05 0.0000000000000000e+00  3.1165591372531366e-05 -2.1098308108581400e-05 0.0000000000000000e+00  2.9044007405582693e-05 -1.5002129751130845e-05 0.0000000000000000e+00  2.5249375595844792e-05 -9.8186562060330693e-06 0.0000000000000000e+00  2.2154410105928341e-05 -6.9661984859043938e-06 0.0000000000000000e+00  1.8152285068842906e-05 -1.8488089214587550e-06 0.0000000000000000e+00  1.4313023093195974e-05 1.0309419258341988e-06 0.0000000000000000e+00  1.2948025868647905e-05 3.8024373709284883e-06 0.0000000000000000e+00  5.9531785832181889e-06 4.2746344422240884e-06 0.0000000000000000e+00  7.7456276159962284e-06 1.1182230963005780e-06 0.0000000000000000e+00  1.5444730212138225e-06 -4.2316087918106686e-05 0.0000000000000000e+00  7.0981711537380612e-06 -2.8170688495543234e-06 0.0000000000000000e+00  8.9576392537626059e-05 -5.3317712984556856e-04 0.0000000000000000e+00  9.2256521281223582e-05 -4.9933650221480259e-04 0.0000000000000000e+00  9.4602191633584896e-05 -4.4458238215285499e-04 0.0000000000000000e+00  1.2478991645819978e-05 -5.5450949017573030e-06 0.0000000000000000e+00  9.5068431360091423e-05 -4.1018931197110237e-04 0.0000000000000000e+00  2.0648873292534146e-05 -9.2445304731311403e-06 0.0000000000000000e+00  9.5302741653641417e-05 -3.7558635450829351e-04 0.0000000000000000e+00  3.3346287560768229e-05 -2.1966131329668897e-05 0.0000000000000000e+00  4.1536352048920259e-05 -3.3675265445499991e-05 0.0000000000000000e+00  9.4897892722668707e-05 -3.4144443598678746e-04 0.0000000000000000e+00  5.9823453611994300e-05 -7.4237778548881859e-05 0.0000000000000000e+00  9.2195188754823967e-05 -2.7514758849526267e-04 0.0000000000000000e+00  4.9247659556621027e-05 -4.6624133543218658e-05 0.0000000000000000e+00  6.6202519440703681e-05 -9.4727708864009323e-05 0.0000000000000000e+00  8.9907935698333274e-05 -2.4335055988798413e-04 0.0000000000000000e+00  9.3859732721056840e-05 -3.0790717974089112e-04 0.0000000000000000e+00  7.2052522335984735e-05 -1.1754192159571437e-04 0.0000000000000000e+00  8.7016758805780236e-05 -2.1269938656327147e-04 0.0000000000000000e+00  7.6922777813116398e-05 -1.4115772588017825e-04 0.0000000000000000e+00  8.4033956398938086e-05 -1.8389270172036195e-04 0.0000000000000000e+00  8.1730805934456519e-05 -1.6140368800933699e-04 0.0000000000000000e+00  5.5866724576181203e-05 -5.9583675958957267e-05 0.0000000000000000e+00  9.4542034395464684e-05 -4.7293068754274224e-04 0.0000000000000000e+00  2.7872617342541572e-05 -1.5105462223302187e-05 0.0000000000000000e+00  8.2688509981008004e-05 -5.1458075236561550e-04 0.0000000000000000e+00  8.0408400851691717e-06 -2.5678121216747956e-06 0.0000000000000000e+00  8.9175389636994286e-05 -3.9140674231900006e-04 0.0000000000000000e+00  8.8555205323718336e-05 -4.2624068068731184e-04 0.0000000000000000e+00  1.7900782990046658e-05 -1.0789853453677980e-05 0.0000000000000000e+00  4.0383292375826101e-05 -3.0455507365696117e-05 0.0000000000000000e+00  8.7357354485268502e-05 -2.8971430339060420e-04 0.0000000000000000e+00  8.9172710842237902e-05 -3.5692816057595911e-04 0.0000000000000000e+00  6.7811232217155151e-05 -8.6671062725161312e-05 0.0000000000000000e+00  8.5563284275025890e-05 -2.5732267155047006e-04 0.0000000000000000e+00  4.8797414311573229e-05 -4.3251868574081402e-05 0.0000000000000000e+00  7.4213353750624052e-05 -1.0836711233445764e-04 0.0000000000000000e+00  8.3183673965078563e-05 -2.2599304531068269e-04 0.0000000000000000e+00  8.8562924886602184e-05 -3.2297583982438829e-04 0.0000000000000000e+00  8.1074133916039692e-05 -1.3253524377819338e-04 0.0000000000000000e+00  8.0203843756381554e-05 -1.9593426166843324e-04 0.0000000000000000e+00  2.5573925348349233e-05 -5.7955525851956048e-06 0.0000000000000000e+00  2.4106378080684665e-05 -9.1921049482769643e-07 0.0000000000000000e+00  9.5688010333296348e-05 -5.4925979273683155e-04 0.0000000000000000e+00  9.5497455988631298e-06 -5.7545595244201055e-06 0.0000000000000000e+00  7.61450742