<?xml version="1.0"?>
<VTKFile type="UnstructuredGrid"  version="0.1"  >
<UnstructuredGrid>
<Piece  NumberOfPoints="1419" NumberOfCells="2698">
<Points>
<DataArray  type="Float64"  NumberOfComponents="3"  format="ascii">0 0 0  0 0.41 0  2.5 0 0  2.5 0.41 0  0.6000011219059685 0.189810428451702 0  0.6000163740117619 0.2098030413305983 0  0.25 0.2 0  0.15 0.2 0  0.2489897948556636 0.21 0  0.2489897948556636 0.19 0  0.6000079302196198 0.1998067354057869 0  0 0.3807142857143437 0  0 0.3514285714286952 0  0 0.3221428571430699 0  0 0.29285714285744 0  0 0.2635714285718054 0  0 0.2342857142861561 0  0 0.2050000000005308 0  0 0.175714285714732 0  0 0.1464285714289574 0  0 0.1171428571431897 0  0 0.08785714285737878 0  0 0.05857142857161107 0  0 0.02928571428580012 0  0.03015443760436003 0 0  0.06140001986583606 0 0  0.09377624077125973 0 0  0.1273239957535082 0 0  0.1620856860351972 0 0  0.1981052433264291 0 0  0.235428184091502 0 0  0.2741016576309132 0 0  0.3141745521465447 0 0  0.3556974926295285 0 0  0.3987229542472677 0 0  0.4433053055141081 0 0  0.4895008759286886 0 0  0.5373680609405097 0 0  0.5869673343216626 0 0  0.6383613676634521 0 0  0.6916151138468254 0 0  0.7467958595648856 0 0  0.8039733463919316 0 0  0.8632198139502143 0 0  0.9246101326867038 0 0  0.9882218810934433 0 0  1.054135445558498 0 0  1.122434100542598 0 0  1.193204177141305 0 0  1.266535089879536 0 0  1.342519516046404 0 0  1.421253448503939 0 0  1.502836389106271 0 0  1.587371439758838 0 0  1.674965418777374 0 0  1.765729001825544 0 0  1.859776908880082 0 0  1.957227977487062 0 0  2.058205329869943 0 0  2.162836591189951 0 0  2.271253957290865 0 0  2.383594446803425 0 0  2.5 0.1024999999997612 0  2.5 0.2049999999994743 0  2.5 0.3074999999997183 0  2.383594446803656 0.41 0  2.271253957291315 0.41 0  2.162836591190598 0.41 0  2.058205329870775 0.41 0  1.957227977488067 0.41 0  1.859776908881246 0.41 0  1.765729001826854 0.41 0  1.674965418778818 0.41 0  1.58737143976041 0.41 0  1.502836389107956 0.41 0  1.421253448505726 0.41 0  1.342519516048286 0.41 0  1.266535089881505 0.41 0  1.193204177143353 0.41 0  1.122434100544716 0.41 0  1.05413544556068 0.41 0  0.9882218810956305 0.41 0  0.9246101326886647 0.41 0  0.8632198139519631 0.41 0  0.8039733463934788 0.41 0  0.7467958595662458 0.41 0  0.6916151138480078 0.41 0  0.6383613676644679 0.41 0  0.5869673343225223 0.41 0  0.5373680609412221 0.41 0  0.4895008759292634 0.41 0  0.4433053055145528 0.41 0  0.3987229542475914 0.41 0  0.3556974926297398 0.41 0  0.3141745521466497 0.41 0  0.2741016576310038 0.41 0  0.2354281840915826 0.41 0  0.1981052433265003 0.41 0  0.1620856860352591 0.41 0  0.1273239957535623 0.41 0  0.09377624077128965 0.41 0  0.06140001986584975 0.41 0  0.03015443760436654 0.41 0  0.2497468076502589 0.2050254481002335 0  0.2497468076502614 0.1949745518997913 0  0.2469965252529372 0.1829317073451959 0  0.2439893735792749 0.1762316384219906 0  0.2400332147834255 0.1700443375285386 0  0.2352133972704371 0.1645032867342007 0  0.2296339016332438 0.1597280261969788 0  0.2234150974217223 0.1558215752574715 0  0.2166911463437691 0.1528682099456123 0  0.2096071079204251 0.1509316448471593 0  0.2023158100364996 0.1500536585536553 0  0.194974551899914 0.1502531923497262 0  0.1877417105387872 0.1515259415822739 0  0.1807733240461124 0.153844448527136 0  0.1742197252835808 0.15715869474974 0  0.1682222986673531 0.1613971801805478 0  0.162910430003803 0.1664684656256651 0  0.1583987151779087 0.1722631454351573 0  0.1547844879126891 0.178656207771761 0  0.1521457199348551 0.1855097315605723 0  0.1505393388476355 0.1926758619366523 0  0.1505393388476328 0.2073241380633295 0  0.1521457199348437 0.2144902684393899 0  0.1547844879126531 0.221343792228163 0  0.1583987151778488 0.2277368545647528 0  0.1629104300036858 0.2335315343742052 0  0.1682222986671726 0.2386028198193036 0  0.1742197252833576 0.2428413052501257 0  0.1807733240458683 0.2461555514727623 0  0.1877417105384929 0.2484740584176516 0  0.1949745518995776 0.2497468076502398 0  0.202315810036185 0.2499463414463592 0  0.2096071079201568 0.2490683551528932 0  0.2166911463435495 0.2471317900544655 0  0.2234150974215506 0.2441784247426195 0  0.2296339016331197 0.2402719738031125 0  0.2352133972703547 0.2354967132658811 0  0.2400332147833751 0.2299556624715287 0  0.2439893735792577 0.2237683615780412 0  0.246996525252926 0.2170682926548348 0  0.2564601425966682 0.2099922348322212 0  0.2639296927368948 0.209991598288335 0  0.2714000198936124 0.2099909999699681 0  0.2788704960922052 0.2099901265975098 0  0.2863409318826945 0.2099889540522528 0  0.2938113423353939 0.2099875198864903 0  0.3012816679843719 0.2099858646753191 0  0.3087519518087404 0.2099839280587454 0  0.3162221462310945 0.2099817838522207 0  0.3236922288948287 0.2099793936307578 0  0.3311622674047741 0.2099767973829309 0  0.3386321665283495 0.2099739735196284 0  0.3461020062223105 0.2099709480127634 0  0.3535717153898922 0.2099677416541059 0  0.3610413595925124 0.2099643202650496 0  0.368510884815284 0.2099607398671033 0  0.3759802916489321 0.2099569734336852 0  0.3834496280366523 0.2099530640072192 0  0.3909188289968527 0.2099489863940447 0  0.3983879597671209 0.2099447808910813 0  0.4058569604345023 0.2099404301320148 0  0.4133258790345798 0.2099359607573779 0  0.4207946705621973 0.2099313828617692 0  0.4282633935722862 0.2099266817211119 0  0.4357319986835493 0.2099218902445213 0  0.4432004970016422 0.2099169975828177 0  0.4506689058259598 0.2099120308058629 0  0.458137203784912 0.2099069747564154 0  0.4656054111501935 0.2099018581987752 0  0.4730735101554307 0.2098966657475295 0  0.48054151741424 0.2098914255140549 0  0.4880094182199794 0.2098861214826309 0  0.4954772263266273 0.2098807811401678 0  0.5029449295490627 0.2098753881133656 0  0.5104125386303724 0.2098699689938907 0  0.5178800442787076 0.2098645069921031 0  0.5253474544910272 0.2098590285687942 0  0.5328147619771223 0.2098535159270587 0  0.5402819722245021 0.2098479954885764 0  0.547749080141023 0.2098424489288204 0  0.5552160894451115 0.2098368978671699 0  0.5626829805640825 0.209831339643108 0  0.5701497959199732 0.209825773385837 0  0.577616488882161 0.2098202144086213 0  0.5850830849685634 0.2098146612760251 0  0.5925496924052539 0.2098091564335944 0  0.6000118713290488 0.2048048395649515 0  0.600004253807354 0.1948086272063365 0  0.5925344393516716 0.1898157009468565 0  0.5850678363581954 0.1898215848285448 0  0.5776012527051773 0.1898274210144072 0  0.5701345752896545 0.189833246973723 0  0.5626677815815757 0.1898390531299154 0  0.5552009159116766 0.1898448492886191 0  0.547733938069676 0.1898506351550216 0  0.5402668706841385 0.1898563937811424 0  0.5327997148253663 0.1898621516813775 0  0.5253324645093498 0.1898678700946328 0  0.5178651308547249 0.1898735818126614 0  0.5103977028994244 0.1898792464532143 0  0.5029301955165736 0.1898848958401602 0  0.4954625935011291 0.1898904894736009 0  0.4879949157641309 0.189896058154174 0  0.4805271424731586 0.1899015611859596 0  0.4730592971829554 0.1899070284728692 0  0.4655913549533747 0.1899124189701769 0  0.4581233445565873 0.1899177616544575 0  0.450655235533463 0.1899230151465135 0  0.4431870620415252 0.1899282072928185 0  0.435718788733055 0.1899332985260965 0  0.4282504515719018 0.1899383054714447 0  0.4207820177634975 0.1899432198833209 0  0.4133135228256298 0.189948008615568 0  0.4058449376626423 0.1899526911189396 0  0.3983762644168764 0.1899572412437169 0  0.3909075292763134 0.1899616678951415 0  0.3834386972707463 0.1899659421651604 0  0.3759698069498411 0.1899700735968373 0  0.3685008191235711 0.1899740357734249 0  0.3610317686112632 0.1899778297922808 0  0.3535626321722619 0.1899814588775914 0  0.3460934358302518 0.1899848664145804 0  0.3386241575123052 0.189988089909375 0  0.3311547922962318 0.1899910943167931 0  0.323685384725928 0.1899938859825846 0  0.316215882601514 0.1899964396386324 0  0.3087463376898532 0.1899987533611711 0  0.3012767268120838 0.1900008346219181 0  0.2938070733124275 0.1900026183459945 0  0.2863373731953239 0.1900041508853377 0  0.2788676093024827 0.1900054066263248 0  0.2713978972440553 0.1900064271301811 0  0.2639282710114446 0.1900071787540957 0  0.2564594497323392 0.1900072701781035 0  0.2607815010630923 0.2000724053145966 0  0.5887914010551359 0.1999424891814798 0  0.5745217027543197 0.2000305442145586 0  0.5512081170326105 0.1999561363712502 0  0.2751339430368989 0.1999984451334823 0  0.5365407071733076 0.199855028862666 0  0.2894706112049474 0.1998653868097416 0  0.5216061524739415 0.1998662671602269 0  0.3127926303657271 0.1998561956060328 0  0.3274235669243724 0.1999854587083848 0  0.5066712216897042 0.1998774017322573 0  0.3650856640247574 0.1998353118535253 0  0.4768002482036772 0.1998992128997556 0  0.3417593376408332 0.1998491283870314 0  0.3797094911619858 0.1999616307526824 0  0.4618642104557094 0.1999098052395917 0  0.4917359192850581 0.1998883969348566 0  0.3946475279138598 0.1999532728934559 0  0.4469278071286208 0.1999201245705048 0  0.4089817515339027 0.1998139788524153 0  0.4322997449534654 0.2000572896896513 0  0.4201761505564023 0.1999343735738781 0  0.3529131996686821 0.1999935630257991 0  0.5633288445964071 0.1998161409492084 0  0.3006669383320575 0.1999902639502066 0  0.5816028252567785 0.1964764724027716 0  0.2677082969374418 0.1964267192300291 0  0.5290712992569873 0.1969535112594424 0  0.5440056486572717 0.1969421678701892 0  0.2825205797451157 0.2035425491300324 0  0.3199547683820059 0.2028943348437039 0  0.4842660363711951 0.1969868698104188 0  0.5141365768397512 0.196964765183783 0  0.372241832653033 0.2028720696745527 0  0.4693302261324269 0.196997641168883 0  0.3348943692052038 0.202888988729617 0  0.3871801744392056 0.2028640777739953 0  0.4543940595380522 0.1970081645975436 0  0.4992014877139475 0.1969758971901295 0  0.4020344885030297 0.2034946305953866 0  0.43945753880958 0.1970183886747565 0  0.2550654408631611 0.203406651443353 0  0.2548903634500413 0.1966960473161641 0  0.5946651662196244 0.2
[...]
<PointData  Vectors="f_46-0"> 
<DataArray  type="Float64"  Name="f_46-0"  NumberOfComponents="3" format="ascii">0.0000000000000000e+00 0.0000000000000000e+00 0.0000000000000000e+00  0.0000000000000000e+00 0.0000000000000000e+00 0.0000000000000000e+00  0.0000000000000000e+00 0.0000000000000000e+00 0.0000000000000000e+00  0.0000000000000000e+00 0.0000000000000000e+00 0.0000000000000000e+00  8.5451169810240622e-05 -5.4260975917756694e-04 0.0000000000000000e+00  1.3445288553024870e-04 -5.7892346243236927e-04 0.0000000000000000e+00  0.0000000000000000e+00 0.0000000000000000e+00 0.0000000000000000e+00  0.0000000000000000e+00 0.0000000000000000e+00 0.0000000000000000e+00  0.0000000000000000e+00 0.0000000000000000e+00 0.0000000000000000e+00  0.0000000000000000e+00 0.0000000000000000e+00 0.0000000000000000e+00  9.8422429803388911e-05 -5.6016189723841344e-04 0.0000000000000000e+00  1.1709663272632057e-01 0.0000000000000000e+00 0.0000000000000000e+00  2.1617839887937534e-01 0.0000000000000000e+00 0.0000000000000000e+00  2.9724529845914122e-01 0.0000000000000000e+00 0.0000000000000000e+00  3.6029733146571186e-01 0.0000000000000000e+00 0.0000000000000000e+00  4.0533449789907922e-01 0.0000000000000000e+00 0.0000000000000000e+00  4.3235679775924052e-01 0.0000000000000000e+00 0.0000000000000000e+00  4.4136423104616890e-01 0.0000000000000000e+00 0.0000000000000000e+00  4.3235679775978680e-01 0.0000000000000000e+00 0.0000000000000000e+00  4.0533449790001769e-01 0.0000000000000000e+00 0.0000000000000000e+00  3.6029733146687404e-01 0.0000000000000000e+00 0.0000000000000000e+00  2.9724529846024528e-01 0.0000000000000000e+00 0.0000000000000000e+00  2.1617839888031751e-01 0.0000000000000000e+00 0.0000000000000000e+00  1.1709663272685139e-01 0.0000000000000000e+00 0.0000000000000000e+00  0.0000000000000000e+00 0.0000000000000000e+00 0.0000000000000000e+00  0.0000000000000000e+00 0.0000000000000000e+00 0.0000000000000000e+00  0.0000000000000000e+00 0.0000000000000000e+00 0.0000000000000000e+00  0.0000000000000000e+00 0.0000000000000000e+00 0.0000000000000000e+00  0.0000000000000000e+00 0.0000000000000000e+00 0.0000000000000000e+00  0.0000000000000000e+00 0.0000000000000000e+00 0.0000000000000000e+00  0.0000000000000000e+00 0.0000000000000000e+00 0.0000000000000000e+00  0.0000000000000000e+00 0.0000000000000000e+00 0.0000000000000000e+00  0.0000000000000000e+00 0.0000000000000000e+00 0.0000000000000000e+00  0.0000000000000000e+00 0.0000000000000000e+00 0.0000000000000000e+00  0.0000000000000000e+00 0.0000000000000000e+00 0.0000000000000000e+00  0.0000000000000000e+00 0.0000000000000000e+00 0.0000000000000000e+00  0.0000000000000000e+00 0.0000000000000000e+00 0.0000000000000000e+00  0.0000000000000000e+00 0.0000000000000000e+00 0.0000000000000000e+00  0.0000000000000000e+00 0.0000000000000000e+00 0.0000000000000000e+00  0.0000000000000000e+00 0.0000000000000000e+00 0.0000000000000000e+00  0.0000000000000000e+00 0.0000000000000000e+00 0.0000000000000000e+00  0.0000000000000000e+00 0.0000000000000000e+00 0.0000000000000000e+00  0.0000000000000000e+00 0.0000000000000000e+00 0.0000000000000000e+00  0.0000000000000000e+00 0.0000000000000000e+00 0.0000000000000000e+00  0.0000000000000000e+00 0.0000000000000000e+00 0.0000000000000000e+00  0.0000000000000000e+00 0.0000000000000000e+00 0.0000000000000000e+00  0.0000000000000000e+00 0.0000000000000000e+00 0.0000000000000000e+00  0.0000000000000000e+00 0.0000000000000000e+00 0.0000000000000000e+00  0.0000000000000000e+00 0.0000000000000000e+00 0.0000000000000000e+00  0.0000000000000000e+00 0.0000000000000000e+00 0.0000000000000000e+00  0.0000000000000000e+00 0.0000000000000000e+00 0.0000000000000000e+00  0.0000000000000000e+00 0.0000000000000000e+00 0.0000000000000000e+00  0.0000000000000000e+00 0.0000000000000000e+00 0.0000000000000000e+00  0.0000000000000000e+00 0.0000000000000000e+00 0.0000000000000000e+00  0.0000000000000000e+00 0.0000000000000000e+00 0.0000000000000000e+00  0.0000000000000000e+00 0.0000000000000000e+00 0.0000000000000000e+00  0.0000000000000000e+00 0.0000000000000000e+00 0.0000000000000000e+00  0.0000000000000000e+00 0.0000000000000000e+00 0.0000000000000000e+00  0.0000000000000000e+00 0.0000000000000000e+00 0.0000000000000000e+00  0.0000000000000000e+00 0.0000000000000000e+00 0.0000000000000000e+00  0.0000000000000000e+00 0.0000000000000000e+00 0.0000000000000000e+00  0.0000000000000000e+00 0.0000000000000000e+00 0.0000000000000000e+00  3.0329125952960079e-01 9.3694767652622944e-03 0.0000000000000000e+00  3.2177919995473903e-01 1.3282084476481458e-03 0.0000000000000000e+00  2.9999667897277377e-01 -1.0751371857397617e-02 0.0000000000000000e+00  0.0000000000000000e+00 0.0000000000000000e+00 0.0000000000000000e+00  0.0000000000000000e+00 0.0000000000000000e+00 0.0000000000000000e+00  0.0000000000000000e+00 0.0000000000000000e+00 0.0000000000000000e+00  0.0000000000000000e+00 0.0000000000000000e+00 0.0000000000000000e+00  0.0000000000000000e+00 0.0000000000000000e+00 0.0000000000000000e+00  0.0000000000000000e+00 0.0000000000000000e+00 0.0000000000000000e+00  0.0000000000000000e+00 0.0000000000000000e+00 0.0000000000000000e+00  0.0000000000000000e+00 0.0000000000000000e+00 0.0000000000000000e+00  0.0000000000000000e+00 0.0000000000000000e+00 0.0000000000000000e+00  0.0000000000000000e+00 0.0000000000000000e+00 0.0000000000000000e+00  0.0000000000000000e+00 0.0000000000000000e+00 0.0000000000000000e+00  0.0000000000000000e+00 0.0000000000000000e+00 0.0000000000000000e+00  0.0000000000000000e+00 0.0000000000000000e+00 0.0000000000000000e+00  0.0000000000000000e+00 0.0000000000000000e+00 0.0000000000000000e+00  0.0000000000000000e+00 0.0000000000000000e+00 0.0000000000000000e+00  0.0000000000000000e+00 0.0000000000000000e+00 0.0000000000000000e+00  0.0000000000000000e+00 0.0000000000000000e+00 0.0000000000000000e+00  0.0000000000000000e+00 0.0000000000000000e+00 0.0000000000000000e+00  0.0000000000000000e+00 0.0000000000000000e+00 0.0000000000000000e+00  0.0000000000000000e+00 0.0000000000000000e+00 0.0000000000000000e+00  0.0000000000000000e+00 0.0000000000000000e+00 0.0000000000000000e+00  0.0000000000000000e+00 0.0000000000000000e+00 0.0000000000000000e+00  0.0000000000000000e+00 0.0000000000000000e+00 0.0000000000000000e+00  0.0000000000000000e+00 0.0000000000000000e+00 0.0000000000000000e+00  0.0000000000000000e+00 0.0000000000000000e+00 0.0000000000000000e+00  0.0000000000000000e+00 0.0000000000000000e+00 0.0000000000000000e+00  0.0000000000000000e+00 0.0000000000000000e+00 0.0000000000000000e+00  0.0000000000000000e+00 0.0000000000000000e+00 0.0000000000000000e+00  0.0000000000000000e+00 0.0000000000000000e+00 0.0000000000000000e+00  0.0000000000000000e+00 0.0000000000000000e+00 0.0000000000000000e+00  0.0000000000000000e+00 0.0000000000000000e+00 0.0000000000000000e+00  0.0000000000000000e+00 0.0000000000000000e+00 0.0000000000000000e+00  0.0000000000000000e+00 0.0000000000000000e+00 0.0000000000000000e+00  0.0000000000000000e+00 0.0000000000000000e+00 0.0000000000000000e+00  0.0000000000000000e+00 0.0000000000000000e+00 0.0000000000000000e+00  0.0000000000000000e+00 0.0000000000000000e+00 0.0000000000000000e+00  0.0000000000000000e+00 0.0000000000000000e+00 0.0000000000000000e+00  0.0000000000000000e+00 0.0000000000000000e+00 0.0000000000000000e+00  0.0000000000000000e+00 0.0000000000000000e+00 0.0000000000000000e+00  0.0000000000000000e+00 0.0000000000000000e+00 0.0000000000000000e+00  0.0000000000000000e+00 0.0000000000000000e+00 0.0000000000000000e+00  0.0000000000000000e+00 0.0000000000000000e+00 0.0000000000000000e+00  0.0000000000000000e+00 0.0000000000000000e+00 0.0000000000000000e+00  0.0000000000000000e+00 0.0000000000000000e+00 0.0000000000000000e+00  0.0000000000000000e+00 0.0000000000000000e+00 0.0000000000000000e+00  0.0000000000000000e+00 0.0000000000000000e+00 0.0000000000000000e+00  0.0000000000000000e+00 0.0000000000000000e+00 0.0000000000000000e+00  0.0000000000000000e+00 0.0000000000000000e+00 0.0000000000000000e+00  0.0000000000000000e+00 0.0000000000000000e+00 0.0000000000000000e+00  0.0000000000000000e+00 0.0000000000000000e+00 0.0000000000000000e+00  0.0000000000000000e+00 0.0000000000000000e+00 0.0000000000000000e+00  0.0000000000000000e+00 0.0000000000000000e+00 0.0000000000000000e+00  0.0000000000000000e+00 0.0000000000000000e+00 0.0000000000000000e+00  0.0000000000000000e+00 0.0000000000000000e+00 0.0000000000000000e+00  0.0000000000000000e+00 0.0000000000000000e+00 0.0000000000000000e+00  0.0000000000000000e+00 0.0000000000000000e+00 0.0000000000000000e+00  0.0000000000000000e+00 0.0000000000000000e+00 0.0000000000000000e+00  0.0000000000000000e+00 0.0000000000000000e+00 0.0000000000000000e+00  0.0000000000000000e+00 0.0000000000000000e+00 0.0000000000000000e+00  0.0000000000000000e+00 0.0000000000000000e+00 0.0000000000000000e+00  0.0000000000000000e+00 0.0000000000000000e+00 0.0000000000000000e+00  0.0000000000000000e+00 0.0000000000000000e+00 0.0000000000000000e+00  0.0000000000000000e+00 0.0000000000000000e+00 0.0000000000000000e+00  0.0000000000000000e+00 0.0000000000000000e+00 0.0000000000000000e+00  0.0000000000000000e+00 0.0000000000000000e+00 0.0000000000000000e+00  0.0000000000000000e+00 0.0000000000000000e+00 0.0000000000000000e+00  0.0000000000000000e+00 0.0000000000000000e+00 0.0000000000000000e+00  0.0000000000000000e+00 0.0000000000000000e+00 0.0000000000000000e+00  0.0000000000000000e+00 0.0000000000000000e+00 0.0000000000000000e+00  0.0000000000000000e+00 0.0000000000000000e+00 0.0000000000000000e+00  0.0000000000000000e+00 0.0000000000000000e+00 0.0000000000000000e+00  0.0000000000000000e+00 0.0000000000000000e+00 0.0000000000000000e+00  0.0000000000000000e+00 0.0000000000000000e+00 0.0000000000000000e+00  0.0000000000000000e+00 0.0000000000000000e+00 0.0000000000000000e+00  0.0000000000000000e+00 0.0000000000000000e+00 0.0000000000000000e+00  0.0000000000000000e+00 0.0000000000000000e+00 0.0000000000000000e+00  0.0000000000000000e+00 0.0000000000000000e+00 0.0000000000000000e+00  0.0000000000000000e+00 0.0000000000000000e+00 0.0000000000000000e+00  4.7767855911099344e-07 4.7123172038206200e-05 0.0000000000000000e+00  8.6048565325599064e-06 -6.4681906189363397e-06 0.0000000000000000e+00  1.0898636769324838e-05 -1.1267592642885002e-05 0.0000000000000000e+00  1.5766062767839142e-05 -1.4008439612424329e-05 0.0000000000000000e+00  2.2117610439201478e-05 -1.6059885900532562e-05 0.0000000000000000e+00  2.6237007737920645e-05 -1.8452639486497853e-05 0.0000000000000000e+00  3.2599197160817502e-05 -2.3918591408402177e-05 0.0000000000000000e+00  3.6228432284358333e-05 -2.6158141180154965e-05 0.0000000000000000e+00  4.1030212219532127e-05 -3.1794152169604351e-05 0.0000000000000000e+00  4.8337923626045107e-05 -3.6426301216459652e-05 0.0000000000000000e+00  5.1236349824816611e-05 -4.3340139354320911e-05 0.0000000000000000e+00  5.8425874495302206e-05 -4.9563407907647018e-05 0.0000000000000000e+00  6.1918916740525844e-05 -5.6918443460273832e-05 0.0000000000000000e+00  6.8316043428367566e-05 -6.6467105492231581e-05 0.0000000000000000e+00  7.1184313953018911e-05 -7.4083483489814281e-05 0.0000000000000000e+00  7.5589610004942552e-05 -8.4329433571390025e-05 0.0000000000000000e+00  8.1364042159020187e-05 -9.3563732830941382e-05 0.0000000000000000e+00  8.3882409721026699e-05 -1.0517839211992368e-04 0.0000000000000000e+00  8.9368065062892156e-05 -1.1567276535267261e-04 0.0000000000000000e+00  9.1544217480263158e-05 -1.2818836611272073e-04 0.0000000000000000e+00  9.6187004849072078e-05 -1.4003968019283620e-04 0.0000000000000000e+00  9.8679384310554254e-05 -1.5302631711948807e-04 0.0000000000000000e+00  1.0339060686239673e-04 -1.6720753585160771e-04 0.0000000000000000e+00  1.0473849888689844e-04 -1.8037362690614885e-04 0.0000000000000000e+00  1.0747567845737476e-04 -1.9495577598628648e-04 0.0000000000000000e+00  1.1056440157170477e-04 -2.0905005252988540e-04 0.0000000000000000e+00  1.1238211858830551e-04 -2.2461860261436737e-04 0.0000000000000000e+00  1.1502348112097307e-04 -2.3941311207605127e-04 0.0000000000000000e+00  1.1655224775118139e-04 -2.5558547502153623e-04 0.0000000000000000e+00  1.1872293840945235e-04 -2.7096409441912725e-04 0.0000000000000000e+00  1.1995127488962314e-04 -2.8765215363574616e-04 0.0000000000000000e+00  1.2166810573319501e-04 -3.0350026709061498e-04 0.0000000000000000e+00  1.2259172384983933e-04 -3.2061374160937696e-04 0.0000000000000000e+00  1.2387020507537345e-04 -3.3682606199923900e-04 0.0000000000000000e+00  1.2447924118165051e-04 -3.5426814662999800e-04 0.0000000000000000e+00  1.2532771207177822e-04 -3.7076627748250433e-04 0.0000000000000000e+00  1.2562625840246272e-04 -3.8845719234595420e-04 0.0000000000000000e+00  1.2605339339203948e-04 -4.0515316147217792e-04 0.0000000000000000e+00  1.2604524379932150e-04 -4.2302047130435538e-04 0.0000000000000000e+00  1.2602500922800859e-04 -4.3989191552119453e-04 0.0000000000000000e+00  1.2558098433625348e-04 -4.5750334764500214e-04 0.0000000000000000e+00  1.2646082142938423e-04 -4.7522004404406776e-04 0.0000000000000000e+00  1.2437035365621898e-04 -4.9257654265409906e-04 0.0000000000000000e+00  1.2358919104324805e-04 -5.1033015932870293e-04 0.0000000000000000e+00  1.2291867713136396e-04 -5.2715271702731114e-04 0.0000000000000000e+00  1.2048328201178459e-04 -5.5199660852143769e-04 0.0000000000000000e+00  1.1419205210011233e-04 -5.6229124944171080e-04 0.0000000000000000e+00  9.0679085758704219e-05 -5.5882053487922535e-04 0.0000000000000000e+00  7.4325048255956852e-05 -5.3248353225753638e-04 0.0000000000000000e+00  7.5823902969181789e-05 -5.2172007222397402e-04 0.0000000000000000e+00  7.6274354097774968e-05 -5.0293413370647321e-04 0.0000000000000000e+00  7.7042275669913883e-05 -4.8547448888270277e-04 0.0000000000000000e+00  7.9063169121761339e-05 -4.6756431987735687e-04 0.0000000000000000e+00  7.8355671745065461e-05 -4.4984946859608050e-04 0.0000000000000000e+00  7.9153119137851676e-05 -4.3240682651024700e-04 0.0000000000000000e+00  7.9484253428570379e-05 -4.1386077772730335e-04 0.0000000000000000e+00  7.9378133752212605e-05 -3.9706249390687243e-04 0.0000000000000000e+00  7.9574315201585624e-05 -3.7859015347701462e-04 0.0000000000000000e+00  7.9091219420225769e-05 -3.6198133216138481e-04 0.0000000000000000e+00  7.9104539634982729e-05 -3.4373682301462973e-04 0.0000000000000000e+00  7.8260912482434582e-05 -3.2736818334793452e-04 0.0000000000000000e+00  7.8114894629634931e-05 -3.0942552306250097e-04 0.0000000000000000e+00  7.6908201170381802e-05 -2.9337803415187974e-04 0.0000000000000000e+00  7.6623954179630004e-05 -2.7582024822856100e-04 0.0000000000000000e+00  7.5048897970658664e-05 -2.6018480601559569e-04 0.0000000000000000e+00  7.4643204960805865e-05 -2.4310470928273951e-04 0.0000000000000000e+00  7.2694746545489306e-05 -2.2798600460030823e-04 0.0000000000000000e+00  7.2184335131047559e-05 -2.1148838233771725e-04 0.0000000000000000e+00  6.9874057253843785e-05 -1.9696002414704473e-04 0.0000000000000000e+00  6.9206841496545176e-05 -1.8130010983470195e-04 0.0000000000000000e+00  6.6761558623051035e-05 -1.6682043742788526e-04 0.0000000000000000e+00  6.5798198849759300e-05 -1.5355312307066736e-04 0.0000000000000000e+00  6.2776346269340305e-05 -1.3904407000096597e-04 0.0000000000000000e+00  6.0693077155404383e-05 -1.2597412871278701e-04 0.0000000000000000e+00  5.9332310129213597e-05 -1.1267836456441271e-04 0.0000000000000000e+00  5.6208563247918400e-05 -1.0093644509519163e-04 0.0000000000000000e+00  5.4727720760741841e-05 -8.8792423611327114e-05 0.0000000000000000e+00  5.1221895553925359e-05 -7.8158645169506774e-05 0.0000000000000000e+00  4.9523504595562918e-05 -6.7367618905274314e-05 0.0000000000000000e+00  4.6342053873865477e-05 -5.7530524922524318e-05 0.0000000000000000e+00  4.4046238995971815e-05 -4.9949475894195076e-05 0.0000000000000000e+00  4.0073507104239311e-05 -4.0127927196241508e-05 0.0000000000000000e+00  3.6828897977299629e-05 -3.2634449091232680e-05 0.0000000000000000e+00  3.4951927134479044e-05 -2.5135966996703538e-05 0.0000000000000000e+00  3.0329580667743622e-05 -1.9246165834351966e-05 0.0000000000000000e+00  2.8380603880644318e-05 -1.3494832738738929e-05 0.0000000000000000e+00  2.4430113801497822e-05 -8.6602399902287397e-06 0.0000000000000000e+00  2.1350519688388037e-05 -6.5004215837364042e-06 0.0000000000000000e+00  1.7355085998098663e-05 -1.5268973331410080e-06 0.0000000000000000e+00  1.3565284146294316e-05 9.2133942471620822e-07 0.0000000000000000e+00  1.2641755289098942e-05 3.2985425867729565e-06 0.0000000000000000e+00  5.4253269495827906e-06 3.3547703570625568e-06 0.0000000000000000e+00  7.8521216371061732e-06 -4.4419780213333616e-07 0.0000000000000000e+00  1.3009884163385826e-06 -4.7050192235889166e-05 0.0000000000000000e+00  7.1567077642140200e-06 -2.9019434109709478e-06 0.0000000000000000e+00  9.8423406847360573e-05 -5.3348274228186396e-04 0.0000000000000000e+00  1.0055564472240261e-04 -4.9942893036867349e-04 0.0000000000000000e+00  1.0199711152829892e-04 -4.4438265189104185e-04 0.0000000000000000e+00  1.1763593288283184e-05 -5.2231276415793763e-06 0.0000000000000000e+00  1.0189390992296820e-04 -4.0978140146743526e-04 0.0000000000000000e+00  1.9615381710576160e-05 -8.1944569993275015e-06 0.0000000000000000e+00  1.0156565784205201e-04 -3.7494294572256018e-04 0.0000000000000000e+00  3.2149263341319068e-05 -1.9879585276568896e-05 0.0000000000000000e+00  4.0595752156684213e-05 -3.1115170655077325e-05 0.0000000000000000e+00  1.0059835623486573e-04 -3.4053964495519369e-04 0.0000000000000000e+00  6.0020973172597877e-05 -7.0880524023983412e-05 0.0000000000000000e+00  9.6767955986701290e-05 -2.7363187689999943e-04 0.0000000000000000e+00  4.8749912578920136e-05 -4.3551255753061392e-05 0.0000000000000000e+00  6.6990721105288783e-05 -9.1412666276963612e-05 0.0000000000000000e+00  9.3913578773559915e-05 -2.4149352052991170e-04 0.0000000000000000e+00  9.8997074932566392e-05 -3.0671109306879446e-04 0.0000000000000000e+00  7.3469826908822988e-05 -1.1433281652295213e-04 0.0000000000000000e+00  9.0455665753359329e-05 -2.1048985710622354e-04 0.0000000000000000e+00  7.8926678173510617e-05 -1.3808863403953365e-04 0.0000000000000000e+00  8.6954114858066181e-05 -1.8128633151940030e-04 0.0000000000000000e+00  8.4331035158908868e-05 -1.5861064894026080e-04 0.0000000000000000e+00  5.5832128834018442e-05 -5.6422209375810034e-05 0.0000000000000000e+00  1.0259636208971157e-04 -4.7289656412025582e-04 0.0000000000000000e+00  2.6745458988787436e-05 -1.3622734349477771e-05 0.0000000000000000e+00  9.1219040163245907e-05 -5.1490638740702072e-04 0.0000000000000000e+00  7.6921918103162926e-06 -3.1085541403975942e-06 0.0000000000000000e+00  9.5750925596961255e-05 -3.9102105499693655e-04 0.0000000000000000e+00  9.5699839018962996e-05 -4.2607203148355626e-04 0.0000000000000000e+00  1.6821184359363635e-05 -9.7526432270222785e-06 0.0000000000000000e+00  3.9258997011314798e-05 -2.7968824492333358e-05 0.0000000000000000e+00  9.2224112170018530e-05 -2.8850732940740464e-04 0.0000000000000000e+00  9.5178942302993639e-05 -3.5629794227452869e-04 0.0000000000000000e+00  6.8404236314110401e-05 -8.3223281769012297e-05 0.0000000000000000e+00  8.9859785773130301e-05 -2.5578680132490984e-04 0.0000000000000000e+00  4.7998902025795498e-05 -4.0303146247809798e-05 0.0000000000000000e+00  7.5403705735462321e-05 -1.0497661904716046e-04 0.0000000000000000e+00  8.6908657054409513e-05 -2.2411188139874496e-04 0.0000000000000000e+00  9.3999521810424506e-05 -3.2207209299641608e-04 0.0000000000000000e+00  8.2889483484302790e-05 -1.2926833083643920e-04 0.0000000000000000e+00  8.3348867735130443e-05 -1.9370461871075185e-04 0.0000000000000000e+00  2.7354920178469635e-05 -5.6570328476100158e-06 0.0000000000000000e+00  2.5905069251215639e-05 -1.5772669614673202e-06 0.0000000000000000e+00  1.0500394687132572e-04 -5.4967994327127865e-04 0.0000000000000000e+00  8.9556246187496856e-06 -5.0429220070206434e-06 0.0000000000000000e+00  7.8846830