<?xml version="1.0"?>
<VTKFile type="UnstructuredGrid"  version="0.1"  >
<UnstructuredGrid>
<Piece  NumberOfPoints="1419" NumberOfCells="2698">
<Points>
<DataArray  type="Float64"  NumberOfComponents="3"  format="ascii">0 0 0  0 0.41 0  2.5 0 0  2.5 0.41 0  0.6000003902970131 0.1898159953223325 0  0.6000151677382033 0.2098086717814796 0  0.25 0.2 0  0.15 0.2 0  0.2489897948556636 0.21 0  0.2489897948556636 0.19 0  0.6000069744178586 0.1998123340037757 0  0 0.3807142857143437 0  0 0.3514285714286952 0  0 0.3221428571430699 0  0 0.29285714285744 0  0 0.2635714285718054 0  0 0.2342857142861561 0  0 0.2050000000005308 0  0 0.175714285714732 0  0 0.1464285714289574 0  0 0.1171428571431897 0  0 0.08785714285737878 0  0 0.05857142857161107 0  0 0.02928571428580012 0  0.03015443760436003 0 0  0.06140001986583606 0 0  0.09377624077125973 0 0  0.1273239957535082 0 0  0.1620856860351972 0 0  0.1981052433264291 0 0  0.235428184091502 0 0  0.2741016576309132 0 0  0.3141745521465447 0 0  0.3556974926295285 0 0  0.3987229542472677 0 0  0.4433053055141081 0 0  0.4895008759286886 0 0  0.5373680609405097 0 0  0.5869673343216626 0 0  0.6383613676634521 0 0  0.6916151138468254 0 0  0.7467958595648856 0 0  0.8039733463919316 0 0  0.8632198139502143 0 0  0.9246101326867038 0 0  0.9882218810934433 0 0  1.054135445558498 0 0  1.122434100542598 0 0  1.193204177141305 0 0  1.266535089879536 0 0  1.342519516046404 0 0  1.421253448503939 0 0  1.502836389106271 0 0  1.587371439758838 0 0  1.674965418777374 0 0  1.765729001825544 0 0  1.859776908880082 0 0  1.957227977487062 0 0  2.058205329869943 0 0  2.162836591189951 0 0  2.271253957290865 0 0  2.383594446803425 0 0  2.5 0.1024999999997612 0  2.5 0.2049999999994743 0  2.5 0.3074999999997183 0  2.383594446803656 0.41 0  2.271253957291315 0.41 0  2.162836591190598 0.41 0  2.058205329870775 0.41 0  1.957227977488067 0.41 0  1.859776908881246 0.41 0  1.765729001826854 0.41 0  1.674965418778818 0.41 0  1.58737143976041 0.41 0  1.502836389107956 0.41 0  1.421253448505726 0.41 0  1.342519516048286 0.41 0  1.266535089881505 0.41 0  1.193204177143353 0.41 0  1.122434100544716 0.41 0  1.05413544556068 0.41 0  0.9882218810956305 0.41 0  0.9246101326886647 0.41 0  0.8632198139519631 0.41 0  0.8039733463934788 0.41 0  0.7467958595662458 0.41 0  0.6916151138480078 0.41 0  0.6383613676644679 0.41 0  0.5869673343225223 0.41 0  0.5373680609412221 0.41 0  0.4895008759292634 0.41 0  0.4433053055145528 0.41 0  0.3987229542475914 0.41 0  0.3556974926297398 0.41 0  0.3141745521466497 0.41 0  0.2741016576310038 0.41 0  0.2354281840915826 0.41 0  0.1981052433265003 0.41 0  0.1620856860352591 0.41 0  0.1273239957535623 0.41 0  0.09377624077128965 0.41 0  0.06140001986584975 0.41 0  0.03015443760436654 0.41 0  0.2497468076502589 0.2050254481002335 0  0.2497468076502614 0.1949745518997913 0  0.2469965252529372 0.1829317073451959 0  0.2439893735792749 0.1762316384219906 0  0.2400332147834255 0.1700443375285386 0  0.2352133972704371 0.1645032867342007 0  0.2296339016332438 0.1597280261969788 0  0.2234150974217223 0.1558215752574715 0  0.2166911463437691 0.1528682099456123 0  0.2096071079204251 0.1509316448471593 0  0.2023158100364996 0.1500536585536553 0  0.194974551899914 0.1502531923497262 0  0.1877417105387872 0.1515259415822739 0  0.1807733240461124 0.153844448527136 0  0.1742197252835808 0.15715869474974 0  0.1682222986673531 0.1613971801805478 0  0.162910430003803 0.1664684656256651 0  0.1583987151779087 0.1722631454351573 0  0.1547844879126891 0.178656207771761 0  0.1521457199348551 0.1855097315605723 0  0.1505393388476355 0.1926758619366523 0  0.1505393388476328 0.2073241380633295 0  0.1521457199348437 0.2144902684393899 0  0.1547844879126531 0.221343792228163 0  0.1583987151778488 0.2277368545647528 0  0.1629104300036858 0.2335315343742052 0  0.1682222986671726 0.2386028198193036 0  0.1742197252833576 0.2428413052501257 0  0.1807733240458683 0.2461555514727623 0  0.1877417105384929 0.2484740584176516 0  0.1949745518995776 0.2497468076502398 0  0.202315810036185 0.2499463414463592 0  0.2096071079201568 0.2490683551528932 0  0.2166911463435495 0.2471317900544655 0  0.2234150974215506 0.2441784247426195 0  0.2296339016331197 0.2402719738031125 0  0.2352133972703547 0.2354967132658811 0  0.2400332147833751 0.2299556624715287 0  0.2439893735792577 0.2237683615780412 0  0.246996525252926 0.2170682926548348 0  0.2564601040281085 0.2099923147064418 0  0.2639296210435797 0.2099916856720871 0  0.2713999049961225 0.2099910973989246 0  0.2788703339304074 0.2099902402691928 0  0.2863407212487387 0.2099890901633298 0  0.2938110812590105 0.2099876850234413 0  0.3012813556158507 0.2099860644989545 0  0.3087515873780309 0.2099841703190168 0  0.3162217294134056 0.2099820745098922 0  0.323691760901178 0.2099797397694889 0  0.3311617473479755 0.2099772057813005 0  0.3386315967646829 0.2099744511389923 0  0.3461013867928209 0.2099715018400164 0  0.3535710483573359 0.2099683778008412 0  0.3610406457416359 0.2099650464059269 0  0.368510126086831 0.2099615617894452 0  0.375979490542981 0.2099578977954446 0  0.3834487851695019 0.2099540965847823 0  0.3909179475201578 0.209950133276067 0  0.3983870404084945 0.2099460474580289 0  0.4058560061838465 0.209941821806226 0  0.4133248911456996 0.2099374825188256 0  0.420793651674667 0.2099330390340637 0  0.428262344834015 0.209928477395909 0  0.4357309224596498 0.2099238291448532 0  0.4431993955124833 0.2099190837342874 0  0.450667780568893 0.2099142675407181 0  0.4581360571320963 0.2099093655281762 0  0.4656042446323465 0.2099044058018214 0  0.4730723260431483 0.209899373074986 0  0.4805403172836231 0.2098942948309591 0  0.4880082042492501 0.209889155165848 0  0.4954760001304097 0.2098839809606977 0  0.5029436932235075 0.2098787559747278 0  0.5104112938273949 0.2098735062185188 0  0.5178787930221529 0.2098682150540018 0  0.5253461984700173 0.2098629083837835 0  0.5328135031571541 0.2098575685915161 0  0.5402807123363442 0.209852221561393 0  0.5477478211044999 0.2098468491725171 0  0.5552148330271844 0.2098414726092201 0  0.5626817289818004 0.2098360891559594 0  0.570148550444869 0.209830697939494 0  0.5776152518265925 0.2098253139279681 0  0.5850818581447187 0.2098199356584407 0  0.5925484761885563 0.2098146047886194 0  0.6000107945702463 0.2048104546744116 0  0.6000034142179974 0.1948142093398692 0  0.5925336978102287 0.189821095360463 0  0.585067084036219 0.1898267986284005 0  0.5776004898151612 0.1898324551715963 0  0.5701338034877106 0.1898381017370741 0  0.5626670029349886 0.18984372891197 0  0.5552001315381314 0.1898493464278666 0  0.5477331498657846 0.1898549540166583 0  0.5402660801329644 0.1898605350864833 0  0.5327989232608922 0.1898661158138395 0  0.5253316735253648 0.1898716581333803 0  0.5178643416125394 0.1898771944348587 0  0.5103969170048615 0.1898826850680634 0  0.5029294139860503 0.1898881614956155 0  0.4954618179752955 0.1898935839643517 0  0.4879941471178751 0.1898989829490933 0  0.4805263824056658 0.1899043185160572 0  0.4730585464284757 0.1899096202731998 0  0.4655906152892709 0.1899148479548319 0  0.4581226165788548 0.1899200302670024 0  0.4506545211141422 0.1899251266269063 0  0.4431863616539431 0.1899301646346991 0  0.4357181043087843 0.1899351054818108 0  0.4282497836990901 0.1899399658066558 0  0.4207813679549517 0.1899447373385605 0  0.4133128919873058 0.1899493882803501 0  0.4058443271137203 0.1899539373246713 0  0.3983756757504857 0.1899583591525259 0  0.3909069630118494 0.1899626626504837 0  0.3834381553302219 0.1899668195215077 0  0.3759692897689139 0.1899708393225531 0  0.3685003286502129 0.1899746961265015 0  0.3610313054779085 0.1899783912353879 0  0.3535621977098101 0.1899819275372969 0  0.3460930308862757 0.1899852502417977 0  0.3386237831710284 0.1899883954848319 0  0.3311544499540486 0.1899913290683546 0  0.3236850742392187 0.1899940572774702 0  0.3162156054138338 0.1899965549980106 0  0.3087460935468522 0.1899988204282665 0  0.3012765160272879 0.1900008603826243 0  0.2938068957191878 0.1900026111214852 0  0.2863372284587205 0.190004117338864 0  0.2788674974997447 0.1900053534323269 0  0.2713978165915644 0.1900063600959477 0  0.263928220371735 0.1900071029348226 0  0.2564594200750963 0.1900071939986505 0  0.2607814615158107 0.2000724066361346 0  0.5887904188218315 0.1999478217597088 0  0.5745206972509009 0.2000355383455555 0  0.5512070949500796 0.1999605778971263 0  0.2751338254526671 0.1999984635745146 0  0.5365396845424523 0.1998591243480571 0  0.2894704165454535 0.1998654439326021 0  0.521605133133309 0.1998700134928616 0  0.3127923047345832 0.1998563701416461 0  0.3274231581657059 0.1999857435539734 0  0.5066702120606612 0.1998808029840877 0  0.3650850599310324 0.1998360026367532 0  0.4767992769187843 0.1999019425776082 0  0.3417588520615055 0.1998495462651642 0  0.3797088177349016 0.1999625262913802 0  0.4618632677279549 0.1999122120813097 0  0.4917349256923924 0.1998914587223362 0  0.3946467914392651 0.1999544003446689 0  0.4469268992180786 0.199922219936757 0  0.4089809626893505 0.1998153485480592 0  0.4322988748243313 0.2000590940995103 0  0.4201753210847636 0.1999359465149188 0  0.3529126543932002 0.1999941041907808 0  0.5633278335086676 0.1998208688286301 0  0.3006666806407486 0.1999903698659811 0  0.5816019129325234 0.1964816236391925 0  0.2677082236859739 0.1964266962987376 0  0.529070345094908 0.1969574186796404 0  0.544004695045717 0.1969464269931489 0  0.282520412207536 0.2035426153527732 0  0.3199543798142448 0.2028945861973888 0  0.4842651173578841 0.1969897485441182 0  0.5141356283615873 0.1969683243231241 0  0.3722411529088763 0.2028728817060657 0  0.4693293307166723 0.1970001912364968 0  0.3348938920535755 0.2028893655375786 0  0.3871794238533436 0.202865109004469 0  0.4543931935663071 0.1970103962975218 0  0.4992005509892423 0.196979112888827 0  0.4020336631586327 0.2034959073535574 0  0.4394567081054911 0.1970203144602521 0  0.2550654306352494 0.2034066729078118 0  0.25489035628127 0.1966960248624794 0  0.5946641411863611 0.20
[...]
<PointData  Vectors="f_46-0"> 
<DataArray  type="Float64"  Name="f_46-0"  NumberOfComponents="3" format="ascii">0.0000000000000000e+00 0.0000000000000000e+00 0.0000000000000000e+00  0.0000000000000000e+00 0.0000000000000000e+00 0.0000000000000000e+00  0.0000000000000000e+00 0.0000000000000000e+00 0.0000000000000000e+00  0.0000000000000000e+00 0.0000000000000000e+00 0.0000000000000000e+00  8.3855284656883218e-05 -5.4440932911695302e-04 0.0000000000000000e+00  1.3293922228762691e-04 -5.8047886877833567e-04 0.0000000000000000e+00  0.0000000000000000e+00 0.0000000000000000e+00 0.0000000000000000e+00  0.0000000000000000e+00 0.0000000000000000e+00 0.0000000000000000e+00  0.0000000000000000e+00 0.0000000000000000e+00 0.0000000000000000e+00  0.0000000000000000e+00 0.0000000000000000e+00 0.0000000000000000e+00  9.7003982230098329e-05 -5.6184652630113555e-04 0.0000000000000000e+00  1.1425820218837379e-01 0.0000000000000000e+00 0.0000000000000000e+00  2.1093821942470400e-01 0.0000000000000000e+00 0.0000000000000000e+00  2.9004005170896813e-01 0.0000000000000000e+00 0.0000000000000000e+00  3.5156369904125756e-01 0.0000000000000000e+00 0.0000000000000000e+00  3.9550916142156439e-01 0.0000000000000000e+00 0.0000000000000000e+00  4.2187643884988596e-01 0.0000000000000000e+00 0.0000000000000000e+00  4.3066553132619606e-01 0.0000000000000000e+00 0.0000000000000000e+00  4.2187643885041903e-01 0.0000000000000000e+00 0.0000000000000000e+00  3.9550916142248010e-01 0.0000000000000000e+00 0.0000000000000000e+00  3.5156369904239154e-01 0.0000000000000000e+00 0.0000000000000000e+00  2.9004005171004543e-01 0.0000000000000000e+00 0.0000000000000000e+00  2.1093821942562332e-01 0.0000000000000000e+00 0.0000000000000000e+00  1.1425820218889174e-01 0.0000000000000000e+00 0.0000000000000000e+00  0.0000000000000000e+00 0.0000000000000000e+00 0.0000000000000000e+00  0.0000000000000000e+00 0.0000000000000000e+00 0.0000000000000000e+00  0.0000000000000000e+00 0.0000000000000000e+00 0.0000000000000000e+00  0.0000000000000000e+00 0.0000000000000000e+00 0.0000000000000000e+00  0.0000000000000000e+00 0.0000000000000000e+00 0.0000000000000000e+00  0.0000000000000000e+00 0.0000000000000000e+00 0.0000000000000000e+00  0.0000000000000000e+00 0.0000000000000000e+00 0.0000000000000000e+00  0.0000000000000000e+00 0.0000000000000000e+00 0.0000000000000000e+00  0.0000000000000000e+00 0.0000000000000000e+00 0.0000000000000000e+00  0.0000000000000000e+00 0.0000000000000000e+00 0.0000000000000000e+00  0.0000000000000000e+00 0.0000000000000000e+00 0.0000000000000000e+00  0.0000000000000000e+00 0.0000000000000000e+00 0.0000000000000000e+00  0.0000000000000000e+00 0.0000000000000000e+00 0.0000000000000000e+00  0.0000000000000000e+00 0.0000000000000000e+00 0.0000000000000000e+00  0.0000000000000000e+00 0.0000000000000000e+00 0.0000000000000000e+00  0.0000000000000000e+00 0.0000000000000000e+00 0.0000000000000000e+00  0.0000000000000000e+00 0.0000000000000000e+00 0.0000000000000000e+00  0.0000000000000000e+00 0.0000000000000000e+00 0.0000000000000000e+00  0.0000000000000000e+00 0.0000000000000000e+00 0.0000000000000000e+00  0.0000000000000000e+00 0.0000000000000000e+00 0.0000000000000000e+00  0.0000000000000000e+00 0.0000000000000000e+00 0.0000000000000000e+00  0.0000000000000000e+00 0.0000000000000000e+00 0.0000000000000000e+00  0.0000000000000000e+00 0.0000000000000000e+00 0.0000000000000000e+00  0.0000000000000000e+00 0.0000000000000000e+00 0.0000000000000000e+00  0.0000000000000000e+00 0.0000000000000000e+00 0.0000000000000000e+00  0.0000000000000000e+00 0.0000000000000000e+00 0.0000000000000000e+00  0.0000000000000000e+00 0.0000000000000000e+00 0.0000000000000000e+00  0.0000000000000000e+00 0.0000000000000000e+00 0.0000000000000000e+00  0.0000000000000000e+00 0.0000000000000000e+00 0.0000000000000000e+00  0.0000000000000000e+00 0.0000000000000000e+00 0.0000000000000000e+00  0.0000000000000000e+00 0.0000000000000000e+00 0.0000000000000000e+00  0.0000000000000000e+00 0.0000000000000000e+00 0.0000000000000000e+00  0.0000000000000000e+00 0.0000000000000000e+00 0.0000000000000000e+00  0.0000000000000000e+00 0.0000000000000000e+00 0.0000000000000000e+00  0.0000000000000000e+00 0.0000000000000000e+00 0.0000000000000000e+00  0.0000000000000000e+00 0.0000000000000000e+00 0.0000000000000000e+00  0.0000000000000000e+00 0.0000000000000000e+00 0.0000000000000000e+00  0.0000000000000000e+00 0.0000000000000000e+00 0.0000000000000000e+00  2.9578107640368156e-01 9.1674068501308818e-03 0.0000000000000000e+00  3.1391474369008904e-01 1.2951817761231318e-03 0.0000000000000000e+00  2.9256933380481781e-01 -1.0502407506310412e-02 0.0000000000000000e+00  0.0000000000000000e+00 0.0000000000000000e+00 0.0000000000000000e+00  0.0000000000000000e+00 0.0000000000000000e+00 0.0000000000000000e+00  0.0000000000000000e+00 0.0000000000000000e+00 0.0000000000000000e+00  0.0000000000000000e+00 0.0000000000000000e+00 0.0000000000000000e+00  0.0000000000000000e+00 0.0000000000000000e+00 0.0000000000000000e+00  0.0000000000000000e+00 0.0000000000000000e+00 0.0000000000000000e+00  0.0000000000000000e+00 0.0000000000000000e+00 0.0000000000000000e+00  0.0000000000000000e+00 0.0000000000000000e+00 0.0000000000000000e+00  0.0000000000000000e+00 0.0000000000000000e+00 0.0000000000000000e+00  0.0000000000000000e+00 0.0000000000000000e+00 0.0000000000000000e+00  0.0000000000000000e+00 0.0000000000000000e+00 0.0000000000000000e+00  0.0000000000000000e+00 0.0000000000000000e+00 0.0000000000000000e+00  0.0000000000000000e+00 0.0000000000000000e+00 0.0000000000000000e+00  0.0000000000000000e+00 0.0000000000000000e+00 0.0000000000000000e+00  0.0000000000000000e+00 0.0000000000000000e+00 0.0000000000000000e+00  0.0000000000000000e+00 0.0000000000000000e+00 0.0000000000000000e+00  0.0000000000000000e+00 0.0000000000000000e+00 0.0000000000000000e+00  0.0000000000000000e+00 0.0000000000000000e+00 0.0000000000000000e+00  0.0000000000000000e+00 0.0000000000000000e+00 0.0000000000000000e+00  0.0000000000000000e+00 0.0000000000000000e+00 0.0000000000000000e+00  0.0000000000000000e+00 0.0000000000000000e+00 0.0000000000000000e+00  0.0000000000000000e+00 0.0000000000000000e+00 0.0000000000000000e+00  0.0000000000000000e+00 0.0000000000000000e+00 0.0000000000000000e+00  0.0000000000000000e+00 0.0000000000000000e+00 0.0000000000000000e+00  0.0000000000000000e+00 0.0000000000000000e+00 0.0000000000000000e+00  0.0000000000000000e+00 0.0000000000000000e+00 0.0000000000000000e+00  0.0000000000000000e+00 0.0000000000000000e+00 0.0000000000000000e+00  0.0000000000000000e+00 0.0000000000000000e+00 0.0000000000000000e+00  0.0000000000000000e+00 0.0000000000000000e+00 0.0000000000000000e+00  0.0000000000000000e+00 0.0000000000000000e+00 0.0000000000000000e+00  0.0000000000000000e+00 0.0000000000000000e+00 0.0000000000000000e+00  0.0000000000000000e+00 0.0000000000000000e+00 0.0000000000000000e+00  0.0000000000000000e+00 0.0000000000000000e+00 0.0000000000000000e+00  0.0000000000000000e+00 0.0000000000000000e+00 0.0000000000000000e+00  0.0000000000000000e+00 0.0000000000000000e+00 0.0000000000000000e+00  0.0000000000000000e+00 0.0000000000000000e+00 0.0000000000000000e+00  0.0000000000000000e+00 0.0000000000000000e+00 0.0000000000000000e+00  0.0000000000000000e+00 0.0000000000000000e+00 0.0000000000000000e+00  0.0000000000000000e+00 0.0000000000000000e+00 0.0000000000000000e+00  0.0000000000000000e+00 0.0000000000000000e+00 0.0000000000000000e+00  0.0000000000000000e+00 0.0000000000000000e+00 0.0000000000000000e+00  0.0000000000000000e+00 0.0000000000000000e+00 0.0000000000000000e+00  0.0000000000000000e+00 0.0000000000000000e+00 0.0000000000000000e+00  0.0000000000000000e+00 0.0000000000000000e+00 0.0000000000000000e+00  0.0000000000000000e+00 0.0000000000000000e+00 0.0000000000000000e+00  0.0000000000000000e+00 0.0000000000000000e+00 0.0000000000000000e+00  0.0000000000000000e+00 0.0000000000000000e+00 0.0000000000000000e+00  0.0000000000000000e+00 0.0000000000000000e+00 0.0000000000000000e+00  0.0000000000000000e+00 0.0000000000000000e+00 0.0000000000000000e+00  0.0000000000000000e+00 0.0000000000000000e+00 0.0000000000000000e+00  0.0000000000000000e+00 0.0000000000000000e+00 0.0000000000000000e+00  0.0000000000000000e+00 0.0000000000000000e+00 0.0000000000000000e+00  0.0000000000000000e+00 0.0000000000000000e+00 0.0000000000000000e+00  0.0000000000000000e+00 0.0000000000000000e+00 0.0000000000000000e+00  0.0000000000000000e+00 0.0000000000000000e+00 0.0000000000000000e+00  0.0000000000000000e+00 0.0000000000000000e+00 0.0000000000000000e+00  0.0000000000000000e+00 0.0000000000000000e+00 0.0000000000000000e+00  0.0000000000000000e+00 0.0000000000000000e+00 0.0000000000000000e+00  0.0000000000000000e+00 0.0000000000000000e+00 0.0000000000000000e+00  0.0000000000000000e+00 0.0000000000000000e+00 0.0000000000000000e+00  0.0000000000000000e+00 0.0000000000000000e+00 0.0000000000000000e+00  0.0000000000000000e+00 0.0000000000000000e+00 0.0000000000000000e+00  0.0000000000000000e+00 0.0000000000000000e+00 0.0000000000000000e+00  0.0000000000000000e+00 0.0000000000000000e+00 0.0000000000000000e+00  0.0000000000000000e+00 0.0000000000000000e+00 0.0000000000000000e+00  0.0000000000000000e+00 0.0000000000000000e+00 0.0000000000000000e+00  0.0000000000000000e+00 0.0000000000000000e+00 0.0000000000000000e+00  0.0000000000000000e+00 0.0000000000000000e+00 0.0000000000000000e+00  0.0000000000000000e+00 0.0000000000000000e+00 0.0000000000000000e+00  0.0000000000000000e+00 0.0000000000000000e+00 0.0000000000000000e+00  0.0000000000000000e+00 0.0000000000000000e+00 0.0000000000000000e+00  0.0000000000000000e+00 0.0000000000000000e+00 0.0000000000000000e+00  0.0000000000000000e+00 0.0000000000000000e+00 0.0000000000000000e+00  0.0000000000000000e+00 0.0000000000000000e+00 0.0000000000000000e+00  0.0000000000000000e+00 0.0000000000000000e+00 0.0000000000000000e+00  0.0000000000000000e+00 0.0000000000000000e+00 0.0000000000000000e+00  0.0000000000000000e+00 0.0000000000000000e+00 0.0000000000000000e+00  0.0000000000000000e+00 0.0000000000000000e+00 0.0000000000000000e+00  6.0561392226561997e-07 4.6299328103103312e-05 0.0000000000000000e+00  8.7496403634008508e-06 -6.7772865852132442e-06 0.0000000000000000e+00  1.1123192566484443e-05 -1.1576965634150664e-05 0.0000000000000000e+00  1.6078337601841228e-05 -1.4371591938182014e-05 0.0000000000000000e+00  2.2442488010282131e-05 -1.6471024150510014e-05 0.0000000000000000e+00  2.6613688386300688e-05 -1.8943662542314344e-05 0.0000000000000000e+00  3.2994981421678642e-05 -2.4415163948479181e-05 0.0000000000000000e+00  3.6651042967856438e-05 -2.6775467894061705e-05 0.0000000000000000e+00  4.1474052578282965e-05 -3.2454619355216356e-05 0.0000000000000000e+00  4.8697518905496735e-05 -3.7153222223422296e-05 0.0000000000000000e+00  5.1642229699355237e-05 -4.4116772931213522e-05 0.0000000000000000e+00  5.8726897079214264e-05 -5.0394286351993887e-05 0.0000000000000000e+00  6.2215126562021659e-05 -5.7809886107044465e-05 0.0000000000000000e+00  6.8534189961025417e-05 -6.7351028292590248e-05 0.0000000000000000e+00  7.1393751572746786e-05 -7.5056040096241886e-05 0.0000000000000000e+00  7.5759770589341622e-05 -8.5316038868758494e-05 0.0000000000000000e+00  8.1422099049196370e-05 -9.4597347853656431e-05 0.0000000000000000e+00  8.3948488924200595e-05 -1.0622386672093306e-04 0.0000000000000000e+00  8.9318396120942770e-05 -1.1675402908111405e-04 0.0000000000000000e+00  9.1498558957355929e-05 -1.2928218258504481e-04 0.0000000000000000e+00  9.6043865821637193e-05 -1.4115733496861116e-04 0.0000000000000000e+00  9.8510934205262170e-05 -1.5416201718850399e-04 0.0000000000000000e+00  1.0313320831325039e-04 -1.6832202542658553e-04 0.0000000000000000e+00  1.0447294647765699e-04 -1.8153272597453516e-04 0.0000000000000000e+00  1.0716483125512838e-04 -1.9611761645867219e-04 0.0000000000000000e+00  1.1018342987263594e-04 -2.1023448218373617e-04 0.0000000000000000e+00  1.1197718882906716e-04 -2.2580494804858465e-04 0.0000000000000000e+00  1.1455181854353655e-04 -2.4062196319241661e-04 0.0000000000000000e+00  1.1605420019616060e-04 -2.5679947136205848e-04 0.0000000000000000e+00  1.1816291879681878e-04 -2.7220331395787922e-04 0.0000000000000000e+00  1.1936231723616396e-04 -2.8890016131677247e-04 0.0000000000000000e+00  1.2102101908372252e-04 -3.0477731954277879e-04 0.0000000000000000e+00  1.2191294684293943e-04 -3.2190372826547956e-04 0.0000000000000000e+00  1.2313633856648865e-04 -3.3814932509033425e-04 0.0000000000000000e+00  1.2371081157034740e-04 -3.5560859095128740e-04 0.0000000000000000e+00  1.2450657603581849e-04 -3.7214412293623013e-04 0.0000000000000000e+00  1.2476760316932183e-04 -3.8985603526753233e-04 0.0000000000000000e+00  1.2514384052168728e-04 -4.0659311939776496e-04 0.0000000000000000e+00  1.2509513345512703e-04 -4.2448455300981192e-04 0.0000000000000000e+00  1.2502589772096681e-04 -4.4139916922270468e-04 0.0000000000000000e+00  1.2454069802843849e-04 -4.5904342731969597e-04 0.0000000000000000e+00  1.2534435491907663e-04 -4.7679080938933409e-04 0.0000000000000000e+00  1.2323937368771971e-04 -4.9418808776620251e-04 0.0000000000000000e+00  1.2240770744694464e-04 -5.1197504312792692e-04 0.0000000000000000e+00  1.2168590030394203e-04 -5.2884576550254754e-04 0.0000000000000000e+00  1.1922582253705665e-04 -5.5362687798230490e-04 0.0000000000000000e+00  1.1275407635364090e-04 -5.6400376011004575e-04 0.0000000000000000e+00  8.9189390391448365e-05 -5.6046286952019994e-04 0.0000000000000000e+00  7.2947110316215531e-05 -5.3415119036530183e-04 0.0000000000000000e+00  7.4484764891624485e-05 -5.2324823979740386e-04 0.0000000000000000e+00  7.4990331270306649e-05 -5.0443791117983281e-04 0.0000000000000000e+00  7.5811490023301690e-05 -4.8693311811817046e-04 0.0000000000000000e+00  7.7853588564522424e-05 -4.6898430579324780e-04 0.0000000000000000e+00  7.7220749994184158e-05 -4.5123112862869110e-04 0.0000000000000000e+00  7.8060637195725134e-05 -4.3374579975052061e-04 0.0000000000000000e+00  7.8435960410282841e-05 -4.1517707115441773e-04 0.0000000000000000e+00  7.8387547153950965e-05 -3.9833077397755670e-04 0.0000000000000000e+00  7.8623081701297985e-05 -3.7983935801475123e-04 0.0000000000000000e+00  7.8202070568338060e-05 -3.6318582624517620e-04 0.0000000000000000e+00  7.8250944607039565e-05 -3.4492544760547834e-04 0.0000000000000000e+00  7.7473849917942010e-05 -3.2851639175577230e-04 0.0000000000000000e+00  7.7358918519670520e-05 -3.1056171943631288e-04 0.0000000000000000e+00  7.6223585893429237e-05 -2.9447840685596752e-04 0.0000000000000000e+00  7.5965273682508604e-05 -2.7691275275780686e-04 0.0000000000000000e+00  7.4466690873915126e-05 -2.6124593823803876e-04 0.0000000000000000e+00  7.4081171453731974e-05 -2.4416189525432858e-04 0.0000000000000000e+00  7.2214442688490517e-05 -2.2901559590084264e-04 0.0000000000000000e+00  7.1718004622367722e-05 -2.1251715012571100e-04 0.0000000000000000e+00  6.9493684479393555e-05 -1.9796443006027598e-04 0.0000000000000000e+00  6.8837890735547948e-05 -1.8230160141335198e-04 0.0000000000000000e+00  6.6463491385760306e-05 -1.6781444338462807e-04 0.0000000000000000e+00  6.5536947638673672e-05 -1.5450026136791580e-04 0.0000000000000000e+00  6.2582415506386545e-05 -1.4001057125574226e-04 0.0000000000000000e+00  6.0552096144201872e-05 -1.2692109725865740e-04 0.0000000000000000e+00  5.9204015333079523e-05 -1.1361773252874721e-04 0.0000000000000000e+00  5.6159892293638956e-05 -1.0184768261123970e-04 0.0000000000000000e+00  5.4685872551357213e-05 -8.9686272117373537e-05 0.0000000000000000e+00  5.1260980542534057e-05 -7.9017128677896266e-05 0.0000000000000000e+00  4.9565893707992936e-05 -6.8193621465715534e-05 0.0000000000000000e+00  4.6437886113705011e-05 -5.8319591992547995e-05 0.0000000000000000e+00  4.4170824279574683e-05 -5.0637395423639209e-05 0.0000000000000000e+00  4.0246942516909328e-05 -4.0809546231633291e-05 0.0000000000000000e+00  3.7036273379906517e-05 -3.3247187061360849e-05 0.0000000000000000e+00  3.5134891425576515e-05 -2.5685123163866098e-05 0.0000000000000000e+00  3.0570179109835958e-05 -1.9715730550426590e-05 0.0000000000000000e+00  2.8582133147015140e-05 -1.3878654816349389e-05 0.0000000000000000e+00  2.4647252150651124e-05 -8.9605839793505986e-06 0.0000000000000000e+00  2.1554794947945047e-05 -6.6613243031261027e-06 0.0000000000000000e+00  1.7544287031035418e-05 -1.6416383197744298e-06 0.0000000000000000e+00  1.3733595908753651e-05 8.9829483437149228e-07 0.0000000000000000e+00  1.2725673719510841e-05 3.3599180745883211e-06 0.0000000000000000e+00  5.5321092483982838e-06 3.4983386607643203e-06 0.0000000000000000e+00  7.8481830406388610e-06 -1.8538559531740082e-07 0.0000000000000000e+00  1.3460991517250720e-06 -4.6287048858515309e-05 0.0000000000000000e+00  7.1664578409522000e-06 -2.8993079860674457e-06 0.0000000000000000e+00  9.7118780396914734e-05 -5.3511000262780573e-04 0.0000000000000000e+00  9.9344934078658689e-05 -5.0098786248153025e-04 0.0000000000000000e+00  1.0093889279832693e-04 -4.4582160298440985e-04 0.0000000000000000e+00  1.1928404367526388e-05 -5.3123277600066465e-06 0.0000000000000000e+00  1.0093085288875804e-04 -4.1115031963368068e-04 0.0000000000000000e+00  1.9861918299408775e-05 -8.4380396681736357e-06 0.0000000000000000e+00  1.0069708009776193e-04 -3.7624632569288201e-04 0.0000000000000000e+00  3.2465382514536351e-05 -2.0365719931479641e-05 0.0000000000000000e+00  4.0890166033301884e-05 -3.1729576121365919e-05 0.0000000000000000e+00  9.9823944990377463e-05 -3.4178436654476956e-04 0.0000000000000000e+00  6.0155305086800979e-05 -7.1771264782679575e-05 0.0000000000000000e+00  9.6181726437611528e-05 -2.7478435342548715e-04 0.0000000000000000e+00  4.8985455351382454e-05 -4.4303356262565075e-05 0.0000000000000000e+00  6.7031288325701234e-05 -9.2357334216538569e-05 0.0000000000000000e+00  9.3421810553999068e-05 -2.4261213153274676e-04 0.0000000000000000e+00  9.8316713836534952e-05 -3.0790539763360722e-04 0.0000000000000000e+00  7.3407651915105920e-05 -1.1532594237796647e-04 0.0000000000000000e+00  9.0058246244904767e-05 -2.1158111509348955e-04 0.0000000000000000e+00  7.8767073899352336e-05 -1.3912572190438242e-04 0.0000000000000000e+00  8.6643635309986345e-05 -1.8236413329348640e-04 0.0000000000000000e+00  8.4072747860201370e-05 -1.5965678582571637e-04 0.0000000000000000e+00  5.6000224778482929e-05 -5.7231517876077486e-05 0.0000000000000000e+00  1.0142594968074874e-04 -4.7439535789873372e-04 0.0000000000000000e+00  2.7032495562045540e-05 -1.3970313469579057e-05 0.0000000000000000e+00  8.9942782450436041e-05 -5.1647711140486818e-04 0.0000000000000000e+00  7.7766664454203339e-06 -3.0344004844110576e-06 0.0000000000000000e+00  9.4809531954868657e-05 -3.9233274282292785e-04 0.0000000000000000e+00  9.4662346173954895e-05 -4.2745338196258575e-04 0.0000000000000000e+00  1.7070829324078511e-05 -9.9846847602421050e-06 0.0000000000000000e+00  3.9585066849049552e-05 -2.8549844022344342e-05 0.0000000000000000e+00  9.1570380891571043e-05 -2.8965447309982036e-04 0.0000000000000000e+00  9.4333502626250130e-05 -3.5754676497119602e-04 0.0000000000000000e+00  6.8487635838161917e-05 -8.4159967577135389e-05 0.0000000000000000e+00  8.9301914775706401e-05 -2.5689578397834750e-04 0.0000000000000000e+00  4.8289897024513410e-05 -4.1012754243515388e-05 0.0000000000000000e+00  7.5391371706710113e-05 -1.0596767021693476e-04 0.0000000000000000e+00  8.6446848589779221e-05 -2.2518996253809647e-04 0.0000000000000000e+00  9.3249960241888419e-05 -3.2326580934810946e-04 0.0000000000000000e+00  8.2778141471025378e-05 -1.3030655513225799e-04 0.0000000000000000e+00  8.2984531126966047e-05 -1.9475706349408975e-04 0.0000000000000000e+00  2.7085278767693156e-05 -5.6936095022832232e-06 0.0000000000000000e+00  2.5626455808743158e-05 -1.4695781779085720e-06 0.0000000000000000e+00  1.0363734395203963e-04 -5.5133182388318169e-04 0.0000000000000000e+00  9.0929131071001329e-06 -5.1908139007235274e-06 0.0000000000000000e+00  7.8553439