<?xml version="1.0"?>
<VTKFile type="UnstructuredGrid"  version="0.1"  >
<UnstructuredGrid>
<Piece  NumberOfPoints="1419" NumberOfCells="2698">
<Points>
<DataArray  type="Float64"  NumberOfComponents="3"  format="ascii">0 0 0  0 0.41 0  2.5 0 0  2.5 0.41 0  0.6037785239450768 0.1825999010323131 0  0.6008642046158557 0.2169834987658825 0  0.25 0.2 0  0.15 0.2 0  0.2489897948556636 0.21 0  0.2489897948556636 0.19 0  0.5999917720092635 0.1998309854728043 0  0 0.3807142857143437 0  0 0.3514285714286952 0  0 0.3221428571430699 0  0 0.29285714285744 0  0 0.2635714285718054 0  0 0.2342857142861561 0  0 0.2050000000005308 0  0 0.175714285714732 0  0 0.1464285714289574 0  0 0.1171428571431897 0  0 0.08785714285737878 0  0 0.05857142857161107 0  0 0.02928571428580012 0  0.03015443760436003 0 0  0.06140001986583606 0 0  0.09377624077125973 0 0  0.1273239957535082 0 0  0.1620856860351972 0 0  0.1981052433264291 0 0  0.235428184091502 0 0  0.2741016576309132 0 0  0.3141745521465447 0 0  0.3556974926295285 0 0  0.3987229542472677 0 0  0.4433053055141081 0 0  0.4895008759286886 0 0  0.5373680609405097 0 0  0.5869673343216626 0 0  0.6383613676634521 0 0  0.6916151138468254 0 0  0.7467958595648856 0 0  0.8039733463919316 0 0  0.8632198139502143 0 0  0.9246101326867038 0 0  0.9882218810934433 0 0  1.054135445558498 0 0  1.122434100542598 0 0  1.193204177141305 0 0  1.266535089879536 0 0  1.342519516046404 0 0  1.421253448503939 0 0  1.502836389106271 0 0  1.587371439758838 0 0  1.674965418777374 0 0  1.765729001825544 0 0  1.859776908880082 0 0  1.957227977487062 0 0  2.058205329869943 0 0  2.162836591189951 0 0  2.271253957290865 0 0  2.383594446803425 0 0  2.5 0.1024999999997612 0  2.5 0.2049999999994743 0  2.5 0.3074999999997183 0  2.383594446803656 0.41 0  2.271253957291315 0.41 0  2.162836591190598 0.41 0  2.058205329870775 0.41 0  1.957227977488067 0.41 0  1.859776908881246 0.41 0  1.765729001826854 0.41 0  1.674965418778818 0.41 0  1.58737143976041 0.41 0  1.502836389107956 0.41 0  1.421253448505726 0.41 0  1.342519516048286 0.41 0  1.266535089881505 0.41 0  1.193204177143353 0.41 0  1.122434100544716 0.41 0  1.05413544556068 0.41 0  0.9882218810956305 0.41 0  0.9246101326886647 0.41 0  0.8632198139519631 0.41 0  0.8039733463934788 0.41 0  0.7467958595662458 0.41 0  0.6916151138480078 0.41 0  0.6383613676644679 0.41 0  0.5869673343225223 0.41 0  0.5373680609412221 0.41 0  0.4895008759292634 0.41 0  0.4433053055145528 0.41 0  0.3987229542475914 0.41 0  0.3556974926297398 0.41 0  0.3141745521466497 0.41 0  0.2741016576310038 0.41 0  0.2354281840915826 0.41 0  0.1981052433265003 0.41 0  0.1620856860352591 0.41 0  0.1273239957535623 0.41 0  0.09377624077128965 0.41 0  0.06140001986584975 0.41 0  0.03015443760436654 0.41 0  0.2497468076502589 0.2050254481002335 0  0.2497468076502614 0.1949745518997913 0  0.2469965252529372 0.1829317073451959 0  0.2439893735792749 0.1762316384219906 0  0.2400332147834255 0.1700443375285386 0  0.2352133972704371 0.1645032867342007 0  0.2296339016332438 0.1597280261969788 0  0.2234150974217223 0.1558215752574715 0  0.2166911463437691 0.1528682099456123 0  0.2096071079204251 0.1509316448471593 0  0.2023158100364996 0.1500536585536553 0  0.194974551899914 0.1502531923497262 0  0.1877417105387872 0.1515259415822739 0  0.1807733240461124 0.153844448527136 0  0.1742197252835808 0.15715869474974 0  0.1682222986673531 0.1613971801805478 0  0.162910430003803 0.1664684656256651 0  0.1583987151779087 0.1722631454351573 0  0.1547844879126891 0.178656207771761 0  0.1521457199348551 0.1855097315605723 0  0.1505393388476355 0.1926758619366523 0  0.1505393388476328 0.2073241380633295 0  0.1521457199348437 0.2144902684393899 0  0.1547844879126531 0.221343792228163 0  0.1583987151778488 0.2277368545647528 0  0.1629104300036858 0.2335315343742052 0  0.1682222986671726 0.2386028198193036 0  0.1742197252833576 0.2428413052501257 0  0.1807733240458683 0.2461555514727623 0  0.1877417105384929 0.2484740584176516 0  0.1949745518995776 0.2497468076502398 0  0.202315810036185 0.2499463414463592 0  0.2096071079201568 0.2490683551528932 0  0.2166911463435495 0.2471317900544655 0  0.2234150974215506 0.2441784247426195 0  0.2296339016331197 0.2402719738031125 0  0.2352133972703547 0.2354967132658811 0  0.2400332147833751 0.2299556624715287 0  0.2439893735792577 0.2237683615780412 0  0.246996525252926 0.2170682926548348 0  0.2540549253111284 0.2294248489648985 0  0.26158705717028 0.212985366177644 0  0.2817931515889779 0.2089446946438065 0  0.2495164880032489 0.1970628993018288 0  0.2993736167936499 0.211135485927134 0  0.2765427713090712 0.235975286792787 0  0.4684314640935394 0.1321065891684184 0  0.2854160035848055 0.2755992570865328 0  0.2917038119859022 0.0009099460105435166 0  0.3261589954642828 0.1670888302750483 0  0.3369707598788593 0.2167956607907174 0  0.3383778158579744 0.2332054186677294 0  0.3312106512190899 0.2168797745286368 0  0.3600010106537344 0.2180057407218908 0  0.3561298725551073 0.1898163760004251 0  0.3734972009461539 0.1617041171970334 0  0.3500051437490605 0.205390404643081 0  0.3936024771701712 0.2238504278690448 0  0.3830388918793052 0.2165446944366023 0  0.3876644725659211 0.2394572511629926 0  0.3853729254152261 0.2556511696541944 0  0.4004285714153235 0.273023493316194 0  0.4834633357230733 0.07866013308440058 0  0.4224157808288234 0.2508391381242345 0  0.3197442794031453 0.4391614655815693 0  0.4455044399093183 0.2259444201068463 0  0.4259125557351374 0.2776702102170867 0  0.7646693553325419 -0.4151578201623692 0  0.4860612602148858 0.1692854511595798 0  0.6114118232190214 0.01631623145457928 0  0.4284504045447549 0.3252062228636049 0  0.3414408264414082 0.5133878468129516 0  0.5097710644224526 0.1903278410814013 0  0.574527841146939 0.04640486684186067 0  0.2863389158179108 0.7262115263280552 0  0.4166553678811858 0.4438496610196771 0  0.4999554447127088 0.2608226732832297 0  0.5168419631578915 0.2482916073067611 0  0.530445220136705 0.2376996679357636 0  0.5332477042570398 0.2796984861507577 0  0.5605252631847027 0.1785909499760264 0  0.5626155227779835 0.2191489911511212 0  0.573786399492864 0.2380421631882261 0  0.5649747204738946 0.191800908527815 0  0.5923730429327232 0.2182546663798688 0  0.5887204245315868 0.221119114768528 0  0.596160064752714 0.2133466530676003 0  0.6011241372750236 0.1884039778383057 0  0.5939294922642665 0.1843764674873772 0  0.5753114973009661 0.2080489135728136 0  0.5961174447253946 0.1628471826530143 0  0.5546803520452674 0.2140621262059096 0  0.5759994761324859 0.1762235487529285 0  0.5617704061293842 0.1804601745625802 0  0.5087094526652333 0.2043949322263953 0  0.5202749507029101 0.1928482138576636 0  0.5367863617779245 0.1847852684312346 0  0.5258301481952384 0.1876009001368451 0  0.511532903531539 0.2219346957710684 0  0.5120623574188109 0.1885822190194927 0  0.5004703913811986 0.1856062229728629 0  0.4945025568531987 0.192672264521342 0  0.4772890154581104 0.1991720222305061 0  0.4682171694844692 0.1902148122459808 0  0.4858863589660714 0.1955888224241684 0  0.4590977285850595 0.1867491699747353 0  0.4584674851160923 0.199326803080742 0  0.4485143939074341 0.1640625179359001 0  0.431397842778769 0.1900179163781849 0  0.4488959861823934 0.2212912589352117 0  0.441682455223802 0.2082705283431809 0  0.4141705055931556 0.190884158092563 0  0.423744160971226 0.196747783375648 0  0.4087408901617663 0.1553861211234416 0  0.3829711844494531 0.2010825193848261 0  0.3903646782084284 0.138759857547866 0  0.3903319043138849 0.2596359129411216 0  0.376984638273927 0.1803043663599886 0  0.3742841003960929 0.1799356089007726 0  0.3631040781077745 0.2161860822500737 0  0.3354171259785034 0.1430057576805459 0  0.3475955409148855 0.3505848538513164 0  0.3180358898060226 -0.002634633762940585 0  0.3452371668834814 0.4611143424977932 0  0.3237233939510385 0.04777263946685505 0  0.3208023481728277 0.3538725424391802 0  0.2945227842926465 0.1139649114389318 0  0.3029847694074486 0.2175993684632197 0  0.2877281499318086 0.1494618738738678 0  0.2959423875747777 0.2184248366984192 0  0.2827126224554971 0.1771655089247823 0  0.2749156838625689 0.2189580494526447 0  0.2650556614750988 0.1881426188511653 0  0.254424216632074 0.1841161456833013 0  0.261612363887641 0.2029931810877657 0  0.5883933762997517 0.2041632212051894 0  0.5734588915251527 0.1984015128576753 0  0.5491252544172717 0.197172197126346 0  0.2761200466732739 0.2003917531027059 0  0.5324019300461745 0.2133510361591592 0  0.295263445398275 0.2059664635280826 0  0.5146538626463132 0.2096541621131873 0  0.313118737759113 0.1933248194861051 0  0.3270273894693011 0.1990232257771022 0  0.5117783397156904 0.1920286830092308 0  0.3638324687815334 0.1902604228572199 0  0.487991723961953 0.2057093400023705 0  0.3384526454135056 0.2226738034076192 0  0.3804973540548964 0.2064974259237232 0  0.4673504809950125 0.1929626507639477 0  0.4972434608177999 0.2042806472660987 0  0.3923890301565572 0.2172371031536079 0  0.4525283264665287 0.1956444850975362 0  0.4073084310282771 0.2197435806545235 0  0.4413580497556901 0.2133602872343916 0  0.4269465877371905 0.2065698090529095 0  0.3571048221602172 0.2068622380304689 0  0.5632905393766275 0.2041690474194124 0  0.2706689427202849 0.2358686269053923 0  0.5815823055780568 0.1976068962799016 0  0.2691351705044476 0.2048312392324848 0  0.5320335876391219 0.1958483880038518 0  0.5408119799319394 0.2079467421189325 0  0.2823899712347902 0.2028440933684496 0  0.3232668482436067 0.2221358901553847 0  0.4911516533126771 0.1973385990910634 0  0.5137936028877528 0.2013311767116417 0  0.3790173439911059 0.1904228413457294 0  0.4717911242724732 0.2020510467011142 0  0.3348319574762431 0.2152729312072411 0  0.3928045743909299 0.2187272976956082 0  0.4557647829267211 0.1949768421923965 0  0.502915919299645 0.1916996848958722 0  0.3973781707744493 0.2332188380364682 0  0.4421877154887375 0.2027102985293968 0  0.2579708478869824 0.2094274030376197 0  0.2610766057003995 0.1997060652875969 0  0.59200604397
[...]
<PointData  Vectors="f_40-0"> 
<DataArray  type="Float64"  Name="f_40-0"  NumberOfComponents="3" format="ascii">0.0000000000000000e+00 0.0000000000000000e+00 0.0000000000000000e+00  0.0000000000000000e+00 0.0000000000000000e+00 0.0000000000000000e+00  0.0000000000000000e+00 0.0000000000000000e+00 0.0000000000000000e+00  0.0000000000000000e+00 0.0000000000000000e+00 0.0000000000000000e+00  0.0000000000000000e+00 0.0000000000000000e+00 0.0000000000000000e+00  0.0000000000000000e+00 0.0000000000000000e+00 0.0000000000000000e+00  1.9763771929365276e+01 5.0975471169330726e+00 0.0000000000000000e+00  0.0000000000000000e+00 0.0000000000000000e+00 0.0000000000000000e+00  0.0000000000000000e+00 0.0000000000000000e+00 0.0000000000000000e+00  0.0000000000000000e+00 0.0000000000000000e+00 0.0000000000000000e+00  0.0000000000000000e+00 0.0000000000000000e+00 0.0000000000000000e+00  3.0659143741121656e-03 0.0000000000000000e+00 0.0000000000000000e+00  5.6601496137459106e-03 0.0000000000000000e+00 0.0000000000000000e+00  7.7827057189006317e-03 0.0000000000000000e+00 0.0000000000000000e+00  9.4335826895787771e-03 0.0000000000000000e+00 0.0000000000000000e+00  1.0612780525780140e-02 0.0000000000000000e+00 0.0000000000000000e+00  1.1320299227504648e-02 0.0000000000000000e+00 0.0000000000000000e+00  1.1556138794751593e-02 0.0000000000000000e+00 0.0000000000000000e+00  1.1320299227518951e-02 0.0000000000000000e+00 0.0000000000000000e+00  1.0612780525804711e-02 0.0000000000000000e+00 0.0000000000000000e+00  9.4335826896092059e-03 0.0000000000000000e+00 0.0000000000000000e+00  7.7827057189295374e-03 0.0000000000000000e+00 0.0000000000000000e+00  5.6601496137705792e-03 0.0000000000000000e+00 0.0000000000000000e+00  3.0659143741260642e-03 0.0000000000000000e+00 0.0000000000000000e+00  0.0000000000000000e+00 0.0000000000000000e+00 0.0000000000000000e+00  0.0000000000000000e+00 0.0000000000000000e+00 0.0000000000000000e+00  0.0000000000000000e+00 0.0000000000000000e+00 0.0000000000000000e+00  0.0000000000000000e+00 0.0000000000000000e+00 0.0000000000000000e+00  0.0000000000000000e+00 0.0000000000000000e+00 0.0000000000000000e+00  0.0000000000000000e+00 0.0000000000000000e+00 0.0000000000000000e+00  0.0000000000000000e+00 0.0000000000000000e+00 0.0000000000000000e+00  0.0000000000000000e+00 0.0000000000000000e+00 0.0000000000000000e+00  0.0000000000000000e+00 0.0000000000000000e+00 0.0000000000000000e+00  0.0000000000000000e+00 0.0000000000000000e+00 0.0000000000000000e+00  0.0000000000000000e+00 0.0000000000000000e+00 0.0000000000000000e+00  0.0000000000000000e+00 0.0000000000000000e+00 0.0000000000000000e+00  0.0000000000000000e+00 0.0000000000000000e+00 0.0000000000000000e+00  0.0000000000000000e+00 0.0000000000000000e+00 0.0000000000000000e+00  0.0000000000000000e+00 0.0000000000000000e+00 0.0000000000000000e+00  0.0000000000000000e+00 0.0000000000000000e+00 0.0000000000000000e+00  0.0000000000000000e+00 0.0000000000000000e+00 0.0000000000000000e+00  0.0000000000000000e+00 0.0000000000000000e+00 0.0000000000000000e+00  0.0000000000000000e+00 0.0000000000000000e+00 0.0000000000000000e+00  0.0000000000000000e+00 0.0000000000000000e+00 0.0000000000000000e+00  0.0000000000000000e+00 0.0000000000000000e+00 0.0000000000000000e+00  0.0000000000000000e+00 0.0000000000000000e+00 0.0000000000000000e+00  0.0000000000000000e+00 0.0000000000000000e+00 0.0000000000000000e+00  0.0000000000000000e+00 0.0000000000000000e+00 0.0000000000000000e+00  0.0000000000000000e+00 0.0000000000000000e+00 0.0000000000000000e+00  0.0000000000000000e+00 0.0000000000000000e+00 0.0000000000000000e+00  0.0000000000000000e+00 0.0000000000000000e+00 0.0000000000000000e+00  0.0000000000000000e+00 0.0000000000000000e+00 0.0000000000000000e+00  0.0000000000000000e+00 0.0000000000000000e+00 0.0000000000000000e+00  0.0000000000000000e+00 0.0000000000000000e+00 0.0000000000000000e+00  0.0000000000000000e+00 0.0000000000000000e+00 0.0000000000000000e+00  0.0000000000000000e+00 0.0000000000000000e+00 0.0000000000000000e+00  0.0000000000000000e+00 0.0000000000000000e+00 0.0000000000000000e+00  0.0000000000000000e+00 0.0000000000000000e+00 0.0000000000000000e+00  0.0000000000000000e+00 0.0000000000000000e+00 0.0000000000000000e+00  0.0000000000000000e+00 0.0000000000000000e+00 0.0000000000000000e+00  0.0000000000000000e+00 0.0000000000000000e+00 0.0000000000000000e+00  0.0000000000000000e+00 0.0000000000000000e+00 0.0000000000000000e+00  2.5413158625629976e+03 -3.5871549367693051e+03 0.0000000000000000e+00  -1.8687947581489985e+02 -1.9353737657601786e+02 0.0000000000000000e+00  -3.3700414044354966e+02 -4.2107192334247338e+02 0.0000000000000000e+00  0.0000000000000000e+00 0.0000000000000000e+00 0.0000000000000000e+00  0.0000000000000000e+00 0.0000000000000000e+00 0.0000000000000000e+00  0.0000000000000000e+00 0.0000000000000000e+00 0.0000000000000000e+00  0.0000000000000000e+00 0.0000000000000000e+00 0.0000000000000000e+00  0.0000000000000000e+00 0.0000000000000000e+00 0.0000000000000000e+00  0.0000000000000000e+00 0.0000000000000000e+00 0.0000000000000000e+00  0.0000000000000000e+00 0.0000000000000000e+00 0.0000000000000000e+00  0.0000000000000000e+00 0.0000000000000000e+00 0.0000000000000000e+00  0.0000000000000000e+00 0.0000000000000000e+00 0.0000000000000000e+00  0.0000000000000000e+00 0.0000000000000000e+00 0.0000000000000000e+00  0.0000000000000000e+00 0.0000000000000000e+00 0.0000000000000000e+00  0.0000000000000000e+00 0.0000000000000000e+00 0.0000000000000000e+00  0.0000000000000000e+00 0.0000000000000000e+00 0.0000000000000000e+00  0.0000000000000000e+00 0.0000000000000000e+00 0.0000000000000000e+00  0.0000000000000000e+00 0.0000000000000000e+00 0.0000000000000000e+00  0.0000000000000000e+00 0.0000000000000000e+00 0.0000000000000000e+00  0.0000000000000000e+00 0.0000000000000000e+00 0.0000000000000000e+00  0.0000000000000000e+00 0.0000000000000000e+00 0.0000000000000000e+00  0.0000000000000000e+00 0.0000000000000000e+00 0.0000000000000000e+00  0.0000000000000000e+00 0.0000000000000000e+00 0.0000000000000000e+00  0.0000000000000000e+00 0.0000000000000000e+00 0.0000000000000000e+00  0.0000000000000000e+00 0.0000000000000000e+00 0.0000000000000000e+00  0.0000000000000000e+00 0.0000000000000000e+00 0.0000000000000000e+00  0.0000000000000000e+00 0.0000000000000000e+00 0.0000000000000000e+00  0.0000000000000000e+00 0.0000000000000000e+00 0.0000000000000000e+00  0.0000000000000000e+00 0.0000000000000000e+00 0.0000000000000000e+00  0.0000000000000000e+00 0.0000000000000000e+00 0.0000000000000000e+00  0.0000000000000000e+00 0.0000000000000000e+00 0.0000000000000000e+00  0.0000000000000000e+00 0.0000000000000000e+00 0.0000000000000000e+00  0.0000000000000000e+00 0.0000000000000000e+00 0.0000000000000000e+00  0.0000000000000000e+00 0.0000000000000000e+00 0.0000000000000000e+00  0.0000000000000000e+00 0.0000000000000000e+00 0.0000000000000000e+00  0.0000000000000000e+00 0.0000000000000000e+00 0.0000000000000000e+00  0.0000000000000000e+00 0.0000000000000000e+00 0.0000000000000000e+00  0.0000000000000000e+00 0.0000000000000000e+00 0.0000000000000000e+00  0.0000000000000000e+00 0.0000000000000000e+00 0.0000000000000000e+00  0.0000000000000000e+00 0.0000000000000000e+00 0.0000000000000000e+00  0.0000000000000000e+00 0.0000000000000000e+00 0.0000000000000000e+00  1.5938469303373131e+01 7.9449731744256713e+00 0.0000000000000000e+00  1.8112944227398874e+01 1.0326597983013812e+00 0.0000000000000000e+00  0.0000000000000000e+00 0.0000000000000000e+00 0.0000000000000000e+00  0.0000000000000000e+00 0.0000000000000000e+00 0.0000000000000000e+00  0.0000000000000000e+00 0.0000000000000000e+00 0.0000000000000000e+00  0.0000000000000000e+00 0.0000000000000000e+00 0.0000000000000000e+00  0.0000000000000000e+00 0.0000000000000000e+00 0.0000000000000000e+00  0.0000000000000000e+00 0.0000000000000000e+00 0.0000000000000000e+00  0.0000000000000000e+00 0.0000000000000000e+00 0.0000000000000000e+00  0.0000000000000000e+00 0.0000000000000000e+00 0.0000000000000000e+00  0.0000000000000000e+00 0.0000000000000000e+00 0.0000000000000000e+00  0.0000000000000000e+00 0.0000000000000000e+00 0.0000000000000000e+00  0.0000000000000000e+00 0.0000000000000000e+00 0.0000000000000000e+00  0.0000000000000000e+00 0.0000000000000000e+00 0.0000000000000000e+00  0.0000000000000000e+00 0.0000000000000000e+00 0.0000000000000000e+00  0.0000000000000000e+00 0.0000000000000000e+00 0.0000000000000000e+00  0.0000000000000000e+00 0.0000000000000000e+00 0.0000000000000000e+00  0.0000000000000000e+00 0.0000000000000000e+00 0.0000000000000000e+00  0.0000000000000000e+00 0.0000000000000000e+00 0.0000000000000000e+00  0.0000000000000000e+00 0.0000000000000000e+00 0.0000000000000000e+00  0.0000000000000000e+00 0.0000000000000000e+00 0.0000000000000000e+00  0.0000000000000000e+00 0.0000000000000000e+00 0.0000000000000000e+00  0.0000000000000000e+00 0.0000000000000000e+00 0.0000000000000000e+00  0.0000000000000000e+00 0.0000000000000000e+00 0.0000000000000000e+00  0.0000000000000000e+00 0.0000000000000000e+00 0.0000000000000000e+00  0.0000000000000000e+00 0.0000000000000000e+00 0.0000000000000000e+00  0.0000000000000000e+00 0.0000000000000000e+00 0.0000000000000000e+00  0.0000000000000000e+00 0.0000000000000000e+00 0.0000000000000000e+00  0.0000000000000000e+00 0.0000000000000000e+00 0.0000000000000000e+00  0.0000000000000000e+00 0.0000000000000000e+00 0.0000000000000000e+00  0.0000000000000000e+00 0.0000000000000000e+00 0.0000000000000000e+00  0.0000000000000000e+00 0.0000000000000000e+00 0.0000000000000000e+00  0.0000000000000000e+00 0.0000000000000000e+00 0.0000000000000000e+00  0.0000000000000000e+00 0.0000000000000000e+00 0.0000000000000000e+00  0.0000000000000000e+00 0.0000000000000000e+00 0.0000000000000000e+00  0.0000000000000000e+00 0.0000000000000000e+00 0.0000000000000000e+00  0.0000000000000000e+00 0.0000000000000000e+00 0.0000000000000000e+00  0.0000000000000000e+00 0.0000000000000000e+00 0.0000000000000000e+00  0.0000000000000000e+00 0.0000000000000000e+00 0.0000000000000000e+00  0.0000000000000000e+00 0.0000000000000000e+00 0.0000000000000000e+00  0.0000000000000000e+00 0.0000000000000000e+00 0.0000000000000000e+00  0.0000000000000000e+00 0.0000000000000000e+00 0.0000000000000000e+00  0.0000000000000000e+00 0.0000000000000000e+00 0.0000000000000000e+00  0.0000000000000000e+00 0.0000000000000000e+00 0.0000000000000000e+00  0.0000000000000000e+00 0.0000000000000000e+00 0.0000000000000000e+00  0.0000000000000000e+00 0.0000000000000000e+00 0.0000000000000000e+00  0.0000000000000000e+00 0.0000000000000000e+00 0.0000000000000000e+00  0.0000000000000000e+00 0.0000000000000000e+00 0.0000000000000000e+00  0.0000000000000000e+00 0.0000000000000000e+00 0.0000000000000000e+00  0.0000000000000000e+00 0.0000000000000000e+00 0.0000000000000000e+00  0.0000000000000000e+00 0.0000000000000000e+00 0.0000000000000000e+00  0.0000000000000000e+00 0.0000000000000000e+00 0.0000000000000000e+00  0.0000000000000000e+00 0.0000000000000000e+00 0.0000000000000000e+00  0.0000000000000000e+00 0.0000000000000000e+00 0.0000000000000000e+00  0.0000000000000000e+00 0.0000000000000000e+00 0.0000000000000000e+00  0.0000000000000000e+00 0.0000000000000000e+00 0.0000000000000000e+00  0.0000000000000000e+00 0.0000000000000000e+00 0.0000000000000000e+00  0.0000000000000000e+00 0.0000000000000000e+00 0.0000000000000000e+00  0.0000000000000000e+00 0.0000000000000000e+00 0.0000000000000000e+00  0.0000000000000000e+00 0.0000000000000000e+00 0.0000000000000000e+00  0.0000000000000000e+00 0.0000000000000000e+00 0.0000000000000000e+00  0.0000000000000000e+00 0.0000000000000000e+00 0.0000000000000000e+00  0.0000000000000000e+00 0.0000000000000000e+00 0.0000000000000000e+00  0.0000000000000000e+00 0.0000000000000000e+00 0.0000000000000000e+00  0.0000000000000000e+00 0.0000000000000000e+00 0.0000000000000000e+00  0.0000000000000000e+00 0.0000000000000000e+00 0.0000000000000000e+00  0.0000000000000000e+00 0.0000000000000000e+00 0.0000000000000000e+00  0.0000000000000000e+00 0.0000000000000000e+00 0.0000000000000000e+00  2.8109508446532468e-11 -7.7286133136330696e-11 0.0000000000000000e+00  0.0000000000000000e+00 0.0000000000000000e+00 0.0000000000000000e+00  0.0000000000000000e+00 0.0000000000000000e+00 0.0000000000000000e+00  0.0000000000000000e+00 0.0000000000000000e+00 0.0000000000000000e+00  0.0000000000000000e+00 0.0000000000000000e+00 0.0000000000000000e+00  0.0000000000000000e+00 0.0000000000000000e+00 0.0000000000000000e+00  0.0000000000000000e+00 0.0000000000000000e+00 0.0000000000000000e+00  0.0000000000000000e+00 0.0000000000000000e+00 0.0000000000000000e+00  0.0000000000000000e+00 0.0000000000000000e+00 0.0000000000000000e+00  0.0000000000000000e+00 0.0000000000000000e+00 0.0000000000000000e+00  0.0000000000000000e+00 0.0000000000000000e+00 0.0000000000000000e+00  0.0000000000000000e+00 0.0000000000000000e+00 0.0000000000000000e+00  0.0000000000000000e+00 0.0000000000000000e+00 0.0000000000000000e+00  0.0000000000000000e+00 0.0000000000000000e+00 0.0000000000000000e+00  0.0000000000000000e+00 0.0000000000000000e+00 0.0000000000000000e+00  0.0000000000000000e+00 0.0000000000000000e+00 0.0000000000000000e+00  0.0000000000000000e+00 0.0000000000000000e+00 0.0000000000000000e+00  0.0000000000000000e+00 0.0000000000000000e+00 0.0000000000000000e+00  0.0000000000000000e+00 0.0000000000000000e+00 0.0000000000000000e+00  0.0000000000000000e+00 0.0000000000000000e+00 0.0000000000000000e+00  0.0000000000000000e+00 0.0000000000000000e+00 0.0000000000000000e+00  0.0000000000000000e+00 0.0000000000000000e+00 0.0000000000000000e+00  0.0000000000000000e+00 0.0000000000000000e+00 0.0000000000000000e+00  0.0000000000000000e+00 0.0000000000000000e+00 0.0000000000000000e+00  0.0000000000000000e+00 0.0000000000000000e+00 0.0000000000000000e+00  0.0000000000000000e+00 0.0000000000000000e+00 0.0000000000000000e+00  0.0000000000000000e+00 0.0000000000000000e+00 0.0000000000000000e+00  0.0000000000000000e+00 0.0000000000000000e+00 0.0000000000000000e+00  0.0000000000000000e+00 0.0000000000000000e+00 0.0000000000000000e+00  0.0000000000000000e+00 0.0000000000000000e+00 0.0000000000000000e+00  0.0000000000000000e+00 0.0000000000000000e+00 0.0000000000000000e+00  0.0000000000000000e+00 0.0000000000000000e+00 0.0000000000000000e+00  0.0000000000000000e+00 0.0000000000000000e+00 0.0000000000000000e+00  0.0000000000000000e+00 0.0000000000000000e+00 0.0000000000000000e+00  0.0000000000000000e+00 0.0000000000000000e+00 0.0000000000000000e+00  0.0000000000000000e+00 0.0000000000000000e+00 0.0000000000000000e+00  0.0000000000000000e+00 0.0000000000000000e+00 0.0000000000000000e+00  0.0000000000000000e+00 0.0000000000000000e+00 0.0000000000000000e+00  0.0000000000000000e+00 0.0000000000000000e+00 0.0000000000000000e+00  0.0000000000000000e+00 0.0000000000000000e+00 0.0000000000000000e+00  0.0000000000000000e+00 0.0000000000000000e+00 0.0000000000000000e+00  0.0000000000000000e+00 0.0000000000000000e+00 0.0000000000000000e+00  0.0000000000000000e+00 0.0000000000000000e+00 0.0000000000000000e+00  0.0000000000000000e+00 0.0000000000000000e+00 0.0000000000000000e+00  0.0000000000000000e+00 0.0000000000000000e+00 0.0000000000000000e+00  0.0000000000000000e+00 0.0000000000000000e+00 0.0000000000000000e+00  0.0000000000000000e+00 0.0000000000000000e+00 0.0000000000000000e+00  0.0000000000000000e+00 0.0000000000000000e+00 0.0000000000000000e+00  0.0000000000000000e+00 0.0000000000000000e+00 0.0000000000000000e+00  0.0000000000000000e+00 0.0000000000000000e+00 0.0000000000000000e+00  0.0000000000000000e+00 0.0000000000000000e+00 0.0000000000000000e+00  0.0000000000000000e+00 0.0000000000000000e+00 0.0000000000000000e+00  0.0000000000000000e+00 0.0000000000000000e+00 0.0000000000000000e+00  0.0000000000000000e+00 0.0000000000000000e+00 0.0000000000000000e+00  0.0000000000000000e+00 0.0000000000000000e+00 0.0000000000000000e+00  0.0000000000000000e+00 0.0000000000000000e+00 0.0000000000000000e+00  0.0000000000000000e+00 0.0000000000000000e+00 0.0000000000000000e+00  0.0000000000000000e+00 0.0000000000000000e+00 0.0000000000000000e+00  0.0000000000000000e+00 0.0000000000000000e+00 0.0000000000000000e+00  0.0000000000000000e+00 0.0000000000000000e+00 0.0000000000000000e+00  0.0000000000000000e+00 0.0000000000000000e+00 0.0000000000000000e+00  0.0000000000000000e+00 0.0000000000000000e+00 0.0000000000000000e+00  0.0000000000000000e+00 0.0000000000000000e+00 0.0000000000000000e+00  0.0000000000000000e+00 0.0000000000000000e+00 0.0000000000000000e+00  0.0000000000000000e+00 0.0000000000000000e+00 0.0000000000000000e+00  0.0000000000000000e+00 0.0000000000000000e+00 0.0000000000000000e+00  6.0478439888602233e+00 1.1670803931874817e+01 0.0000000000000000e+00  -6.6706040978439454e+00 8.7231680832345493e+00 0.0000000000000000e+00  -2.6672721721333872e+00 -2.2109375227727388e+00 0.0000000000000000e+00  -1.6033096423787356e+01 -6.1166679870032414e+00 0.0000000000000000e+00  5.5733995783127526e+00 -4.5990278511401312e+00 0.0000000000000000e+00  1.5801875927603394e+01 1.7449741604184510e+01 0.0000000000000000e+00  -1.6948445604731688e+00 3.4421480120682131e+00 0.0000000000000000e+00  4.4136815557663898e+00 -6.5148866122176878e+00 0.0000000000000000e+00  -5.7264379946157762e+00 -1.6701833584700512e+00 0.0000000000000000e+00  2.6882894820661862e+00 -1.3117926576441226e+01 0.0000000000000000e+00  -1.2799503198467287e+01 -4.4222470701071090e+00 0.0000000000000000e+00  -7.4187209031215673e+00 -1.0533311135986518e+00 0.0000000000000000e+00  1.0464954989945282e+01 -4.1223756464738820e+01 0.0000000000000000e+00  -3.6830222088131994e+00 4.4920128109377382e+00 0.0000000000000000e+00  7.3413400934597979e+00 1.5090744912667304e+01 0.0000000000000000e+00  -6.1974095959649716e+01 5.0211667794875382e+01 0.0000000000000000e+00  7.7911176540446840e+00 -3.5429265063684063e+01 0.0000000000000000e+00  8.1946033986639684e+00 4.1467761786926474e+01 0.0000000000000000e+00  -3.9541738027499413e+01 -3.0892668138173223e+00 0.0000000000000000e+00  -1.1778012176736963e+01 1.7375415371351302e+01 0.0000000000000000e+00  7.0445422876621260e+00 -1.1786904096189042e+01 0.0000000000000000e+00  -2.4192643475701285e+01 -2.9839381917364509e+01 0.0000000000000000e+00  -3.2476495159000542e+00 6.4530798525915651e+00 0.0000000000000000e+00  2.4687557486227085e+00 -7.6948049526403022e+00 0.0000000000000000e+00  9.6413511559739256e+00 2.3076447446121549e+01 0.0000000000000000e+00  5.1256157571155834e+00 -1.9776372660363384e+00 0.0000000000000000e+00  4.5327222804440428e+00 1.5971125797971375e+01 0.0000000000000000e+00  2.3055955437420455e+01 2.9311769921188848e+01 0.0000000000000000e+00  -1.3612608592279651e+01 1.4637819580567925e+01 0.0000000000000000e+00  1.9314925516199115e+00 -2.4255779146448614e+01 0.0000000000000000e+00  -2.4796374303673017e+00 -9.9334116855055132e+00 0.0000000000000000e+00  1.2409822976872691e+01 -2.8348250851596561e+01 0.0000000000000000e+00  9.4928763142647412e+00 -1.2925945757631772e+00 0.0000000000000000e+00  8.2849303997142112e+00 -1.6165112306240509e+01 0.0000000000000000e+00  -5.2827650472490877e+00 -9.2182073077059457e+00 0.0000000000000000e+00  -5.7597907797719463e+00 1.8895942278456452e+01 0.0000000000000000e+00  2.6517437609656771e+01 7.1877052207441906e+01 0.0000000000000000e+00  -2.4542079235254580e+01 6.6036166170676536e+00 0.0000000000000000e+00  -2.3215924794154230e+01 8.0907712676141159e+00 0.0000000000000000e+00  -2.1868049052005709e+01 1.3701930814963863e+00 0.0000000000000000e+00  -3.1823690630825472e+00 -1.4012622079527506e-01 0.0000000000000000e+00  2.2654020371338377e+00 1.2893134426799476e+01 0.0000000000000000e+00  4.8271752878809684e+00 -1.8351970079514477e+00 0.0000000000000000e+00  -1.2163403339800313e+01 2.0194114062892616e+01 0.0000000000000000e+00  2.0172662308409308e+01 1.5435747403527602e+01 0.0000000000000000e+00  1.1733726710695376e+00 1.5228171969970544e+01 0.0000000000000000e+00  -2.5136145342804493e+01 5.8