<?xml version="1.0"?>
<VTKFile type="UnstructuredGrid"  version="0.1"  >
<UnstructuredGrid>
<Piece  NumberOfPoints="1419" NumberOfCells="2698">
<Points>
<DataArray  type="Float64"  NumberOfComponents="3"  format="ascii">0 0 0  0 0.41 0  2.5 0 0  2.5 0.41 0  0.5473797370002177 0.2950922351522593 0  0.5948048091044534 0.2348762695699187 0  0.25 0.2 0  0.15 0.2 0  0.2489897948556636 0.21 0  0.2489897948556636 0.19 0  0.5547055253754397 0.3125990493955416 0  0 0.3807142857143437 0  0 0.3514285714286952 0  0 0.3221428571430699 0  0 0.29285714285744 0  0 0.2635714285718054 0  0 0.2342857142861561 0  0 0.2050000000005308 0  0 0.175714285714732 0  0 0.1464285714289574 0  0 0.1171428571431897 0  0 0.08785714285737878 0  0 0.05857142857161107 0  0 0.02928571428580012 0  0.03015443760436003 0 0  0.06140001986583606 0 0  0.09377624077125973 0 0  0.1273239957535082 0 0  0.1620856860351972 0 0  0.1981052433264291 0 0  0.235428184091502 0 0  0.2741016576309091 2.870329933603918e-14 0  0.3141745521465447 0 0  0.3556974926295285 0 0  0.3987229542472677 0 0  0.4433053055141081 0 0  0.4895008759286886 0 0  0.5373680609405097 0 0  0.5869673343216626 0 0  0.6383613676634521 0 0  0.6916151138468254 0 0  0.7467958595648856 0 0  0.8039733463919316 0 0  0.8632198139502143 0 0  0.9246101326867038 0 0  0.9882218810934433 0 0  1.054135445558498 0 0  1.122434100542598 0 0  1.193204177141305 0 0  1.266535089879536 0 0  1.342519516046404 0 0  1.421253448503939 0 0  1.502836389106271 0 0  1.587371439758838 0 0  1.674965418777374 0 0  1.765729001825544 0 0  1.859776908880082 0 0  1.957227977487062 0 0  2.058205329869943 0 0  2.162836591189951 0 0  2.271253957290865 0 0  2.383594446803425 0 0  2.5 0.1024999999997612 0  2.5 0.2049999999994743 0  2.5 0.3074999999997183 0  2.383594446803656 0.41 0  2.271253957291315 0.41 0  2.162836591190598 0.41 0  2.058205329870775 0.41 0  1.957227977488067 0.41 0  1.859776908881246 0.41 0  1.765729001826854 0.41 0  1.674965418778818 0.41 0  1.58737143976041 0.41 0  1.502836389107956 0.41 0  1.421253448505726 0.41 0  1.342519516048286 0.41 0  1.266535089881505 0.41 0  1.193204177143353 0.41 0  1.122434100544716 0.41 0  1.05413544556068 0.41 0  0.9882218810956305 0.41 0  0.9246101326886647 0.41 0  0.8632198139519631 0.41 0  0.8039733463934788 0.41 0  0.7467958595662458 0.41 0  0.6916151138480078 0.41 0  0.6383613676644679 0.41 0  0.5869673343225223 0.41 0  0.5373680609412221 0.41 0  0.4895008759292634 0.41 0  0.4433053055145528 0.41 0  0.3987229542475914 0.41 0  0.3556974926297398 0.41 0  0.3141745521466497 0.41 0  0.2741016576310038 0.41 0  0.2354281840915826 0.41 0  0.1981052433265003 0.41 0  0.1620856860352591 0.41 0  0.1273239957535623 0.41 0  0.09377624077128965 0.41 0  0.06140001986584975 0.41 0  0.03015443760436654 0.41 0  0.2497468076502589 0.2050254481002335 0  0.2497468076502614 0.1949745518997913 0  0.2469965252529372 0.1829317073451959 0  0.2439893735792749 0.1762316384219906 0  0.2400332147834255 0.1700443375285386 0  0.2352133972704371 0.1645032867342007 0  0.2296339016332438 0.1597280261969788 0  0.2234150974217223 0.1558215752574715 0  0.2166911463437691 0.1528682099456123 0  0.2096071079204251 0.1509316448471593 0  0.2023158100364996 0.1500536585536553 0  0.194974551899914 0.1502531923497262 0  0.1877417105387872 0.1515259415822739 0  0.1807733240461124 0.153844448527136 0  0.1742197252835808 0.15715869474974 0  0.1682222986673531 0.1613971801805478 0  0.162910430003803 0.1664684656256651 0  0.1583987151779087 0.1722631454351573 0  0.1547844879126891 0.178656207771761 0  0.1521457199348551 0.1855097315605723 0  0.1505393388476355 0.1926758619366523 0  0.1505393388476328 0.2073241380633295 0  0.1521457199348437 0.2144902684393899 0  0.1547844879126531 0.221343792228163 0  0.1583987151778488 0.2277368545647528 0  0.1629104300036858 0.2335315343742052 0  0.1682222986671726 0.2386028198193036 0  0.1742197252833576 0.2428413052501257 0  0.1807733240458683 0.2461555514727623 0  0.1877417105384929 0.2484740584176516 0  0.1949745518995776 0.2497468076502398 0  0.202315810036185 0.2499463414463592 0  0.2096071079201568 0.2490683551528932 0  0.2166911463435495 0.2471317900544655 0  0.2234150974215506 0.2441784247430548 0  0.2296339016331197 0.2402719738031125 0  0.2352133972703547 0.2354967132658811 0  0.2400332147833751 0.2299556624715287 0  0.2439893735792577 0.2237683615780412 0  0.246996525252926 0.2170682926548348 0  0.2536364415281008 0.227684489895799 0  0.2585727581728523 0.2158926632626226 0  0.2718576619485092 0.207305617376241 0  0.262294666503095 0.1969362061104044 0  0.2970467092494432 0.2129885989122353 0  0.2780675219948423 0.2330056724008598 0  0.4632254594436706 0.1390002267195363 0  0.2873228370013373 0.2701818605663719 0  0.2923445131704723 0.002358288380790805 0  0.3256048532725331 0.1669053135890744 0  0.338990234599533 0.208720271753858 0  0.3058802236488758 0.2732587959973994 0  0.3779811691037078 0.1868781654584598 0  0.3556409993426623 0.2181177257312149 0  0.3325666444303224 0.1852111403040357 0  0.3678829290812376 0.1724535308307778 0  0.3542079930400626 0.2033700958215114 0  0.3946904513399166 0.221740563840451 0  0.311713133691014 0.2147895726071514 0  0.383967373988008 0.2393203355165494 0  0.4026487504128161 0.2551223085385514 0  0.3954144048731548 0.272266964914281 0  0.4836720120527295 0.08004649550556005 0  0.4213207875193994 0.251328640741968 0  0.3228659234926628 0.4354756014522826 0  0.444357187016225 0.2280288398274269 0  0.4270260405826979 0.2759539229608338 0  0.761787187428058 -0.4124587563128795 0  0.4876474472012848 0.16988542486804 0  0.6085580648346106 0.01533504624851076 0  0.4309740885663254 0.3247307220323761 0  0.3419131675484861 0.5094389539476765 0  0.5098983484028969 0.1896724586299707 0  0.5705559817416804 0.05445159884350304 0  0.2871064640012877 0.7261458456342297 0  0.4171055214652995 0.4425454605316309 0  0.5015715260095476 0.2596943092221525 0  0.516399178434238 0.2485279196907237 0  0.5305883539407338 0.2387575080651023 0  0.5330603214334342 0.2771906723373936 0  0.558339979477652 0.176841646502761 0  0.5653064416630019 0.2200528415443263 0  0.5711564301149583 0.233615861201728 0  0.5620636466733493 0.1981177444956498 0  0.6171208258898331 0.2029530173039858 0  0.5817315805854572 0.2088960996991175 0  0.5847778722437301 0.231491557496099 0  0.635085383752359 0.1100933330685706 0  0.6105155661923185 0.1517599129078779 0  0.5860890438187439 0.1831805476814246 0  0.5943366437784638 0.1655536021748827 0  0.5549078596894546 0.2175544998433173 0  0.5737126329739209 0.1793808955090227 0  0.5593833937054897 0.1838545770524314 0  0.5156514882965949 0.1989005661486153 0  0.5190856443197566 0.1941613946222967 0  0.5273571047204846 0.1861852600716319 0  0.5287734232843775 0.1868084566492555 0  0.5511367960922529 0.2754762325039879 0  0.4296471898256264 0.06465463891732678 0  0.6262790058317027 0.3891403916245136 0  0.4447681672200294 0.12177464650059 0  0.348056739954414 -0.004892184081132095 0  0.7567919714461134 0.6308197732455307 0  0.4381791822162189 0.1368217700134588 0  0.4752779898220708 0.2099463634819362 0  0.4659245930209673 0.20400679486266 0  0.440721875597536 0.1624064137804523 0  0.4344876488323443 0.1927356211256314 0  0.4477709138672266 0.2162337681341318 0  0.439308857982982 0.2120663796592207 0  0.4193427479113971 0.1947334062933905 0  0.4179931939965731 0.1882270868524316 0  0.4037875633364393 0.1596549762410229 0  0.4117039799097633 0.1842429597406854 0  0.3770508904583363 0.1479278990261409 0  0.3487438618711078 0.2746747481560933 0  0.3791809895497867 0.1834384541914231 0  0.3680324380872927 0.1865736253298332 0  0.3597400101947853 0.213017290491806 0  0.3372308540477079 0.1448402731115107 0  0.3454241835613757 0.3471918800276332 0  0.3289766626180597 -0.0001822772498066196 0  0.3349275658949927 0.4665153522698796 0  0.3024720190134265 0.04787696152727966 0  0.3213372467522463 0.3536421346827748 0  0.3024867775224965 0.1151672320241453 0  0.3127903756377295 0.2146940432796911 0  0.2870033743035377 0.1527171160626695 0  0.2798604894880333 0.2160686367327726 0  0.2767597998305311 0.1819760650604922 0  0.2774800722923317 0.2111059726332083 0  0.2684329145335619 0.1814256984892162 0  0.2551489732466301 0.190201831744487 0  0.2607389921222046 0.2024321372748959 0  0.5926973490843281 0.2022375142793393 0  0.574879685556922 0.19614520524109 0  0.5455314366277015 0.1991305246750932 0  0.28027022674125 0.2041518860944562 0  0.5289614330817797 0.2096995593498288 0  0.2944877333736855 0.2115154562055921 0  0.5173008586139322 0.2066562576093318 0  0.2993976651117677 0.2147085845160723 0  0.3279464208125588 0.2042718231525643 0  0.5171420852290363 0.1871110342577579 0  0.3603292538856908 0.1915314935976039 0  0.4854775179908168 0.2042153831444951 0  0.3390706499922244 0.2221579909733206 0  0.3703153515057753 0.209347151087312 0  0.470844718570923 0.1942958448399382 0  0.5003454316428284 0.1955425847637274 0  0.3998609027276533 0.2154244705336754 0  0.4553528624500235 0.1974091610881941 0  0.4133608666611011 0.2178129603604926 0  0.4446430560582005 0.2093699315489639 0  0.4319255408321295 0.2018916515129419 0  0.3520878165198601 0.2112367011365596 0  0.5614502856279689 0.1929081825433169 0  0.2919321926580828 0.2299349077037945 0  0.5798260719313776 0.2015275785657791 0  0.2692224852228993 0.2099310506356804 0  0.5220521724599246 0.1955738931215902 0  0.5379378650098054 0.1965692064093648 0  0.2826492962740028 0.2084207747472364 0  0.3266417730675265 0.221113011858468 0  0.4796039054934909 0.1809739118052902 0  0.5140052688008381 0.2010921096917452 0  0.3572153898105133 0.1956096154495963 0  0.4809582913044549 0.2061093868982199 0  0.3458090363039649 0.2064144925307289 0  0.4013175630843063 0.2192271141562578 0  0.4607071482896529 0.1973448033880962 0  0.4959199750456738 0.1759805333918774 0  0.3935964975050258 0.2332228224068741 0  0.4403426841568255 0.2084013641728752 0  0.2548569182524029 0.2082530763862022 0  0.2597493931280867 0.196810988060698 
[...]
<PointData  Vectors="f_40-0"> 
<DataArray  type="Float64"  Name="f_40-0"  NumberOfComponents="3" format="ascii">0.0000000000000000e+00 0.0000000000000000e+00 0.0000000000000000e+00  0.0000000000000000e+00 0.0000000000000000e+00 0.0000000000000000e+00  0.0000000000000000e+00 0.0000000000000000e+00 0.0000000000000000e+00  0.0000000000000000e+00 0.0000000000000000e+00 0.0000000000000000e+00  0.0000000000000000e+00 0.0000000000000000e+00 0.0000000000000000e+00  0.0000000000000000e+00 0.0000000000000000e+00 0.0000000000000000e+00  1.5907585227239386e+01 5.7945874257891250e-01 0.0000000000000000e+00  0.0000000000000000e+00 0.0000000000000000e+00 0.0000000000000000e+00  0.0000000000000000e+00 0.0000000000000000e+00 0.0000000000000000e+00  0.0000000000000000e+00 0.0000000000000000e+00 0.0000000000000000e+00  0.0000000000000000e+00 0.0000000000000000e+00 0.0000000000000000e+00  3.0823329984688646e-03 0.0000000000000000e+00 0.0000000000000000e+00  5.6904609202505872e-03 0.0000000000000000e+00 0.0000000000000000e+00  7.8243837653445610e-03 0.0000000000000000e+00 0.0000000000000000e+00  9.4841015337532499e-03 0.0000000000000000e+00 0.0000000000000000e+00  1.0669614225476444e-02 0.0000000000000000e+00 0.0000000000000000e+00  1.1380921840514070e-02 0.0000000000000000e+00 0.0000000000000000e+00  1.1618024378865418e-02 0.0000000000000000e+00 0.0000000000000000e+00  1.1380921840528449e-02 0.0000000000000000e+00 0.0000000000000000e+00  1.0669614225501148e-02 0.0000000000000000e+00 0.0000000000000000e+00  9.4841015337838418e-03 0.0000000000000000e+00 0.0000000000000000e+00  7.8243837653736228e-03 0.0000000000000000e+00 0.0000000000000000e+00  5.6904609202753876e-03 0.0000000000000000e+00 0.0000000000000000e+00  3.0823329984828369e-03 0.0000000000000000e+00 0.0000000000000000e+00  0.0000000000000000e+00 0.0000000000000000e+00 0.0000000000000000e+00  0.0000000000000000e+00 0.0000000000000000e+00 0.0000000000000000e+00  0.0000000000000000e+00 0.0000000000000000e+00 0.0000000000000000e+00  0.0000000000000000e+00 0.0000000000000000e+00 0.0000000000000000e+00  0.0000000000000000e+00 0.0000000000000000e+00 0.0000000000000000e+00  0.0000000000000000e+00 0.0000000000000000e+00 0.0000000000000000e+00  0.0000000000000000e+00 0.0000000000000000e+00 0.0000000000000000e+00  0.0000000000000000e+00 0.0000000000000000e+00 0.0000000000000000e+00  0.0000000000000000e+00 0.0000000000000000e+00 0.0000000000000000e+00  0.0000000000000000e+00 0.0000000000000000e+00 0.0000000000000000e+00  0.0000000000000000e+00 0.0000000000000000e+00 0.0000000000000000e+00  0.0000000000000000e+00 0.0000000000000000e+00 0.0000000000000000e+00  0.0000000000000000e+00 0.0000000000000000e+00 0.0000000000000000e+00  0.0000000000000000e+00 0.0000000000000000e+00 0.0000000000000000e+00  0.0000000000000000e+00 0.0000000000000000e+00 0.0000000000000000e+00  0.0000000000000000e+00 0.0000000000000000e+00 0.0000000000000000e+00  0.0000000000000000e+00 0.0000000000000000e+00 0.0000000000000000e+00  0.0000000000000000e+00 0.0000000000000000e+00 0.0000000000000000e+00  0.0000000000000000e+00 0.0000000000000000e+00 0.0000000000000000e+00  0.0000000000000000e+00 0.0000000000000000e+00 0.0000000000000000e+00  0.0000000000000000e+00 0.0000000000000000e+00 0.0000000000000000e+00  0.0000000000000000e+00 0.0000000000000000e+00 0.0000000000000000e+00  0.0000000000000000e+00 0.0000000000000000e+00 0.0000000000000000e+00  0.0000000000000000e+00 0.0000000000000000e+00 0.0000000000000000e+00  0.0000000000000000e+00 0.0000000000000000e+00 0.0000000000000000e+00  0.0000000000000000e+00 0.0000000000000000e+00 0.0000000000000000e+00  0.0000000000000000e+00 0.0000000000000000e+00 0.0000000000000000e+00  0.0000000000000000e+00 0.0000000000000000e+00 0.0000000000000000e+00  0.0000000000000000e+00 0.0000000000000000e+00 0.0000000000000000e+00  0.0000000000000000e+00 0.0000000000000000e+00 0.0000000000000000e+00  0.0000000000000000e+00 0.0000000000000000e+00 0.0000000000000000e+00  0.0000000000000000e+00 0.0000000000000000e+00 0.0000000000000000e+00  0.0000000000000000e+00 0.0000000000000000e+00 0.0000000000000000e+00  0.0000000000000000e+00 0.0000000000000000e+00 0.0000000000000000e+00  0.0000000000000000e+00 0.0000000000000000e+00 0.0000000000000000e+00  0.0000000000000000e+00 0.0000000000000000e+00 0.0000000000000000e+00  0.0000000000000000e+00 0.0000000000000000e+00 0.0000000000000000e+00  0.0000000000000000e+00 0.0000000000000000e+00 0.0000000000000000e+00  -1.4346346236498803e+03 -1.8691204898267040e+03 0.0000000000000000e+00  2.3013449698263676e+03 -5.5871372068004348e+02 0.0000000000000000e+00  -1.0486621909186538e+03 3.3956931811843710e+03 0.0000000000000000e+00  0.0000000000000000e+00 0.0000000000000000e+00 0.0000000000000000e+00  0.0000000000000000e+00 0.0000000000000000e+00 0.0000000000000000e+00  0.0000000000000000e+00 0.0000000000000000e+00 0.0000000000000000e+00  0.0000000000000000e+00 0.0000000000000000e+00 0.0000000000000000e+00  0.0000000000000000e+00 0.0000000000000000e+00 0.0000000000000000e+00  0.0000000000000000e+00 0.0000000000000000e+00 0.0000000000000000e+00  0.0000000000000000e+00 0.0000000000000000e+00 0.0000000000000000e+00  0.0000000000000000e+00 0.0000000000000000e+00 0.0000000000000000e+00  0.0000000000000000e+00 0.0000000000000000e+00 0.0000000000000000e+00  0.0000000000000000e+00 0.0000000000000000e+00 0.0000000000000000e+00  0.0000000000000000e+00 0.0000000000000000e+00 0.0000000000000000e+00  0.0000000000000000e+00 0.0000000000000000e+00 0.0000000000000000e+00  0.0000000000000000e+00 0.0000000000000000e+00 0.0000000000000000e+00  0.0000000000000000e+00 0.0000000000000000e+00 0.0000000000000000e+00  0.0000000000000000e+00 -4.2982384089139306e-11 0.0000000000000000e+00  0.0000000000000000e+00 0.0000000000000000e+00 0.0000000000000000e+00  0.0000000000000000e+00 0.0000000000000000e+00 0.0000000000000000e+00  0.0000000000000000e+00 0.0000000000000000e+00 0.0000000000000000e+00  0.0000000000000000e+00 0.0000000000000000e+00 0.0000000000000000e+00  0.0000000000000000e+00 0.0000000000000000e+00 0.0000000000000000e+00  0.0000000000000000e+00 0.0000000000000000e+00 0.0000000000000000e+00  0.0000000000000000e+00 0.0000000000000000e+00 0.0000000000000000e+00  0.0000000000000000e+00 0.0000000000000000e+00 0.0000000000000000e+00  0.0000000000000000e+00 0.0000000000000000e+00 0.0000000000000000e+00  0.0000000000000000e+00 0.0000000000000000e+00 0.0000000000000000e+00  0.0000000000000000e+00 0.0000000000000000e+00 0.0000000000000000e+00  0.0000000000000000e+00 0.0000000000000000e+00 0.0000000000000000e+00  0.0000000000000000e+00 0.0000000000000000e+00 0.0000000000000000e+00  0.0000000000000000e+00 0.0000000000000000e+00 0.0000000000000000e+00  0.0000000000000000e+00 0.0000000000000000e+00 0.0000000000000000e+00  0.0000000000000000e+00 0.0000000000000000e+00 0.0000000000000000e+00  0.0000000000000000e+00 0.0000000000000000e+00 0.0000000000000000e+00  0.0000000000000000e+00 0.0000000000000000e+00 0.0000000000000000e+00  0.0000000000000000e+00 0.0000000000000000e+00 0.0000000000000000e+00  0.0000000000000000e+00 0.0000000000000000e+00 0.0000000000000000e+00  0.0000000000000000e+00 0.0000000000000000e+00 0.0000000000000000e+00  0.0000000000000000e+00 0.0000000000000000e+00 0.0000000000000000e+00  0.0000000000000000e+00 0.0000000000000000e+00 0.0000000000000000e+00  1.1466511208065976e+01 4.0159758207494969e+00 0.0000000000000000e+00  1.5715625539888848e+01 -2.5996105316876372e+00 0.0000000000000000e+00  0.0000000000000000e+00 0.0000000000000000e+00 0.0000000000000000e+00  0.0000000000000000e+00 0.0000000000000000e+00 0.0000000000000000e+00  0.0000000000000000e+00 0.0000000000000000e+00 0.0000000000000000e+00  0.0000000000000000e+00 0.0000000000000000e+00 0.0000000000000000e+00  0.0000000000000000e+00 0.0000000000000000e+00 0.0000000000000000e+00  0.0000000000000000e+00 0.0000000000000000e+00 0.0000000000000000e+00  0.0000000000000000e+00 0.0000000000000000e+00 0.0000000000000000e+00  0.0000000000000000e+00 0.0000000000000000e+00 0.0000000000000000e+00  0.0000000000000000e+00 0.0000000000000000e+00 0.0000000000000000e+00  0.0000000000000000e+00 0.0000000000000000e+00 0.0000000000000000e+00  0.0000000000000000e+00 0.0000000000000000e+00 0.0000000000000000e+00  0.0000000000000000e+00 0.0000000000000000e+00 0.0000000000000000e+00  0.0000000000000000e+00 0.0000000000000000e+00 0.0000000000000000e+00  0.0000000000000000e+00 0.0000000000000000e+00 0.0000000000000000e+00  0.0000000000000000e+00 0.0000000000000000e+00 0.0000000000000000e+00  0.0000000000000000e+00 0.0000000000000000e+00 0.0000000000000000e+00  0.0000000000000000e+00 0.0000000000000000e+00 0.0000000000000000e+00  0.0000000000000000e+00 0.0000000000000000e+00 0.0000000000000000e+00  0.0000000000000000e+00 0.0000000000000000e+00 0.0000000000000000e+00  0.0000000000000000e+00 0.0000000000000000e+00 0.0000000000000000e+00  0.0000000000000000e+00 0.0000000000000000e+00 0.0000000000000000e+00  0.0000000000000000e+00 0.0000000000000000e+00 0.0000000000000000e+00  0.0000000000000000e+00 0.0000000000000000e+00 0.0000000000000000e+00  0.0000000000000000e+00 0.0000000000000000e+00 0.0000000000000000e+00  0.0000000000000000e+00 0.0000000000000000e+00 0.0000000000000000e+00  0.0000000000000000e+00 0.0000000000000000e+00 0.0000000000000000e+00  0.0000000000000000e+00 0.0000000000000000e+00 0.0000000000000000e+00  0.0000000000000000e+00 0.0000000000000000e+00 0.0000000000000000e+00  0.0000000000000000e+00 0.0000000000000000e+00 0.0000000000000000e+00  0.0000000000000000e+00 0.0000000000000000e+00 0.0000000000000000e+00  0.0000000000000000e+00 0.0000000000000000e+00 0.0000000000000000e+00  0.0000000000000000e+00 0.0000000000000000e+00 0.0000000000000000e+00  0.0000000000000000e+00 0.0000000000000000e+00 0.0000000000000000e+00  0.0000000000000000e+00 0.0000000000000000e+00 0.0000000000000000e+00  0.0000000000000000e+00 0.0000000000000000e+00 0.0000000000000000e+00  0.0000000000000000e+00 0.0000000000000000e+00 0.0000000000000000e+00  0.0000000000000000e+00 0.0000000000000000e+00 0.0000000000000000e+00  0.0000000000000000e+00 0.0000000000000000e+00 0.0000000000000000e+00  0.0000000000000000e+00 0.0000000000000000e+00 0.0000000000000000e+00  0.0000000000000000e+00 0.0000000000000000e+00 0.0000000000000000e+00  0.0000000000000000e+00 0.0000000000000000e+00 0.0000000000000000e+00  0.0000000000000000e+00 0.0000000000000000e+00 0.0000000000000000e+00  0.0000000000000000e+00 0.0000000000000000e+00 0.0000000000000000e+00  0.0000000000000000e+00 0.0000000000000000e+00 0.0000000000000000e+00  0.0000000000000000e+00 0.0000000000000000e+00 0.0000000000000000e+00  0.0000000000000000e+00 0.0000000000000000e+00 0.0000000000000000e+00  0.0000000000000000e+00 0.0000000000000000e+00 0.0000000000000000e+00  0.0000000000000000e+00 0.0000000000000000e+00 0.0000000000000000e+00  0.0000000000000000e+00 0.0000000000000000e+00 0.0000000000000000e+00  0.0000000000000000e+00 0.0000000000000000e+00 0.0000000000000000e+00  0.0000000000000000e+00 0.0000000000000000e+00 0.0000000000000000e+00  0.0000000000000000e+00 0.0000000000000000e+00 0.0000000000000000e+00  0.0000000000000000e+00 0.0000000000000000e+00 0.0000000000000000e+00  0.0000000000000000e+00 7.9371100463405299e-12 0.0000000000000000e+00  0.0000000000000000e+00 0.0000000000000000e+00 0.0000000000000000e+00  0.0000000000000000e+00 0.0000000000000000e+00 0.0000000000000000e+00  0.0000000000000000e+00 0.0000000000000000e+00 0.0000000000000000e+00  0.0000000000000000e+00 0.0000000000000000e+00 0.0000000000000000e+00  0.0000000000000000e+00 0.0000000000000000e+00 0.0000000000000000e+00  0.0000000000000000e+00 0.0000000000000000e+00 0.0000000000000000e+00  0.0000000000000000e+00 0.0000000000000000e+00 0.0000000000000000e+00  0.0000000000000000e+00 0.0000000000000000e+00 0.0000000000000000e+00  0.0000000000000000e+00 0.0000000000000000e+00 0.0000000000000000e+00  0.0000000000000000e+00 0.0000000000000000e+00 0.0000000000000000e+00  0.0000000000000000e+00 0.0000000000000000e+00 0.0000000000000000e+00  0.0000000000000000e+00 0.0000000000000000e+00 0.0000000000000000e+00  0.0000000000000000e+00 0.0000000000000000e+00 0.0000000000000000e+00  0.0000000000000000e+00 0.0000000000000000e+00 0.0000000000000000e+00  0.0000000000000000e+00 0.0000000000000000e+00 0.0000000000000000e+00  0.0000000000000000e+00 0.0000000000000000e+00 0.0000000000000000e+00  0.0000000000000000e+00 0.0000000000000000e+00 0.0000000000000000e+00  0.0000000000000000e+00 0.0000000000000000e+00 0.0000000000000000e+00  0.0000000000000000e+00 0.0000000000000000e+00 0.0000000000000000e+00  0.0000000000000000e+00 0.0000000000000000e+00 0.0000000000000000e+00  0.0000000000000000e+00 0.0000000000000000e+00 0.0000000000000000e+00  0.0000000000000000e+00 0.0000000000000000e+00 0.0000000000000000e+00  0.0000000000000000e+00 0.0000000000000000e+00 0.0000000000000000e+00  0.0000000000000000e+00 0.0000000000000000e+00 0.0000000000000000e+00  0.0000000000000000e+00 0.0000000000000000e+00 0.0000000000000000e+00  0.0000000000000000e+00 0.0000000000000000e+00 0.0000000000000000e+00  0.0000000000000000e+00 0.0000000000000000e+00 0.0000000000000000e+00  0.0000000000000000e+00 0.0000000000000000e+00 0.0000000000000000e+00  0.0000000000000000e+00 0.0000000000000000e+00 0.0000000000000000e+00  0.0000000000000000e+00 0.0000000000000000e+00 0.0000000000000000e+00  0.0000000000000000e+00 0.0000000000000000e+00 0.0000000000000000e+00  0.0000000000000000e+00 0.0000000000000000e+00 0.0000000000000000e+00  0.0000000000000000e+00 0.0000000000000000e+00 0.0000000000000000e+00  0.0000000000000000e+00 0.0000000000000000e+00 0.0000000000000000e+00  0.0000000000000000e+00 0.0000000000000000e+00 0.0000000000000000e+00  0.0000000000000000e+00 0.0000000000000000e+00 0.0000000000000000e+00  0.0000000000000000e+00 0.0000000000000000e+00 0.0000000000000000e+00  0.0000000000000000e+00 0.0000000000000000e+00 0.0000000000000000e+00  0.0000000000000000e+00 0.0000000000000000e+00 0.0000000000000000e+00  0.0000000000000000e+00 0.0000000000000000e+00 0.0000000000000000e+00  0.0000000000000000e+00 0.0000000000000000e+00 0.0000000000000000e+00  0.0000000000000000e+00 0.0000000000000000e+00 0.0000000000000000e+00  0.0000000000000000e+00 0.0000000000000000e+00 0.0000000000000000e+00  0.0000000000000000e+00 0.0000000000000000e+00 0.0000000000000000e+00  0.0000000000000000e+00 0.0000000000000000e+00 0.0000000000000000e+00  0.0000000000000000e+00 0.0000000000000000e+00 0.0000000000000000e+00  0.0000000000000000e+00 0.0000000000000000e+00 0.0000000000000000e+00  0.0000000000000000e+00 0.0000000000000000e+00 0.0000000000000000e+00  0.0000000000000000e+00 0.0000000000000000e+00 0.0000000000000000e+00  0.0000000000000000e+00 0.0000000000000000e+00 0.0000000000000000e+00  0.0000000000000000e+00 0.0000000000000000e+00 0.0000000000000000e+00  0.0000000000000000e+00 0.0000000000000000e+00 0.0000000000000000e+00  0.0000000000000000e+00 0.0000000000000000e+00 0.0000000000000000e+00  0.0000000000000000e+00 0.0000000000000000e+00 0.0000000000000000e+00  0.0000000000000000e+00 0.0000000000000000e+00 0.0000000000000000e+00  0.0000000000000000e+00 0.0000000000000000e+00 0.0000000000000000e+00  0.0000000000000000e+00 0.0000000000000000e+00 0.0000000000000000e+00  0.0000000000000000e+00 0.0000000000000000e+00 0.0000000000000000e+00  0.0000000000000000e+00 0.0000000000000000e+00 0.0000000000000000e+00  0.0000000000000000e+00 0.0000000000000000e+00 0.0000000000000000e+00  0.0000000000000000e+00 0.0000000000000000e+00 0.0000000000000000e+00  0.0000000000000000e+00 0.0000000000000000e+00 0.0000000000000000e+00  0.0000000000000000e+00 0.0000000000000000e+00 0.0000000000000000e+00  0.0000000000000000e+00 0.0000000000000000e+00 0.0000000000000000e+00  0.0000000000000000e+00 0.0000000000000000e+00 0.0000000000000000e+00  0.0000000000000000e+00 0.0000000000000000e+00 0.0000000000000000e+00  0.0000000000000000e+00 0.0000000000000000e+00 0.0000000000000000e+00  0.0000000000000000e+00 0.0000000000000000e+00 0.0000000000000000e+00  0.0000000000000000e+00 0.0000000000000000e+00 0.0000000000000000e+00  0.0000000000000000e+00 0.0000000000000000e+00 0.0000000000000000e+00  0.0000000000000000e+00 0.0000000000000000e+00 0.0000000000000000e+00  0.0000000000000000e+00 0.0000000000000000e+00 0.0000000000000000e+00  0.0000000000000000e+00 0.0000000000000000e+00 0.0000000000000000e+00  0.0000000000000000e+00 0.0000000000000000e+00 0.0000000000000000e+00  0.0000000000000000e+00 0.0000000000000000e+00 0.0000000000000000e+00  0.0000000000000000e+00 0.0000000000000000e+00 0.0000000000000000e+00  0.0000000000000000e+00 0.0000000000000000e+00 0.0000000000000000e+00  0.0000000000000000e+00 0.0000000000000000e+00 0.0000000000000000e+00  1.7997658047788643e+00 -1.3370952598081352e+00 0.0000000000000000e+00  8.3198530591175572e+00 -6.4414270410980397e+00 0.0000000000000000e+00  2.7348922977517480e+00 -3.2861770361675293e+00 0.0000000000000000e+00  -9.3982042170045350e+00 6.5734815109159097e+00 0.0000000000000000e+00  1.2616844270196285e+01 1.5168767663873732e+01 0.0000000000000000e+00  -1.0681227838408448e+01 -1.5413847772667578e+01 0.0000000000000000e+00  -7.1494547142777227e+00 1.7372076195157209e+01 0.0000000000000000e+00  5.6268641350662838e+00 -1.7689579948153851e+00 0.0000000000000000e+00  -3.8994993476072452e+01 5.3068103478987453e+01 0.0000000000000000e+00  1.7829620153726470e+01 1.8205322084769058e+01 0.0000000000000000e+00  1.4148583029423362e+01 -2.2959594497549880e+01 0.0000000000000000e+00  -7.0428496002475143e+00 1.4549188838849938e+01 0.0000000000000000e+00  -1.5063042299764984e+01 -1.5823362955423734e+01 0.0000000000000000e+00  -9.1751094238045852e+00 -6.4996541848093967e+00 0.0000000000000000e+00  -1.9658944723915575e+01 3.0190161103139439e+00 0.0000000000000000e+00  -9.6452706644570423e+00 3.1448581942521415e+01 0.0000000000000000e+00  1.0637155857209772e+01 -2.1335566846539322e+01 0.0000000000000000e+00  1.5396381882872870e+01 -1.0094126062096016e+01 0.0000000000000000e+00  -4.9334728912129133e+00 1.8132661444927759e+01 0.0000000000000000e+00  1.1971804316825938e+01 -9.6674500635254894e+00 0.0000000000000000e+00  7.1023637396351527e+00 -2.0518433592508739e+01 0.0000000000000000e+00  1.5616951473810108e+01 -1.5870622637578668e+01 0.0000000000000000e+00  -2.3960523594516594e+01 1.4168310731998751e+01 0.0000000000000000e+00  -6.2214230496467744e+00 -3.8303261928969633e+01 0.0000000000000000e+00  7.0816165894188728e+01 -2.8515576047494214e+01 0.0000000000000000e+00  -9.2447307898389770e+00 1.3135176070419126e+01 0.0000000000000000e+00  3.7719551094717327e+00 9.0888880972818011e+00 0.0000000000000000e+00  -3.7288396678839845e+01 -1.2908190917212330e+00 0.0000000000000000e+00  -1.0538613351481189e+01 -3.1718514807507749e+01 0.0000000000000000e+00  1.4679346010235729e+01 7.8890503720217300e+00 0.0000000000000000e+00  8.0961306773476327e+00 -8.6908125724953744e-01 0.0000000000000000e+00  1.7121537454704456e+00 -2.4289718402405164e-01 0.0000000000000000e+00  -3.3512115695843381e+00 -1.1907580043831770e-01 0.0000000000000000e+00  -5.9516996902671991e+01 1.8074815823474612e+01 0.0000000000000000e+00  5.2132829365795263e+00 -2.2136532225665317e+01 0.0000000000000000e+00  2.6754967186342382e+00 7.0268869765166261e-02 0.0000000000000000e+00  -1.2930462816787736e+01 -8.1447907838873004e+00 0.0000000000000000e+00  9.4799879882833871e-01 1.9526330242454854e+01 0.0000000000000000e+00  5.3815537860295537e+00 5.4286762662247874e+00 0.0000000000000000e+00  -4.3508464352404399e+00 -3.1523010129187243e+00 0.0000000000000000e+00  -6.0431985964028190e+00 2.0019992179060655e+01 0.0000000000000000e+00  -1.4426616773071537e+01 -4.4067258301596537e+00 0.0000000000000000e+00  -1.2656794411529741e+01 -6.0807595954428759e+00 0.0000000000000000e+00  1.0500038257792685e+01 -4.9726502581433447e+00 0.0000000000000000e+00  2.7660756778661777e+00 -1.8398718175462278e+01 0.0000000000000000e+00  2.9590903984352654e+01 -8.1248387910309123e+00 0.0000000000000000e+00  -2.4527801245277137e+0