<?xml version="1.0"?>
<VTKFile type="UnstructuredGrid"  version="0.1"  >
<UnstructuredGrid>
<Piece  NumberOfPoints="1419" NumberOfCells="2698">
<Points>
<DataArray  type="Float64"  NumberOfComponents="3"  format="ascii">0 0 0  0 0.41 0  2.5 0 0  2.5 0.41 0  0.6000158969376149 0.1897188039538537 0  0.600039176548954 0.2097105700645767 0  0.25 0.2 0  0.15 0.2 0  0.2489897948556636 0.21 0  0.2489897948556636 0.19 0  0.6000264953636785 0.1997146885004173 0  0 0.3807142857143437 0  0 0.3514285714286952 0  0 0.3221428571430699 0  0 0.29285714285744 0  0 0.2635714285718054 0  0 0.2342857142861561 0  0 0.2050000000005308 0  0 0.175714285714732 0  0 0.1464285714289574 0  0 0.1171428571431897 0  0 0.08785714285737878 0  0 0.05857142857161107 0  0 0.02928571428580012 0  0.03015443760436003 0 0  0.06140001986583606 0 0  0.09377624077125973 0 0  0.1273239957535082 0 0  0.1620856860351972 0 0  0.1981052433264291 0 0  0.235428184091502 0 0  0.2741016576309132 0 0  0.3141745521465447 0 0  0.3556974926295285 0 0  0.3987229542472677 0 0  0.4433053055141081 0 0  0.4895008759286886 0 0  0.5373680609405097 0 0  0.5869673343216626 0 0  0.6383613676634521 0 0  0.6916151138468254 0 0  0.7467958595648856 0 0  0.8039733463919316 0 0  0.8632198139502143 0 0  0.9246101326867038 0 0  0.9882218810934433 0 0  1.054135445558498 0 0  1.122434100542598 0 0  1.193204177141305 0 0  1.266535089879536 0 0  1.342519516046404 0 0  1.421253448503939 0 0  1.502836389106271 0 0  1.587371439758838 0 0  1.674965418777374 0 0  1.765729001825544 0 0  1.859776908880082 0 0  1.957227977487062 0 0  2.058205329869943 0 0  2.162836591189951 0 0  2.271253957290865 0 0  2.383594446803425 0 0  2.5 0.1024999999997612 0  2.5 0.2049999999994743 0  2.5 0.3074999999997183 0  2.383594446803656 0.41 0  2.271253957291315 0.41 0  2.162836591190598 0.41 0  2.058205329870775 0.41 0  1.957227977488067 0.41 0  1.859776908881246 0.41 0  1.765729001826854 0.41 0  1.674965418778818 0.41 0  1.58737143976041 0.41 0  1.502836389107956 0.41 0  1.421253448505726 0.41 0  1.342519516048286 0.41 0  1.266535089881505 0.41 0  1.193204177143353 0.41 0  1.122434100544716 0.41 0  1.05413544556068 0.41 0  0.9882218810956305 0.41 0  0.9246101326886647 0.41 0  0.8632198139519631 0.41 0  0.8039733463934788 0.41 0  0.7467958595662458 0.41 0  0.6916151138480078 0.41 0  0.6383613676644679 0.41 0  0.5869673343225223 0.41 0  0.5373680609412221 0.41 0  0.4895008759292634 0.41 0  0.4433053055145528 0.41 0  0.3987229542475914 0.41 0  0.3556974926297398 0.41 0  0.3141745521466497 0.41 0  0.2741016576310038 0.41 0  0.2354281840915826 0.41 0  0.1981052433265003 0.41 0  0.1620856860352591 0.41 0  0.1273239957535623 0.41 0  0.09377624077128965 0.41 0  0.06140001986584975 0.41 0  0.03015443760436654 0.41 0  0.2497468076502589 0.2050254481002335 0  0.2497468076502614 0.1949745518997913 0  0.2469965252529372 0.1829317073451959 0  0.2439893735792749 0.1762316384219906 0  0.2400332147834255 0.1700443375285386 0  0.2352133972704371 0.1645032867342007 0  0.2296339016332438 0.1597280261969788 0  0.2234150974217223 0.1558215752574715 0  0.2166911463437691 0.1528682099456123 0  0.2096071079204251 0.1509316448471593 0  0.2023158100364996 0.1500536585536553 0  0.194974551899914 0.1502531923497262 0  0.1877417105387872 0.1515259415822739 0  0.1807733240461124 0.153844448527136 0  0.1742197252835808 0.15715869474974 0  0.1682222986673531 0.1613971801805478 0  0.162910430003803 0.1664684656256651 0  0.1583987151779087 0.1722631454351573 0  0.1547844879126891 0.178656207771761 0  0.1521457199348551 0.1855097315605723 0  0.1505393388476355 0.1926758619366523 0  0.1505393388476328 0.2073241380633295 0  0.1521457199348437 0.2144902684393899 0  0.1547844879126531 0.221343792228163 0  0.1583987151778488 0.2277368545647528 0  0.1629104300036858 0.2335315343742052 0  0.1682222986671726 0.2386028198193036 0  0.1742197252833576 0.2428413052501257 0  0.1807733240458683 0.2461555514727623 0  0.1877417105384929 0.2484740584176516 0  0.1949745518995776 0.2497468076502398 0  0.202315810036185 0.2499463414463592 0  0.2096071079201568 0.2490683551528932 0  0.2166911463435495 0.2471317900544655 0  0.2234150974215506 0.2441784247426195 0  0.2296339016331197 0.2402719738031125 0  0.2352133972703547 0.2354967132658811 0  0.2400332147833751 0.2299556624715287 0  0.2439893735792577 0.2237683615780412 0  0.246996525252926 0.2170682926548348 0  0.2564605684071385 0.20999137273931 0  0.2639305114567222 0.2099907518970069 0  0.2714013903190752 0.2099901594837792 0  0.2788725033206313 0.2099892129845852 0  0.2863436281056689 0.2099878833543365 0  0.2938147883391976 0.2099861852138526 0  0.3012859155801009 0.2099841689688768 0  0.3087570361690516 0.2099817321734584 0  0.3162281078566997 0.2099789753428005 0  0.323699069978133 0.2099758404453768 0  0.331170030549039 0.209972363846234 0  0.3386408290831342 0.2099685272159163 0  0.3461115872553892 0.2099643483228493 0  0.3535821958225472 0.2099598688811571 0  0.3610527362945014 0.2099550210566063 0  0.3685231353445367 0.2099499000487166 0  0.3759933769753848 0.2099444626619494 0  0.383463545694413 0.2099387668018264 0  0.39093352395925 0.2099327853589364 0  0.3984034235469947 0.2099265702593165 0  0.4058731388955944 0.2099201065743294 0  0.4133427509130166 0.2099134289734367 0  0.4208121869389682 0.2099065618883216 0  0.4282815336919834 0.2098994767946957 0  0.4357507179164365 0.2098922336752866 0  0.4432197539098516 0.2098848170032778 0  0.4506886717304108 0.2098772676274776 0  0.4581574346457566 0.209869569098515 0  0.4656260776618324 0.2098617630380478 0  0.4730945707137972 0.2098538329057548 0  0.4805629421850679 0.2098458187497284 0  0.4880311679427637 0.2098377028982223 0  0.4954992709466329 0.2098295239782887 0  0.5029672319051866 0.2098212633469842 0  0.510435068539895 0.2098129579138772 0  0.5179027663695513 0.2098045880808926 0  0.5253703384221163 0.2097961898903813 0  0.532837773746899 0.2097877420814743 0  0.5403050811767254 0.2097792800628352 0  0.5477722532262749 0.209770781540857 0  0.5552392957530878 0.2097622752608184 0  0.5627061815548677 0.2097537588712089 0  0.5701729698466512 0.2097452314550321 0  0.5776395954089418 0.2097367134512171 0  0.5851060925549794 0.2097282036798861 0  0.5925725927660936 0.2097197579420475 0  0.6000324832615654 0.2047125710760028 0  0.6000208545446174 0.194716801299868 0  0.5925493114410073 0.189726999470983 0  0.5850828178980942 0.189735939488583 0  0.5776163375541653 0.189744815032045 0  0.5701497337546246 0.1897536768521177 0  0.5626829762080113 0.1897625127894249 0  0.5552161269120806 0.1897713346047687 0  0.5477491307779941 0.1897801416426724 0  0.540282018706039 0.1897889114277483 0  0.5328147932062852 0.1897976768457983 0  0.5253474450961785 0.1898063873907537 0  0.5178799915852641 0.1898150833581164 0  0.5104124156288909 0.1898237118006388 0  0.5029447407485365 0.1898323111869628 0  0.495476942692 0.1898408279291906 0  0.4880090521096004 0.1898492986176936 0  0.4805410365770678 0.189857668858034 0  0.4730729351258884 0.1898659735032831 0  0.4656047060901362 0.1898741571371089 0  0.458136398044203 0.1898822528491724 0  0.4506679591552918 0.1898902042211293 0  0.4431994480189953 0.1898980423252052 0  0.4357308039880876 0.1899057129601055 0  0.4282620871422703 0.1899132308513951 0  0.4207932493716711 0.1899205869259511 0  0.4133243361469906 0.1899277216436109 0  0.4058553131763831 0.1899346667393451 0  0.3983861771227162 0.189941379438195 0  0.3909169760608026 0.1899478662678176 0  0.383447648795441 0.1899540867408992 0  0.3759782643132818 0.1899600467920509 0  0.3685087548350005 0.1899657116427709 0  0.3610391826724536 0.1899710753897442 0  0.3535695140741837 0.1899761480037294 0  0.3460997807886093 0.1899808374227072 0  0.338629963089024 0.1899852075198687 0  0.3311600483404107 0.1899892096321022 0  0.3236901121497773 0.1899928493064628 0  0.3162200715207122 0.1899961056239457 0  0.3087500102198318 0.1899989743104741 0  0.3012798923158685 0.1900014817810545 0  0.2938097464683266 0.1900035460234478 0  0.2863395685056553 0.190005250584419 0  0.2788693316233842 0.1900065800194584 0  0.2713991686174192 0.1900075991946487 0  0.2639290996811064 0.1900083021642624 0  0.256459927747073 0.1900082795010724 0  0.2607820524082513 0.2000725219474795 0  0.5888103054297377 0.1998549423987049 0  0.5745408571509752 0.199948722362802 0  0.5512273077212073 0.1998836669551262 0  0.2751355529050936 0.1999986413425501 0  0.5365597468513191 0.1997884247258694 0  0.2894733280552976 0.1998653953974672 0  0.5216249678074871 0.199805593690559 0  0.3127973796479908 0.1998550031710074 0  0.3274297061322658 0.1999828346535791 0  0.5066896980883203 0.1998226038971894 0  0.3650953795704791 0.199826552724028 0  0.4768177066743496 0.1998558946998824 0  0.3417668383636904 0.1998445977390061 0  0.3797205578742957 0.199949546962381 0  0.4618809901755293 0.1998720237351037 0  0.4917539432834906 0.1998393944440812 0  0.394659866150901 0.1999373339114602 0  0.4469437945693229 0.1998876897777861 0  0.4089951819054283 0.1997939505357906 0  0.4323148877265403 0.200029846279819 0  0.4201904304368531 0.1999108874995392 0  0.3529217947627088 0.1999871621505439 0  0.5633479773903592 0.1997388216561195 0  0.3006706074390518 0.1999898358556306 0  0.5816204753450253 0.1963919558043576 0  0.2677093516189534 0.1964272646309736 0  0.5290890923767555 0.1968900704316298 0  0.5440236003948383 0.1968727586676354 0  0.2825228210583273 0.2035423020178836 0  0.3199604795082002 0.2028921334784989 0  0.4842826937940922 0.1969409692649928 0  0.5141540997670542 0.1969072476780299 0  0.3722528811815723 0.2028613676503511 0  0.4693462911562799 0.196957372891283 0  0.3349016191195314 0.2028850521313899 0  0.3871926314220017 0.2028497661933593 0  0.4544094269997423 0.1969733604764915 0  0.4992186314939112 0.1969242357227112 0  0.4020484304424827 0.2034762050618136 0  0.4394721046670882 0.1969888354200335 0  0.2550655867068985 0.2034064383416558 0  0.2548904969286456 0.1966963615480836 0  0.594684852234928 0.2021503501
[...]
<PointData  Vectors="f_46-0"> 
<DataArray  type="Float64"  Name="f_46-0"  NumberOfComponents="3" format="ascii">0.0000000000000000e+00 0.0000000000000000e+00 0.0000000000000000e+00  0.0000000000000000e+00 0.0000000000000000e+00 0.0000000000000000e+00  0.0000000000000000e+00 0.0000000000000000e+00 0.0000000000000000e+00  0.0000000000000000e+00 0.0000000000000000e+00 0.0000000000000000e+00  9.9962348902561169e-05 -4.3345906572313068e-04 0.0000000000000000e+00  1.4407150687600326e-04 -4.7332411669069856e-04 0.0000000000000000e+00  0.0000000000000000e+00 0.0000000000000000e+00 0.0000000000000000e+00  0.0000000000000000e+00 0.0000000000000000e+00 0.0000000000000000e+00  0.0000000000000000e+00 0.0000000000000000e+00 0.0000000000000000e+00  0.0000000000000000e+00 0.0000000000000000e+00 0.0000000000000000e+00  1.0828251899850614e-04 -4.5267542039710806e-04 0.0000000000000000e+00  1.7094312221618915e-01 0.0000000000000000e+00 0.0000000000000000e+00  3.1558730255298545e-01 0.0000000000000000e+00 0.0000000000000000e+00  4.3393254101035522e-01 0.0000000000000000e+00 0.0000000000000000e+00  5.2597883758843511e-01 0.0000000000000000e+00 0.0000000000000000e+00  5.9172619228721335e-01 0.0000000000000000e+00 0.0000000000000000e+00  6.3117460510668610e-01 0.0000000000000000e+00 0.0000000000000000e+00  6.4432407604681374e-01 0.0000000000000000e+00 0.0000000000000000e+00  6.3117460510748347e-01 0.0000000000000000e+00 0.0000000000000000e+00  5.9172619228858336e-01 0.0000000000000000e+00 0.0000000000000000e+00  5.2597883759013164e-01 0.0000000000000000e+00 0.0000000000000000e+00  4.3393254101196688e-01 0.0000000000000000e+00 0.0000000000000000e+00  3.1558730255436085e-01 0.0000000000000000e+00 0.0000000000000000e+00  1.7094312221696409e-01 0.0000000000000000e+00 0.0000000000000000e+00  0.0000000000000000e+00 0.0000000000000000e+00 0.0000000000000000e+00  0.0000000000000000e+00 0.0000000000000000e+00 0.0000000000000000e+00  0.0000000000000000e+00 0.0000000000000000e+00 0.0000000000000000e+00  0.0000000000000000e+00 0.0000000000000000e+00 0.0000000000000000e+00  0.0000000000000000e+00 0.0000000000000000e+00 0.0000000000000000e+00  0.0000000000000000e+00 0.0000000000000000e+00 0.0000000000000000e+00  0.0000000000000000e+00 0.0000000000000000e+00 0.0000000000000000e+00  0.0000000000000000e+00 0.0000000000000000e+00 0.0000000000000000e+00  0.0000000000000000e+00 0.0000000000000000e+00 0.0000000000000000e+00  0.0000000000000000e+00 0.0000000000000000e+00 0.0000000000000000e+00  0.0000000000000000e+00 0.0000000000000000e+00 0.0000000000000000e+00  0.0000000000000000e+00 0.0000000000000000e+00 0.0000000000000000e+00  0.0000000000000000e+00 0.0000000000000000e+00 0.0000000000000000e+00  0.0000000000000000e+00 0.0000000000000000e+00 0.0000000000000000e+00  0.0000000000000000e+00 0.0000000000000000e+00 0.0000000000000000e+00  0.0000000000000000e+00 0.0000000000000000e+00 0.0000000000000000e+00  0.0000000000000000e+00 0.0000000000000000e+00 0.0000000000000000e+00  0.0000000000000000e+00 0.0000000000000000e+00 0.0000000000000000e+00  0.0000000000000000e+00 0.0000000000000000e+00 0.0000000000000000e+00  0.0000000000000000e+00 0.0000000000000000e+00 0.0000000000000000e+00  0.0000000000000000e+00 0.0000000000000000e+00 0.0000000000000000e+00  0.0000000000000000e+00 0.0000000000000000e+00 0.0000000000000000e+00  0.0000000000000000e+00 0.0000000000000000e+00 0.0000000000000000e+00  0.0000000000000000e+00 0.0000000000000000e+00 0.0000000000000000e+00  0.0000000000000000e+00 0.0000000000000000e+00 0.0000000000000000e+00  0.0000000000000000e+00 0.0000000000000000e+00 0.0000000000000000e+00  0.0000000000000000e+00 0.0000000000000000e+00 0.0000000000000000e+00  0.0000000000000000e+00 0.0000000000000000e+00 0.0000000000000000e+00  0.0000000000000000e+00 0.0000000000000000e+00 0.0000000000000000e+00  0.0000000000000000e+00 0.0000000000000000e+00 0.0000000000000000e+00  0.0000000000000000e+00 0.0000000000000000e+00 0.0000000000000000e+00  0.0000000000000000e+00 0.0000000000000000e+00 0.0000000000000000e+00  0.0000000000000000e+00 0.0000000000000000e+00 0.0000000000000000e+00  0.0000000000000000e+00 0.0000000000000000e+00 0.0000000000000000e+00  0.0000000000000000e+00 0.0000000000000000e+00 0.0000000000000000e+00  0.0000000000000000e+00 0.0000000000000000e+00 0.0000000000000000e+00  0.0000000000000000e+00 0.0000000000000000e+00 0.0000000000000000e+00  0.0000000000000000e+00 0.0000000000000000e+00 0.0000000000000000e+00  4.4806693792968544e-01 1.2421727242964895e-02 0.0000000000000000e+00  4.7262838133463103e-01 1.9285275769036999e-03 0.0000000000000000e+00  4.4415599020086671e-01 -1.3825196540715809e-02 0.0000000000000000e+00  0.0000000000000000e+00 0.0000000000000000e+00 0.0000000000000000e+00  0.0000000000000000e+00 0.0000000000000000e+00 0.0000000000000000e+00  0.0000000000000000e+00 0.0000000000000000e+00 0.0000000000000000e+00  0.0000000000000000e+00 0.0000000000000000e+00 0.0000000000000000e+00  0.0000000000000000e+00 0.0000000000000000e+00 0.0000000000000000e+00  0.0000000000000000e+00 0.0000000000000000e+00 0.0000000000000000e+00  0.0000000000000000e+00 0.0000000000000000e+00 0.0000000000000000e+00  0.0000000000000000e+00 0.0000000000000000e+00 0.0000000000000000e+00  0.0000000000000000e+00 0.0000000000000000e+00 0.0000000000000000e+00  0.0000000000000000e+00 0.0000000000000000e+00 0.0000000000000000e+00  0.0000000000000000e+00 0.0000000000000000e+00 0.0000000000000000e+00  0.0000000000000000e+00 0.0000000000000000e+00 0.0000000000000000e+00  0.0000000000000000e+00 0.0000000000000000e+00 0.0000000000000000e+00  0.0000000000000000e+00 0.0000000000000000e+00 0.0000000000000000e+00  0.0000000000000000e+00 0.0000000000000000e+00 0.0000000000000000e+00  0.0000000000000000e+00 0.0000000000000000e+00 0.0000000000000000e+00  0.0000000000000000e+00 0.0000000000000000e+00 0.0000000000000000e+00  0.0000000000000000e+00 0.0000000000000000e+00 0.0000000000000000e+00  0.0000000000000000e+00 0.0000000000000000e+00 0.0000000000000000e+00  0.0000000000000000e+00 0.0000000000000000e+00 0.0000000000000000e+00  0.0000000000000000e+00 0.0000000000000000e+00 0.0000000000000000e+00  0.0000000000000000e+00 0.0000000000000000e+00 0.0000000000000000e+00  0.0000000000000000e+00 0.0000000000000000e+00 0.0000000000000000e+00  0.0000000000000000e+00 0.0000000000000000e+00 0.0000000000000000e+00  0.0000000000000000e+00 0.0000000000000000e+00 0.0000000000000000e+00  0.0000000000000000e+00 0.0000000000000000e+00 0.0000000000000000e+00  0.0000000000000000e+00 0.0000000000000000e+00 0.0000000000000000e+00  0.0000000000000000e+00 0.0000000000000000e+00 0.0000000000000000e+00  0.0000000000000000e+00 0.0000000000000000e+00 0.0000000000000000e+00  0.0000000000000000e+00 0.0000000000000000e+00 0.0000000000000000e+00  0.0000000000000000e+00 0.0000000000000000e+00 0.0000000000000000e+00  0.0000000000000000e+00 0.0000000000000000e+00 0.0000000000000000e+00  0.0000000000000000e+00 0.0000000000000000e+00 0.0000000000000000e+00  0.0000000000000000e+00 0.0000000000000000e+00 0.0000000000000000e+00  0.0000000000000000e+00 0.0000000000000000e+00 0.0000000000000000e+00  0.0000000000000000e+00 0.0000000000000000e+00 0.0000000000000000e+00  0.0000000000000000e+00 0.0000000000000000e+00 0.0000000000000000e+00  0.0000000000000000e+00 0.0000000000000000e+00 0.0000000000000000e+00  0.0000000000000000e+00 0.0000000000000000e+00 0.0000000000000000e+00  0.0000000000000000e+00 0.0000000000000000e+00 0.0000000000000000e+00  0.0000000000000000e+00 0.0000000000000000e+00 0.0000000000000000e+00  0.0000000000000000e+00 0.0000000000000000e+00 0.0000000000000000e+00  0.0000000000000000e+00 0.0000000000000000e+00 0.0000000000000000e+00  0.0000000000000000e+00 0.0000000000000000e+00 0.0000000000000000e+00  0.0000000000000000e+00 0.0000000000000000e+00 0.0000000000000000e+00  0.0000000000000000e+00 0.0000000000000000e+00 0.0000000000000000e+00  0.0000000000000000e+00 0.0000000000000000e+00 0.0000000000000000e+00  0.0000000000000000e+00 0.0000000000000000e+00 0.0000000000000000e+00  0.0000000000000000e+00 0.0000000000000000e+00 0.0000000000000000e+00  0.0000000000000000e+00 0.0000000000000000e+00 0.0000000000000000e+00  0.0000000000000000e+00 0.0000000000000000e+00 0.0000000000000000e+00  0.0000000000000000e+00 0.0000000000000000e+00 0.0000000000000000e+00  0.0000000000000000e+00 0.0000000000000000e+00 0.0000000000000000e+00  0.0000000000000000e+00 0.0000000000000000e+00 0.0000000000000000e+00  0.0000000000000000e+00 0.0000000000000000e+00 0.0000000000000000e+00  0.0000000000000000e+00 0.0000000000000000e+00 0.0000000000000000e+00  0.0000000000000000e+00 0.0000000000000000e+00 0.0000000000000000e+00  0.0000000000000000e+00 0.0000000000000000e+00 0.0000000000000000e+00  0.0000000000000000e+00 0.0000000000000000e+00 0.0000000000000000e+00  0.0000000000000000e+00 0.0000000000000000e+00 0.0000000000000000e+00  0.0000000000000000e+00 0.0000000000000000e+00 0.0000000000000000e+00  0.0000000000000000e+00 0.0000000000000000e+00 0.0000000000000000e+00  0.0000000000000000e+00 0.0000000000000000e+00 0.0000000000000000e+00  0.0000000000000000e+00 0.0000000000000000e+00 0.0000000000000000e+00  0.0000000000000000e+00 0.0000000000000000e+00 0.0000000000000000e+00  0.0000000000000000e+00 0.0000000000000000e+00 0.0000000000000000e+00  0.0000000000000000e+00 0.0000000000000000e+00 0.0000000000000000e+00  0.0000000000000000e+00 0.0000000000000000e+00 0.0000000000000000e+00  0.0000000000000000e+00 0.0000000000000000e+00 0.0000000000000000e+00  0.0000000000000000e+00 0.0000000000000000e+00 0.0000000000000000e+00  0.0000000000000000e+00 0.0000000000000000e+00 0.0000000000000000e+00  0.0000000000000000e+00 0.0000000000000000e+00 0.0000000000000000e+00  0.0000000000000000e+00 0.0000000000000000e+00 0.0000000000000000e+00  0.0000000000000000e+00 0.0000000000000000e+00 0.0000000000000000e+00  0.0000000000000000e+00 0.0000000000000000e+00 0.0000000000000000e+00  0.0000000000000000e+00 0.0000000000000000e+00 0.0000000000000000e+00  0.0000000000000000e+00 0.0000000000000000e+00 0.0000000000000000e+00  0.0000000000000000e+00 0.0000000000000000e+00 0.0000000000000000e+00  -3.5130033349623159e-06 6.0654619082895637e-05 0.0000000000000000e+00  2.6238741329786836e-06 2.6201540348650572e-06 0.0000000000000000e+00  1.8746756965018877e-06 -5.3386084997539258e-07 0.0000000000000000e+00  3.7803397343235729e-06 -1.5214292494884864e-07 0.0000000000000000e+00  8.3217477546584111e-06 7.5288671844689143e-07 0.0000000000000000e+00  1.0372697000981906e-05 2.2503563652437474e-06 0.0000000000000000e+00  1.4728472404133253e-05 -5.5301676102920290e-07 0.0000000000000000e+00  1.7036109356612535e-05 1.9551900811123456e-06 0.0000000000000000e+00  2.0171553202151436e-05 -2.4659795806181514e-07 0.0000000000000000e+00  2.8063783222046198e-05 -1.3530906760304645e-06 0.0000000000000000e+00  2.9132927144058228e-05 -4.7137929647546174e-06 0.0000000000000000e+00  3.7496972744200160e-05 -7.7649205082966032e-06 0.0000000000000000e+00  4.0440562162478581e-05 -1.1647464972848734e-05 0.0000000000000000e+00  4.7519397283352216e-05 -1.9270900413724046e-05 0.0000000000000000e+00  5.0145317573373037e-05 -2.3049887354410270e-05 0.0000000000000000e+00  5.4808046623917273e-05 -3.1054753100949079e-05 0.0000000000000000e+00  6.2427656009449471e-05 -3.7597590845117677e-05 0.0000000000000000e+00  6.4490745115472538e-05 -4.7124776459208932e-05 0.0000000000000000e+00  7.2022290728235942e-05 -5.5287794932029478e-05 0.0000000000000000e+00  7.3973279000624163e-05 -6.5879150029983917e-05 0.0000000000000000e+00  8.0395864501850781e-05 -7.5736420890476166e-05 0.0000000000000000e+00  8.3313623321834218e-05 -8.6860641934927393e-05 0.0000000000000000e+00  8.9695350187216587e-05 -9.9983955316733687e-05 0.0000000000000000e+00  9.1192634763868262e-05 -1.1090106790888263e-04 0.0000000000000000e+00  9.4817332645724006e-05 -1.2406865462350757e-04 0.0000000000000000e+00  9.9228493787224494e-05 -1.3641977369831652e-04 0.0000000000000000e+00  1.0155198829579343e-04 -1.5065621033066528e-04 0.0000000000000000e+00  1.0544049831225857e-04 -1.6376778507717720e-04 0.0000000000000000e+00  1.0752240875801763e-04 -1.7859665767375489e-04 0.0000000000000000e+00  1.1083406976153599e-04 -1.9228189996125389e-04 0.0000000000000000e+00  1.1265556561425472e-04 -2.0758672229196902e-04 0.0000000000000000e+00  1.1542587837769308e-04 -2.2169369655532079e-04 0.0000000000000000e+00  1.1698295641967452e-04 -2.3735896701158833e-04 0.0000000000000000e+00  1.1924804402954978e-04 -2.5176174152427908e-04 0.0000000000000000e+00  1.2053334256548614e-04 -2.6767772020836399e-04 0.0000000000000000e+00  1.2232193369440374e-04 -2.8229080160620636e-04 0.0000000000000000e+00  1.2334353252104675e-04 -2.9837963968240582e-04 0.0000000000000000e+00  1.2468257952724033e-04 -3.1311791240572906e-04 0.0000000000000000e+00  1.2544926195781874e-04 -3.2931835253234142e-04 0.0000000000000000e+00  1.2631922226723037e-04 -3.4418652223742395e-04 0.0000000000000000e+00  1.2665583614214726e-04 -3.5997234481870328e-04 0.0000000000000000e+00  1.2894091653100761e-04 -3.7588462225663489e-04 0.0000000000000000e+00  1.2715653082099305e-04 -3.9128252583276710e-04 0.0000000000000000e+00  1.2733701196487502e-04 -4.0718886679286546e-04 0.0000000000000000e+00  1.2763221282844665e-04 -4.2191369663541450e-04 0.0000000000000000e+00  1.2573221479307092e-04 -4.4647795180918467e-04 0.0000000000000000e+00  1.2345804199430884e-04 -4.5426703687943837e-04 0.0000000000000000e+00  1.0255479765698931e-04 -4.5212268702613900e-04 0.0000000000000000e+00  8.5084313531247609e-05 -4.2682725668868535e-04 0.0000000000000000e+00  8.5813653567696653e-05 -4.1968787866405999e-04 0.0000000000000000e+00  8.5220359280429599e-05 -4.0260714895635076e-04 0.0000000000000000e+00  8.4962252690186555e-05 -3.8721027411222459e-04 0.0000000000000000e+00  8.6570916642109404e-05 -3.7123549130929862e-04 0.0000000000000000e+00  8.4458257858146114e-05 -3.5546636976904018e-04 0.0000000000000000e+00  8.4471900694107661e-05 -3.4002632719162709e-04 0.0000000000000000e+00  8.3937878880568995e-05 -3.2312863736216028e-04 0.0000000000000000e+00  8.2793854103497554e-05 -3.0841839632246343e-04 0.0000000000000000e+00  8.2204623701119073e-05 -2.9151609964526672e-04 0.0000000000000000e+00  8.0617585993843596e-05 -2.7692472197535012e-04 0.0000000000000000e+00  7.9909018662945711e-05 -2.6018124806855231e-04 0.0000000000000000e+00  7.7889834909715731e-05 -2.4574466101371707e-04 0.0000000000000000e+00  7.7102270978285636e-05 -2.2922801765417692e-04 0.0000000000000000e+00  7.4638050560495799e-05 -2.1503002562547113e-04 0.0000000000000000e+00  7.3812987830054847e-05 -1.9882983793295068e-04 0.0000000000000000e+00  7.0890956515661999e-05 -1.8497820436521787e-04 0.0000000000000000e+00  7.0068038151854228e-05 -1.6921008432086704e-04 0.0000000000000000e+00  6.6680733723906358e-05 -1.5584222928555317e-04 0.0000000000000000e+00  6.5900500481852809e-05 -1.4065131887333712e-04 0.0000000000000000e+00  6.2083180098007954e-05 -1.2787698905575114e-04 0.0000000000000000e+00  6.1245354629777245e-05 -1.1364372801298773e-04 0.0000000000000000e+00  5.7606250371012439e-05 -1.0071172716381953e-04 0.0000000000000000e+00  5.6046978126164901e-05 -8.9778352478229987e-05 0.0000000000000000e+00  5.1983787458909027e-05 -7.6457114423953483e-05 0.0000000000000000e+00  4.9107618104046620e-05 -6.5360442941450470e-05 0.0000000000000000e+00  4.7798972748230516e-05 -5.3936515881380332e-05 0.0000000000000000e+00  4.3498649644585051e-05 -4.4480266232151296e-05 0.0000000000000000e+00  4.2330027439503397e-05 -3.4593653154419932e-05 0.0000000000000000e+00  3.7763341333723958e-05 -2.6560566367363466e-05 0.0000000000000000e+00  3.6625903106914599e-05 -1.8528736828983837e-05 0.0000000000000000e+00  3.3112050246214413e-05 -1.1551308443745815e-05 0.0000000000000000e+00  3.0899324702031982e-05 -8.1716247850481575e-06 0.0000000000000000e+00  2.7034505182155371e-05 -8.2035088587501208e-07 0.0000000000000000e+00  2.4052557710187392e-05 2.9420733119405683e-06 0.0000000000000000e+00  2.3691648037691370e-05 6.6164546136233388e-06 0.0000000000000000e+00  1.9038004134761835e-05 8.5476821861366627e-06 0.0000000000000000e+00  1.8939718906729055e-05 9.9877390755240810e-06 0.0000000000000000e+00  1.5784656914916086e-05 1.0710631674595159e-05 0.0000000000000000e+00  1.3942356160851206e-05 7.8129739220833722e-06 0.0000000000000000e+00  1.1306772426919095e-05 9.4430381393170754e-06 0.0000000000000000e+00  8.8723113075380186e-06 7.9072868877277403e-06 0.0000000000000000e+00  1.0011059186220332e-05 6.5866407053003218e-06 0.0000000000000000e+00  3.3900485144184336e-06 3.4175726077426721e-06 0.0000000000000000e+00  7.6516972485187112e-06 -3.5602074806993285e-06 0.0000000000000000e+00  6.9583365857902896e-07 -5.7722738163665271e-05 0.0000000000000000e+00  5.5599473697838537e-06 -1.3442170135880028e-06 0.0000000000000000e+00  1.0613444924495310e-04 -4.2891827009629481e-04 0.0000000000000000e+00  1.0645359100877137e-04 -3.9848693468354154e-04 0.0000000000000000e+00  1.0503336814461639e-04 -3.4947899269008564e-04 0.0000000000000000e+00  5.6522148325409799e-06 1.1317715787518334e-06 0.0000000000000000e+00  1.0316908479452858e-04 -3.1855470801169227e-04 0.0000000000000000e+00  9.9715958133875560e-06 5.0593667350997588e-06 0.0000000000000000e+00  1.0108185052892941e-04 -2.8733857783064834e-04 0.0000000000000000e+00  1.7818647577500610e-05 5.7562392239402529e-06 0.0000000000000000e+00  2.4612750263466453e-05 1.9076211092305653e-06 0.0000000000000000e+00  9.8364464744688760e-05 -2.5641571328483714e-04 0.0000000000000000e+00  4.3085063093774778e-05 -2.1005817405332944e-05 0.0000000000000000e+00  9.1029768704394204e-05 -1.9601367587814892e-04 0.0000000000000000e+00  3.2101795567100143e-05 -3.2657450616911757e-06 0.0000000000000000e+00  5.0882999104239057e-05 -3.6656068778544474e-05 0.0000000000000000e+00  8.6415681056257538e-05 -1.6695782913970001e-04 0.0000000000000000e+00  9.5013432990483508e-05 -2.2591119794918086e-04 0.0000000000000000e+00  5.8663627955674049e-05 -5.5063651687948151e-05 0.0000000000000000e+00  8.1213973536064247e-05 -1.3900663128059012e-04 0.0000000000000000e+00  6.5593324557373009e-05 -7.4842900961816572e-05 0.0000000000000000e+00  7.6118849408773805e-05 -1.1268405007514411e-04 0.0000000000000000e+00  7.2629462718270030e-05 -9.2913476248959617e-05 0.0000000000000000e+00  3.9068313880282272e-05 -1.1605302136453448e-05 0.0000000000000000e+00  1.0773938542209816e-04 -3.7490189694629634e-04 0.0000000000000000e+00  1.4412728993677415e-05 5.2949782115895544e-06 0.0000000000000000e+00  9.8956980802380088e-05 -4.1261513104252098e-04 0.0000000000000000e+00  4.6718122483694667e-06 -1.7608778693491824e-06 0.0000000000000000e+00  9.7087009982709457e-05 -3.0209075801078660e-04 0.0000000000000000e+00  9.8829362188837514e-05 -3.3343580609232471e-04 0.0000000000000000e+00  7.0426087595717932e-06 1.7206514963091015e-06 0.0000000000000000e+00  2.2590123762340121e-05 2.2768309960594750e-06 0.0000000000000000e+00  8.8210947971649161e-05 -2.0980599190060676e-04 0.0000000000000000e+00  9.4729292616330872e-05 -2.7093111622481523e-04 0.0000000000000000e+00  5.1095601529018461e-05 -3.0388328309744267e-05 0.0000000000000000e+00  8.4068322951036446e-05 -1.8021844140989478e-04 0.0000000000000000e+00  3.0049221348747362e-05 -2.6740114263438614e-06 0.0000000000000000e+00  5.9200309634553629e-05 -4.7384461929922589e-05 0.0000000000000000e+00  7.9348357141718041e-05 -1.5161306720179500e-04 0.0000000000000000e+00  9.1767441952226312e-05 -2.4011438377360099e-04 0.0000000000000000e+00  6.7983976977339892e-05 -6.7395085712677598e-05 0.0000000000000000e+00  7.4027653073903334e-05 -1.2429774817095026e-04 0.0000000000000000e+00  2.9789309942041252e-05 -3.5543797494938930e-06 0.0000000000000000e+00  2.9263214450290100e-05 -2.7757252305805689e-06 0.0000000000000000e+00  1.1346141852109480e-04 -4.4362781612746182e-04 0.0000000000000000e+00  3.4969639843090755e-06 1.0947202222533670e-06 0.0000000000000000e+00  6.8426801483664103e-05 -1.0