<?xml version="1.0"?>
<VTKFile type="UnstructuredGrid"  version="0.1"  >
<UnstructuredGrid>
<Piece  NumberOfPoints="1419" NumberOfCells="2698">
<Points>
<DataArray  type="Float64"  NumberOfComponents="3"  format="ascii">0 0 0  0 0.41 0  2.5 0 0  2.5 0.41 0  0.6000207945901309 0.1896932846070712 0  0.6000466605842074 0.2096848983509169 0  0.25 0.2 0  0.15 0.2 0  0.2489897948556636 0.21 0  0.2489897948556636 0.19 0  0.6000326179662265 0.1996890932375406 0  0 0.3807142857143437 0  0 0.3514285714286952 0  0 0.3221428571430699 0  0 0.29285714285744 0  0 0.2635714285718054 0  0 0.2342857142861561 0  0 0.2050000000005308 0  0 0.175714285714732 0  0 0.1464285714289574 0  0 0.1171428571431897 0  0 0.08785714285737878 0  0 0.05857142857161107 0  0 0.02928571428580012 0  0.03015443760436003 0 0  0.06140001986583606 0 0  0.09377624077125973 0 0  0.1273239957535082 0 0  0.1620856860351972 0 0  0.1981052433264291 0 0  0.235428184091502 0 0  0.2741016576309132 0 0  0.3141745521465447 0 0  0.3556974926295285 0 0  0.3987229542472677 0 0  0.4433053055141081 0 0  0.4895008759286886 0 0  0.5373680609405097 0 0  0.5869673343216626 0 0  0.6383613676634521 0 0  0.6916151138468254 0 0  0.7467958595648856 0 0  0.8039733463919316 0 0  0.8632198139502143 0 0  0.9246101326867038 0 0  0.9882218810934433 0 0  1.054135445558498 0 0  1.122434100542598 0 0  1.193204177141305 0 0  1.266535089879536 0 0  1.342519516046404 0 0  1.421253448503939 0 0  1.502836389106271 0 0  1.587371439758838 0 0  1.674965418777374 0 0  1.765729001825544 0 0  1.859776908880082 0 0  1.957227977487062 0 0  2.058205329869943 0 0  2.162836591189951 0 0  2.271253957290865 0 0  2.383594446803425 0 0  2.5 0.1024999999997612 0  2.5 0.2049999999994743 0  2.5 0.3074999999997183 0  2.383594446803656 0.41 0  2.271253957291315 0.41 0  2.162836591190598 0.41 0  2.058205329870775 0.41 0  1.957227977488067 0.41 0  1.859776908881246 0.41 0  1.765729001826854 0.41 0  1.674965418778818 0.41 0  1.58737143976041 0.41 0  1.502836389107956 0.41 0  1.421253448505726 0.41 0  1.342519516048286 0.41 0  1.266535089881505 0.41 0  1.193204177143353 0.41 0  1.122434100544716 0.41 0  1.05413544556068 0.41 0  0.9882218810956305 0.41 0  0.9246101326886647 0.41 0  0.8632198139519631 0.41 0  0.8039733463934788 0.41 0  0.7467958595662458 0.41 0  0.6916151138480078 0.41 0  0.6383613676644679 0.41 0  0.5869673343225223 0.41 0  0.5373680609412221 0.41 0  0.4895008759292634 0.41 0  0.4433053055145528 0.41 0  0.3987229542475914 0.41 0  0.3556974926297398 0.41 0  0.3141745521466497 0.41 0  0.2741016576310038 0.41 0  0.2354281840915826 0.41 0  0.1981052433265003 0.41 0  0.1620856860352591 0.41 0  0.1273239957535623 0.41 0  0.09377624077128965 0.41 0  0.06140001986584975 0.41 0  0.03015443760436654 0.41 0  0.2497468076502589 0.2050254481002335 0  0.2497468076502614 0.1949745518997913 0  0.2469965252529372 0.1829317073451959 0  0.2439893735792749 0.1762316384219906 0  0.2400332147834255 0.1700443375285386 0  0.2352133972704371 0.1645032867342007 0  0.2296339016332438 0.1597280261969788 0  0.2234150974217223 0.1558215752574715 0  0.2166911463437691 0.1528682099456123 0  0.2096071079204251 0.1509316448471593 0  0.2023158100364996 0.1500536585536553 0  0.194974551899914 0.1502531923497262 0  0.1877417105387872 0.1515259415822739 0  0.1807733240461124 0.153844448527136 0  0.1742197252835808 0.15715869474974 0  0.1682222986673531 0.1613971801805478 0  0.162910430003803 0.1664684656256651 0  0.1583987151779087 0.1722631454351573 0  0.1547844879126891 0.178656207771761 0  0.1521457199348551 0.1855097315605723 0  0.1505393388476355 0.1926758619366523 0  0.1505393388476328 0.2073241380633295 0  0.1521457199348437 0.2144902684393899 0  0.1547844879126531 0.221343792228163 0  0.1583987151778488 0.2277368545647528 0  0.1629104300036858 0.2335315343742052 0  0.1682222986671726 0.2386028198193036 0  0.1742197252833576 0.2428413052501257 0  0.1807733240458683 0.2461555514727623 0  0.1877417105384929 0.2484740584176516 0  0.1949745518995776 0.2497468076502398 0  0.202315810036185 0.2499463414463592 0  0.2096071079201568 0.2490683551528932 0  0.2166911463435495 0.2471317900544655 0  0.2234150974215506 0.2441784247426195 0  0.2296339016331197 0.2402719738031125 0  0.2352133972703547 0.2354967132658811 0  0.2400332147833751 0.2299556624715287 0  0.2439893735792577 0.2237683615780412 0  0.246996525252926 0.2170682926548348 0  0.2564605250409479 0.2099914080846525 0  0.2639304486011177 0.2099909132022154 0  0.2714013547979461 0.2099904857167943 0  0.2788725302995994 0.2099897114418653 0  0.2863437542142471 0.2099885530236963 0  0.2938150464716961 0.2099870056113387 0  0.3012863435432403 0.2099851148380251 0  0.3087576560536119 0.2099827600936711 0  0.3162289526078229 0.2099800443095156 0  0.3237001531356379 0.2099769013369679 0  0.3311713817913529 0.2099733601004645 0  0.3386424519566034 0.2099694053283474 0  0.3461135005857557 0.2099650469347342 0  0.3535844052452409 0.2099603362462578 0  0.3610552482336623 0.2099551894566432 0  0.368525952206874 0.2099497187268328 0  0.3759964903182173 0.2099438746415488 0  0.38346696354951 0.2099377189968241 0  0.3909372298831917 0.2099312269076896 0  0.3984074212142117 0.2099244526562332 0  0.4058774110933312 0.2099173850524202 0  0.4133472941858912 0.2099100606672439 0  0.420816986007108 0.2099025115454362 0  0.4282865829819027 0.2098947026345802 0  0.4357560028442786 0.2098867065357926 0  0.4432252602129657 0.209878506015227 0  0.4506943903854506 0.2098701475466809 0  0.4581633497577343 0.209861615113127 0  0.4656321794267962 0.2098529554019079 0  0.4731008440184012 0.2098441522336243 0  0.4805693767094163 0.2098352503273498 0  0.4880377495181614 0.2098262320268769 0  0.4955059890722979 0.2098171402511403 0  0.5029740733839407 0.2098079560012007 0  0.5104420228876055 0.2097987200557778 0  0.5179098213014963 0.2097894121478135 0  0.5253774835549015 0.2097800717732348 0  0.5328449975618748 0.2097706766829248 0  0.5403123733829565 0.2097612653844919 0  0.5477796028871988 0.2097518143566948 0  0.5552466927062363 0.2097423547182859 0  0.5627136132244333 0.2097328841821142 0  0.5701804293261196 0.2097234018770638 0  0.5776470696810436 0.2097139297389835 0  0.5851135715602911 0.2097044666581646 0  0.5925800731963788 0.209695072549664 0  0.600039264979185 0.204686934916465 0  0.6000263437601856 0.1946912468335696 0  0.592554204939435 0.1897024255929395 0  0.5850877104037164 0.1897123498014929 0  0.5776212263442148 0.1897222044410949 0  0.5701546092899689 0.1897320445487757 0  0.562687826330123 0.1897418571682695 0  0.5552209453316175 0.1897516546715288 0  0.547753906196915 0.1897614362746239 0  0.5402867425884523 0.1897711777074972 0  0.532819457447914 0.1897809138591679 0  0.5253520405606021 0.1897905903198926 0  0.517884511221225 0.1898002496703954 0  0.5104168502956428 0.1898098346499865 0  0.5029490844594485 0.1898193856023735 0  0.4954811861859488 0.1898288442978955 0  0.4880131906493804 0.1898382487384742 0  0.4805450606583618 0.1898475395429622 0  0.4730768414924052 0.1898567524618095 0  0.4656084849163395 0.1898658267721082 0  0.4581400478125122 0.1898747958985908 0  0.450671469701741 0.189883597871794 0  0.4432028197464734 0.1898922634718774 0  0.4357340269009889 0.1899007331879081 0  0.4282651615900416 0.189909019317523 0  0.4207961709148638 0.189917112574795 0  0.4133271024140991 0.1899249416362964 0  0.4058579226763598 0.1899325429565423 0  0.3983886251849784 0.1899398668130508 0  0.3909192685059927 0.1899469171469692 0  0.3834497801393724 0.1899536498458507 0  0.3759802431752389 0.1899600674197945 0  0.3685105773508019 0.1899661333449601 0  0.361040857502506 0.1899718373222496 0  0.3535710463300706 0.1899771933987547 0  0.3461011749007316 0.1899820949689346 0  0.3386312275201435 0.1899866181473178 0  0.3311611862857279 0.1899907106402227 0  0.3236911388260396 0.189994378257577 0  0.3162209885750135 0.1899976061495628 0  0.3087508303128745 0.1900003913059066 0  0.3012806196930999 0.1900027717313207 0  0.2938103875948878 0.190004666102325 0  0.2863401238021477 0.1900061761715314 0  0.2788697994275962 0.1900072977672645 0  0.271399541082685 0.1900081115278876 0  0.263929368121631 0.1900086298634827 0  0.2564600781724792 0.1900084655457039 0  0.2607821292057597 0.2000726722314312 0  0.5888164809220845 0.1998307978383797 0  0.5745470420374535 0.1999264232869687 0  0.5512333892988359 0.1998643831542794 0  0.2751357712537003 0.199999145365836 0  0.5365657070277093 0.1997710329299143 0  0.2894737299038124 0.1998662784854725 0  0.5216307808487449 0.1997901163500945 0  0.3127981985733946 0.1998562950250905 0  0.3274308630675185 0.1999841473027527 0  0.506695325944637 0.1998090227522613 0  0.3650975874656922 0.1998268764964321 0  0.476822850753128 0.1998460063326814 0  0.3417683706762606 0.1998457179268317 0  0.3797232123868876 0.1999490737789778 0  0.4618858363544116 0.1998639016800998 0  0.4917593480864402 0.1998276807943763 0  0.3946629679652108 0.1999358353662656 0  0.4469483067168988 0.1998812550791135 0  0.4089986895264703 0.1997912890220692 0  0.43231905216369 0.2000249613795382 0  0.4201942596863529 0.1999072040839164 0  0.3529236487217604 0.1999879728207375 0  0.5633541000472863 0.1997179728742962 0  0.3006711894859479 0.1999909605300466 0  0.5816262104722379 0.1963687678780513 0  0.267709554167726 0.1964276092999316 0  0.5290946132034218 0.1968736827481503 0  0.5440292467309675 0.1968544445826225 0  0.2825230521745052 0.203542963012823 0  0.3199614559612932 0.2028933934533672 0  0.4842876212502096 0.1969302364387382 0  0.5141594584339793 0.1968927721237049 0  0.3722554641616975 0.2028612367059446 0  0.4693509512016474 0.1969484435334223 0  0.3349030107005194 0.2028862131457448 0  0.3871957068262358 0.2028487150792699 0  0.4544137867404595 0.1969661657680983 0  0.4992237921267411 0.1969116491053318 0  0.4020520342527477 0.2034740168422954 0  0.4394761333393489 0.1969832848743132 0  0.2550655968234834 0.2034064657445414 0  0.2548905383015408 0.1966964304616491 0  0.5946913094264479 0.202
[...]
<PointData  Vectors="f_46-0"> 
<DataArray  type="Float64"  Name="f_46-0"  NumberOfComponents="3" format="ascii">0.0000000000000000e+00 0.0000000000000000e+00 0.0000000000000000e+00  0.0000000000000000e+00 0.0000000000000000e+00 0.0000000000000000e+00  0.0000000000000000e+00 0.0000000000000000e+00 0.0000000000000000e+00  0.0000000000000000e+00 0.0000000000000000e+00 0.0000000000000000e+00  9.4545193059533499e-05 -3.8915794412527205e-04 0.0000000000000000e+00  1.4068392680577230e-04 -4.2988749912246130e-04 0.0000000000000000e+00  0.0000000000000000e+00 0.0000000000000000e+00 0.0000000000000000e+00  0.0000000000000000e+00 0.0000000000000000e+00 0.0000000000000000e+00  0.0000000000000000e+00 0.0000000000000000e+00 0.0000000000000000e+00  0.0000000000000000e+00 0.0000000000000000e+00 0.0000000000000000e+00  1.0324764017177319e-04 -4.0877504127688632e-04 0.0000000000000000e+00  1.8960636950130635e-01 0.0000000000000000e+00 0.0000000000000000e+00  3.5004252831012717e-01 0.0000000000000000e+00 0.0000000000000000e+00  4.8130847642642510e-01 0.0000000000000000e+00 0.0000000000000000e+00  5.8340421385035168e-01 0.0000000000000000e+00 0.0000000000000000e+00  6.5632974058189397e-01 0.0000000000000000e+00 0.0000000000000000e+00  7.0008505662104759e-01 0.0000000000000000e+00 0.0000000000000000e+00  7.1467016196776878e-01 0.0000000000000000e+00 0.0000000000000000e+00  7.0008505662193210e-01 0.0000000000000000e+00 0.0000000000000000e+00  6.5632974058341365e-01 0.0000000000000000e+00 0.0000000000000000e+00  5.8340421385223351e-01 0.0000000000000000e+00 0.0000000000000000e+00  4.8130847642821278e-01 0.0000000000000000e+00 0.0000000000000000e+00  3.5004252831165278e-01 0.0000000000000000e+00 0.0000000000000000e+00  1.8960636950216589e-01 0.0000000000000000e+00 0.0000000000000000e+00  0.0000000000000000e+00 0.0000000000000000e+00 0.0000000000000000e+00  0.0000000000000000e+00 0.0000000000000000e+00 0.0000000000000000e+00  0.0000000000000000e+00 0.0000000000000000e+00 0.0000000000000000e+00  0.0000000000000000e+00 0.0000000000000000e+00 0.0000000000000000e+00  0.0000000000000000e+00 0.0000000000000000e+00 0.0000000000000000e+00  0.0000000000000000e+00 0.0000000000000000e+00 0.0000000000000000e+00  0.0000000000000000e+00 0.0000000000000000e+00 0.0000000000000000e+00  0.0000000000000000e+00 0.0000000000000000e+00 0.0000000000000000e+00  0.0000000000000000e+00 0.0000000000000000e+00 0.0000000000000000e+00  0.0000000000000000e+00 0.0000000000000000e+00 0.0000000000000000e+00  0.0000000000000000e+00 0.0000000000000000e+00 0.0000000000000000e+00  0.0000000000000000e+00 0.0000000000000000e+00 0.0000000000000000e+00  0.0000000000000000e+00 0.0000000000000000e+00 0.0000000000000000e+00  0.0000000000000000e+00 0.0000000000000000e+00 0.0000000000000000e+00  0.0000000000000000e+00 0.0000000000000000e+00 0.0000000000000000e+00  0.0000000000000000e+00 0.0000000000000000e+00 0.0000000000000000e+00  0.0000000000000000e+00 0.0000000000000000e+00 0.0000000000000000e+00  0.0000000000000000e+00 0.0000000000000000e+00 0.0000000000000000e+00  0.0000000000000000e+00 0.0000000000000000e+00 0.0000000000000000e+00  0.0000000000000000e+00 0.0000000000000000e+00 0.0000000000000000e+00  0.0000000000000000e+00 0.0000000000000000e+00 0.0000000000000000e+00  0.0000000000000000e+00 0.0000000000000000e+00 0.0000000000000000e+00  0.0000000000000000e+00 0.0000000000000000e+00 0.0000000000000000e+00  0.0000000000000000e+00 0.0000000000000000e+00 0.0000000000000000e+00  0.0000000000000000e+00 0.0000000000000000e+00 0.0000000000000000e+00  0.0000000000000000e+00 0.0000000000000000e+00 0.0000000000000000e+00  0.0000000000000000e+00 0.0000000000000000e+00 0.0000000000000000e+00  0.0000000000000000e+00 0.0000000000000000e+00 0.0000000000000000e+00  0.0000000000000000e+00 0.0000000000000000e+00 0.0000000000000000e+00  0.0000000000000000e+00 0.0000000000000000e+00 0.0000000000000000e+00  0.0000000000000000e+00 0.0000000000000000e+00 0.0000000000000000e+00  0.0000000000000000e+00 0.0000000000000000e+00 0.0000000000000000e+00  0.0000000000000000e+00 0.0000000000000000e+00 0.0000000000000000e+00  0.0000000000000000e+00 0.0000000000000000e+00 0.0000000000000000e+00  0.0000000000000000e+00 0.0000000000000000e+00 0.0000000000000000e+00  0.0000000000000000e+00 0.0000000000000000e+00 0.0000000000000000e+00  0.0000000000000000e+00 0.0000000000000000e+00 0.0000000000000000e+00  0.0000000000000000e+00 0.0000000000000000e+00 0.0000000000000000e+00  4.9960837021408538e-01 1.2939378822840339e-02 0.0000000000000000e+00  5.2610105116810424e-01 2.2059040241730449e-03 0.0000000000000000e+00  4.9609083727321912e-01 -1.3836030704420356e-02 0.0000000000000000e+00  0.0000000000000000e+00 0.0000000000000000e+00 0.0000000000000000e+00  0.0000000000000000e+00 0.0000000000000000e+00 0.0000000000000000e+00  0.0000000000000000e+00 0.0000000000000000e+00 0.0000000000000000e+00  0.0000000000000000e+00 0.0000000000000000e+00 0.0000000000000000e+00  0.0000000000000000e+00 0.0000000000000000e+00 0.0000000000000000e+00  0.0000000000000000e+00 0.0000000000000000e+00 0.0000000000000000e+00  0.0000000000000000e+00 0.0000000000000000e+00 0.0000000000000000e+00  0.0000000000000000e+00 0.0000000000000000e+00 0.0000000000000000e+00  0.0000000000000000e+00 0.0000000000000000e+00 0.0000000000000000e+00  0.0000000000000000e+00 0.0000000000000000e+00 0.0000000000000000e+00  0.0000000000000000e+00 0.0000000000000000e+00 0.0000000000000000e+00  0.0000000000000000e+00 0.0000000000000000e+00 0.0000000000000000e+00  0.0000000000000000e+00 0.0000000000000000e+00 0.0000000000000000e+00  0.0000000000000000e+00 0.0000000000000000e+00 0.0000000000000000e+00  0.0000000000000000e+00 0.0000000000000000e+00 0.0000000000000000e+00  0.0000000000000000e+00 0.0000000000000000e+00 0.0000000000000000e+00  0.0000000000000000e+00 0.0000000000000000e+00 0.0000000000000000e+00  0.0000000000000000e+00 0.0000000000000000e+00 0.0000000000000000e+00  0.0000000000000000e+00 0.0000000000000000e+00 0.0000000000000000e+00  0.0000000000000000e+00 0.0000000000000000e+00 0.0000000000000000e+00  0.0000000000000000e+00 0.0000000000000000e+00 0.0000000000000000e+00  0.0000000000000000e+00 0.0000000000000000e+00 0.0000000000000000e+00  0.0000000000000000e+00 0.0000000000000000e+00 0.0000000000000000e+00  0.0000000000000000e+00 0.0000000000000000e+00 0.0000000000000000e+00  0.0000000000000000e+00 0.0000000000000000e+00 0.0000000000000000e+00  0.0000000000000000e+00 0.0000000000000000e+00 0.0000000000000000e+00  0.0000000000000000e+00 0.0000000000000000e+00 0.0000000000000000e+00  0.0000000000000000e+00 0.0000000000000000e+00 0.0000000000000000e+00  0.0000000000000000e+00 0.0000000000000000e+00 0.0000000000000000e+00  0.0000000000000000e+00 0.0000000000000000e+00 0.0000000000000000e+00  0.0000000000000000e+00 0.0000000000000000e+00 0.0000000000000000e+00  0.0000000000000000e+00 0.0000000000000000e+00 0.0000000000000000e+00  0.0000000000000000e+00 0.0000000000000000e+00 0.0000000000000000e+00  0.0000000000000000e+00 0.0000000000000000e+00 0.0000000000000000e+00  0.0000000000000000e+00 0.0000000000000000e+00 0.0000000000000000e+00  0.0000000000000000e+00 0.0000000000000000e+00 0.0000000000000000e+00  0.0000000000000000e+00 0.0000000000000000e+00 0.0000000000000000e+00  0.0000000000000000e+00 0.0000000000000000e+00 0.0000000000000000e+00  0.0000000000000000e+00 0.0000000000000000e+00 0.0000000000000000e+00  0.0000000000000000e+00 0.0000000000000000e+00 0.0000000000000000e+00  0.0000000000000000e+00 0.0000000000000000e+00 0.0000000000000000e+00  0.0000000000000000e+00 0.0000000000000000e+00 0.0000000000000000e+00  0.0000000000000000e+00 0.0000000000000000e+00 0.0000000000000000e+00  0.0000000000000000e+00 0.0000000000000000e+00 0.0000000000000000e+00  0.0000000000000000e+00 0.0000000000000000e+00 0.0000000000000000e+00  0.0000000000000000e+00 0.0000000000000000e+00 0.0000000000000000e+00  0.0000000000000000e+00 0.0000000000000000e+00 0.0000000000000000e+00  0.0000000000000000e+00 0.0000000000000000e+00 0.0000000000000000e+00  0.0000000000000000e+00 0.0000000000000000e+00 0.0000000000000000e+00  0.0000000000000000e+00 0.0000000000000000e+00 0.0000000000000000e+00  0.0000000000000000e+00 0.0000000000000000e+00 0.0000000000000000e+00  0.0000000000000000e+00 0.0000000000000000e+00 0.0000000000000000e+00  0.0000000000000000e+00 0.0000000000000000e+00 0.0000000000000000e+00  0.0000000000000000e+00 0.0000000000000000e+00 0.0000000000000000e+00  0.0000000000000000e+00 0.0000000000000000e+00 0.0000000000000000e+00  0.0000000000000000e+00 0.0000000000000000e+00 0.0000000000000000e+00  0.0000000000000000e+00 0.0000000000000000e+00 0.0000000000000000e+00  0.0000000000000000e+00 0.0000000000000000e+00 0.0000000000000000e+00  0.0000000000000000e+00 0.0000000000000000e+00 0.0000000000000000e+00  0.0000000000000000e+00 0.0000000000000000e+00 0.0000000000000000e+00  0.0000000000000000e+00 0.0000000000000000e+00 0.0000000000000000e+00  0.0000000000000000e+00 0.0000000000000000e+00 0.0000000000000000e+00  0.0000000000000000e+00 0.0000000000000000e+00 0.0000000000000000e+00  0.0000000000000000e+00 0.0000000000000000e+00 0.0000000000000000e+00  0.0000000000000000e+00 0.0000000000000000e+00 0.0000000000000000e+00  0.0000000000000000e+00 0.0000000000000000e+00 0.0000000000000000e+00  0.0000000000000000e+00 0.0000000000000000e+00 0.0000000000000000e+00  0.0000000000000000e+00 0.0000000000000000e+00 0.0000000000000000e+00  0.0000000000000000e+00 0.0000000000000000e+00 0.0000000000000000e+00  0.0000000000000000e+00 0.0000000000000000e+00 0.0000000000000000e+00  0.0000000000000000e+00 0.0000000000000000e+00 0.0000000000000000e+00  0.0000000000000000e+00 0.0000000000000000e+00 0.0000000000000000e+00  0.0000000000000000e+00 0.0000000000000000e+00 0.0000000000000000e+00  0.0000000000000000e+00 0.0000000000000000e+00 0.0000000000000000e+00  0.0000000000000000e+00 0.0000000000000000e+00 0.0000000000000000e+00  0.0000000000000000e+00 0.0000000000000000e+00 0.0000000000000000e+00  0.0000000000000000e+00 0.0000000000000000e+00 0.0000000000000000e+00  0.0000000000000000e+00 0.0000000000000000e+00 0.0000000000000000e+00  -5.7990264799224823e-06 6.4478211252921774e-05 0.0000000000000000e+00  -1.1785712176066953e-06 7.8019132673604046e-06 0.0000000000000000e+00  -3.8852169815534583e-06 6.3401849080887654e-06 0.0000000000000000e+00  -3.5565591601082530e-06 9.3279025444526154e-06 0.0000000000000000e+00  -4.6885803073838062e-07 1.2855568556743847e-05 0.0000000000000000e+00  4.2940335338525330e-07 1.7528287341139803e-05 0.0000000000000000e+00  3.3027476627567812e-06 1.7653123602136927e-05 0.0000000000000000e+00  4.8789508100721522e-06 2.3754893384564020e-05 0.0000000000000000e+00  6.8643181884570962e-06 2.4804560543084875e-05 0.0000000000000000e+00  1.4580941833926585e-05 2.6791664641817963e-05 0.0000000000000000e+00  1.4580225096148021e-05 2.6670119857040214e-05 0.0000000000000000e+00  2.3071530920527167e-05 2.6427206809266540e-05 0.0000000000000000e+00  2.5564781355396181e-05 2.5500309366054411e-05 0.0000000000000000e+00  3.2503123257527771e-05 2.0014989420174231e-05 0.0000000000000000e+00  3.4900668190019104e-05 1.9092951007037710e-05 0.0000000000000000e+00  3.9394079201792344e-05 1.3131523548300935e-05 0.0000000000000000e+00  4.7623998623803754e-05 8.5802981634996114e-06 0.0000000000000000e+00  4.9317308350503926e-05 7.8486376786839984e-07 0.0000000000000000e+00  5.7600664157678924e-05 -5.8316623174425357e-06 0.0000000000000000e+00  5.9361505665072270e-05 -1.5073196552088457e-05 0.0000000000000000e+00  6.6477988695591591e-05 -2.3800797650236781e-05 0.0000000000000000e+00  6.9551252310585672e-05 -3.3935419696128355e-05 0.0000000000000000e+00  7.6568820971041897e-05 -4.6581304775789614e-05 0.0000000000000000e+00  7.8188137249849660e-05 -5.6628979733502762e-05 0.0000000000000000e+00  8.2216183013466022e-05 -6.9427826857861732e-05 0.0000000000000000e+00  8.7227752377505631e-05 -8.1424302210443274e-05 0.0000000000000000e+00  8.9827775901809266e-05 -9.5571265659197220e-05 0.0000000000000000e+00  9.4301370832957553e-05 -1.0859793620938812e-04 0.0000000000000000e+00  9.6695034615097906e-05 -1.2356909906319737e-04 0.0000000000000000e+00  1.0054857905598818e-04 -1.3738422475626522e-04 0.0000000000000000e+00  1.0269894271964697e-04 -1.5302295949386481e-04 0.0000000000000000e+00  1.0596474109583738e-04 -1.6743188777499382e-04 0.0000000000000000e+00  1.0785574389503295e-04 -1.8358138007930463e-04 0.0000000000000000e+00  1.1057056685674119e-04 -1.9841926233128915e-04 0.0000000000000000e+00  1.1218793097102359e-04 -2.1493198966157027e-04 0.0000000000000000e+00  1.1438512136414462e-04 -2.3007853228744496e-04 0.0000000000000000e+00  1.1573388927229798e-04 -2.4684459816675969e-04 0.0000000000000000e+00  1.1744756277823251e-04 -2.6218428421162141e-04 0.0000000000000000e+00  1.1853755303263404e-04 -2.7911582203689025e-04 0.0000000000000000e+00  1.1975413679142756e-04 -2.9463313534575027e-04 0.0000000000000000e+00  1.2039570020562515e-04 -3.1114784256418672e-04 0.0000000000000000e+00  1.2318426712544547e-04 -3.2780772254472192e-04 0.0000000000000000e+00  1.2153357346679604e-04 -3.4392165585665725e-04 0.0000000000000000e+00  1.2206138252475538e-04 -3.6058229842135509e-04 0.0000000000000000e+00  1.2269566504449791e-04 -3.7598965081256895e-04 0.0000000000000000e+00  1.2100653812200224e-04 -4.0176750128064132e-04 0.0000000000000000e+00  1.1910277212924886e-04 -4.1017981089130277e-04 0.0000000000000000e+00  9.7229317847924345e-05 -4.0848859850068237e-04 0.0000000000000000e+00  7.8505037459821481e-05 -3.8225279845782571e-04 0.0000000000000000e+00  7.8959166860712856e-05 -3.7487958249196260e-04 0.0000000000000000e+00  7.8010274094429411e-05 -3.5699659728127272e-04 0.0000000000000000e+00  7.7399051810815982e-05 -3.4091131805400902e-04 0.0000000000000000e+00  7.8868992956701825e-05 -3.2421362985467212e-04 0.0000000000000000e+00  7.6289302833073370e-05 -3.0773810289972433e-04 0.0000000000000000e+00  7.6052793486477854e-05 -2.9162295811068617e-04 0.0000000000000000e+00  7.5241254769447069e-05 -2.7395765628804146e-04 0.0000000000000000e+00  7.3777905949866146e-05 -2.5864889943806965e-04 0.0000000000000000e+00  7.2953406146199779e-05 -2.4101508628845462e-04 0.0000000000000000e+00  7.1039752968886700e-05 -2.2587957309812322e-04 0.0000000000000000e+00  7.0138176523574104e-05 -2.0847492423136803e-04 0.0000000000000000e+00  6.7783913494472975e-05 -1.9357608193241833e-04 0.0000000000000000e+00  6.6857870729583949e-05 -1.7650155413537240e-04 0.0000000000000000e+00  6.4048075652439792e-05 -1.6195893909895197e-04 0.0000000000000000e+00  6.3154247089597452e-05 -1.4534338548428727e-04 0.0000000000000000e+00  5.9876380317695970e-05 -1.3130572338117014e-04 0.0000000000000000e+00  5.9072522425765645e-05 -1.1530965339161508e-04 0.0000000000000000e+00  5.5323202850765840e-05 -1.0195896008546137e-04 0.0000000000000000e+00  5.4669481854529247e-05 -8.6776470366710205e-05 0.0000000000000000e+00  5.0500985317571235e-05 -7.4265159962587265e-05 0.0000000000000000e+00  4.9884004912818977e-05 -6.0351833855755785e-05 0.0000000000000000e+00  4.6097268718709457e-05 -4.7885303891276760e-05 0.0000000000000000e+00  4.4579933712526223e-05 -3.7891328847021012e-05 0.0000000000000000e+00  4.0543926020441779e-05 -2.5185461470867839e-05 0.0000000000000000e+00  3.7739399836134320e-05 -1.5167324020156235e-05 0.0000000000000000e+00  3.6918546167219850e-05 -4.9722138572560201e-06 0.0000000000000000e+00  3.2601546962554244e-05 3.0065909499542752e-06 0.0000000000000000e+00  3.2094464545111432e-05 1.1200840276478014e-05 0.0000000000000000e+00  2.7616073634942939e-05 1.7340998850841973e-05 0.0000000000000000e+00  2.7296026089370442e-05 2.3181992513893480e-05 0.0000000000000000e+00  2.4229453175127413e-05 2.7855836271934521e-05 0.0000000000000000e+00  2.2543427578984752e-05 2.8233605432825282e-05 0.0000000000000000e+00  1.9425450356808870e-05 3.3187842807203509e-05 0.0000000000000000e+00  1.7116285463381798e-05 3.3930700100006236e-05 0.0000000000000000e+00  1.7932047885625854e-05 3.4402491184702788e-05 0.0000000000000000e+00  1.3806647588904931e-05 3.3099962735808903e-05 0.0000000000000000e+00  1.4908023868882816e-05 3.1045122993978593e-05 0.0000000000000000e+00  1.2479843395829495e-05 2.8380190806452675e-05 0.0000000000000000e+00  1.1518347674642286e-05 2.1832067032883585e-05 0.0000000000000000e+00  9.6399140383729835e-06 2.0394192551213121e-05 0.0000000000000000e+00  7.9913322946593403e-06 1.5714511470283778e-05 0.0000000000000000e+00  9.7595711797928189e-06 1.1531737771397233e-05 0.0000000000000000e+00  3.6777671155924203e-06 5.9106612827531639e-06 0.0000000000000000e+00  8.0446563701744610e-06 -2.9767269755365174e-06 0.0000000000000000e+00  9.7629456328237426e-07 -5.9306444081675009e-05 0.0000000000000000e+00  4.4631723668529679e-06 3.6552715036240485e-07 0.0000000000000000e+00  1.0039466787789237e-04 -3.8392375725467687e-04 0.0000000000000000e+00  1.0009155122714171e-04 -3.5206912471301698e-04 0.0000000000000000e+00  9.7647800379976606e-05 -3.0082017477481293e-04 0.0000000000000000e+00  2.4821883967922396e-06 6.7754381448557665e-06 0.0000000000000000e+00  9.5138698739156741e-05 -2.6852780331618675e-04 0.0000000000000000e+00  4.8501205702671112e-06 1.6150411730428234e-05 0.0000000000000000e+00  9.2421729642486135e-05 -2.3600233454382927e-04 0.0000000000000000e+00  9.7274925265234941e-06 2.7229599826238365e-05 0.0000000000000000e+00  1.5009565640657797e-05 2.9798814411446175e-05 0.0000000000000000e+00  8.9074096623852346e-05 -2.0390744447915091e-04 0.0000000000000000e+00  3.0944235243829123e-05 2.1037260458805628e-05 0.0000000000000000e+00  8.0492308430949632e-05 -1.4183251580112739e-04 0.0000000000000000e+00  2.1392980642000886e-05 3.0673527805825578e-05 0.0000000000000000e+00  3.8350711265888008e-05 9.3048105046139577e-06 0.0000000000000000e+00  7.5285181211876107e-05 -1.1243338378040456e-04 0.0000000000000000e+00  8.5094514367503487e-05 -1.7242990149066755e-04 0.0000000000000000e+00  4.6029378437612738e-05 -5.8740867420607837e-06 0.0000000000000000e+00  6.9544759593463145e-05 -8.4584051848694326e-05 0.0000000000000000e+00  5.3055190365282558e-05 -2.3253509196095983e-05 0.0000000000000000e+00  6.4036132847429693e-05 -5.8810318045440449e-05 0.0000000000000000e+00  6.0384930576429381e-05 -4.0101613531826846e-05 0.0000000000000000e+00  2.7504723889653118e-05 2.6342819635890768e-05 0.0000000000000000e+00  1.0105895975270112e-04 -3.2741133485159291e-04 0.0000000000000000e+00  7.6001493260023106e-06 2.1221524342040380e-05 0.0000000000000000e+00  9.2577461171497466e-05 -3.6706486327896720e-04 0.0000000000000000e+00  3.3963474978111715e-06 8.5998294645315765e-07 0.0000000000000000e+00  8.8574112866513223e-05 -2.5155854912643598e-04 0.0000000000000000e+00  9.0929476260791651e-05 -2.8425500063672485e-04 0.0000000000000000e+00  1.4367942819743078e-06 1.0796713131710013e-05 0.0000000000000000e+00  1.2405616695579303e-05 2.7416117477294656e-05 0.0000000000000000e+00  7.7926803173083148e-05 -1.5611122977755612e-04 0.0000000000000000e+00  8.5612081618616968e-05 -2.1915434177467914e-04 0.0000000000000000e+00  3.7996777473144811e-05 1.3939932418556182e-05 0.0000000000000000e+00  7.3241730935028025e-05 -1.2600045209367866e-04 0.0000000000000000e+00  1.8527129353032047e-05 2.8855353478062078e-05 0.0000000000000000e+00  4.5980226483148178e-05 5.6022849551629059e-07 0.0000000000000000e+00  6.8030599539032621e-05 -9.7277475865127519e-05 0.0000000000000000e+00  8.2057408813900135e-05 -1.8726015754796051e-04 0.0000000000000000e+00  5.4810192705725501e-05 -1.6629604983005407e-05 0.0000000000000000e+00  6.2289743756133856e-05 -7.0340499810511982e-05 0.0000000000000000e+00  2.9334152316487667e-05 -1.9069971960483079e-06 0.0000000000000000e+00  2.9682175718044880e-05 -2.4455656081834433e-06 0.0000000000000000e+00  1.0839070810657428e-04 -3.9920103216409909e-04 0.0000000000000000e+00  2.9291877750767583e-07 5.5362214721132013e-06 0.0000000000000000e+00  5.6568914346621066e-05 -4.7028560797502184e-05 0.000