<?xml version="1.0"?>
<VTKFile type="UnstructuredGrid"  version="0.1"  >
<UnstructuredGrid>
<Piece  NumberOfPoints="1419" NumberOfCells="2698">
<Points>
<DataArray  type="Float64"  NumberOfComponents="3"  format="ascii">0 0 0  0 0.41 0  2.5 0 0  2.5 0.41 0  0.5999899314603545 0.1899120534419235 0  0.5999965776475603 0.209906148252744 0  0.25 0.2 0  0.15 0.2 0  0.2489897948556636 0.21 0  0.2489897948556636 0.19 0  0.5999926957953858 0.1999091003792214 0  0 0.3807142857143437 0  0 0.3514285714286952 0  0 0.3221428571430699 0  0 0.29285714285744 0  0 0.2635714285718054 0  0 0.2342857142861561 0  0 0.2050000000005308 0  0 0.175714285714732 0  0 0.1464285714289574 0  0 0.1171428571431897 0  0 0.08785714285737878 0  0 0.05857142857161107 0  0 0.02928571428580012 0  0.03015443760436003 0 0  0.06140001986583606 0 0  0.09377624077125973 0 0  0.1273239957535082 0 0  0.1620856860351972 0 0  0.1981052433264291 0 0  0.235428184091502 0 0  0.2741016576309132 0 0  0.3141745521465447 0 0  0.3556974926295285 0 0  0.3987229542472677 0 0  0.4433053055141081 0 0  0.4895008759286886 0 0  0.5373680609405097 0 0  0.5869673343216626 0 0  0.6383613676634521 0 0  0.6916151138468254 0 0  0.7467958595648856 0 0  0.8039733463919316 0 0  0.8632198139502143 0 0  0.9246101326867038 0 0  0.9882218810934433 0 0  1.054135445558498 0 0  1.122434100542598 0 0  1.193204177141305 0 0  1.266535089879536 0 0  1.342519516046404 0 0  1.421253448503939 0 0  1.502836389106271 0 0  1.587371439758838 0 0  1.674965418777374 0 0  1.765729001825544 0 0  1.859776908880082 0 0  1.957227977487062 0 0  2.058205329869943 0 0  2.162836591189951 0 0  2.271253957290865 0 0  2.383594446803425 0 0  2.5 0.1024999999997612 0  2.5 0.2049999999994743 0  2.5 0.3074999999997183 0  2.383594446803656 0.41 0  2.271253957291315 0.41 0  2.162836591190598 0.41 0  2.058205329870775 0.41 0  1.957227977488067 0.41 0  1.859776908881246 0.41 0  1.765729001826854 0.41 0  1.674965418778818 0.41 0  1.58737143976041 0.41 0  1.502836389107956 0.41 0  1.421253448505726 0.41 0  1.342519516048286 0.41 0  1.266535089881505 0.41 0  1.193204177143353 0.41 0  1.122434100544716 0.41 0  1.05413544556068 0.41 0  0.9882218810956305 0.41 0  0.9246101326886647 0.41 0  0.8632198139519631 0.41 0  0.8039733463934788 0.41 0  0.7467958595662458 0.41 0  0.6916151138480078 0.41 0  0.6383613676644679 0.41 0  0.5869673343225223 0.41 0  0.5373680609412221 0.41 0  0.4895008759292634 0.41 0  0.4433053055145528 0.41 0  0.3987229542475914 0.41 0  0.3556974926297398 0.41 0  0.3141745521466497 0.41 0  0.2741016576310038 0.41 0  0.2354281840915826 0.41 0  0.1981052433265003 0.41 0  0.1620856860352591 0.41 0  0.1273239957535623 0.41 0  0.09377624077128965 0.41 0  0.06140001986584975 0.41 0  0.03015443760436654 0.41 0  0.2497468076502589 0.2050254481002335 0  0.2497468076502614 0.1949745518997913 0  0.2469965252529372 0.1829317073451959 0  0.2439893735792749 0.1762316384219906 0  0.2400332147834255 0.1700443375285386 0  0.2352133972704371 0.1645032867342007 0  0.2296339016332438 0.1597280261969788 0  0.2234150974217223 0.1558215752574715 0  0.2166911463437691 0.1528682099456123 0  0.2096071079204251 0.1509316448471593 0  0.2023158100364996 0.1500536585536553 0  0.194974551899914 0.1502531923497262 0  0.1877417105387872 0.1515259415822739 0  0.1807733240461124 0.153844448527136 0  0.1742197252835808 0.15715869474974 0  0.1682222986673531 0.1613971801805478 0  0.162910430003803 0.1664684656256651 0  0.1583987151779087 0.1722631454351573 0  0.1547844879126891 0.178656207771761 0  0.1521457199348551 0.1855097315605723 0  0.1505393388476355 0.1926758619366523 0  0.1505393388476328 0.2073241380633295 0  0.1521457199348437 0.2144902684393899 0  0.1547844879126531 0.221343792228163 0  0.1583987151778488 0.2277368545647528 0  0.1629104300036858 0.2335315343742052 0  0.1682222986671726 0.2386028198193036 0  0.1742197252833576 0.2428413052501257 0  0.1807733240458683 0.2461555514727623 0  0.1877417105384929 0.2484740584176516 0  0.1949745518995776 0.2497468076502398 0  0.202315810036185 0.2499463414463592 0  0.2096071079201568 0.2490683551528932 0  0.2166911463435495 0.2471317900544655 0  0.2234150974215506 0.2441784247426195 0  0.2296339016331197 0.2402719738031125 0  0.2352133972703547 0.2354967132658811 0  0.2400332147833751 0.2299556624715287 0  0.2439893735792577 0.2237683615780412 0  0.246996525252926 0.2170682926548348 0  0.2564593236712798 0.2099940965151495 0  0.2639282032415691 0.2099936516274442 0  0.2713976522324991 0.209993288473015 0  0.2788671855455819 0.2099927687555718 0  0.2863366755790708 0.2099920710148949 0  0.293806123592733 0.2099912322726864 0  0.3012754946462184 0.2099902763313913 0  0.3087448241115554 0.209989177971816 0  0.3162140780243379 0.2099879780949495 0  0.3236832546525995 0.2099866585648256 0  0.3311523844566469 0.2099852492488676 0  0.3386214257249036 0.2099837349207963 0  0.3460904165959103 0.2099821379793522 0  0.3535593203796307 0.2099804656614293 0  0.3610281770207679 0.2099787088023768 0  0.3684969532014394 0.2099768918152721 0  0.3759656570142298 0.2099750025828894 0  0.3834343041018985 0.2099730681104439 0  0.3909028719918856 0.2099710699879053 0  0.3983713842778366 0.2099690355355112 0  0.4058398195760156 0.2099669493983931 0  0.4133081959794132 0.2099648303825007 0  0.4207764924516949 0.2099626779704188 0  0.4282447414769207 0.2099604912024932 0  0.4357129150323305 0.2099582796370612 0  0.4431810219419143 0.209956038326552 0  0.4506490666943591 0.209953782301316 0  0.458117043723757 0.2099514993312588 0  0.4655849582629669 0.2099492065083997 0  0.4730528061489118 0.2099468909083137 0  0.4805205913950586 0.2099445693347834 0  0.4879883105804235 0.2099422283751537 0  0.4954559670628924 0.209939884431451 0  0.502923557853313 0.209937523997443 0  0.5103910853747134 0.2099351628783864 0  0.5178585475447997 0.209932787399426 0  0.5253259459924384 0.2099304135034118 0  0.5327932788723481 0.2099280269655268 0  0.5402605471264088 0.2099256439594821 0  0.5477277494315679 0.2099232500829206 0  0.5551948865225992 0.2099208585913206 0  0.562661947223525 0.2099184656924311 0  0.5701289565708283 0.2099160704232713 0  0.5775958869557156 0.2099136812649265 0  0.5850627544656931 0.2099112962491635 0  0.592529637321853 0.2099089427870347 0  0.5999944414263372 0.2049075879333091 0  0.5999911237399583 0.1949106098376266 0  0.5925229903353846 0.1899142183673524 0  0.5850561087828818 0.1899168249151012 0  0.5775892470638113 0.1899194017590574 0  0.5701223224149384 0.1899219733156143 0  0.5626553198170792 0.1899245332770833 0  0.5551882665714584 0.1899270901195882 0  0.5477211364706632 0.1899296440640452 0  0.5402539448736111 0.1899321851221509 0  0.532786689770261 0.1899347333510874 0  0.5253193704386017 0.1899372633573284 0  0.5178519896150025 0.1899398001527287 0  0.5103845450647035 0.1899423173399521 0  0.5029170403814816 0.1899448396113301 0  0.4954494723709999 0.1899473406232465 0  0.4879818455034433 0.1899498445814965 0  0.4805141555057193 0.1899523250977968 0  0.4730464080147436 0.1899548059006257 0  0.4655785974218482 0.1899572604075253 0  0.4581107308988971 0.1899597117557053 0  0.4506428012232894 0.1899621331710469 0  0.4431748173601044 0.1899645469786117 0  0.435706770120403 0.1899669273547357 0  0.4282386714176826 0.1899692900236931 0  0.420770505448451 0.1899716261121515 0  0.4133022959746464 0.1899739254744083 0  0.4058340222633936 0.1899761936619653 0  0.3983656906471821 0.189978418593896 0  0.3908973090442329 0.189980607713187 0  0.383428866630959 0.1899827427272019 0  0.375960376786983 0.1899848320751163 0  0.3684918263331281 0.1899868580306318 0  0.3610232281180349 0.1899888239963046 0  0.3535545719210686 0.1899907272445508 0  0.3460858744732016 0.1899925424369198 0  0.3386171205274602 0.1899942830387747 0  0.3311483107304767 0.1899959296384322 0  0.3236794643650159 0.1899974861573203 0  0.3162105579298423 0.1899989331869837 0  0.3087416148509952 0.1900002701399064 0  0.3012726235247475 0.1900014955590792 0  0.2938035970166656 0.1900025716352773 0  0.2863345306834508 0.1900035177576729 0  0.2788654136066961 0.1900043141407056 0  0.2713963210965057 0.1900049878679438 0  0.2639272929807727 0.1900055013782497 0  0.2564588648964528 0.1900055498384613 0  0.2607807327502312 0.2000724798835644 0  0.588775552410157 0.2000400328593041 0  0.5745052640716199 0.2001219527718252 0  0.5511911169832923 0.2000375276901654 0  0.2751315888951597 0.1999989585817516 0  0.5365235393711177 0.1999301509765636 0  0.2894667512921482 0.1998667648918509 0  0.521588888570645 0.1999350708058742 0  0.3127863329205894 0.1998599838666841 0  0.3274157869426559 0.199991405537612 0  0.5066539829564981 0.1999399670351013 0  0.3650745518011967 0.1998488747257714 0  0.4767834168361071 0.199949657803096 0  0.3417502274185608 0.1998576080568042 0  0.3796972299124515 0.1999789529091139 0  0.4618477594335159 0.1999544321947746 0  0.4917188251191882 0.1999448323417386 0  0.3946342413955684 0.1999748169697081 0  0.446911853830654 0.1999591412002114 0  0.4089676326504905 0.1998399076810769 0  0.4322843494767391 0.200091067388924 0  0.4201613887823739 0.1999639753558119 0  0.352903071463078 0.2000043563757256 0  0.5633121779418765 0.199902719525399 0  0.3006618880423573 0.1999926681912402 0  0.5815881576036825 0.1965706766470194 0  0.2677068480594325 0.1964262702219507 0  0.5290552920926699 0.1970251814985168 0  0.5439898106242379 0.1970202067072353 0  0.282517219056885 0.2035441361229613 0  0.3199473057504559 0.2028996724331 0  0.4842502175126147 0.1970399505446122 0  0.514120518309962 0.1970301347475878 0  0.3722293904551571 0.2028879164707545 0  0.469314694946329 0.1970447953015625 0  0.3348853528452557 0.2028967376330573 0  0.3871665680368785 0.2028839279694569 0  0.4543789266335218 0.1970495820750849 0  0.4991854926250118 0.1970350603981343 0  0.4020196504471065 0.2035189486941757 0  0.4394429142090799 0.1970542951506497 0  0.2550652711513343 0.2034071610435405 0  0.2548902637636216 0.1966955521718116 0  0.5946486136126128 0.2023405
[...]
<PointData  Vectors="f_46-0"> 
<DataArray  type="Float64"  Name="f_46-0"  NumberOfComponents="3" format="ascii">0.0000000000000000e+00 0.0000000000000000e+00 0.0000000000000000e+00  0.0000000000000000e+00 0.0000000000000000e+00 0.0000000000000000e+00  0.0000000000000000e+00 0.0000000000000000e+00 0.0000000000000000e+00  0.0000000000000000e+00 0.0000000000000000e+00 0.0000000000000000e+00  5.0648150810355991e-05 -4.5671426831440785e-04 0.0000000000000000e+00  9.0797238544442369e-05 -4.8749506186037143e-04 0.0000000000000000e+00  0.0000000000000000e+00 0.0000000000000000e+00 0.0000000000000000e+00  0.0000000000000000e+00 0.0000000000000000e+00 0.0000000000000000e+00  0.0000000000000000e+00 0.0000000000000000e+00 0.0000000000000000e+00  0.0000000000000000e+00 0.0000000000000000e+00 0.0000000000000000e+00  6.2031456150666491e-05 -4.7165249053010138e-04 0.0000000000000000e+00  6.7392026797721660e-02 0.0000000000000000e+00 0.0000000000000000e+00  1.2441604947272515e-01 0.0000000000000000e+00 0.0000000000000000e+00  1.7107206802499714e-01 0.0000000000000000e+00 0.0000000000000000e+00  2.0736008245459156e-01 0.0000000000000000e+00 0.0000000000000000e+00  2.3328009276150377e-01 0.0000000000000000e+00 0.0000000000000000e+00  2.4883209894573222e-01 0.0000000000000000e+00 0.0000000000000000e+00  2.5401610100726135e-01 0.0000000000000000e+00 0.0000000000000000e+00  2.4883209894604658e-01 0.0000000000000000e+00 0.0000000000000000e+00  2.3328009276204387e-01 0.0000000000000000e+00 0.0000000000000000e+00  2.0736008245526041e-01 0.0000000000000000e+00 0.0000000000000000e+00  1.7107206802563255e-01 0.0000000000000000e+00 0.0000000000000000e+00  1.2441604947326738e-01 0.0000000000000000e+00 0.0000000000000000e+00  6.7392026798027166e-02 0.0000000000000000e+00 0.0000000000000000e+00  0.0000000000000000e+00 0.0000000000000000e+00 0.0000000000000000e+00  0.0000000000000000e+00 0.0000000000000000e+00 0.0000000000000000e+00  0.0000000000000000e+00 0.0000000000000000e+00 0.0000000000000000e+00  0.0000000000000000e+00 0.0000000000000000e+00 0.0000000000000000e+00  0.0000000000000000e+00 0.0000000000000000e+00 0.0000000000000000e+00  0.0000000000000000e+00 0.0000000000000000e+00 0.0000000000000000e+00  0.0000000000000000e+00 0.0000000000000000e+00 0.0000000000000000e+00  0.0000000000000000e+00 0.0000000000000000e+00 0.0000000000000000e+00  0.0000000000000000e+00 0.0000000000000000e+00 0.0000000000000000e+00  0.0000000000000000e+00 0.0000000000000000e+00 0.0000000000000000e+00  0.0000000000000000e+00 0.0000000000000000e+00 0.0000000000000000e+00  0.0000000000000000e+00 0.0000000000000000e+00 0.0000000000000000e+00  0.0000000000000000e+00 0.0000000000000000e+00 0.0000000000000000e+00  0.0000000000000000e+00 0.0000000000000000e+00 0.0000000000000000e+00  0.0000000000000000e+00 0.0000000000000000e+00 0.0000000000000000e+00  0.0000000000000000e+00 0.0000000000000000e+00 0.0000000000000000e+00  0.0000000000000000e+00 0.0000000000000000e+00 0.0000000000000000e+00  0.0000000000000000e+00 0.0000000000000000e+00 0.0000000000000000e+00  0.0000000000000000e+00 0.0000000000000000e+00 0.0000000000000000e+00  0.0000000000000000e+00 0.0000000000000000e+00 0.0000000000000000e+00  0.0000000000000000e+00 0.0000000000000000e+00 0.0000000000000000e+00  0.0000000000000000e+00 0.0000000000000000e+00 0.0000000000000000e+00  0.0000000000000000e+00 0.0000000000000000e+00 0.0000000000000000e+00  0.0000000000000000e+00 0.0000000000000000e+00 0.0000000000000000e+00  0.0000000000000000e+00 0.0000000000000000e+00 0.0000000000000000e+00  0.0000000000000000e+00 0.0000000000000000e+00 0.0000000000000000e+00  0.0000000000000000e+00 0.0000000000000000e+00 0.0000000000000000e+00  0.0000000000000000e+00 0.0000000000000000e+00 0.0000000000000000e+00  0.0000000000000000e+00 0.0000000000000000e+00 0.0000000000000000e+00  0.0000000000000000e+00 0.0000000000000000e+00 0.0000000000000000e+00  0.0000000000000000e+00 0.0000000000000000e+00 0.0000000000000000e+00  0.0000000000000000e+00 0.0000000000000000e+00 0.0000000000000000e+00  0.0000000000000000e+00 0.0000000000000000e+00 0.0000000000000000e+00  0.0000000000000000e+00 0.0000000000000000e+00 0.0000000000000000e+00  0.0000000000000000e+00 0.0000000000000000e+00 0.0000000000000000e+00  0.0000000000000000e+00 0.0000000000000000e+00 0.0000000000000000e+00  0.0000000000000000e+00 0.0000000000000000e+00 0.0000000000000000e+00  0.0000000000000000e+00 0.0000000000000000e+00 0.0000000000000000e+00  1.7270060383095123e-01 5.7724153087649497e-03 0.0000000000000000e+00  1.8449043152357106e-01 7.6768230605003080e-04 0.0000000000000000e+00  1.7094627058580431e-01 -6.1806263210039507e-03 0.0000000000000000e+00  0.0000000000000000e+00 0.0000000000000000e+00 0.0000000000000000e+00  0.0000000000000000e+00 0.0000000000000000e+00 0.0000000000000000e+00  0.0000000000000000e+00 0.0000000000000000e+00 0.0000000000000000e+00  0.0000000000000000e+00 0.0000000000000000e+00 0.0000000000000000e+00  0.0000000000000000e+00 0.0000000000000000e+00 0.0000000000000000e+00  0.0000000000000000e+00 0.0000000000000000e+00 0.0000000000000000e+00  0.0000000000000000e+00 0.0000000000000000e+00 0.0000000000000000e+00  0.0000000000000000e+00 0.0000000000000000e+00 0.0000000000000000e+00  0.0000000000000000e+00 0.0000000000000000e+00 0.0000000000000000e+00  0.0000000000000000e+00 0.0000000000000000e+00 0.0000000000000000e+00  0.0000000000000000e+00 0.0000000000000000e+00 0.0000000000000000e+00  0.0000000000000000e+00 0.0000000000000000e+00 0.0000000000000000e+00  0.0000000000000000e+00 0.0000000000000000e+00 0.0000000000000000e+00  0.0000000000000000e+00 0.0000000000000000e+00 0.0000000000000000e+00  0.0000000000000000e+00 0.0000000000000000e+00 0.0000000000000000e+00  0.0000000000000000e+00 0.0000000000000000e+00 0.0000000000000000e+00  0.0000000000000000e+00 0.0000000000000000e+00 0.0000000000000000e+00  0.0000000000000000e+00 0.0000000000000000e+00 0.0000000000000000e+00  0.0000000000000000e+00 0.0000000000000000e+00 0.0000000000000000e+00  0.0000000000000000e+00 0.0000000000000000e+00 0.0000000000000000e+00  0.0000000000000000e+00 0.0000000000000000e+00 0.0000000000000000e+00  0.0000000000000000e+00 0.0000000000000000e+00 0.0000000000000000e+00  0.0000000000000000e+00 0.0000000000000000e+00 0.0000000000000000e+00  0.0000000000000000e+00 0.0000000000000000e+00 0.0000000000000000e+00  0.0000000000000000e+00 0.0000000000000000e+00 0.0000000000000000e+00  0.0000000000000000e+00 0.0000000000000000e+00 0.0000000000000000e+00  0.0000000000000000e+00 0.0000000000000000e+00 0.0000000000000000e+00  0.0000000000000000e+00 0.0000000000000000e+00 0.0000000000000000e+00  0.0000000000000000e+00 0.0000000000000000e+00 0.0000000000000000e+00  0.0000000000000000e+00 0.0000000000000000e+00 0.0000000000000000e+00  0.0000000000000000e+00 0.0000000000000000e+00 0.0000000000000000e+00  0.0000000000000000e+00 0.0000000000000000e+00 0.0000000000000000e+00  0.0000000000000000e+00 0.0000000000000000e+00 0.0000000000000000e+00  0.0000000000000000e+00 0.0000000000000000e+00 0.0000000000000000e+00  0.0000000000000000e+00 0.0000000000000000e+00 0.0000000000000000e+00  0.0000000000000000e+00 0.0000000000000000e+00 0.0000000000000000e+00  0.0000000000000000e+00 0.0000000000000000e+00 0.0000000000000000e+00  0.0000000000000000e+00 0.0000000000000000e+00 0.0000000000000000e+00  0.0000000000000000e+00 0.0000000000000000e+00 0.0000000000000000e+00  0.0000000000000000e+00 0.0000000000000000e+00 0.0000000000000000e+00  0.0000000000000000e+00 0.0000000000000000e+00 0.0000000000000000e+00  0.0000000000000000e+00 0.0000000000000000e+00 0.0000000000000000e+00  0.0000000000000000e+00 0.0000000000000000e+00 0.0000000000000000e+00  0.0000000000000000e+00 0.0000000000000000e+00 0.0000000000000000e+00  0.0000000000000000e+00 0.0000000000000000e+00 0.0000000000000000e+00  0.0000000000000000e+00 0.0000000000000000e+00 0.0000000000000000e+00  0.0000000000000000e+00 0.0000000000000000e+00 0.0000000000000000e+00  0.0000000000000000e+00 0.0000000000000000e+00 0.0000000000000000e+00  0.0000000000000000e+00 0.0000000000000000e+00 0.0000000000000000e+00  0.0000000000000000e+00 0.0000000000000000e+00 0.0000000000000000e+00  0.0000000000000000e+00 0.0000000000000000e+00 0.0000000000000000e+00  0.0000000000000000e+00 0.0000000000000000e+00 0.0000000000000000e+00  0.0000000000000000e+00 0.0000000000000000e+00 0.0000000000000000e+00  0.0000000000000000e+00 0.0000000000000000e+00 0.0000000000000000e+00  0.0000000000000000e+00 0.0000000000000000e+00 0.0000000000000000e+00  0.0000000000000000e+00 0.0000000000000000e+00 0.0000000000000000e+00  0.0000000000000000e+00 0.0000000000000000e+00 0.0000000000000000e+00  0.0000000000000000e+00 0.0000000000000000e+00 0.0000000000000000e+00  0.0000000000000000e+00 0.0000000000000000e+00 0.0000000000000000e+00  0.0000000000000000e+00 0.0000000000000000e+00 0.0000000000000000e+00  0.0000000000000000e+00 0.0000000000000000e+00 0.0000000000000000e+00  0.0000000000000000e+00 0.0000000000000000e+00 0.0000000000000000e+00  0.0000000000000000e+00 0.0000000000000000e+00 0.0000000000000000e+00  0.0000000000000000e+00 0.0000000000000000e+00 0.0000000000000000e+00  0.0000000000000000e+00 0.0000000000000000e+00 0.0000000000000000e+00  0.0000000000000000e+00 0.0000000000000000e+00 0.0000000000000000e+00  0.0000000000000000e+00 0.0000000000000000e+00 0.0000000000000000e+00  0.0000000000000000e+00 0.0000000000000000e+00 0.0000000000000000e+00  0.0000000000000000e+00 0.0000000000000000e+00 0.0000000000000000e+00  0.0000000000000000e+00 0.0000000000000000e+00 0.0000000000000000e+00  0.0000000000000000e+00 0.0000000000000000e+00 0.0000000000000000e+00  0.0000000000000000e+00 0.0000000000000000e+00 0.0000000000000000e+00  0.0000000000000000e+00 0.0000000000000000e+00 0.0000000000000000e+00  0.0000000000000000e+00 0.0000000000000000e+00 0.0000000000000000e+00  0.0000000000000000e+00 0.0000000000000000e+00 0.0000000000000000e+00  0.0000000000000000e+00 0.0000000000000000e+00 0.0000000000000000e+00  0.0000000000000000e+00 0.0000000000000000e+00 0.0000000000000000e+00  0.0000000000000000e+00 0.0000000000000000e+00 0.0000000000000000e+00  1.7986035894154208e-06 3.0839484436972898e-05 0.0000000000000000e+00  9.0056215652942745e-06 -1.0255247623087692e-05 0.0000000000000000e+00  1.1738254201846801e-05 -1.4340493431290962e-05 0.0000000000000000e+00  1.7041405201952166e-05 -1.7129435631557853e-05 0.0000000000000000e+00  2.2524552621622403e-05 -1.9266663894686840e-05 0.0000000000000000e+00  2.6656599761030720e-05 -2.2055070592209261e-05 0.0000000000000000e+00  3.2209468703271774e-05 -2.6553760392123010e-05 0.0000000000000000e+00  3.5640725772353529e-05 -2.9735992938000968e-05 0.0000000000000000e+00  3.9964481304505635e-05 -3.4847640127134215e-05 0.0000000000000000e+00  4.5136382201634094e-05 -3.9420221950735018e-05 0.0000000000000000e+00  4.8218316347858328e-05 -4.5691785202883894e-05 0.0000000000000000e+00  5.3074231736238421e-05 -5.1439314987232003e-05 0.0000000000000000e+00  5.6053132122548376e-05 -5.8211022110826268e-05 0.0000000000000000e+00  6.0628145606597624e-05 -6.5981048893924693e-05 0.0000000000000000e+00  6.3023813564211601e-05 -7.3299166638565513e-05 0.0000000000000000e+00  6.6401949986792170e-05 -8.1906840375508939e-05 0.0000000000000000e+00  6.9973223992821892e-05 -9.0002525575296117e-05 0.0000000000000000e+00  7.2331003272764027e-05 -9.9722220880704940e-05 0.0000000000000000e+00  7.5581949825591477e-05 -1.0868939135878596e-04 0.0000000000000000e+00  7.7566006340840378e-05 -1.1913391624663050e-04 0.0000000000000000e+00  8.0296441310404200e-05 -1.2905128353019407e-04 0.0000000000000000e+00  8.2113480707901224e-05 -1.3988476259270459e-04 0.0000000000000000e+00  8.5045140693535703e-05 -1.5114748565781355e-04 0.0000000000000000e+00  8.6032708484747044e-05 -1.6242967259644323e-04 0.0000000000000000e+00  8.7765016040445675e-05 -1.7431146260608621e-04 0.0000000000000000e+00  8.9413762434632145e-05 -1.8597070518154839e-04 0.0000000000000000e+00  9.0608137627099018e-05 -1.9863110881288798e-04 0.0000000000000000e+00  9.1874142459905981e-05 -2.1081028889726597e-04 0.0000000000000000e+00  9.2752719203559984e-05 -2.2395435933574899e-04 0.0000000000000000e+00  9.3641579604106226e-05 -2.3659651364164665e-04 0.0000000000000000e+00  9.4193983126027145e-05 -2.5015694587020960e-04 0.0000000000000000e+00  9.4712517179673799e-05 -2.6318252816747226e-04 0.0000000000000000e+00  9.4933959934393117e-05 -2.7709556420835911e-04 0.0000000000000000e+00  9.5088975612003953e-05 -2.9042641223960816e-04 0.0000000000000000e+00  9.4969909463538460e-05 -3.0461876580631982e-04 0.0000000000000000e+00  9.4762746003784095e-05 -3.1819677580856618e-04 0.0000000000000000e+00  9.4307004949194148e-05 -3.3260508734041651e-04 0.0000000000000000e+00  9.3739214354379317e-05 -3.4635953058063159e-04 0.0000000000000000e+00  9.2949536159002538e-05 -3.6092424174120202e-04 0.0000000000000000e+00  9.1999458574108670e-05 -3.7482633365954610e-04 0.0000000000000000e+00  9.0789022168138176e-05 -3.8924662368003876e-04 0.0000000000000000e+00  9.0275768284217385e-05 -4.0371259929078060e-04 0.0000000000000000e+00  8.7932505063280868e-05 -4.1799935726342051e-04 0.0000000000000000e+00  8.6264095091093161e-05 -4.3252773424561558e-04 0.0000000000000000e+00  8.4682484259544330e-05 -4.4641097527390618e-04 0.0000000000000000e+00  8.1888717995919229e-05 -4.6603282310223547e-04 0.0000000000000000e+00  7.4726269175116186e-05 -4.7428502920857611e-04 0.0000000000000000e+00  5.5402718014146013e-05 -4.6953612921788043e-04 0.0000000000000000e+00  4.3793752144261437e-05 -4.4783531845025770e-04 0.0000000000000000e+00  4.5929058029398317e-05 -4.3816259607189337e-04 0.0000000000000000e+00  4.7351843440904766e-05 -4.2279647516011142e-04 0.0000000000000000e+00  4.9028270656717123e-05 -4.0835122281862720e-04 0.0000000000000000e+00  5.1396606301451299e-05 -3.9357145322425197e-04 0.0000000000000000e+00  5.2004239658359007e-05 -3.7898050327159866e-04 0.0000000000000000e+00  5.3538161416878427e-05 -3.6455623023423916e-04 0.0000000000000000e+00  5.4625306498364516e-05 -3.4938599905649277e-04 0.0000000000000000e+00  5.5536608056755363e-05 -3.3544695767515049e-04 0.0000000000000000e+00  5.6396222432314626e-05 -3.2035086478596854e-04 0.0000000000000000e+00  5.7006905443796081e-05 -3.0658180595940517e-04 0.0000000000000000e+00  5.7609765921175079e-05 -2.9168093945204187e-04 0.0000000000000000e+00  5.7934015100231108e-05 -2.7812596062183479e-04 0.0000000000000000e+00  5.8292669764228118e-05 -2.6348129434853202e-04 0.0000000000000000e+00  5.8332216891459298e-05 -2.5020294235547581e-04 0.0000000000000000e+00  5.8457950502294127e-05 -2.3587960691446395e-04 0.0000000000000000e+00  5.8210688764507078e-05 -2.2294503411857830e-04 0.0000000000000000e+00  5.8112933009351326e-05 -2.0901210294205528e-04 0.0000000000000000e+00  5.7575026520756691e-05 -1.9649653018591256e-04 0.0000000000000000e+00  5.7266782102320336e-05 -1.8302916044153210e-04 0.0000000000000000e+00  5.6431787348076306e-05 -1.7098463184035348e-04 0.0000000000000000e+00  5.5926996450281438e-05 -1.5813466562501093e-04 0.0000000000000000e+00  5.4701226488418071e-05 -1.4626155384141003e-04 0.0000000000000000e+00  5.4319236257222885e-05 -1.3483445136230695e-04 0.0000000000000000e+00  5.2476896241250780e-05 -1.2321933859417357e-04 0.0000000000000000e+00  5.1283951251016823e-05 -1.1227616323315931e-04 0.0000000000000000e+00  5.0145556563531619e-05 -1.0124259072041012e-04 0.0000000000000000e+00  4.8390254120610008e-05 -9.1289291701164267e-05 0.0000000000000000e+00  4.7060262435020323e-05 -8.1067929228708955e-05 0.0000000000000000e+00  4.4974708412615183e-05 -7.1926989236568029e-05 0.0000000000000000e+00  4.3415466554831278e-05 -6.2639687257258340e-05 0.0000000000000000e+00  4.1249668887110967e-05 -5.4122647890561704e-05 0.0000000000000000e+00  3.9537790575234012e-05 -4.6688560772013336e-05 0.0000000000000000e+00  3.6652545282453245e-05 -3.8564588427943638e-05 0.0000000000000000e+00  3.4220573914904784e-05 -3.1612218076108700e-05 0.0000000000000000e+00  3.2244861998247004e-05 -2.4726575203219413e-05 0.0000000000000000e+00  2.8989619141486161e-05 -1.8992195909037657e-05 0.0000000000000000e+00  2.6824535288948393e-05 -1.3313974768004570e-05 0.0000000000000000e+00  2.3664699172798436e-05 -8.4166001062875628e-06 0.0000000000000000e+00  2.0872822930574077e-05 -5.0722872010519165e-06 0.0000000000000000e+00  1.7346055827052209e-05 -5.0189225215951056e-07 0.0000000000000000e+00  1.3870481613560731e-05 2.5317860808526750e-06 0.0000000000000000e+00  1.2032325720148565e-05 5.4256327028881890e-06 0.0000000000000000e+00  6.0754254951681819e-06 6.3277295526723477e-06 0.0000000000000000e+00  6.8093279228120272e-06 4.2552087568300901e-06 0.0000000000000000e+00  1.7751786889278773e-06 -3.1272603325497161e-05 0.0000000000000000e+00  6.1337642427972148e-06 -2.2921989930242941e-06 0.0000000000000000e+00  6.3993185400122726e-05 -4.4971894165170262e-04 0.0000000000000000e+00  6.7717726012744243e-05 -4.2176762728482004e-04 0.0000000000000000e+00  7.1914036134151677e-05 -3.7646526893310054e-04 0.0000000000000000e+00  1.2028373708318921e-05 -5.0784782615035623e-06 0.0000000000000000e+00  7.3593789325451014e-05 -3.4799899626580512e-04 0.0000000000000000e+00  1.9703749382013245e-05 -9.1314751692959946e-06 0.0000000000000000e+00  7.5003586722789439e-05 -3.1938116413020903e-04 0.0000000000000000e+00  3.1172732735438818e-05 -2.1374028614554200e-05 0.0000000000000000e+00  3.8110994250238637e-05 -3.2075869469192093e-05 0.0000000000000000e+00  7.5791637572107475e-05 -2.9114322903488009e-04 0.0000000000000000e+00  5.3043470768198357e-05 -6.7980729941178678e-05 0.0000000000000000e+00  7.5525209134038300e-05 -2.3628625519688811e-04 0.0000000000000000e+00  4.4419158804663832e-05 -4.3868621204432154e-05 0.0000000000000000e+00  5.7996363988101478e-05 -8.5512319991656982e-05 0.0000000000000000e+00  7.4481042652311662e-05 -2.0994287383841847e-04 0.0000000000000000e+00  7.5963352298444870e-05 -2.6339998980860914e-04 0.0000000000000000e+00  6.2409916583687142e-05 -1.0489516346863700e-04 0.0000000000000000e+00  7.2841970692999399e-05 -1.8450729007291682e-04 0.0000000000000000e+00  6.5986314893759669e-05 -1.2486567141000191e-04 0.0000000000000000e+00  7.0985903563778132e-05 -1.6063795914502272e-04 0.0000000000000000e+00  6.9452474600005507e-05 -1.4175474068606856e-04 0.0000000000000000e+00  4.9746918178126752e-05 -5.5146625210181102e-05 0.0000000000000000e+00  7.0559376942567722e-05 -3.9988513522955032e-04 0.0000000000000000e+00  2.6184407991455892e-05 -1.4721261994015148e-05 0.0000000000000000e+00  5.9062108047661819e-05 -4.3385928914731908e-04 0.0000000000000000e+00  7.5887714516778186e-06 -1.0050282909275263e-06 0.0000000000000000e+00  6.9284143402578274e-05 -3.3196741543693172e-04 0.0000000000000000e+00  6.7504174997315219e-05 -3.6079919452543317e-04 0.0000000000000000e+00  1.7265243841307777e-05 -1.0959876358940099e-05 0.0000000000000000e+00  3.7239112345487887e-05 -2.9602856218045698e-05 0.0000000000000000e+00  7.1010697619376464e-05 -2.4778874463075477e-04 0.0000000000000000e+00  7.0453255489438929e-05 -3.0343203710249037e-04 0.0000000000000000e+00  5.9523759078012523e-05 -7.9177693394333099e-05 0.0000000000000000e+00  7.0415002193235810e-05 -2.2094836183987688e-04 0.0000000000000000e+00  4.4307862690821104e-05 -4.1218507197473302e-05 0.0000000000000000e+00  6.4474824021329747e-05 -9.7685864260715116e-05 0.0000000000000000e+00  6.9242195997733192e-05 -1.9495361409131070e-04 0.0000000000000000e+00  7.1025605637608795e-05 -2.7532927972166634e-04 0.0000000000000000e+00  6.9717877222390780e-05 -1.1825608389351990e-04 0.0000000000000000e+00  6.7490922788674229e-05 -1.6996488266883498e-04 0.0000000000000000e+00  2.0654307987037799e-05 -5.5976994072154774e-06 0.0000000000000000e+00  1.9356372335339988e-05 4.4368224265336023e-07 0.0000000000000000e+00  6.8251642418816000e-05 -4.6326957772063011e-04 0.0000000000000000e+00  9.1958728302050906e-06 -6.2649800773513321e-06 0.0000000000000000e+00  6.456873792