<?xml version="1.0"?>
<VTKFile type="UnstructuredGrid"  version="0.1"  >
<UnstructuredGrid>
<Piece  NumberOfPoints="1419" NumberOfCells="2698">
<Points>
<DataArray  type="Float64"  NumberOfComponents="3"  format="ascii">0 0 0  0 0.41 0  2.5 0 0  2.5 0.41 0  0.5999883588143722 0.1899300348371402 0  0.5999935082890799 0.2099245106452683 0  0.25 0.2 0  0.15 0.2 0  0.2489897948556636 0.21 0  0.2489897948556636 0.19 0  0.5999904311190281 0.199927272173245 0  0 0.3807142857143437 0  0 0.3514285714286952 0  0 0.3221428571430699 0  0 0.29285714285744 0  0 0.2635714285718054 0  0 0.2342857142861561 0  0 0.2050000000005308 0  0 0.175714285714732 0  0 0.1464285714289574 0  0 0.1171428571431897 0  0 0.08785714285737878 0  0 0.05857142857161107 0  0 0.02928571428580012 0  0.03015443760436003 0 0  0.06140001986583606 0 0  0.09377624077125973 0 0  0.1273239957535082 0 0  0.1620856860351972 0 0  0.1981052433264291 0 0  0.235428184091502 0 0  0.2741016576309132 0 0  0.3141745521465447 0 0  0.3556974926295285 0 0  0.3987229542472677 0 0  0.4433053055141081 0 0  0.4895008759286886 0 0  0.5373680609405097 0 0  0.5869673343216626 0 0  0.6383613676634521 0 0  0.6916151138468254 0 0  0.7467958595648856 0 0  0.8039733463919316 0 0  0.8632198139502143 0 0  0.9246101326867038 0 0  0.9882218810934433 0 0  1.054135445558498 0 0  1.122434100542598 0 0  1.193204177141305 0 0  1.266535089879536 0 0  1.342519516046404 0 0  1.421253448503939 0 0  1.502836389106271 0 0  1.587371439758838 0 0  1.674965418777374 0 0  1.765729001825544 0 0  1.859776908880082 0 0  1.957227977487062 0 0  2.058205329869943 0 0  2.162836591189951 0 0  2.271253957290865 0 0  2.383594446803425 0 0  2.5 0.1024999999997612 0  2.5 0.2049999999994743 0  2.5 0.3074999999997183 0  2.383594446803656 0.41 0  2.271253957291315 0.41 0  2.162836591190598 0.41 0  2.058205329870775 0.41 0  1.957227977488067 0.41 0  1.859776908881246 0.41 0  1.765729001826854 0.41 0  1.674965418778818 0.41 0  1.58737143976041 0.41 0  1.502836389107956 0.41 0  1.421253448505726 0.41 0  1.342519516048286 0.41 0  1.266535089881505 0.41 0  1.193204177143353 0.41 0  1.122434100544716 0.41 0  1.05413544556068 0.41 0  0.9882218810956305 0.41 0  0.9246101326886647 0.41 0  0.8632198139519631 0.41 0  0.8039733463934788 0.41 0  0.7467958595662458 0.41 0  0.6916151138480078 0.41 0  0.6383613676644679 0.41 0  0.5869673343225223 0.41 0  0.5373680609412221 0.41 0  0.4895008759292634 0.41 0  0.4433053055145528 0.41 0  0.3987229542475914 0.41 0  0.3556974926297398 0.41 0  0.3141745521466497 0.41 0  0.2741016576310038 0.41 0  0.2354281840915826 0.41 0  0.1981052433265003 0.41 0  0.1620856860352591 0.41 0  0.1273239957535623 0.41 0  0.09377624077128965 0.41 0  0.06140001986584975 0.41 0  0.03015443760436654 0.41 0  0.2497468076502589 0.2050254481002335 0  0.2497468076502614 0.1949745518997913 0  0.2469965252529372 0.1829317073451959 0  0.2439893735792749 0.1762316384219906 0  0.2400332147834255 0.1700443375285386 0  0.2352133972704371 0.1645032867342007 0  0.2296339016332438 0.1597280261969788 0  0.2234150974217223 0.1558215752574715 0  0.2166911463437691 0.1528682099456123 0  0.2096071079204251 0.1509316448471593 0  0.2023158100364996 0.1500536585536553 0  0.194974551899914 0.1502531923497262 0  0.1877417105387872 0.1515259415822739 0  0.1807733240461124 0.153844448527136 0  0.1742197252835808 0.15715869474974 0  0.1682222986673531 0.1613971801805478 0  0.162910430003803 0.1664684656256651 0  0.1583987151779087 0.1722631454351573 0  0.1547844879126891 0.178656207771761 0  0.1521457199348551 0.1855097315605723 0  0.1505393388476355 0.1926758619366523 0  0.1505393388476328 0.2073241380633295 0  0.1521457199348437 0.2144902684393899 0  0.1547844879126531 0.221343792228163 0  0.1583987151778488 0.2277368545647528 0  0.1629104300036858 0.2335315343742052 0  0.1682222986671726 0.2386028198193036 0  0.1742197252833576 0.2428413052501257 0  0.1807733240458683 0.2461555514727623 0  0.1877417105384929 0.2484740584176516 0  0.1949745518995776 0.2497468076502398 0  0.202315810036185 0.2499463414463592 0  0.2096071079201568 0.2490683551528932 0  0.2166911463435495 0.2471317900544655 0  0.2234150974215506 0.2441784247426195 0  0.2296339016331197 0.2402719738031125 0  0.2352133972703547 0.2354967132658811 0  0.2400332147833751 0.2299556624715287 0  0.2439893735792577 0.2237683615780412 0  0.246996525252926 0.2170682926548348 0  0.2564591491798968 0.2099945511359549 0  0.2639278953713857 0.2099941517830325 0  0.2713971648814703 0.2099938394517526 0  0.2788665084860754 0.2099933931757576 0  0.2863358120986111 0.2099927929076848 0  0.2938050745941698 0.2099920739319948 0  0.3012742660563826 0.2099912570270897 0  0.3087434186028651 0.2099903226441162 0  0.3162125017159106 0.2099893055898674 0  0.3236815159586728 0.2099881911845485 0  0.3311504853363996 0.2099870065467764 0  0.3386193767856296 0.2099857379998992 0  0.3460882210623574 0.2099844064764739 0  0.3535569873972644 0.2099830171229183 0  0.3610257106100178 0.2099815645306172 0  0.3684943613261956 0.2099800679009661 0  0.3759629483736957 0.2099785175990984 0  0.383431482218354 0.2099769375819591 0  0.390899947177273 0.2099753109714532 0  0.3983683600735398 0.2099736625098393 0  0.4058367057710049 0.2099719775902983 0  0.4133049974507183 0.2099702734444525 0  0.4207732181867803 0.2099685480316272 0  0.428241395753911 0.2099668025708347 0  0.4357095060414715 0.2099650429096239 0  0.4431775573533021 0.209963265180092 0  0.4506455521071414 0.2099614822731738 0  0.45811348733358 0.2099596827473478 0  0.4655813658145778 0.2099578815451991 0  0.4730491856352358 0.2099560664621379 0  0.4805169487419145 0.2099542521960423 0  0.4879846535995672 0.2099524260739183 0  0.4954523018430675 0.2099506024147932 0  0.5029198920402144 0.2099487684851093 0  0.5103874252254655 0.2099469380467057 0  0.5178549005457564 0.2099450982277337 0  0.5253223185607346 0.209943262953065 0  0.5327896783664428 0.2099414188739425 0  0.5402569801384832 0.2099395801732464 0  0.5477242232097518 0.209937733373752 0  0.5551914078068854 0.2099358900969011 0  0.5626585243501947 0.2099340464303713 0  0.5701255945486162 0.209932201402586 0  0.5775925944159669 0.2099303621732541 0  0.5850595381412688 0.2099285267182284 0  0.592526496902182 0.209926719409484 0  0.5999917933597171 0.2049258580253971 0  0.5999892234167586 0.194928683587816 0  0.5925213466996491 0.1899316677291183 0  0.5850543887843573 0.1899337024748444 0  0.5775874496641764 0.1899357109994256 0  0.5701204538188369 0.1899377151769394 0  0.5626533877566717 0.1899397093731092 0  0.555186275518606 0.1899417016668947 0  0.5477190936745355 0.189943692364875 0  0.5402518561210535 0.1899456728261083 0  0.5327845603741983 0.189947661661099 0  0.5253172066124822 0.189949636167442 0  0.5178497961406978 0.1899516195846108 0  0.5103823282166182 0.1899535883193745 0  0.5029148045225369 0.1899555653889759 0  0.4954472238966499 0.1899575272705034 0  0.4879795883850003 0.1899594965755128 0  0.4805118963195653 0.1899614497477524 0  0.4730441503559111 0.1899634089825128 0  0.4655763480895801 0.1899653505412696 0  0.4581084931271462 0.1899672960782269 0  0.4506405820619618 0.1899692216719099 0  0.4431726197295068 0.1899711482173164 0  0.4357046012150672 0.1899730525694598 0  0.4282365344282484 0.1899749498735989 0  0.4207684066145062 0.1899768313163425 0  0.4133002390574091 0.1899786904189875 0  0.4058320129080709 0.1899805304194875 0  0.3983637349110641 0.1899823415857977 0  0.3908954100751748 0.1899841308676853 0  0.3834270314375908 0.1899858819544649 0  0.3759586083243669 0.1899876028112137 0  0.3684901317399277 0.1899892774009197 0  0.3610216109962318 0.1899909092867105 0  0.3535530381445217 0.1899924948707674 0  0.3460844280267281 0.1899940140432597 0  0.3386157670437259 0.189995476304257 0  0.3311470566984714 0.1899968650986873 0  0.3236783121993831 0.1899981837585774 0  0.3162095150991446 0.1899994144817747 0  0.3087406842059898 0.1900005568177868 0  0.3012718102633706 0.1900016082016316 0  0.2938029043514323 0.1900025363422687 0  0.2863339623132382 0.1900033562695092 0  0.2788649744157657 0.1900040503465734 0  0.2713960074183354 0.1900046430206559 0  0.2639271006956746 0.190005098279619 0  0.256458745695403 0.1900051337956129 0  0.260780586054404 0.2000725024832606 0  0.5887731332024527 0.2000573668758113 0  0.5745026851171648 0.2001382202690863 0  0.5511883567092921 0.2000520526275788 0  0.275131113815523 0.1999990830618495 0  0.5365207020900601 0.1999435851105014 0  0.2894659778140792 0.1998670746488778 0  0.5215859896315397 0.1999474062736164 0  0.3127850988079123 0.1998607803074246 0  0.3274142837604622 0.1999926208871366 0  0.5066510471933843 0.1999512176214393 0  0.3650724694087984 0.1998515046193214 0  0.4767804806261655 0.1999587989203599 0  0.3417484893324458 0.1998593009528559 0  0.3796949548983116 0.1999822642865564 0  0.4618448592046311 0.1999625589851436 0  0.4917158770108861 0.1999550164803993 0  0.3946317992177258 0.1999788842790594 0  0.4469090135829517 0.1999662878608217 0  0.4089650597537712 0.1998447525256198 0  0.4322815835534704 0.2000972970999417 0  0.4201587170601478 0.1999694697500037 0  0.3529011566285005 0.2000064799771958 0  0.5633095180875606 0.1999181457439456 0  0.3006608865567537 0.1999931896728721 0  0.5815859139541836 0.1965874106735754 0  0.267706559328453 0.1964261663004074 0  0.5290526337142318 0.1970379966276389 0  0.5439872284702379 0.1970341299136177 0  0.282516540095341 0.2035445070642832 0  0.3199458541698459 0.2029007897076173 0  0.4842474741661867 0.1970495299535985 0  0.5141178079799509 0.1970418535687623 0  0.3722270743140845 0.2028909840310193 0  0.4693119699242416 0.1970533415356416 0  0.3348836242653463 0.202898314556918 0  0.3871640598571631 0.2028877154711511 0  0.4543762428999418 0.1970571265731385 0  0.4991827540923009 0.1970456990428058 0  0.4020169409805676 0.2035235369529406 0  0.4394402945839935 0.1970608749199087 0  0.2550652494980486 0.203407287020751 0  0.2548902574265782 0.1966954348714064 0  0.5946460973173229 0
[...]
<PointData  Vectors="f_46-1"> 
<DataArray  type="Float64"  Name="f_46-1"  NumberOfComponents="3" format="ascii">0.0000000000000000e+00 0.0000000000000000e+00 0.0000000000000000e+00  0.0000000000000000e+00 0.0000000000000000e+00 0.0000000000000000e+00  0.0000000000000000e+00 0.0000000000000000e+00 0.0000000000000000e+00  0.0000000000000000e+00 0.0000000000000000e+00 0.0000000000000000e+00  3.4900851313166612e-07 -4.1933104948939894e-06 0.0000000000000000e+00  6.9519309082991066e-07 -4.2919364302966459e-06 0.0000000000000000e+00  0.0000000000000000e+00 0.0000000000000000e+00 0.0000000000000000e+00  0.0000000000000000e+00 0.0000000000000000e+00 0.0000000000000000e+00  0.0000000000000000e+00 0.0000000000000000e+00 0.0000000000000000e+00  0.0000000000000000e+00 0.0000000000000000e+00 0.0000000000000000e+00  5.0798890033106592e-07 -4.2426062363589912e-06 0.0000000000000000e+00  0.0000000000000000e+00 0.0000000000000000e+00 0.0000000000000000e+00  0.0000000000000000e+00 0.0000000000000000e+00 0.0000000000000000e+00  0.0000000000000000e+00 0.0000000000000000e+00 0.0000000000000000e+00  0.0000000000000000e+00 0.0000000000000000e+00 0.0000000000000000e+00  0.0000000000000000e+00 0.0000000000000000e+00 0.0000000000000000e+00  0.0000000000000000e+00 0.0000000000000000e+00 0.0000000000000000e+00  0.0000000000000000e+00 0.0000000000000000e+00 0.0000000000000000e+00  0.0000000000000000e+00 0.0000000000000000e+00 0.0000000000000000e+00  0.0000000000000000e+00 0.0000000000000000e+00 0.0000000000000000e+00  0.0000000000000000e+00 0.0000000000000000e+00 0.0000000000000000e+00  0.0000000000000000e+00 0.0000000000000000e+00 0.0000000000000000e+00  0.0000000000000000e+00 0.0000000000000000e+00 0.0000000000000000e+00  0.0000000000000000e+00 0.0000000000000000e+00 0.0000000000000000e+00  0.0000000000000000e+00 0.0000000000000000e+00 0.0000000000000000e+00  0.0000000000000000e+00 0.0000000000000000e+00 0.0000000000000000e+00  0.0000000000000000e+00 0.0000000000000000e+00 0.0000000000000000e+00  0.0000000000000000e+00 0.0000000000000000e+00 0.0000000000000000e+00  0.0000000000000000e+00 0.0000000000000000e+00 0.0000000000000000e+00  0.0000000000000000e+00 0.0000000000000000e+00 0.0000000000000000e+00  0.0000000000000000e+00 0.0000000000000000e+00 0.0000000000000000e+00  0.0000000000000000e+00 0.0000000000000000e+00 0.0000000000000000e+00  0.0000000000000000e+00 0.0000000000000000e+00 0.0000000000000000e+00  0.0000000000000000e+00 0.0000000000000000e+00 0.0000000000000000e+00  0.0000000000000000e+00 0.0000000000000000e+00 0.0000000000000000e+00  0.0000000000000000e+00 0.0000000000000000e+00 0.0000000000000000e+00  0.0000000000000000e+00 0.0000000000000000e+00 0.0000000000000000e+00  0.0000000000000000e+00 0.0000000000000000e+00 0.0000000000000000e+00  0.0000000000000000e+00 0.0000000000000000e+00 0.0000000000000000e+00  0.0000000000000000e+00 0.0000000000000000e+00 0.0000000000000000e+00  0.0000000000000000e+00 0.0000000000000000e+00 0.0000000000000000e+00  0.0000000000000000e+00 0.0000000000000000e+00 0.0000000000000000e+00  0.0000000000000000e+00 0.0000000000000000e+00 0.0000000000000000e+00  0.0000000000000000e+00 0.0000000000000000e+00 0.0000000000000000e+00  0.0000000000000000e+00 0.0000000000000000e+00 0.0000000000000000e+00  0.0000000000000000e+00 0.0000000000000000e+00 0.0000000000000000e+00  0.0000000000000000e+00 0.0000000000000000e+00 0.0000000000000000e+00  0.0000000000000000e+00 0.0000000000000000e+00 0.0000000000000000e+00  0.0000000000000000e+00 0.0000000000000000e+00 0.0000000000000000e+00  0.0000000000000000e+00 0.0000000000000000e+00 0.0000000000000000e+00  0.0000000000000000e+00 0.0000000000000000e+00 0.0000000000000000e+00  0.0000000000000000e+00 0.0000000000000000e+00 0.0000000000000000e+00  0.0000000000000000e+00 0.0000000000000000e+00 0.0000000000000000e+00  0.0000000000000000e+00 0.0000000000000000e+00 0.0000000000000000e+00  0.0000000000000000e+00 0.0000000000000000e+00 0.0000000000000000e+00  0.0000000000000000e+00 0.0000000000000000e+00 0.0000000000000000e+00  0.0000000000000000e+00 0.0000000000000000e+00 0.0000000000000000e+00  0.0000000000000000e+00 0.0000000000000000e+00 0.0000000000000000e+00  0.0000000000000000e+00 0.0000000000000000e+00 0.0000000000000000e+00  0.0000000000000000e+00 0.0000000000000000e+00 0.0000000000000000e+00  0.0000000000000000e+00 0.0000000000000000e+00 0.0000000000000000e+00  0.0000000000000000e+00 0.0000000000000000e+00 0.0000000000000000e+00  0.0000000000000000e+00 0.0000000000000000e+00 0.0000000000000000e+00  0.0000000000000000e+00 0.0000000000000000e+00 0.0000000000000000e+00  0.0000000000000000e+00 0.0000000000000000e+00 0.0000000000000000e+00  0.0000000000000000e+00 0.0000000000000000e+00 0.0000000000000000e+00  0.0000000000000000e+00 0.0000000000000000e+00 0.0000000000000000e+00  0.0000000000000000e+00 0.0000000000000000e+00 0.0000000000000000e+00  0.0000000000000000e+00 0.0000000000000000e+00 0.0000000000000000e+00  0.0000000000000000e+00 0.0000000000000000e+00 0.0000000000000000e+00  0.0000000000000000e+00 0.0000000000000000e+00 0.0000000000000000e+00  0.0000000000000000e+00 0.0000000000000000e+00 0.0000000000000000e+00  0.0000000000000000e+00 0.0000000000000000e+00 0.0000000000000000e+00  0.0000000000000000e+00 0.0000000000000000e+00 0.0000000000000000e+00  0.0000000000000000e+00 0.0000000000000000e+00 0.0000000000000000e+00  0.0000000000000000e+00 0.0000000000000000e+00 0.0000000000000000e+00  0.0000000000000000e+00 0.0000000000000000e+00 0.0000000000000000e+00  0.0000000000000000e+00 0.0000000000000000e+00 0.0000000000000000e+00  0.0000000000000000e+00 0.0000000000000000e+00 0.0000000000000000e+00  0.0000000000000000e+00 0.0000000000000000e+00 0.0000000000000000e+00  0.0000000000000000e+00 0.0000000000000000e+00 0.0000000000000000e+00  0.0000000000000000e+00 0.0000000000000000e+00 0.0000000000000000e+00  0.0000000000000000e+00 0.0000000000000000e+00 0.0000000000000000e+00  0.0000000000000000e+00 0.0000000000000000e+00 0.0000000000000000e+00  0.0000000000000000e+00 0.0000000000000000e+00 0.0000000000000000e+00  0.0000000000000000e+00 0.0000000000000000e+00 0.0000000000000000e+00  0.0000000000000000e+00 0.0000000000000000e+00 0.0000000000000000e+00  0.0000000000000000e+00 0.0000000000000000e+00 0.0000000000000000e+00  0.0000000000000000e+00 0.0000000000000000e+00 0.0000000000000000e+00  0.0000000000000000e+00 0.0000000000000000e+00 0.0000000000000000e+00  0.0000000000000000e+00 0.0000000000000000e+00 0.0000000000000000e+00  0.0000000000000000e+00 0.0000000000000000e+00 0.0000000000000000e+00  0.0000000000000000e+00 0.0000000000000000e+00 0.0000000000000000e+00  0.0000000000000000e+00 0.0000000000000000e+00 0.0000000000000000e+00  0.0000000000000000e+00 0.0000000000000000e+00 0.0000000000000000e+00  0.0000000000000000e+00 0.0000000000000000e+00 0.0000000000000000e+00  0.0000000000000000e+00 0.0000000000000000e+00 0.0000000000000000e+00  0.0000000000000000e+00 0.0000000000000000e+00 0.0000000000000000e+00  0.0000000000000000e+00 0.0000000000000000e+00 0.0000000000000000e+00  0.0000000000000000e+00 0.0000000000000000e+00 0.0000000000000000e+00  0.0000000000000000e+00 0.0000000000000000e+00 0.0000000000000000e+00  0.0000000000000000e+00 0.0000000000000000e+00 0.0000000000000000e+00  0.0000000000000000e+00 0.0000000000000000e+00 0.0000000000000000e+00  0.0000000000000000e+00 0.0000000000000000e+00 0.0000000000000000e+00  0.0000000000000000e+00 0.0000000000000000e+00 0.0000000000000000e+00  0.0000000000000000e+00 0.0000000000000000e+00 0.0000000000000000e+00  0.0000000000000000e+00 0.0000000000000000e+00 0.0000000000000000e+00  0.0000000000000000e+00 0.0000000000000000e+00 0.0000000000000000e+00  0.0000000000000000e+00 0.0000000000000000e+00 0.0000000000000000e+00  0.0000000000000000e+00 0.0000000000000000e+00 0.0000000000000000e+00  0.0000000000000000e+00 0.0000000000000000e+00 0.0000000000000000e+00  0.0000000000000000e+00 0.0000000000000000e+00 0.0000000000000000e+00  0.0000000000000000e+00 0.0000000000000000e+00 0.0000000000000000e+00  0.0000000000000000e+00 0.0000000000000000e+00 0.0000000000000000e+00  0.0000000000000000e+00 0.0000000000000000e+00 0.0000000000000000e+00  0.0000000000000000e+00 0.0000000000000000e+00 0.0000000000000000e+00  0.0000000000000000e+00 0.0000000000000000e+00 0.0000000000000000e+00  0.0000000000000000e+00 0.0000000000000000e+00 0.0000000000000000e+00  0.0000000000000000e+00 0.0000000000000000e+00 0.0000000000000000e+00  0.0000000000000000e+00 0.0000000000000000e+00 0.0000000000000000e+00  0.0000000000000000e+00 0.0000000000000000e+00 0.0000000000000000e+00  0.0000000000000000e+00 0.0000000000000000e+00 0.0000000000000000e+00  0.0000000000000000e+00 0.0000000000000000e+00 0.0000000000000000e+00  0.0000000000000000e+00 0.0000000000000000e+00 0.0000000000000000e+00  0.0000000000000000e+00 0.0000000000000000e+00 0.0000000000000000e+00  0.0000000000000000e+00 0.0000000000000000e+00 0.0000000000000000e+00  0.0000000000000000e+00 0.0000000000000000e+00 0.0000000000000000e+00  0.0000000000000000e+00 0.0000000000000000e+00 0.0000000000000000e+00  0.0000000000000000e+00 0.0000000000000000e+00 0.0000000000000000e+00  0.0000000000000000e+00 0.0000000000000000e+00 0.0000000000000000e+00  0.0000000000000000e+00 0.0000000000000000e+00 0.0000000000000000e+00  0.0000000000000000e+00 0.0000000000000000e+00 0.0000000000000000e+00  0.0000000000000000e+00 0.0000000000000000e+00 0.0000000000000000e+00  0.0000000000000000e+00 0.0000000000000000e+00 0.0000000000000000e+00  0.0000000000000000e+00 0.0000000000000000e+00 0.0000000000000000e+00  0.0000000000000000e+00 0.0000000000000000e+00 0.0000000000000000e+00  0.0000000000000000e+00 0.0000000000000000e+00 0.0000000000000000e+00  0.0000000000000000e+00 0.0000000000000000e+00 0.0000000000000000e+00  0.0000000000000000e+00 0.0000000000000000e+00 0.0000000000000000e+00  0.0000000000000000e+00 0.0000000000000000e+00 0.0000000000000000e+00  0.0000000000000000e+00 0.0000000000000000e+00 0.0000000000000000e+00  0.0000000000000000e+00 0.0000000000000000e+00 0.0000000000000000e+00  0.0000000000000000e+00 0.0000000000000000e+00 0.0000000000000000e+00  4.2736524112773776e-08 -1.1554020388771674e-07 0.0000000000000000e+00  7.4774328728662770e-08 -1.2690237028881785e-07 0.0000000000000000e+00  1.1836697085856676e-07 -1.3930043427425537e-07 0.0000000000000000e+00  1.6434817591661896e-07 -1.5713407229753568e-07 0.0000000000000000e+00  2.0938724567793956e-07 -1.8078788450373650e-07 0.0000000000000000e+00  2.5403749459441933e-07 -2.0975898619931066e-07 0.0000000000000000e+00  2.9708940108205591e-07 -2.4331949124964495e-07 0.0000000000000000e+00  3.3940147965772071e-07 -2.8276935355463571e-07 0.0000000000000000e+00  3.8010772277222334e-07 -3.2665040221828024e-07 0.0000000000000000e+00  4.1872956214859826e-07 -3.7576006053180903e-07 0.0000000000000000e+00  4.5676867077596532e-07 -4.2939997286870754e-07 0.0000000000000000e+00  4.9222752870021338e-07 -4.8794725084800291e-07 0.0000000000000000e+00  5.2683164150429037e-07 -5.5100954790734128e-07 0.0000000000000000e+00  5.5918381480474454e-07 -6.1810736204469346e-07 0.0000000000000000e+00  5.9052813091369897e-07 -6.9007893401326908e-07 0.0000000000000000e+00  6.1990189595119172e-07 -7.6571883852353229e-07 0.0000000000000000e+00  6.4717647997870182e-07 -8.4559841817838120e-07 0.0000000000000000e+00  6.7351969278263849e-07 -9.2897731100241943e-07 0.0000000000000000e+00  6.9739395347170647e-07 -1.0162389814185433e-06 0.0000000000000000e+00  7.2033717394238140e-07 -1.1067455562286474e-06 0.0000000000000000e+00  7.4093130514109878e-07 -1.2007023584652890e-06 0.0000000000000000e+00  7.6029564179549905e-07 -1.2977140714950287e-06 0.0000000000000000e+00  7.7747307337613410e-07 -1.3974513388383293e-06 0.0000000000000000e+00  7.9358843426993467e-07 -1.5003897628155299e-06 0.0000000000000000e+00  8.0770311268424981e-07 -1.6056968338895343e-06 0.0000000000000000e+00  8.1995895935464282e-07 -1.7136213365658660e-06 0.0000000000000000e+00  8.3081741741421459e-07 -1.8236559782777931e-06 0.0000000000000000e+00  8.3969919920037564e-07 -1.9360072068756579e-06 0.0000000000000000e+00  8.4715089976970974e-07 -2.0501598524923459e-06 0.0000000000000000e+00  8.5267267707878454e-07 -2.1663070944176580e-06 0.0000000000000000e+00  8.5672433704975849e-07 -2.2839442881455838e-06 0.0000000000000000e+00  8.5888700681095943e-07 -2.4032700988185236e-06 0.0000000000000000e+00  8.5954362152514088e-07 -2.5237858348122859e-06 0.0000000000000000e+00  8.5834819510958459e-07 -2.6456979250193440e-06 0.0000000000000000e+00  8.5560867891237407e-07 -2.7685174739373686e-06 0.0000000000000000e+00  8.5105234124346767e-07 -2.8924578650110137e-06 0.0000000000000000e+00  8.4491566308217185e-07 -3.0170355638864869e-06 0.0000000000000000e+00  8.3698931661178425e-07 -3.1424811191188216e-06 0.0000000000000000e+00  8.2744197527658243e-07 -3.2683163189620683e-06 0.0000000000000000e+00  8.1612783223768090e-07 -3.3947826869827977e-06 0.0000000000000000e+00  8.0315912931336319e-07 -3.5214876924322984e-06 0.0000000000000000e+00  7.8815371772191142e-07 -3.6484159900702553e-06 0.0000000000000000e+00  7.7191497548253898e-07 -3.7755676244156863e-06 0.0000000000000000e+00  7.5356842795118423e-07 -3.9026299384070092e-06 0.0000000000000000e+00  7.3357945234929580e-07 -4.0295954113048852e-06 0.0000000000000000e+00  7.1374312964512910e-07 -4.1557194615416700e-06 0.0000000000000000e+00  5.9682106336956133e-07 -4.2680418881773949e-06 0.0000000000000000e+00  4.2387694842827998e-07 -4.2172354062219505e-06 0.0000000000000000e+00  3.6753653859518989e-07 -4.0710012526079701e-06 0.0000000000000000e+00  3.8746897800382596e-07 -3.9385587732320592e-06 0.0000000000000000e+00  4.0772773914128082e-07 -3.8069612389937356e-06 0.0000000000000000e+00  4.2645725050890666e-07 -3.6755846289268342e-06 0.0000000000000000e+00  4.4327712409687212e-07 -3.5445927442344166e-06 0.0000000000000000e+00  4.5898209702673033e-07 -3.4138720332244999e-06 0.0000000000000000e+00  4.7288453251245076e-07 -3.2834411072492665e-06 0.0000000000000000e+00  4.8535168164637444e-07 -3.1536204081888169e-06 0.0000000000000000e+00  4.9647857394011437e-07 -3.0240391664766637e-06 0.0000000000000000e+00  5.0606868141959271e-07 -2.8953537582079966e-06 0.0000000000000000e+00  5.1443986974182287e-07 -2.7671084776948286e-06 0.0000000000000000e+00  5.2126242671589855e-07 -2.6399870789181042e-06 0.0000000000000000e+00  5.2696085143513731e-07 -2.5135558671952856e-06 0.0000000000000000e+00  5.3108541693645011e-07 -2.3885021033928299e-06 0.0000000000000000e+00  5.3417449270808144e-07 -2.2644109109918661e-06 0.0000000000000000e+00  5.3565095349470776e-07 -2.1419720847123585e-06 0.0000000000000000e+00  5.3617751527403476e-07 -2.0207853105635798e-06 0.0000000000000000e+00  5.3504329004367808e-07 -1.9015433912396257e-06 0.0000000000000000e+00  5.3304200354834184e-07 -1.7838585443139514e-06 0.0000000000000000e+00  5.2932552492465124e-07 -1.6684260021212221e-06 0.0000000000000000e+00  5.2481522005845341e-07 -1.5548717822037593e-06 0.0000000000000000e+00  5.1855775403063545e-07 -1.4438505539891212e-06 0.0000000000000000e+00  5.1145724053733811e-07 -1.3351918830814482e-06 0.0000000000000000e+00  5.0280208023966046e-07 -1.2289339249966179e-06 0.0000000000000000e+00  4.9320827010618482e-07 -1.1259011809803656e-06 0.0000000000000000e+00  4.8219841055788689e-07 -1.0255759754936101e-06 0.0000000000000000e+00  4.6970588977927519e-07 -9.2850252051869621e-07 0.0000000000000000e+00  4.5638416749395371e-07 -8.3455292416478977e-07 0.0000000000000000e+00  4.4136545641723162e-07 -7.4420967934823924e-07 0.0000000000000000e+00  4.2556815417294257e-07 -6.5734669837519486e-07 0.0000000000000000e+00  4.0804688543604360e-07 -5.7438162378629623e-07 0.0000000000000000e+00  3.8960693890108759e-07 -4.9534119286207929e-07 0.0000000000000000e+00  3.6972393335611815e-07 -4.2004466427265967e-07 0.0000000000000000e+00  3.4886200386017951e-07 -3.4970331228291706e-07 0.0000000000000000e+00  3.2661279485120136e-07 -2.8341757708273996e-07 0.0000000000000000e+00  3.0279175532299313e-07 -2.2186688867498121e-07 0.0000000000000000e+00  2.7833993036232237e-07 -1.6491410479431322e-07 0.0000000000000000e+00  2.5208213686219064e-07 -1.1296873815563502e-07 0.0000000000000000e+00  2.2508825232841264e-07 -6.6066095470787137e-08 0.0000000000000000e+00  1.9680185399353824e-07 -2.3970335123924199e-08 0.0000000000000000e+00  1.6769111401708260e-07 1.1985832912130581e-08 0.0000000000000000e+00  1.3761949686114132e-07 4.2808768927850077e-08 0.0000000000000000e+00  1.0628846622738692e-07 6.7943327005555368e-08 0.0000000000000000e+00  7.5787645503050312e-08 8.8025466478639716e-08 0.0000000000000000e+00  4.6310740800373290e-08 1.0257059786600770e-07 0.0000000000000000e+00  2.9027706290586219e-08 1.0580042079175790e-07 0.0000000000000000e+00  3.4891462992218900e-08 -5.7887473576650082e-09 0.0000000000000000e+00  5.4770445830372784e-07 -4.0488962425900864e-06 0.0000000000000000e+00  5.8931430866003659e-07 -3.8022601986426200e-06 0.0000000000000000e+00  6.3787189929313850e-07 -3.3991344378947887e-06 0.0000000000000000e+00  1.1506066550153041e-07 -3.0963359891943901e-08 0.0000000000000000e+00  6.5933802143224488e-07 -3.1466927990271475e-06 0.0000000000000000e+00  1.8728505907917760e-07 -7.6196930627887817e-08 0.0000000000000000e+00  6.7692424722494072e-07 -2.8923987736716731e-06 0.0000000000000000e+00  2.9796540061247518e-07 -1.9387460637267939e-07 0.0000000000000000e+00  3.6223091363613817e-07 -2.9441234223781368e-07 0.0000000000000000e+00  6.8837142720155959e-07 -2.6411598531350846e-06 0.0000000000000000e+00  4.9955990951449395e-07 -6.3040435833633970e-07 0.0000000000000000e+00  6.9315932317999665e-07 -2.1520483332851047e-06 0.0000000000000000e+00  4.1810508821156776e-07 -4.0824350339987378e-07 0.0000000000000000e+00  5.4482502155886681e-07 -7.9125815366546231e-07 0.0000000000000000e+00  6.8659561509741778e-07 -1.9164599431968160e-06 0.0000000000000000e+00  6.9376431476494864e-07 -2.3940066261794003e-06 0.0000000000000000e+00  5.8382044517475292e-07 -9.6897901860970816e-07 0.0000000000000000e+00  6.7409442875438114e-07 -1.6884756446178931e-06 0.0000000000000000e+00  6.1399912485604301e-07 -1.1511509839471326e-06 0.0000000000000000e+00  6.5788978155015602e-07 -1.4748953725926526e-06 0.0000000000000000e+00  6.3659724044669989e-07 -1.3031536691676922e-06 0.0000000000000000e+00  4.5998879156503560e-07 -5.1064736797167418e-07 0.0000000000000000e+00  6.1131536531562419e-07 -3.6075580851100100e-06 0.0000000000000000e+00  2.4217512598450381e-07 -1.2762173458878371e-07 0.0000000000000000e+00  5.0955114006245233e-07 -3.9084831177713594e-06 0.0000000000000000e+00  6.9684397177822737e-08 2.6566302458308840e-08 0.0000000000000000e+00  6.1963253690839375e-07 -3.0017968003353590e-06 0.0000000000000000e+00  5.9849758791100225e-07 -3.2582878310964341e-06 0.0000000000000000e+00  1.6454375301302411e-07 -9.2643867031139022e-08 0.0000000000000000e+00  3.5000676145965100e-07 -2.7251039692867607e-07 0.0000000000000000e+00  6.4738271962265575e-07 -2.2519531023783541e-06 0.0000000000000000e+00  6.3474908535375156e-07 -2.7479171006929002e-06 0.0000000000000000e+00  5.5465204907235575e-07 -7.3566039608134652e-07 0.0000000000000000e+00  6.4504549362663225e-07 -2.0120750151960609e-06 0.0000000000000000e+00  4.1592281090920481e-07 -3.8238543665234553e-07 0.0000000000000000e+00  5.9952810125293199e-07 -9.0515164368110582e-07 0.0000000000000000e+00  6.3700214175836843e-07 -1.7791818340960120e-06 0.0000000000000000e+00  6.4397070645970049e-07 -2.4976135736219585e-06 0.0000000000000000e+00  6.4627983200434196e-07 -1.0934759794668083e-06 0.0000000000000000e+00  6.2328940917478815e-07 -1.5545258841118035e-06 0.0000000000000000e+00  4.3061738012562729e-09 -3.2075705076173452e-08 0.0000000000000000e+00  5.5289973914524439e-10 2.9718801757338467e-08 0.0000000000000000e+00  5.6805606616694023e-07 -4.1600793521374640e-06 0.0000000000000000e+00  8.3299181711601940e-08 -6.2139777332322310e-08 0.0000000000000000e+00  5.968311243531