<?xml version="1.0"?>
<VTKFile type="UnstructuredGrid"  version="0.1"  >
<UnstructuredGrid>
<Piece  NumberOfPoints="1419" NumberOfCells="2698">
<Points>
<DataArray  type="Float64"  NumberOfComponents="3"  format="ascii">0 0 0  0 0.41 0  2.5 0 0  2.5 0.41 0  0.600024422721951 0.189674036776632 0  0.6000526275958401 0.2096655732606511 0  0.25 0.2 0  0.15 0.2 0  0.2489897948556636 0.21 0  0.2489897948556636 0.19 0  0.6000373611236035 0.1996698070678313 0  0 0.3807142857143437 0  0 0.3514285714286952 0  0 0.3221428571430699 0  0 0.29285714285744 0  0 0.2635714285718054 0  0 0.2342857142861561 0  0 0.2050000000005308 0  0 0.175714285714732 0  0 0.1464285714289574 0  0 0.1171428571431897 0  0 0.08785714285737878 0  0 0.05857142857161107 0  0 0.02928571428580012 0  0.03015443760436003 0 0  0.06140001986583606 0 0  0.09377624077125973 0 0  0.1273239957535082 0 0  0.1620856860351972 0 0  0.1981052433264291 0 0  0.235428184091502 0 0  0.2741016576309132 0 0  0.3141745521465447 0 0  0.3556974926295285 0 0  0.3987229542472677 0 0  0.4433053055141081 0 0  0.4895008759286886 0 0  0.5373680609405097 0 0  0.5869673343216626 0 0  0.6383613676634521 0 0  0.6916151138468254 0 0  0.7467958595648856 0 0  0.8039733463919316 0 0  0.8632198139502143 0 0  0.9246101326867038 0 0  0.9882218810934433 0 0  1.054135445558498 0 0  1.122434100542598 0 0  1.193204177141305 0 0  1.266535089879536 0 0  1.342519516046404 0 0  1.421253448503939 0 0  1.502836389106271 0 0  1.587371439758838 0 0  1.674965418777374 0 0  1.765729001825544 0 0  1.859776908880082 0 0  1.957227977487062 0 0  2.058205329869943 0 0  2.162836591189951 0 0  2.271253957290865 0 0  2.383594446803425 0 0  2.5 0.1024999999997612 0  2.5 0.2049999999994743 0  2.5 0.3074999999997183 0  2.383594446803656 0.41 0  2.271253957291315 0.41 0  2.162836591190598 0.41 0  2.058205329870775 0.41 0  1.957227977488067 0.41 0  1.859776908881246 0.41 0  1.765729001826854 0.41 0  1.674965418778818 0.41 0  1.58737143976041 0.41 0  1.502836389107956 0.41 0  1.421253448505726 0.41 0  1.342519516048286 0.41 0  1.266535089881505 0.41 0  1.193204177143353 0.41 0  1.122434100544716 0.41 0  1.05413544556068 0.41 0  0.9882218810956305 0.41 0  0.9246101326886647 0.41 0  0.8632198139519631 0.41 0  0.8039733463934788 0.41 0  0.7467958595662458 0.41 0  0.6916151138480078 0.41 0  0.6383613676644679 0.41 0  0.5869673343225223 0.41 0  0.5373680609412221 0.41 0  0.4895008759292634 0.41 0  0.4433053055145528 0.41 0  0.3987229542475914 0.41 0  0.3556974926297398 0.41 0  0.3141745521466497 0.41 0  0.2741016576310038 0.41 0  0.2354281840915826 0.41 0  0.1981052433265003 0.41 0  0.1620856860352591 0.41 0  0.1273239957535623 0.41 0  0.09377624077128965 0.41 0  0.06140001986584975 0.41 0  0.03015443760436654 0.41 0  0.2497468076502589 0.2050254481002335 0  0.2497468076502614 0.1949745518997913 0  0.2469965252529372 0.1829317073451959 0  0.2439893735792749 0.1762316384219906 0  0.2400332147834255 0.1700443375285386 0  0.2352133972704371 0.1645032867342007 0  0.2296339016332438 0.1597280261969788 0  0.2234150974217223 0.1558215752574715 0  0.2166911463437691 0.1528682099456123 0  0.2096071079204251 0.1509316448471593 0  0.2023158100364996 0.1500536585536553 0  0.194974551899914 0.1502531923497262 0  0.1877417105387872 0.1515259415822739 0  0.1807733240461124 0.153844448527136 0  0.1742197252835808 0.15715869474974 0  0.1682222986673531 0.1613971801805478 0  0.162910430003803 0.1664684656256651 0  0.1583987151779087 0.1722631454351573 0  0.1547844879126891 0.178656207771761 0  0.1521457199348551 0.1855097315605723 0  0.1505393388476355 0.1926758619366523 0  0.1505393388476328 0.2073241380633295 0  0.1521457199348437 0.2144902684393899 0  0.1547844879126531 0.221343792228163 0  0.1583987151778488 0.2277368545647528 0  0.1629104300036858 0.2335315343742052 0  0.1682222986671726 0.2386028198193036 0  0.1742197252833576 0.2428413052501257 0  0.1807733240458683 0.2461555514727623 0  0.1877417105384929 0.2484740584176516 0  0.1949745518995776 0.2497468076502398 0  0.202315810036185 0.2499463414463592 0  0.2096071079201568 0.2490683551528932 0  0.2166911463435495 0.2471317900544655 0  0.2234150974215506 0.2441784247426195 0  0.2296339016331197 0.2402719738031125 0  0.2352133972703547 0.2354967132658811 0  0.2400332147833751 0.2299556624715287 0  0.2439893735792577 0.2237683615780412 0  0.246996525252926 0.2170682926548348 0  0.2564603809767032 0.2099915972079883 0  0.2639301961907181 0.2099912889173155 0  0.2714010340937745 0.2099911160027231 0  0.2788721741568418 0.2099906298010743 0  0.2863434048585364 0.2099897808439561 0  0.2938147372348173 0.2099885404096018 0  0.3012861172083753 0.2099869435146449 0  0.3087575357680096 0.2099848513945776 0  0.3162289762958463 0.2099823632203337 0  0.323700338485845 0.2099794038142465 0  0.3311717617491345 0.2099759917184396 0  0.338643034896989 0.2099721136446792 0  0.3461143089872202 0.2099677695942228 0  0.3535854502645812 0.2099630197206709 0  0.3610565391780446 0.2099577629050699 0  0.3685274968905133 0.2099521279690597 0  0.3759982836459203 0.2099460589617241 0  0.3834690185454839 0.2099396202002339 0  0.3909395331852218 0.2099327900074689 0  0.3984099812136176 0.2099256234689478 0  0.4058802135623963 0.2099181143570492 0  0.4133503396524145 0.2099102999584722 0  0.4208202630575188 0.2099022210424493 0  0.4282900884355014 0.2098938344895219 0  0.4357597256456685 0.2098852270470979 0  0.443229188441129 0.2098763794713972 0  0.4506985182163541 0.2098673436767898 0  0.4581676630427221 0.2098581047570073 0  0.4656366711402516 0.2098487141526117 0  0.4731055004436275 0.2098391567695726 0  0.480574189862407 0.2098294817864189 0  0.488042706363432 0.2098196722685064 0  0.4955110810584533 0.20980977532569 0  0.5029792882815829 0.20979977227314 0  0.5104473518737148 0.2097897077470368 0  0.517915252990832 0.2097795614425216 0  0.5253830090376865 0.209769376326748 0  0.5328506062587938 0.2097591297695425 0  0.540318056397278 0.2097488633812101 0  0.5477853503511539 0.2097385529889343 0  0.5552524958293463 0.209728232086396 0  0.5627194610391949 0.2097178988119925 0  0.5701863159200459 0.2097075524559342 0  0.5776529839386414 0.2096972165339662 0  0.58511950500806 0.2096868901065243 0  0.5925860227445374 0.209676636537812 0  0.6000446029110873 0.2046676272285854 0  0.6000305128468033 0.1946719820777395 0  0.592557815164696 0.1896840358126985 0  0.5850913051232761 0.1896948483829775 0  0.5776248031681525 0.1897055873033101 0  0.5701581605968634 0.1897163109308423 0  0.5626913424456449 0.1897270055327548 0  0.5552244212828057 0.1897376835523099 0  0.547757333184149 0.189748343993519 0  0.54029011373028 0.1897589606498748 0  0.532822766914783 0.1897695696671129 0  0.5253552808739849 0.1897801129893139 0  0.5178876777691844 0.1897906345263081 0  0.5104199355281531 0.1898010729783364 0  0.5029520850534892 0.1898114695516795 0  0.4954840944377991 0.1898217616844366 0  0.4880160047527483 0.1898319877232415 0  0.4805477726811159 0.1898420836966419 0  0.4730794514099521 0.1898520851307803 0  0.465610984548212 0.1898619265303541 0  0.4581424391988241 0.1898716404880687 0  0.4506737444509647 0.1898811601866858 0  0.4432049821251595 0.1898905149113073 0  0.4357360689570252 0.1898996407144447 0  0.4282670872490712 0.1899085463163952 0  0.420797979489594 0.1899172231393871 0  0.4133287937201612 0.1899255868571928 0  0.4058594992839639 0.1899336796531972 0  0.3983900852699496 0.1899414447710058 0  0.3909206219162095 0.1899488831657653 0  0.3834510240185489 0.1899559480163776 0  0.3759813898923486 0.1899626379608937 0  0.3685116254253467 0.1899689158664769 0  0.3610418186023041 0.1899747669219826 0  0.3535719278980423 0.1899802105241773 0  0.3461019826770286 0.1899851257556193 0  0.3386319713011645 0.1899896026628501 0  0.3311618696851852 0.1899935865333073 0  0.3236917763147829 0.1899970851178183 0  0.3162215807413344 0.1900000915441174 0  0.3087513870114106 0.190002606691937 0  0.3012811403178552 0.1900046818338771 0  0.2938108755234564 0.1900062415928795 0  0.2863405719554719 0.1900074067191701 0  0.2788702014684665 0.1900081881112433 0  0.2713998777582969 0.1900086857149069 0  0.2639296247999995 0.1900089327357921 0  0.2564602186847655 0.1900085768941482 0  0.2607821390807465 0.2000728711730085 0  0.588821245695583 0.1998128240408617 0  0.57455178618841 0.1999101189026296 0  0.5512380001960351 0.1998508035207613 0  0.2751357965470674 0.1999998707541773 0  0.5365701868477289 0.1997591588073934 0  0.2894738138750865 0.1998676433918628 0  0.5216351086978248 0.199779962035987 0  0.3127984818779498 0.1998586115855986 0  0.3274313443509803 0.1999868651767772 0  0.5066994703335478 0.1998005621238331 0  0.3650988056593796 0.1998295900902983 0  0.4768265361918845 0.1998407989375406 0  0.3417691022711191 0.1998486210384559 0  0.3797247710895594 0.1999513554121509 0  0.4618892485498647 0.1998602183331258 0  0.4917632780585718 0.1998208745505313 0  0.3946648828266945 0.1999374444368267 0  0.4469514191268235 0.1998789988724253 0  0.4090009388539471 0.1997920530493816 0  0.4323218584293611 0.2000239821008395 0  0.4201967791544673 0.1999071833235718 0  0.3529246046784617 0.1999908616355935 0  0.5633587679962402 0.1997029790919976 0  0.3006713473465855 0.1999928156170969 0  0.5816305616334982 0.1963516491390978 0  0.2677096646177681 0.1964280303263422 0  0.5290986885803093 0.1968627014227583 0  0.5440334546024965 0.1968417295973805 0  0.2825229660580967 0.2035440170328013 0  0.3199617536646396 0.202895901891693 0  0.4842911252595076 0.1969242813764756 0  0.5141633716201955 0.1968835036250516 0  0.3722569303872451 0.2028637097477322 0  0.4693542111014238 0.1969440564649101 0  0.3349035837115648 0.2028890144505986 0  0.3871975706952763 0.2028506279817551 0  0.4544167790393464 0.1969632607293423 0  0.4992275144484775 0.1969040609464633 0  0.4020543322274008 0.2034751372076386 0  0.4394788378037925 0.1969817523071967 0  0.2550655800575246 0.2034065372501123 0  0.2548905723452283 0.1966964781000656 0  0.5946963424787854 0.20210
[...]
<PointData  Vectors="f_46-1"> 
<DataArray  type="Float64"  Name="f_46-1"  NumberOfComponents="3" format="ascii">0.0000000000000000e+00 0.0000000000000000e+00 0.0000000000000000e+00  0.0000000000000000e+00 0.0000000000000000e+00 0.0000000000000000e+00  0.0000000000000000e+00 0.0000000000000000e+00 0.0000000000000000e+00  0.0000000000000000e+00 0.0000000000000000e+00 0.0000000000000000e+00  6.8002965858807217e-07 -3.6907299868566682e-06 0.0000000000000000e+00  1.1677459119538256e-06 -3.7026266569382792e-06 0.0000000000000000e+00  0.0000000000000000e+00 0.0000000000000000e+00 0.0000000000000000e+00  0.0000000000000000e+00 0.0000000000000000e+00 0.0000000000000000e+00  0.0000000000000000e+00 0.0000000000000000e+00 0.0000000000000000e+00  0.0000000000000000e+00 0.0000000000000000e+00 0.0000000000000000e+00  9.1317130686322027e-07 -3.6966111405903947e-06 0.0000000000000000e+00  0.0000000000000000e+00 0.0000000000000000e+00 0.0000000000000000e+00  0.0000000000000000e+00 0.0000000000000000e+00 0.0000000000000000e+00  0.0000000000000000e+00 0.0000000000000000e+00 0.0000000000000000e+00  0.0000000000000000e+00 0.0000000000000000e+00 0.0000000000000000e+00  0.0000000000000000e+00 0.0000000000000000e+00 0.0000000000000000e+00  0.0000000000000000e+00 0.0000000000000000e+00 0.0000000000000000e+00  0.0000000000000000e+00 0.0000000000000000e+00 0.0000000000000000e+00  0.0000000000000000e+00 0.0000000000000000e+00 0.0000000000000000e+00  0.0000000000000000e+00 0.0000000000000000e+00 0.0000000000000000e+00  0.0000000000000000e+00 0.0000000000000000e+00 0.0000000000000000e+00  0.0000000000000000e+00 0.0000000000000000e+00 0.0000000000000000e+00  0.0000000000000000e+00 0.0000000000000000e+00 0.0000000000000000e+00  0.0000000000000000e+00 0.0000000000000000e+00 0.0000000000000000e+00  0.0000000000000000e+00 0.0000000000000000e+00 0.0000000000000000e+00  0.0000000000000000e+00 0.0000000000000000e+00 0.0000000000000000e+00  0.0000000000000000e+00 0.0000000000000000e+00 0.0000000000000000e+00  0.0000000000000000e+00 0.0000000000000000e+00 0.0000000000000000e+00  0.0000000000000000e+00 0.0000000000000000e+00 0.0000000000000000e+00  0.0000000000000000e+00 0.0000000000000000e+00 0.0000000000000000e+00  0.0000000000000000e+00 0.0000000000000000e+00 0.0000000000000000e+00  0.0000000000000000e+00 0.0000000000000000e+00 0.0000000000000000e+00  0.0000000000000000e+00 0.0000000000000000e+00 0.0000000000000000e+00  0.0000000000000000e+00 0.0000000000000000e+00 0.0000000000000000e+00  0.0000000000000000e+00 0.0000000000000000e+00 0.0000000000000000e+00  0.0000000000000000e+00 0.0000000000000000e+00 0.0000000000000000e+00  0.0000000000000000e+00 0.0000000000000000e+00 0.0000000000000000e+00  0.0000000000000000e+00 0.0000000000000000e+00 0.0000000000000000e+00  0.0000000000000000e+00 0.0000000000000000e+00 0.0000000000000000e+00  0.0000000000000000e+00 0.0000000000000000e+00 0.0000000000000000e+00  0.0000000000000000e+00 0.0000000000000000e+00 0.0000000000000000e+00  0.0000000000000000e+00 0.0000000000000000e+00 0.0000000000000000e+00  0.0000000000000000e+00 0.0000000000000000e+00 0.0000000000000000e+00  0.0000000000000000e+00 0.0000000000000000e+00 0.0000000000000000e+00  0.0000000000000000e+00 0.0000000000000000e+00 0.0000000000000000e+00  0.0000000000000000e+00 0.0000000000000000e+00 0.0000000000000000e+00  0.0000000000000000e+00 0.0000000000000000e+00 0.0000000000000000e+00  0.0000000000000000e+00 0.0000000000000000e+00 0.0000000000000000e+00  0.0000000000000000e+00 0.0000000000000000e+00 0.0000000000000000e+00  0.0000000000000000e+00 0.0000000000000000e+00 0.0000000000000000e+00  0.0000000000000000e+00 0.0000000000000000e+00 0.0000000000000000e+00  0.0000000000000000e+00 0.0000000000000000e+00 0.0000000000000000e+00  0.0000000000000000e+00 0.0000000000000000e+00 0.0000000000000000e+00  0.0000000000000000e+00 0.0000000000000000e+00 0.0000000000000000e+00  0.0000000000000000e+00 0.0000000000000000e+00 0.0000000000000000e+00  0.0000000000000000e+00 0.0000000000000000e+00 0.0000000000000000e+00  0.0000000000000000e+00 0.0000000000000000e+00 0.0000000000000000e+00  0.0000000000000000e+00 0.0000000000000000e+00 0.0000000000000000e+00  0.0000000000000000e+00 0.0000000000000000e+00 0.0000000000000000e+00  0.0000000000000000e+00 0.0000000000000000e+00 0.0000000000000000e+00  0.0000000000000000e+00 0.0000000000000000e+00 0.0000000000000000e+00  0.0000000000000000e+00 0.0000000000000000e+00 0.0000000000000000e+00  0.0000000000000000e+00 0.0000000000000000e+00 0.0000000000000000e+00  0.0000000000000000e+00 0.0000000000000000e+00 0.0000000000000000e+00  0.0000000000000000e+00 0.0000000000000000e+00 0.0000000000000000e+00  0.0000000000000000e+00 0.0000000000000000e+00 0.0000000000000000e+00  0.0000000000000000e+00 0.0000000000000000e+00 0.0000000000000000e+00  0.0000000000000000e+00 0.0000000000000000e+00 0.0000000000000000e+00  0.0000000000000000e+00 0.0000000000000000e+00 0.0000000000000000e+00  0.0000000000000000e+00 0.0000000000000000e+00 0.0000000000000000e+00  0.0000000000000000e+00 0.0000000000000000e+00 0.0000000000000000e+00  0.0000000000000000e+00 0.0000000000000000e+00 0.0000000000000000e+00  0.0000000000000000e+00 0.0000000000000000e+00 0.0000000000000000e+00  0.0000000000000000e+00 0.0000000000000000e+00 0.0000000000000000e+00  0.0000000000000000e+00 0.0000000000000000e+00 0.0000000000000000e+00  0.0000000000000000e+00 0.0000000000000000e+00 0.0000000000000000e+00  0.0000000000000000e+00 0.0000000000000000e+00 0.0000000000000000e+00  0.0000000000000000e+00 0.0000000000000000e+00 0.0000000000000000e+00  0.0000000000000000e+00 0.0000000000000000e+00 0.0000000000000000e+00  0.0000000000000000e+00 0.0000000000000000e+00 0.0000000000000000e+00  0.0000000000000000e+00 0.0000000000000000e+00 0.0000000000000000e+00  0.0000000000000000e+00 0.0000000000000000e+00 0.0000000000000000e+00  0.0000000000000000e+00 0.0000000000000000e+00 0.0000000000000000e+00  0.0000000000000000e+00 0.0000000000000000e+00 0.0000000000000000e+00  0.0000000000000000e+00 0.0000000000000000e+00 0.0000000000000000e+00  0.0000000000000000e+00 0.0000000000000000e+00 0.0000000000000000e+00  0.0000000000000000e+00 0.0000000000000000e+00 0.0000000000000000e+00  0.0000000000000000e+00 0.0000000000000000e+00 0.0000000000000000e+00  0.0000000000000000e+00 0.0000000000000000e+00 0.0000000000000000e+00  0.0000000000000000e+00 0.0000000000000000e+00 0.0000000000000000e+00  0.0000000000000000e+00 0.0000000000000000e+00 0.0000000000000000e+00  0.0000000000000000e+00 0.0000000000000000e+00 0.0000000000000000e+00  0.0000000000000000e+00 0.0000000000000000e+00 0.0000000000000000e+00  0.0000000000000000e+00 0.0000000000000000e+00 0.0000000000000000e+00  0.0000000000000000e+00 0.0000000000000000e+00 0.0000000000000000e+00  0.0000000000000000e+00 0.0000000000000000e+00 0.0000000000000000e+00  0.0000000000000000e+00 0.0000000000000000e+00 0.0000000000000000e+00  0.0000000000000000e+00 0.0000000000000000e+00 0.0000000000000000e+00  0.0000000000000000e+00 0.0000000000000000e+00 0.0000000000000000e+00  0.0000000000000000e+00 0.0000000000000000e+00 0.0000000000000000e+00  0.0000000000000000e+00 0.0000000000000000e+00 0.0000000000000000e+00  0.0000000000000000e+00 0.0000000000000000e+00 0.0000000000000000e+00  0.0000000000000000e+00 0.0000000000000000e+00 0.0000000000000000e+00  0.0000000000000000e+00 0.0000000000000000e+00 0.0000000000000000e+00  0.0000000000000000e+00 0.0000000000000000e+00 0.0000000000000000e+00  0.0000000000000000e+00 0.0000000000000000e+00 0.0000000000000000e+00  0.0000000000000000e+00 0.0000000000000000e+00 0.0000000000000000e+00  0.0000000000000000e+00 0.0000000000000000e+00 0.0000000000000000e+00  0.0000000000000000e+00 0.0000000000000000e+00 0.0000000000000000e+00  0.0000000000000000e+00 0.0000000000000000e+00 0.0000000000000000e+00  0.0000000000000000e+00 0.0000000000000000e+00 0.0000000000000000e+00  0.0000000000000000e+00 0.0000000000000000e+00 0.0000000000000000e+00  0.0000000000000000e+00 0.0000000000000000e+00 0.0000000000000000e+00  0.0000000000000000e+00 0.0000000000000000e+00 0.0000000000000000e+00  0.0000000000000000e+00 0.0000000000000000e+00 0.0000000000000000e+00  0.0000000000000000e+00 0.0000000000000000e+00 0.0000000000000000e+00  0.0000000000000000e+00 0.0000000000000000e+00 0.0000000000000000e+00  0.0000000000000000e+00 0.0000000000000000e+00 0.0000000000000000e+00  0.0000000000000000e+00 0.0000000000000000e+00 0.0000000000000000e+00  0.0000000000000000e+00 0.0000000000000000e+00 0.0000000000000000e+00  0.0000000000000000e+00 0.0000000000000000e+00 0.0000000000000000e+00  0.0000000000000000e+00 0.0000000000000000e+00 0.0000000000000000e+00  0.0000000000000000e+00 0.0000000000000000e+00 0.0000000000000000e+00  0.0000000000000000e+00 0.0000000000000000e+00 0.0000000000000000e+00  0.0000000000000000e+00 0.0000000000000000e+00 0.0000000000000000e+00  0.0000000000000000e+00 0.0000000000000000e+00 0.0000000000000000e+00  0.0000000000000000e+00 0.0000000000000000e+00 0.0000000000000000e+00  0.0000000000000000e+00 0.0000000000000000e+00 0.0000000000000000e+00  0.0000000000000000e+00 0.0000000000000000e+00 0.0000000000000000e+00  0.0000000000000000e+00 0.0000000000000000e+00 0.0000000000000000e+00  0.0000000000000000e+00 0.0000000000000000e+00 0.0000000000000000e+00  0.0000000000000000e+00 0.0000000000000000e+00 0.0000000000000000e+00  0.0000000000000000e+00 0.0000000000000000e+00 0.0000000000000000e+00  0.0000000000000000e+00 0.0000000000000000e+00 0.0000000000000000e+00  0.0000000000000000e+00 0.0000000000000000e+00 0.0000000000000000e+00  0.0000000000000000e+00 0.0000000000000000e+00 0.0000000000000000e+00  0.0000000000000000e+00 0.0000000000000000e+00 0.0000000000000000e+00  0.0000000000000000e+00 0.0000000000000000e+00 0.0000000000000000e+00  0.0000000000000000e+00 0.0000000000000000e+00 0.0000000000000000e+00  0.0000000000000000e+00 0.0000000000000000e+00 0.0000000000000000e+00  0.0000000000000000e+00 0.0000000000000000e+00 0.0000000000000000e+00  0.0000000000000000e+00 0.0000000000000000e+00 0.0000000000000000e+00  0.0000000000000000e+00 0.0000000000000000e+00 0.0000000000000000e+00  -3.7594995973440096e-08 5.0234686093061907e-08 0.0000000000000000e+00  -6.6872397329588344e-08 9.4508953523825322e-08 0.0000000000000000e+00  -8.7953093374548731e-08 1.5558292563351523e-07 0.0000000000000000e+00  -1.0219253981305252e-07 2.2583549319452363e-07 0.0000000000000000e+00  -1.0701021679297247e-07 3.0239712329727426e-07 0.0000000000000000e+00  -1.0471351690849935e-07 3.7985372807008126e-07 0.0000000000000000e+00  -9.2943237486618972e-08 4.5548614908002933e-07 0.0000000000000000e+00  -7.6182163583647188e-08 5.2540996706852680e-07 0.0000000000000000e+00  -5.0986307072671376e-08 5.8833445466997605e-07 0.0000000000000000e+00  -2.1737903119853890e-08 6.4223450870007114e-07 0.0000000000000000e+00  1.4759291868090043e-08 6.8466725933203799e-07 0.0000000000000000e+00  5.3365169659381307e-08 7.1593534029211210e-07 0.0000000000000000e+00  9.7016163738275355e-08 7.3376311848545248e-07 0.0000000000000000e+00  1.4341890255707598e-07 7.3995932165143836e-07 0.0000000000000000e+00  1.9199661101556184e-07 7.3069806789050599e-07 0.0000000000000000e+00  2.4260723225002665e-07 7.0952131480175805e-07 0.0000000000000000e+00  2.9232905051908426e-07 6.7498381420291674e-07 0.0000000000000000e+00  3.4518894438607557e-07 6.2753015440761686e-07 0.0000000000000000e+00  3.9536675604879467e-07 5.6789750986868815e-07 0.0000000000000000e+00  4.4767929003721382e-07 4.9614966487645236e-07 0.0000000000000000e+00  4.9712573697992940e-07 4.1342698970735674e-07 0.0000000000000000e+00  5.4697072696571615e-07 3.1979537552694660e-07 0.0000000000000000e+00  5.9464018147717310e-07 2.1720955447426303e-07 0.0000000000000000e+00  6.4179853314026126e-07 1.0380573098851625e-07 0.0000000000000000e+00  6.8684690014771039e-07 -1.7252992100154089e-08 0.0000000000000000e+00  7.2950709199027009e-07 -1.4642845364124962e-07 0.0000000000000000e+00  7.7117284227969555e-07 -2.8256632561958849e-07 0.0000000000000000e+00  8.0993094834537705e-07 -4.2537695152236344e-07 0.0000000000000000e+00  8.4741075734368265e-07 -5.7386422577738127e-07 0.0000000000000000e+00  8.8205236209433107e-07 -7.2773696148299414e-07 0.0000000000000000e+00  9.1517766020102792e-07 -8.8605399798960073e-07 0.0000000000000000e+00  9.4559070749320003e-07 -1.0486013465660368e-06 0.0000000000000000e+00  9.7433345980906455e-07 -1.2144857907829923e-06 0.0000000000000000e+00  1.0005216757600812e-06 -1.3835821722297739e-06 0.0000000000000000e+00  1.0249538715495018e-06 -1.5550599517179958e-06 0.0000000000000000e+00  1.0470032124851262e-06 -1.7288721577764035e-06 0.0000000000000000e+00  1.0672566958462866e-06 -1.9042670903005825e-06 0.0000000000000000e+00  1.0852992751517849e-06 -2.0812733160486888e-06 0.0000000000000000e+00  1.1015359171234833e-06 -2.2592177926521523e-06 0.0000000000000000e+00  1.1157213569968120e-06 -2.4381902996118084e-06 0.0000000000000000e+00  1.1281157611180566e-06 -2.6176743025249678e-06 0.0000000000000000e+00  1.1382621176379046e-06 -2.7975430627605954e-06 0.0000000000000000e+00  1.1472055355940723e-06 -2.9777528272437593e-06 0.0000000000000000e+00  1.1538904779112270e-06 -3.1579479739372438e-06 0.0000000000000000e+00  1.1588631193802362e-06 -3.3380821281488951e-06 0.0000000000000000e+00  1.1631875940633897e-06 -3.5174569847805955e-06 0.0000000000000000e+00  1.0370829004530138e-06 -3.7000193343598211e-06 0.0000000000000000e+00  7.9334948557088859e-07 -3.6932280203545769e-06 0.0000000000000000e+00  6.7539179921129695e-07 -3.5115606404387232e-06 0.0000000000000000e+00  6.7121988605883762e-07 -3.3264606165917162e-06 0.0000000000000000e+00  6.6656393385835580e-07 -3.1421704777140472e-06 0.0000000000000000e+00  6.6041268510350480e-07 -2.9580497701037927e-06 0.0000000000000000e+00  6.5237068814737915e-07 -2.7742666508718356e-06 0.0000000000000000e+00  6.4336005679238969e-07 -2.5908533827615967e-06 0.0000000000000000e+00  6.3265415262206483e-07 -2.4078643325969533e-06 0.0000000000000000e+00  6.2059670095598111e-07 -2.2257340490205984e-06 0.0000000000000000e+00  6.0747471107094416e-07 -2.0442561293217849e-06 0.0000000000000000e+00  5.9287413778082204e-07 -1.8641993732874667e-06 0.0000000000000000e+00  5.7749023695785093e-07 -1.6853599232539697e-06 0.0000000000000000e+00  5.6060859329501080e-07 -1.5085870632054542e-06 0.0000000000000000e+00  5.4324321504332775e-07 -1.3337819952945289e-06 0.0000000000000000e+00  5.2434483640943435e-07 -1.1618513532819496e-06 0.0000000000000000e+00  5.0531247108242084e-07 -9.9281104784721272e-07 0.0000000000000000e+00  4.8469796259469740e-07 -8.2761394167569225e-07 0.0000000000000000e+00  4.6435566157638357e-07 -6.6640049090790324e-07 0.0000000000000000e+00  4.4238005037568536e-07 -5.1015062565882015e-07 0.0000000000000000e+00  4.2114181675067246e-07 -3.5913566083095425e-07 0.0000000000000000e+00  3.9822850923758414e-07 -2.1433896020033514e-07 0.0000000000000000e+00  3.7654652957165060e-07 -7.6172960214957643e-08 0.0000000000000000e+00  3.5329649501032190e-07 5.4478956828001189e-08 0.0000000000000000e+00  3.3116637484930463e-07 1.7676240041939907e-07 0.0000000000000000e+00  3.0915741159315486e-07 2.9091199187890492e-07 0.0000000000000000e+00  2.8725721712842773e-07 3.9402662307233568e-07 0.0000000000000000e+00  2.6618910509223057e-07 4.8743589151413031e-07 0.0000000000000000e+00  2.4490588373458639e-07 5.6961600146393798e-07 0.0000000000000000e+00  2.2600772723063824e-07 6.3990894235426850e-07 0.0000000000000000e+00  2.0663827660353056e-07 6.9779717182027033e-07 0.0000000000000000e+00  1.9015695472557368e-07 7.4243302808346275e-07 0.0000000000000000e+00  1.7346890442788129e-07 7.7376593680420125e-07 0.0000000000000000e+00  1.5944674061717133e-07 7.9083709347596909e-07 0.0000000000000000e+00  1.4710845033954034e-07 7.9489837456241827e-07 0.0000000000000000e+00  1.3604230736368159e-07 7.8290048847261042e-07 0.0000000000000000e+00  1.2707832465545999e-07 7.5798055657568019e-07 0.0000000000000000e+00  1.1883699127760777e-07 7.1971529741027891e-07 0.0000000000000000e+00  1.1355091844163726e-07 6.6867724809053956e-07 0.0000000000000000e+00  1.0822651204172686e-07 6.0671472065665285e-07 0.0000000000000000e+00  1.0471641778370100e-07 5.3488797452290769e-07 0.0000000000000000e+00  1.0062637606315708e-07 4.5616126482184723e-07 0.0000000000000000e+00  9.6978694658493683e-08 3.7222181154829897e-07 0.0000000000000000e+00  9.1191901092875824e-08 2.8718395971969305e-07 0.0000000000000000e+00  8.3670918951694868e-08 2.0455863077523444e-07 0.0000000000000000e+00  7.1170815871418112e-08 1.2874252650073094e-07 0.0000000000000000e+00  5.5141026187371098e-08 6.4348225666814985e-08 0.0000000000000000e+00  2.9917999677121883e-08 1.9706269086130728e-08 0.0000000000000000e+00  -2.1395009496475108e-09 4.6003445043095188e-08 0.0000000000000000e+00  9.1589438165809308e-07 -3.4229128318282432e-06 0.0000000000000000e+00  9.0970251993577085e-07 -3.0747657200578387e-06 0.0000000000000000e+00  8.7953444202140294e-07 -2.5068303860394808e-06 0.0000000000000000e+00  -6.8032767098564694e-09 1.7132408808857207e-07 0.0000000000000000e+00  8.5107463451307643e-07 -2.1517813535365859e-06 0.0000000000000000e+00  -2.2728043506103592e-09 3.2759076191853650e-07 0.0000000000000000e+00  8.1852977099142430e-07 -1.7943784962471545e-06 0.0000000000000000e+00  2.5861925863655439e-08 5.7218938113654470e-07 0.0000000000000000e+00  5.8556768864458445e-08 6.8693128244749716e-07 0.0000000000000000e+00  7.7974190053265866e-07 -1.4433811394947002e-06 0.0000000000000000e+00  1.9373616420152359e-07 7.6046200522207244e-07 0.0000000000000000e+00  6.8414824565863613e-07 -7.7358378225565967e-07 0.0000000000000000e+00  1.0331813569667521e-07 7.5525041119705300e-07 0.0000000000000000e+00  2.5866777781094231e-07 6.9520899302035287e-07 0.0000000000000000e+00  6.2795459545666606e-07 -4.6286040113695043e-07 0.0000000000000000e+00  7.3486811865860053e-07 -1.1018735390587778e-06 0.0000000000000000e+00  3.2789021876436354e-07 5.7721428610019998e-07 0.0000000000000000e+00  5.6682605561661826e-07 -1.7461884351162592e-07 0.0000000000000000e+00  3.9381848038473704e-07 4.1935762860318507e-07 0.0000000000000000e+00  5.0489385587368746e-07 8.0073038516022421e-08 0.0000000000000000e+00  4.4748656607575368e-07 2.6825696647040668e-07 0.0000000000000000e+00  1.4431527657427301e-07 7.7450601328198855e-07 0.0000000000000000e+00  8.9259336485946962e-07 -2.8015627807386878e-06 0.0000000000000000e+00  6.4937315046496341e-09 4.5115651777073163e-07 0.0000000000000000e+00  8.2863398920326350e-07 -3.2453129736935794e-06 0.0000000000000000e+00  1.8220786719838896e-08 9.6074936611453018e-08 0.0000000000000000e+00  7.6655049889935608e-07 -1.9669067621469911e-06 0.0000000000000000e+00  7.9505148834737839e-07 -2.3275066919326828e-06 0.0000000000000000e+00  -3.9227218844708558e-08 2.5385331703971714e-07 0.0000000000000000e+00  1.8599273783634299e-08 6.2980066222450254e-07 0.0000000000000000e+00  6.4715752151018720e-07 -9.2769651559669097e-07 0.0000000000000000e+00  7.3222170890935671e-07 -1.6114548187859415e-06 0.0000000000000000e+00  2.3736700304755698e-07 7.2475978205754111e-07 0.0000000000000000e+00  5.9714984453864915e-07 -6.0687699313593295e-07 0.0000000000000000e+00  6.7750149263629164e-08 7.2227407538585372e-07 0.0000000000000000e+00  3.1534553656472346e-07 6.3157778373581487e-07 0.0000000000000000e+00  5.4285774227934399e-07 -3.0612325031049568e-07 0.0000000000000000e+00  6.9231977421611248e-07 -1.2639109104166005e-06 0.0000000000000000e+00  4.0105034623419957e-07 4.8709349108330639e-07 0.0000000000000000e+00  4.8504542525727572e-07 -3.0646149085496521e-08 0.0000000000000000e+00  -5.4279799301990614e-09 1.8063031708445285e-08 0.0000000000000000e+00  6.8719945605393755e-09 8.9642260985016245e-09 0.0000000000000000e+00  9.7275058395167754e-07 -3.5665892594572140e-06 0.0000000000000000e+00  -3.1866108624218353e-08 1.0720810380886133e-07 0.0000000000000000e+00  4.2098991520470629e-07 1.9022875386492989e-07 0.000000000000000