<?xml version="1.0"?>
<VTKFile type="UnstructuredGrid"  version="0.1"  >
<UnstructuredGrid>
<Piece  NumberOfPoints="1419" NumberOfCells="2698">
<Points>
<DataArray  type="Float64"  NumberOfComponents="3"  format="ascii">0 0 0  0 0.41 0  2.5 0 0  2.5 0.41 0  0.599988165606729 0.1899990364607794 0  0.5999882124354533 0.2099973286927448 0  0.25 0.2 0  0.15 0.2 0  0.2489897948556636 0.21 0  0.2489897948556636 0.19 0  0.599988109508285 0.1999981824924806 0  0 0.3807142857143437 0  0 0.3514285714286952 0  0 0.3221428571430699 0  0 0.29285714285744 0  0 0.2635714285718054 0  0 0.2342857142861561 0  0 0.2050000000005308 0  0 0.175714285714732 0  0 0.1464285714289574 0  0 0.1171428571431897 0  0 0.08785714285737878 0  0 0.05857142857161107 0  0 0.02928571428580012 0  0.03015443760436003 0 0  0.06140001986583606 0 0  0.09377624077125973 0 0  0.1273239957535082 0 0  0.1620856860351972 0 0  0.1981052433264291 0 0  0.235428184091502 0 0  0.2741016576309132 0 0  0.3141745521465447 0 0  0.3556974926295285 0 0  0.3987229542472677 0 0  0.4433053055141081 0 0  0.4895008759286886 0 0  0.5373680609405097 0 0  0.5869673343216626 0 0  0.6383613676634521 0 0  0.6916151138468254 0 0  0.7467958595648856 0 0  0.8039733463919316 0 0  0.8632198139502143 0 0  0.9246101326867038 0 0  0.9882218810934433 0 0  1.054135445558498 0 0  1.122434100542598 0 0  1.193204177141305 0 0  1.266535089879536 0 0  1.342519516046404 0 0  1.421253448503939 0 0  1.502836389106271 0 0  1.587371439758838 0 0  1.674965418777374 0 0  1.765729001825544 0 0  1.859776908880082 0 0  1.957227977487062 0 0  2.058205329869943 0 0  2.162836591189951 0 0  2.271253957290865 0 0  2.383594446803425 0 0  2.5 0.1024999999997612 0  2.5 0.2049999999994743 0  2.5 0.3074999999997183 0  2.383594446803656 0.41 0  2.271253957291315 0.41 0  2.162836591190598 0.41 0  2.058205329870775 0.41 0  1.957227977488067 0.41 0  1.859776908881246 0.41 0  1.765729001826854 0.41 0  1.674965418778818 0.41 0  1.58737143976041 0.41 0  1.502836389107956 0.41 0  1.421253448505726 0.41 0  1.342519516048286 0.41 0  1.266535089881505 0.41 0  1.193204177143353 0.41 0  1.122434100544716 0.41 0  1.05413544556068 0.41 0  0.9882218810956305 0.41 0  0.9246101326886647 0.41 0  0.8632198139519631 0.41 0  0.8039733463934788 0.41 0  0.7467958595662458 0.41 0  0.6916151138480078 0.41 0  0.6383613676644679 0.41 0  0.5869673343225223 0.41 0  0.5373680609412221 0.41 0  0.4895008759292634 0.41 0  0.4433053055145528 0.41 0  0.3987229542475914 0.41 0  0.3556974926297398 0.41 0  0.3141745521466497 0.41 0  0.2741016576310038 0.41 0  0.2354281840915826 0.41 0  0.1981052433265003 0.41 0  0.1620856860352591 0.41 0  0.1273239957535623 0.41 0  0.09377624077128965 0.41 0  0.06140001986584975 0.41 0  0.03015443760436654 0.41 0  0.2497468076502589 0.2050254481002335 0  0.2497468076502614 0.1949745518997913 0  0.2469965252529372 0.1829317073451959 0  0.2439893735792749 0.1762316384219906 0  0.2400332147834255 0.1700443375285386 0  0.2352133972704371 0.1645032867342007 0  0.2296339016332438 0.1597280261969788 0  0.2234150974217223 0.1558215752574715 0  0.2166911463437691 0.1528682099456123 0  0.2096071079204251 0.1509316448471593 0  0.2023158100364996 0.1500536585536553 0  0.194974551899914 0.1502531923497262 0  0.1877417105387872 0.1515259415822739 0  0.1807733240461124 0.153844448527136 0  0.1742197252835808 0.15715869474974 0  0.1682222986673531 0.1613971801805478 0  0.162910430003803 0.1664684656256651 0  0.1583987151779087 0.1722631454351573 0  0.1547844879126891 0.178656207771761 0  0.1521457199348551 0.1855097315605723 0  0.1505393388476355 0.1926758619366523 0  0.1505393388476328 0.2073241380633295 0  0.1521457199348437 0.2144902684393899 0  0.1547844879126531 0.221343792228163 0  0.1583987151778488 0.2277368545647528 0  0.1629104300036858 0.2335315343742052 0  0.1682222986671726 0.2386028198193036 0  0.1742197252833576 0.2428413052501257 0  0.1807733240458683 0.2461555514727623 0  0.1877417105384929 0.2484740584176516 0  0.1949745518995776 0.2497468076502398 0  0.202315810036185 0.2499463414463592 0  0.2096071079201568 0.2490683551528932 0  0.2166911463435495 0.2471317900544655 0  0.2234150974215506 0.2441784247426195 0  0.2296339016331197 0.2402719738031125 0  0.2352133972703547 0.2354967132658811 0  0.2400332147833751 0.2299556624715287 0  0.2439893735792577 0.2237683615780412 0  0.246996525252926 0.2170682926548348 0  0.2564581080874704 0.2099985115318108 0  0.2639262318200052 0.2099984431400362 0  0.2713945002781622 0.2099984317089305 0  0.278862786784699 0.2099984108646051 0  0.2863310689726438 0.2099983743065155 0  0.2937993398260374 0.2099983314680718 0  0.301267597367993 0.2099982843583733 0  0.3087358455169308 0.2099982331311221 0  0.3162040802260485 0.209998180050274 0  0.323672303202282 0.2099981235476706 0  0.3311405143471175 0.2099980685156212 0  0.3386087131576351 0.2099980110110705 0  0.3460769004903211 0.2099979556588308 0  0.353545074034207 0.2099979008490091 0  0.361013237505752 0.2099978482326671 0  0.3684813874432526 0.2099977977897088 0  0.3759495261292353 0.2099977482621955 0  0.3834176522222084 0.2099977038970154 0  0.3908857669307357 0.2099976600097113 0  0.3983538693219036 0.2099976217425767 0  0.4058219602012624 0.2099975845578348 0  0.4132900391617036 0.2099975521473372 0  0.4207581052583548 0.2099975222620112 0  0.4282261612220116 0.2099974965320976 0  0.4356942045673467 0.2099974736635561 0  0.4431622364564848 0.2099974530002406 0  0.4506302563444414 0.2099974366473547 0  0.4580982649113498 0.20999742150028 0  0.4655662614383671 0.2099974104267935 0  0.4730342466205049 0.2099974000486302 0  0.4805022198446174 0.2099973933549932 0  0.4879701815772693 0.2099973868669254 0  0.4954381314645855 0.2099973835444267 0  0.5029060697242733 0.2099973800463476 0  0.5103739960118944 0.2099973791733106 0  0.5178419106255221 0.2099973776049267 0  0.5253098132565114 0.2099973783169153 0  0.5327777040077445 0.2099973778887627 0  0.5402455826417348 0.2099973794443428 0  0.5477134492030749 0.2099973795577378 0  0.555181303557108 0.2099973808070328 0  0.5626491445353788 0.2099973820477144 0  0.5701169746993384 0.2099973829740269 0  0.5775847911215671 0.209997384829084 0  0.5850525957742623 0.2099973868467788 0  0.5925204011728534 0.2099973934835114 0  0.5999881316602687 0.2049977489955342 0  0.5999881092043816 0.1949986154770646 0  0.5925203545909362 0.189999005855637 0  0.5850525496539941 0.1899990462936098 0  0.5775847460119833 0.1899990821660836 0  0.5701169303729523 0.1899991176245353 0  0.5626491008176974 0.1899991512223371 0  0.5551812603428354 0.1899991846082017 0  0.5477134058611473 0.1899992179527839 0  0.5402455392685844 0.1899992492930876 0  0.5327776600668679 0.1899992832474622 0  0.5253097684628066 0.1899993145686324 0  0.5178418642763389 0.1899993490607959 0  0.5103739477925635 0.1899993812872542 0  0.5029060186997421 0.1899994171006937 0  0.4954380774565948 0.1899994511372203 0  0.4879701235367421 0.1899994892287002 0  0.4805021576190851 0.1899995260506456 0  0.4730341789587824 0.1899995674250039 0  0.46556618844042 0.1899996080247737 0  0.4580981851605124 0.1899996536223301 0  0.4506301702044085 0.189999698927596 0  0.4431621425058646 0.1899997496081006 0  0.4356941032094239 0.189999800568779 0  0.4282260518438186 0.1899998564019819 0  0.4207579872825839 0.1899999146778446 0  0.413289912716478 0.1899999764414066 0  0.4058218250867576 0.1900000413762122 0  0.3983537261876406 0.1900001086495091 0  0.3908856152232746 0.1900001806006711 0  0.3834174931566229 0.1900002541188537 0  0.3759493592854233 0.1900003320131556 0  0.3684812145538677 0.1900004110855976 0  0.3610130584930439 0.1900004934457036 0  0.3535448908413595 0.1900005775439511 0  0.3460767139118292 0.1900006630408683 0  0.3386085254453415 0.1900007495544517 0  0.3311403268154006 0.1900008353778862 0  0.3236721181398485 0.1900009220943289 0  0.3162038995624774 0.1900010060790772 0  0.3087356715896346 0.1900010886609419 0  0.3012674341204459 0.1900011679794834 0  0.2937991887463692 0.1900012420174122 0  0.2863309346601796 0.1900013105718972 0  0.2788626708055547 0.1900013722724672 0  0.271394408978584 0.1900014346670565 0  0.2639261668766103 0.1900014880217636 0  0.2564580702254153 0.1900014560194917 0  0.2607799996097539 0.2000726847242981 0  0.5887692809238809 0.2001254368191868 0  0.574497107559878 0.2002026666259718 0  0.551180469757509 0.2001105422324674 0  0.2751285820573783 0.1999999191604512 0  0.5365116131791227 0.199998322339802 0  0.2894617940098337 0.199869011311792 0  0.5215758309248562 0.1999983544828831 0  0.3127784804904625 0.1998654337815201 0  0.3274063082121733 0.1999994880514948 0  0.506639999879846 0.1999983886741976 0  0.365061804034741 0.1998651688299128 0  0.4767681926527194 0.1999984702997258 0  0.3417393783351146 0.1998685365698617 0  0.3796834998232182 0.1999990075662788 0  0.4618322169138518 0.1999985216335055 0  0.4917041203745791 0.1999984266351755 0  0.3946197364371737 0.199998890385315 0  0.4468961933279129 0.1999985824855169 0  0.4089526077268931 0.1998679748136054 0  0.4322687298056602 0.2001260892082228 0  0.4201460257109412 0.1999953406349363 0  0.3528912292233173 0.2000178124201497 0  0.5633028254492836 0.1999796966089199 0  0.3006554818385372 0.1999963541978656 0  0.5815820412093115 0.1966530325249974 0  0.26770510424876 0.1964251579764428 0  0.5290437219673922 0.1970902002687129 0  0.5439794798393032 0.1970901588088676 0  0.2825128543988711 0.2035472487588427 0  0.319938119597977 0.2029075674973178 0  0.4842361539963029 0.1970903383272699 0  0.5141079148256753 0.1970902428591974 0  0.3722153889221503 0.2029071100122853 0  0.4693002007643604 0.1970903950488496 0  0.3348745397548242 0.2029074332593319 0  0.3871516468205819 0.2029069962466799 0  0.4543641992552915 0.1970904603602254 0  0.4991720587522239 0.197090288256575 0  0.4020038356370674 0.2035462985649024 0  0.4394281496724202 0.1970905360827131 0  0.2550654108686155 0.2034083954347872 0  0.2548905111252519 0.1966944224049928 0  0.5946424434543822 0.202
[...]
<PointData  Vectors="f_46-1"> 
<DataArray  type="Float64"  Name="f_46-1"  NumberOfComponents="3" format="ascii">0.0000000000000000e+00 0.0000000000000000e+00 0.0000000000000000e+00  0.0000000000000000e+00 0.0000000000000000e+00 0.0000000000000000e+00  0.0000000000000000e+00 0.0000000000000000e+00 0.0000000000000000e+00  0.0000000000000000e+00 0.0000000000000000e+00 0.0000000000000000e+00  -4.5709685944493431e-07 -2.7073806511560255e-07 0.0000000000000000e+00  -4.4839627876285769e-07 -3.8677863502532708e-07 0.0000000000000000e+00  0.0000000000000000e+00 0.0000000000000000e+00 0.0000000000000000e+00  0.0000000000000000e+00 0.0000000000000000e+00 0.0000000000000000e+00  0.0000000000000000e+00 0.0000000000000000e+00 0.0000000000000000e+00  0.0000000000000000e+00 0.0000000000000000e+00 0.0000000000000000e+00  -4.6116602169444056e-07 -3.2877363577088479e-07 0.0000000000000000e+00  0.0000000000000000e+00 0.0000000000000000e+00 0.0000000000000000e+00  0.0000000000000000e+00 0.0000000000000000e+00 0.0000000000000000e+00  0.0000000000000000e+00 0.0000000000000000e+00 0.0000000000000000e+00  0.0000000000000000e+00 0.0000000000000000e+00 0.0000000000000000e+00  0.0000000000000000e+00 0.0000000000000000e+00 0.0000000000000000e+00  0.0000000000000000e+00 0.0000000000000000e+00 0.0000000000000000e+00  0.0000000000000000e+00 0.0000000000000000e+00 0.0000000000000000e+00  0.0000000000000000e+00 0.0000000000000000e+00 0.0000000000000000e+00  0.0000000000000000e+00 0.0000000000000000e+00 0.0000000000000000e+00  0.0000000000000000e+00 0.0000000000000000e+00 0.0000000000000000e+00  0.0000000000000000e+00 0.0000000000000000e+00 0.0000000000000000e+00  0.0000000000000000e+00 0.0000000000000000e+00 0.0000000000000000e+00  0.0000000000000000e+00 0.0000000000000000e+00 0.0000000000000000e+00  0.0000000000000000e+00 0.0000000000000000e+00 0.0000000000000000e+00  0.0000000000000000e+00 0.0000000000000000e+00 0.0000000000000000e+00  0.0000000000000000e+00 0.0000000000000000e+00 0.0000000000000000e+00  0.0000000000000000e+00 0.0000000000000000e+00 0.0000000000000000e+00  0.0000000000000000e+00 0.0000000000000000e+00 0.0000000000000000e+00  0.0000000000000000e+00 0.0000000000000000e+00 0.0000000000000000e+00  0.0000000000000000e+00 0.0000000000000000e+00 0.0000000000000000e+00  0.0000000000000000e+00 0.0000000000000000e+00 0.0000000000000000e+00  0.0000000000000000e+00 0.0000000000000000e+00 0.0000000000000000e+00  0.0000000000000000e+00 0.0000000000000000e+00 0.0000000000000000e+00  0.0000000000000000e+00 0.0000000000000000e+00 0.0000000000000000e+00  0.0000000000000000e+00 0.0000000000000000e+00 0.0000000000000000e+00  0.0000000000000000e+00 0.0000000000000000e+00 0.0000000000000000e+00  0.0000000000000000e+00 0.0000000000000000e+00 0.0000000000000000e+00  0.0000000000000000e+00 0.0000000000000000e+00 0.0000000000000000e+00  0.0000000000000000e+00 0.0000000000000000e+00 0.0000000000000000e+00  0.0000000000000000e+00 0.0000000000000000e+00 0.0000000000000000e+00  0.0000000000000000e+00 0.0000000000000000e+00 0.0000000000000000e+00  0.0000000000000000e+00 0.0000000000000000e+00 0.0000000000000000e+00  0.0000000000000000e+00 0.0000000000000000e+00 0.0000000000000000e+00  0.0000000000000000e+00 0.0000000000000000e+00 0.0000000000000000e+00  0.0000000000000000e+00 0.0000000000000000e+00 0.0000000000000000e+00  0.0000000000000000e+00 0.0000000000000000e+00 0.0000000000000000e+00  0.0000000000000000e+00 0.0000000000000000e+00 0.0000000000000000e+00  0.0000000000000000e+00 0.0000000000000000e+00 0.0000000000000000e+00  0.0000000000000000e+00 0.0000000000000000e+00 0.0000000000000000e+00  0.0000000000000000e+00 0.0000000000000000e+00 0.0000000000000000e+00  0.0000000000000000e+00 0.0000000000000000e+00 0.0000000000000000e+00  0.0000000000000000e+00 0.0000000000000000e+00 0.0000000000000000e+00  0.0000000000000000e+00 0.0000000000000000e+00 0.0000000000000000e+00  0.0000000000000000e+00 0.0000000000000000e+00 0.0000000000000000e+00  0.0000000000000000e+00 0.0000000000000000e+00 0.0000000000000000e+00  0.0000000000000000e+00 0.0000000000000000e+00 0.0000000000000000e+00  0.0000000000000000e+00 0.0000000000000000e+00 0.0000000000000000e+00  0.0000000000000000e+00 0.0000000000000000e+00 0.0000000000000000e+00  0.0000000000000000e+00 0.0000000000000000e+00 0.0000000000000000e+00  0.0000000000000000e+00 0.0000000000000000e+00 0.0000000000000000e+00  0.0000000000000000e+00 0.0000000000000000e+00 0.0000000000000000e+00  0.0000000000000000e+00 0.0000000000000000e+00 0.0000000000000000e+00  0.0000000000000000e+00 0.0000000000000000e+00 0.0000000000000000e+00  0.0000000000000000e+00 0.0000000000000000e+00 0.0000000000000000e+00  0.0000000000000000e+00 0.0000000000000000e+00 0.0000000000000000e+00  0.0000000000000000e+00 0.0000000000000000e+00 0.0000000000000000e+00  0.0000000000000000e+00 0.0000000000000000e+00 0.0000000000000000e+00  0.0000000000000000e+00 0.0000000000000000e+00 0.0000000000000000e+00  0.0000000000000000e+00 0.0000000000000000e+00 0.0000000000000000e+00  0.0000000000000000e+00 0.0000000000000000e+00 0.0000000000000000e+00  0.0000000000000000e+00 0.0000000000000000e+00 0.0000000000000000e+00  0.0000000000000000e+00 0.0000000000000000e+00 0.0000000000000000e+00  0.0000000000000000e+00 0.0000000000000000e+00 0.0000000000000000e+00  0.0000000000000000e+00 0.0000000000000000e+00 0.0000000000000000e+00  0.0000000000000000e+00 0.0000000000000000e+00 0.0000000000000000e+00  0.0000000000000000e+00 0.0000000000000000e+00 0.0000000000000000e+00  0.0000000000000000e+00 0.0000000000000000e+00 0.0000000000000000e+00  0.0000000000000000e+00 0.0000000000000000e+00 0.0000000000000000e+00  0.0000000000000000e+00 0.0000000000000000e+00 0.0000000000000000e+00  0.0000000000000000e+00 0.0000000000000000e+00 0.0000000000000000e+00  0.0000000000000000e+00 0.0000000000000000e+00 0.0000000000000000e+00  0.0000000000000000e+00 0.0000000000000000e+00 0.0000000000000000e+00  0.0000000000000000e+00 0.0000000000000000e+00 0.0000000000000000e+00  0.0000000000000000e+00 0.0000000000000000e+00 0.0000000000000000e+00  0.0000000000000000e+00 0.0000000000000000e+00 0.0000000000000000e+00  0.0000000000000000e+00 0.0000000000000000e+00 0.0000000000000000e+00  0.0000000000000000e+00 0.0000000000000000e+00 0.0000000000000000e+00  0.0000000000000000e+00 0.0000000000000000e+00 0.0000000000000000e+00  0.0000000000000000e+00 0.0000000000000000e+00 0.0000000000000000e+00  0.0000000000000000e+00 0.0000000000000000e+00 0.0000000000000000e+00  0.0000000000000000e+00 0.0000000000000000e+00 0.0000000000000000e+00  0.0000000000000000e+00 0.0000000000000000e+00 0.0000000000000000e+00  0.0000000000000000e+00 0.0000000000000000e+00 0.0000000000000000e+00  0.0000000000000000e+00 0.0000000000000000e+00 0.0000000000000000e+00  0.0000000000000000e+00 0.0000000000000000e+00 0.0000000000000000e+00  0.0000000000000000e+00 0.0000000000000000e+00 0.0000000000000000e+00  0.0000000000000000e+00 0.0000000000000000e+00 0.0000000000000000e+00  0.0000000000000000e+00 0.0000000000000000e+00 0.0000000000000000e+00  0.0000000000000000e+00 0.0000000000000000e+00 0.0000000000000000e+00  0.0000000000000000e+00 0.0000000000000000e+00 0.0000000000000000e+00  0.0000000000000000e+00 0.0000000000000000e+00 0.0000000000000000e+00  0.0000000000000000e+00 0.0000000000000000e+00 0.0000000000000000e+00  0.0000000000000000e+00 0.0000000000000000e+00 0.0000000000000000e+00  0.0000000000000000e+00 0.0000000000000000e+00 0.0000000000000000e+00  0.0000000000000000e+00 0.0000000000000000e+00 0.0000000000000000e+00  0.0000000000000000e+00 0.0000000000000000e+00 0.0000000000000000e+00  0.0000000000000000e+00 0.0000000000000000e+00 0.0000000000000000e+00  0.0000000000000000e+00 0.0000000000000000e+00 0.0000000000000000e+00  0.0000000000000000e+00 0.0000000000000000e+00 0.0000000000000000e+00  0.0000000000000000e+00 0.0000000000000000e+00 0.0000000000000000e+00  0.0000000000000000e+00 0.0000000000000000e+00 0.0000000000000000e+00  0.0000000000000000e+00 0.0000000000000000e+00 0.0000000000000000e+00  0.0000000000000000e+00 0.0000000000000000e+00 0.0000000000000000e+00  0.0000000000000000e+00 0.0000000000000000e+00 0.0000000000000000e+00  0.0000000000000000e+00 0.0000000000000000e+00 0.0000000000000000e+00  0.0000000000000000e+00 0.0000000000000000e+00 0.0000000000000000e+00  0.0000000000000000e+00 0.0000000000000000e+00 0.0000000000000000e+00  0.0000000000000000e+00 0.0000000000000000e+00 0.0000000000000000e+00  0.0000000000000000e+00 0.0000000000000000e+00 0.0000000000000000e+00  0.0000000000000000e+00 0.0000000000000000e+00 0.0000000000000000e+00  0.0000000000000000e+00 0.0000000000000000e+00 0.0000000000000000e+00  0.0000000000000000e+00 0.0000000000000000e+00 0.0000000000000000e+00  0.0000000000000000e+00 0.0000000000000000e+00 0.0000000000000000e+00  0.0000000000000000e+00 0.0000000000000000e+00 0.0000000000000000e+00  0.0000000000000000e+00 0.0000000000000000e+00 0.0000000000000000e+00  0.0000000000000000e+00 0.0000000000000000e+00 0.0000000000000000e+00  0.0000000000000000e+00 0.0000000000000000e+00 0.0000000000000000e+00  0.0000000000000000e+00 0.0000000000000000e+00 0.0000000000000000e+00  0.0000000000000000e+00 0.0000000000000000e+00 0.0000000000000000e+00  0.0000000000000000e+00 0.0000000000000000e+00 0.0000000000000000e+00  0.0000000000000000e+00 0.0000000000000000e+00 0.0000000000000000e+00  0.0000000000000000e+00 0.0000000000000000e+00 0.0000000000000000e+00  0.0000000000000000e+00 0.0000000000000000e+00 0.0000000000000000e+00  0.0000000000000000e+00 0.0000000000000000e+00 0.0000000000000000e+00  0.0000000000000000e+00 0.0000000000000000e+00 0.0000000000000000e+00  0.0000000000000000e+00 0.0000000000000000e+00 0.0000000000000000e+00  0.0000000000000000e+00 0.0000000000000000e+00 0.0000000000000000e+00  0.0000000000000000e+00 0.0000000000000000e+00 0.0000000000000000e+00  0.0000000000000000e+00 0.0000000000000000e+00 0.0000000000000000e+00  0.0000000000000000e+00 0.0000000000000000e+00 0.0000000000000000e+00  0.0000000000000000e+00 0.0000000000000000e+00 0.0000000000000000e+00  0.0000000000000000e+00 0.0000000000000000e+00 0.0000000000000000e+00  1.2331522221814449e-08 -1.0712626473656889e-07 0.0000000000000000e+00  1.1822524592539125e-08 -1.1335716281854927e-07 0.0000000000000000e+00  2.1574495409273185e-08 -1.1644860861983557e-07 0.0000000000000000e+00  3.2540628948787955e-08 -1.2094256640097075e-07 0.0000000000000000e+00  4.2893378451520363e-08 -1.2724311393764481e-07 0.0000000000000000e+00  5.2315691878425544e-08 -1.3459882540373473e-07 0.0000000000000000e+00  6.0473094331494972e-08 -1.4274570927379660e-07 0.0000000000000000e+00  6.7869489573115698e-08 -1.5172699959532876e-07 0.0000000000000000e+00  7.4009864741514356e-08 -1.6119277043746149e-07 0.0000000000000000e+00  7.9076080970207220e-08 -1.7125768544043043e-07 0.0000000000000000e+00  8.3131037785673623e-08 -1.8146652996360533e-07 0.0000000000000000e+00  8.6038523704057846e-08 -1.9207478281603904e-07 0.0000000000000000e+00  8.7968945030645729e-08 -2.0267110599027211e-07 0.0000000000000000e+00  8.8611844749177894e-08 -2.1331482703527329e-07 0.0000000000000000e+00  8.8443717820356915e-08 -2.2385000240167818e-07 0.0000000000000000e+00  8.7025185151731258e-08 -2.3421754067451723e-07 0.0000000000000000e+00  8.4638250154766882e-08 -2.4448123496123105e-07 0.0000000000000000e+00  8.1137453192836470e-08 -2.5426596316742070e-07 0.0000000000000000e+00  7.6657688371672304e-08 -2.6390662159133473e-07 0.0000000000000000e+00  7.1095227106984422e-08 -2.7296530185904752e-07 0.0000000000000000e+00  6.4550827827005688e-08 -2.8177691312760244e-07 0.0000000000000000e+00  5.6977766396918601e-08 -2.9002029123331178e-07 0.0000000000000000e+00  4.8261057320560062e-08 -2.9787493477658168e-07 0.0000000000000000e+00  3.8746672618358388e-08 -3.0514617934922074e-07 0.0000000000000000e+00  2.8119552905664183e-08 -3.1197441561758541e-07 0.0000000000000000e+00  1.6548991125975314e-08 -3.1838263859272365e-07 0.0000000000000000e+00  3.9404444816088694e-09 -3.2420277570806408e-07 0.0000000000000000e+00  -9.5875949737010807e-09 -3.2967744120827948e-07 0.0000000000000000e+00  -2.4147722453164377e-08 -3.3458431190752252e-07 0.0000000000000000e+00  -3.9622652450177238e-08 -3.3918964569034428e-07 0.0000000000000000e+00  -5.6115709467637594e-08 -3.4327353054357966e-07 0.0000000000000000e+00  -7.3528232171956466e-08 -3.4711140572524078e-07 0.0000000000000000e+00  -9.1945038800465881e-08 -3.5049042512117973e-07 0.0000000000000000e+00  -1.1128998924874905e-07 -3.5368473885654185e-07 0.0000000000000000e+00  -1.3163706592161145e-07 -3.5649115845201284e-07 0.0000000000000000e+00  -1.5292110306963005e-07 -3.5918455489322946e-07 0.0000000000000000e+00  -1.7520366733460519e-07 -3.6155535443917345e-07 0.0000000000000000e+00  -1.9844242631376772e-07 -3.6388444610228943e-07 0.0000000000000000e+00  -2.2268595236381407e-07 -3.6595293821423902e-07 0.0000000000000000e+00  -2.4790665152293747e-07 -3.6804028428828134e-07 0.0000000000000000e+00  -2.7413390324041273e-07 -3.6996720360190928e-07 0.0000000000000000e+00  -3.0149369598575968e-07 -3.7184217964440460e-07 0.0000000000000000e+00  -3.2968175639519078e-07 -3.7369279583033161e-07 0.0000000000000000e+00  -3.5903800375280691e-07 -3.7543182324440867e-07 0.0000000000000000e+00  -3.8934442764231513e-07 -3.7711753133031079e-07 0.0000000000000000e+00  -4.1932857137265150e-07 -3.7835917056680423e-07 0.0000000000000000e+00  -4.5781102728048089e-07 -3.5840375023037139e-07 0.0000000000000000e+00  -4.6207873676554519e-07 -2.9919763345162544e-07 0.0000000000000000e+00  -4.2803097219018164e-07 -2.7275329053631170e-07 0.0000000000000000e+00  -3.9803833693449602e-07 -2.6761009463298181e-07 0.0000000000000000e+00  -3.6768149285921268e-07 -2.6287203941723817e-07 0.0000000000000000e+00  -3.3832179488037642e-07 -2.5817823450591631e-07 0.0000000000000000e+00  -3.1018921152691548e-07 -2.5362631887804125e-07 0.0000000000000000e+00  -2.8291779934318059e-07 -2.4904581571039566e-07 0.0000000000000000e+00  -2.5689485157947497e-07 -2.4442089449332255e-07 0.0000000000000000e+00  -2.3188040443564235e-07 -2.3987794120494523e-07 0.0000000000000000e+00  -2.0796764427940502e-07 -2.3504338392103124e-07 0.0000000000000000e+00  -1.8509246999450946e-07 -2.3030541690091086e-07 0.0000000000000000e+00  -1.6332147909404615e-07 -2.2519428448265380e-07 0.0000000000000000e+00  -1.4257013252568454e-07 -2.2011197006582571e-07 0.0000000000000000e+00  -1.2293155986074482e-07 -2.1458621840289422e-07 0.0000000000000000e+00  -1.0429107995278136e-07 -2.0901553832856420e-07 0.0000000000000000e+00  -8.6771523012095109e-08 -2.0293116709625106e-07 0.0000000000000000e+00  -7.0227408517002211e-08 -1.9673091120743467e-07 0.0000000000000000e+00  -5.4809084607057096e-08 -1.8995124095471635e-07 0.0000000000000000e+00  -4.0343244434784743e-08 -1.8299271705207051e-07 0.0000000000000000e+00  -2.7002158959485035e-08 -1.7540078615836008e-07 0.0000000000000000e+00  -1.4589842989373260e-08 -1.6757936866085890e-07 0.0000000000000000e+00  -3.2923068463850797e-09 -1.5908834545852192e-07 0.0000000000000000e+00  7.0852120403990015e-09 -1.5032358278442595e-07 0.0000000000000000e+00  1.6442949136269900e-08 -1.4092848267406925e-07 0.0000000000000000e+00  2.4680707101409723e-08 -1.3112386667873059e-07 0.0000000000000000e+00  3.2160762042729182e-08 -1.2078962743614378e-07 0.0000000000000000e+00  3.8535802529189417e-08 -1.1001360961062917e-07 0.0000000000000000e+00  4.4014505454797908e-08 -9.8861738516424465e-08 0.0000000000000000e+00  4.8496052123240484e-08 -8.7179835225393403e-08 0.0000000000000000e+00  5.2103465476136032e-08 -7.5234537978828507e-08 0.0000000000000000e+00  5.4754746491800870e-08 -6.2840282008693115e-08 0.0000000000000000e+00  5.6550040838681427e-08 -5.0278185606875103e-08 0.0000000000000000e+00  5.7445771724324396e-08 -3.7425190463747521e-08 0.0000000000000000e+00  5.7409332257677112e-08 -2.4440630253129587e-08 0.0000000000000000e+00  5.6691915320509053e-08 -1.1406022084048345e-08 0.0000000000000000e+00  5.5052289606886095e-08 1.6110505768389486e-09 0.0000000000000000e+00  5.2615268579087506e-08 1.4426083338708959e-08 0.0000000000000000e+00  4.9430552040259288e-08 2.7098486586959294e-08 0.0000000000000000e+00  4.5454168655420051e-08 3.9304035250407007e-08 0.0000000000000000e+00  4.0787184114226237e-08 5.1068131915503031e-08 0.0000000000000000e+00  3.5389091889011734e-08 6.2233341403362508e-08 0.0000000000000000e+00  2.9419882018861879e-08 7.2475213050917901e-08 0.0000000000000000e+00  2.2799190432630564e-08 8.1814695647057072e-08 0.0000000000000000e+00  1.5412772919562645e-08 9.0029427857105657e-08 0.0000000000000000e+00  8.2652456389375707e-09 9.7588612778370706e-08 0.0000000000000000e+00  2.4475504752604089e-09 1.0373490317851239e-07 0.0000000000000000e+00  7.2827676193355339e-09 1.0289046070936015e-07 0.0000000000000000e+00  -6.0483246832393901e-09 -3.1805761203504879e-09 0.0000000000000000e+00  -4.1146435114321640e-07 -3.2461149951502910e-07 0.0000000000000000e+00  -3.5228310160941570e-07 -3.1898694812405636e-07 0.0000000000000000e+00  -2.6553874903692656e-07 -3.0847559238111063e-07 0.0000000000000000e+00  1.8521977574033164e-08 -1.1405492158765349e-08 0.0000000000000000e+00  -2.1625659945165110e-07 -3.0127491715828620e-07 0.0000000000000000e+00  3.5288339776918621e-08 -2.4106340160554232e-08 0.0000000000000000e+00  -1.7013656504510254e-07 -2.9419382802715400e-07 0.0000000000000000e+00  5.6178734745186676e-08 -5.4309404208099858e-08 0.0000000000000000e+00  6.5161879545454975e-08 -7.7568918077040629e-08 0.0000000000000000e+00  -1.2810248861392399e-07 -2.8640372786943437e-07 0.0000000000000000e+00  7.1133859077127272e-08 -1.3581008846667262e-07 0.0000000000000000e+00  -5.6180344668975261e-08 -2.6756732606685599e-07 0.0000000000000000e+00  7.0123628269064847e-08 -9.8857253579020381e-08 0.0000000000000000e+00  6.7200317441520044e-08 -1.5942503949419160e-07 0.0000000000000000e+00  -2.6253284382523796e-08 -2.5598229893682200e-07 0.0000000000000000e+00  -9.0124262407244896e-08 -2.7762206691470876e-07 0.0000000000000000e+00  5.9095474448489215e-08 -1.8102316172052105e-07 0.0000000000000000e+00  -3.2836672202807361e-10 -2.4265786680136301e-07 0.0000000000000000e+00  4.7431066276870610e-08 -1.9908859080608935e-07 0.0000000000000000e+00  2.1319792798972948e-08 -2.2881761372918340e-07 0.0000000000000000e+00  3.5980194057365039e-08 -2.1400447868591519e-07 0.0000000000000000e+00  7.1873456254671200e-08 -1.1803828548153503e-07 0.0000000000000000e+00  -3.0954438475044385e-07 -3.1292172702667052e-07 0.0000000000000000e+00  4.6374906859362504e-08 -3.8984791297801191e-08 0.0000000000000000e+00  -3.8220139303631695e-07 -3.0240777721139036e-07 0.0000000000000000e+00  6.2661947988291760e-09 3.3374444514925491e-08 0.0000000000000000e+00  -1.9406412225103487e-07 -2.7888883276370373e-07 0.0000000000000000e+00  -2.4214844416908392e-07 -2.8648102348459174e-07 0.0000000000000000e+00  3.1026986032726375e-08 -5.5474297079236845e-08 0.0000000000000000e+00  6.5339384838936838e-08 -9.5211092839305209e-08 0.0000000000000000e+00  -7.4608191532170082e-08 -2.5161644970687187e-07 0.0000000000000000e+00  -1.5013258080104906e-07 -2.7073675748684991e-07 0.0000000000000000e+00  7.4199791925040816e-08 -1.7470245080050544e-07 0.0000000000000000e+00  -4.2965989763599582e-08 -2.4008891771082467e-07 0.0000000000000000e+00  7.2772723624492021e-08 -1.1756328881443547e-07 0.0000000000000000e+00  6.7822806257043923e-08 -1.9625399840408305e-07 0.0000000000000000e+00  -1.5371491711295170e-08 -2.2692180263455002e-07 0.0000000000000000e+00  -1.1032248821328191e-07 -2.6174141052666311e-07 0.0000000000000000e+00  5.8427785028790590e-08 -2.2175828811232624e-07 0.0000000000000000e+00  8.2003692786989669e-09 -2.1193118914920281e-07 0.0000000000000000e+00  -1.5666096375969930e-08 -3.0099280627911440e-08 0.0000000000000000e+00  -1.6720473159115006e-08 2.7820983597496051e-08 0.0000000000000000e+00  -4.3656872236453182e-07 -3.3919318311324805e-07 0.0000000000000000e+00  1.0598159231090905e-08 