<?xml version="1.0"?>
<VTKFile type="UnstructuredGrid"  version="0.1"  >
<UnstructuredGrid>
<Piece  NumberOfPoints="1419" NumberOfCells="2698">
<Points>
<DataArray  type="Float64"  NumberOfComponents="3"  format="ascii">0 0 0  0 0.41 0  2.5 0 0  2.5 0.41 0  0.5993855649739519 0.2009423181714189 0  0.6013168042996432 0.2094956837698656 0  0.25 0.2 0  0.15 0.2 0  0.2489897948556636 0.21 0  0.2489897948556636 0.19 0  0.600555467619471 0.1882579884197282 0  0 0.3807142857143437 0  0 0.3514285714286952 0  0 0.3221428571430699 0  0 0.29285714285744 0  0 0.2635714285718054 0  0 0.2342857142861561 0  0 0.2050000000005308 0  0 0.175714285714732 0  0 0.1464285714289574 0  0 0.1171428571431897 0  0 0.08785714285737878 0  0 0.05857142857161107 0  0 0.02928571428580012 0  0.03015443760436003 0 0  0.06140001986583606 0 0  0.09377624077125973 0 0  0.1273239957535082 0 0  0.1620856860351972 0 0  0.1981052433264291 0 0  0.235428184091502 0 0  0.2741016576309132 0 0  0.3141745521465447 0 0  0.3556974926295285 0 0  0.3987229542472677 0 0  0.4433053055141081 0 0  0.4895008759286886 0 0  0.5373680609405097 0 0  0.5869673343216626 0 0  0.6383613676634521 0 0  0.6916151138468254 0 0  0.7467958595648856 0 0  0.8039733463919316 0 0  0.8632198139502143 0 0  0.9246101326867038 0 0  0.9882218810934433 0 0  1.054135445558498 0 0  1.122434100542598 0 0  1.193204177141305 0 0  1.266535089879536 0 0  1.342519516046404 0 0  1.421253448503939 0 0  1.502836389106271 0 0  1.587371439758838 0 0  1.674965418777374 0 0  1.765729001825544 0 0  1.859776908880082 0 0  1.957227977487062 0 0  2.058205329869943 0 0  2.162836591189951 0 0  2.271253957290865 0 0  2.383594446803425 0 0  2.5 0.1024999999997612 0  2.5 0.2049999999994743 0  2.5 0.3074999999997183 0  2.383594446803656 0.41 0  2.271253957291315 0.41 0  2.162836591190598 0.41 0  2.058205329870775 0.41 0  1.957227977488067 0.41 0  1.859776908881246 0.41 0  1.765729001826854 0.41 0  1.674965418778818 0.41 0  1.58737143976041 0.41 0  1.502836389107956 0.41 0  1.421253448505726 0.41 0  1.342519516048286 0.41 0  1.266535089881505 0.41 0  1.193204177143353 0.41 0  1.122434100544716 0.41 0  1.05413544556068 0.41 0  0.9882218810956305 0.41 0  0.9246101326886647 0.41 0  0.8632198139519631 0.41 0  0.8039733463934788 0.41 0  0.7467958595662458 0.41 0  0.6916151138480078 0.41 0  0.6383613676644679 0.41 0  0.5869673343225223 0.41 0  0.5373680609412221 0.41 0  0.4895008759292634 0.41 0  0.4433053055145528 0.41 0  0.3987229542475914 0.41 0  0.3556974926297398 0.41 0  0.3141745521466497 0.41 0  0.2741016576310038 0.41 0  0.2354281840915826 0.41 0  0.1981052433265003 0.41 0  0.1620856860352591 0.41 0  0.1273239957535623 0.41 0  0.09377624077128965 0.41 0  0.06140001986584975 0.41 0  0.03015443760436654 0.41 0  0.2497468076502589 0.2050254481002335 0  0.2497468076502614 0.1949745518997913 0  0.2469965252529372 0.1829317073451959 0  0.2439893735792749 0.1762316384219906 0  0.2400332147834255 0.1700443375285386 0  0.2352133972704371 0.1645032867342007 0  0.2296339016332438 0.1597280261969788 0  0.2234150974217223 0.1558215752574715 0  0.2166911463437691 0.1528682099456123 0  0.2096071079204251 0.1509316448471593 0  0.2023158100364996 0.1500536585536553 0  0.194974551899914 0.1502531923497262 0  0.1877417105387872 0.1515259415822739 0  0.1807733240461124 0.153844448527136 0  0.1742197252835808 0.15715869474974 0  0.1682222986673531 0.1613971801805478 0  0.162910430003803 0.1664684656256651 0  0.1583987151779087 0.1722631454351573 0  0.1547844879126891 0.178656207771761 0  0.1521457199348551 0.1855097315605723 0  0.1505393388476355 0.1926758619366523 0  0.1505393388476328 0.2073241380633295 0  0.1521457199348437 0.2144902684393899 0  0.1547844879126531 0.221343792228163 0  0.1583987151778488 0.2277368545647528 0  0.1629104300036858 0.2335315343742052 0  0.1682222986671726 0.2386028198193036 0  0.1742197252833576 0.2428413052501257 0  0.1807733240458683 0.2461555514727623 0  0.1877417105384929 0.2484740584176516 0  0.1949745518995776 0.2497468076502398 0  0.202315810036185 0.2499463414463592 0  0.2096071079201568 0.2490683551528932 0  0.2166911463435495 0.2471317900544655 0  0.2234150974215506 0.2441784247426195 0  0.2296339016331197 0.2402719738031125 0  0.2352133972703547 0.2354967132658811 0  0.2400332147833751 0.2299556624715287 0  0.2439893735792577 0.2237683615780412 0  0.246996525252926 0.2170682926548348 0  0.2547761236710932 0.2370647799157307 0  0.2635512069989837 0.2100309014672724 0  0.271761928477136 0.2146019324443609 0  0.2789433978877912 0.206401448457485 0  0.2868866182209754 0.2143286618434867 0  0.2981050953402189 0.2057751650129536 0  0.300524075879603 0.2137589602720059 0  0.3126660921575098 0.2676691579135303 0  0.3090853188070964 -0.008768548147068206 0  0.3219599222930595 0.1681628694144036 0  0.3308886340075614 0.2173895833219022 0  0.3401909970444491 0.2464769380676179 0  0.3527650444382378 0.2142464198951107 0  0.3491947651830307 0.2256237218001921 0  0.3622517783558599 0.1936321092091618 0  0.3674172084574325 0.1568482249861083 0  0.3772245532416236 0.2266044073107064 0  0.3812524291751179 0.2185565915198926 0  0.3879844160406651 0.1942953014623773 0  0.3978145009058848 0.2429329777756402 0  0.3670551539100912 0.2408223879956216 0  0.4026234645568026 0.2761503546557867 0  0.481731180309074 0.07307614482430846 0  0.4253530970061628 0.2518643221616193 0  0.3076774474474713 0.4513197468563148 0  0.450838282759297 0.2183567225172323 0  0.4095491793209424 0.2912385428591892 0  0.7694664960991822 -0.4246700985089249 0  0.5010675408153076 0.1757828951835613 0  0.5619849134746804 0.006850297626430135 0  0.4459596161950178 0.3306092612862117 0  0.3185175358801677 0.524784664333101 0  0.5162110128932302 0.1880548965767131 0  0.5768488934752863 0.03756079915470462 0  0.2823807088566051 0.7280499528901829 0  0.4222455346522018 0.4458545559126131 0  0.4966402045500296 0.2602259783680387 0  0.5248872558677551 0.2468255396691595 0  0.5301036275462842 0.2362119720853225 0  0.5332509039101991 0.2932978334214572 0  0.5628405241769479 0.1744797047012219 0  0.5597406013948533 0.2211108038770488 0  0.5708537190711288 0.2105675942460599 0  0.5774108091177493 0.2077223399107064 0  0.5840609220360057 0.2164694424873731 0  0.5928190639441177 0.2094124621736717 0  0.5999949083981622 0.2257971483228381 0  0.6001937410499619 0.1944449533345409 0  0.5926851581237915 0.1805921024960822 0  0.584949353779179 0.1936497097132576 0  0.577263815157285 0.1852684482304282 0  0.5712077513306348 0.1880699410957063 0  0.558042030623332 0.1989495243711496 0  0.5672862895223034 0.1673505949967051 0  0.5379203823630513 0.203330954720182 0  0.5397007061719559 0.1909806215131722 0  0.5381579549679688 0.1769125471261234 0  0.5227115399663445 0.1897577276451322 0  0.5087738006249365 0.2250726781545477 0  0.5143602087031783 0.1768325158336924 0  0.5022391439630172 0.1922072784451508 0  0.49762134550312 0.1810174287193838 0  0.4854154273295124 0.1947942684765775 0  0.4797936289855804 0.1879582425298131 0  0.478197810761412 0.1901156478455794 0  0.4628524436225933 0.191903519880991 0  0.4560908660578398 0.1986430545934218 0  0.4587616316985038 0.1513343381218632 0  0.4448628074469573 0.1954565599555735 0  0.4347311075986566 0.1942470386296612 0  0.4251016197500959 0.2092882798375075 0  0.4223553537192232 0.1799105554911439 0  0.4155402160857748 0.2220327801589021 0  0.4069801095058687 0.1534073693111354 0  0.3982651507361622 0.2194080799080244 0  0.3904936229658527 0.1355781578204951 0  0.3846871725239317 0.244410839881661 0  0.3756186478402965 0.178213501536641 0  0.3681519077069075 0.1755011229962169 0  0.3640591169793554 0.2295341730457411 0  0.3516538630764907 0.1302442898770395 0  0.3526184950412748 0.3493626685920252 0  0.3288282209618297 -0.003652621596038904 0  0.3453067837705511 0.4611764242650579 0  0.3149237821296179 0.04675284971450532 0  0.3246786691633885 0.3529127756987653 0  0.3040826708736933 0.1056692871603562 0  0.3035497912463715 0.2205656633990252 0  0.2909800354363751 0.1477919107118016 0  0.2883303454321944 0.2234922318575846 0  0.2776497138518856 0.1665240004890264 0  0.2721323805359965 0.2042220450694257 0  0.2635727450380893 0.1826932520952115 0  0.2563457963260731 0.1893084036164017 0  0.2592994976897026 0.1990555829356237 0  0.5900912719664037 0.2017657234155241 0  0.5742269602229106 0.1980592190227724 0  0.5515068970732434 0.2040515554506779 0  0.274090381904146 0.2014175710966789 0  0.5373849764919967 0.2025452034289182 0  0.2898605412539266 0.2049627453332042 0  0.5119808117989003 0.2225226836694578 0  0.3102312419210679 0.1921216215333647 0  0.3246048697073871 0.1964437676726495 0  0.5000177608257657 0.2081926602781435 0  0.3668844361796177 0.1961528878291673 0  0.4759062366192849 0.2007440411456555 0  0.3438061447374805 0.2067080933247187 0  0.3769320278748273 0.2024572176374987 0  0.4720425332176676 0.1765661663538323 0  0.4815562964582091 0.2234203062636413 0  0.3934820660808562 0.2028454424475329 0  0.4525609658412608 0.1904602726585646 0  0.4080215166558676 0.2013412234027744 0  0.4289470107334514 0.2053795030060033 0  0.412406288181226 0.2135993272105285 0  0.3542483817793083 0.2039934768120095 0  0.5645268872963463 0.1945846923092156 0  0.3033126185712025 0.2054316801879783 0  0.5821336473647298 0.1968144296361261 0  0.2677823888128378 0.1987119014326567 0  0.5293301362612116 0.1993194125958914 0  0.547481515781082 0.1909958822263108 0  0.2821166188497236 0.2026105568607532 0  0.321206826694152 0.2422273777809673 0  0.484344324324574 0.1938708955743461 0  0.5117815685887057 0.2055656600950389 0  0.3730108617245158 0.2011792453466551 0  0.469619683709857 0.1967926868202712 0  0.3339997445021454 0.190229572070557 0  0.3859389563727737 0.1987623733958157 0  0.4608983921728722 0.185686060302662 0  0.5004909958389114 0.1962459247322506 0  0.4078144923929516 0.1904418044948046 0  0.4383864919614351 0.2002459947188419 0  0.2537898861853002 0.2031953244546081 0  0.253269987294414 0.2017760879081733 0  0.595377
[...]
<PointData  Vectors="f_40-1"> 
<DataArray  type="Float64"  Name="f_40-1"  NumberOfComponents="3" format="ascii">0.0000000000000000e+00 0.0000000000000000e+00 0.0000000000000000e+00  0.0000000000000000e+00 0.0000000000000000e+00 0.0000000000000000e+00  0.0000000000000000e+00 0.0000000000000000e+00 0.0000000000000000e+00  0.0000000000000000e+00 0.0000000000000000e+00 0.0000000000000000e+00  -8.1529660886992634e-04 1.4698861030212586e-02 0.0000000000000000e+00  4.7829772587303386e-04 4.9389086445064644e-03 0.0000000000000000e+00  0.0000000000000000e+00 0.0000000000000000e+00 0.0000000000000000e+00  0.0000000000000000e+00 0.0000000000000000e+00 0.0000000000000000e+00  0.0000000000000000e+00 0.0000000000000000e+00 0.0000000000000000e+00  0.0000000000000000e+00 0.0000000000000000e+00 0.0000000000000000e+00  8.3734913718128807e-04 -1.3905658373437730e-02 0.0000000000000000e+00  0.0000000000000000e+00 0.0000000000000000e+00 0.0000000000000000e+00  0.0000000000000000e+00 0.0000000000000000e+00 0.0000000000000000e+00  0.0000000000000000e+00 0.0000000000000000e+00 0.0000000000000000e+00  0.0000000000000000e+00 0.0000000000000000e+00 0.0000000000000000e+00  0.0000000000000000e+00 0.0000000000000000e+00 0.0000000000000000e+00  0.0000000000000000e+00 0.0000000000000000e+00 0.0000000000000000e+00  0.0000000000000000e+00 0.0000000000000000e+00 0.0000000000000000e+00  0.0000000000000000e+00 0.0000000000000000e+00 0.0000000000000000e+00  0.0000000000000000e+00 0.0000000000000000e+00 0.0000000000000000e+00  0.0000000000000000e+00 0.0000000000000000e+00 0.0000000000000000e+00  0.0000000000000000e+00 0.0000000000000000e+00 0.0000000000000000e+00  0.0000000000000000e+00 0.0000000000000000e+00 0.0000000000000000e+00  0.0000000000000000e+00 0.0000000000000000e+00 0.0000000000000000e+00  0.0000000000000000e+00 0.0000000000000000e+00 0.0000000000000000e+00  0.0000000000000000e+00 0.0000000000000000e+00 0.0000000000000000e+00  0.0000000000000000e+00 0.0000000000000000e+00 0.0000000000000000e+00  0.0000000000000000e+00 0.0000000000000000e+00 0.0000000000000000e+00  0.0000000000000000e+00 0.0000000000000000e+00 0.0000000000000000e+00  0.0000000000000000e+00 0.0000000000000000e+00 0.0000000000000000e+00  0.0000000000000000e+00 0.0000000000000000e+00 0.0000000000000000e+00  0.0000000000000000e+00 0.0000000000000000e+00 0.0000000000000000e+00  0.0000000000000000e+00 0.0000000000000000e+00 0.0000000000000000e+00  0.0000000000000000e+00 0.0000000000000000e+00 0.0000000000000000e+00  0.0000000000000000e+00 0.0000000000000000e+00 0.0000000000000000e+00  0.0000000000000000e+00 0.0000000000000000e+00 0.0000000000000000e+00  0.0000000000000000e+00 0.0000000000000000e+00 0.0000000000000000e+00  0.0000000000000000e+00 0.0000000000000000e+00 0.0000000000000000e+00  0.0000000000000000e+00 0.0000000000000000e+00 0.0000000000000000e+00  0.0000000000000000e+00 0.0000000000000000e+00 0.0000000000000000e+00  0.0000000000000000e+00 0.0000000000000000e+00 0.0000000000000000e+00  0.0000000000000000e+00 0.0000000000000000e+00 0.0000000000000000e+00  0.0000000000000000e+00 0.0000000000000000e+00 0.0000000000000000e+00  0.0000000000000000e+00 0.0000000000000000e+00 0.0000000000000000e+00  0.0000000000000000e+00 0.0000000000000000e+00 0.0000000000000000e+00  0.0000000000000000e+00 0.0000000000000000e+00 0.0000000000000000e+00  0.0000000000000000e+00 0.0000000000000000e+00 0.0000000000000000e+00  0.0000000000000000e+00 0.0000000000000000e+00 0.0000000000000000e+00  0.0000000000000000e+00 0.0000000000000000e+00 0.0000000000000000e+00  0.0000000000000000e+00 0.0000000000000000e+00 0.0000000000000000e+00  0.0000000000000000e+00 0.0000000000000000e+00 0.0000000000000000e+00  0.0000000000000000e+00 0.0000000000000000e+00 0.0000000000000000e+00  0.0000000000000000e+00 0.0000000000000000e+00 0.0000000000000000e+00  0.0000000000000000e+00 0.0000000000000000e+00 0.0000000000000000e+00  0.0000000000000000e+00 0.0000000000000000e+00 0.0000000000000000e+00  0.0000000000000000e+00 0.0000000000000000e+00 0.0000000000000000e+00  0.0000000000000000e+00 0.0000000000000000e+00 0.0000000000000000e+00  0.0000000000000000e+00 0.0000000000000000e+00 0.0000000000000000e+00  0.0000000000000000e+00 0.0000000000000000e+00 0.0000000000000000e+00  0.0000000000000000e+00 0.0000000000000000e+00 0.0000000000000000e+00  0.0000000000000000e+00 0.0000000000000000e+00 0.0000000000000000e+00  0.0000000000000000e+00 0.0000000000000000e+00 0.0000000000000000e+00  0.0000000000000000e+00 0.0000000000000000e+00 0.0000000000000000e+00  0.0000000000000000e+00 0.0000000000000000e+00 0.0000000000000000e+00  0.0000000000000000e+00 0.0000000000000000e+00 0.0000000000000000e+00  0.0000000000000000e+00 0.0000000000000000e+00 0.0000000000000000e+00  0.0000000000000000e+00 0.0000000000000000e+00 0.0000000000000000e+00  0.0000000000000000e+00 0.0000000000000000e+00 0.0000000000000000e+00  0.0000000000000000e+00 0.0000000000000000e+00 0.0000000000000000e+00  0.0000000000000000e+00 0.0000000000000000e+00 0.0000000000000000e+00  0.0000000000000000e+00 0.0000000000000000e+00 0.0000000000000000e+00  0.0000000000000000e+00 0.0000000000000000e+00 0.0000000000000000e+00  0.0000000000000000e+00 0.0000000000000000e+00 0.0000000000000000e+00  0.0000000000000000e+00 0.0000000000000000e+00 0.0000000000000000e+00  0.0000000000000000e+00 0.0000000000000000e+00 0.0000000000000000e+00  0.0000000000000000e+00 0.0000000000000000e+00 0.0000000000000000e+00  0.0000000000000000e+00 0.0000000000000000e+00 0.0000000000000000e+00  0.0000000000000000e+00 0.0000000000000000e+00 0.0000000000000000e+00  0.0000000000000000e+00 0.0000000000000000e+00 0.0000000000000000e+00  0.0000000000000000e+00 0.0000000000000000e+00 0.0000000000000000e+00  0.0000000000000000e+00 0.0000000000000000e+00 0.0000000000000000e+00  0.0000000000000000e+00 0.0000000000000000e+00 0.0000000000000000e+00  0.0000000000000000e+00 0.0000000000000000e+00 0.0000000000000000e+00  0.0000000000000000e+00 0.0000000000000000e+00 0.0000000000000000e+00  0.0000000000000000e+00 0.0000000000000000e+00 0.0000000000000000e+00  0.0000000000000000e+00 0.0000000000000000e+00 0.0000000000000000e+00  0.0000000000000000e+00 0.0000000000000000e+00 0.0000000000000000e+00  0.0000000000000000e+00 0.0000000000000000e+00 0.0000000000000000e+00  0.0000000000000000e+00 0.0000000000000000e+00 0.0000000000000000e+00  0.0000000000000000e+00 0.0000000000000000e+00 0.0000000000000000e+00  0.0000000000000000e+00 0.0000000000000000e+00 0.0000000000000000e+00  0.0000000000000000e+00 0.0000000000000000e+00 0.0000000000000000e+00  0.0000000000000000e+00 0.0000000000000000e+00 0.0000000000000000e+00  0.0000000000000000e+00 0.0000000000000000e+00 0.0000000000000000e+00  0.0000000000000000e+00 0.0000000000000000e+00 0.0000000000000000e+00  0.0000000000000000e+00 0.0000000000000000e+00 0.0000000000000000e+00  0.0000000000000000e+00 0.0000000000000000e+00 0.0000000000000000e+00  0.0000000000000000e+00 0.0000000000000000e+00 0.0000000000000000e+00  0.0000000000000000e+00 0.0000000000000000e+00 0.0000000000000000e+00  0.0000000000000000e+00 0.0000000000000000e+00 0.0000000000000000e+00  0.0000000000000000e+00 0.0000000000000000e+00 0.0000000000000000e+00  0.0000000000000000e+00 0.0000000000000000e+00 0.0000000000000000e+00  0.0000000000000000e+00 0.0000000000000000e+00 0.0000000000000000e+00  0.0000000000000000e+00 0.0000000000000000e+00 0.0000000000000000e+00  0.0000000000000000e+00 0.0000000000000000e+00 0.0000000000000000e+00  0.0000000000000000e+00 0.0000000000000000e+00 0.0000000000000000e+00  0.0000000000000000e+00 0.0000000000000000e+00 0.0000000000000000e+00  0.0000000000000000e+00 0.0000000000000000e+00 0.0000000000000000e+00  0.0000000000000000e+00 0.0000000000000000e+00 0.0000000000000000e+00  0.0000000000000000e+00 0.0000000000000000e+00 0.0000000000000000e+00  0.0000000000000000e+00 0.0000000000000000e+00 0.0000000000000000e+00  0.0000000000000000e+00 0.0000000000000000e+00 0.0000000000000000e+00  0.0000000000000000e+00 0.0000000000000000e+00 0.0000000000000000e+00  0.0000000000000000e+00 0.0000000000000000e+00 0.0000000000000000e+00  0.0000000000000000e+00 0.0000000000000000e+00 0.0000000000000000e+00  0.0000000000000000e+00 0.0000000000000000e+00 0.0000000000000000e+00  0.0000000000000000e+00 0.0000000000000000e+00 0.0000000000000000e+00  0.0000000000000000e+00 0.0000000000000000e+00 0.0000000000000000e+00  0.0000000000000000e+00 0.0000000000000000e+00 0.0000000000000000e+00  0.0000000000000000e+00 0.0000000000000000e+00 0.0000000000000000e+00  0.0000000000000000e+00 0.0000000000000000e+00 0.0000000000000000e+00  0.0000000000000000e+00 0.0000000000000000e+00 0.0000000000000000e+00  0.0000000000000000e+00 0.0000000000000000e+00 0.0000000000000000e+00  0.0000000000000000e+00 0.0000000000000000e+00 0.0000000000000000e+00  0.0000000000000000e+00 0.0000000000000000e+00 0.0000000000000000e+00  0.0000000000000000e+00 0.0000000000000000e+00 0.0000000000000000e+00  0.0000000000000000e+00 0.0000000000000000e+00 0.0000000000000000e+00  0.0000000000000000e+00 0.0000000000000000e+00 0.0000000000000000e+00  0.0000000000000000e+00 0.0000000000000000e+00 0.0000000000000000e+00  0.0000000000000000e+00 0.0000000000000000e+00 0.0000000000000000e+00  0.0000000000000000e+00 0.0000000000000000e+00 0.0000000000000000e+00  0.0000000000000000e+00 0.0000000000000000e+00 0.0000000000000000e+00  0.0000000000000000e+00 0.0000000000000000e+00 0.0000000000000000e+00  0.0000000000000000e+00 0.0000000000000000e+00 0.0000000000000000e+00  0.0000000000000000e+00 0.0000000000000000e+00 0.0000000000000000e+00  0.0000000000000000e+00 0.0000000000000000e+00 0.0000000000000000e+00  0.0000000000000000e+00 0.0000000000000000e+00 0.0000000000000000e+00  0.0000000000000000e+00 0.0000000000000000e+00 0.0000000000000000e+00  0.0000000000000000e+00 0.0000000000000000e+00 0.0000000000000000e+00  0.0000000000000000e+00 0.0000000000000000e+00 0.0000000000000000e+00  0.0000000000000000e+00 0.0000000000000000e+00 0.0000000000000000e+00  0.0000000000000000e+00 0.0000000000000000e+00 0.0000000000000000e+00  0.0000000000000000e+00 0.0000000000000000e+00 0.0000000000000000e+00  -1.7514983349236708e-03 2.3469040148728436e-02 0.0000000000000000e+00  -3.5336178041431781e-04 6.0391301101026997e-03 0.0000000000000000e+00  4.3739054421224077e-04 -2.2708094945186716e-03 0.0000000000000000e+00  -3.5663399065365077e-05 2.2129645409905479e-03 0.0000000000000000e+00  7.4660183058938617e-04 -2.3176564429737891e-03 0.0000000000000000e+00  4.1963353611308854e-03 -6.9495530624322287e-04 0.0000000000000000e+00  -7.3340344565269756e-04 1.8550415619654183e-04 0.0000000000000000e+00  3.5150369721509513e-03 5.5442434909002809e-02 0.0000000000000000e+00  -7.4545771224787047e-03 -2.0797825267739736e-01 0.0000000000000000e+00  -1.4674865690249570e-03 -5.5948169546790230e-02 0.0000000000000000e+00  -9.7295369069275964e-04 2.8690861364538425e-02 0.0000000000000000e+00  2.4198980929250064e-03 1.4661782730929622e-02 0.0000000000000000e+00  5.9947251256432400e-03 2.2854170657090427e-02 0.0000000000000000e+00  -4.4729263686669211e-03 1.1381982437586485e-02 0.0000000000000000e+00  1.2194055717788428e-03 -6.2659651169300690e-03 0.0000000000000000e+00  -6.2604670527408967e-04 6.0543109797903758e-03 0.0000000000000000e+00  9.5806465414787585e-04 -4.1346778093357536e-03 0.0000000000000000e+00  -1.8193482837536598e-03 -6.4790813619395742e-05 0.0000000000000000e+00  -2.6382195478137698e-03 5.3944599438997516e-03 0.0000000000000000e+00  -9.0820856953441017e-04 6.2761944545551421e-04 0.0000000000000000e+00  -3.8545807508826822e-02 7.3829277267685095e-02 0.0000000000000000e+00  -1.0676852815317153e-02 1.6471568788491656e-02 0.0000000000000000e+00  6.0731462516521596e-02 -1.1817748869096703e-01 0.0000000000000000e+00  -2.0279757202820220e-03 2.1551073836828900e-03 0.0000000000000000e+00  -1.2846269573326025e-01 2.6002768724892494e-01 0.0000000000000000e+00  7.9428946116659339e-03 -1.9173298712003937e-02 0.0000000000000000e+00  -4.0252344468894120e-02 7.8922734197914013e-02 0.0000000000000000e+00  3.0980135085010890e-01 -6.1807091777330847e-01 0.0000000000000000e+00  3.8414437827277659e-02 -7.7000365570199236e-02 0.0000000000000000e+00  8.7292969057656419e-02 -1.7375512014576089e-01 0.0000000000000000e+00  -3.1304779372169134e-02 6.0998934187984313e-02 0.0000000000000000e+00  -1.7091015331298412e-01 3.4453079661604180e-01 0.0000000000000000e+00  2.0750203749553459e-02 -3.4465354832047781e-02 0.0000000000000000e+00  7.5552432138433240e-02 -1.7695364547157377e-01 0.0000000000000000e+00  -2.2911218525710703e-01 5.2960183483615264e-01 0.0000000000000000e+00  -9.4362440591015409e-02 2.1582948073311015e-01 0.0000000000000000e+00  -2.9355263460288085e-02 6.9352717954878892e-02 0.0000000000000000e+00  -8.0326592014011468e-03 1.8905831455125699e-02 0.0000000000000000e+00  -9.0745036740368622e-03 4.1035010246939375e-02 0.0000000000000000e+00  -1.5737072166869103e-02 7.8771356143810603e-02 0.0000000000000000e+00  9.3114259540029928e-03 -3.7916413406327162e-02 0.0000000000000000e+00  -3.7685671314758007e-03 1.4064061831887948e-02 0.0000000000000000e+00  1.9880627485037335e-03 -7.1721278627259466e-03 0.0000000000000000e+00  -1.5016129549685949e-03 6.9091414007953003e-03 0.0000000000000000e+00  4.2017303651573822e-04 -3.6630298805002842e-03 0.0000000000000000e+00  -6.0900001616950785e-04 5.8810354243914766e-03 0.0000000000000000e+00  2.9343010551139537e-04 1.8753507969732765e-02 0.0000000000000000e+00  -2.6342343460660856e-04 2.0189008585902442e-03 0.0000000000000000e+00  4.4319569136652362e-04 -6.3531689369547076e-03 0.0000000000000000e+00  -2.5836287768581459e-04 -2.6455524224294740e-03 0.0000000000000000e+00  -3.6199077085818162e-04 3.8163096638650141e-03 0.0000000000000000e+00  1.1600057507576665e-03 -7.3781099532856690e-03 0.0000000000000000e+00  -4.7052166532070526e-03 1.2137662782902745e-02 0.0000000000000000e+00  1.2902003974083221e-02 -2.3127082671855315e-02 0.0000000000000000e+00  -1.0442848705389852e-02 1.4566561561529667e-02 0.0000000000000000e+00  -3.0991137824620872e-04 4.1207740633360211e-03 0.0000000000000000e+00  5.6739380851645394e-03 -2.1136693845777203e-02 0.0000000000000000e+00  -2.8227640954167992e-03 9.5959409511289142e-03 0.0000000000000000e+00  -8.7415099936606257e-03 2.6451772699731410e-02 0.0000000000000000e+00  3.9536234667693973e-03 -8.0778856675413398e-03 0.0000000000000000e+00  -5.3459175326267788e-04 1.1200242113905377e-03 0.0000000000000000e+00  1.6395584628472613e-03 -7.2049213707096093e-03 0.0000000000000000e+00  -2.2925294950664620e-03 3.0985034546515567e-03 0.0000000000000000e+00  -9.6891718537716134e-04 3.4305888958278503e-03 0.0000000000000000e+00  5.0746152142238576e-03 7.9746212537443835e-04 0.0000000000000000e+00  -2.5184651430785391e-03 -5.7331628019852544e-04 0.0000000000000000e+00  -2.4109306651611353e-03 1.2207840200898377e-02 0.0000000000000000e+00  8.4052470105160041e-03 -4.5266153782990898e-02 0.0000000000000000e+00  1.1804666225789567e-03 1.2336087026438730e-02 0.0000000000000000e+00  -6.6011468713226271e-04 -6.5058641404406531e-03 0.0000000000000000e+00  -3.8687171074327860e-03 1.1026591135317468e-02 0.0000000000000000e+00  1.5925652876439308e-03 -5.7383035815245197e-03 0.0000000000000000e+00  2.6383816571228010e-03 2.2994066161913330e-02 0.0000000000000000e+00  9.1964130349935836e-04 8.0077446007270573e-03 0.0000000000000000e+00  -5.1849049450227380e-04 -1.2987349783683542e-03 0.0000000000000000e+00  -2.0675331912806892e-04 -1.1604074861940382e-04 0.0000000000000000e+00  4.9596995482734834e-04 -1.2461845152016632e-03 0.0000000000000000e+00  3.5896803520365529e-04 -5.1415112026094543e-04 0.0000000000000000e+00  -6.4608227329900349e-05 1.6953034538368936e-03 0.0000000000000000e+00  1.5147466260580804e-03 1.0299386894876951e-02 0.0000000000000000e+00  7.7356361940505980e-04 3.6132990804753429e-03 0.0000000000000000e+00  -7.9635958227832068e-04 -1.2169647473803506e-03 0.0000000000000000e+00  -4.6455542002281992e-05 1.5638854795382326e-03 0.0000000000000000e+00  -4.5661102020719206e-05 8.6697243145460114e-04 0.0000000000000000e+00  -7.4630414010810246e-04 1.2182751820636799e-03 0.0000000000000000e+00  -1.0923782774113792e-03 7.6752831525441552e-04 0.0000000000000000e+00  6.8326968348406581e-04 1.5616851341708460e-03 0.0000000000000000e+00  3.5863323845133666e-04 -2.6178386699368303e-03 0.0000000000000000e+00  -2.9122673560732538e-04 2.1103112381561603e-03 0.0000000000000000e+00  2.0280259120179542e-04 4.8264892810874482e-04 0.0000000000000000e+00  1.1809994760260300e-04 1.8869712816168430e-03 0.0000000000000000e+00  -5.0771534095190662e-07 -7.3026331509518875e-04 0.0000000000000000e+00  2.0930398074399997e-04 4.4689472484940405e-03 0.0000000000000000e+00  -3.5616835007468714e-04 -5.9272264670859670e-03 0.0000000000000000e+00  -1.4686961433020350e-03 -1.0893785044376182e-03 0.0000000000000000e+00  1.3414688545652284e-03 1.3036615304741707e-03 0.0000000000000000e+00  -3.8855484602547732e-04 -2.2053524514076056e-03 0.0000000000000000e+00  -1.4072479698839649e-03 1.4959253607771271e-03 0.0000000000000000e+00  -9.5984516198992784e-04 1.3504453588486151e-03 0.0000000000000000e+00  -6.9633745641248094e-04 8.9338805857128373e-04 0.0000000000000000e+00  5.2603518798325993e-04 5.6179689931444279e-03 0.0000000000000000e+00  -1.0859772974313333e-02 2.1151251544653520e-02 0.0000000000000000e+00  1.0767469401147416e-04 -4.4112313415387147e-03 0.0000000000000000e+00  -7.5941754604806416e-04 -1.9669983233454912e-03 0.0000000000000000e+00  -7.2201868609859067e-03 7.8512581349809846e-03 0.0000000000000000e+00  8.1103124860330096e-04 5.7538114758852411e-04 0.0000000000000000e+00  -3.9472126744518368e-05 4.3148531641369088e-04 0.0000000000000000e+00  1.6749353705348830e-03 7.4626979115169564e-03 0.0000000000000000e+00  -3.5679123399801971e-03 4.8279649099445569e-03 0.0000000000000000e+00  1.1697499057951633e-02 -2.4169951516197739e-02 0.0000000000000000e+00  -1.0016539861216889e-02 2.3888170013384578e-02 0.0000000000000000e+00  -1.3185966996704086e-03 4.0541043173721687e-03 0.0000000000000000e+00  6.7237773091254364e-03 -1.0459489411165035e-02 0.0000000000000000e+00  -1.3552915826713060e-03 -2.8993321361571759e-04 0.0000000000000000e+00  -1.8036537443851014e-03 1.7784607282479972e-03 0.0000000000000000e+00  -7.2185496263944922e-03 5.8236030340842893e-03 0.0000000000000000e+00  -2.9243158979090362e-04 -4.2021221764352700e-03 0.0000000000000000e+00  1.0018313010915431e-03 -6.7673711362233073e-03 0.0000000000000000e+00  3.8510688473860685e-03 1.6493675640898355e-02 0.0000000000000000e+00  3.2843430943988925e-04 -1.5834092773369846e-04 0.0000000000000000e+00  1.9879516736333034e-04 3.2948912747435694e-03 0.0000000000000000e+00  -8.0515737342517742e-05 -5.0521211689125232e-04 0.0000000000000000e+00  3.1329495116970058e-03 -7.1533145457505984e-03 0.0000000000000000e+00  -2.6649650746401161e-05 -1.2068776844339924e-03 0.0000000000000000e+00  1.8963143132694172e-03 4.2969898465745254e-02 0.0000000000000000e+00  -6.2599486364873678e-04 -5.5524182296727339e-03 0.0000000000000000e+00  -2.3949912035338885e-03 4.9919268786237890e-03 0.0000000000000000e+00  4.2452056741605626e-04 -9.9935332696815642e-03 0.0000000000000000e+00  4.0489412953195687e-04 -1.2683005639142417e-03 0.0000000000000000e+00  -6.0955177056146951e-04 -7.7692540417016480e-03 0.0000000000000000e+00  -1.3637936253869428e-03 -7.2343428674226046e-03 0.0000000000000000e+00  6.9200193781681152e-03 -1.2183026999766903e-02 0.0000000000000000e+00  2.3407934145452509e-03 -4.2750821849409449e-03 0.0000000000000000e+00  6.2756544348183813e-03 -1.6249333325630253e-02 0.0000000000000000e+00  -4.7689975895948692e-04 1.8477389787370387e-03 0.0000000000000000e+00  -1.2668461585614670e-03 2.8592750945671016e-04 0.0000000000000000e+00  -1.5618683517585421e-03 5.9473868951209451e-03 0.0000000000000000e+00  4.7054426647840362e-04 -3.9525014146198556e-03 0.0000000000000000e+00  -7.4036616950725438e-04 6.0607232980442469e-04 0.0000000000000000e+00  4.94632