<?xml version="1.0"?>
<VTKFile type="UnstructuredGrid"  version="0.1"  >
<UnstructuredGrid>
<Piece  NumberOfPoints="1419" NumberOfCells="2698">
<Points>
<DataArray  type="Float64"  NumberOfComponents="3"  format="ascii">0 0 0  0 0.41 0  2.5 0 0  2.5 0.41 0  0.5999850011791983 0.1899805047324928 0  0.5999861630518061 0.2099766930811184 0  0.25 0.2 0  0.15 0.2 0  0.2489897948556636 0.21 0  0.2489897948556636 0.19 0  0.5999853009298768 0.1999785984028369 0  0 0.3807142857143437 0  0 0.3514285714286952 0  0 0.3221428571430699 0  0 0.29285714285744 0  0 0.2635714285718054 0  0 0.2342857142861561 0  0 0.2050000000005308 0  0 0.175714285714732 0  0 0.1464285714289574 0  0 0.1171428571431897 0  0 0.08785714285737878 0  0 0.05857142857161107 0  0 0.02928571428580012 0  0.03015443760436003 0 0  0.06140001986583606 0 0  0.09377624077125973 0 0  0.1273239957535082 0 0  0.1620856860351972 0 0  0.1981052433264291 0 0  0.235428184091502 0 0  0.2741016576309132 0 0  0.3141745521465447 0 0  0.3556974926295285 0 0  0.3987229542472677 0 0  0.4433053055141081 0 0  0.4895008759286886 0 0  0.5373680609405097 0 0  0.5869673343216626 0 0  0.6383613676634521 0 0  0.6916151138468254 0 0  0.7467958595648856 0 0  0.8039733463919316 0 0  0.8632198139502143 0 0  0.9246101326867038 0 0  0.9882218810934433 0 0  1.054135445558498 0 0  1.122434100542598 0 0  1.193204177141305 0 0  1.266535089879536 0 0  1.342519516046404 0 0  1.421253448503939 0 0  1.502836389106271 0 0  1.587371439758838 0 0  1.674965418777374 0 0  1.765729001825544 0 0  1.859776908880082 0 0  1.957227977487062 0 0  2.058205329869943 0 0  2.162836591189951 0 0  2.271253957290865 0 0  2.383594446803425 0 0  2.5 0.1024999999997612 0  2.5 0.2049999999994743 0  2.5 0.3074999999997183 0  2.383594446803656 0.41 0  2.271253957291315 0.41 0  2.162836591190598 0.41 0  2.058205329870775 0.41 0  1.957227977488067 0.41 0  1.859776908881246 0.41 0  1.765729001826854 0.41 0  1.674965418778818 0.41 0  1.58737143976041 0.41 0  1.502836389107956 0.41 0  1.421253448505726 0.41 0  1.342519516048286 0.41 0  1.266535089881505 0.41 0  1.193204177143353 0.41 0  1.122434100544716 0.41 0  1.05413544556068 0.41 0  0.9882218810956305 0.41 0  0.9246101326886647 0.41 0  0.8632198139519631 0.41 0  0.8039733463934788 0.41 0  0.7467958595662458 0.41 0  0.6916151138480078 0.41 0  0.6383613676644679 0.41 0  0.5869673343225223 0.41 0  0.5373680609412221 0.41 0  0.4895008759292634 0.41 0  0.4433053055145528 0.41 0  0.3987229542475914 0.41 0  0.3556974926297398 0.41 0  0.3141745521466497 0.41 0  0.2741016576310038 0.41 0  0.2354281840915826 0.41 0  0.1981052433265003 0.41 0  0.1620856860352591 0.41 0  0.1273239957535623 0.41 0  0.09377624077128965 0.41 0  0.06140001986584975 0.41 0  0.03015443760436654 0.41 0  0.2497468076502589 0.2050254481002335 0  0.2497468076502614 0.1949745518997913 0  0.2469965252529372 0.1829317073451959 0  0.2439893735792749 0.1762316384219906 0  0.2400332147834255 0.1700443375285386 0  0.2352133972704371 0.1645032867342007 0  0.2296339016332438 0.1597280261969788 0  0.2234150974217223 0.1558215752574715 0  0.2166911463437691 0.1528682099456123 0  0.2096071079204251 0.1509316448471593 0  0.2023158100364996 0.1500536585536553 0  0.194974551899914 0.1502531923497262 0  0.1877417105387872 0.1515259415822739 0  0.1807733240461124 0.153844448527136 0  0.1742197252835808 0.15715869474974 0  0.1682222986673531 0.1613971801805478 0  0.162910430003803 0.1664684656256651 0  0.1583987151779087 0.1722631454351573 0  0.1547844879126891 0.178656207771761 0  0.1521457199348551 0.1855097315605723 0  0.1505393388476355 0.1926758619366523 0  0.1505393388476328 0.2073241380633295 0  0.1521457199348437 0.2144902684393899 0  0.1547844879126531 0.221343792228163 0  0.1583987151778488 0.2277368545647528 0  0.1629104300036858 0.2335315343742052 0  0.1682222986671726 0.2386028198193036 0  0.1742197252833576 0.2428413052501257 0  0.1807733240458683 0.2461555514727623 0  0.1877417105384929 0.2484740584176516 0  0.1949745518995776 0.2497468076502398 0  0.202315810036185 0.2499463414463592 0  0.2096071079201568 0.2490683551528932 0  0.2166911463435495 0.2471317900544655 0  0.2234150974215506 0.2441784247426195 0  0.2296339016331197 0.2402719738031125 0  0.2352133972703547 0.2354967132658811 0  0.2400332147833751 0.2299556624715287 0  0.2439893735792577 0.2237683615780412 0  0.246996525252926 0.2170682926548348 0  0.2564585338075131 0.2099964441124537 0  0.2639268516631095 0.2099962203800121 0  0.2713955093483864 0.209996086744274 0  0.2788642096102317 0.2099958944905388 0  0.2863328878655153 0.2099956302160462 0  0.2938015365486507 0.2099953184268605 0  0.3012701425000754 0.2099949693359185 0  0.3087387232482681 0.2099945783875339 0  0.3162072620224675 0.2099941604398363 0  0.3236757630381618 0.2099937101787515 0  0.3311442323668891 0.2099932434090115 0  0.3386126607158856 0.2099927517058942 0  0.3460810577074698 0.2099922486557163 0  0.3535494107402018 0.2099917338536613 0  0.3610177368345918 0.209991210047096 0  0.3684860208570202 0.2099906821597555 0  0.3759542707857174 0.209990147000788 0  0.3834224851699473 0.209989617751844 0  0.3908906643664026 0.2099890835185238 0  0.3983588089214664 0.209988559101861 0  0.4058269185791513 0.2099880339964346 0  0.4132949945009324 0.2099875189020886 0  0.4207630312290066 0.2099870092037943 0  0.4282310413473396 0.2099865097662034 0  0.4356990136252188 0.2099860182934903 0  0.4431669533464253 0.2099855335955303 0  0.4506348587194233 0.2099850619202238 0  0.4581027320434607 0.2099845955271692 0  0.4655705711132562 0.2099841423319148 0  0.4730383784070726 0.2099836938606602 0  0.4805061517896929 0.209983257970091 0  0.4879738933437324 0.2099828258587436 0  0.4954416013569825 0.2099824051458071 0  0.502909277370896 0.2099819870893438 0  0.5103769197926722 0.2099815789297825 0  0.5178445300701917 0.209981171883719 0  0.5253121068029383 0.2099807734071992 0  0.5327796508751235 0.2099803744676838 0  0.5402471611277878 0.2099799827966418 0  0.5477146381345213 0.2099795893497531 0  0.5551820812110602 0.2099792004636676 0  0.5626494858886369 0.2099788128511335 0  0.5701168626983976 0.2099784256993891 0  0.5775841998645381 0.209978042282262 0  0.5850515047769033 0.2099776608339351 0  0.5925188191385636 0.2099772948308881 0  0.5999856314737718 0.2049776253776343 0  0.5999850532424248 0.1949795697663195 0  0.5925176570572382 0.18998076770704 0  0.5850503428962717 0.1899812661803603 0  0.5775830397800839 0.1899817505048991 0  0.5701157031366302 0.1899822331646956 0  0.5626483254529786 0.1899827108250307 0  0.5551809191397641 0.189983188947954 0  0.5477134714250341 0.1899836679564576 0  0.5402459901845973 0.1899841433166313 0  0.5327784728162724 0.1899846272118135 0  0.5253109209078919 0.1899851063883806 0  0.5178433330599784 0.1899855961252637 0  0.5103757111944839 0.1899860826701404 0  0.5029080533628992 0.1899865813206599 0  0.4954403621181604 0.1899870784267998 0  0.4879726348715201 0.1899875891265416 0  0.4805048748148345 0.1899880997792793 0  0.4730370788162795 0.1899886253280251 0  0.4655692505844618 0.1899891520241888 0  0.458101386659078 0.189989694498843 0  0.4506334910992301 0.1899902389024098 0  0.4431655603380462 0.1899907993882255 0  0.4356975981446058 0.1899913624335352 0  0.4282296034647973 0.1899919391919175 0  0.4207615719663956 0.1899925228238833 0  0.4132935154460032 0.1899931150300456 0  0.4058254228812703 0.1899937142752769 0  0.3983573001679231 0.1899943172682387 0  0.3908891458764551 0.1899949288549634 0  0.3834209616437695 0.18999553982095 0  0.3759527472292636 0.1899961559162806 0  0.368484503378985 0.1899967676240443 0  0.361016230737192 0.1899973784243623 0  0.3535479273318229 0.189997983910701 0  0.3460796011875634 0.1899985784277078 0  0.3386112447782118 0.1899991621040606 0  0.3311428610156949 0.18999972749795 0  0.3236744539510702 0.1900002765571357 0  0.3162060190900545 0.1900007983430152 0  0.3087375622780663 0.1900012932811635 0  0.3012690810325253 0.1900017571785264 0  0.2938005805044159 0.1900021762275091 0  0.2863320585970583 0.1900025537199948 0  0.2788635103580517 0.1900028809704552 0  0.2713949721448902 0.190003173516084 0  0.2639264768808296 0.1900034063939265 0  0.2564583365426863 0.1900033944225034 0  0.2607801389169989 0.2000725974141968 0  0.5887673244628118 0.2001064654559958 0  0.5744961388983284 0.2001844806825596 0  0.5511808863703878 0.2000936648851122 0  0.2751295202411801 0.199999552819288 0  0.5365127845373607 0.199982280143145 0  0.2894633764180802 0.1998681949599857 0  0.5215776888818285 0.1999831590529416 0  0.3127809797081203 0.1998635446050912 0  0.3274092972323602 0.1999967558589849 0  0.5066424568422986 0.1999840534895157 0  0.3650656740689505 0.1998600481485703 0  0.4767715876806813 0.1999859133378966 0  0.3417427581698196 0.1998649497196442 0  0.3796875839196585 0.1999928652420814 0  0.4618359519498975 0.1999868896235731 0  0.4917070895163511 0.199984969613212 0  0.3946239470698671 0.1999917193214227 0  0.4469001828198764 0.1999879017813301 0  0.4089568513945011 0.1998598415546542 0  0.4322728939587731 0.200116345906461 0  0.4201502540631769 0.1999864275306332 0  0.3528948750240651 0.2000134779208234 0  0.5633025368611944 0.1999621569548547 0  0.3006575289572627 0.1999950392243997 0  0.5815804087474173 0.1966348010969359 0  0.2677056096803399 0.1964257185888663 0  0.529045083107872 0.1970749251074181 0  0.5439801120497824 0.1970740262479228 0  0.2825142500997127 0.2035459435132398 0  0.3199410302490742 0.2029047119397802 0  0.4842391721545212 0.1970777190954567 0  0.514109916029117 0.1970758359918107 0  0.3722195751998309 0.2029009777082527 0  0.4693035971977482 0.1970787030448082 0  0.3348779217591132 0.2029037135776342 0  0.3871560038740526 0.2028998529331854 0  0.4543678880281818 0.1970797213641124 0  0.4991746120521912 0.1970767652624301 0  0.4020083215482045 0.2035380439630603 0  0.4394320455058038 0.1970807765354544 0  0.2550652415110531 0.2034078149901004 0  0.2548903038426825 0.1966949512104483 0  0.5946401709650004 0.2
[...]
<PointData  Vectors="f_46-1"> 
<DataArray  type="Float64"  Name="f_46-1"  NumberOfComponents="3" format="ascii">0.0000000000000000e+00 0.0000000000000000e+00 0.0000000000000000e+00  0.0000000000000000e+00 0.0000000000000000e+00 0.0000000000000000e+00  0.0000000000000000e+00 0.0000000000000000e+00 0.0000000000000000e+00  0.0000000000000000e+00 0.0000000000000000e+00 0.0000000000000000e+00  4.0422331696238860e-08 -1.9582876559520940e-06 0.0000000000000000e+00  1.7901967067999487e-07 -2.0728598353430655e-06 0.0000000000000000e+00  0.0000000000000000e+00 0.0000000000000000e+00 0.0000000000000000e+00  0.0000000000000000e+00 0.0000000000000000e+00 0.0000000000000000e+00  0.0000000000000000e+00 0.0000000000000000e+00 0.0000000000000000e+00  0.0000000000000000e+00 0.0000000000000000e+00 0.0000000000000000e+00  9.6650167416685582e-08 -2.0155964036730431e-06 0.0000000000000000e+00  0.0000000000000000e+00 0.0000000000000000e+00 0.0000000000000000e+00  0.0000000000000000e+00 0.0000000000000000e+00 0.0000000000000000e+00  0.0000000000000000e+00 0.0000000000000000e+00 0.0000000000000000e+00  0.0000000000000000e+00 0.0000000000000000e+00 0.0000000000000000e+00  0.0000000000000000e+00 0.0000000000000000e+00 0.0000000000000000e+00  0.0000000000000000e+00 0.0000000000000000e+00 0.0000000000000000e+00  0.0000000000000000e+00 0.0000000000000000e+00 0.0000000000000000e+00  0.0000000000000000e+00 0.0000000000000000e+00 0.0000000000000000e+00  0.0000000000000000e+00 0.0000000000000000e+00 0.0000000000000000e+00  0.0000000000000000e+00 0.0000000000000000e+00 0.0000000000000000e+00  0.0000000000000000e+00 0.0000000000000000e+00 0.0000000000000000e+00  0.0000000000000000e+00 0.0000000000000000e+00 0.0000000000000000e+00  0.0000000000000000e+00 0.0000000000000000e+00 0.0000000000000000e+00  0.0000000000000000e+00 0.0000000000000000e+00 0.0000000000000000e+00  0.0000000000000000e+00 0.0000000000000000e+00 0.0000000000000000e+00  0.0000000000000000e+00 0.0000000000000000e+00 0.0000000000000000e+00  0.0000000000000000e+00 0.0000000000000000e+00 0.0000000000000000e+00  0.0000000000000000e+00 0.0000000000000000e+00 0.0000000000000000e+00  0.0000000000000000e+00 0.0000000000000000e+00 0.0000000000000000e+00  0.0000000000000000e+00 0.0000000000000000e+00 0.0000000000000000e+00  0.0000000000000000e+00 0.0000000000000000e+00 0.0000000000000000e+00  0.0000000000000000e+00 0.0000000000000000e+00 0.0000000000000000e+00  0.0000000000000000e+00 0.0000000000000000e+00 0.0000000000000000e+00  0.0000000000000000e+00 0.0000000000000000e+00 0.0000000000000000e+00  0.0000000000000000e+00 0.0000000000000000e+00 0.0000000000000000e+00  0.0000000000000000e+00 0.0000000000000000e+00 0.0000000000000000e+00  0.0000000000000000e+00 0.0000000000000000e+00 0.0000000000000000e+00  0.0000000000000000e+00 0.0000000000000000e+00 0.0000000000000000e+00  0.0000000000000000e+00 0.0000000000000000e+00 0.0000000000000000e+00  0.0000000000000000e+00 0.0000000000000000e+00 0.0000000000000000e+00  0.0000000000000000e+00 0.0000000000000000e+00 0.0000000000000000e+00  0.0000000000000000e+00 0.0000000000000000e+00 0.0000000000000000e+00  0.0000000000000000e+00 0.0000000000000000e+00 0.0000000000000000e+00  0.0000000000000000e+00 0.0000000000000000e+00 0.0000000000000000e+00  0.0000000000000000e+00 0.0000000000000000e+00 0.0000000000000000e+00  0.0000000000000000e+00 0.0000000000000000e+00 0.0000000000000000e+00  0.0000000000000000e+00 0.0000000000000000e+00 0.0000000000000000e+00  0.0000000000000000e+00 0.0000000000000000e+00 0.0000000000000000e+00  0.0000000000000000e+00 0.0000000000000000e+00 0.0000000000000000e+00  0.0000000000000000e+00 0.0000000000000000e+00 0.0000000000000000e+00  0.0000000000000000e+00 0.0000000000000000e+00 0.0000000000000000e+00  0.0000000000000000e+00 0.0000000000000000e+00 0.0000000000000000e+00  0.0000000000000000e+00 0.0000000000000000e+00 0.0000000000000000e+00  0.0000000000000000e+00 0.0000000000000000e+00 0.0000000000000000e+00  0.0000000000000000e+00 0.0000000000000000e+00 0.0000000000000000e+00  0.0000000000000000e+00 0.0000000000000000e+00 0.0000000000000000e+00  0.0000000000000000e+00 0.0000000000000000e+00 0.0000000000000000e+00  0.0000000000000000e+00 0.0000000000000000e+00 0.0000000000000000e+00  0.0000000000000000e+00 0.0000000000000000e+00 0.0000000000000000e+00  0.0000000000000000e+00 0.0000000000000000e+00 0.0000000000000000e+00  0.0000000000000000e+00 0.0000000000000000e+00 0.0000000000000000e+00  0.0000000000000000e+00 0.0000000000000000e+00 0.0000000000000000e+00  0.0000000000000000e+00 0.0000000000000000e+00 0.0000000000000000e+00  0.0000000000000000e+00 0.0000000000000000e+00 0.0000000000000000e+00  0.0000000000000000e+00 0.0000000000000000e+00 0.0000000000000000e+00  0.0000000000000000e+00 0.0000000000000000e+00 0.0000000000000000e+00  0.0000000000000000e+00 0.0000000000000000e+00 0.0000000000000000e+00  0.0000000000000000e+00 0.0000000000000000e+00 0.0000000000000000e+00  0.0000000000000000e+00 0.0000000000000000e+00 0.0000000000000000e+00  0.0000000000000000e+00 0.0000000000000000e+00 0.0000000000000000e+00  0.0000000000000000e+00 0.0000000000000000e+00 0.0000000000000000e+00  0.0000000000000000e+00 0.0000000000000000e+00 0.0000000000000000e+00  0.0000000000000000e+00 0.0000000000000000e+00 0.0000000000000000e+00  0.0000000000000000e+00 0.0000000000000000e+00 0.0000000000000000e+00  0.0000000000000000e+00 0.0000000000000000e+00 0.0000000000000000e+00  0.0000000000000000e+00 0.0000000000000000e+00 0.0000000000000000e+00  0.0000000000000000e+00 0.0000000000000000e+00 0.0000000000000000e+00  0.0000000000000000e+00 0.0000000000000000e+00 0.0000000000000000e+00  0.0000000000000000e+00 0.0000000000000000e+00 0.0000000000000000e+00  0.0000000000000000e+00 0.0000000000000000e+00 0.0000000000000000e+00  0.0000000000000000e+00 0.0000000000000000e+00 0.0000000000000000e+00  0.0000000000000000e+00 0.0000000000000000e+00 0.0000000000000000e+00  0.0000000000000000e+00 0.0000000000000000e+00 0.0000000000000000e+00  0.0000000000000000e+00 0.0000000000000000e+00 0.0000000000000000e+00  0.0000000000000000e+00 0.0000000000000000e+00 0.0000000000000000e+00  0.0000000000000000e+00 0.0000000000000000e+00 0.0000000000000000e+00  0.0000000000000000e+00 0.0000000000000000e+00 0.0000000000000000e+00  0.0000000000000000e+00 0.0000000000000000e+00 0.0000000000000000e+00  0.0000000000000000e+00 0.0000000000000000e+00 0.0000000000000000e+00  0.0000000000000000e+00 0.0000000000000000e+00 0.0000000000000000e+00  0.0000000000000000e+00 0.0000000000000000e+00 0.0000000000000000e+00  0.0000000000000000e+00 0.0000000000000000e+00 0.0000000000000000e+00  0.0000000000000000e+00 0.0000000000000000e+00 0.0000000000000000e+00  0.0000000000000000e+00 0.0000000000000000e+00 0.0000000000000000e+00  0.0000000000000000e+00 0.0000000000000000e+00 0.0000000000000000e+00  0.0000000000000000e+00 0.0000000000000000e+00 0.0000000000000000e+00  0.0000000000000000e+00 0.0000000000000000e+00 0.0000000000000000e+00  0.0000000000000000e+00 0.0000000000000000e+00 0.0000000000000000e+00  0.0000000000000000e+00 0.0000000000000000e+00 0.0000000000000000e+00  0.0000000000000000e+00 0.0000000000000000e+00 0.0000000000000000e+00  0.0000000000000000e+00 0.0000000000000000e+00 0.0000000000000000e+00  0.0000000000000000e+00 0.0000000000000000e+00 0.0000000000000000e+00  0.0000000000000000e+00 0.0000000000000000e+00 0.0000000000000000e+00  0.0000000000000000e+00 0.0000000000000000e+00 0.0000000000000000e+00  0.0000000000000000e+00 0.0000000000000000e+00 0.0000000000000000e+00  0.0000000000000000e+00 0.0000000000000000e+00 0.0000000000000000e+00  0.0000000000000000e+00 0.0000000000000000e+00 0.0000000000000000e+00  0.0000000000000000e+00 0.0000000000000000e+00 0.0000000000000000e+00  0.0000000000000000e+00 0.0000000000000000e+00 0.0000000000000000e+00  0.0000000000000000e+00 0.0000000000000000e+00 0.0000000000000000e+00  0.0000000000000000e+00 0.0000000000000000e+00 0.0000000000000000e+00  0.0000000000000000e+00 0.0000000000000000e+00 0.0000000000000000e+00  0.0000000000000000e+00 0.0000000000000000e+00 0.0000000000000000e+00  0.0000000000000000e+00 0.0000000000000000e+00 0.0000000000000000e+00  0.0000000000000000e+00 0.0000000000000000e+00 0.0000000000000000e+00  0.0000000000000000e+00 0.0000000000000000e+00 0.0000000000000000e+00  0.0000000000000000e+00 0.0000000000000000e+00 0.0000000000000000e+00  0.0000000000000000e+00 0.0000000000000000e+00 0.0000000000000000e+00  0.0000000000000000e+00 0.0000000000000000e+00 0.0000000000000000e+00  0.0000000000000000e+00 0.0000000000000000e+00 0.0000000000000000e+00  0.0000000000000000e+00 0.0000000000000000e+00 0.0000000000000000e+00  0.0000000000000000e+00 0.0000000000000000e+00 0.0000000000000000e+00  0.0000000000000000e+00 0.0000000000000000e+00 0.0000000000000000e+00  0.0000000000000000e+00 0.0000000000000000e+00 0.0000000000000000e+00  0.0000000000000000e+00 0.0000000000000000e+00 0.0000000000000000e+00  0.0000000000000000e+00 0.0000000000000000e+00 0.0000000000000000e+00  0.0000000000000000e+00 0.0000000000000000e+00 0.0000000000000000e+00  0.0000000000000000e+00 0.0000000000000000e+00 0.0000000000000000e+00  0.0000000000000000e+00 0.0000000000000000e+00 0.0000000000000000e+00  0.0000000000000000e+00 0.0000000000000000e+00 0.0000000000000000e+00  0.0000000000000000e+00 0.0000000000000000e+00 0.0000000000000000e+00  0.0000000000000000e+00 0.0000000000000000e+00 0.0000000000000000e+00  0.0000000000000000e+00 0.0000000000000000e+00 0.0000000000000000e+00  0.0000000000000000e+00 0.0000000000000000e+00 0.0000000000000000e+00  0.0000000000000000e+00 0.0000000000000000e+00 0.0000000000000000e+00  0.0000000000000000e+00 0.0000000000000000e+00 0.0000000000000000e+00  0.0000000000000000e+00 0.0000000000000000e+00 0.0000000000000000e+00  0.0000000000000000e+00 0.0000000000000000e+00 0.0000000000000000e+00  0.0000000000000000e+00 0.0000000000000000e+00 0.0000000000000000e+00  0.0000000000000000e+00 0.0000000000000000e+00 0.0000000000000000e+00  0.0000000000000000e+00 0.0000000000000000e+00 0.0000000000000000e+00  0.0000000000000000e+00 0.0000000000000000e+00 0.0000000000000000e+00  3.2351588169465166e-08 -1.1906225359316630e-07 0.0000000000000000e+00  5.2140336139422070e-08 -1.2931680016025147e-07 0.0000000000000000e+00  8.3175779385392469e-08 -1.3881722295604252e-07 0.0000000000000000e+00  1.1578992132004404e-07 -1.5214345617873324e-07 0.0000000000000000e+00  1.4721405504890847e-07 -1.6970500202007606e-07 0.0000000000000000e+00  1.7765963529060085e-07 -1.9067631873453863e-07 0.0000000000000000e+00  2.0627346686389068e-07 -2.1447183446759164e-07 0.0000000000000000e+00  2.3396200330171763e-07 -2.4163505104188105e-07 0.0000000000000000e+00  2.5989547918947439e-07 -2.7117093638818717e-07 0.0000000000000000e+00  2.8409116293250009e-07 -3.0343459743481982e-07 0.0000000000000000e+00  3.0723374135391482e-07 -3.3773151576717906e-07 0.0000000000000000e+00  3.2840370237806509e-07 -3.7433232651192952e-07 0.0000000000000000e+00  3.4845901927739903e-07 -4.1271839041606612e-07 0.0000000000000000e+00  3.6656189269483108e-07 -4.5269109134294019e-07 0.0000000000000000e+00  3.8366017900718787e-07 -4.9439843332567709e-07 0.0000000000000000e+00  3.9895683925823678e-07 -5.3729844624779642e-07 0.0000000000000000e+00  4.1269948937096066e-07 -5.8160465644672276e-07 0.0000000000000000e+00  4.2516263687025966e-07 -6.2672271437437256e-07 0.0000000000000000e+00  4.3594015786927684e-07 -6.7300989752655630e-07 0.0000000000000000e+00  4.4546777280759287e-07 -7.1986796151750877e-07 0.0000000000000000e+00  4.5336180974531200e-07 -7.6760389299274485e-07 0.0000000000000000e+00  4.5996093516127973e-07 -8.1579764194550064e-07 0.0000000000000000e+00  4.6482267194514038e-07 -8.6447343734965471e-07 0.0000000000000000e+00  4.6868974504244575e-07 -9.1358115739473871e-07 0.0000000000000000e+00  4.7091704791511435e-07 -9.6297264798788004e-07 0.0000000000000000e+00  4.7174283807113302e-07 -1.0127214878505053e-06 0.0000000000000000e+00  4.7120817398529354e-07 -1.0625178250128503e-06 0.0000000000000000e+00  4.6926503035028062e-07 -1.1126160487699918e-06 0.0000000000000000e+00  4.6596147481734743e-07 -1.1626654164406064e-06 0.0000000000000000e+00  4.6127669167253323e-07 -1.2129394016686672e-06 0.0000000000000000e+00  4.5523575904280684e-07 -1.2631005315323839e-06 0.0000000000000000e+00  4.4782991193404833e-07 -1.3134351014255451e-06 0.0000000000000000e+00  4.3907297347284430e-07 -1.3636181742077217e-06 0.0000000000000000e+00  4.2895970509474952e-07 -1.4139434642522907e-06 0.0000000000000000e+00  4.1749254190094169e-07 -1.4640991188896036e-06 0.0000000000000000e+00  4.0467310225217496e-07 -1.5143842270218720e-06 0.0000000000000000e+00  3.9049568189086750e-07 -1.5644881031101202e-06 0.0000000000000000e+00  3.7495836507515370e-07 -1.6147209659499935e-06 0.0000000000000000e+00  3.5804884067555238e-07 -1.6647686004915908e-06 0.0000000000000000e+00  3.3976605678064411e-07 -1.7149445602462403e-06 0.0000000000000000e+00  3.2010479065730447e-07 -1.7649925108679570e-06 0.0000000000000000e+00  2.9882053633278491e-07 -1.8150117505222812e-06 0.0000000000000000e+00  2.7648298700492844e-07 -1.8650245249201460e-06 0.0000000000000000e+00  2.5246445460972394e-07 -1.9148700766054866e-06 0.0000000000000000e+00  2.2713422054805740e-07 -1.9645911889926439e-06 0.0000000000000000e+00  2.0231753141127276e-07 -2.0135911841976999e-06 0.0000000000000000e+00  1.3328448934863063e-07 -2.0450616644924082e-06 0.0000000000000000e+00  6.4096783012808715e-08 -1.9861989058776764e-06 0.0000000000000000e+00  6.3681546662172475e-08 -1.9141699234992354e-06 0.0000000000000000e+00  8.8486250777951437e-08 -1.8597517736255210e-06 0.0000000000000000e+00  1.1389189197733772e-07 -1.8059789406639631e-06 0.0000000000000000e+00  1.3795221884477279e-07 -1.7523126920843175e-06 0.0000000000000000e+00  1.6030826599685962e-07 -1.6988721987255516e-06 0.0000000000000000e+00  1.8160115172127426e-07 -1.6454431879787419e-06 0.0000000000000000e+00  2.0119975241178994e-07 -1.5920192142145784e-06 0.0000000000000000e+00  2.1948382015230401e-07 -1.5387828144751187e-06 0.0000000000000000e+00  2.3636421312733382e-07 -1.4853022225512435e-06 0.0000000000000000e+00  2.5187420368441167e-07 -1.4320869553753186e-06 0.0000000000000000e+00  2.6601562386952522e-07 -1.3785987352241476e-06 0.0000000000000000e+00  2.7880565549751079e-07 -1.3253680220234127e-06 0.0000000000000000e+00  2.9024889819952154e-07 -1.2718639920162254e-06 0.0000000000000000e+00  3.0035837045264391e-07 -1.2186174792865926e-06 0.0000000000000000e+00  3.0914374112934007e-07 -1.1651094605335286e-06 0.0000000000000000e+00  3.1660937998227933e-07 -1.1118738186169873e-06 0.0000000000000000e+00  3.2277815753706243e-07 -1.0584048858525045e-06 0.0000000000000000e+00  3.2763830102701651e-07 -1.0052433404973572e-06 0.0000000000000000e+00  3.3123551869530837e-07 -9.5190018610435296e-07 0.0000000000000000e+00  3.3353227108916930e-07 -8.9892462919461849e-07 0.0000000000000000e+00  3.3460852100972742e-07 -8.4584979972232548e-07 0.0000000000000000e+00  3.3438287280348110e-07 -7.9321151513223649e-07 0.0000000000000000e+00  3.3302768098830710e-07 -7.4067813797620532e-07 0.0000000000000000e+00  3.3023121995780277e-07 -6.8846693072050883e-07 0.0000000000000000e+00  3.2654718932127546e-07 -6.3673967860505334e-07 0.0000000000000000e+00  3.2148574745782224e-07 -5.8544542034252313e-07 0.0000000000000000e+00  3.1522755380016441e-07 -5.3482801632593895e-07 0.0000000000000000e+00  3.0789526135623364e-07 -4.8475641771526234e-07 0.0000000000000000e+00  2.9931919351714458e-07 -4.3562797873863074e-07 0.0000000000000000e+00  2.8973930057290450e-07 -3.8729527407590971e-07 0.0000000000000000e+00  2.7892114308565825e-07 -3.4015181171905743e-07 0.0000000000000000e+00  2.6711176554406616e-07 -2.9416026080332062e-07 0.0000000000000000e+00  2.5410854033059128e-07 -2.4941469404287431e-07 0.0000000000000000e+00  2.4028507811385687e-07 -2.0647411668109308e-07 0.0000000000000000e+00  2.2530434848762031e-07 -1.6510409043741790e-07 0.0000000000000000e+00  2.0918351891011321e-07 -1.2574846955280282e-07 0.0000000000000000e+00  1.9234865244284728e-07 -8.8380110834811853e-08 0.0000000000000000e+00  1.7427481348679280e-07 -5.3441889182270840e-08 0.0000000000000000e+00  1.5548532954241027e-07 -2.1011746660700672e-08 0.0000000000000000e+00  1.3572200606563232e-07 8.8631797756481360e-09 0.0000000000000000e+00  1.1524656082132485e-07 3.5251764258729669e-08 0.0000000000000000e+00  9.3966793359832421e-08 5.8578443681702236e-08 0.0000000000000000e+00  7.1598748277911752e-08 7.8316467860975041e-08 0.0000000000000000e+00  4.9802582804560722e-08 9.4935692515411811e-08 0.0000000000000000e+00  2.9201396042981150e-08 1.0758804488987138e-07 0.0000000000000000e+00  2.0816003073398254e-08 1.1002293461976420e-07 0.0000000000000000e+00  1.8894878441183472e-08 -5.8300059873698572e-09 0.0000000000000000e+00  1.4174130942014174e-07 -1.9385180866859200e-06 0.0000000000000000e+00  1.9252127848789689e-07 -1.8401454665308611e-06 0.0000000000000000e+00  2.6029972272005097e-07 -1.6781723441203085e-06 0.0000000000000000e+00  7.8828255386440897e-08 -2.6512176785872086e-08 0.0000000000000000e+00  2.9544347587973658e-07 -1.5758978559419802e-06 0.0000000000000000e+00  1.2976081761645159e-07 -6.0923925075190059e-08 0.0000000000000000e+00  3.2651628834335997e-07 -1.4723973894839612e-06 0.0000000000000000e+00  2.0476735626590690e-07 -1.4469353525429374e-07 0.0000000000000000e+00  2.4665035421019442e-07 -2.1216166815512517e-07 0.0000000000000000e+00  3.5214226095977321e-07 -1.3688231285857586e-06 0.0000000000000000e+00  3.3026122606491771e-07 -4.1608431028108907e-07 0.0000000000000000e+00  3.8725833370738694e-07 -1.1615439272250736e-06 0.0000000000000000e+00  2.8182707960305175e-07 -2.8375911142909148e-07 0.0000000000000000e+00  3.5506606688560380e-07 -5.0704954108131231e-07 0.0000000000000000e+00  3.9681487771853681e-07 -1.0580267580740980e-06 0.0000000000000000e+00  3.7237696678508907e-07 -1.2651858481411185e-06 0.0000000000000000e+00  3.7443824750849268e-07 -6.0254681935285757e-07 0.0000000000000000e+00  4.0106701261218882e-07 -9.5486045309499259e-07 0.0000000000000000e+00  3.8723349054558505e-07 -6.9579092815673730e-07 0.0000000000000000e+00  4.0095020624064455e-07 -8.5559229407532559e-07 0.0000000000000000e+00  3.9521773906105902e-07 -7.7206372077700936e-07 0.0000000000000000e+00  3.0717676292495535e-07 -3.4665147595811258e-07 0.0000000000000000e+00  2.2537923194804384e-07 -1.7613583488852950e-06 0.0000000000000000e+00  1.6737145088876455e-07 -9.8889548869172253e-08 0.0000000000000000e+00  1.4441397161971557e-07 -1.8704034536448431e-06 0.0000000000000000e+00  4.5535640571830264e-08 2.9384598375697668e-08 0.0000000000000000e+00  2.9158108556543397e-07 -1.5051198449944522e-06 0.0000000000000000e+00  2.5776665065654951e-07 -1.6095369762914521e-06 0.0000000000000000e+00  1.1447848776547473e-07 -8.4296127929400721e-08 0.0000000000000000e+00  2.3902061621363467e-07 -2.0887630407725172e-07 0.0000000000000000e+00  3.6039666362746061e-07 -1.1915800424685886e-06 0.0000000000000000e+00  3.1991246136417948e-07 -1.4006593738436309e-06 0.0000000000000000e+00  3.6111919854572919e-07 -4.8924207013115421e-07 0.0000000000000000e+00  3.7265121702555738e-07 -1.0870790518828221e-06 0.0000000000000000e+00  2.8058623215064475e-07 -2.7994377783431612e-07 0.0000000000000000e+00  3.8390728498666119e-07 -5.8198738268575233e-07 0.0000000000000000e+00  3.7963874565929749e-07 -9.8280663367254603e-07 0.0000000000000000e+00  3.4283257070475826e-07 -1.2961364342071768e-06 0.0000000000000000e+00  4.0547045329345498e-07 -6.8351397274659418e-07 0.0000000000000000e+00  3.8140103017770210e-07 -8.7903679772447675e-07 0.0000000000000000e+00  -4.1530163500438458e-09 -3.3353914986357202e-08 0.0000000000000000e+00  -7.0496975058820216e-09 3.0275453628109500e-08 0.0000000000000000e+00  1.3448208906753624e-07 -1.9904605972786149e-06 0.0000000000000000e+00  5.6227404535527714e-08 -6.2002061575769810e-08 0.0000000000000000e+00  3.74064973081