<?xml version="1.0"?>
<VTKFile type="UnstructuredGrid"  version="0.1"  >
<UnstructuredGrid>
<Piece  NumberOfPoints="1419" NumberOfCells="2698">
<Points>
<DataArray  type="Float64"  NumberOfComponents="3"  format="ascii">0 0 0  0 0.41 0  2.5 0 0  2.5 0.41 0  0.5999914555067123 0.1900000577000041 0  0.5999914718776466 0.2099990374809545 0  0.25 0.2 0  0.15 0.2 0  0.2489897948556636 0.21 0  0.2489897948556636 0.19 0  0.5999914287777256 0.1999995475745845 0  0 0.3807142857143437 0  0 0.3514285714286952 0  0 0.3221428571430699 0  0 0.29285714285744 0  0 0.2635714285718054 0  0 0.2342857142861561 0  0 0.2050000000005308 0  0 0.175714285714732 0  0 0.1464285714289574 0  0 0.1171428571431897 0  0 0.08785714285737878 0  0 0.05857142857161107 0  0 0.02928571428580012 0  0.03015443760436003 0 0  0.06140001986583606 0 0  0.09377624077125973 0 0  0.1273239957535082 0 0  0.1620856860351972 0 0  0.1981052433264291 0 0  0.235428184091502 0 0  0.2741016576309132 0 0  0.3141745521465447 0 0  0.3556974926295285 0 0  0.3987229542472677 0 0  0.4433053055141081 0 0  0.4895008759286886 0 0  0.5373680609405097 0 0  0.5869673343216626 0 0  0.6383613676634521 0 0  0.6916151138468254 0 0  0.7467958595648856 0 0  0.8039733463919316 0 0  0.8632198139502143 0 0  0.9246101326867038 0 0  0.9882218810934433 0 0  1.054135445558498 0 0  1.122434100542598 0 0  1.193204177141305 0 0  1.266535089879536 0 0  1.342519516046404 0 0  1.421253448503939 0 0  1.502836389106271 0 0  1.587371439758838 0 0  1.674965418777374 0 0  1.765729001825544 0 0  1.859776908880082 0 0  1.957227977487062 0 0  2.058205329869943 0 0  2.162836591189951 0 0  2.271253957290865 0 0  2.383594446803425 0 0  2.5 0.1024999999997612 0  2.5 0.2049999999994743 0  2.5 0.3074999999997183 0  2.383594446803656 0.41 0  2.271253957291315 0.41 0  2.162836591190598 0.41 0  2.058205329870775 0.41 0  1.957227977488067 0.41 0  1.859776908881246 0.41 0  1.765729001826854 0.41 0  1.674965418778818 0.41 0  1.58737143976041 0.41 0  1.502836389107956 0.41 0  1.421253448505726 0.41 0  1.342519516048286 0.41 0  1.266535089881505 0.41 0  1.193204177143353 0.41 0  1.122434100544716 0.41 0  1.05413544556068 0.41 0  0.9882218810956305 0.41 0  0.9246101326886647 0.41 0  0.8632198139519631 0.41 0  0.8039733463934788 0.41 0  0.7467958595662458 0.41 0  0.6916151138480078 0.41 0  0.6383613676644679 0.41 0  0.5869673343225223 0.41 0  0.5373680609412221 0.41 0  0.4895008759292634 0.41 0  0.4433053055145528 0.41 0  0.3987229542475914 0.41 0  0.3556974926297398 0.41 0  0.3141745521466497 0.41 0  0.2741016576310038 0.41 0  0.2354281840915826 0.41 0  0.1981052433265003 0.41 0  0.1620856860352591 0.41 0  0.1273239957535623 0.41 0  0.09377624077128965 0.41 0  0.06140001986584975 0.41 0  0.03015443760436654 0.41 0  0.2497468076502589 0.2050254481002335 0  0.2497468076502614 0.1949745518997913 0  0.2469965252529372 0.1829317073451959 0  0.2439893735792749 0.1762316384219906 0  0.2400332147834255 0.1700443375285386 0  0.2352133972704371 0.1645032867342007 0  0.2296339016332438 0.1597280261969788 0  0.2234150974217223 0.1558215752574715 0  0.2166911463437691 0.1528682099456123 0  0.2096071079204251 0.1509316448471593 0  0.2023158100364996 0.1500536585536553 0  0.194974551899914 0.1502531923497262 0  0.1877417105387872 0.1515259415822739 0  0.1807733240461124 0.153844448527136 0  0.1742197252835808 0.15715869474974 0  0.1682222986673531 0.1613971801805478 0  0.162910430003803 0.1664684656256651 0  0.1583987151779087 0.1722631454351573 0  0.1547844879126891 0.178656207771761 0  0.1521457199348551 0.1855097315605723 0  0.1505393388476355 0.1926758619366523 0  0.1505393388476328 0.2073241380633295 0  0.1521457199348437 0.2144902684393899 0  0.1547844879126531 0.221343792228163 0  0.1583987151778488 0.2277368545647528 0  0.1629104300036858 0.2335315343742052 0  0.1682222986671726 0.2386028198193036 0  0.1742197252833576 0.2428413052501257 0  0.1807733240458683 0.2461555514727623 0  0.1877417105384929 0.2484740584176516 0  0.1949745518995776 0.2497468076502398 0  0.202315810036185 0.2499463414463592 0  0.2096071079201568 0.2490683551528932 0  0.2166911463435495 0.2471317900544655 0  0.2234150974215506 0.2441784247426195 0  0.2296339016331197 0.2402719738031125 0  0.2352133972703547 0.2354967132658811 0  0.2400332147833751 0.2299556624715287 0  0.2439893735792577 0.2237683615780412 0  0.246996525252926 0.2170682926548348 0  0.2564580553665077 0.2099991355112917 0  0.2639262025944677 0.2099991003336183 0  0.2713944343973962 0.209999101580862 0  0.2788626770789955 0.2099990998589409 0  0.2863309184044035 0.2099990913244511 0  0.2937991536463419 0.2099990811767186 0  0.3012673823750301 0.2099990701674146 0  0.3087356059903196 0.2099990585411074 0  0.3162038229644579 0.2099990469705008 0  0.3236720340081876 0.2099990345362651 0  0.331140238874336 0.2099990236992263 0  0.3386084375735126 0.2099990120820248 0  0.346076630243502 0.2099990020713015 0  0.3535448160886669 0.2099989925515267 0  0.3610129964322565 0.2099989843155336 0  0.3684811700350014 0.2099989771700013 0  0.3759493377308767 0.2099989702856702 0  0.3834174989726676 0.2099989658703715 0  0.3908856542368487 0.2099989612230081 0  0.3983538031556193 0.2099989590712435 0  0.4058219460113234 0.2099989568400156 0  0.4132900826459263 0.2099989564651597 0  0.4207582127066847 0.2099989567282296 0  0.4282263371627007 0.2099989582862422 0  0.4356944551369019 0.2099989605856953 0  0.4431625669610413 0.2099989631675797 0  0.4506306725322746 0.2099989671916699 0  0.4580987719851027 0.2099989709490799 0  0.4655668651292055 0.2099989760421213 0  0.4730349521222693 0.2099989806121056 0  0.4805030328259181 0.2099989863765988 0  0.4879711072733636 0.2099989914204059 0  0.4954391754804155 0.2099989974601661 0  0.5029072373510688 0.2099990026959951 0  0.5103752928634275 0.2099990087361462 0  0.5178433420394557 0.2099990137992366 0  0.5253113848387231 0.2099990196213325 0  0.5327794212001979 0.2099990243548229 0  0.5402474510956012 0.2099990298261323 0  0.547715474467496 0.2099990341734633 0  0.5551834913060212 0.2099990389089465 0  0.5626515011182368 0.2099990434633261 0  0.5701195048735882 0.209999047680189 0  0.5775875014242241 0.2099990522747122 0  0.585055491589025 0.2099990568119945 0  0.5925234810638655 0.2099990635917585 0  0.5999914371630848 0.2049992893489609 0  0.5999914294696419 0.1949998055813059 0  0.5925234649055914 0.1900000435004038 0  0.5850554757753756 0.1900000619502917 0  0.5775874862524671 0.1900000780558647 0  0.5701194903169697 0.190000093994574 0  0.5626514872394992 0.19000010890612 0  0.5551834781338714 0.1900001235502818 0  0.5477154618934736 0.1900001380133426 0  0.5402474391997284 0.1900001511089016 0  0.5327794099798446 0.1900001653563521 0  0.5253113741804171 0.1900001777651505 0  0.517843331885231 0.190000191497495 0  0.5103752830345815 0.1900002034514866 0  0.5029072277006555 0.1900002168194746 0  0.4954391658580798 0.1900002285482764 0  0.4879710975080622 0.1900002418232337 0  0.4805030226961162 0.1900002536201418 0  0.4730349413427351 0.1900002671334149 0  0.4655668535598812 0.1900002793435939 0  0.4580987592217244 0.1900002934337796 0  0.4506306585203282 0.1900003064280895 0  0.4431625512478193 0.1900003214726446 0  0.4356944376464118 0.1900003357246918 0  0.428226317682661 0.1900003517300158 0  0.4207581908160283 0.1900003682472083 0  0.4132900583198931 0.1900003856952537 0  0.4058219189767832 0.1900004041295558 0  0.3983537734870182 0.1900004230792373 0  0.3908856215756705 0.1900004439326053 0  0.3834174635743083 0.1900004650456593 0  0.3759492992196879 0.1900004880839363 0  0.3684811289102256 0.1900005113849404 0  0.3610129524321461 0.1900005362548196 0  0.3535447697020155 0.1900005619842826 0  0.3460765816669456 0.1900005885411488 0  0.3386083873915763 0.1900006158815596 0  0.3311401875216548 0.1900006432217591 0  0.3236719820137746 0.1900006716739856 0  0.3162037711045971 0.1900006993717736 0  0.3087355548821126 0.1900007273327468 0  0.3012673334160351 0.1900007545812448 0  0.2937991073911188 0.1900007805632828 0  0.2863308764943243 0.1900008050688463 0  0.2788626402009132 0.1900008277434459 0  0.2713944048357658 0.1900008532389292 0  0.2639261812879294 0.1900008761115708 0  0.2564580415124575 0.1900008523428017 0  0.2607800614757788 0.2000727007424417 0  0.588772298645886 0.2001267890746951 0  0.5744997639760585 0.2002040005967287 0  0.5511825909911372 0.2001118389458253 0  0.2751285345372313 0.1999999726542754 0  0.5365134272924247 0.1999995928503161 0  0.2894616820230383 0.1998691218873918 0  0.5215773551926365 0.1999996008048622 0  0.31277829985941 0.1998656822187765 0  0.3274061078651043 0.1999998431216057 0  0.506641257214158 0.1999996079774532 0  0.3650616483892952 0.1998657790765607 0  0.4767689842491207 0.1999996217669208 0  0.341739179776539 0.1998689847380284 0  0.3796833969653579 0.1999997215214899 0  0.4618328094923211 0.1999996296341275 0  0.4917051335243143 0.1999996147727932 0  0.3946197101643446 0.1999996959863468 0  0.4468966093429922 0.1999996391119625 0  0.4089526765064228 0.199868853842968 0  0.432268994119986 0.2001270931327256 0  0.4201461822511877 0.1999962827931103 0  0.3528910443279119 0.200018347247963 0  0.5633052186009415 0.1999810065025867 0  0.300655331093431 0.1999965346664643 0  0.5815848769049531 0.1966542598299823 0  0.267705108355849 0.1964249559295755 0  0.5290453929804484 0.1970913467865435 0  0.5439814518788249 0.197091332918485 0  0.2825127552790518 0.2035475517227313 0  0.3199379073765247 0.2029080412957712 0  0.484237060692539 0.1970913839583131 0  0.514109308044194 0.1970913596465868 0  0.372215236945773 0.2029079313886649 0  0.4693008984847158 0.1970913965534814 0  0.3348743174525195 0.2029080063768848 0  0.3871515617127169 0.2029079087668098 0  0.4543647106990297 0.197091410371135 0  0.4991731972421328 0.1970913718679204 0  0.4020038352850019 0.203547326529993 0  0.4394284974173628 0.1970914262121425 0  0.2550655157956234 0.2034085706726969 0  0.2548906206265066 0.1966942595170043 0  0.5946456160458322 0.2
[...]
<PointData  Vectors="f_46-1"> 
<DataArray  type="Float64"  Name="f_46-1"  NumberOfComponents="3" format="ascii">0.0000000000000000e+00 0.0000000000000000e+00 0.0000000000000000e+00  0.0000000000000000e+00 0.0000000000000000e+00 0.0000000000000000e+00  0.0000000000000000e+00 0.0000000000000000e+00 0.0000000000000000e+00  0.0000000000000000e+00 0.0000000000000000e+00 0.0000000000000000e+00  -6.8667740899341742e-07 -5.8876240861249768e-08 0.0000000000000000e+00  -6.8427627241253952e-07 -1.7099405773259188e-07 0.0000000000000000e+00  0.0000000000000000e+00 0.0000000000000000e+00 0.0000000000000000e+00  0.0000000000000000e+00 0.0000000000000000e+00 0.0000000000000000e+00  0.0000000000000000e+00 0.0000000000000000e+00 0.0000000000000000e+00  0.0000000000000000e+00 0.0000000000000000e+00 0.0000000000000000e+00  -6.9142815209827913e-07 -1.1494127257303856e-07 0.0000000000000000e+00  0.0000000000000000e+00 0.0000000000000000e+00 0.0000000000000000e+00  0.0000000000000000e+00 0.0000000000000000e+00 0.0000000000000000e+00  0.0000000000000000e+00 0.0000000000000000e+00 0.0000000000000000e+00  0.0000000000000000e+00 0.0000000000000000e+00 0.0000000000000000e+00  0.0000000000000000e+00 0.0000000000000000e+00 0.0000000000000000e+00  0.0000000000000000e+00 0.0000000000000000e+00 0.0000000000000000e+00  0.0000000000000000e+00 0.0000000000000000e+00 0.0000000000000000e+00  0.0000000000000000e+00 0.0000000000000000e+00 0.0000000000000000e+00  0.0000000000000000e+00 0.0000000000000000e+00 0.0000000000000000e+00  0.0000000000000000e+00 0.0000000000000000e+00 0.0000000000000000e+00  0.0000000000000000e+00 0.0000000000000000e+00 0.0000000000000000e+00  0.0000000000000000e+00 0.0000000000000000e+00 0.0000000000000000e+00  0.0000000000000000e+00 0.0000000000000000e+00 0.0000000000000000e+00  0.0000000000000000e+00 0.0000000000000000e+00 0.0000000000000000e+00  0.0000000000000000e+00 0.0000000000000000e+00 0.0000000000000000e+00  0.0000000000000000e+00 0.0000000000000000e+00 0.0000000000000000e+00  0.0000000000000000e+00 0.0000000000000000e+00 0.0000000000000000e+00  0.0000000000000000e+00 0.0000000000000000e+00 0.0000000000000000e+00  0.0000000000000000e+00 0.0000000000000000e+00 0.0000000000000000e+00  0.0000000000000000e+00 0.0000000000000000e+00 0.0000000000000000e+00  0.0000000000000000e+00 0.0000000000000000e+00 0.0000000000000000e+00  0.0000000000000000e+00 0.0000000000000000e+00 0.0000000000000000e+00  0.0000000000000000e+00 0.0000000000000000e+00 0.0000000000000000e+00  0.0000000000000000e+00 0.0000000000000000e+00 0.0000000000000000e+00  0.0000000000000000e+00 0.0000000000000000e+00 0.0000000000000000e+00  0.0000000000000000e+00 0.0000000000000000e+00 0.0000000000000000e+00  0.0000000000000000e+00 0.0000000000000000e+00 0.0000000000000000e+00  0.0000000000000000e+00 0.0000000000000000e+00 0.0000000000000000e+00  0.0000000000000000e+00 0.0000000000000000e+00 0.0000000000000000e+00  0.0000000000000000e+00 0.0000000000000000e+00 0.0000000000000000e+00  0.0000000000000000e+00 0.0000000000000000e+00 0.0000000000000000e+00  0.0000000000000000e+00 0.0000000000000000e+00 0.0000000000000000e+00  0.0000000000000000e+00 0.0000000000000000e+00 0.0000000000000000e+00  0.0000000000000000e+00 0.0000000000000000e+00 0.0000000000000000e+00  0.0000000000000000e+00 0.0000000000000000e+00 0.0000000000000000e+00  0.0000000000000000e+00 0.0000000000000000e+00 0.0000000000000000e+00  0.0000000000000000e+00 0.0000000000000000e+00 0.0000000000000000e+00  0.0000000000000000e+00 0.0000000000000000e+00 0.0000000000000000e+00  0.0000000000000000e+00 0.0000000000000000e+00 0.0000000000000000e+00  0.0000000000000000e+00 0.0000000000000000e+00 0.0000000000000000e+00  0.0000000000000000e+00 0.0000000000000000e+00 0.0000000000000000e+00  0.0000000000000000e+00 0.0000000000000000e+00 0.0000000000000000e+00  0.0000000000000000e+00 0.0000000000000000e+00 0.0000000000000000e+00  0.0000000000000000e+00 0.0000000000000000e+00 0.0000000000000000e+00  0.0000000000000000e+00 0.0000000000000000e+00 0.0000000000000000e+00  0.0000000000000000e+00 0.0000000000000000e+00 0.0000000000000000e+00  0.0000000000000000e+00 0.0000000000000000e+00 0.0000000000000000e+00  0.0000000000000000e+00 0.0000000000000000e+00 0.0000000000000000e+00  0.0000000000000000e+00 0.0000000000000000e+00 0.0000000000000000e+00  0.0000000000000000e+00 0.0000000000000000e+00 0.0000000000000000e+00  0.0000000000000000e+00 0.0000000000000000e+00 0.0000000000000000e+00  0.0000000000000000e+00 0.0000000000000000e+00 0.0000000000000000e+00  0.0000000000000000e+00 0.0000000000000000e+00 0.0000000000000000e+00  0.0000000000000000e+00 0.0000000000000000e+00 0.0000000000000000e+00  0.0000000000000000e+00 0.0000000000000000e+00 0.0000000000000000e+00  0.0000000000000000e+00 0.0000000000000000e+00 0.0000000000000000e+00  0.0000000000000000e+00 0.0000000000000000e+00 0.0000000000000000e+00  0.0000000000000000e+00 0.0000000000000000e+00 0.0000000000000000e+00  0.0000000000000000e+00 0.0000000000000000e+00 0.0000000000000000e+00  0.0000000000000000e+00 0.0000000000000000e+00 0.0000000000000000e+00  0.0000000000000000e+00 0.0000000000000000e+00 0.0000000000000000e+00  0.0000000000000000e+00 0.0000000000000000e+00 0.0000000000000000e+00  0.0000000000000000e+00 0.0000000000000000e+00 0.0000000000000000e+00  0.0000000000000000e+00 0.0000000000000000e+00 0.0000000000000000e+00  0.0000000000000000e+00 0.0000000000000000e+00 0.0000000000000000e+00  0.0000000000000000e+00 0.0000000000000000e+00 0.0000000000000000e+00  0.0000000000000000e+00 0.0000000000000000e+00 0.0000000000000000e+00  0.0000000000000000e+00 0.0000000000000000e+00 0.0000000000000000e+00  0.0000000000000000e+00 0.0000000000000000e+00 0.0000000000000000e+00  0.0000000000000000e+00 0.0000000000000000e+00 0.0000000000000000e+00  0.0000000000000000e+00 0.0000000000000000e+00 0.0000000000000000e+00  0.0000000000000000e+00 0.0000000000000000e+00 0.0000000000000000e+00  0.0000000000000000e+00 0.0000000000000000e+00 0.0000000000000000e+00  0.0000000000000000e+00 0.0000000000000000e+00 0.0000000000000000e+00  0.0000000000000000e+00 0.0000000000000000e+00 0.0000000000000000e+00  0.0000000000000000e+00 0.0000000000000000e+00 0.0000000000000000e+00  0.0000000000000000e+00 0.0000000000000000e+00 0.0000000000000000e+00  0.0000000000000000e+00 0.0000000000000000e+00 0.0000000000000000e+00  0.0000000000000000e+00 0.0000000000000000e+00 0.0000000000000000e+00  0.0000000000000000e+00 0.0000000000000000e+00 0.0000000000000000e+00  0.0000000000000000e+00 0.0000000000000000e+00 0.0000000000000000e+00  0.0000000000000000e+00 0.0000000000000000e+00 0.0000000000000000e+00  0.0000000000000000e+00 0.0000000000000000e+00 0.0000000000000000e+00  0.0000000000000000e+00 0.0000000000000000e+00 0.0000000000000000e+00  0.0000000000000000e+00 0.0000000000000000e+00 0.0000000000000000e+00  0.0000000000000000e+00 0.0000000000000000e+00 0.0000000000000000e+00  0.0000000000000000e+00 0.0000000000000000e+00 0.0000000000000000e+00  0.0000000000000000e+00 0.0000000000000000e+00 0.0000000000000000e+00  0.0000000000000000e+00 0.0000000000000000e+00 0.0000000000000000e+00  0.0000000000000000e+00 0.0000000000000000e+00 0.0000000000000000e+00  0.0000000000000000e+00 0.0000000000000000e+00 0.0000000000000000e+00  0.0000000000000000e+00 0.0000000000000000e+00 0.0000000000000000e+00  0.0000000000000000e+00 0.0000000000000000e+00 0.0000000000000000e+00  0.0000000000000000e+00 0.0000000000000000e+00 0.0000000000000000e+00  0.0000000000000000e+00 0.0000000000000000e+00 0.0000000000000000e+00  0.0000000000000000e+00 0.0000000000000000e+00 0.0000000000000000e+00  0.0000000000000000e+00 0.0000000000000000e+00 0.0000000000000000e+00  0.0000000000000000e+00 0.0000000000000000e+00 0.0000000000000000e+00  0.0000000000000000e+00 0.0000000000000000e+00 0.0000000000000000e+00  0.0000000000000000e+00 0.0000000000000000e+00 0.0000000000000000e+00  0.0000000000000000e+00 0.0000000000000000e+00 0.0000000000000000e+00  0.0000000000000000e+00 0.0000000000000000e+00 0.0000000000000000e+00  0.0000000000000000e+00 0.0000000000000000e+00 0.0000000000000000e+00  0.0000000000000000e+00 0.0000000000000000e+00 0.0000000000000000e+00  0.0000000000000000e+00 0.0000000000000000e+00 0.0000000000000000e+00  0.0000000000000000e+00 0.0000000000000000e+00 0.0000000000000000e+00  0.0000000000000000e+00 0.0000000000000000e+00 0.0000000000000000e+00  0.0000000000000000e+00 0.0000000000000000e+00 0.0000000000000000e+00  0.0000000000000000e+00 0.0000000000000000e+00 0.0000000000000000e+00  0.0000000000000000e+00 0.0000000000000000e+00 0.0000000000000000e+00  0.0000000000000000e+00 0.0000000000000000e+00 0.0000000000000000e+00  0.0000000000000000e+00 0.0000000000000000e+00 0.0000000000000000e+00  0.0000000000000000e+00 0.0000000000000000e+00 0.0000000000000000e+00  0.0000000000000000e+00 0.0000000000000000e+00 0.0000000000000000e+00  0.0000000000000000e+00 0.0000000000000000e+00 0.0000000000000000e+00  0.0000000000000000e+00 0.0000000000000000e+00 0.0000000000000000e+00  0.0000000000000000e+00 0.0000000000000000e+00 0.0000000000000000e+00  0.0000000000000000e+00 0.0000000000000000e+00 0.0000000000000000e+00  0.0000000000000000e+00 0.0000000000000000e+00 0.0000000000000000e+00  0.0000000000000000e+00 0.0000000000000000e+00 0.0000000000000000e+00  0.0000000000000000e+00 0.0000000000000000e+00 0.0000000000000000e+00  0.0000000000000000e+00 0.0000000000000000e+00 0.0000000000000000e+00  0.0000000000000000e+00 0.0000000000000000e+00 0.0000000000000000e+00  0.0000000000000000e+00 0.0000000000000000e+00 0.0000000000000000e+00  0.0000000000000000e+00 0.0000000000000000e+00 0.0000000000000000e+00  0.0000000000000000e+00 0.0000000000000000e+00 0.0000000000000000e+00  0.0000000000000000e+00 0.0000000000000000e+00 0.0000000000000000e+00  0.0000000000000000e+00 0.0000000000000000e+00 0.0000000000000000e+00  0.0000000000000000e+00 0.0000000000000000e+00 0.0000000000000000e+00  0.0000000000000000e+00 0.0000000000000000e+00 0.0000000000000000e+00  0.0000000000000000e+00 0.0000000000000000e+00 0.0000000000000000e+00  0.0000000000000000e+00 0.0000000000000000e+00 0.0000000000000000e+00  3.5225130313596543e-09 -9.9123272986466350e-08 0.0000000000000000e+00  -5.4120885122487540e-09 -1.0374568270903532e-07 0.0000000000000000e+00  -4.7141500483011066e-09 -1.0462522562699504e-07 0.0000000000000000e+00  -2.8485699269441034e-09 -1.0616113780967546e-07 0.0000000000000000e+00  -1.3149142711923928e-09 -1.0876635727148323e-07 0.0000000000000000e+00  -5.7131012545116819e-10 -1.1180055438685173e-07 0.0000000000000000e+00  -7.7312673578561885e-10 -1.1512392694823907e-07 0.0000000000000000e+00  -1.6181137809805068e-09 -1.1871877321498403e-07 0.0000000000000000e+00  -3.4184217449149961e-09 -1.2242777320273317e-07 0.0000000000000000e+00  -6.0353616799054820e-09 -1.2635117811585677e-07 0.0000000000000000e+00  -9.4871203272149117e-09 -1.3015233716102540e-07 0.0000000000000000e+00  -1.3798827593888076e-08 -1.3409617216249869e-07 0.0000000000000000e+00  -1.8912996012780957e-08 -1.3786426317925493e-07 0.0000000000000000e+00  -2.5002794957552102e-08 -1.4156625012115501e-07 0.0000000000000000e+00  -3.1780084750546641e-08 -1.4508187294773846e-07 0.0000000000000000e+00  -3.9514612402384089e-08 -1.4841828135748794e-07 0.0000000000000000e+00  -4.8026677739597932e-08 -1.5165852697882076e-07 0.0000000000000000e+00  -5.7422470256021420e-08 -1.5451314540861793e-07 0.0000000000000000e+00  -6.7606090505045048e-08 -1.5730353933069261e-07 0.0000000000000000e+00  -7.8650299074723479e-08 -1.5967978890482331e-07 0.0000000000000000e+00  -9.0493424468661733e-08 -1.6195468620037347e-07 0.0000000000000000e+00  -1.0316470029099601e-07 -1.6387819951135158e-07 0.0000000000000000e+00  -1.1674033987020311e-07 -1.6560791787081739e-07 0.0000000000000000e+00  -1.3100359767961203e-07 -1.6703220959045412e-07 0.0000000000000000e+00  -1.4615266870709936e-07 -1.6824588026509680e-07 0.0000000000000000e+00  -1.6209565902593155e-07 -1.6929677578746688e-07 0.0000000000000000e+00  -1.7887322257237595e-07 -1.7004292388173890e-07 0.0000000000000000e+00  -1.9643763913922118e-07 -1.7070088989273147e-07 0.0000000000000000e+00  -2.1483825699518167e-07 -1.7107713003448987e-07 0.0000000000000000e+00  -2.3402883678013103e-07 -1.7140424968719004e-07 0.0000000000000000e+00  -2.5405056965897816e-07 -1.7148247722813915e-07 0.0000000000000000e+00  -2.7487239541887069e-07 -1.7154905128181545e-07 0.0000000000000000e+00  -2.9651976436126130e-07 -1.7140532309090021e-07 0.0000000000000000e+00  -3.1897738572582190e-07 -1.7128096865018678e-07 0.0000000000000000e+00  -3.4226760796015198e-07 -1.7098395719355065e-07 0.0000000000000000e+00  -3.6637408657272770e-07 -1.7074181465028566e-07 0.0000000000000000e+00  -3.9131552383069050e-07 -1.7035243206259216e-07 0.0000000000000000e+00  -4.1708764315275489e-07 -1.7004852347629979e-07 0.0000000000000000e+00  -4.4370428202951466e-07 -1.6961781403608089e-07 0.0000000000000000e+00  -4.7116456639792315e-07 -1.6929152015154167e-07 0.0000000000000000e+00  -4.9947620929588400e-07 -1.6889434850426592e-07 0.0000000000000000e+00  -5.2873188975036570e-07 -1.6850254162179610e-07 0.0000000000000000e+00  -5.5872420563743080e-07 -1.6813639742865979e-07 0.0000000000000000e+00  -5.8968536350660426e-07 -1.6770661333289851e-07 0.0000000000000000e+00  -6.2146180174523592e-07 -1.6726302880625940e-07 0.0000000000000000e+00  -6.5312440389760415e-07 -1.6649249548568938e-07 0.0000000000000000e+00  -6.9003135728520880e-07 -1.4344778871670976e-07 0.0000000000000000e+00  -6.9116240822535127e-07 -8.6474982607259519e-08 0.0000000000000000e+00  -6.5551024310692330e-07 -6.1641808087763766e-08 0.0000000000000000e+00  -6.2381403580132784e-07 -5.9162930382772345e-08 0.0000000000000000e+00  -5.9196197974857494e-07 -5.7003093776266618e-08 0.0000000000000000e+00  -5.6093858082705586e-07 -5.4879527591209360e-08 0.0000000000000000e+00  -5.3089389375016875e-07 -5.2889622813662196e-08 0.0000000000000000e+00  -5.0159194467852876e-07 -5.0918772455054211e-08 0.0000000000000000e+00  -4.7327653970288907e-07 -4.8956057108296339e-08 0.0000000000000000e+00  -4.4580161846790855e-07 -4.7135310010839571e-08 0.0000000000000000e+00  -4.1920429960648493e-07 -4.5143939283688103e-08 0.0000000000000000e+00  -3.9347260781765093e-07 -4.3339259048913792e-08 0.0000000000000000e+00  -3.6861584396149223e-07 -4.1327034499424689e-08 0.0000000000000000e+00  -3.4461809387787383e-07 -3.9476396115356546e-08 0.0000000000000000e+00  -3.2149839690913557e-07 -3.7389288642653986e-08 0.0000000000000000e+00  -2.9922865924234509e-07 -3.5430022129108614e-08 0.0000000000000000e+00  -2.7784271463661218e-07 -3.3201077988266283e-08 0.0000000000000000e+00  -2.5729700607612830e-07 -3.1063418109980928e-08 0.0000000000000000e+00  -2.3764098316314534e-07 -2.8619409716129975e-08 0.0000000000000000e+00  -2.1881534141633470e-07 -2.6228833122975012e-08 0.0000000000000000e+00  -2.0088296520498787e-07 -2.3496429996792087e-08 0.0000000000000000e+00  -1.8376874174840885e-07 -2.0779700993868357e-08 0.0000000000000000e+00  -1.6754813542432147e-07 -1.7689999008024920e-08 0.0000000000000000e+00  -1.5214058879255875e-07 -1.4571149616729289e-08 0.0000000000000000e+00  -1.3757616448673549e-07 -1.1107077770906349e-08 0.0000000000000000e+00  -1.2394950920215359e-07 -7.4606863684598323e-09 0.0000000000000000e+00  -1.1100596251264464e-07 -3.5543177365034154e-09 0.0000000000000000e+00  -9.8990294236964689e-08 5.9017476742445828e-10 0.0000000000000000e+00  -8.7761289736682968e-08 4.9192888237742820e-09 0.0000000000000000e+00  -7.7381671352814602e-08 9.5962747789748012e-09 0.0000000000000000e+00  -6.7776326524741333e-08 1.4409348968644260e-08 0.0000000000000000e+00  -5.9000780221741555e-08 1.9553949734832125e-08 0.0000000000000000e+00  -5.0982085582150978e-08 2.4811169234986657e-08 0.0000000000000000e+00  -4.3757083176762332e-08 3.0327487209131558e-08 0.0000000000000000e+00  -3.7351036181107734e-08 3.5992193208701653e-08 0.0000000000000000e+00  -3.1574912287175756e-08 4.1790209603129217e-08 0.0000000000000000e+00  -2.6613755994054898e-08 4.7685022596026506e-08 0.0000000000000000e+00  -2.2356321561461386e-08 5.3562820792122644e-08 0.0000000000000000e+00  -1.8801643160217183e-08 5.9526343760521634e-08 0.0000000000000000e+00  -1.5932353343567413e-08 6.5326337005058431e-08 0.0000000000000000e+00  -1.3716754338090718e-08 7.1047777021837172e-08 0.0000000000000000e+00  -1.2166566658302517e-08 7.6559091373954700e-08 0.0000000000000000e+00  -1.1149894815847705e-08 8.1718873874926399e-08 0.0000000000000000e+00  -1.0743841656425723e-08 8.6505915667742651e-08 0.0000000000000000e+00  -1.1007746759927257e-08 9.0819220242098393e-08 0.0000000000000000e+00  -1.1152271906799379e-08 9.5154045835459881e-08 0.0000000000000000e+00  -1.0000886852404365e-08 9.8855388845883377e-08 0.0000000000000000e+00  8.6277198577704826e-10 9.6833222844617344e-08 0.0000000000000000e+00  -1.6741768253913185e-08 -2.0069246607939821e-09 0.0000000000000000e+00  -6.4041006606570035e-07 -1.1428909860989683e-07 0.0000000000000000e+00  -5.7874588250242919e-07 -1.1313215600007374e-07 0.0000000000000000e+00  -4.8605246292411350e-07 -1.1014233906310265e-07 0.0000000000000000e+00  -8.1460179006944757e-09 -5.7302250954747112e-09 0.0000000000000000e+00  -4.3211451852094310e-07 -1.0799008769082186e-07 0.0000000000000000e+00  -6.5436933675500177e-09 -1.1192277394857057e-08 0.0000000000000000e+00  -3.8060306243340166e-07 -1.0646220385517460e-07 0.0000000000000000e+00  -9.4294050182865526e-09 -2.4995862172377548e-08 0.0000000000000000e+00  -1.4765045483548645e-08 -3.5825176739904874e-08 0.0000000000000000e+00  -3.3249490952968898e-07 -1.0482697822050851e-07 0.0000000000000000e+00  -4.2551114789250793e-08 -5.8730305221171623e-08 0.0000000000000000e+00  -2.4640361486010041e-07 -1.0073797848257790e-07 0.0000000000000000e+00  -2.3044174369095064e-08 -4.4098378187098636e-08 0.0000000000000000e+00  -5.8688081884332240e-08 -6.8212481807621404e-08 0.0000000000000000e+00  -2.0839046945942279e-07 -9.7997999682225268e-08 0.0000000000000000e+00  -2.8776727022657124e-07 -1.0296499866221044e-07 0.0000000000000000e+00  -7.8489480243713722e-08 -7.5799748775681833e-08 0.0000000000000000e+00  -1.7371660005596188e-07 -9.4599335210298015e-08 0.0000000000000000e+00  -1.0064989787037728e-07 -8.1076034085418437e-08 0.0000000000000000e+00  -1.4295770442100194e-07 -9.1489117968958252e-08 0.0000000000000000e+00  -1.2004477453024682e-07 -8.6418192985079421e-08 0.0000000000000000e+00  -3.1401442602419645e-08 -5.2608306079555719e-08 0.0000000000000000e+00  -5.3327677822250696e-07 -1.1064943390248967e-07 0.0000000000000000e+00  -7.0900955595379169e-09 -1.8723864199593169e-08 0.0000000000000000e+00  -6.0900175566350042e-07 -9.4585036294429878e-08 0.0000000000000000e+00  -1.1318021509799423e-08 3.3736816671429975e-08 0.0000000000000000e+00  -4.0622114167381048e-07 -8.8915965937166748e-08 0.0000000000000000e+00  -4.5943842236674222e-07 -9.1095044740611129e-08 0.0000000000000000e+00  -5.2864010499573925e-09 -4.3825537326533795e-08 0.0000000000000000e+00  -9.7896209849485275e-09 -5.8079320526105779e-08 0.0000000000000000e+00  -2.6709919204836466e-07 -8.1631922252614508e-08 0.0000000000000000e+00  -3.5643928881487200e-07 -8.6691375519555705e-08 0.0000000000000000e+00  -4.8359051796603454e-08 -8.9111498884380115e-08 0.0000000000000000e+00  -2.2751206077763052e-07 -7.8520964088143923e-08 0.0000000000000000e+00  -1.6792704435512864e-08 -6.7334629059076609e-08 0.0000000000000000e+00  -6.6695076150824341e-08 -9.6529711883014618e-08 0.0000000000000000e+00  -1.9129682795960352e-07 -7.4824852778033765e-08 0.0000000000000000e+00  -3.1007061644386070e-07 -8.4307101381588446e-08 0.0000000000000000e+00  -8.7870077421995487e-08 -1.0817932144999998e-07 0.0000000000000000e+00  -1.5844089773774461e-07 -7.0397858010440721e-08 0.0000000000000000e+00  -2.0179731107535603e-08 -2.7810807236811722e-08 0.0000000000000000e+00  -2.0551694874261774e-08 2.6047281577365081e-08 0.0000000000000000e+00  -6.6691366959887988e-07 -1.269678