<?xml version="1.0"?>
<VTKFile type="UnstructuredGrid"  version="0.1"  >
<UnstructuredGrid>
<Piece  NumberOfPoints="2601" NumberOfCells="5000">
<Points>
<DataArray  type="Float64"  NumberOfComponents="3"  format="ascii">0.05500000000000002 0 0  0.09390000000000123 0 0  0.1328000000000022 0 0  0.1717000000000031 0 0  0.2106000000000038 0 0  0.2495000000000044 0 0  0.2884000000000049 0 0  0.3273000000000055 0 0  0.3662000000000059 0 0  0.4051000000000062 0 0  0.4440000000000066 0 0  0.4829000000000068 0 0  0.5218000000000069 0 0  0.5607000000000071 0 0  0.5996000000000072 0 0  0.6385000000000073 0 0  0.6774000000000074 0 0  0.7163000000000074 0 0  0.7552000000000074 0 0  0.7941000000000074 0 0  0.8330000000000074 0 0  0.8719000000000072 0 0  0.910800000000007 0 0  0.949700000000007 0 0  0.9886000000000066 0 0  1.027500000000007 0 0  1.066400000000006 0 0  1.105300000000006 0 0  1.144200000000006 0 0  1.183100000000006 0 0  1.222000000000006 0 0  1.260900000000005 0 0  1.299800000000005 0 0  1.338700000000005 0 0  1.377600000000005 0 0  1.416500000000005 0 0  1.455400000000004 0 0  1.494300000000003 0 0  1.533200000000003 0 0  1.572100000000004 0 0  1.611000000000003 0 0  1.649900000000003 0 0  1.688800000000002 0 0  1.727700000000002 0 0  1.766600000000002 0 0  1.805500000000002 0 0  1.844400000000002 0 0  1.883300000000001 0 0  1.9222 0 0  1.9611 0 0  2 0 0  0.05500000000000002 0.02 0  0.09390000000000108 0.02 0  0.132800000000002 0.02 0  0.1717000000000029 0.02 0  0.2106000000000036 0.02 0  0.2495000000000041 0.02 0  0.2884000000000048 0.02 0  0.3273000000000052 0.02 0  0.3662000000000056 0.02 0  0.405100000000006 0.02 0  0.4440000000000063 0.02 0  0.4829000000000065 0.02 0  0.5218000000000067 0.02 0  0.5607000000000069 0.02 0  0.599600000000007 0.02 0  0.6385000000000071 0.02 0  0.6774000000000072 0.02 0  0.7163000000000073 0.02 0  0.7552000000000072 0.02 0  0.7941000000000072 0.02 0  0.8330000000000072 0.02 0  0.871900000000007 0.02 0  0.9108000000000069 0.02 0  0.9497000000000066 0.02 0  0.9886000000000066 0.02 0  1.027500000000006 0.02 0  1.066400000000006 0.02 0  1.105300000000006 0.02 0  1.144200000000006 0.02 0  1.183100000000006 0.02 0  1.222000000000005 0.02 0  1.260900000000005 0.02 0  1.299800000000005 0.02 0  1.338700000000005 0.02 0  1.377600000000005 0.02 0  1.416500000000004 0.02 0  1.455400000000003 0.02 0  1.494300000000003 0.02 0  1.533200000000003 0.02 0  1.572100000000004 0.02 0  1.611000000000003 0.02 0  1.649900000000003 0.02 0  1.688800000000002 0.02 0  1.727700000000002 0.02 0  1.766600000000002 0.02 0  1.805500000000002 0.02 0  1.844400000000002 0.02 0  1.8833 0.02 0  1.9222 0.02 0  1.9611 0.02 0  2 0.02 0  0.05500000000000002 0.04 0  0.09390000000000097 0.04 0  0.1328000000000018 0.04 0  0.1717000000000026 0.04 0  0.2106000000000033 0.04 0  0.2495000000000039 0.04 0  0.2884000000000044 0.04 0  0.327300000000005 0.04 0  0.3662000000000055 0.04 0  0.4051000000000057 0.04 0  0.444000000000006 0.04 0  0.4829000000000063 0.04 0  0.5218000000000065 0.04 0  0.5607000000000067 0.04 0  0.5996000000000069 0.04 0  0.638500000000007 0.04 0  0.6774000000000071 0.04 0  0.716300000000007 0.04 0  0.7552000000000071 0.04 0  0.794100000000007 0.04 0  0.833000000000007 0.04 0  0.8719000000000067 0.04 0  0.9108000000000065 0.04 0  0.9497000000000065 0.04 0  0.9886000000000065 0.04 0  1.027500000000006 0.04 0  1.066400000000006 0.04 0  1.105300000000006 0.04 0  1.144200000000006 0.04 0  1.183100000000006 0.04 0  1.222000000000005 0.04 0  1.260900000000005 0.04 0  1.299800000000005 0.04 0  1.338700000000004 0.04 0  1.377600000000005 0.04 0  1.416500000000004 0.04 0  1.455400000000003 0.04 0  1.494300000000003 0.04 0  1.533200000000003 0.04 0  1.572100000000004 0.04 0  1.611000000000003 0.04 0  1.649900000000002 0.04 0  1.688800000000002 0.04 0  1.727700000000002 0.04 0  1.766600000000002 0.04 0  1.805500000000002 0.04 0  1.844400000000002 0.04 0  1.8833 0.04 0  1.9222 0.04 0  1.9611 0.04 0  2 0.04 0  0.05500000000000002 0.06 0  0.0939000000000009 0.06 0  0.1328000000000017 0.06 0  0.1717000000000024 0.06 0  0.210600000000003 0.06 0  0.2495000000000037 0.06 0  0.2884000000000042 0.06 0  0.3273000000000047 0.06 0  0.3662000000000051 0.06 0  0.4051000000000056 0.06 0  0.4440000000000058 0.06 0  0.482900000000006 0.06 0  0.5218000000000063 0.06 0  0.5607000000000066 0.06 0  0.5996000000000066 0.06 0  0.6385000000000067 0.06 0  0.6774000000000067 0.06 0  0.7163000000000068 0.06 0  0.7552000000000069 0.06 0  0.7941000000000068 0.06 0  0.8330000000000066 0.06 0  0.8719000000000064 0.06 0  0.9108000000000064 0.06 0  0.9497000000000064 0.06 0  0.9886000000000063 0.06 0  1.027500000000006 0.06 0  1.066400000000006 0.06 0  1.105300000000006 0.06 0  1.144200000000006 0.06 0  1.183100000000006 0.06 0  1.222000000000005 0.06 0  1.260900000000005 0.06 0  1.299800000000005 0.06 0  1.338700000000004 0.06 0  1.377600000000005 0.06 0  1.416500000000004 0.06 0  1.455400000000003 0.06 0  1.494300000000003 0.06 0  1.533200000000003 0.06 0  1.572100000000003 0.06 0  1.611000000000003 0.06 0  1.649900000000002 0.06 0  1.688800000000002 0.06 0  1.727700000000002 0.06 0  1.766600000000002 0.06 0  1.805500000000002 0.06 0  1.844400000000002 0.06 0  1.8833 0.06 0  1.9222 0.06 0  1.9611 0.06 0  2 0.06 0  0.05500000000000002 0.08 0  0.09390000000000082 0.08 0  0.1328000000000016 0.08 0  0.1717000000000023 0.08 0  0.210600000000003 0.08 0  0.2495000000000035 0.08 0  0.288400000000004 0.08 0  0.3273000000000045 0.08 0  0.366200000000005 0.08 0  0.4051000000000052 0.08 0  0.4440000000000057 0.08 0  0.4829000000000059 0.08 0  0.521800000000006 0.08 0  0.5607000000000061 0.08 0  0.5996000000000064 0.08 0  0.6385000000000065 0.08 0  0.6774000000000067 0.08 0  0.7163000000000067 0.08 0  0.7552000000000065 0.08 0  0.7941000000000065 0.08 0  0.8330000000000065 0.08 0  0.8719000000000062 0.08 0  0.9108000000000063 0.08 0  0.9497000000000063 0.08 0  0.9886000000000061 0.08 0  1.027500000000006 0.08 0  1.066400000000006 0.08 0  1.105300000000006 0.08 0  1.144200000000006 0.08 0  1.183100000000005 0.08 0  1.222000000000005 0.08 0  1.260900000000005 0.08 0  1.299800000000005 0.08 0  1.338700000000004 0.08 0  1.377600000000005 0.08 0  1.416500000000004 0.08 0  1.455400000000003 0.08 0  1.494300000000003 0.08 0  1.533200000000003 0.08 0  1.572100000000003 0.08 0  1.611000000000003 0.08 0  1.649900000000002 0.08 0  1.688800000000002 0.08 0  1.727700000000002 0.08 0  1.766600000000002 0.08 0  1.805500000000002 0.08 0  1.844400000000002 0.08 0  1.8833 0.08 0  1.9222 0.08 0  1.9611 0.08 0  2 0.08 0  0.05500000000000002 0.1 0  0.09390000000000077 0.1 0  0.1328000000000015 0.1 0  0.1717000000000022 0.1 0  0.2106000000000028 0.1 0  0.2495000000000034 0.1 0  0.2884000000000039 0.1 0  0.3273000000000044 0.1 0  0.3662000000000047 0.1 0  0.4051000000000051 0.1 0  0.4440000000000054 0.1 0  0.4829000000000056 0.1 0  0.5218000000000057 0.1 0  0.5607000000000059 0.1 0  0.599600000000006 0.1 0  0.6385000000000061 0.1 0  0.6774000000000062 0.1 0  0.7163000000000064 0.1 0  0.7552000000000063 0.1 0  0.7941000000000064 0.1 0  0.8330000000000062 0.1 0  0.8719000000000062 0.1 0  0.9108000000000063 0.1 0  0.9497000000000062 0.1 0  0.9886000000000057 0.1 0  1.027500000000006 0.1 0  1.066400000000006 0.1 0  1.105300000000006 0.1 0  1.144200000000006 0.1 0  1.183100000000005 0.1 0  1.222000000000005 0.1 0  1.260900000000005 0.1 0  1.299800000000004 0.1 0  1.338700000000004 0.1 0  1.377600000000004 0.1 0  1.416500000000003 0.1 0  1.455400000000003 0.1 0  1.494300000000003 0.1 0  1.533200000000003 0.1 0  1.572100000000003 0.1 0  1.611000000000003 0.1 0  1.649900000000001 0.1 0  1.688800000000002 0.1 0  1.727700000000002 0.1 0  1.766600000000002 0.1 0  1.805500000000002 0.1 0  1.844400000000002 0.1 0  1.8833 0.1 0  1.9222 0.1 0  1.9611 0.1 0  2 0.1 0  0.05500000000000002 0.12 0  0.09390000000000069 0.12 0  0.1328000000000014 0.12 0  0.171700000000002 0.12 0  0.2106000000000026 0.12 0  0.2495000000000032 0.12 0  0.2884000000000037 0.12 0  0.3273000000000041 0.12 0  0.3662000000000045 0.12 0  0.4051000000000048 0.12 0  0.4440000000000052 0.12 0  0.4829000000000054 0.12 0  0.5218000000000056 0.12 0  0.5607000000000057 0.12 0  0.599600000000006 0.12 0  0.6385000000000061 0.12 0  0.6774000000000062 0.12 0  0.7163000000000062 0.12 0  0.7552000000000062 0.12 0  0.794100000000006 0.12 0  0.8330000000000062 0.12 0  0.8719000000000061 0.12 0  0.910800000000006 0.12 0  0.9497000000000059 0.12 0  0.9886000000000056 0.12 0  1.027500000000006 0.12 0  1.066400000000006 0.12 0  1.105300000000006 0.12 0  1.144200000000005 0.12 0  1.183100000000005 0.12 0  1.222000000000005 0.12 0  1.260900000000005 0.12 0  1.299800000000004 0.12 0  1.338700000000004 0.12 0  1.377600000000004 0.12 0  1.416500000000003 0.12 0  1.455400000000003 0.12 0  1.494300000000003 0.12 0  1.533200000000003 0.12 0  1.572100000000003 0.12 0  1.611000000000003 0.12 0  1.649900000000001 0.12 0  1.688800000000002 0.12 0  1.727700000000002 0.12 0  1.766600000000002 0.12 0  1.805500000000002 0.12 0  1.844400000000002 0.12 0  1.8833 0.12 0  1.9222 0.12 0  1.9611 0.12 0  2 0.12 0  0.05500000000000002 0.14 0  0.09390000000000066 0.14 0  0.1328000000000013 0.14 0  0.1717000000000019 0.14 0  0.2106000000000025 0.14 0  0.249500000000003 0.14 0  0.2884000000000034 0.14 0  0.3273000000000039 0.14 0  0.3662000000000042 0.14 0  0.4051000000000047 0.14 0  0.4440000000000049 0.14 0  0.4829000000000052 0.14 0  0.5218000000000055 0.14 0  0.5607000000000056 0.14 0  0.5996000000000059 0.14 0  0.6385000000000058 0.14 0  0.6774000000000059 0.14 0  0.716300000000006 0.14 0  0.755200000000006 0.14 0  0.794100000000006 0.14 0  0.8330000000000061 0.14 0  0.871900000000006 0.14 0  0.9108000000000059 0.14 0  0.9497000000000055 0.14 0  0.9886000000000056 0.14 0  1.027500000000006 0.14 0  1.066400000000006 0.14 0  1.105300000000006 0.14 0  1.144200000000005 0.14 0  1.183100000000005 0.14 0  1.222000000000005 0.14 0  1.260900000000004 0.14 0  1.2998000000000
[...]
<PointData  Vectors="f_24-0"> 
<DataArray  type="Float64"  Name="f_24-0"  NumberOfComponents="3" format="ascii">1.0000000000000019e-01 0.0000000000000000e+00 0.0000000000000000e+00  9.8000000000001308e-02 0.0000000000000000e+00 0.0000000000000000e+00  9.6000000000002306e-02 0.0000000000000000e+00 0.0000000000000000e+00  9.4000000000003220e-02 0.0000000000000000e+00 0.0000000000000000e+00  9.2000000000003954e-02 0.0000000000000000e+00 0.0000000000000000e+00  9.0000000000004507e-02 0.0000000000000000e+00 0.0000000000000000e+00  8.8000000000004963e-02 0.0000000000000000e+00 0.0000000000000000e+00  8.6000000000005364e-02 0.0000000000000000e+00 0.0000000000000000e+00  8.4000000000005778e-02 0.0000000000000000e+00 0.0000000000000000e+00  8.2000000000006110e-02 0.0000000000000000e+00 0.0000000000000000e+00  8.0000000000006385e-02 0.0000000000000000e+00 0.0000000000000000e+00  7.8000000000006592e-02 0.0000000000000000e+00 0.0000000000000000e+00  7.6000000000006798e-02 0.0000000000000000e+00 0.0000000000000000e+00  7.4000000000006991e-02 0.0000000000000000e+00 0.0000000000000000e+00  7.2000000000007086e-02 0.0000000000000000e+00 0.0000000000000000e+00  7.0000000000007112e-02 0.0000000000000000e+00 0.0000000000000000e+00  6.8000000000007166e-02 0.0000000000000000e+00 0.0000000000000000e+00  6.6000000000007233e-02 0.0000000000000000e+00 0.0000000000000000e+00  6.4000000000007218e-02 0.0000000000000000e+00 0.0000000000000000e+00  6.2000000000007195e-02 0.0000000000000000e+00 0.0000000000000000e+00  6.0000000000007138e-02 0.0000000000000000e+00 0.0000000000000000e+00  5.8000000000007081e-02 0.0000000000000000e+00 0.0000000000000000e+00  5.6000000000006898e-02 0.0000000000000000e+00 0.0000000000000000e+00  5.4000000000006716e-02 0.0000000000000000e+00 0.0000000000000000e+00  5.2000000000006562e-02 0.0000000000000000e+00 0.0000000000000000e+00  5.0000000000006331e-02 0.0000000000000000e+00 0.0000000000000000e+00  4.8000000000006093e-02 0.0000000000000000e+00 0.0000000000000000e+00  4.6000000000005849e-02 0.0000000000000000e+00 0.0000000000000000e+00  4.4000000000005576e-02 0.0000000000000000e+00 0.0000000000000000e+00  4.2000000000005290e-02 0.0000000000000000e+00 0.0000000000000000e+00  4.0000000000004969e-02 0.0000000000000000e+00 0.0000000000000000e+00  3.8000000000004690e-02 0.0000000000000000e+00 0.0000000000000000e+00  3.6000000000004397e-02 0.0000000000000000e+00 0.0000000000000000e+00  3.4000000000004103e-02 0.0000000000000000e+00 0.0000000000000000e+00  3.2000000000003817e-02 0.0000000000000000e+00 0.0000000000000000e+00  3.0000000000003510e-02 0.0000000000000000e+00 0.0000000000000000e+00  2.8000000000003310e-02 0.0000000000000000e+00 0.0000000000000000e+00  2.6000000000003048e-02 0.0000000000000000e+00 0.0000000000000000e+00  2.4000000000002786e-02 0.0000000000000000e+00 0.0000000000000000e+00  2.2000000000002531e-02 0.0000000000000000e+00 0.0000000000000000e+00  2.0000000000002342e-02 0.0000000000000000e+00 0.0000000000000000e+00  1.8000000000002115e-02 0.0000000000000000e+00 0.0000000000000000e+00  1.6000000000001936e-02 0.0000000000000000e+00 0.0000000000000000e+00  1.4000000000001686e-02 0.0000000000000000e+00 0.0000000000000000e+00  1.2000000000001444e-02 0.0000000000000000e+00 0.0000000000000000e+00  1.0000000000001188e-02 0.0000000000000000e+00 0.0000000000000000e+00  8.0000000000009196e-03 0.0000000000000000e+00 0.0000000000000000e+00  6.0000000000007348e-03 0.0000000000000000e+00 0.0000000000000000e+00  4.0000000000005240e-03 0.0000000000000000e+00 0.0000000000000000e+00  2.0000000000002624e-03 0.0000000000000000e+00 0.0000000000000000e+00  9.4368957093150485e-19 0.0000000000000000e+00 0.0000000000000000e+00  1.0000000000000001e-01 0.0000000000000000e+00 0.0000000000000000e+00  9.9140477835171881e-02 9.4291927056028117e-04 0.0000000000000000e+00  9.7333039727874951e-02 1.0046551419169813e-03 0.0000000000000000e+00  9.5450848712833616e-02 1.0094834647525008e-03 0.0000000000000000e+00  9.3545800484370015e-02 1.0044541621945669e-03 0.0000000000000000e+00  9.1658720572531230e-02 9.9876826266902642e-04 0.0000000000000000e+00  8.9789997025940038e-02 9.9304819426587472e-04 0.0000000000000000e+00  8.7940091328954847e-02 9.8800119683903754e-04 0.0000000000000000e+00  8.6106902110222386e-02 9.8371037089951601e-04 0.0000000000000000e+00  8.4287988851840981e-02 9.8015023258623082e-04 0.0000000000000000e+00  8.2480952184510986e-02 9.7724653879732140e-04 0.0000000000000000e+00  8.0683619046835159e-02 9.7490704902709912e-04 0.0000000000000000e+00  7.8894113171439711e-02 9.7304020878959943e-04 0.0000000000000000e+00  7.7110860033375972e-02 9.7156128567350505e-04 0.0000000000000000e+00  7.5332567342718856e-02 9.7039535279735327e-04 0.0000000000000000e+00  7.3558193777058759e-02 9.6947802117685028e-04 0.0000000000000000e+00  7.1786914210364705e-02 9.6875513898026530e-04 0.0000000000000000e+00  7.0018085395274418e-02 9.6818197958445872e-04 0.0000000000000000e+00  6.8251214088885723e-02 9.6772221523757241e-04 0.0000000000000000e+00  6.6485928477705181e-02 9.6734684971282279e-04 0.0000000000000000e+00  6.4721953100190577e-02 9.6703320883290231e-04 0.0000000000000000e+00  6.2959087088671317e-02 9.6676404442038518e-04 0.0000000000000000e+00  6.1197185342438322e-02 9.6652677958282266e-04 0.0000000000000000e+00  5.9436142139262418e-02 9.6631290536603278e-04 0.0000000000000000e+00  5.7675876656084195e-02 9.6611752692949934e-04 0.0000000000000000e+00  5.5916319878373033e-02 9.6593904922004825e-04 0.0000000000000000e+00  5.4157402417980831e-02 9.6577898607908583e-04 0.0000000000000000e+00  5.2399042823635431e-02 9.6564187168682845e-04 0.0000000000000000e+00  5.0641136053179991e-02 9.6553524842706300e-04 0.0000000000000000e+00  4.8883541881697051e-02 9.6546970016872784e-04 0.0000000000000000e+00  4.7126073145471230e-02 9.6545889451443180e-04 0.0000000000000000e+00  4.5368483868543641e-02 9.6551959218839313e-04 0.0000000000000000e+00  4.3610457483636011e-02 9.6567157761847289e-04 0.0000000000000000e+00  4.1851595533202682e-02 9.6593746408664774e-04 0.0000000000000000e+00  4.0091407399265568e-02 9.6634233344424078e-04 0.0000000000000000e+00  3.8329301723253793e-02 9.6691318924057863e-04 0.0000000000000000e+00  3.6564580179839448e-02 9.6767824405970921e-04 0.0000000000000000e+00  3.4796434041968145e-02 9.6866612817211081e-04 0.0000000000000000e+00  3.3023943431929964e-02 9.6990525396556252e-04 0.0000000000000000e+00  3.1246077794346797e-02 9.7142367027766737e-04 0.0000000000000000e+00  2.9461694608162593e-02 9.7325043417511865e-04 0.0000000000000000e+00  2.7669527096533388e-02 9.7541863318739513e-04 0.0000000000000000e+00  2.5868154605235446e-02 9.7797669011979440e-04 0.0000000000000000e+00  2.4055900491526488e-02 9.8099542683770312e-04 0.0000000000000000e+00  2.2230717065473079e-02 9.8464836327891571e-04 0.0000000000000000e+00  2.0389513041084783e-02 9.8910904867067421e-04 0.0000000000000000e+00  1.8528379485760482e-02 9.9552690365210740e-04 0.0000000000000000e+00  1.6635843042794186e-02 1.0032830738179650e-03 0.0000000000000000e+00  1.4706062898681826e-02 1.0253382132235595e-03 0.0000000000000000e+00  1.2637976431903182e-02 1.0479293094394324e-03 0.0000000000000000e+00  1.0460586509414815e-02 1.2608771659937009e-03 0.0000000000000000e+00  1.0000000000000001e-01 0.0000000000000000e+00 0.0000000000000000e+00  9.9580768042466378e-02 1.6030970361617211e-03 0.0000000000000000e+00  9.8249721223333586e-02 1.8878126711139626e-03 0.0000000000000000e+00  9.6608902960570883e-02 1.9399952746037678e-03 0.0000000000000000e+00  9.4883142969582446e-02 1.9394165869773287e-03 0.0000000000000000e+00  9.3155144157368655e-02 1.9254683990167392e-03 0.0000000000000000e+00  9.1445051391393348e-02 1.9081494319451596e-03 0.0000000000000000e+00  8.9760572454336218e-02 1.8914402502373370e-03 0.0000000000000000e+00  8.8101636154822263e-02 1.8765675733263016e-03 0.0000000000000000e+00  8.6465971276832893e-02 1.8638844508851345e-03 0.0000000000000000e+00  8.4850421886773539e-02 1.8533429319308658e-03 0.0000000000000000e+00  8.3251751152585401e-02 1.8447329520887359e-03 0.0000000000000000e+00  8.1666963901042625e-02 1.8377894284694006e-03 0.0000000000000000e+00  8.0093437811073753e-02 1.8322413682649960e-03 0.0000000000000000e+00  7.8528957465986537e-02 1.8278357822892161e-03 0.0000000000000000e+00  7.6971699502983118e-02 1.8243478708039366e-03 0.0000000000000000e+00  7.5420195149644334e-02 1.8215843109118486e-03 0.0000000000000000e+00  7.3873283701577613e-02 1.8193828940861344e-03 0.0000000000000000e+00  7.2330064331994556e-02 1.8176103521188140e-03 0.0000000000000000e+00  7.0789850032451307e-02 1.8161594138650804e-03 0.0000000000000000e+00  6.9252125437858914e-02 1.8149456973001880e-03 0.0000000000000000e+00  6.7716509088379256e-02 1.8139047858046415e-03 0.0000000000000000e+00  6.6182719982553290e-02 1.8129896806628118e-03 0.0000000000000000e+00  6.4650547886497184e-02 1.8121687227133723e-03 0.0000000000000000e+00  6.3119826669816331e-02 1.8114240116832582e-03 0.0000000000000000e+00  6.1590409872211330e-02 1.8107503084107705e-03 0.0000000000000000e+00  6.0062147724684781e-02 1.8101543742420944e-03 0.0000000000000000e+00  5.8534864931996645e-02 1.8096546775433224e-03 0.0000000000000000e+00  5.7008338655885740e-02 1.8092813756004672e-03 0.0000000000000000e+00  5.5482276315876530e-02 1.8090764588874317e-03 0.0000000000000000e+00  5.3956293043868800e-02 1.8090939231921431e-03 0.0000000000000000e+00  5.2429888887222935e-02 1.8093998149971439e-03 0.0000000000000000e+00  5.0902426144261860e-02 1.8100719813634312e-03 0.0000000000000000e+00  4.9373107515278312e-02 1.8111993560052646e-03 0.0000000000000000e+00  4.7840956019816139e-02 1.8128806425096319e-03 0.0000000000000000e+00  4.6304797790592940e-02 1.8152223354621984e-03 0.0000000000000000e+00  4.4763248786954639e-02 1.8183361821722587e-03 0.0000000000000000e+00  4.3214705959774634e-02 1.8223364766963993e-03 0.0000000000000000e+00  4.1657342228130480e-02 1.8273380587472726e-03 0.0000000000000000e+00  4.0089102039422495e-02 1.8334566644071250e-03 0.0000000000000000e+00  3.8507690745687821e-02 1.8408145245559864e-03 0.0000000000000000e+00  3.6910540816438450e-02 1.8495562129599136e-03 0.0000000000000000e+00  3.5294736107648321e-02 1.8598836377306785e-03 0.0000000000000000e+00  3.3656809586514284e-02 1.8721274316997425e-03 0.0000000000000000e+00  3.1992448380190927e-02 1.8868894560931607e-03 0.0000000000000000e+00  3.0295397776249233e-02 1.9053565237609805e-03 0.0000000000000000e+00  2.8557102644483915e-02 1.9299736428894671e-03 0.0000000000000000e+00  2.6758171340491906e-02 1.9664683201572677e-03 0.0000000000000000e+00  2.4879676341270248e-02 2.0296493312347819e-03 0.0000000000000000e+00  2.2805331036295919e-02 2.1634758072794926e-03 0.0000000000000000e+00  2.0628944293136098e-02 2.5202064175122996e-03 0.0000000000000000e+00  1.0000000000000001e-01 0.0000000000000000e+00 0.0000000000000000e+00  9.9768370128510711e-02 2.0048971443499819e-03 0.0000000000000000e+00  9.8852386514313398e-02 2.5921045969079324e-03 0.0000000000000000e+00  9.7513202130143542e-02 2.7495836329286824e-03 0.0000000000000000e+00  9.6021367950431452e-02 2.7779008904552736e-03 0.0000000000000000e+00  9.4489042691987546e-02 2.7633352325221669e-03 0.0000000000000000e+00  9.2961502641528915e-02 2.7353425035510979e-03 0.0000000000000000e+00  9.1456639490954783e-02 2.7048754202427007e-03 0.0000000000000000e+00  8.9979364716026175e-02 2.6762362691310770e-03 0.0000000000000000e+00  8.8529514916285856e-02 2.6510308695739922e-03 0.0000000000000000e+00  8.7104544574538950e-02 2.6296418898307428e-03 0.0000000000000000e+00  8.5701125043717852e-02 2.6119124472961052e-03 0.0000000000000000e+00  8.4315834703709167e-02 2.5974531095782627e-03 0.0000000000000000e+00  8.2945502655211251e-02 2.5857955944131213e-03 0.0000000000000000e+00  8.1587351145511064e-02 2.5764692788083588e-03 0.0000000000000000e+00  8.0239035708407291e-02 2.5690383171265590e-03 0.0000000000000000e+00  7.8898631990756321e-02 2.5631179558137018e-03 0.0000000000000000e+00  7.7564596339966818e-02 2.5583795682508630e-03 0.0000000000000000e+00  7.6235715314039929e-02 2.5545497303310081e-03 0.0000000000000000e+00  7.4911052416551160e-02 2.5514063537140281e-03 0.0000000000000000e+00  7.3589896422716808e-02 2.5487736438749502e-03 0.0000000000000000e+00  7.2271713313787470e-02 2.5465169187135093e-03 0.0000000000000000e+00  7.0956102441142879e-02 2.5445378809739782e-03 0.0000000000000000e+00  6.9642756726025934e-02 2.5427706608003001e-03 0.0000000000000000e+00  6.8331426251445893e-02 2.5411787663912697e-03 0.0000000000000000e+00  6.7021884390733227e-02 2.5397529620731049e-03 0.0000000000000000e+00  6.5713895564555702e-02 2.5385100100392081e-03 0.0000000000000000e+00  6.4407183778370500e-02 2.5374921488621502e-03 0.0000000000000000e+00  6.3101401238719809e-02 2.5367671284572601e-03 0.0000000000000000e+00  6.1796096565227242e-02 2.5364285715295024e-03 0.0000000000000000e+00  6.0490682397532906e-02 2.5365963839121186e-03 0.0000000000000000e+00  5.9184402534612997e-02 2.5374168938224187e-03 0.0000000000000000e+00  5.7876299122612086e-02 2.5390623726710762e-03 0.0000000000000000e+00  5.6565180794280891e-02 2.5417295963078988e-03 0.0000000000000000e+00  5.5249592997310637e-02 2.5456371761584727e-03 0.0000000000000000e+00  5.3927791921501295e-02 2.5510215713382763e-03 0.0000000000000000e+00  5.2597723275285238e-02 2.5581320534363407e-03 0.0000000000000000e+00  5.1257006378253846e-02 2.5672255319905933e-03 0.0000000000000000e+00  4.9902922288408279e-02 2.5785632003228250e-03 0.0000000000000000e+00  4.8532401075251898e-02 2.5924126470387686e-03 0.0000000000000000e+00  4.7141997983459638e-02 2.6090617777429228e-03 0.0000000000000000e+00  4.5727835511521014e-02 2.6288554207383741e-03 0.0000000000000000e+00  4.4285480905731242e-02 2.6522736531869426e-03 0.0000000000000000e+00  4.2809661352082612e-02 2.6800875822845190e-03 0.0000000000000000e+00  4.1293807367015142e-02 2.7136660936824021e-03 0.0000000000000000e+00  3.9728751402838547e-02 2.7556032962357513e-03 0.0000000000000000e+00  3.8101844594188361e-02 2.8110865485131737e-03 0.0000000000000000e+00  3.6388959010301071e-02 2.8913006851356508e-03 0.0000000000000000e+00  3.4564517927440613e-02 3.0216939142225217e-03 0.0000000000000000e+00  3.2530144730227702e-02 3.2662756144392398e-03 0.0000000000000000e+00  3.0406221932032032e-02 3.7432360328347749e-03 0.0000000000000000e+00  1.0000000000000001e-01 0.0000000000000000e+00 0.0000000000000000e+00  9.9869719768990825e-02 2.2402052027298380e-03 0.0000000000000000e+00  9.9251806099327253e-02 3.1184415671437794e-03 0.0000000000000000e+00  9.8216593171887634e-02 3.4197908094161754e-03 0.0000000000000000e+00  9.6981129443247840e-02 3.5015102842472449e-03 0.0000000000000000e+00  9.5668273676943361e-02 3.4994049994107020e-03 0.0000000000000000e+00  9.4341035255091868e-02 3.4661694743218095e-03 0.0000000000000000e+00  9.3027174875907850e-02 3.4233868900611043e-03 0.0000000000000000e+00  9.1737825658490091e-02 3.3804485044238593e-03 0.0000000000000000e+00  9.0476003759719120e-02 3.3412773545358990e-03 0.0000000000000000e+00  8.9240748219926835e-02 3.3072740914299459e-03 0.0000000000000000e+00  8.8029392890545330e-02 3.2786386833943979e-03 0.0000000000000000e+00  8.6838669380677191e-02 3.2550065006400771e-03 0.0000000000000000e+00  8.5665297977516264e-02 3.2357745801944887e-03 0.0000000000000000e+00  8.4506269510541382e-02 3.2202695783791939e-03 0.0000000000000000e+00  8.3358966130600481e-02 3.2078344994944971e-03 0.0000000000000000e+00  8.2221192041370392e-02 3.1978711549150080e-03 0.0000000000000000e+00  8.1091156327138370e-02 3.1898582141718346e-03 0.0000000000000000e+00  7.9967431736566119e-02 3.1833558585637706e-03 0.0000000000000000e+00  7.8848903079495242e-02 3.1780033592628864e-03 0.0000000000000000e+00  7.7734712859259661e-02 3.1735133124334339e-03 0.0000000000000000e+00  7.6624208114692560e-02 3.1696647476789886e-03 0.0000000000000000e+00  7.5516890238041284e-02 3.1662964109120885e-03 0.0000000000000000e+00  7.4412368207480248e-02 3.1633009508153656e-03 0.0000000000000000e+00  7.3310314903505772e-02 3.1606203709741922e-03 0.0000000000000000e+00  7.2210425771034092e-02 3.1582428668150944e-03 0.0000000000000000e+00  7.1112378923760433e-02 3.1562009982932598e-03 0.0000000000000000e+00  7.0015795791458613e-02 3.1545710242937724e-03 0.0000000000000000e+00  6.8920201541266282e-02 3.1534731226920401e-03 0.0000000000000000e+00  6.7824984735781080e-02 3.1530721291578643e-03 0.0000000000000000e+00  6.6729356008713631e-02 3.1535783441255360e-03 0.0000000000000000e+00  6.5632305928917084e-02 3.1552478857900450e-03 0.0000000000000000e+00  6.4532562663886336e-02 3.1583820237345759e-03 0.0000000000000000e+00  6.3428550502563519e-02 3.1633249441729901e-03 0.0000000000000000e+00  6.2318350678271739e-02 3.1704595254389307e-03 0.0000000000000000e+00  6.1199666112880413e-02 3.1802010198663097e-03 0.0000000000000000e+00  6.0069791474908547e-02 3.1929891595640606e-03 0.0000000000000000e+00  5.8925588960041561e-02 3.2092802909353311e-03 0.0000000000000000e+00  5.7763468043063121e-02 3.2295429276881474e-03 0.0000000000000000e+00  5.6579363128098026e-02 3.2542629542479133e-03 0.0000000000000000e+00  5.5368696489591772e-02 3.2839692070233497e-03 0.0000000000000000e+00  5.4126299659181427e-02 3.3192975908984410e-03 0.0000000000000000e+00  5.2846256529554311e-02 3.3611247117117629e-03 0.0000000000000000e+00  5.1521565236257401e-02 3.4108278352584153e-03 0.0000000000000000e+00  5.0143600858181640e-02 3.4707790468320320e-03 0.0000000000000000e+00  4.8700761789406487e-02 3.5453164674182172e-03 0.0000000000000000e+00  4.7177587844048095e-02 3.6426940200972725e-03 0.0000000000000000e+00  4.5547933495253337e-02 3.7793875268647085e-03 0.0000000000000000e+00  4.3787039611348472e-02 3.9887447324605070e-03 0.0000000000000000e+00  4.1816834139554802e-02 4.3374750267483504e-03 0.0000000000000000e+00  3.9765185681636006e-02 4.9196184292296229e-03 0.0000000000000000e+00  1.0000000000000001e-01 0.0000000000000000e+00 0.0000000000000000e+00  9.9932399682670356e-02 2.3785564575017630e-03 0.0000000000000000e+00  9.9530077800225547e-02 3.4947549676264981e-03 0.0000000000000000e+00  9.8768034108996025e-02 3.9481171170420480e-03 0.0000000000000000e+00  9.7788546065113030e-02 4.1017212192986999e-03 0.0000000000000000e+00  9.6705921537615203e-02 4.1254445034564274e-03 0.0000000000000000e+00  9.5589373692659130e-02 4.0945096761114911e-03 0.0000000000000000e+00  9.4474144220330347e-02 4.0432021723836335e-03 0.0000000000000000e+00  9.3377021167427202e-02 3.9874457637519723e-03 0.0000000000000000e+00  9.2304486731340063e-02 3.9344923948872656e-03 0.0000000000000000e+00  9.1257682839227791e-02 3.8873811556282443e-03 0.0000000000000000e+00  9.0235102944641390e-02 3.8470334317718732e-03 0.0000000000000000e+00  8.9234068559133142e-02 3.8133194106134177e-03 0.0000000000000000e+00  8.8251548417919851e-02 3.7856156246351136e-03 0.0000000000000000e+00  8.7284586482614210e-02 3.7631029101687515e-03 0.0000000000000000e+00  8.6330513897139874e-02 3.7449263141874456e-03 0.0000000000000000e+00  8.5387034706223136e-02 3.7302782997563570e-03 0.0000000000000000e+00  8.4452240973747206e-02 3.7184388403782992e-03 0.0000000000000000e+00  8.3524589344594141e-02 3.7087911754501816e-03 0.0000000000000000e+00  8.2602858117017799e-02 3.7008241771885955e-03 0.0000000000000000e+00  8.1686095871552886e-02 3.6941278508353425e-03 0.0000000000000000e+00  8.0773567801648502e-02 3.6883858914770903e-03 0.0000000000000000e+00  7.9864702862622247e-02 3.6833676430877097e-03 0.0000000000000000e+00  7.8959042993514875e-02 3.6789208170596786e-03 0.0000000000000000e+00  7.8056194550562369e-02 3.6749656926406082e-03 0.0000000000000000e+00  7.7155781461726566e-02 3.6714911020529215e-03 0.0000000000000000e+00  7.6257399308712545e-02 3.6685522143483627e-03 0.0000000000000000e+00  7.5360569466941932e-02 3.6662699206599491e-03 0.0000000000000000e+00  7.4464692524823475e-02 3.6648314552684448e-03 0.0000000000000000e+00  7.356900