<?xml version="1.0"?>
<VTKFile type="UnstructuredGrid"  version="0.1"  >
<UnstructuredGrid>
<Piece  NumberOfPoints="2601" NumberOfCells="5000">
<Points>
<DataArray  type="Float64"  NumberOfComponents="3"  format="ascii">0.1650000000000001 0 0  0.2017000000000018 0 0  0.2384000000000033 0 0  0.2751000000000047 0 0  0.3118000000000056 0 0  0.3485000000000066 0 0  0.3852000000000073 0 0  0.4219000000000082 0 0  0.4586000000000089 0 0  0.4953000000000095 0 0  0.5320000000000099 0 0  0.56870000000001 0 0  0.6054000000000104 0 0  0.6421000000000108 0 0  0.6788000000000112 0 0  0.7155000000000113 0 0  0.7522000000000115 0 0  0.7889000000000113 0 0  0.8256000000000112 0 0  0.8623000000000113 0 0  0.8990000000000111 0 0  0.935700000000011 0 0  0.9724000000000107 0 0  1.009100000000011 0 0  1.04580000000001 0 0  1.08250000000001 0 0  1.11920000000001 0 0  1.155900000000009 0 0  1.192600000000009 0 0  1.229300000000009 0 0  1.266000000000009 0 0  1.302700000000008 0 0  1.339400000000008 0 0  1.376100000000007 0 0  1.412800000000007 0 0  1.449500000000007 0 0  1.486200000000006 0 0  1.522900000000005 0 0  1.559600000000005 0 0  1.596300000000006 0 0  1.633000000000005 0 0  1.669700000000005 0 0  1.706400000000003 0 0  1.743100000000003 0 0  1.779800000000003 0 0  1.816500000000002 0 0  1.853200000000001 0 0  1.8899 0 0  1.926599999999999 0 0  1.9633 0 0  2 0 0  0.1650000000000001 0.02 0  0.2017000000000017 0.02 0  0.238400000000003 0.02 0  0.2751000000000043 0.02 0  0.3118000000000054 0.02 0  0.3485000000000062 0.02 0  0.3852000000000071 0.02 0  0.4219000000000078 0.02 0  0.4586000000000083 0.02 0  0.495300000000009 0.02 0  0.5320000000000094 0.02 0  0.5687000000000098 0.02 0  0.6054000000000102 0.02 0  0.6421000000000106 0.02 0  0.6788000000000108 0.02 0  0.715500000000011 0.02 0  0.7522000000000109 0.02 0  0.7889000000000109 0.02 0  0.825600000000011 0.02 0  0.8623000000000109 0.02 0  0.8990000000000108 0.02 0  0.9357000000000107 0.02 0  0.9724000000000106 0.02 0  1.00910000000001 0.02 0  1.04580000000001 0.02 0  1.08250000000001 0.02 0  1.11920000000001 0.02 0  1.155900000000009 0.02 0  1.192600000000009 0.02 0  1.229300000000008 0.02 0  1.266000000000008 0.02 0  1.302700000000008 0.02 0  1.339400000000007 0.02 0  1.376100000000007 0.02 0  1.412800000000007 0.02 0  1.449500000000006 0.02 0  1.486200000000005 0.02 0  1.522900000000005 0.02 0  1.559600000000005 0.02 0  1.596300000000006 0.02 0  1.633000000000005 0.02 0  1.669700000000005 0.02 0  1.706400000000003 0.02 0  1.743100000000003 0.02 0  1.779800000000002 0.02 0  1.816500000000002 0.02 0  1.853200000000001 0.02 0  1.8899 0.02 0  1.926599999999999 0.02 0  1.9633 0.02 0  2 0.02 0  0.1650000000000001 0.04 0  0.2017000000000015 0.04 0  0.2384000000000028 0.04 0  0.275100000000004 0.04 0  0.311800000000005 0.04 0  0.3485000000000058 0.04 0  0.3852000000000068 0.04 0  0.4219000000000075 0.04 0  0.4586000000000081 0.04 0  0.4953000000000085 0.04 0  0.532000000000009 0.04 0  0.5687000000000094 0.04 0  0.6054000000000099 0.04 0  0.6421000000000104 0.04 0  0.6788000000000107 0.04 0  0.7155000000000108 0.04 0  0.7522000000000106 0.04 0  0.7889000000000107 0.04 0  0.8256000000000109 0.04 0  0.8623000000000106 0.04 0  0.8990000000000106 0.04 0  0.9357000000000102 0.04 0  0.97240000000001 0.04 0  1.00910000000001 0.04 0  1.04580000000001 0.04 0  1.08250000000001 0.04 0  1.11920000000001 0.04 0  1.155900000000009 0.04 0  1.192600000000009 0.04 0  1.229300000000008 0.04 0  1.266000000000008 0.04 0  1.302700000000008 0.04 0  1.339400000000007 0.04 0  1.376100000000007 0.04 0  1.412800000000007 0.04 0  1.449500000000006 0.04 0  1.486200000000005 0.04 0  1.522900000000005 0.04 0  1.559600000000005 0.04 0  1.596300000000006 0.04 0  1.633000000000005 0.04 0  1.669700000000004 0.04 0  1.706400000000003 0.04 0  1.743100000000003 0.04 0  1.779800000000002 0.04 0  1.816500000000002 0.04 0  1.853200000000001 0.04 0  1.889899999999999 0.04 0  1.926599999999999 0.04 0  1.9633 0.04 0  2 0.04 0  0.1650000000000001 0.06 0  0.2017000000000014 0.06 0  0.2384000000000026 0.06 0  0.2751000000000037 0.06 0  0.3118000000000046 0.06 0  0.3485000000000056 0.06 0  0.3852000000000065 0.06 0  0.4219000000000072 0.06 0  0.4586000000000077 0.06 0  0.4953000000000083 0.06 0  0.5320000000000088 0.06 0  0.5687000000000092 0.06 0  0.6054000000000096 0.06 0  0.6421000000000102 0.06 0  0.6788000000000102 0.06 0  0.7155000000000103 0.06 0  0.7522000000000102 0.06 0  0.7889000000000104 0.06 0  0.8256000000000104 0.06 0  0.8623000000000103 0.06 0  0.8990000000000102 0.06 0  0.93570000000001 0.06 0  0.97240000000001 0.06 0  1.00910000000001 0.06 0  1.04580000000001 0.06 0  1.08250000000001 0.06 0  1.119200000000009 0.06 0  1.155900000000009 0.06 0  1.192600000000009 0.06 0  1.229300000000008 0.06 0  1.266000000000008 0.06 0  1.302700000000008 0.06 0  1.339400000000007 0.06 0  1.376100000000007 0.06 0  1.412800000000007 0.06 0  1.449500000000006 0.06 0  1.486200000000005 0.06 0  1.522900000000005 0.06 0  1.559600000000005 0.06 0  1.596300000000005 0.06 0  1.633000000000005 0.06 0  1.669700000000004 0.06 0  1.706400000000003 0.06 0  1.743100000000003 0.06 0  1.779800000000002 0.06 0  1.816500000000002 0.06 0  1.853200000000001 0.06 0  1.889899999999999 0.06 0  1.926599999999999 0.06 0  1.9633 0.06 0  2 0.06 0  0.1650000000000001 0.08 0  0.2017000000000013 0.08 0  0.2384000000000024 0.08 0  0.2751000000000035 0.08 0  0.3118000000000044 0.08 0  0.3485000000000053 0.08 0  0.385200000000006 0.08 0  0.4219000000000069 0.08 0  0.4586000000000075 0.08 0  0.495300000000008 0.08 0  0.5320000000000087 0.08 0  0.5687000000000091 0.08 0  0.6054000000000094 0.08 0  0.6421000000000094 0.08 0  0.6788000000000098 0.08 0  0.7155000000000101 0.08 0  0.7522000000000102 0.08 0  0.7889000000000103 0.08 0  0.82560000000001 0.08 0  0.8623000000000099 0.08 0  0.89900000000001 0.08 0  0.9357000000000096 0.08 0  0.9724000000000097 0.08 0  1.009100000000009 0.08 0  1.04580000000001 0.08 0  1.08250000000001 0.08 0  1.119200000000009 0.08 0  1.155900000000009 0.08 0  1.192600000000008 0.08 0  1.229300000000008 0.08 0  1.266000000000008 0.08 0  1.302700000000008 0.08 0  1.339400000000007 0.08 0  1.376100000000007 0.08 0  1.412800000000007 0.08 0  1.449500000000006 0.08 0  1.486200000000005 0.08 0  1.522900000000005 0.08 0  1.559600000000005 0.08 0  1.596300000000005 0.08 0  1.633000000000005 0.08 0  1.669700000000004 0.08 0  1.706400000000003 0.08 0  1.743100000000003 0.08 0  1.779800000000002 0.08 0  1.816500000000001 0.08 0  1.853200000000001 0.08 0  1.889899999999999 0.08 0  1.926599999999999 0.08 0  1.9633 0.08 0  2 0.08 0  0.1650000000000001 0.1 0  0.2017000000000013 0.1 0  0.2384000000000023 0.1 0  0.2751000000000033 0.1 0  0.3118000000000042 0.1 0  0.3485000000000049 0.1 0  0.3852000000000059 0.1 0  0.4219000000000066 0.1 0  0.4586000000000073 0.1 0  0.4953000000000078 0.1 0  0.5320000000000082 0.1 0  0.5687000000000086 0.1 0  0.6054000000000089 0.1 0  0.6421000000000092 0.1 0  0.6788000000000095 0.1 0  0.7155000000000095 0.1 0  0.7522000000000099 0.1 0  0.7889000000000097 0.1 0  0.8256000000000097 0.1 0  0.8623000000000097 0.1 0  0.8990000000000097 0.1 0  0.9357000000000095 0.1 0  0.9724000000000096 0.1 0  1.009100000000009 0.1 0  1.045800000000009 0.1 0  1.082500000000009 0.1 0  1.119200000000009 0.1 0  1.155900000000009 0.1 0  1.192600000000008 0.1 0  1.229300000000008 0.1 0  1.266000000000008 0.1 0  1.302700000000007 0.1 0  1.339400000000007 0.1 0  1.376100000000007 0.1 0  1.412800000000006 0.1 0  1.449500000000005 0.1 0  1.486200000000005 0.1 0  1.522900000000005 0.1 0  1.559600000000005 0.1 0  1.596300000000005 0.1 0  1.633000000000005 0.1 0  1.669700000000003 0.1 0  1.706400000000003 0.1 0  1.743100000000003 0.1 0  1.779800000000002 0.1 0  1.816500000000001 0.1 0  1.853200000000001 0.1 0  1.889899999999999 0.1 0  1.926599999999999 0.1 0  1.9633 0.1 0  2 0.1 0  0.1650000000000001 0.12 0  0.2017000000000011 0.12 0  0.2384000000000021 0.12 0  0.2751000000000031 0.12 0  0.311800000000004 0.12 0  0.3485000000000048 0.12 0  0.3852000000000056 0.12 0  0.4219000000000063 0.12 0  0.4586000000000068 0.12 0  0.4953000000000074 0.12 0  0.5320000000000079 0.12 0  0.5687000000000085 0.12 0  0.6054000000000087 0.12 0  0.642100000000009 0.12 0  0.6788000000000094 0.12 0  0.7155000000000095 0.12 0  0.7522000000000095 0.12 0  0.7889000000000095 0.12 0  0.8256000000000095 0.12 0  0.8623000000000094 0.12 0  0.8990000000000096 0.12 0  0.9357000000000093 0.12 0  0.9724000000000091 0.12 0  1.009100000000009 0.12 0  1.045800000000009 0.12 0  1.082500000000009 0.12 0  1.119200000000008 0.12 0  1.155900000000008 0.12 0  1.192600000000008 0.12 0  1.229300000000007 0.12 0  1.266000000000008 0.12 0  1.302700000000007 0.12 0  1.339400000000007 0.12 0  1.376100000000007 0.12 0  1.412800000000006 0.12 0  1.449500000000005 0.12 0  1.486200000000005 0.12 0  1.522900000000005 0.12 0  1.559600000000005 0.12 0  1.596300000000005 0.12 0  1.633000000000005 0.12 0  1.669700000000003 0.12 0  1.706400000000003 0.12 0  1.743100000000003 0.12 0  1.779800000000002 0.12 0  1.816500000000001 0.12 0  1.853200000000001 0.12 0  1.889899999999999 0.12 0  1.926599999999999 0.12 0  1.9633 0.12 0  2 0.12 0  0.1650000000000001 0.14 0  0.201700000000001 0.14 0  0.238400000000002 0.14 0  0.275100000000003 0.14 0  0.3118000000000039 0.14 0  0.3485000000000046 0.14 0  0.3852000000000053 0.14 0  0.421900000000006 0.14 0  0.4586000000000066 0.14 0  0.4953000000000071 0.14 0  0.5320000000000077 0.14 0  0.5687000000000082 0.14 0  0.6054000000000085 0.14 0  0.6421000000000089 0.14 0  0.6788000000000091 0.14 0  0.715500000000009 0.14 0  0.7522000000000092 0.14 0  0.7889000000000093 0.14 0  0.8256000000000091 0.14 0  0.8623000000000093 0.14 0  0.8990000000000093 0.14 0  0.9357000000000091 0.14 0  0.9724000000000089 0.14 0  1.009100000000009 0.14 0  1.045800000000009 0.14 0  1.082500000000008 0.14 0  1.119200000000008 0.14 0  1.155900000000008 0.14 0  1.192600000000008 0.14 0  1.229300000000007 0.
[...]
<PointData  Vectors="f_24-0"> 
<DataArray  type="Float64"  Name="f_24-0"  NumberOfComponents="3" format="ascii">1.0000000000000017e-01 0.0000000000000000e+00 0.0000000000000000e+00  9.8000000000000545e-02 0.0000000000000000e+00 0.0000000000000000e+00  9.6000000000000862e-02 0.0000000000000000e+00 0.0000000000000000e+00  9.4000000000001221e-02 0.0000000000000000e+00 0.0000000000000000e+00  9.2000000000001442e-02 0.0000000000000000e+00 0.0000000000000000e+00  9.0000000000001606e-02 0.0000000000000000e+00 0.0000000000000000e+00  8.8000000000001785e-02 0.0000000000000000e+00 0.0000000000000000e+00  8.6000000000002019e-02 0.0000000000000000e+00 0.0000000000000000e+00  8.4000000000002253e-02 0.0000000000000000e+00 0.0000000000000000e+00  8.2000000000002543e-02 0.0000000000000000e+00 0.0000000000000000e+00  8.0000000000002791e-02 0.0000000000000000e+00 0.0000000000000000e+00  7.8000000000003025e-02 0.0000000000000000e+00 0.0000000000000000e+00  7.6000000000003204e-02 0.0000000000000000e+00 0.0000000000000000e+00  7.4000000000003369e-02 0.0000000000000000e+00 0.0000000000000000e+00  7.2000000000003408e-02 0.0000000000000000e+00 0.0000000000000000e+00  7.0000000000003393e-02 0.0000000000000000e+00 0.0000000000000000e+00  6.8000000000003405e-02 0.0000000000000000e+00 0.0000000000000000e+00  6.6000000000003459e-02 0.0000000000000000e+00 0.0000000000000000e+00  6.4000000000003415e-02 0.0000000000000000e+00 0.0000000000000000e+00  6.2000000000003413e-02 0.0000000000000000e+00 0.0000000000000000e+00  6.0000000000003433e-02 0.0000000000000000e+00 0.0000000000000000e+00  5.8000000000003465e-02 0.0000000000000000e+00 0.0000000000000000e+00  5.6000000000003450e-02 0.0000000000000000e+00 0.0000000000000000e+00  5.4000000000003427e-02 0.0000000000000000e+00 0.0000000000000000e+00  5.2000000000003412e-02 0.0000000000000000e+00 0.0000000000000000e+00  5.0000000000003340e-02 0.0000000000000000e+00 0.0000000000000000e+00  4.8000000000003276e-02 0.0000000000000000e+00 0.0000000000000000e+00  4.6000000000003254e-02 0.0000000000000000e+00 0.0000000000000000e+00  4.4000000000003182e-02 0.0000000000000000e+00 0.0000000000000000e+00  4.2000000000003104e-02 0.0000000000000000e+00 0.0000000000000000e+00  4.0000000000002991e-02 0.0000000000000000e+00 0.0000000000000000e+00  3.8000000000002893e-02 0.0000000000000000e+00 0.0000000000000000e+00  3.6000000000002773e-02 0.0000000000000000e+00 0.0000000000000000e+00  3.4000000000002716e-02 0.0000000000000000e+00 0.0000000000000000e+00  3.2000000000002610e-02 0.0000000000000000e+00 0.0000000000000000e+00  3.0000000000002486e-02 0.0000000000000000e+00 0.0000000000000000e+00  2.8000000000002422e-02 0.0000000000000000e+00 0.0000000000000000e+00  2.6000000000002296e-02 0.0000000000000000e+00 0.0000000000000000e+00  2.4000000000002127e-02 0.0000000000000000e+00 0.0000000000000000e+00  2.2000000000001917e-02 0.0000000000000000e+00 0.0000000000000000e+00  2.0000000000001787e-02 0.0000000000000000e+00 0.0000000000000000e+00  1.8000000000001605e-02 0.0000000000000000e+00 0.0000000000000000e+00  1.6000000000001492e-02 0.0000000000000000e+00 0.0000000000000000e+00  1.4000000000001310e-02 0.0000000000000000e+00 0.0000000000000000e+00  1.2000000000001154e-02 0.0000000000000000e+00 0.0000000000000000e+00  1.0000000000000994e-02 0.0000000000000000e+00 0.0000000000000000e+00  8.0000000000008450e-03 0.0000000000000000e+00 0.0000000000000000e+00  6.0000000000006819e-03 0.0000000000000000e+00 0.0000000000000000e+00  4.0000000000004927e-03 0.0000000000000000e+00 0.0000000000000000e+00  2.0000000000002481e-03 0.0000000000000000e+00 0.0000000000000000e+00  9.4368957093149811e-19 0.0000000000000000e+00 0.0000000000000000e+00  1.0000000000000001e-01 0.0000000000000000e+00 0.0000000000000000e+00  9.9181064182323433e-02 9.9278518740017561e-04 0.0000000000000000e+00  9.7397046027992998e-02 1.0627591313585815e-03 0.0000000000000000e+00  9.5520270033788574e-02 1.0702832268948382e-03 0.0000000000000000e+00  9.3614079612848136e-02 1.0659328060925450e-03 0.0000000000000000e+00  9.1722650528138605e-02 1.0603480548413448e-03 0.0000000000000000e+00  8.9848077200973112e-02 1.0544907790133464e-03 0.0000000000000000e+00  8.7991688683976929e-02 1.0491702030981178e-03 0.0000000000000000e+00  8.6151964930809843e-02 1.0445459748847175e-03 0.0000000000000000e+00  8.4326817100224979e-02 1.0406295085776535e-03 0.0000000000000000e+00  8.2514063410112470e-02 1.0373704507868028e-03 0.0000000000000000e+00  8.0711651577719451e-02 1.0346911660146375e-03 0.0000000000000000e+00  7.8917758722934814e-02 1.0325087911276186e-03 0.0000000000000000e+00  7.7130816776903866e-02 1.0307432950324052e-03 0.0000000000000000e+00  7.5349508155416189e-02 1.0293216674319130e-03 0.0000000000000000e+00  7.3572745878126705e-02 1.0281795341758066e-03 0.0000000000000000e+00  7.1799647214511556e-02 1.0272615088112926e-03 0.0000000000000000e+00  7.0029505434860792e-02 1.0265208805858659e-03 0.0000000000000000e+00  6.8261762116573269e-02 1.0259189708538745e-03 0.0000000000000000e+00  6.6495981248015451e-02 1.0254243542920092e-03 0.0000000000000000e+00  6.4731825660757747e-02 1.0250120600605094e-03 0.0000000000000000e+00  6.2969035901479065e-02 1.0246628213002587e-03 0.0000000000000000e+00  6.1207411407011053e-02 1.0243624115994074e-03 0.0000000000000000e+00  5.9446793707323552e-02 1.0241010874385164e-03 0.0000000000000000e+00  5.7687051314519955e-02 1.0238731420797763e-03 0.0000000000000000e+00  5.5928065938753685e-02 1.0236765665860828e-03 0.0000000000000000e+00  5.4169719690653685e-02 1.0235128061992609e-03 0.0000000000000000e+00  5.2411882975949994e-02 1.0233865942418537e-03 0.0000000000000000e+00  5.0654402856428166e-02 1.0233058404650048e-03 0.0000000000000000e+00  4.8897091738851706e-02 1.0232815461087214e-03 0.0000000000000000e+00  4.7139716357203279e-02 1.0233277140089703e-03 0.0000000000000000e+00  4.5381987129446973e-02 1.0234612194811965e-03 0.0000000000000000e+00  4.3623548090770591e-02 1.0237016076570561e-03 0.0000000000000000e+00  4.1863967717885378e-02 1.0240707874167717e-03 0.0000000000000000e+00  4.0102731041734861e-02 1.0245926042038226e-03 0.0000000000000000e+00  3.8339233462769795e-02 1.0252922976068258e-03 0.0000000000000000e+00  3.6572776583775737e-02 1.0261958928258943e-03 0.0000000000000000e+00  3.4802566065240029e-02 1.0273296385285438e-03 0.0000000000000000e+00  3.3027710923435483e-02 1.0287197326993354e-03 0.0000000000000000e+00  3.1247222428195037e-02 1.0303926721324603e-03 0.0000000000000000e+00  2.9460009345602042e-02 1.0323771539977040e-03 0.0000000000000000e+00  2.7664860843225760e-02 1.0347077926030753e-03 0.0000000000000000e+00  2.5860410337802620e-02 1.0374364775864013e-03 0.0000000000000000e+00  2.4045031089267692e-02 1.0406418457129031e-03 0.0000000000000000e+00  2.2216708042815263e-02 1.0445034863441984e-03 0.0000000000000000e+00  2.0372406359010591e-02 1.0492324164025563e-03 0.0000000000000000e+00  1.8508151054688247e-02 1.0559379822787625e-03 0.0000000000000000e+00  1.6612879583235544e-02 1.0643860708635206e-03 0.0000000000000000e+00  1.4679522357222799e-02 1.0866841328914547e-03 0.0000000000000000e+00  1.2613548693714515e-02 1.1130735429878854e-03 0.0000000000000000e+00  1.0436451425141470e-02 1.3200957537333653e-03 0.0000000000000000e+00  1.0000000000000001e-01 0.0000000000000000e+00 0.0000000000000000e+00  9.9611162447664769e-02 1.6631024403509134e-03 0.0000000000000000e+00  9.8329169667801808e-02 1.9865808753454770e-03 0.0000000000000000e+00  9.6710786961579184e-02 2.0529443974578901e-03 0.0000000000000000e+00  9.4991927562581902e-02 2.0576405219482749e-03 0.0000000000000000e+00  9.3261934742217598e-02 2.0455878337543418e-03 0.0000000000000000e+00  9.1545093315029677e-02 2.0285919029647140e-03 0.0000000000000000e+00  8.9851435504628374e-02 2.0113857853940220e-03 0.0000000000000000e+00  8.8182346075938847e-02 1.9955965903863076e-03 0.0000000000000000e+00  8.6536474771198912e-02 1.9817928986894709e-03 0.0000000000000000e+00  8.4911247146942995e-02 1.9700581724873441e-03 0.0000000000000000e+00  8.3303775428471546e-02 1.9602628239011165e-03 0.0000000000000000e+00  8.1711252906846735e-02 1.9521910138373378e-03 0.0000000000000000e+00  8.0131133845154523e-02 1.9456004296095105e-03 0.0000000000000000e+00  7.8561202805887659e-02 1.9402528371336991e-03 0.0000000000000000e+00  7.6999585631143980e-02 1.9359287584353418e-03 0.0000000000000000e+00  7.5444730914302871e-02 1.9324339477733152e-03 0.0000000000000000e+00  7.3895377133773144e-02 1.9296013818992832e-03 0.0000000000000000e+00  7.2350513994906857e-02 1.9272908418271593e-03 0.0000000000000000e+00  7.0809342679885881e-02 1.9253872734733735e-03 0.0000000000000000e+00  6.9271237494477958e-02 1.9237986264623540e-03 0.0000000000000000e+00  6.7735710082805864e-02 1.9224535886758522e-03 0.0000000000000000e+00  6.6202376589611936e-02 1.9212994615695554e-03 0.0000000000000000e+00  6.4670927681957355e-02 1.9203003112187790e-03 0.0000000000000000e+00  6.3141101082114751e-02 1.9194354567438811e-03 0.0000000000000000e+00  6.1612656141445385e-02 1.9186983068165478e-03 0.0000000000000000e+00  6.0085349959085967e-02 1.9180955177420602e-03 0.0000000000000000e+00  5.8558914593249231e-02 1.9176464178269422e-03 0.0000000000000000e+00  5.7033035010555545e-02 1.9173826191952791e-03 0.0000000000000000e+00  5.5507327559169393e-02 1.9173477184411033e-03 0.0000000000000000e+00  5.3981318925603698e-02 1.9175969717231960e-03 0.0000000000000000e+00  5.2454425732207238e-02 1.9181968203059419e-03 0.0000000000000000e+00  5.0925935136207891e-02 1.9192241437436168e-03 0.0000000000000000e+00  4.9394986974609430e-02 1.9207651376155384e-03 0.0000000000000000e+00  4.7860558118501886e-02 1.9229137626177732e-03 0.0000000000000000e+00  4.6321449685266317e-02 1.9257698087048099e-03 0.0000000000000000e+00  4.4776277507321605e-02 1.9294367855239049e-03 0.0000000000000000e+00  4.3223465598782707e-02 1.9340201232621341e-03 0.0000000000000000e+00  4.1661241126510908e-02 1.9396265989614382e-03 0.0000000000000000e+00  4.0087626971906085e-02 1.9463665918946342e-03 0.0000000000000000e+00  3.8500424697889876e-02 1.9543618958178946e-03 0.0000000000000000e+00  3.6897171833706985e-02 1.9637638691436202e-03 0.0000000000000000e+00  3.5275054721136706e-02 1.9747905322351519e-03 0.0000000000000000e+00  3.3630701222968878e-02 1.9878005888047247e-03 0.0000000000000000e+00  3.1959869642517021e-02 2.0034395254060725e-03 0.0000000000000000e+00  3.0256414919895058e-02 2.0229686073401300e-03 0.0000000000000000e+00  2.8511773164009171e-02 2.0489536424670761e-03 0.0000000000000000e+00  2.6707305083068188e-02 2.0874329899443350e-03 0.0000000000000000e+00  2.4823249655534556e-02 2.1534121553919267e-03 0.0000000000000000e+00  2.2754321164103555e-02 2.2916421122653359e-03 0.0000000000000000e+00  2.0581656514058355e-02 2.6402472061946816e-03 0.0000000000000000e+00  1.0000000000000001e-01 0.0000000000000000e+00 0.0000000000000000e+00  9.9788397509810542e-02 2.0596573351550707e-03 0.0000000000000000e+00  9.8923382152093634e-02 2.7104959711994120e-03 0.0000000000000000e+00  9.7621352859255828e-02 2.9000829752258432e-03 0.0000000000000000e+00  9.6147473744769049e-02 2.9432827236187649e-03 0.0000000000000000e+00  9.4619505807958887e-02 2.9352831573674063e-03 0.0000000000000000e+00  9.3088003152553195e-02 2.9096116437803453e-03 0.0000000000000000e+00  9.1574385167029843e-02 2.8791857643055193e-03 0.0000000000000000e+00  9.0085915157393059e-02 2.8493328959316496e-03 0.0000000000000000e+00  8.8623985172960718e-02 2.8222451305449561e-03 0.0000000000000000e+00  8.7187066790540835e-02 2.7986603379258814e-03 0.0000000000000000e+00  8.5772474394127468e-02 2.7786424435458537e-03 0.0000000000000000e+00  8.4377166712410523e-02 2.7619400355544119e-03 0.0000000000000000e+00  8.2998167987176644e-02 2.7481686725954820e-03 0.0000000000000000e+00  8.1632766694650721e-02 2.7369051800458042e-03 0.0000000000000000e+00  8.0278596932767121e-02 2.7277364975922956e-03 0.0000000000000000e+00  7.8933655576700693e-02 2.7202841882441749e-03 0.0000000000000000e+00  7.7596284873054130e-02 2.7142154071241064e-03 0.0000000000000000e+00  7.6265137512085149e-02 2.7092463468128495e-03 0.0000000000000000e+00  7.4939133914592226e-02 2.7051415895275981e-03 0.0000000000000000e+00  7.3617417252473352e-02 2.7017113980039309e-03 0.0000000000000000e+00  7.2299309174354065e-02 2.6988081660797554e-03 0.0000000000000000e+00  7.0984267658122976e-02 2.6963227599804606e-03 0.0000000000000000e+00  6.9671847471995202e-02 2.6941811725165418e-03 0.0000000000000000e+00  6.8361663172915088e-02 2.6923417099684582e-03 0.0000000000000000e+00  6.7053354273413704e-02 2.6907927934233470e-03 0.0000000000000000e+00  6.5746552084498935e-02 2.6895513579642855e-03 0.0000000000000000e+00  6.4440847742419427e-02 2.6886617593499611e-03 0.0000000000000000e+00  6.3135761019187095e-02 2.6881950397261711e-03 0.0000000000000000e+00  6.1830709678951788e-02 2.6882483571043624e-03 0.0000000000000000e+00  6.0524979357410434e-02 2.6889443476243837e-03 0.0000000000000000e+00  5.9217694190805706e-02 2.6904301693173307e-03 0.0000000000000000e+00  5.7907788678812924e-02 2.6928759809650002e-03 0.0000000000000000e+00  5.6593981491179904e-02 2.6964726562742135e-03 0.0000000000000000e+00  5.5274752057766594e-02 2.7014286471262559e-03 0.0000000000000000e+00  5.3948320715968751e-02 2.7079661264467207e-03 0.0000000000000000e+00  5.2612632784108507e-02 2.7163169127921217e-03 0.0000000000000000e+00  5.1265345949884814e-02 2.7267192799495434e-03 0.0000000000000000e+00  4.9903818541165400e-02 2.7394177022731945e-03 0.0000000000000000e+00  4.8525092867862052e-02 2.7546690857917127e-03 0.0000000000000000e+00  4.7125862913172820e-02 2.7727614871990961e-03 0.0000000000000000e+00  4.5702404599675728e-02 2.7940556387674826e-03 0.0000000000000000e+00  4.4250439200218997e-02 2.8190678088235214e-03 0.0000000000000000e+00  4.2764843194836047e-02 2.8486299894787681e-03 0.0000000000000000e+00  4.1239182846196709e-02 2.8842032138270213e-03 0.0000000000000000e+00  3.9664498754702397e-02 2.9285192896202723e-03 0.0000000000000000e+00  3.8028344212252464e-02 2.9869806392252523e-03 0.0000000000000000e+00  3.6307809752651098e-02 3.0710665758423615e-03 0.0000000000000000e+00  3.4477794443002793e-02 3.2063635080170267e-03 0.0000000000000000e+00  3.2452096455719025e-02 3.4543443795499516e-03 0.0000000000000000e+00  3.0334253658490431e-02 3.9216019287127762e-03 0.0000000000000000e+00  1.0000000000000001e-01 0.0000000000000000e+00 0.0000000000000000e+00  9.9882651939994460e-02 2.2878410497498137e-03 0.0000000000000000e+00  9.9307845193021424e-02 3.2417922666833857e-03 0.0000000000000000e+00  9.8316083904360460e-02 3.5931844166920009e-03 0.0000000000000000e+00  9.7107683963998798e-02 3.7023605721149184e-03 0.0000000000000000e+00  9.5806625319560787e-02 3.7141386392209935e-03 0.0000000000000000e+00  9.4480236470414938e-02 3.6870623201962589e-03 0.0000000000000000e+00  9.3160217894253564e-02 3.6459957046651010e-03 0.0000000000000000e+00  9.1860658434378822e-02 3.6021910747929811e-03 0.0000000000000000e+00  9.0586662953082528e-02 3.5606890689199506e-03 0.0000000000000000e+00  8.9338703566894745e-02 3.5235832719792523e-03 0.0000000000000000e+00  8.8115063080195621e-02 3.4915144169472604e-03 0.0000000000000000e+00  8.6913069417544564e-02 3.4643993384043566e-03 0.0000000000000000e+00  8.5729784392378744e-02 3.4418115333871777e-03 0.0000000000000000e+00  8.4562358994081835e-02 3.4231831748660689e-03 0.0000000000000000e+00  8.3408209138530670e-02 3.4079143957670022e-03 0.0000000000000000e+00  8.2265087404486903e-02 3.3954314841484071e-03 0.0000000000000000e+00  8.1131095996872959e-02 3.3852162696028166e-03 0.0000000000000000e+00  8.0004667160789883e-02 3.3768190878285475e-03 0.0000000000000000e+00  7.8884526552381165e-02 3.3698624654678105e-03 0.0000000000000000e+00  7.7769648695479782e-02 3.3640397853750325e-03 0.0000000000000000e+00  7.6659209749595433e-02 3.3591115139169924e-03 0.0000000000000000e+00  7.5552540405872309e-02 3.3549005589723784e-03 0.0000000000000000e+00  7.4449080235559656e-02 3.3512876905041891e-03 0.0000000000000000e+00  7.3348333909440955e-02 3.3482075407924184e-03 0.0000000000000000e+00  7.2249829185829506e-02 3.3456454212934957e-03 0.0000000000000000e+00  7.1153076305469035e-02 3.3436349962133465e-03 0.0000000000000000e+00  7.0057528356212234e-02 3.3422567081385643e-03 0.0000000000000000e+00  6.8962542228705570e-02 3.3416367399553368e-03 0.0000000000000000e+00  6.7867339942603522e-02 3.3419462103505843e-03 0.0000000000000000e+00  6.6770970354642051e-02 3.3434002358605878e-03 0.0000000000000000e+00  6.5672271538615198e-02 3.3462564572923591e-03 0.0000000000000000e+00  6.4569834418344449e-02 3.3508126384627426e-03 0.0000000000000000e+00  6.3461968486423423e-02 3.3574030283130686e-03 0.0000000000000000e+00  6.2346670574591798e-02 3.3663933759656949e-03 0.0000000000000000e+00  6.1221597533873129e-02 3.3781748634823883e-03 0.0000000000000000e+00  6.0084043157729805e-02 3.3931578597561794e-03 0.0000000000000000e+00  5.8930918461407376e-02 3.4117674266563847e-03 0.0000000000000000e+00  5.7758732188368245e-02 3.4344441172413586e-03 0.0000000000000000e+00  5.6563564377335604e-02 3.4616561275975740e-03 0.0000000000000000e+00  5.5341019930759197e-02 3.4939329161854443e-03 0.0000000000000000e+00  5.4086136955231796e-02 3.5319373692821654e-03 0.0000000000000000e+00  5.2793215510470629e-02 3.5766062348197279e-03 0.0000000000000000e+00  5.1455477655873064e-02 3.6294147113019909e-03 0.0000000000000000e+00  5.0064535257115662e-02 3.6928737223285921e-03 0.0000000000000000e+00  4.8609157914499802e-02 3.7715017821257431e-03 0.0000000000000000e+00  4.7074398718659809e-02 3.8737631852605054e-03 0.0000000000000000e+00  4.5435914124400414e-02 4.0162260564950945e-03 0.0000000000000000e+00  4.3670400395449165e-02 4.2315497735253820e-03 0.0000000000000000e+00  4.1711413576765562e-02 4.5821447564415784e-03 0.0000000000000000e+00  3.9667598777105212e-02 5.1529547332255943e-03 0.0000000000000000e+00  1.0000000000000001e-01 0.0000000000000000e+00 0.0000000000000000e+00  9.9940341343503755e-02 2.4204423298471128e-03 0.0000000000000000e+00  9.9571646357862156e-02 3.6155138902515113e-03 0.0000000000000000e+00  9.8852060638460096e-02 4.1325851178004658e-03 0.0000000000000000e+00  9.7904786342013411e-02 4.3264835731383509e-03 0.0000000000000000e+00  9.6840309086912532e-02 4.3729986956710922e-03 0.0000000000000000e+00  9.5729907488612459e-02 4.3536141924329138e-03 0.0000000000000000e+00  9.4612286768344989e-02 4.3068731592256163e-03 0.0000000000000000e+00  9.3507320737558089e-02 4.2514016957031038e-03 0.0000000000000000e+00  9.2423890585080312e-02 4.1961722322237860e-03 0.0000000000000000e+00  9.1364885321802924e-02 4.1453343498364589e-03 0.0000000000000000e+00  9.0330012247533190e-02 4.1005361267685298e-03 0.0000000000000000e+00  8.9317394974875952e-02 4.0621231336285908e-03 0.0000000000000000e+00  8.8324495324255931e-02 4.0297782958205949e-03 0.0000000000000000e+00  8.7348623879531281e-02 4.0028729375577001e-03 0.0000000000000000e+00  8.6387216378345580e-02 3.9806626239632685e-03 0.0000000000000000e+00  8.5437968786549218e-02 3.9623956847582836e-03 0.0000000000000000e+00  8.4498889426186233e-02 3.9473716382997246e-03 0.0000000000000000e+00  8.3568302585264001e-02 3.9349704214323928e-03 0.0000000000000000e+00  8.2644824693415289e-02 3.9246646788473651e-03 0.0000000000000000e+00  8.1727325828621369e-02 3.9160224878619296e-03 0.0000000000000000e+00  8.0814884163736098e-02 3.9087050366296170e-03 0.0000000000000000e+00  7.9906737715238513e-02 3.9024620370558018e-03 0.0000000000000000e+00  7.9002235707476762e-02 3.8971265586947045e-03 0.0000000000000000e+00  7.8100790590175564e-02 3.8926102569560913e-03 0.0000000000000000e+00  7.7201830983213468e-02 3.8888994890842635e-03 0.0000000000000000e+00  7.6304755407109376e-02 3.8860524765835899e-03 0.0000000000000000e+00  7.5408886486026769e-02 3.8841974296043142e-03 0.0000000000000000e+00  7.4513425314707421e-02 3.8835313652503746e-03 0.0000000000000000e+00  7.361740