<?xml version="1.0"?>
<VTKFile type="UnstructuredGrid"  version="0.1"  >
<UnstructuredGrid>
<Piece  NumberOfPoints="2601" NumberOfCells="5000">
<Points>
<DataArray  type="Float64"  NumberOfComponents="3"  format="ascii">0.05000000000000002 0 0  0.0890000000000012 0 0  0.1280000000000022 0 0  0.167000000000003 0 0  0.2060000000000037 0 0  0.2450000000000043 0 0  0.2840000000000047 0 0  0.3230000000000053 0 0  0.3620000000000057 0 0  0.4010000000000061 0 0  0.4400000000000064 0 0  0.4790000000000066 0 0  0.5180000000000067 0 0  0.5570000000000068 0 0  0.5960000000000071 0 0  0.6350000000000071 0 0  0.6740000000000073 0 0  0.7130000000000072 0 0  0.7520000000000072 0 0  0.7910000000000071 0 0  0.8300000000000072 0 0  0.869000000000007 0 0  0.9080000000000068 0 0  0.9470000000000067 0 0  0.9860000000000064 0 0  1.025000000000006 0 0  1.064000000000006 0 0  1.103000000000006 0 0  1.142000000000006 0 0  1.181000000000006 0 0  1.220000000000006 0 0  1.259000000000005 0 0  1.298000000000005 0 0  1.337000000000005 0 0  1.376000000000005 0 0  1.415000000000004 0 0  1.454000000000004 0 0  1.493000000000003 0 0  1.532000000000003 0 0  1.571000000000004 0 0  1.610000000000003 0 0  1.649000000000003 0 0  1.688000000000001 0 0  1.727000000000002 0 0  1.766000000000002 0 0  1.805000000000002 0 0  1.844000000000002 0 0  1.883000000000001 0 0  1.922 0 0  1.961 0 0  2 0 0  0.05000000000000002 0.02 0  0.08900000000000105 0.02 0  0.1280000000000019 0.02 0  0.1670000000000028 0.02 0  0.2060000000000035 0.02 0  0.245000000000004 0.02 0  0.2840000000000046 0.02 0  0.3230000000000051 0.02 0  0.3620000000000054 0.02 0  0.4010000000000058 0.02 0  0.4400000000000062 0.02 0  0.4790000000000064 0.02 0  0.5180000000000066 0.02 0  0.5570000000000067 0.02 0  0.5960000000000069 0.02 0  0.6350000000000069 0.02 0  0.674000000000007 0.02 0  0.7130000000000071 0.02 0  0.752000000000007 0.02 0  0.791000000000007 0.02 0  0.830000000000007 0.02 0  0.8690000000000068 0.02 0  0.9080000000000067 0.02 0  0.9470000000000065 0.02 0  0.9860000000000064 0.02 0  1.025000000000006 0.02 0  1.064000000000006 0.02 0  1.103000000000006 0.02 0  1.142000000000006 0.02 0  1.181000000000006 0.02 0  1.220000000000005 0.02 0  1.259000000000005 0.02 0  1.298000000000005 0.02 0  1.337000000000005 0.02 0  1.376000000000005 0.02 0  1.415000000000004 0.02 0  1.454000000000003 0.02 0  1.493000000000003 0.02 0  1.532000000000003 0.02 0  1.571000000000004 0.02 0  1.610000000000003 0.02 0  1.649000000000003 0.02 0  1.688000000000001 0.02 0  1.727000000000002 0.02 0  1.766000000000002 0.02 0  1.805000000000002 0.02 0  1.844000000000002 0.02 0  1.883 0.02 0  1.922 0.02 0  1.961 0.02 0  2 0.02 0  0.05000000000000002 0.04 0  0.08900000000000094 0.04 0  0.1280000000000018 0.04 0  0.1670000000000026 0.04 0  0.2060000000000032 0.04 0  0.2450000000000038 0.04 0  0.2840000000000043 0.04 0  0.3230000000000048 0.04 0  0.3620000000000053 0.04 0  0.4010000000000056 0.04 0  0.4400000000000058 0.04 0  0.4790000000000061 0.04 0  0.5180000000000063 0.04 0  0.5570000000000066 0.04 0  0.5960000000000067 0.04 0  0.6350000000000068 0.04 0  0.6740000000000069 0.04 0  0.7130000000000069 0.04 0  0.7520000000000069 0.04 0  0.7910000000000068 0.04 0  0.8300000000000067 0.04 0  0.8690000000000064 0.04 0  0.9080000000000064 0.04 0  0.9470000000000064 0.04 0  0.9860000000000063 0.04 0  1.025000000000006 0.04 0  1.064000000000006 0.04 0  1.103000000000006 0.04 0  1.142000000000006 0.04 0  1.181000000000005 0.04 0  1.220000000000005 0.04 0  1.259000000000005 0.04 0  1.298000000000005 0.04 0  1.337000000000004 0.04 0  1.376000000000005 0.04 0  1.415000000000004 0.04 0  1.454000000000003 0.04 0  1.493000000000003 0.04 0  1.532000000000003 0.04 0  1.571000000000004 0.04 0  1.610000000000003 0.04 0  1.649000000000002 0.04 0  1.688000000000001 0.04 0  1.727000000000002 0.04 0  1.766000000000002 0.04 0  1.805000000000002 0.04 0  1.844000000000002 0.04 0  1.883 0.04 0  1.922 0.04 0  1.961 0.04 0  2 0.04 0  0.05000000000000002 0.06 0  0.08900000000000087 0.06 0  0.1280000000000017 0.06 0  0.1670000000000024 0.06 0  0.206000000000003 0.06 0  0.2450000000000036 0.06 0  0.2840000000000041 0.06 0  0.3230000000000046 0.06 0  0.3620000000000049 0.06 0  0.4010000000000054 0.06 0  0.4400000000000057 0.06 0  0.4790000000000059 0.06 0  0.5180000000000061 0.06 0  0.5570000000000065 0.06 0  0.5960000000000064 0.06 0  0.6350000000000066 0.06 0  0.6740000000000065 0.06 0  0.7130000000000066 0.06 0  0.7520000000000067 0.06 0  0.7910000000000066 0.06 0  0.8300000000000064 0.06 0  0.8690000000000062 0.06 0  0.9080000000000062 0.06 0  0.9470000000000063 0.06 0  0.9860000000000061 0.06 0  1.025000000000006 0.06 0  1.064000000000006 0.06 0  1.103000000000006 0.06 0  1.142000000000006 0.06 0  1.181000000000005 0.06 0  1.220000000000005 0.06 0  1.259000000000005 0.06 0  1.298000000000005 0.06 0  1.337000000000004 0.06 0  1.376000000000005 0.06 0  1.415000000000004 0.06 0  1.454000000000003 0.06 0  1.493000000000003 0.06 0  1.532000000000003 0.06 0  1.571000000000003 0.06 0  1.610000000000003 0.06 0  1.649000000000002 0.06 0  1.688000000000001 0.06 0  1.727000000000002 0.06 0  1.766000000000002 0.06 0  1.805000000000002 0.06 0  1.844000000000002 0.06 0  1.883 0.06 0  1.922 0.06 0  1.961 0.06 0  2 0.06 0  0.05000000000000002 0.08 0  0.08900000000000079 0.08 0  0.1280000000000015 0.08 0  0.1670000000000022 0.08 0  0.2060000000000029 0.08 0  0.2450000000000034 0.08 0  0.2840000000000039 0.08 0  0.3230000000000043 0.08 0  0.3620000000000048 0.08 0  0.4010000000000051 0.08 0  0.4400000000000055 0.08 0  0.4790000000000057 0.08 0  0.5180000000000059 0.08 0  0.5570000000000059 0.08 0  0.5960000000000062 0.08 0  0.6350000000000063 0.08 0  0.6740000000000065 0.08 0  0.7130000000000065 0.08 0  0.7520000000000063 0.08 0  0.7910000000000063 0.08 0  0.8300000000000063 0.08 0  0.8690000000000061 0.08 0  0.9080000000000061 0.08 0  0.9470000000000062 0.08 0  0.986000000000006 0.08 0  1.025000000000006 0.08 0  1.064000000000006 0.08 0  1.103000000000006 0.08 0  1.142000000000005 0.08 0  1.181000000000005 0.08 0  1.220000000000005 0.08 0  1.259000000000005 0.08 0  1.298000000000004 0.08 0  1.337000000000004 0.08 0  1.376000000000005 0.08 0  1.415000000000004 0.08 0  1.454000000000003 0.08 0  1.493000000000003 0.08 0  1.532000000000003 0.08 0  1.571000000000003 0.08 0  1.610000000000003 0.08 0  1.649000000000002 0.08 0  1.688000000000001 0.08 0  1.727000000000002 0.08 0  1.766000000000002 0.08 0  1.805000000000002 0.08 0  1.844000000000002 0.08 0  1.883 0.08 0  1.922 0.08 0  1.961 0.08 0  2 0.08 0  0.05000000000000002 0.1 0  0.08900000000000075 0.1 0  0.1280000000000015 0.1 0  0.1670000000000021 0.1 0  0.2060000000000027 0.1 0  0.2450000000000033 0.1 0  0.2840000000000037 0.1 0  0.3230000000000042 0.1 0  0.3620000000000046 0.1 0  0.4010000000000049 0.1 0  0.4400000000000052 0.1 0  0.4790000000000055 0.1 0  0.5180000000000056 0.1 0  0.5570000000000057 0.1 0  0.5960000000000059 0.1 0  0.6350000000000059 0.1 0  0.674000000000006 0.1 0  0.7130000000000062 0.1 0  0.7520000000000061 0.1 0  0.7910000000000061 0.1 0  0.8300000000000061 0.1 0  0.8690000000000061 0.1 0  0.9080000000000061 0.1 0  0.9470000000000061 0.1 0  0.9860000000000055 0.1 0  1.025000000000006 0.1 0  1.064000000000006 0.1 0  1.103000000000006 0.1 0  1.142000000000005 0.1 0  1.181000000000005 0.1 0  1.220000000000004 0.1 0  1.259000000000005 0.1 0  1.298000000000004 0.1 0  1.337000000000004 0.1 0  1.376000000000004 0.1 0  1.415000000000003 0.1 0  1.454000000000003 0.1 0  1.493000000000003 0.1 0  1.532000000000003 0.1 0  1.571000000000003 0.1 0  1.610000000000003 0.1 0  1.649000000000001 0.1 0  1.688000000000001 0.1 0  1.727000000000002 0.1 0  1.766000000000002 0.1 0  1.805000000000002 0.1 0  1.844000000000002 0.1 0  1.883 0.1 0  1.922 0.1 0  1.961 0.1 0  2 0.1 0  0.05000000000000002 0.12 0  0.08900000000000068 0.12 0  0.1280000000000014 0.12 0  0.167000000000002 0.12 0  0.2060000000000026 0.12 0  0.2450000000000031 0.12 0  0.2840000000000036 0.12 0  0.323000000000004 0.12 0  0.3620000000000044 0.12 0  0.4010000000000047 0.12 0  0.4400000000000051 0.12 0  0.4790000000000053 0.12 0  0.5180000000000055 0.12 0  0.5570000000000056 0.12 0  0.5960000000000059 0.12 0  0.6350000000000059 0.12 0  0.674000000000006 0.12 0  0.713000000000006 0.12 0  0.752000000000006 0.12 0  0.7910000000000059 0.12 0  0.8300000000000061 0.12 0  0.869000000000006 0.12 0  0.9080000000000059 0.12 0  0.9470000000000057 0.12 0  0.9860000000000054 0.12 0  1.025000000000006 0.12 0  1.064000000000005 0.12 0  1.103000000000005 0.12 0  1.142000000000005 0.12 0  1.181000000000004 0.12 0  1.220000000000004 0.12 0  1.259000000000005 0.12 0  1.298000000000004 0.12 0  1.337000000000004 0.12 0  1.376000000000004 0.12 0  1.415000000000003 0.12 0  1.454000000000003 0.12 0  1.493000000000003 0.12 0  1.532000000000003 0.12 0  1.571000000000003 0.12 0  1.610000000000003 0.12 0  1.649000000000001 0.12 0  1.688000000000001 0.12 0  1.727000000000002 0.12 0  1.766000000000002 0.12 0  1.805000000000002 0.12 0  1.844000000000002 0.12 0  1.883 0.12 0  1.922 0.12 0  1.961 0.12 0  2 0.12 0  0.05000000000000002 0.14 0  0.08900000000000065 0.14 0  0.1280000000000013 0.14 0  0.1670000000000018 0.14 0  0.2060000000000025 0.14 0  0.2450000000000029 0.14 0  0.2840000000000034 0.14 0  0.3230000000000038 0.14 0  0.3620000000000042 0.14 0  0.4010000000000046 0.14 0  0.4400000000000048 0.14 0  0.4790000000000051 0.14 0  0.5180000000000053 0.14 0  0.5570000000000055 0.14 0  0.5960000000000057 0.14 0  0.6350000000000057 0.14 0  0.6740000000000057 0.14 0  0.7130000000000059 0.14 0  0.7520000000000058 0.14 0  0.7910000000000059 0.14 0  0.830000000000006 0.14 0  0.8690000000000059 0.14 0  0.9080000000000058 0.14 0  0.9470000000000054 0.14 0  0.9860000000000054 0.14 0  1.025000000000005 0.14 0  1.064000000000005 0.14 0  1.103000000000005 0.14 0  1.142000000000005 0.14 0  1.181000000000004 0.14 0  1.220000000000004 0.14 0  1.259000000000004 0.14 0  1.298000000000004 0.14 0
[...]
<PointData  Vectors="f_24-0"> 
<DataArray  type="Float64"  Name="f_24-0"  NumberOfComponents="3" format="ascii">1.0000000000000017e-01 0.0000000000000000e+00 0.0000000000000000e+00  9.8000000000000767e-02 0.0000000000000000e+00 0.0000000000000000e+00  9.6000000000001431e-02 0.0000000000000000e+00 0.0000000000000000e+00  9.4000000000001901e-02 0.0000000000000000e+00 0.0000000000000000e+00  9.2000000000002261e-02 0.0000000000000000e+00 0.0000000000000000e+00  9.0000000000002578e-02 0.0000000000000000e+00 0.0000000000000000e+00  8.8000000000002854e-02 0.0000000000000000e+00 0.0000000000000000e+00  8.6000000000003074e-02 0.0000000000000000e+00 0.0000000000000000e+00  8.4000000000003322e-02 0.0000000000000000e+00 0.0000000000000000e+00  8.2000000000003598e-02 0.0000000000000000e+00 0.0000000000000000e+00  8.0000000000003832e-02 0.0000000000000000e+00 0.0000000000000000e+00  7.8000000000003969e-02 0.0000000000000000e+00 0.0000000000000000e+00  7.6000000000004092e-02 0.0000000000000000e+00 0.0000000000000000e+00  7.4000000000004201e-02 0.0000000000000000e+00 0.0000000000000000e+00  7.2000000000004311e-02 0.0000000000000000e+00 0.0000000000000000e+00  7.0000000000004364e-02 0.0000000000000000e+00 0.0000000000000000e+00  6.8000000000004418e-02 0.0000000000000000e+00 0.0000000000000000e+00  6.6000000000004444e-02 0.0000000000000000e+00 0.0000000000000000e+00  6.4000000000004442e-02 0.0000000000000000e+00 0.0000000000000000e+00  6.2000000000004413e-02 0.0000000000000000e+00 0.0000000000000000e+00  6.0000000000004335e-02 0.0000000000000000e+00 0.0000000000000000e+00  5.8000000000004270e-02 0.0000000000000000e+00 0.0000000000000000e+00  5.6000000000004241e-02 0.0000000000000000e+00 0.0000000000000000e+00  5.4000000000004170e-02 0.0000000000000000e+00 0.0000000000000000e+00  5.2000000000004057e-02 0.0000000000000000e+00 0.0000000000000000e+00  5.0000000000003889e-02 0.0000000000000000e+00 0.0000000000000000e+00  4.8000000000003783e-02 0.0000000000000000e+00 0.0000000000000000e+00  4.6000000000003614e-02 0.0000000000000000e+00 0.0000000000000000e+00  4.4000000000003481e-02 0.0000000000000000e+00 0.0000000000000000e+00  4.2000000000003326e-02 0.0000000000000000e+00 0.0000000000000000e+00  4.0000000000003193e-02 0.0000000000000000e+00 0.0000000000000000e+00  3.8000000000003031e-02 0.0000000000000000e+00 0.0000000000000000e+00  3.6000000000002842e-02 0.0000000000000000e+00 0.0000000000000000e+00  3.4000000000002618e-02 0.0000000000000000e+00 0.0000000000000000e+00  3.2000000000002457e-02 0.0000000000000000e+00 0.0000000000000000e+00  3.0000000000002292e-02 0.0000000000000000e+00 0.0000000000000000e+00  2.8000000000002179e-02 0.0000000000000000e+00 0.0000000000000000e+00  2.6000000000002028e-02 0.0000000000000000e+00 0.0000000000000000e+00  2.4000000000001836e-02 0.0000000000000000e+00 0.0000000000000000e+00  2.2000000000001668e-02 0.0000000000000000e+00 0.0000000000000000e+00  2.0000000000001544e-02 0.0000000000000000e+00 0.0000000000000000e+00  1.8000000000001386e-02 0.0000000000000000e+00 0.0000000000000000e+00  1.6000000000001267e-02 0.0000000000000000e+00 0.0000000000000000e+00  1.4000000000001086e-02 0.0000000000000000e+00 0.0000000000000000e+00  1.2000000000000925e-02 0.0000000000000000e+00 0.0000000000000000e+00  1.0000000000000751e-02 0.0000000000000000e+00 0.0000000000000000e+00  8.0000000000005796e-03 0.0000000000000000e+00 0.0000000000000000e+00  6.0000000000004659e-03 0.0000000000000000e+00 0.0000000000000000e+00  4.0000000000003505e-03 0.0000000000000000e+00 0.0000000000000000e+00  2.0000000000001748e-03 0.0000000000000000e+00 0.0000000000000000e+00  9.4368957093146344e-19 0.0000000000000000e+00 0.0000000000000000e+00  1.0000000000000001e-01 0.0000000000000000e+00 0.0000000000000000e+00  9.9138688894838803e-02 9.4075781934153566e-04 0.0000000000000000e+00  9.7330274349513468e-02 1.0021593577370859e-03 0.0000000000000000e+00  9.5447875528386711e-02 1.0068777531153253e-03 0.0000000000000000e+00  9.3542899101811239e-02 1.0018225437600974e-03 0.0000000000000000e+00  9.1656025140083669e-02 9.9613410886809713e-04 0.0000000000000000e+00  8.9787568574057217e-02 9.9042125270843513e-04 0.0000000000000000e+00  8.7937953324834783e-02 9.8538694432644082e-04 0.0000000000000000e+00  8.6105053123429545e-02 9.8111107503097319e-04 0.0000000000000000e+00  8.4286412647985157e-02 9.7756662506684705e-04 0.0000000000000000e+00  8.2479623639028818e-02 9.7467835938522588e-04 0.0000000000000000e+00  8.0682508394745292e-02 9.7235344469961602e-04 0.0000000000000000e+00  7.8893188927295299e-02 9.7049998748798276e-04 0.0000000000000000e+00  7.7110090984852470e-02 9.6903308767568226e-04 0.0000000000000000e+00  7.5331923857873170e-02 9.6787776913526580e-04 0.0000000000000000e+00  7.3557648601808287e-02 9.6696967288758759e-04 0.0000000000000000e+00  7.1786442895204333e-02 9.6625472730257867e-04 0.0000000000000000e+00  7.0017666461268335e-02 9.6568831395865598e-04 0.0000000000000000e+00  6.8250829020882198e-02 9.6523422448143749e-04 0.0000000000000000e+00  6.6485561613985777e-02 9.6486358070530095e-04 0.0000000000000000e+00  6.4721591471719020e-02 9.6455381625813687e-04 0.0000000000000000e+00  6.2958720247319591e-02 9.6428777448424288e-04 0.0000000000000000e+00  6.1196805205825426e-02 9.6405295006991561e-04 0.0000000000000000e+00  5.9435742869934090e-02 9.6384088395246319e-04 0.0000000000000000e+00  5.7675454584447783e-02 9.6364670930553778e-04 0.0000000000000000e+00  5.5915873471801457e-02 9.6346883830657367e-04 0.0000000000000000e+00  5.4156932292540934e-02 9.6330877343194020e-04 0.0000000000000000e+00  5.2398551789746166e-02 9.6317102205668024e-04 0.0000000000000000e+00  5.0640629182026518e-02 9.6306308834773939e-04 0.0000000000000000e+00  4.8883026575416461e-02 9.6299551134242122e-04 0.0000000000000000e+00  4.7125559191177405e-02 9.6298191259213425e-04 0.0000000000000000e+00  4.5367983454591851e-02 9.6303901124389585e-04 0.0000000000000000e+00  4.3609985156818624e-02 9.6318656011229909e-04 0.0000000000000000e+00  4.1851168078719893e-02 9.6344715535151971e-04 0.0000000000000000e+00  4.0091043632350498e-02 9.6384587866950365e-04 0.0000000000000000e+00  3.8329022193123452e-02 9.6440974963902431e-04 0.0000000000000000e+00  3.6564406803428769e-02 9.6516700759253268e-04 0.0000000000000000e+00  3.4796389705308982e-02 9.6614630925694457e-04 0.0000000000000000e+00  3.3024051617268693e-02 9.6737607721877309e-04 0.0000000000000000e+00  3.1246362300409173e-02 9.6888433543346815e-04 0.0000000000000000e+00  2.9462179419781662e-02 9.7070007135640897e-04 0.0000000000000000e+00  2.7670236367861274e-02 9.7285625797544789e-04 0.0000000000000000e+00  2.5869112627243170e-02 9.7540126419636333e-04 0.0000000000000000e+00  2.4057130796021880e-02 9.7840591803391420e-04 0.0000000000000000e+00  2.2232240478507800e-02 9.8204495818428436e-04 0.0000000000000000e+00  2.0391336996099331e-02 9.8649198066581454e-04 0.0000000000000000e+00  1.8530491984855478e-02 9.9291193399195991e-04 0.0000000000000000e+00  1.6638106053085501e-02 1.0006616952886146e-03 0.0000000000000000e+00  1.4708323378178734e-02 1.0229097821044932e-03 0.0000000000000000e+00  1.2638550143954834e-02 1.0455412617531377e-03 0.0000000000000000e+00  1.0458232392049380e-02 1.2615523024448797e-03 0.0000000000000000e+00  1.0000000000000001e-01 0.0000000000000000e+00 0.0000000000000000e+00  9.9579396634880524e-02 1.6004436148468063e-03 0.0000000000000000e+00  9.8246233380201692e-02 1.8835312593910630e-03 0.0000000000000000e+00  9.6604496726909558e-02 1.9351311826242606e-03 0.0000000000000000e+00  9.4878487924639904e-02 1.9343422361914402e-03 0.0000000000000000e+00  9.3150617610094189e-02 1.9203228085221563e-03 0.0000000000000000e+00  9.1440850395906409e-02 1.9029969864091960e-03 0.0000000000000000e+00  8.9756793719229400e-02 1.8863141169634555e-03 0.0000000000000000e+00  8.8098313967223493e-02 1.8714842430560383e-03 0.0000000000000000e+00  8.6463100960766592e-02 1.8588514679979760e-03 0.0000000000000000e+00  8.4847974694933381e-02 1.8483624072631469e-03 0.0000000000000000e+00  8.3249684417360539e-02 1.8398037180240761e-03 0.0000000000000000e+00  8.1665227983568039e-02 1.8329083641832002e-03 0.0000000000000000e+00  8.0091980866711307e-02 1.8274042733073181e-03 0.0000000000000000e+00  7.8527728629804838e-02 1.8230379643780026e-03 0.0000000000000000e+00  7.6970650925671097e-02 1.8195845380764065e-03 0.0000000000000000e+00  7.5419283201421231e-02 1.8168508244391412e-03 0.0000000000000000e+00  7.3872469588206827e-02 1.8146749172711760e-03 0.0000000000000000e+00  7.2329314313152288e-02 1.8129239236148419e-03 0.0000000000000000e+00  7.0789135390097541e-02 1.8114909643563778e-03 0.0000000000000000e+00  6.9251422307335553e-02 1.8102920261806887e-03 0.0000000000000000e+00  6.7715798235814070e-02 1.8092630105424185e-03 0.0000000000000000e+00  6.6181986587770053e-02 1.8083571690693287e-03 0.0000000000000000e+00  6.4649781370281365e-02 1.8075430162906782e-03 0.0000000000000000e+00  6.3119020587407815e-02 1.8068027466308120e-03 0.0000000000000000e+00  6.1589561880668740e-02 1.8061311396893587e-03 0.0000000000000000e+00  6.0061259619712440e-02 1.8055349072552641e-03 0.0000000000000000e+00  5.8533942739484257e-02 1.8050324114204650e-03 0.0000000000000000e+00  5.7007392754500640e-02 1.8046536616256183e-03 0.0000000000000000e+00  5.5481321559555860e-02 1.8044404771476246e-03 0.0000000000000000e+00  5.3955348847317522e-02 1.8044466798087628e-03 0.0000000000000000e+00  5.2428979234276286e-02 1.8047381611081478e-03 0.0000000000000000e+00  5.0901579479396053e-02 1.8053926530844260e-03 0.0000000000000000e+00  4.9372356484193608e-02 1.8064990316982502e-03 0.0000000000000000e+00  4.7840337037539989e-02 1.8081560097579837e-03 0.0000000000000000e+00  4.6304350436225841e-02 1.8104701554388591e-03 0.0000000000000000e+00  4.4763015052912782e-02 1.8135533344353196e-03 0.0000000000000000e+00  4.3214729416958114e-02 1.8175199646666823e-03 0.0000000000000000e+00  4.1657667198542726e-02 1.8224849585595196e-03 0.0000000000000000e+00  4.0089772874460271e-02 1.8285640128948800e-03 0.0000000000000000e+00  3.8508751266303237e-02 1.8358791749133727e-03 0.0000000000000000e+00  3.6912033789099102e-02 1.8445747512438372e-03 0.0000000000000000e+00  3.5296702354778657e-02 1.8548525792994632e-03 0.0000000000000000e+00  3.3659285171576646e-02 1.8670441339259309e-03 0.0000000000000000e+00  3.1995458453497383e-02 1.8817546671515335e-03 0.0000000000000000e+00  3.0298935650210745e-02 1.9001805078184559e-03 0.0000000000000000e+00  2.8561103928337519e-02 1.9247909701759899e-03 0.0000000000000000e+00  2.6762355923525553e-02 1.9613746714236095e-03 0.0000000000000000e+00  2.4883564965955215e-02 2.0249332127705261e-03 0.0000000000000000e+00  2.2806552938546460e-02 2.1599976756882969e-03 0.0000000000000000e+00  2.0626429572761194e-02 2.5216668036621166e-03 0.0000000000000000e+00  1.0000000000000001e-01 0.0000000000000000e+00 0.0000000000000000e+00  9.9767456220403047e-02 2.0024492583492577e-03 0.0000000000000000e+00  9.8849225288136597e-02 2.5869199939033386e-03 0.0000000000000000e+00  9.7508476327719848e-02 2.7430606844139923e-03 0.0000000000000000e+00  9.6015930287718612e-02 2.7707735757515656e-03 0.0000000000000000e+00  9.4483480043505347e-02 2.7559509260704162e-03 0.0000000000000000e+00  9.2956165363137888e-02 2.7278765043921151e-03 0.0000000000000000e+00  9.1451723430651208e-02 2.6974206949453897e-03 0.0000000000000000e+00  8.9974963991986179e-02 2.6688429430870454e-03 0.0000000000000000e+00  8.8525657307367250e-02 2.6437246493543677e-03 0.0000000000000000e+00  8.7101215295403031e-02 2.6224337717508698e-03 0.0000000000000000e+00  8.5698283145069706e-02 2.6048043909634383e-03 0.0000000000000000e+00  8.4313424479353846e-02 2.5904415426830337e-03 0.0000000000000000e+00  8.2943461569522745e-02 2.5788737068043821e-03 0.0000000000000000e+00  8.1585615239436499e-02 2.5696285552847561e-03 0.0000000000000000e+00  8.0237543169789288e-02 2.5622695633847345e-03 0.0000000000000000e+00  7.8897325390587303e-02 2.5564119680679845e-03 0.0000000000000000e+00  7.7563423918026828e-02 2.5517275445437687e-03 0.0000000000000000e+00  7.6234631610290107e-02 2.5479434924686527e-03 0.0000000000000000e+00  7.4910018477288190e-02 2.5448384310246229e-03 0.0000000000000000e+00  7.3588879756130141e-02 2.5422372582128050e-03 0.0000000000000000e+00  7.2270687724802468e-02 2.5400059015993409e-03 0.0000000000000000e+00  7.0955047838344387e-02 2.5380465472632477e-03 0.0000000000000000e+00  6.9641658962676461e-02 2.5362936582333196e-03 0.0000000000000000e+00  6.8330277037031303e-02 2.5347109165202312e-03 0.0000000000000000e+00  6.7020681288089454e-02 2.5332891052007433e-03 0.0000000000000000e+00  6.5712642069578969e-02 2.5320448647659904e-03 0.0000000000000000e+00  6.4405889463893640e-02 2.5310201954078415e-03 0.0000000000000000e+00  6.3100081930923868e-02 2.5302825238162126e-03 0.0000000000000000e+00  6.1794774509896781e-02 2.5299251033729063e-03 0.0000000000000000e+00  6.0489386364968561e-02 2.5300674685180004e-03 0.0000000000000000e+00  5.9183167807046279e-02 2.5308556206820065e-03 0.0000000000000000e+00  5.7875167308040133e-02 2.5324615942614159e-03 0.0000000000000000e+00  5.6564199417703603e-02 2.5350820554168219e-03 0.0000000000000000e+00  5.5248814836442887e-02 2.5389356550096134e-03 0.0000000000000000e+00  5.3927274080506821e-02 2.5442590372090380e-03 0.0000000000000000e+00  5.2597526026246143e-02 2.5513017663904231e-03 0.0000000000000000e+00  5.1257191840873365e-02 2.5603210757799430e-03 0.0000000000000000e+00  4.9903553051091717e-02 2.5715784046999252e-03 0.0000000000000000e+00  4.8533538857889927e-02 2.5853414007140189e-03 0.0000000000000000e+00  4.7143702361489473e-02 2.6018978048586543e-03 0.0000000000000000e+00  4.5730162457191005e-02 2.6215922407864215e-03 0.0000000000000000e+00  4.4288480419740782e-02 2.6449052155303695e-03 0.0000000000000000e+00  4.2813372063559216e-02 2.6726105738667421e-03 0.0000000000000000e+00  4.1298245089984580e-02 2.7060859113531956e-03 0.0000000000000000e+00  3.9733879165796071e-02 2.7479480084889561e-03 0.0000000000000000e+00  3.8107524691589408e-02 2.8034387437951484e-03 0.0000000000000000e+00  3.6394776802073189e-02 2.8838783592146458e-03 0.0000000000000000e+00  3.4569707441901860e-02 3.0150604447784441e-03 0.0000000000000000e+00  3.2532268227568349e-02 3.2620273591622974e-03 0.0000000000000000e+00  3.0404480851902404e-02 3.7453372418306025e-03 0.0000000000000000e+00  1.0000000000000001e-01 0.0000000000000000e+00 0.0000000000000000e+00  9.9869124079706620e-02 2.2380638423610500e-03 0.0000000000000000e+00  9.9249283187663212e-02 3.1129929701269308e-03 0.0000000000000000e+00  9.8212202993740907e-02 3.4122252908568920e-03 0.0000000000000000e+00  9.6975629881194209e-02 3.4928133094707190e-03 0.0000000000000000e+00  9.5662338082784279e-02 3.4901533113268278e-03 0.0000000000000000e+00  9.4335132570143365e-02 3.4566858591344447e-03 0.0000000000000000e+00  9.3021596946336035e-02 3.4138542900849595e-03 0.0000000000000000e+00  9.1732734463136956e-02 3.3709712915382787e-03 0.0000000000000000e+00  9.0471471153516572e-02 3.3319130127134550e-03 0.0000000000000000e+00  8.9236785393999166e-02 3.2980512547016142e-03 0.0000000000000000e+00  8.8025971839115660e-02 3.2695678415568001e-03 0.0000000000000000e+00  8.6835738339673188e-02 3.2460867653220870e-03 0.0000000000000000e+00  8.5662792411854760e-02 3.2269981378679653e-03 0.0000000000000000e+00  8.4504119786127513e-02 3.2116246823396342e-03 0.0000000000000000e+00  8.3357102726217977e-02 3.1993074875233101e-03 0.0000000000000000e+00  8.2219548948430324e-02 3.1894477839537689e-03 0.0000000000000000e+00  8.1089673140770369e-02 3.1815245027045666e-03 0.0000000000000000e+00  7.9966054830408306e-02 3.1750985695024464e-03 0.0000000000000000e+00  7.8847586169046455e-02 3.1698102209274507e-03 0.0000000000000000e+00  7.7733417187377279e-02 3.1653730518948942e-03 0.0000000000000000e+00  7.6622902434007642e-02 3.1615669941025167e-03 0.0000000000000000e+00  7.5515550716301227e-02 3.1582315140863855e-03 0.0000000000000000e+00  7.4410978341367284e-02 3.1552597505400699e-03 0.0000000000000000e+00  7.3308865492853953e-02 3.1525939457533562e-03 0.0000000000000000e+00  7.2208914977276925e-02 3.1502222849574611e-03 0.0000000000000000e+00  7.1110812412744431e-02 3.1481770906870740e-03 0.0000000000000000e+00  7.0014186940548048e-02 3.1465341953993168e-03 0.0000000000000000e+00  6.8918571673367804e-02 3.1454132141793727e-03 0.0000000000000000e+00  6.7823363328409922e-02 3.1449783484882822e-03 0.0000000000000000e+00  6.6727780814939477e-02 3.1454392674839893e-03 0.0000000000000000e+00  6.5630822940035749e-02 3.1470515402778638e-03 0.0000000000000000e+00  6.4531225842664477e-02 3.1501160467782554e-03 0.0000000000000000e+00  6.3427421223074695e-02 3.1549768080502802e-03 0.0000000000000000e+00  6.2317496825883077e-02 3.1620168015998283e-03 0.0000000000000000e+00  6.1199160827166414e-02 3.1716516424784404e-03 0.0000000000000000e+00  6.0069711557882925e-02 3.1843216337629631e-03 0.0000000000000000e+00  5.8926013015489262e-02 3.2004837855256442e-03 0.0000000000000000e+00  5.7764474443645887e-02 3.2206072069094409e-03 0.0000000000000000e+00  5.6581027892243375e-02 3.2451781593018001e-03 0.0000000000000000e+00  5.5371091034216724e-02 3.2747256275477751e-03 0.0000000000000000e+00  5.4129488062557921e-02 3.3098858228415703e-03 0.0000000000000000e+00  5.2850291294315711e-02 3.3515370650521494e-03 0.0000000000000000e+00  5.1526478980568897e-02 3.4010627325704972e-03 0.0000000000000000e+00  5.0149389796784169e-02 3.4608517775846621e-03 0.0000000000000000e+00  4.8707348182416496e-02 3.5352834951202258e-03 0.0000000000000000e+00  4.7184757504785874e-02 3.6327060217752200e-03 0.0000000000000000e+00  4.5555158298497177e-02 3.7698135580896872e-03 0.0000000000000000e+00  4.3793393114307043e-02 3.9804577797074945e-03 0.0000000000000000e+00  4.1820057450339572e-02 4.3325506777485570e-03 0.0000000000000000e+00  3.9764676936124829e-02 4.9221363838893644e-03 0.0000000000000000e+00  1.0000000000000001e-01 0.0000000000000000e+00 0.0000000000000000e+00  9.9932030631092045e-02 2.3766674223176039e-03 0.0000000000000000e+00  9.9528190074154130e-02 3.4893862473531446e-03 0.0000000000000000e+00  9.8764293417162627e-02 3.9400187168848700e-03 0.0000000000000000e+00  9.7783456514186531e-02 4.0919410488879848e-03 0.0000000000000000e+00  9.6700119888466718e-02 4.1147398600725818e-03 0.0000000000000000e+00  9.5583383702258787e-02 4.0833566263361034e-03 0.0000000000000000e+00  9.4468327558837037e-02 4.0318914058001714e-03 0.0000000000000000e+00  9.3371600864937968e-02 3.9761522142577870e-03 0.0000000000000000e+00  9.2299580696293335e-02 3.9233180708936645e-03 0.0000000000000000e+00  9.1253334058387453e-02 3.8763814661722292e-03 0.0000000000000000e+00  9.0231303573821892e-02 3.8362336582934897e-03 0.0000000000000000e+00  8.9230778182241399e-02 3.8027254601369093e-03 0.0000000000000000e+00  8.8248707509938212e-02 3.7752212328574929e-03 0.0000000000000000e+00  8.7282126083000844e-02 3.7528945492397575e-03 0.0000000000000000e+00  8.6328362367217956e-02 3.7348865407203719e-03 0.0000000000000000e+00  8.5385122286853271e-02 3.7203880012196639e-03 0.0000000000000000e+00  8.4450502723710380e-02 3.7086786844701260e-03 0.0000000000000000e+00  8.3522966923670727e-02 3.6991424761994175e-03 0.0000000000000000e+00  8.2601300780043338e-02 3.6912693351115865e-03 0.0000000000000000e+00  8.1684560957236363e-02 3.6846504866070214e-03 0.0000000000000000e+00  8.0772020930544128e-02 3.6789707655459571e-03 0.0000000000000000e+00  7.9863118000458547e-02 3.6740004334923082e-03 0.0000000000000000e+00  7.8957402487479317e-02 3.6695878123616022e-03 0.0000000000000000e+00  7.8054489205578531e-02 3.6656534452726734e-03 0.0000000000000000e+00  7.7154010689781199e-02 3.6621860787751535e-03 0.0000000000000000e+00  7.6255571355574675e-02 3.6592404743037306e-03 0.0000000000000000e+00  7.5358701696086813e-02 3.6569368470820793e-03 0.0000000000000000e+00  7.4462811717321428e-02 3.6554615634504504e-03 0.0000000000000000e+00  7.356714