<?xml version="1.0"?>
<VTKFile type="UnstructuredGrid"  version="0.1"  >
<UnstructuredGrid>
<Piece  NumberOfPoints="1419" NumberOfCells="2698">
<Points>
<DataArray  type="Float64"  NumberOfComponents="3"  format="ascii">0 0 0  0 0.41 0  2.5 0 0  2.5 0.41 0  0.6 0.19 0  0.6 0.21 0  0.25 0.2 0  0.15 0.2 0  0.2489897948556636 0.21 0  0.2489897948556636 0.19 0  0.6 0.2 0  0 0.3807142857143437 0  0 0.3514285714286952 0  0 0.3221428571430699 0  0 0.29285714285744 0  0 0.2635714285718054 0  0 0.2342857142861561 0  0 0.2050000000005308 0  0 0.175714285714732 0  0 0.1464285714289574 0  0 0.1171428571431897 0  0 0.08785714285737878 0  0 0.05857142857161107 0  0 0.02928571428580012 0  0.03015443760436003 0 0  0.06140001986583606 0 0  0.09377624077125973 0 0  0.1273239957535082 0 0  0.1620856860351972 0 0  0.1981052433264291 0 0  0.235428184091502 0 0  0.2741016576309132 0 0  0.3141745521465447 0 0  0.3556974926295285 0 0  0.3987229542472677 0 0  0.4433053055141081 0 0  0.4895008759286886 0 0  0.5373680609405097 0 0  0.5869673343216626 0 0  0.6383613676634521 0 0  0.6916151138468254 0 0  0.7467958595648856 0 0  0.8039733463919316 0 0  0.8632198139502143 0 0  0.9246101326867038 0 0  0.9882218810934433 0 0  1.054135445558498 0 0  1.122434100542598 0 0  1.193204177141305 0 0  1.266535089879536 0 0  1.342519516046404 0 0  1.421253448503939 0 0  1.502836389106271 0 0  1.587371439758838 0 0  1.674965418777374 0 0  1.765729001825544 0 0  1.859776908880082 0 0  1.957227977487062 0 0  2.058205329869943 0 0  2.162836591189951 0 0  2.271253957290865 0 0  2.383594446803425 0 0  2.5 0.1024999999997612 0  2.5 0.2049999999994743 0  2.5 0.3074999999997183 0  2.383594446803656 0.41 0  2.271253957291315 0.41 0  2.162836591190598 0.41 0  2.058205329870775 0.41 0  1.957227977488067 0.41 0  1.859776908881246 0.41 0  1.765729001826854 0.41 0  1.674965418778818 0.41 0  1.58737143976041 0.41 0  1.502836389107956 0.41 0  1.421253448505726 0.41 0  1.342519516048286 0.41 0  1.266535089881505 0.41 0  1.193204177143353 0.41 0  1.122434100544716 0.41 0  1.05413544556068 0.41 0  0.9882218810956305 0.41 0  0.9246101326886647 0.41 0  0.8632198139519631 0.41 0  0.8039733463934788 0.41 0  0.7467958595662458 0.41 0  0.6916151138480078 0.41 0  0.6383613676644679 0.41 0  0.5869673343225223 0.41 0  0.5373680609412221 0.41 0  0.4895008759292634 0.41 0  0.4433053055145528 0.41 0  0.3987229542475914 0.41 0  0.3556974926297398 0.41 0  0.3141745521466497 0.41 0  0.2741016576310038 0.41 0  0.2354281840915826 0.41 0  0.1981052433265003 0.41 0  0.1620856860352591 0.41 0  0.1273239957535623 0.41 0  0.09377624077128965 0.41 0  0.06140001986584975 0.41 0  0.03015443760436654 0.41 0  0.2497468076502589 0.2050254481002335 0  0.2497468076502614 0.1949745518997913 0  0.2469965252529372 0.1829317073451959 0  0.2439893735792749 0.1762316384219906 0  0.2400332147834255 0.1700443375285386 0  0.2352133972704371 0.1645032867342007 0  0.2296339016332438 0.1597280261969788 0  0.2234150974217223 0.1558215752574715 0  0.2166911463437691 0.1528682099456123 0  0.2096071079204251 0.1509316448471593 0  0.2023158100364996 0.1500536585536553 0  0.194974551899914 0.1502531923497262 0  0.1877417105387872 0.1515259415822739 0  0.1807733240461124 0.153844448527136 0  0.1742197252835808 0.15715869474974 0  0.1682222986673531 0.1613971801805478 0  0.162910430003803 0.1664684656256651 0  0.1583987151779087 0.1722631454351573 0  0.1547844879126891 0.178656207771761 0  0.1521457199348551 0.1855097315605723 0  0.1505393388476355 0.1926758619366523 0  0.1505393388476328 0.2073241380633295 0  0.1521457199348437 0.2144902684393899 0  0.1547844879126531 0.221343792228163 0  0.1583987151778488 0.2277368545647528 0  0.1629104300036858 0.2335315343742052 0  0.1682222986671726 0.2386028198193036 0  0.1742197252833576 0.2428413052501257 0  0.1807733240458683 0.2461555514727623 0  0.1877417105384929 0.2484740584176516 0  0.1949745518995776 0.2497468076502398 0  0.202315810036185 0.2499463414463592 0  0.2096071079201568 0.2490683551528932 0  0.2166911463435495 0.2471317900544655 0  0.2234150974215506 0.2441784247426195 0  0.2296339016331197 0.2402719738031125 0  0.2352133972703547 0.2354967132658811 0  0.2400332147833751 0.2299556624715287 0  0.2439893735792577 0.2237683615780412 0  0.246996525252926 0.2170682926548348 0  0.25645809709277 0.21 0  0.2639263993298655 0.21 0  0.271394701566961 0.21 0  0.2788630038040554 0.21 0  0.2863313060411479 0.21 0  0.2937996082782405 0.21 0  0.301267910515333 0.21 0  0.3087362127524279 0.21 0  0.3162045149895234 0.21 0  0.3236728172265972 0.21 0  0.3311411194636928 0.21 0  0.3386094217007701 0.21 0  0.3460777239378666 0.21 0  0.3535460261749672 0.21 0  0.3610143284120516 0.21 0  0.3684826306491596 0.21 0  0.3759509328862226 0.21 0  0.383419235123329 0.21 0  0.3908875373604028 0.21 0  0.3983558395975142 0.21 0  0.4058241418345938 0.21 0  0.4132924440716992 0.21 0  0.4207607463087888 0.21 0  0.4282290485459029 0.21 0  0.4356973507830418 0.21 0  0.4431656530201649 0.21 0  0.4506339552573136 0.21 0  0.4581022574944306 0.21 0  0.4655705597315852 0.21 0  0.4730388619686996 0.21 0  0.480507164205851 0.21 0  0.4879754664429498 0.21 0  0.4954437686800938 0.21 0  0.502912070917267 0.21 0  0.5103803731544119 0.21 0  0.5178486753915261 0.21 0  0.5253169776286404 0.21 0  0.5327852798657868 0.21 0  0.5402535821029386 0.21 0  0.54772188434007 0.21 0  0.5551901865771842 0.21 0  0.5626584888143201 0.21 0  0.5701267910514778 0.21 0  0.5775950932886138 0.21 0  0.5850633955257281 0.21 0  0.5925316977628483 0.21 0  0.6 0.2050000000000054 0  0.6 0.1950000000000217 0  0.5925316977628897 0.19 0  0.5850633955257988 0.19 0  0.5775950932887378 0.19 0  0.5701267910515998 0.19 0  0.5626584888145268 0.19 0  0.5551901865773963 0.19 0  0.547721884340339 0.19 0  0.5402535821032429 0.19 0  0.5327852798661811 0.19 0  0.5253169776290537 0.19 0  0.5178486753919799 0.19 0  0.5103803731549078 0.19 0  0.502912070917822 0.19 0  0.4954437686807294 0.19 0  0.4879754664436223 0.19 0  0.4805071642065402 0.19 0  0.4730388619694271 0.19 0  0.4655705597323621 0.19 0  0.4581022574952563 0.19 0  0.4506339552581777 0.19 0  0.4431656530210671 0.19 0  0.4356973507839815 0.19 0  0.4282290485468779 0.19 0  0.4207607463097617 0.19 0  0.4132924440726327 0.19 0  0.4058241418354857 0.19 0  0.3983558395983636 0.19 0  0.3908875373612097 0.19 0  0.3834192351240934 0.19 0  0.3759509328869369 0.19 0  0.3684826306498175 0.19 0  0.361014328412667 0.19 0  0.3535460261755617 0.19 0  0.3460777239384295 0.19 0  0.3386094217012945 0.19 0  0.3311411194641595 0.19 0  0.3236728172270245 0.19 0  0.3162045149898895 0.19 0  0.3087362127527544 0.19 0  0.3012679105156187 0.19 0  0.2937996082784807 0.19 0  0.2863313060413428 0.19 0  0.2788630038042048 0.19 0  0.2713947015670686 0.19 0  0.2639263993299336 0.19 0  0.2564580970927985 0.19 0  0.2607803159922026 0.2000727136295815 0  0.5887803774232762 0.2001272386983733 0  0.5745072403740523 0.2002044435018727 0  0.5511891430099709 0.2001122610077113 0  0.2751288526855082 0.20000000000002 0  0.5365194309847112 0.1999999999999436 0  0.2894621222999649 0.1998691686390484 0  0.5215828265105155 0.1999999999999228 0  0.3127789816668748 0.1998657885438805 0  0.3274069683451451 0.2000000000000796 0  0.5066462220363641 0.199999999999908 0  0.3650630746574081 0.199866017807523 0  0.476773013087985 0.1999999999998713 0  0.3417402379596385 0.1998691686391011 0  0.3796850840047755 0.200000000000134 0  0.4618364086138087 0.1999999999998546 0  0.4917096175621762 0.1999999999998808 0  0.3946216884789568 0.2000000000001512 0  0.446899804139621 0.1999999999998389 0  0.4089549580935208 0.1998691686391595 0  0.4322718174608562 0.200127451265745 0  0.4201487168029707 0.1999966199048527 0  0.3528922713220932 0.2000185703532356 0  0.5633122436674589 0.1999814296467508 0  0.3006558810093873 0.1999966199048318 0  0.5815926498168407 0.1966545283159175 0  0.2677053789419034 0.1964246479135325 0  0.5290511287476175 0.1970915826863981 0  0.5439877332217911 0.197091582686394 0  0.2825131256993216 0.2035478995978015 0  0.3199386661080599 0.202908417313604 0  0.4842413153250809 0.1970915826863873 0  0.5141145242734466 0.1970915826863843 0  0.3722167817676917 0.2029084173136195 0  0.4693047108508938 0.1970915826863783 0  0.3348752705822316 0.202908417313609 0  0.3871533862418661 0.2029084173136212 0  0.4543681063767183 0.1970915826863795 0  0.4991779197992749 0.1970915826863902 0  0.4020059614928624 0.203547899597858 0  0.4394315019025246 0.1970915826863714 0  0.2550657455369551 0.2034088125358657 0  0.2548908499171161 0.1966940311614271 0  0.5946539510196798 0.2024302972968126 0  0.267698176732111 0.2039977513680092 0  0.4261685417851465 0.196409292431739 0  0.3590076176283495 0.196411355804271 0  0.5571672426447437 0.2036011176410121 0  0.3066757059912147 0.1964092924317024 0  0.594380730180568 0.1966558399668133 0  0.4842413153245942 0.2040749161535287 0  0.4693047108503577 0.2040749161535231 0  0.3871533862424271 0.1959250838464788 0  0.372246743208829 0.1959123236376545 0  0.5141145242731028 0.2040749161535395 0  0.4543681063761134 0.2040749161535186 0  0.4019979587101454 0.1959834479682427 0  0.4394608940728603 0.2040870543693135 0  0.5439623148931173 0.2040856076781014 0  0.5290511287473298 0.2040749161535501 0  0.4991779197988497 0.2040749161535382 0  0.3347912413592433 0.1959225448935183 0  0.3199680582793816 0.1959123018030061 0  0.2825051229162361 0.1959834479681729 0  0.3590471196690275 0.2036304442587945 0  0.5571594006495384 0.1963685282145804 0  0.3067669986803285 0.203627750582736 0  0.4262598344738712 0.2036568242185335 0  0.5814408164431408 0.2041285596160068 0  0.5688286748170428 0.1961819304477386 0  0.4145905603063645 0.2038180695522843 0  0.3473758401724931 0.2038180695522752 0  0.2950977245128307 0.2038180695522663 0  0.5688286748170693 0.203818069552238 0  0.2950977245127906 0.1961819304477774 0  0.3473758401723931 0.1961819304478349 0  0.4145905603061963 0.1961819304479011 0  0.2601812407614425 0.2056861609747042
[...]
<PointData  Vectors="f_40-1"> 
<DataArray  type="Float64"  Name="f_40-1"  NumberOfComponents="3" format="ascii">0.0000000000000000e+00 0.0000000000000000e+00 0.0000000000000000e+00  0.0000000000000000e+00 0.0000000000000000e+00 0.0000000000000000e+00  0.0000000000000000e+00 0.0000000000000000e+00 0.0000000000000000e+00  0.0000000000000000e+00 0.0000000000000000e+00 0.0000000000000000e+00  -1.3998622314557340e-04 -1.7060923554186537e-03 0.0000000000000000e+00  -5.2343321988783581e-05 -1.7049825444257606e-03 0.0000000000000000e+00  0.0000000000000000e+00 0.0000000000000000e+00 0.0000000000000000e+00  0.0000000000000000e+00 0.0000000000000000e+00 0.0000000000000000e+00  0.0000000000000000e+00 0.0000000000000000e+00 0.0000000000000000e+00  0.0000000000000000e+00 0.0000000000000000e+00 0.0000000000000000e+00  -9.5902386546479196e-05 -1.7057414405865544e-03 0.0000000000000000e+00  0.0000000000000000e+00 0.0000000000000000e+00 0.0000000000000000e+00  0.0000000000000000e+00 0.0000000000000000e+00 0.0000000000000000e+00  0.0000000000000000e+00 0.0000000000000000e+00 0.0000000000000000e+00  0.0000000000000000e+00 0.0000000000000000e+00 0.0000000000000000e+00  0.0000000000000000e+00 0.0000000000000000e+00 0.0000000000000000e+00  0.0000000000000000e+00 0.0000000000000000e+00 0.0000000000000000e+00  0.0000000000000000e+00 0.0000000000000000e+00 0.0000000000000000e+00  0.0000000000000000e+00 0.0000000000000000e+00 0.0000000000000000e+00  0.0000000000000000e+00 0.0000000000000000e+00 0.0000000000000000e+00  0.0000000000000000e+00 0.0000000000000000e+00 0.0000000000000000e+00  0.0000000000000000e+00 0.0000000000000000e+00 0.0000000000000000e+00  0.0000000000000000e+00 0.0000000000000000e+00 0.0000000000000000e+00  0.0000000000000000e+00 0.0000000000000000e+00 0.0000000000000000e+00  0.0000000000000000e+00 0.0000000000000000e+00 0.0000000000000000e+00  0.0000000000000000e+00 0.0000000000000000e+00 0.0000000000000000e+00  0.0000000000000000e+00 0.0000000000000000e+00 0.0000000000000000e+00  0.0000000000000000e+00 0.0000000000000000e+00 0.0000000000000000e+00  0.0000000000000000e+00 0.0000000000000000e+00 0.0000000000000000e+00  0.0000000000000000e+00 0.0000000000000000e+00 0.0000000000000000e+00  0.0000000000000000e+00 0.0000000000000000e+00 0.0000000000000000e+00  0.0000000000000000e+00 0.0000000000000000e+00 0.0000000000000000e+00  0.0000000000000000e+00 0.0000000000000000e+00 0.0000000000000000e+00  0.0000000000000000e+00 0.0000000000000000e+00 0.0000000000000000e+00  0.0000000000000000e+00 0.0000000000000000e+00 0.0000000000000000e+00  0.0000000000000000e+00 0.0000000000000000e+00 0.0000000000000000e+00  0.0000000000000000e+00 0.0000000000000000e+00 0.0000000000000000e+00  0.0000000000000000e+00 0.0000000000000000e+00 0.0000000000000000e+00  0.0000000000000000e+00 0.0000000000000000e+00 0.0000000000000000e+00  0.0000000000000000e+00 0.0000000000000000e+00 0.0000000000000000e+00  0.0000000000000000e+00 0.0000000000000000e+00 0.0000000000000000e+00  0.0000000000000000e+00 0.0000000000000000e+00 0.0000000000000000e+00  0.0000000000000000e+00 0.0000000000000000e+00 0.0000000000000000e+00  0.0000000000000000e+00 0.0000000000000000e+00 0.0000000000000000e+00  0.0000000000000000e+00 0.0000000000000000e+00 0.0000000000000000e+00  0.0000000000000000e+00 0.0000000000000000e+00 0.0000000000000000e+00  0.0000000000000000e+00 0.0000000000000000e+00 0.0000000000000000e+00  0.0000000000000000e+00 0.0000000000000000e+00 0.0000000000000000e+00  0.0000000000000000e+00 0.0000000000000000e+00 0.0000000000000000e+00  0.0000000000000000e+00 0.0000000000000000e+00 0.0000000000000000e+00  0.0000000000000000e+00 0.0000000000000000e+00 0.0000000000000000e+00  0.0000000000000000e+00 0.0000000000000000e+00 0.0000000000000000e+00  0.0000000000000000e+00 0.0000000000000000e+00 0.0000000000000000e+00  0.0000000000000000e+00 0.0000000000000000e+00 0.0000000000000000e+00  0.0000000000000000e+00 0.0000000000000000e+00 0.0000000000000000e+00  0.0000000000000000e+00 0.0000000000000000e+00 0.0000000000000000e+00  0.0000000000000000e+00 0.0000000000000000e+00 0.0000000000000000e+00  0.0000000000000000e+00 0.0000000000000000e+00 0.0000000000000000e+00  0.0000000000000000e+00 0.0000000000000000e+00 0.0000000000000000e+00  0.0000000000000000e+00 0.0000000000000000e+00 0.0000000000000000e+00  0.0000000000000000e+00 0.0000000000000000e+00 0.0000000000000000e+00  0.0000000000000000e+00 0.0000000000000000e+00 0.0000000000000000e+00  0.0000000000000000e+00 0.0000000000000000e+00 0.0000000000000000e+00  0.0000000000000000e+00 0.0000000000000000e+00 0.0000000000000000e+00  0.0000000000000000e+00 0.0000000000000000e+00 0.0000000000000000e+00  0.0000000000000000e+00 0.0000000000000000e+00 0.0000000000000000e+00  0.0000000000000000e+00 0.0000000000000000e+00 0.0000000000000000e+00  0.0000000000000000e+00 0.0000000000000000e+00 0.0000000000000000e+00  0.0000000000000000e+00 0.0000000000000000e+00 0.0000000000000000e+00  0.0000000000000000e+00 0.0000000000000000e+00 0.0000000000000000e+00  0.0000000000000000e+00 0.0000000000000000e+00 0.0000000000000000e+00  0.0000000000000000e+00 0.0000000000000000e+00 0.0000000000000000e+00  0.0000000000000000e+00 0.0000000000000000e+00 0.0000000000000000e+00  0.0000000000000000e+00 0.0000000000000000e+00 0.0000000000000000e+00  0.0000000000000000e+00 0.0000000000000000e+00 0.0000000000000000e+00  0.0000000000000000e+00 0.0000000000000000e+00 0.0000000000000000e+00  0.0000000000000000e+00 0.0000000000000000e+00 0.0000000000000000e+00  0.0000000000000000e+00 0.0000000000000000e+00 0.0000000000000000e+00  0.0000000000000000e+00 0.0000000000000000e+00 0.0000000000000000e+00  0.0000000000000000e+00 0.0000000000000000e+00 0.0000000000000000e+00  0.0000000000000000e+00 0.0000000000000000e+00 0.0000000000000000e+00  0.0000000000000000e+00 0.0000000000000000e+00 0.0000000000000000e+00  0.0000000000000000e+00 0.0000000000000000e+00 0.0000000000000000e+00  0.0000000000000000e+00 0.0000000000000000e+00 0.0000000000000000e+00  0.0000000000000000e+00 0.0000000000000000e+00 0.0000000000000000e+00  0.0000000000000000e+00 0.0000000000000000e+00 0.0000000000000000e+00  0.0000000000000000e+00 0.0000000000000000e+00 0.0000000000000000e+00  0.0000000000000000e+00 0.0000000000000000e+00 0.0000000000000000e+00  0.0000000000000000e+00 0.0000000000000000e+00 0.0000000000000000e+00  0.0000000000000000e+00 0.0000000000000000e+00 0.0000000000000000e+00  0.0000000000000000e+00 0.0000000000000000e+00 0.0000000000000000e+00  0.0000000000000000e+00 0.0000000000000000e+00 0.0000000000000000e+00  0.0000000000000000e+00 0.0000000000000000e+00 0.0000000000000000e+00  0.0000000000000000e+00 0.0000000000000000e+00 0.0000000000000000e+00  0.0000000000000000e+00 0.0000000000000000e+00 0.0000000000000000e+00  0.0000000000000000e+00 0.0000000000000000e+00 0.0000000000000000e+00  0.0000000000000000e+00 0.0000000000000000e+00 0.0000000000000000e+00  0.0000000000000000e+00 0.0000000000000000e+00 0.0000000000000000e+00  0.0000000000000000e+00 0.0000000000000000e+00 0.0000000000000000e+00  0.0000000000000000e+00 0.0000000000000000e+00 0.0000000000000000e+00  0.0000000000000000e+00 0.0000000000000000e+00 0.0000000000000000e+00  0.0000000000000000e+00 0.0000000000000000e+00 0.0000000000000000e+00  0.0000000000000000e+00 0.0000000000000000e+00 0.0000000000000000e+00  0.0000000000000000e+00 0.0000000000000000e+00 0.0000000000000000e+00  0.0000000000000000e+00 0.0000000000000000e+00 0.0000000000000000e+00  0.0000000000000000e+00 0.0000000000000000e+00 0.0000000000000000e+00  0.0000000000000000e+00 0.0000000000000000e+00 0.0000000000000000e+00  0.0000000000000000e+00 0.0000000000000000e+00 0.0000000000000000e+00  0.0000000000000000e+00 0.0000000000000000e+00 0.0000000000000000e+00  0.0000000000000000e+00 0.0000000000000000e+00 0.0000000000000000e+00  0.0000000000000000e+00 0.0000000000000000e+00 0.0000000000000000e+00  0.0000000000000000e+00 0.0000000000000000e+00 0.0000000000000000e+00  0.0000000000000000e+00 0.0000000000000000e+00 0.0000000000000000e+00  0.0000000000000000e+00 0.0000000000000000e+00 0.0000000000000000e+00  0.0000000000000000e+00 0.0000000000000000e+00 0.0000000000000000e+00  0.0000000000000000e+00 0.0000000000000000e+00 0.0000000000000000e+00  0.0000000000000000e+00 0.0000000000000000e+00 0.0000000000000000e+00  0.0000000000000000e+00 0.0000000000000000e+00 0.0000000000000000e+00  0.0000000000000000e+00 0.0000000000000000e+00 0.0000000000000000e+00  0.0000000000000000e+00 0.0000000000000000e+00 0.0000000000000000e+00  0.0000000000000000e+00 0.0000000000000000e+00 0.0000000000000000e+00  0.0000000000000000e+00 0.0000000000000000e+00 0.0000000000000000e+00  0.0000000000000000e+00 0.0000000000000000e+00 0.0000000000000000e+00  0.0000000000000000e+00 0.0000000000000000e+00 0.0000000000000000e+00  0.0000000000000000e+00 0.0000000000000000e+00 0.0000000000000000e+00  0.0000000000000000e+00 0.0000000000000000e+00 0.0000000000000000e+00  0.0000000000000000e+00 0.0000000000000000e+00 0.0000000000000000e+00  0.0000000000000000e+00 0.0000000000000000e+00 0.0000000000000000e+00  0.0000000000000000e+00 0.0000000000000000e+00 0.0000000000000000e+00  0.0000000000000000e+00 0.0000000000000000e+00 0.0000000000000000e+00  0.0000000000000000e+00 0.0000000000000000e+00 0.0000000000000000e+00  0.0000000000000000e+00 0.0000000000000000e+00 0.0000000000000000e+00  0.0000000000000000e+00 0.0000000000000000e+00 0.0000000000000000e+00  0.0000000000000000e+00 0.0000000000000000e+00 0.0000000000000000e+00  0.0000000000000000e+00 0.0000000000000000e+00 0.0000000000000000e+00  0.0000000000000000e+00 0.0000000000000000e+00 0.0000000000000000e+00  0.0000000000000000e+00 0.0000000000000000e+00 0.0000000000000000e+00  0.0000000000000000e+00 0.0000000000000000e+00 0.0000000000000000e+00  0.0000000000000000e+00 0.0000000000000000e+00 0.0000000000000000e+00  0.0000000000000000e+00 0.0000000000000000e+00 0.0000000000000000e+00  0.0000000000000000e+00 0.0000000000000000e+00 0.0000000000000000e+00  0.0000000000000000e+00 0.0000000000000000e+00 0.0000000000000000e+00  0.0000000000000000e+00 0.0000000000000000e+00 0.0000000000000000e+00  1.4883889831952276e-05 -1.2660412823585333e-05 0.0000000000000000e+00  2.7554930668172113e-05 -3.5318509839825397e-05 0.0000000000000000e+00  3.7108153457823364e-05 -6.8388429955891945e-05 0.0000000000000000e+00  4.3836781387257766e-05 -1.0961334918687926e-04 0.0000000000000000e+00  4.8162334821951723e-05 -1.5702822321600262e-04 0.0000000000000000e+00  5.0295102824224760e-05 -2.0899877637439466e-04 0.0000000000000000e+00  5.0507963794008133e-05 -2.6394020718231996e-04 0.0000000000000000e+00  4.9186328765351395e-05 -3.2058434600034118e-04 0.0000000000000000e+00  4.6413148604672009e-05 -3.7785806073446017e-04 0.0000000000000000e+00  4.2519891455639752e-05 -4.3471880904138159e-04 0.0000000000000000e+00  3.7688953236596925e-05 -4.9044780336744199e-04 0.0000000000000000e+00  3.2190714403431312e-05 -5.4437970933278988e-04 0.0000000000000000e+00  2.6173256819866973e-05 -5.9608594910677863e-04 0.0000000000000000e+00  1.9857677769349291e-05 -6.4522894584346450e-04 0.0000000000000000e+00  1.3411042320334490e-05 -6.9162050817311892e-04 0.0000000000000000e+00  6.9542414675628797e-06 -7.3519669007085541e-04 0.0000000000000000e+00  6.4698480801263780e-07 -7.7598076234695760e-04 0.0000000000000000e+00  -5.4292036008622448e-06 -8.1408464437841051e-04 0.0000000000000000e+00  -1.1162332459196499e-05 -8.4971432373075304e-04 0.0000000000000000e+00  -1.6503109583190474e-05 -8.8310033769382543e-04 0.0000000000000000e+00  -2.1390250990745050e-05 -9.1454879566963288e-04 0.0000000000000000e+00  -2.5799456525030847e-05 -9.4436181849065493e-04 0.0000000000000000e+00  -2.9703980041273579e-05 -9.7289129410875312e-04 0.0000000000000000e+00  -3.3147254105846228e-05 -1.0004508404241050e-03 0.0000000000000000e+00  -3.6105585245511884e-05 -1.0273461732385472e-03 0.0000000000000000e+00  -3.8621354676269347e-05 -1.0538898437583584e-03 0.0000000000000000e+00  -4.0727032498837976e-05 -1.0803441855009091e-03 0.0000000000000000e+00  -4.2471382674316043e-05 -1.1069416658000737e-03 0.0000000000000000e+00  -4.3893485811323415e-05 -1.1338743195906885e-03 0.0000000000000000e+00  -4.5047273421550996e-05 -1.1612954020595767e-03 0.0000000000000000e+00  -4.5972474752289937e-05 -1.1893167624923845e-03 0.0000000000000000e+00  -4.6718489765718123e-05 -1.2180125936025598e-03 0.0000000000000000e+00  -4.7319106380073186e-05 -1.2474222660832683e-03 0.0000000000000000e+00  -4.7814543649754426e-05 -1.2775534576276171e-03 0.0000000000000000e+00  -4.8229364883580661e-05 -1.3083869636542525e-03 0.0000000000000000e+00  -4.8593163334813367e-05 -1.3398807230309070e-03 0.0000000000000000e+00  -4.8923271030059831e-05 -1.3719738458816042e-03 0.0000000000000000e+00  -4.9239257139181544e-05 -1.4045894194890905e-03 0.0000000000000000e+00  -4.9552753936699593e-05 -1.4376388921040607e-03 0.0000000000000000e+00  -4.9874971056665366e-05 -1.4710232196471142e-03 0.0000000000000000e+00  -5.0212339162981669e-05 -1.5046387913830934e-03 0.0000000000000000e+00  -5.0568673266520843e-05 -1.5383706965165873e-03 0.0000000000000000e+00  -5.0926201330180832e-05 -1.5721125942094816e-03 0.0000000000000000e+00  -5.1283013174317374e-05 -1.6057647317443803e-03 0.0000000000000000e+00  -5.1611092168610856e-05 -1.6392296754656180e-03 0.0000000000000000e+00  -5.1923497753982573e-05 -1.6724090050671049e-03 0.0000000000000000e+00  -7.3941058990924859e-05 -1.7054134233777517e-03 0.0000000000000000e+00  -1.1794877430193014e-04 -1.7059583496914729e-03 0.0000000000000000e+00  -1.4012048215862019e-04 -1.6731508065832897e-03 0.0000000000000000e+00  -1.4027020985283838e-04 -1.6401353410631131e-03 0.0000000000000000e+00  -1.4034851905477853e-04 -1.6069374511240434e-03 0.0000000000000000e+00  -1.4027492269903956e-04 -1.5735816711098399e-03 0.0000000000000000e+00  -1.3998299678682935e-04 -1.5401557000137456e-03 0.0000000000000000e+00  -1.3946022026487296e-04 -1.5067521092924046e-03 0.0000000000000000e+00  -1.3868072098738093e-04 -1.4734720226568449e-03 0.0000000000000000e+00  -1.3764342168339915e-04 -1.4404285332041277e-03 0.0000000000000000e+00  -1.3635326531215864e-04 -1.4077163497773046e-03 0.0000000000000000e+00  -1.3482279516684298e-04 -1.3754382079616328e-03 0.0000000000000000e+00  -1.3306467529849051e-04 -1.3436730671762265e-03 0.0000000000000000e+00  -1.3110532057549252e-04 -1.3125016144950683e-03 0.0000000000000000e+00  -1.2896470898070834e-04 -1.2819782002593126e-03 0.0000000000000000e+00  -1.2668254000585029e-04 -1.2521465165600376e-03 0.0000000000000000e+00  -1.2428699347344989e-04 -1.2230235033284839e-03 0.0000000000000000e+00  -1.2183132862605193e-04 -1.1945995498588490e-03 0.0000000000000000e+00  -1.1935109932989896e-04 -1.1668389475600568e-03 0.0000000000000000e+00  -1.1691085363157056e-04 -1.1396609291541766e-03 0.0000000000000000e+00  -1.1455041788002325e-04 -1.1129631713714691e-03 0.0000000000000000e+00  -1.1233806329248336e-04 -1.0865799026530838e-03 0.0000000000000000e+00  -1.1031302541968370e-04 -1.0603352161400513e-03 0.0000000000000000e+00  -1.0853572463077428e-04 -1.0339791313494059e-03 0.0000000000000000e+00  -1.0704013028366774e-04 -1.0072646362684053e-03 0.0000000000000000e+00  -1.0587633355848280e-04 -9.7987104289018901e-04 0.0000000000000000e+00  -1.0502468903791322e-04 -9.5149575413606470e-04 0.0000000000000000e+00  -1.0452968782572727e-04 -9.2182243651204210e-04 0.0000000000000000e+00  -1.0437194785968772e-04 -8.9050501402912854e-04 0.0000000000000000e+00  -1.0452463546242086e-04 -8.5723115806515717e-04 0.0000000000000000e+00  -1.0493584469382844e-04 -8.2170971116870964e-04 0.0000000000000000e+00  -1.0554903293329069e-04 -7.8369397920631664e-04 0.0000000000000000e+00  -1.0626503315020143e-04 -7.4299266109826006e-04 0.0000000000000000e+00  -1.0699388624657999e-04 -6.9948654772141621e-04 0.0000000000000000e+00  -1.0758498180012559e-04 -6.5315791657868407e-04 0.0000000000000000e+00  -1.0791941011924718e-04 -6.0407179927448543e-04 0.0000000000000000e+00  -1.0783467322782171e-04 -5.5242259606418662e-04 0.0000000000000000e+00  -1.0712741083555401e-04 -4.9853566066980373e-04 0.0000000000000000e+00  -1.0563967316372653e-04 -4.4287763271040864e-04 0.0000000000000000e+00  -1.0313844064790703e-04 -3.8607004652134046e-04 0.0000000000000000e+00  -9.9436164634664654e-05 -3.2887774888880025e-04 0.0000000000000000e+00  -9.4239004928745634e-05 -2.7232563916431795e-04 0.0000000000000000e+00  -8.7471171340865666e-05 -2.1748948277973572e-04 0.0000000000000000e+00  -7.8775102304104604e-05 -1.6564630909123211e-04 0.0000000000000000e+00  -6.7896887501104876e-05 -1.1836167075389054e-04 0.0000000000000000e+00  -5.4646837020410297e-05 -7.7322604013280895e-05 0.0000000000000000e+00  -3.8849447993563701e-05 -4.4435358966414865e-05 0.0000000000000000e+00  -2.0872502657104195e-05 -2.0991846576507568e-05 0.0000000000000000e+00  -3.6933170436300307e-06 -2.1813596196801654e-05 0.0000000000000000e+00  -9.5333050684645192e-05 -1.6562579599615473e-03 0.0000000000000000e+00  -9.4762010866440165e-05 -1.5925590569666099e-03 0.0000000000000000e+00  -9.3958044973036279e-05 -1.4876470532479904e-03 0.0000000000000000e+00  -1.0331514498827343e-05 -8.7954260024405821e-05 0.0000000000000000e+00  -9.3105419996613968e-05 -1.4223385791666419e-03 0.0000000000000000e+00  -1.7464533281357280e-05 -1.8008737263769598e-04 0.0000000000000000e+00  -9.1250702488919502e-05 -1.3573675626792061e-03 0.0000000000000000e+00  -2.7814976860125195e-05 -3.5547534283401379e-04 0.0000000000000000e+00  -3.3086689533812374e-05 -4.6748154293493779e-04 0.0000000000000000e+00  -8.8923170602300721e-05 -1.2946536584169050e-03 0.0000000000000000e+00  -4.9067191539244409e-05 -7.2110846223111149e-04 0.0000000000000000e+00  -8.2944244148624248e-05 -1.1776130238573066e-03 0.0000000000000000e+00  -3.9946969123955748e-05 -5.7163499260813556e-04 0.0000000000000000e+00  -5.3753083199413042e-05 -8.0064633547938854e-04 0.0000000000000000e+00  -7.9352992750321397e-05 -1.1231276985744618e-03 0.0000000000000000e+00  -8.6144682603810221e-05 -1.2346842755894742e-03 0.0000000000000000e+00  -5.9068893447618383e-05 -8.7160786448409850e-04 0.0000000000000000e+00  -7.5400646623287538e-05 -1.0703280560039349e-03 0.0000000000000000e+00  -6.4444220095476968e-05 -9.3176857814523918e-04 0.0000000000000000e+00  -7.0737901674568788e-05 -1.0187245077786546e-03 0.0000000000000000e+00  -6.7515691029179374e-05 -9.7470791487930014e-04 0.0000000000000000e+00  -4.3425789175355027e-05 -6.4645723734619025e-04 0.0000000000000000e+00  -9.5309563409261877e-05 -1.5422006681788016e-03 0.0000000000000000e+00  -2.1564827276252363e-05 -2.6220207463806489e-04 0.0000000000000000e+00  -1.1069092033203569e-04 -1.6244558060243151e-03 0.0000000000000000e+00  -2.0646251779107375e-05 -5.2045791885816896e-05 0.0000000000000000e+00  -1.0480632166343590e-04 -1.3901129900405218e-03 0.0000000000000000e+00  -1.0669753898264638e-04 -1.4558492611715912e-03 0.0000000000000000e+00  7.0829357622910849e-06 -1.3184825290223841e-04 0.0000000000000000e+00  -8.4619684871481014e-06 -4.0948614215046661e-04 0.0000000000000000e+00  -9.5772134016325263e-05 -1.2065726779612147e-03 0.0000000000000000e+00  -1.0230872486202504e-04 -1.3262959845363740e-03 0.0000000000000000e+00  -3.5019903202446873e-05 -7.6007657567137303e-04 0.0000000000000000e+00  -9.1945933228426355e-05 -1.1509348028574196e-03 0.0000000000000000e+00  -1.5631301648258658e-05 -5.2142907674105948e-04 0.0000000000000000e+00  -4.2371042051671307e-05 -8.3611213572529848e-04 0.0000000000000000e+00  -8.7925280661546652e-05 -1.0974968735288917e-03 0.0000000000000000e+00  -9.9266334937797720e-05 -1.2650049068354912e-03 0.0000000000000000e+00  -4.6342028199456101e-05 -9.0198031304315220e-04 0.0000000000000000e+00  -8.3850594735995740e-05 -1.0450369080754571e-03 0.0000000000000000e+00  2.3724957177674095e-06 -5.6193997258242474e-06 0.0000000000000000e+00  -4.8952690355319265e-06 -7.7200524573155204e-06 0.0000000000000000e+00  -8.5173171829806954e-05 -1.