<?xml version="1.0"?>
<VTKFile type="UnstructuredGrid"  version="0.1"  >
<UnstructuredGrid>
<Piece  NumberOfPoints="1419" NumberOfCells="2698">
<Points>
<DataArray  type="Float64"  NumberOfComponents="3"  format="ascii">0 0 0  0 0.41 0  2.5 0 0  2.5 0.41 0  0.6 0.19 0  0.6 0.21 0  0.25 0.2 0  0.15 0.2 0  0.2489897948556636 0.21 0  0.2489897948556636 0.19 0  0.6 0.2 0  0 0.3807142857143437 0  0 0.3514285714286952 0  0 0.3221428571430699 0  0 0.29285714285744 0  0 0.2635714285718054 0  0 0.2342857142861561 0  0 0.2050000000005308 0  0 0.175714285714732 0  0 0.1464285714289574 0  0 0.1171428571431897 0  0 0.08785714285737878 0  0 0.05857142857161107 0  0 0.02928571428580012 0  0.03015443760436003 0 0  0.06140001986583606 0 0  0.09377624077125973 0 0  0.1273239957535082 0 0  0.1620856860351972 0 0  0.1981052433264291 0 0  0.235428184091502 0 0  0.2741016576309132 0 0  0.3141745521465447 0 0  0.3556974926295285 0 0  0.3987229542472677 0 0  0.4433053055141081 0 0  0.4895008759286886 0 0  0.5373680609405097 0 0  0.5869673343216626 0 0  0.6383613676634521 0 0  0.6916151138468254 0 0  0.7467958595648856 0 0  0.8039733463919316 0 0  0.8632198139502143 0 0  0.9246101326867038 0 0  0.9882218810934433 0 0  1.054135445558498 0 0  1.122434100542598 0 0  1.193204177141305 0 0  1.266535089879536 0 0  1.342519516046404 0 0  1.421253448503939 0 0  1.502836389106271 0 0  1.587371439758838 0 0  1.674965418777374 0 0  1.765729001825544 0 0  1.859776908880082 0 0  1.957227977487062 0 0  2.058205329869943 0 0  2.162836591189951 0 0  2.271253957290865 0 0  2.383594446803425 0 0  2.5 0.1024999999997612 0  2.5 0.2049999999994743 0  2.5 0.3074999999997183 0  2.383594446803656 0.41 0  2.271253957291315 0.41 0  2.162836591190598 0.41 0  2.058205329870775 0.41 0  1.957227977488067 0.41 0  1.859776908881246 0.41 0  1.765729001826854 0.41 0  1.674965418778818 0.41 0  1.58737143976041 0.41 0  1.502836389107956 0.41 0  1.421253448505726 0.41 0  1.342519516048286 0.41 0  1.266535089881505 0.41 0  1.193204177143353 0.41 0  1.122434100544716 0.41 0  1.05413544556068 0.41 0  0.9882218810956305 0.41 0  0.9246101326886647 0.41 0  0.8632198139519631 0.41 0  0.8039733463934788 0.41 0  0.7467958595662458 0.41 0  0.6916151138480078 0.41 0  0.6383613676644679 0.41 0  0.5869673343225223 0.41 0  0.5373680609412221 0.41 0  0.4895008759292634 0.41 0  0.4433053055145528 0.41 0  0.3987229542475914 0.41 0  0.3556974926297398 0.41 0  0.3141745521466497 0.41 0  0.2741016576310038 0.41 0  0.2354281840915826 0.41 0  0.1981052433265003 0.41 0  0.1620856860352591 0.41 0  0.1273239957535623 0.41 0  0.09377624077128965 0.41 0  0.06140001986584975 0.41 0  0.03015443760436654 0.41 0  0.2497468076502589 0.2050254481002335 0  0.2497468076502614 0.1949745518997913 0  0.2469965252529372 0.1829317073451959 0  0.2439893735792749 0.1762316384219906 0  0.2400332147834255 0.1700443375285386 0  0.2352133972704371 0.1645032867342007 0  0.2296339016332438 0.1597280261969788 0  0.2234150974217223 0.1558215752574715 0  0.2166911463437691 0.1528682099456123 0  0.2096071079204251 0.1509316448471593 0  0.2023158100364996 0.1500536585536553 0  0.194974551899914 0.1502531923497262 0  0.1877417105387872 0.1515259415822739 0  0.1807733240461124 0.153844448527136 0  0.1742197252835808 0.15715869474974 0  0.1682222986673531 0.1613971801805478 0  0.162910430003803 0.1664684656256651 0  0.1583987151779087 0.1722631454351573 0  0.1547844879126891 0.178656207771761 0  0.1521457199348551 0.1855097315605723 0  0.1505393388476355 0.1926758619366523 0  0.1505393388476328 0.2073241380633295 0  0.1521457199348437 0.2144902684393899 0  0.1547844879126531 0.221343792228163 0  0.1583987151778488 0.2277368545647528 0  0.1629104300036858 0.2335315343742052 0  0.1682222986671726 0.2386028198193036 0  0.1742197252833576 0.2428413052501257 0  0.1807733240458683 0.2461555514727623 0  0.1877417105384929 0.2484740584176516 0  0.1949745518995776 0.2497468076502398 0  0.202315810036185 0.2499463414463592 0  0.2096071079201568 0.2490683551528932 0  0.2166911463435495 0.2471317900544655 0  0.2234150974215506 0.2441784247426195 0  0.2296339016331197 0.2402719738031125 0  0.2352133972703547 0.2354967132658811 0  0.2400332147833751 0.2299556624715287 0  0.2439893735792577 0.2237683615780412 0  0.246996525252926 0.2170682926548348 0  0.25645809709277 0.21 0  0.2639263993298655 0.21 0  0.271394701566961 0.21 0  0.2788630038040554 0.21 0  0.2863313060411479 0.21 0  0.2937996082782405 0.21 0  0.301267910515333 0.21 0  0.3087362127524279 0.21 0  0.3162045149895234 0.21 0  0.3236728172265972 0.21 0  0.3311411194636928 0.21 0  0.3386094217007701 0.21 0  0.3460777239378666 0.21 0  0.3535460261749672 0.21 0  0.3610143284120516 0.21 0  0.3684826306491596 0.21 0  0.3759509328862226 0.21 0  0.383419235123329 0.21 0  0.3908875373604028 0.21 0  0.3983558395975142 0.21 0  0.4058241418345938 0.21 0  0.4132924440716992 0.21 0  0.4207607463087888 0.21 0  0.4282290485459029 0.21 0  0.4356973507830418 0.21 0  0.4431656530201649 0.21 0  0.4506339552573136 0.21 0  0.4581022574944306 0.21 0  0.4655705597315852 0.21 0  0.4730388619686996 0.21 0  0.480507164205851 0.21 0  0.4879754664429498 0.21 0  0.4954437686800938 0.21 0  0.502912070917267 0.21 0  0.5103803731544119 0.21 0  0.5178486753915261 0.21 0  0.5253169776286404 0.21 0  0.5327852798657868 0.21 0  0.5402535821029386 0.21 0  0.54772188434007 0.21 0  0.5551901865771842 0.21 0  0.5626584888143201 0.21 0  0.5701267910514778 0.21 0  0.5775950932886138 0.21 0  0.5850633955257281 0.21 0  0.5925316977628483 0.21 0  0.6 0.2050000000000054 0  0.6 0.1950000000000217 0  0.5925316977628897 0.19 0  0.5850633955257988 0.19 0  0.5775950932887378 0.19 0  0.5701267910515998 0.19 0  0.5626584888145268 0.19 0  0.5551901865773963 0.19 0  0.547721884340339 0.19 0  0.5402535821032429 0.19 0  0.5327852798661811 0.19 0  0.5253169776290537 0.19 0  0.5178486753919799 0.19 0  0.5103803731549078 0.19 0  0.502912070917822 0.19 0  0.4954437686807294 0.19 0  0.4879754664436223 0.19 0  0.4805071642065402 0.19 0  0.4730388619694271 0.19 0  0.4655705597323621 0.19 0  0.4581022574952563 0.19 0  0.4506339552581777 0.19 0  0.4431656530210671 0.19 0  0.4356973507839815 0.19 0  0.4282290485468779 0.19 0  0.4207607463097617 0.19 0  0.4132924440726327 0.19 0  0.4058241418354857 0.19 0  0.3983558395983636 0.19 0  0.3908875373612097 0.19 0  0.3834192351240934 0.19 0  0.3759509328869369 0.19 0  0.3684826306498175 0.19 0  0.361014328412667 0.19 0  0.3535460261755617 0.19 0  0.3460777239384295 0.19 0  0.3386094217012945 0.19 0  0.3311411194641595 0.19 0  0.3236728172270245 0.19 0  0.3162045149898895 0.19 0  0.3087362127527544 0.19 0  0.3012679105156187 0.19 0  0.2937996082784807 0.19 0  0.2863313060413428 0.19 0  0.2788630038042048 0.19 0  0.2713947015670686 0.19 0  0.2639263993299336 0.19 0  0.2564580970927985 0.19 0  0.2607803159922026 0.2000727136295815 0  0.5887803774232762 0.2001272386983733 0  0.5745072403740523 0.2002044435018727 0  0.5511891430099709 0.2001122610077113 0  0.2751288526855082 0.20000000000002 0  0.5365194309847112 0.1999999999999436 0  0.2894621222999649 0.1998691686390484 0  0.5215828265105155 0.1999999999999228 0  0.3127789816668748 0.1998657885438805 0  0.3274069683451451 0.2000000000000796 0  0.5066462220363641 0.199999999999908 0  0.3650630746574081 0.199866017807523 0  0.476773013087985 0.1999999999998713 0  0.3417402379596385 0.1998691686391011 0  0.3796850840047755 0.200000000000134 0  0.4618364086138087 0.1999999999998546 0  0.4917096175621762 0.1999999999998808 0  0.3946216884789568 0.2000000000001512 0  0.446899804139621 0.1999999999998389 0  0.4089549580935208 0.1998691686391595 0  0.4322718174608562 0.200127451265745 0  0.4201487168029707 0.1999966199048527 0  0.3528922713220932 0.2000185703532356 0  0.5633122436674589 0.1999814296467508 0  0.3006558810093873 0.1999966199048318 0  0.5815926498168407 0.1966545283159175 0  0.2677053789419034 0.1964246479135325 0  0.5290511287476175 0.1970915826863981 0  0.5439877332217911 0.197091582686394 0  0.2825131256993216 0.2035478995978015 0  0.3199386661080599 0.202908417313604 0  0.4842413153250809 0.1970915826863873 0  0.5141145242734466 0.1970915826863843 0  0.3722167817676917 0.2029084173136195 0  0.4693047108508938 0.1970915826863783 0  0.3348752705822316 0.202908417313609 0  0.3871533862418661 0.2029084173136212 0  0.4543681063767183 0.1970915826863795 0  0.4991779197992749 0.1970915826863902 0  0.4020059614928624 0.203547899597858 0  0.4394315019025246 0.1970915826863714 0  0.2550657455369551 0.2034088125358657 0  0.2548908499171161 0.1966940311614271 0  0.5946539510196798 0.2024302972968126 0  0.267698176732111 0.2039977513680092 0  0.4261685417851465 0.196409292431739 0  0.3590076176283495 0.196411355804271 0  0.5571672426447437 0.2036011176410121 0  0.3066757059912147 0.1964092924317024 0  0.594380730180568 0.1966558399668133 0  0.4842413153245942 0.2040749161535287 0  0.4693047108503577 0.2040749161535231 0  0.3871533862424271 0.1959250838464788 0  0.372246743208829 0.1959123236376545 0  0.5141145242731028 0.2040749161535395 0  0.4543681063761134 0.2040749161535186 0  0.4019979587101454 0.1959834479682427 0  0.4394608940728603 0.2040870543693135 0  0.5439623148931173 0.2040856076781014 0  0.5290511287473298 0.2040749161535501 0  0.4991779197988497 0.2040749161535382 0  0.3347912413592433 0.1959225448935183 0  0.3199680582793816 0.1959123018030061 0  0.2825051229162361 0.1959834479681729 0  0.3590471196690275 0.2036304442587945 0  0.5571594006495384 0.1963685282145804 0  0.3067669986803285 0.203627750582736 0  0.4262598344738712 0.2036568242185335 0  0.5814408164431408 0.2041285596160068 0  0.5688286748170428 0.1961819304477386 0  0.4145905603063645 0.2038180695522843 0  0.3473758401724931 0.2038180695522752 0  0.2950977245128307 0.2038180695522663 0  0.5688286748170693 0.203818069552238 0  0.2950977245127906 0.1961819304477774 0  0.3473758401723931 0.1961819304478349 0  0.4145905603061963 0.1961819304479011 0  0.2601812407614425 0.2056861609747042
[...]
<PointData  Vectors="f_40-1"> 
<DataArray  type="Float64"  Name="f_40-1"  NumberOfComponents="3" format="ascii">0.0000000000000000e+00 0.0000000000000000e+00 0.0000000000000000e+00  0.0000000000000000e+00 0.0000000000000000e+00 0.0000000000000000e+00  0.0000000000000000e+00 0.0000000000000000e+00 0.0000000000000000e+00  0.0000000000000000e+00 0.0000000000000000e+00 0.0000000000000000e+00  2.1697115008249132e-05 1.8139261622984941e-03 0.0000000000000000e+00  -2.3671750849904130e-04 1.8138151268474094e-03 0.0000000000000000e+00  0.0000000000000000e+00 0.0000000000000000e+00 0.0000000000000000e+00  0.0000000000000000e+00 0.0000000000000000e+00 0.0000000000000000e+00  0.0000000000000000e+00 0.0000000000000000e+00 0.0000000000000000e+00  0.0000000000000000e+00 0.0000000000000000e+00 0.0000000000000000e+00  -1.0725134207664611e-04 1.8138349421241247e-03 0.0000000000000000e+00  0.0000000000000000e+00 0.0000000000000000e+00 0.0000000000000000e+00  0.0000000000000000e+00 0.0000000000000000e+00 0.0000000000000000e+00  0.0000000000000000e+00 0.0000000000000000e+00 0.0000000000000000e+00  0.0000000000000000e+00 0.0000000000000000e+00 0.0000000000000000e+00  0.0000000000000000e+00 0.0000000000000000e+00 0.0000000000000000e+00  0.0000000000000000e+00 0.0000000000000000e+00 0.0000000000000000e+00  0.0000000000000000e+00 0.0000000000000000e+00 0.0000000000000000e+00  0.0000000000000000e+00 0.0000000000000000e+00 0.0000000000000000e+00  0.0000000000000000e+00 0.0000000000000000e+00 0.0000000000000000e+00  0.0000000000000000e+00 0.0000000000000000e+00 0.0000000000000000e+00  0.0000000000000000e+00 0.0000000000000000e+00 0.0000000000000000e+00  0.0000000000000000e+00 0.0000000000000000e+00 0.0000000000000000e+00  0.0000000000000000e+00 0.0000000000000000e+00 0.0000000000000000e+00  0.0000000000000000e+00 0.0000000000000000e+00 0.0000000000000000e+00  0.0000000000000000e+00 0.0000000000000000e+00 0.0000000000000000e+00  0.0000000000000000e+00 0.0000000000000000e+00 0.0000000000000000e+00  0.0000000000000000e+00 0.0000000000000000e+00 0.0000000000000000e+00  0.0000000000000000e+00 0.0000000000000000e+00 0.0000000000000000e+00  0.0000000000000000e+00 0.0000000000000000e+00 0.0000000000000000e+00  0.0000000000000000e+00 0.0000000000000000e+00 0.0000000000000000e+00  0.0000000000000000e+00 0.0000000000000000e+00 0.0000000000000000e+00  0.0000000000000000e+00 0.0000000000000000e+00 0.0000000000000000e+00  0.0000000000000000e+00 0.0000000000000000e+00 0.0000000000000000e+00  0.0000000000000000e+00 0.0000000000000000e+00 0.0000000000000000e+00  0.0000000000000000e+00 0.0000000000000000e+00 0.0000000000000000e+00  0.0000000000000000e+00 0.0000000000000000e+00 0.0000000000000000e+00  0.0000000000000000e+00 0.0000000000000000e+00 0.0000000000000000e+00  0.0000000000000000e+00 0.0000000000000000e+00 0.0000000000000000e+00  0.0000000000000000e+00 0.0000000000000000e+00 0.0000000000000000e+00  0.0000000000000000e+00 0.0000000000000000e+00 0.0000000000000000e+00  0.0000000000000000e+00 0.0000000000000000e+00 0.0000000000000000e+00  0.0000000000000000e+00 0.0000000000000000e+00 0.0000000000000000e+00  0.0000000000000000e+00 0.0000000000000000e+00 0.0000000000000000e+00  0.0000000000000000e+00 0.0000000000000000e+00 0.0000000000000000e+00  0.0000000000000000e+00 0.0000000000000000e+00 0.0000000000000000e+00  0.0000000000000000e+00 0.0000000000000000e+00 0.0000000000000000e+00  0.0000000000000000e+00 0.0000000000000000e+00 0.0000000000000000e+00  0.0000000000000000e+00 0.0000000000000000e+00 0.0000000000000000e+00  0.0000000000000000e+00 0.0000000000000000e+00 0.0000000000000000e+00  0.0000000000000000e+00 0.0000000000000000e+00 0.0000000000000000e+00  0.0000000000000000e+00 0.0000000000000000e+00 0.0000000000000000e+00  0.0000000000000000e+00 0.0000000000000000e+00 0.0000000000000000e+00  0.0000000000000000e+00 0.0000000000000000e+00 0.0000000000000000e+00  0.0000000000000000e+00 0.0000000000000000e+00 0.0000000000000000e+00  0.0000000000000000e+00 0.0000000000000000e+00 0.0000000000000000e+00  0.0000000000000000e+00 0.0000000000000000e+00 0.0000000000000000e+00  0.0000000000000000e+00 0.0000000000000000e+00 0.0000000000000000e+00  0.0000000000000000e+00 0.0000000000000000e+00 0.0000000000000000e+00  0.0000000000000000e+00 0.0000000000000000e+00 0.0000000000000000e+00  0.0000000000000000e+00 0.0000000000000000e+00 0.0000000000000000e+00  0.0000000000000000e+00 0.0000000000000000e+00 0.0000000000000000e+00  0.0000000000000000e+00 0.0000000000000000e+00 0.0000000000000000e+00  0.0000000000000000e+00 0.0000000000000000e+00 0.0000000000000000e+00  0.0000000000000000e+00 0.0000000000000000e+00 0.0000000000000000e+00  0.0000000000000000e+00 0.0000000000000000e+00 0.0000000000000000e+00  0.0000000000000000e+00 0.0000000000000000e+00 0.0000000000000000e+00  0.0000000000000000e+00 0.0000000000000000e+00 0.0000000000000000e+00  0.0000000000000000e+00 0.0000000000000000e+00 0.0000000000000000e+00  0.0000000000000000e+00 0.0000000000000000e+00 0.0000000000000000e+00  0.0000000000000000e+00 0.0000000000000000e+00 0.0000000000000000e+00  0.0000000000000000e+00 0.0000000000000000e+00 0.0000000000000000e+00  0.0000000000000000e+00 0.0000000000000000e+00 0.0000000000000000e+00  0.0000000000000000e+00 0.0000000000000000e+00 0.0000000000000000e+00  0.0000000000000000e+00 0.0000000000000000e+00 0.0000000000000000e+00  0.0000000000000000e+00 0.0000000000000000e+00 0.0000000000000000e+00  0.0000000000000000e+00 0.0000000000000000e+00 0.0000000000000000e+00  0.0000000000000000e+00 0.0000000000000000e+00 0.0000000000000000e+00  0.0000000000000000e+00 0.0000000000000000e+00 0.0000000000000000e+00  0.0000000000000000e+00 0.0000000000000000e+00 0.0000000000000000e+00  0.0000000000000000e+00 0.0000000000000000e+00 0.0000000000000000e+00  0.0000000000000000e+00 0.0000000000000000e+00 0.0000000000000000e+00  0.0000000000000000e+00 0.0000000000000000e+00 0.0000000000000000e+00  0.0000000000000000e+00 0.0000000000000000e+00 0.0000000000000000e+00  0.0000000000000000e+00 0.0000000000000000e+00 0.0000000000000000e+00  0.0000000000000000e+00 0.0000000000000000e+00 0.0000000000000000e+00  0.0000000000000000e+00 0.0000000000000000e+00 0.0000000000000000e+00  0.0000000000000000e+00 0.0000000000000000e+00 0.0000000000000000e+00  0.0000000000000000e+00 0.0000000000000000e+00 0.0000000000000000e+00  0.0000000000000000e+00 0.0000000000000000e+00 0.0000000000000000e+00  0.0000000000000000e+00 0.0000000000000000e+00 0.0000000000000000e+00  0.0000000000000000e+00 0.0000000000000000e+00 0.0000000000000000e+00  0.0000000000000000e+00 0.0000000000000000e+00 0.0000000000000000e+00  0.0000000000000000e+00 0.0000000000000000e+00 0.0000000000000000e+00  0.0000000000000000e+00 0.0000000000000000e+00 0.0000000000000000e+00  0.0000000000000000e+00 0.0000000000000000e+00 0.0000000000000000e+00  0.0000000000000000e+00 0.0000000000000000e+00 0.0000000000000000e+00  0.0000000000000000e+00 0.0000000000000000e+00 0.0000000000000000e+00  0.0000000000000000e+00 0.0000000000000000e+00 0.0000000000000000e+00  0.0000000000000000e+00 0.0000000000000000e+00 0.0000000000000000e+00  0.0000000000000000e+00 0.0000000000000000e+00 0.0000000000000000e+00  0.0000000000000000e+00 0.0000000000000000e+00 0.0000000000000000e+00  0.0000000000000000e+00 0.0000000000000000e+00 0.0000000000000000e+00  0.0000000000000000e+00 0.0000000000000000e+00 0.0000000000000000e+00  0.0000000000000000e+00 0.0000000000000000e+00 0.0000000000000000e+00  0.0000000000000000e+00 0.0000000000000000e+00 0.0000000000000000e+00  0.0000000000000000e+00 0.0000000000000000e+00 0.0000000000000000e+00  0.0000000000000000e+00 0.0000000000000000e+00 0.0000000000000000e+00  0.0000000000000000e+00 0.0000000000000000e+00 0.0000000000000000e+00  0.0000000000000000e+00 0.0000000000000000e+00 0.0000000000000000e+00  0.0000000000000000e+00 0.0000000000000000e+00 0.0000000000000000e+00  0.0000000000000000e+00 0.0000000000000000e+00 0.0000000000000000e+00  0.0000000000000000e+00 0.0000000000000000e+00 0.0000000000000000e+00  0.0000000000000000e+00 0.0000000000000000e+00 0.0000000000000000e+00  0.0000000000000000e+00 0.0000000000000000e+00 0.0000000000000000e+00  0.0000000000000000e+00 0.0000000000000000e+00 0.0000000000000000e+00  0.0000000000000000e+00 0.0000000000000000e+00 0.0000000000000000e+00  0.0000000000000000e+00 0.0000000000000000e+00 0.0000000000000000e+00  0.0000000000000000e+00 0.0000000000000000e+00 0.0000000000000000e+00  0.0000000000000000e+00 0.0000000000000000e+00 0.0000000000000000e+00  0.0000000000000000e+00 0.0000000000000000e+00 0.0000000000000000e+00  0.0000000000000000e+00 0.0000000000000000e+00 0.0000000000000000e+00  0.0000000000000000e+00 0.0000000000000000e+00 0.0000000000000000e+00  0.0000000000000000e+00 0.0000000000000000e+00 0.0000000000000000e+00  0.0000000000000000e+00 0.0000000000000000e+00 0.0000000000000000e+00  0.0000000000000000e+00 0.0000000000000000e+00 0.0000000000000000e+00  0.0000000000000000e+00 0.0000000000000000e+00 0.0000000000000000e+00  0.0000000000000000e+00 0.0000000000000000e+00 0.0000000000000000e+00  0.0000000000000000e+00 0.0000000000000000e+00 0.0000000000000000e+00  0.0000000000000000e+00 0.0000000000000000e+00 0.0000000000000000e+00  0.0000000000000000e+00 0.0000000000000000e+00 0.0000000000000000e+00  0.0000000000000000e+00 0.0000000000000000e+00 0.0000000000000000e+00  0.0000000000000000e+00 0.0000000000000000e+00 0.0000000000000000e+00  0.0000000000000000e+00 0.0000000000000000e+00 0.0000000000000000e+00  0.0000000000000000e+00 0.0000000000000000e+00 0.0000000000000000e+00  0.0000000000000000e+00 0.0000000000000000e+00 0.0000000000000000e+00  0.0000000000000000e+00 0.0000000000000000e+00 0.0000000000000000e+00  0.0000000000000000e+00 0.0000000000000000e+00 0.0000000000000000e+00  0.0000000000000000e+00 0.0000000000000000e+00 0.0000000000000000e+00  0.0000000000000000e+00 0.0000000000000000e+00 0.0000000000000000e+00  0.0000000000000000e+00 0.0000000000000000e+00 0.0000000000000000e+00  0.0000000000000000e+00 0.0000000000000000e+00 0.0000000000000000e+00  0.0000000000000000e+00 0.0000000000000000e+00 0.0000000000000000e+00  6.0654297816659245e-06 -4.0900202923592683e-06 0.0000000000000000e+00  1.1179276097285104e-05 -1.5476907243123830e-05 0.0000000000000000e+00  1.4362692723111734e-05 -3.2461488408124680e-05 0.0000000000000000e+00  1.5909519404184643e-05 -5.3537221464412556e-05 0.0000000000000000e+00  1.6037376554650568e-05 -7.7550270640131495e-05 0.0000000000000000e+00  1.4815568364608947e-05 -1.0350847395751592e-04 0.0000000000000000e+00  1.2319621534314997e-05 -1.3037493052891669e-04 0.0000000000000000e+00  8.7402035482107362e-06 -1.5727050475440924e-04 0.0000000000000000e+00  4.0537824639158574e-06 -1.8338309683673198e-04 0.0000000000000000e+00  -1.5989214039901651e-06 -2.0785575268195450e-04 0.0000000000000000e+00  -8.1409952153021330e-06 -2.3002281684139840e-04 0.0000000000000000e+00  -1.5455681944189462e-05 -2.4917922597424478e-04 0.0000000000000000e+00  -2.3478460637822616e-05 -2.6478178392383905e-04 0.0000000000000000e+00  -3.2110866872374172e-05 -2.7627359328732487e-04 0.0000000000000000e+00  -4.1218792311380984e-05 -2.8322243431821948e-04 0.0000000000000000e+00  -5.0770300834409802e-05 -2.8526497466983228e-04 0.0000000000000000e+00  -6.0643953755555573e-05 -2.8205502594480492e-04 0.0000000000000000e+00  -7.0772782655983092e-05 -2.7336324708921990e-04 0.0000000000000000e+00  -8.1049235531748039e-05 -2.5899177166674502e-04 0.0000000000000000e+00  -9.1413290888098860e-05 -2.3883237897591683e-04 0.0000000000000000e+00  -1.0176626179056618e-04 -2.1282226742778027e-04 0.0000000000000000e+00  -1.1204839822954958e-04 -1.8096223839629918e-04 0.0000000000000000e+00  -1.2216782519441693e-04 -1.4332146130601616e-04 0.0000000000000000e+00  -1.3208045226666238e-04 -1.0000241682215261e-04 0.0000000000000000e+00  -1.4171098534059763e-04 -5.1163833687335541e-05 0.0000000000000000e+00  -1.5099578860477985e-04 2.9820959162749365e-06 0.0000000000000000e+00  -1.5989182835096012e-04 6.2189502660563709e-05 0.0000000000000000e+00  -1.6834596448834043e-04 1.2617450351138241e-04 0.0000000000000000e+00  -1.7632436643306358e-04 1.9462555161115400e-04 0.0000000000000000e+00  -1.8378960584939784e-04 2.6720419682057926e-04 0.0000000000000000e+00  -1.9072064874090013e-04 3.4355751619165868e-04 0.0000000000000000e+00  -1.9709771983800336e-04 4.2331748574129965e-04 0.0000000000000000e+00  -2.0291258454326847e-04 5.0611464914303772e-04 0.0000000000000000e+00  -2.0816556438271782e-04 5.9157829151514616e-04 0.0000000000000000e+00  -2.1286144244352714e-04 6.7934887746641753e-04 0.0000000000000000e+00  -2.1701859201379273e-04 7.6907855841872941e-04 0.0000000000000000e+00  -2.2065539006904585e-04 8.6044361330430438e-04 0.0000000000000000e+00  -2.2380548943765207e-04 9.5314300926621165e-04 0.0000000000000000e+00  -2.2649759103706996e-04 1.0469075699287074e-03 0.0000000000000000e+00  -2.2877561829667557e-04 1.1414979513780577e-03 0.0000000000000000e+00  -2.3067212989221939e-04 1.2367105767555925e-03 0.0000000000000000e+00  -2.3223231834571532e-04 1.3323674556146921e-03 0.0000000000000000e+00  -2.3350961163405692e-04 1.4283320556248921e-03 0.0000000000000000e+00  -2.3452657062175163e-04 1.5245018719735519e-03 0.0000000000000000e+00  -2.3534030335160285e-04 1.6207846247061680e-03 0.0000000000000000e+00  -2.3602300694089504e-04 1.7171539850084833e-03 0.0000000000000000e+00  -1.7187597040951527e-04 1.8138191124830510e-03 0.0000000000000000e+00  -4.2709089459125052e-05 1.8138767067540649e-03 0.0000000000000000e+00  2.2302479912767601e-05 1.7175758181565519e-03 0.0000000000000000e+00  2.2857415527106211e-05 1.6209715555816756e-03 0.0000000000000000e+00  2.3392804913575959e-05 1.5243716212354011e-03 0.0000000000000000e+00  2.3927352131547503e-05 1.4278676429368977e-03 0.0000000000000000e+00  2.4431724276383074e-05 1.3315538443100948e-03 0.0000000000000000e+00  2.4891092375295638e-05 1.2355352817716855e-03 0.0000000000000000e+00  2.5255646305442776e-05 1.1399493416546314e-03 0.0000000000000000e+00  2.5479372742914433e-05 1.0449838516566254e-03 0.0000000000000000e+00  2.5530190900740841e-05 9.5083065600714363e-04 0.0000000000000000e+00  2.5352952942026254e-05 8.5775085312513163e-04 0.0000000000000000e+00  2.4914947721774517e-05 7.6599316085131802e-04 0.0000000000000000e+00  2.4166455386405477e-05 6.7588484863758422e-04 0.0000000000000000e+00  2.3080451113628429e-05 5.8772472776930573e-04 0.0000000000000000e+00  2.1620871303040869e-05 5.0189001442803825e-04 0.0000000000000000e+00  1.9770581759263093e-05 4.1871201397553000e-04 0.0000000000000000e+00  1.7512905587766723e-05 3.3859284218372627e-04 0.0000000000000000e+00  1.4843622353958275e-05 2.6187320335286155e-04 0.0000000000000000e+00  1.1767975813878695e-05 1.8895164521831636e-04 0.0000000000000000e+00  8.2959492890958486e-06 1.2015402230739024e-04 0.0000000000000000e+00  4.4558419700831212e-06 5.5847429322651407e-05 0.0000000000000000e+00  2.7128358971624728e-07 -3.6804509565923637e-06 0.0000000000000000e+00  -4.2074018794097466e-06 -5.8121767312454834e-05 0.0000000000000000e+00  -8.9449176927486432e-06 -1.0724552048552899e-04 0.0000000000000000e+00  -1.3879320377010801e-05 -1.5082977417922588e-04 0.0000000000000000e+00  -1.8936144199849994e-05 -1.8871688819271178e-04 0.0000000000000000e+00  -2.4069013906168060e-05 -2.2080285768581804e-04 0.0000000000000000e+00  -2.9188485110046814e-05 -2.4701882652178211e-04 0.0000000000000000e+00  -3.4226911710049477e-05 -2.6736480003376501e-04 0.0000000000000000e+00  -3.9090644478876272e-05 -2.8189866932199284e-04 0.0000000000000000e+00  -4.3706567742034508e-05 -2.9074017850798042e-04 0.0000000000000000e+00  -4.7974981416086987e-05 -2.9407391572289216e-04 0.0000000000000000e+00  -5.1817324376979272e-05 -2.9214401961340637e-04 0.0000000000000000e+00  -5.5117738823122996e-05 -2.8529197078579340e-04 0.0000000000000000e+00  -5.7840435988361125e-05 -2.7388455721321866e-04 0.0000000000000000e+00  -5.9854658802724891e-05 -2.5836072064790882e-04 0.0000000000000000e+00  -6.1067995060935752e-05 -2.3926127376015953e-04 0.0000000000000000e+00  -6.1411889606496756e-05 -2.1717062513222995e-04 0.0000000000000000e+00  -6.0786857119755146e-05 -1.9274655230827427e-04 0.0000000000000000e+00  -5.9115426007780260e-05 -1.6669832282977212e-04 0.0000000000000000e+00  -5.6276615826257123e-05 -1.3986378884396058e-04 0.0000000000000000e+00  -5.2295305499298425e-05 -1.1305866389904304e-04 0.0000000000000000e+00  -4.6996616815366770e-05 -8.7167992804273485e-05 0.0000000000000000e+00  -4.0312405675855054e-05 -6.3221047770016170e-05 0.0000000000000000e+00  -3.2194649482978863e-05 -4.2259697202202604e-05 0.0000000000000000e+00  -2.2680980456877815e-05 -2.5382999730580823e-05 0.0000000000000000e+00  -1.2198136112663283e-05 -1.3080379897046631e-05 0.0000000000000000e+00  -3.8472832943425699e-06 -1.1188910147423994e-05 0.0000000000000000e+00  -1.0810822364908808e-04 1.6688556470819545e-03 0.0000000000000000e+00  -1.0782727767942001e-04 1.4844735176264706e-03 0.0000000000000000e+00  -1.0362925931206522e-04 1.1845914571075417e-03 0.0000000000000000e+00  -1.0514905153627452e-05 -4.5239950946653031e-05 0.0000000000000000e+00  -9.9721630565015068e-05 9.9824107302413901e-04 0.0000000000000000e+00  -1.7217284346703031e-05 -9.2117313919384843e-05 0.0000000000000000e+00  -9.6735788602922358e-05 8.1220687967744568e-04 0.0000000000000000e+00  -2.7296988341774735e-05 -1.7697306260678347e-04 0.0000000000000000e+00  -3.3001037328580979e-05 -2.2540566386722820e-04 0.0000000000000000e+00  -9.3318902836113477e-05 6.3206822055705315e-04 0.0000000000000000e+00  -4.8015499178117197e-05 -2.9240693034402447e-04 0.0000000000000000e+00  -8.5403170156864573e-05 3.0022207981109556e-04 0.0000000000000000e+00  -3.9115914304934715e-05 -2.6298950671970194e-04 0.0000000000000000e+00  -5.3472623078412764e-05 -2.8596195103533024e-04 0.0000000000000000e+00  -8.1017445931002221e-05 1.5439813784400030e-04 0.0000000000000000e+00  -8.9522122425164246e-05 4.6043989083152892e-04 0.0000000000000000e+00  -5.8877308160404101e-05 -2.5717885816770410e-04 0.0000000000000000e+00  -7.6410705240940348e-05 2.5821741939378610e-05 0.0000000000000000e+00  -6.3343349094251803e-05 -2.0757694683330808e-04 0.0000000000000000e+00  -7.2548649751457984e-05 -8.0909043164683302e-05 0.0000000000000000e+00  -6.7682388655156473e-05 -1.5371489242852981e-04 0.0000000000000000e+00  -4.3270035618187237e-05 -2.8254403301562731e-04 0.0000000000000000e+00  -1.0366281261801782e-04 1.3401481101320506e-03 0.0000000000000000e+00  -2.1678821337655780e-05 -1.3275656108021499e-04 0.0000000000000000e+00  -6.2736725854180896e-05 1.5759934887938092e-03 0.0000000000000000e+00  -1.4089611012893839e-05 -2.7719337992592451e-05 0.0000000000000000e+00  -6.2346030976838352e-05 9.0433311015654567e-04 0.0000000000000000e+00  -6.4309633207035657e-05 1.0925557201764220e-03 0.0000000000000000e+00  -3.4994378149442605e-06 -6.6717919371013040e-05 0.0000000000000000e+00  -2.1004734726161375e-05 -2.0016938385328248e-04 0.0000000000000000e+00  -5.6692910054874746e-05 3.7818335759465444e-04 0.0000000000000000e+00  -6.0344135921884029e-05 7.2086175023240652e-04 0.0000000000000000e+00  -5.2202842682742812e-05 -2.9028602623638026e-04 0.0000000000000000e+00  -5.5220400898003979e-05 2.2472405771718990e-04 0.0000000000000000e+00  -2.9148650990420451e-05 -2.4498337446000131e-04 0.0000000000000000e+00  -6.1944692758073280e-05 -2.7295126160840834e-04 0.0000000000000000e+00  -5.4034096191943264e-05 8.7117591881450088e-05 0.0000000000000000e+00  -5.8424783187936367e-05 5.4455169696119373e-04 0.0000000000000000e+00  -7.3875143722360436e-05 -2.3244819207486530e-04 0.0000000000000000e+00  -5.3109828977813006e-05 -3.1925910920155654e-05 0.0000000000000000e+00  4.9970758205070428e-07 -2.1419041352415285e-06 0.0000000000000000e+00  -3.1650132671921064e-06 -4.6464917487474791e-06 0.0000000000000000e+00  -1.3826538858721372e-04 1.7447099020838821e-03 0.0000000000000000e+00  4.7692012202580981e-07 -2.39793009