<?xml version="1.0"?>
<VTKFile type="UnstructuredGrid"  version="0.1"  >
<UnstructuredGrid>
<Piece  NumberOfPoints="2361" NumberOfCells="4498">
<Points>
<DataArray  type="Float64"  NumberOfComponents="3"  format="ascii">0 0 0  0 0.41 0  2.2 0.41 0  2.2 0 0  0.15 0.2 0  0.2 0.25 0  0.25 0.2 0  0.2 0.15 0  0 0.4000000000000008 0  0 0.3900000000000259 0  0 0.3800000000000606 0  0 0.3700000000000953 0  0 0.3600000000001082 0  0 0.3500000000001241 0  0 0.3400000000001558 0  0 0.3300000000001905 0  0 0.3200000000002133 0  0 0.3100000000002381 0  0 0.3000000000002728 0  0 0.2900000000003075 0  0 0.2800000000003204 0  0 0.2700000000003551 0  0 0.2600000000003897 0  0 0.2500000000004243 0  0 0.2400000000004419 0  0 0.2300000000004503 0  0 0.2200000000004849 0  0 0.2100000000005195 0  0 0.2000000000005203 0  0 0.1900000000004874 0  0 0.1800000000004544 0  0 0.1700000000004476 0  0 0.1600000000004316 0  0 0.1500000000003986 0  0 0.1400000000003795 0  0 0.1300000000003759 0  0 0.1200000000003428 0  0 0.1100000000003098 0  0 0.1000000000002768 0  0 0.09000000000024383 0  0 0.08000000000021068 0  0 0.07000000000020096 0  0 0.0600000000001879 0  0 0.05000000000015475 0  0 0.04000000000012166 0  0 0.03000000000008857 0  0 0.02000000000005536 0  0 0.01000000000002221 0  0.01007679662828254 0 0  0.02056899213655081 0 0  0.03149370747042262 0 0  0.04286877787651972 0 0  0.05471276293192491 0 0  0.06704499828634325 0 0  0.07988560641938237 0 0  0.09325554633647967 0 0  0.1071766410311884 0 0  0.1216716067611488 0 0  0.1367641016067741 0 0  0.152478764481749 0 0  0.1688412308389146 0 0  0.1858782107385222 0 0  0.2036175120042742 0 0  0.2220880805924512 0 0  0.2413200720246992 0 0  0.2613448680153237 0 0  0.2821951505493904 0 0  0.303904948281349 0 0  0.3265096961752511 0 0  0.350046282509153 0 0  0.3745531279755512 0 0  0.4000702232727447 0 0  0.4266392157867663 0 0  0.4543034693483497 0 0  0.4831081324012234 0 0  0.5131002188568834 0 0  0.54432867931559 0 0  0.5768444722696365 0 0  0.6107006746708104 0 0  0.6459525479050182 0 0  0.682657603414822 0 0  0.7208757746968344 0 0  0.7606694182609572 0 0  0.8021034816821726 0 0  0.8452455957902169 0 0  0.8901661663799046 0 0  0.9369385072466508 0 0  0.9856389585079668 0 0  1.036346998189458 0 0  1.089145397956563 0 0  1.144120312199143 0 0  1.201361473554013 0 0  1.260962300595225 0 0  1.323020078687202 0 0  1.387636074977323 0 0  1.45491573887162 0 0  1.524968897456634 0 0  1.597909863440663 0 0  1.673857723466354 0 0  1.752936382158491 0 0  1.835274909595432 0 0  1.921007725838496 0 0  2.010274709627921 0 0  2.103221572060948 0 0  2.2 0.08199999999981657 0  2.2 0.1639999999995688 0  2.2 0.2459999999995603 0  2.2 0.327999999999785 0  2.103221572061646 0.41 0  2.010274709629372 0.41 0  1.921007725840496 0.41 0  1.835274909597994 0.41 0  1.752936382161568 0.41 0  1.673857723469928 0.41 0  1.597909863444748 0.41 0  1.524968897461176 0.41 0  1.454915738876575 0.41 0  1.387636074982656 0.41 0  1.323020078692824 0.41 0  1.260962300601091 0.41 0  1.201361473560091 0.41 0  1.144120312205409 0.41 0  1.089145397962884 0.41 0  1.036346998195403 0.41 0  0.9856389585135474 0.41 0  0.9369385072518699 0.41 0  0.8901661663847817 0.41 0  0.845245595794772 0.41 0  0.802103481686421 0.41 0  0.760669418264917 0.41 0  0.7208757747005239 0.41 0  0.6826576034182545 0.41 0  0.6459525479082096 0.41 0  0.6107006746737729 0.41 0  0.5768444722723829 0.41 0  0.5443286793181334 0.41 0  0.5131002188592353 0.41 0  0.483108132403395 0.41 0  0.4543034693503529 0.41 0  0.4266392157886099 0.41 0  0.4000702232744378 0.41 0  0.3745531279771039 0.41 0  0.3500462825105728 0.41 0  0.3265096961765468 0.41 0  0.3039049482825278 0.41 0  0.2821951505504596 0.41 0  0.2613448680163102 0.41 0  0.2413200720256172 0.41 0  0.2220880805933043 0.41 0  0.2036175120050649 0.41 0  0.1858782107392414 0.41 0  0.1688412308395617 0.41 0  0.1524787644823298 0.41 0  0.1367641016072927 0.41 0  0.1216716067615997 0.41 0  0.1071766410315749 0.41 0  0.09325554633680744 0.41 0  0.07988560641965403 0.41 0  0.06704499828656418 0.41 0  0.05471276293210092 0.41 0  0.04286877787665544 0.41 0  0.03149370747052016 0.41 0  0.02056899213661323 0.41 0  0.01007679662831285 0.41 0  0.1502407636663884 0.2049008570164609 0  0.1509607359798352 0.2097545161007898 0  0.1521529832133837 0.2145142338627037 0  0.1538060233744229 0.2191341716182238 0  0.1559039367825641 0.223569836841266 0  0.1584265193848427 0.2277785116509352 0  0.1613494773318306 0.2317196642081427 0  0.1646446609406086 0.2353553390592634 0  0.1682803357917477 0.2386505226680794 0  0.1722214883489651 0.2415734806150907 0  0.1764301631586283 0.2440960632173794 0  0.1808658283816741 0.2461939766255348 0  0.1854857661372184 0.2478470167865927 0  0.1902454838991457 0.249039264020152 0  0.195099142983501 0.2497592363336078 0  0.2049008570164539 0.2497592363336122 0  0.2097545161007832 0.2490392640201661 0  0.2145142338626828 0.2478470167866227 0  0.2191341716182041 0.2461939766255852 0  0.2235698368412236 0.2440960632174586 0  0.2277785116509065 0.2415734806151765 0  0.2317196642081035 0.2386505226682015 0  0.2353553390592553 0.2353553390593994 0  0.2386505226680823 0.2317196642082488 0  0.2415734806150804 0.2277785116510502 0  0.2440960632173912 0.2235698368413496 0  0.2461939766255454 0.2191341716183002 0  0.2478470167865979 0.2145142338627645 0  0.2490392640201556 0.2097545161008361 0  0.249759236333609 0.2049008570164862 0  0.2497592363336122 0.1950991429835461 0  0.2490392640201661 0.1902454838992168 0  0.2478470167866227 0.1854857661373173 0  0.2461939766255852 0.180865828381796 0  0.2440960632174586 0.1764301631587765 0  0.2415734806151765 0.1722214883490936 0  0.2386505226682015 0.1682803357918965 0  0.2353553390593994 0.1646446609407447 0  0.2317196642082488 0.1613494773319177 0  0.2277785116510502 0.1584265193849196 0  0.2235698368413496 0.1559039367826088 0  0.2191341716183002 0.1538060233744546 0  0.2145142338627645 0.1521529832134021 0  0.2097545161008361 0.1509607359798444 0  0.2049008570164862 0.150240763666391 0  0.1950991429835392 0.1502407636663884 0  0.1902454838992102 0.1509607359798352 0  0.1854857661372963 0.1521529832133837 0  0.1808658283817763 0.1538060233744229 0  0.176430163158734 0.1559039367825641 0  0.1722214883490648 0.1584265193848427 0  0.1682803357918574 0.1613494773318306 0  0.1646446609407366 0.1646446609406086 0  0.1613494773319206 0.1682803357917477 0  0.1584265193849093 0.1722214883489651 0  0.1559039367826207 0.1764301631586283 0  0.1538060233744652 0.1808658283816741 0  0.1521529832134073 0.1854857661372184 0  0.150960735979848 0.1902454838991457 0  0.1502407636663922 0.195099142983501 0  0.4497464433271035 0.2128603839645795 0  0.09436379910378374 0.2954958146780293 0  0.09425243544168127 0.1034921699492004 0  0.1683066654611114 0.3265268839325433 0  0.07680507568712931 0.2178620979738804 0  0.1592867295756961 0.08995368982175443 0  0.2416951920695196 0.3148648568520336 0  0.3197100515005702 0.2731449521856624 0  0.3456858205559654 0.1767467869106733 0  0.2288217051827529 0.08493730308096538 0  0.0968410470366612 0.1625886078290883 0  0.2857504292880686 0.1197327335724334 0  0.1145127722819403 0.2512390724185118 0  0.131387359352741 0.1381851152311305 0  0.2661301418352878 0.2739799412711145 0  0.1490985573138478 0.2824667935368098 0  0.2921817065821172 0.2329831420157143 0  0.112260068582752 0.2039303614128035 0  0.2962607945457055 0.1857210599798835 0  0.1963395065621543 0.292994527353908 0  0.6525588965882295 0.2049999999999486 0  0.05927374935287404 0.3450000000001398 0  0.1955469269105363 0.1093556148953916 0  0.0519743122617712 0.2649287724268427 0  0.05234559748235189 0.1365277118010928 0  0.1159553700883489 0.349033593530565 0  0.2287927609086535 0.2804703759430142 0  0.2467847832810336 0.1219443047407754 0  0.05479420766574613 0.06399860770061949 0  0.1638327012469565 0.1235306716341578 0  0.2743490163127991 0.1532109232166037 0  0.05682948437205669 0.1792739834394199 0  0.128790889589103 0.167219169659253 0  0.8554585281771682 0.2095709395457614 0  0.1424009646299794 0.2522047226457036 0  0.1176561699931824 0.0545003527164994 0  0.1282722563203879 0.2258756738562898 0  0.3731024211934602 0.09002314601784911 0  0.2194309696307823 0.1262925743262255 0  0.1742648591086131 0.2719249004647761 0  0.05432977202892686 0.3050823731710892 0  0.03734688082245035 0.2133687511885528 0  0.4147603087131669 0.3127283062074136 0  0.4822296903130694 0.108162894794383 0  0.08164268474791335 0.2507707479777926 0  0.5306347340996173 0.2963244325275153 0  0.1281806855163542 0.1019566767596927 0  0.1286707968404639 0.1900852347849443 0  1.062746198079145 0.2069058240722179 0  0.08463574039538151 0.190183888500296 0  0.3057832465255115 0.3383561022135174 0  0.1272069882985122 0.3142026815567071 0  0.1014798938199491 0.2292224104347988 0  0.1514367020339187 0.1465959410974651 0  0.1014012557885954 0.13303936819343 0  0.03815381594638185 0.10049484098391 0  0.2455937296470061 0.2596645549646623 0  0.1928503540296717 0.05026710077661149 0  0.2084533268718882 0.3574785931821215 0  0.2763268590104109 0.2040983516074973 0  0.1205573721600911 0.2798310185557399 0  0.285570666014676 0.05947058583715884 0  0.2652589900411609 0.2396563558851484 0  0.204284900540005 0.2724217208964187 0  0.2699095764202449 0.1824885627142801 0  0.1828735997032589 0.1316275774048747 0  1.267853124557618 0.2049999999999013 0  0.2496403614217504 0.1459002025568865 0  0.03632578544217741 0.3733109386590208 0  0.5903223967839303 0.1049243559578142 0  0.3828749682900271 0.2411221135029621 0  0.03167454992476935 0.1600254242133378 0  0.1536470678963334 0.3685008920470031 0  0.03403850286640472 0.03596751923725369 0  0.05397682133822489 0.2358731072063433 0  0.08874823292269912 0.3294124058741584 0  0.3143726815876251 0.1501747127738783 0  0.08333181785151814 0.03802294211237929 0  0.08598091705909608 0.3722990769608511 0  0.1070899765790721 0.183598312606168 0  0.1313489180028748 0.2081534418129154 0  0.087068142
[...]
<PointData  Scalars="f_27-1"> 
<DataArray  type="Float64"  Name="f_27-1"  format="ascii">8.3647990689734317e-02  8.3349616114057765e-02  5.7010720423885219e-02  5.7047047575149862e-02  9.4308526381988625e-02  6.0988209202877119e-02  3.9742138719272790e-02  7.0988229352939691e-02  7.6085206937998071e-02  7.7002125516704295e-02  7.8926978489460661e-02  6.9992351820212392e-02  7.0313917414793176e-02  6.4920730539805627e-02  6.3651052300819425e-02  6.2654205310431005e-02  5.7775248484019666e-02  5.3653708937679956e-02  5.1295247668507106e-02  4.9749963650227096e-02  4.7021246184381006e-02  4.6098030691591747e-02  4.3482269936013465e-02  4.4536767636703223e-02  4.2656266452256661e-02  4.2004423883887976e-02  4.2941326077521359e-02  4.4305183395915056e-02  4.0801453687856461e-02  4.5044124879489222e-02  4.2698972951643724e-02  4.5017952834469535e-02  4.4770477989311719e-02  4.6184528678430967e-02  4.5594276147015195e-02  5.0279275194837339e-02  5.1712829870036413e-02  5.2001252290776297e-02  5.6505940593075225e-02  5.8992715432238087e-02  6.1389276355488596e-02  6.6114834693539945e-02  6.6382776847202410e-02  7.0998985082120283e-02  7.5587402440850535e-02  7.3696030830166626e-02  8.1733077791711364e-02  7.8911976811257348e-02  7.9319154479011444e-02  8.3563746098227989e-02  7.9579436493181582e-02  8.3756363105210965e-02  8.1148729883844556e-02  8.2936894370343545e-02  8.1228310741372406e-02  8.0496067386585601e-02  8.0653434198511301e-02  8.1694202526257587e-02  8.1507853321707402e-02  7.9695014318460267e-02  7.1993053869996798e-02  7.1769681327774948e-02  6.8276757864460649e-02  6.5129868305670649e-02  6.0189020421427548e-02  6.0335904852889262e-02  5.7195734949514167e-02  5.1543500169277584e-02  5.6076856494178491e-02  5.5987831921709662e-02  5.3759262778345730e-02  5.2573101453825287e-02  5.3017530523798678e-02  5.3665658527645432e-02  5.3705316806715427e-02  5.2328182315529631e-02  5.3429919265734573e-02  5.1605011272570993e-02  5.2685969597568896e-02  4.9285016435251947e-02  5.1180590983492993e-02  4.9690622085157600e-02  5.0548054631066798e-02  4.8236824820525562e-02  5.0054499220818109e-02  4.5108141423731103e-02  5.0010753948330412e-02  4.4768518069999777e-02  4.6601913079015497e-02  4.6561633013866670e-02  4.4132579599237297e-02  4.7327325044032996e-02  4.4072619411664571e-02  4.3071173849718730e-02  4.6011999206622918e-02  3.4546244920776965e-02  4.6688547741452049e-02  3.7816669386251750e-02  3.6570096905453188e-02  3.9380995426379815e-02  3.7645793518105694e-02  3.7703463085445407e-02  4.7483627432965948e-02  2.5563803586083747e-02  -2.2607059191187742e-02  1.0293122487592720e-02  9.9660562075025837e-03  -2.2410871048503520e-02  2.6071638421710293e-02  4.6487569795254896e-02  3.8133918727499279e-02  3.3706503363618745e-02  3.8862887934659029e-02  3.8495466424860264e-02  3.8078752027565103e-02  4.3806095708219743e-02  3.7130445698077365e-02  4.3987775420991200e-02  4.0779833491633076e-02  4.3991937426216945e-02  4.1235187374789387e-02  4.4129125591788491e-02  4.3901342316602400e-02  4.6172000559370659e-02  4.6059167807398528e-02  4.7563879873189878e-02  4.7827838582355661e-02  4.9630186745421495e-02  4.7864582735390244e-02  4.8005370714416171e-02  5.1307802254435486e-02  5.0406187817307123e-02  5.2166933839229226e-02  5.1581830885945694e-02  5.2526754930948667e-02  5.2982395793350366e-02  5.1485297581054162e-02  5.2196967463701081e-02  5.2733872393316575e-02  5.3369698742567515e-02  5.3655328391112790e-02  5.6060893035053710e-02  5.4982716189767966e-02  5.4347982211102229e-02  5.4797470410044104e-02  5.6779011747626833e-02  5.8068693206612371e-02  6.5479247914493013e-02  6.2029858926121895e-02  7.1051197531614485e-02  6.7777142286818665e-02  7.7675982521829862e-02  7.7351533262857750e-02  7.8350776648091758e-02  7.8304410750970707e-02  8.3531995200877895e-02  8.1790453954198206e-02  8.0564741023680553e-02  8.3273716853504057e-02  8.0074453013855865e-02  8.0702280524816025e-02  8.2649387532290106e-02  7.9771902951399035e-02  8.0527169655592742e-02  9.9610009239411365e-02  9.3283829143069819e-02  9.6585069305972840e-02  9.7699056897521119e-02  9.1401817366011606e-02  8.8307096411647648e-02  9.1049107830281639e-02  8.6220112795749662e-02  8.9813219631623809e-02  7.7019846792504329e-02  8.4375629722091408e-02  7.7953530800295934e-02  8.1642796422794817e-02  7.0266463705789123e-02  7.5461281439460945e-02  6.5370741419870565e-02  6.2345875481647793e-02  5.8927027455183148e-02  5.8963470834294235e-02  6.2416973002121935e-02  5.2069283610653279e-02  5.3540180670495971e-02  5.3456865712507157e-02  4.2625290321556999e-02  4.5085177758536994e-02  4.8569055039802869e-02  4.1183046048024634e-02  4.1271375000893507e-02  3.9868417596454916e-02  4.2432087677754943e-02  3.9819424257723279e-02  4.3184713019309179e-02  4.5112298847232980e-02  4.1091897485992540e-02  4.3771463103657794e-02  5.2751499430193485e-02  4.5889990413147862e-02  4.5934024821116221e-02  5.3421445386786531e-02  4.2032003368084665e-02  6.6476896280262168e-02  5.3709516614343214e-02  5.0684840761021248e-02  6.8546504146041659e-02  6.2303658638247141e-02  6.0789670478479094e-02  8.3359864652912855e-02  6.9347744713265866e-02  8.3147171804483569e-02  7.7257851507364930e-02  9.2755568860225637e-02  8.3894965303301511e-02  8.2563977247833556e-02  9.4437095781115935e-02  9.0027536625554225e-02  8.6644234768888204e-02  1.0163277315573518e-01  9.7443660751608902e-02  9.6762822832164350e-02  9.5817698075266119e-02  1.1922789820466091e-02  3.1753755964365409e-02  3.9592325061806613e-02  2.8897567763084333e-04  6.1358225872982702e-02  1.2670973383858610e-02  -8.9838849289540484e-03  1.9130908314115874e-02  3.0699932689296449e-02  -1.8744176833952817e-03  6.2469780305540797e-02  1.7521851344850806e-02  5.3689104358103430e-02  5.0964330887191295e-02  1.5216113772719288e-02  2.2507731906897515e-02  4.1654461763490351e-02  7.8906434957307536e-02  4.4719687743338038e-02  4.3208297645141152e-03  4.3642035076522472e-03  5.8918423966412080e-02  1.3928178102995606e-02  4.2558771129844866e-02  4.7698894853525166e-02  3.7903108960829018e-02  1.3641163154227507e-02  1.9348249586547801e-02  6.0518776126085368e-02  3.4202979782773410e-02  3.5169742368948174e-02  5.4758925271653297e-02  7.3326275568038168e-02  1.8800171162366612e-03  5.9036548670090387e-02  4.6247115044317104e-02  7.7094934702363158e-02  2.8598076436279093e-02  3.5259335340928878e-02  3.6688972331395085e-02  4.4650091209215134e-02  4.4519438337361043e-02  2.5315242108436522e-02  2.5775375336155069e-02  4.9215992910537139e-02  2.3052656899245839e-02  2.7762918477057807e-02  8.7357389208578093e-02  -2.7553027007886288e-03  6.5075451031412934e-02  1.8557371683798663e-02  1.7842645284833234e-02  6.4919789323893751e-02  6.4510806994695885e-02  4.7625725272637406e-02  5.3110179536192584e-02  3.5207633453377032e-02  2.2026971921444156e-02  1.4680762725566669e-02  5.3172617894488322e-02  3.0047772504060405e-02  2.4756393936308612e-02  4.3333313719661322e-02  3.3627072232249783e-02  4.6821054854809481e-02  4.8425190534138421e-02  -3.3735333468735960e-03  4.1683421983342440e-02  7.4016058218982453e-02  2.5180333273576404e-02  2.0259256345670006e-02  4.8018999502015006e-02  4.4237343045363926e-02  7.3700643206715391e-02  4.6998403074230699e-02  4.0616962454990156e-02  2.8795509871020902e-02  6.7566786818319680e-02  6.8940380155455200e-02  7.5116304261474393e-02  8.8106476842327114e-02  4.8490580810531522e-02  3.9525536548478166e-02  7.6753599491627090e-03  5.2286219546715362e-02  1.9190969598212294e-02  5.7605071848211932e-02  6.4494001517169927e-02  3.3776211892494440e-02  7.9300589034608862e-02  1.4048508914649711e-02  1.3809132887968287e-02  4.5535382876789786e-02  4.6844762024252098e-02  -1.0683477372236782e-02  6.6432263470099168e-03  1.8656351019350866e-02  5.9171453198515599e-02  3.8779980740480779e-02  4.3464774705502161e-02  2.5602744705018950e-02  -8.4640617814696565e-03  3.6101808604618944e-02  4.8150931571510257e-02  6.1244067563106436e-02  7.7595934533456382e-02  3.1961476186987262e-02  4.6700351651393392e-02  4.3354063500655522e-02  3.5027907136543676e-02  4.6952325363758818e-02  6.1224397598542188e-02  9.3676595753853392e-04  3.2403858581216888e-02  9.2377368558040740e-02  -7.9187979044273199e-04  2.5130464545129055e-02  5.5556803321381416e-02  4.4114409080050848e-02  4.1819797943243586e-02  -1.2126035582931497e-02  4.6669137392085475e-02  6.8353847745283927e-02  5.9304131470656204e-02  2.3158263784822736e-02  4.8910405672209162e-03  2.5861002421487225e-02  1.8362898125784094e-02  4.4244829404601262e-02  5.0795955491576075e-02  8.7966698941844401e-03  1.4068713904229709e-02  5.2274163404352876e-02  6.6382248213051782e-03  3.8075912387172381e-02  4.2565754982203045e-02  -9.1468543217999004e-03  6.3391363211277751e-02  2.5479409127742231e-02  3.7565677546195754e-02  7.9135745761117982e-02  8.5458843586383684e-02  4.4425860758231094e-02  4.8759604988294264e-02  6.6026681486431774e-02  1.3116580351788644e-02  -5.5593486549271711e-03  6.5077476854207811e-02  3.6079778141418842e-02  6.9892136876091179e-02  3.9432781926693673e-02  2.2000007427707573e-02  2.0470726245527357e-02  5.4142148625586917e-02  2.6241105339406091e-02  4.6575922633368246e-02  6.4976450791044041e-02  2.7657693502515717e-02  4.0145539535338989e-02  5.7304641708691338e-02  4.4262598602521637e-02  4.3081687443992281e-02  1.5058697655471631e-02  7.5211684317708111e-02  7.0249010649290955e-02  7.5317707299395603e-02  1.7803478676642948e-02  5.2131771747433560e-02  1.9801534802548954e-03  7.6691411785864125e-02  9.5290914912069327e-02  2.5994840113832312e-03  5.0241885430883933e-02  6.5469828918686260e-02  1.8874494064318730e-02  9.7243054137773725e-03  7.7739825471788088e-03  2.9499500828111421e-02  5.3330533019679709e-02  4.3979941084983667e-02  6.4043474685581317e-02  4.6170182214109401e-02  -5.7829402561907139e-03  3.8365669445376706e-02  1.9515715803678849e-02  4.1983709390674182e-02  2.2222063551261811e-02  6.7830119267553002e-02  3.7974775434632568e-02  6.9765372876707588e-02  5.2858104507486618e-02  4.5083211087120982e-02  7.9612079664853081e-03  1.0228010824430271e-02  7.4653934968370278e-02  2.5624987467118221e-02  4.3400704863655118e-02  5.0943323118658686e-02  2.3843397846073058e-02  5.3723451500629321e-02  8.2596040761977491e-02  4.7752620393730308e-02  4.3748198729474358e-02  4.5745338961696087e-02  4.5453527321944708e-02  4.5696704185768128e-02  -5.2309977240405699e-03  6.9359793204621769e-03  2.3776856310172845e-02  3.1466479198744027e-02  1.2194977820317006e-02  8.1529671879187221e-02  4.8315084469599222e-02  1.1130562903490758e-02  4.2649517244406125e-02  1.5149845560981761e-02  4.7941192407591600e-02  2.7474872400255788e-02  4.1232298030895904e-02  3.0203184901325493e-03  6.5139486983456493e-02  6.2209312255916895e-02  1.2164752901993436e-02  3.4576405103079799e-02  3.3045828044920213e-02  1.4481453696626522e-02  8.0817497154078127e-02  5.4513019476270651e-02  5.1283480388273399e-02  6.2471780718880696e-02  3.9157438308654341e-02  5.2853172823832631e-02  2.0582473194019252e-02  6.8572841123126366e-02  4.7704909245053280e-02  5.2604369773786193e-02  2.9945705151466925e-02  1.2430855394410228e-02  4.9015356692181794e-02  8.1717390994312258e-02  2.6306865099849247e-03  7.9550819470355624e-02  5.5807387491720498e-02  4.9306516855414737e-03  1.0016028095953445e-02  4.2387721514671399e-02  2.1993609379211770e-02  7.1850492490155779e-03  1.8007668547848788e-02  5.8685117392835329e-02  3.8820145404408965e-02  4.6244016569500397e-02  1.4325570216972380e-02  1.9140078243925145e-02  1.0250255018315760e-02  6.0190296562401997e-02  1.9865950035492519e-02  2.6868691109110249e-02  4.1188799538255723e-02  2.7905104699177036e-02  3.0916343922023762e-02  6.9476529765997705e-02  -1.0493316488253402e-03  4.3497157162967502e-02  4.3740838455854344e-02  6.7992666805596916e-02  2.8441480508673740e-02  4.5593028073034531e-02  1.1041580558016255e-02  3.9434304518777691e-02  5.0499103731631148e-02  1.7654751834371315e-02  5.4640293697085014e-02  4.8011413235688895e-02  2.7360121560638308e-02  3.3569023262988912e-02  4.3223231064731880e-02  2.4245652816174947e-02  4.4696393188379702e-02  3.9163387941151824e-02  8.8784621646556858e-02  3.6813900358651445e-02  4.2965305696188304e-02  1.6112110566945545e-02  4.0057028184510256e-02  3.7027876263408518e-02  9.4945399509048026e-02  -4.1594917548585154e-05  4.8604315712871174e-02  4.8424834724175629e-02  9.5705773158495752e-02  8.3778936722453373e-02  4.5753982628678164e-02  8.2023783963655460e-03  4.3313264751290333e-02  3.6438889102143761e-02  7.9918552158053338e-02  4.7135924847861478e-02  3.7267502716628521e-02  7.4341510488036264e-02  6.2570581511693410e-02  5.8721478498131377e-02  5.8422351773980905e-02  3.2211221107804507e-02  4.2519252872605828e-02  3.9814804742996882e-02  9.2885545550606616e-03  -8.2910496446952815e-03  4.7821625201645228e-02  6.4417896266228958e-02  5.7513556180671062e-02  -7.3425583817447629e-05  8.5389639873757327e-04  4.3734682330633337e-02  2.7000387341044721e-02  6.5282445366645514e-02  5.0519235946576188e-02  5.2573981771419823e-02  9.8287333516720917e-03  6.5010044048435245e-02  2.3563392218087939e-02  1.9833252896565158e-02  1.9172817466176963e-02  -1.1387903668631199e-04  1.4803244285823003e-02  4.1072564171839840e-02  3.8033856065904453e-02  4.3949237648989482e-02  8.1867806436800833e-02  4.0355730776752696e-02  5.7107474085462268e-02  6.2232308480763068e-02  8.1363343557144696e-02  3.3044181355918856e-02  4.9802321821640454e-02  7.3039352657206957e-02  6.4265613750214334e-02  5.7768109611356228e-02  2.8741360728887659e-02  8.3220271646053695e-02  2.7728546576822975e-02  8.0431670722370077e-02  3.5154820737105637e-02  4.3661416286258602e-02  6.5839164433749597e-02  1.2743521919788893e-02  -1.6962068230431102e-03  4.0807376780863720e-02  -3.6724367220418653e-04  7.7148127652464704e-02  2.5173202019654884e-02  1.7535497163134222e-02  9.3114357531355385e-02  7.8442443184394584e-02  4.6863020233267563e-02  4.8908140819392112e-02  8.3174801317063257e-02  1.5510619505549137e-02  1.9976135392993640e-02  3.9640047079198427e-03  3.3642301654880157e-02  7.4521634114168650e-02  4.8734478544333298e-02  4.5809259300360249e-02  7.8691419922997288e-02  -2.2634787440216132e-03  5.0989607601256842e-03  4.8394844262066514e-02  4.5219058310088552e-02  4.5450533845925872e-02  8.0778696706134218e-02  3.8816790096537906e-02  4.5566916510564950e-02  4.5406614025771036e-02  -1.4993862834289891e-04  -1.4792809303448997e-04  6.9188127734279431e-02  1.8454203644078049e-03  -4.0730124021633079e-03  4.7902314039144939e-02  2.4130290564255759e-02  4.1971166762762094e-02  4.2946089470741883e-02  5.6284486100465318e-02  2.9313596756943630e-02  7.1494695797501895e-02  4.5163410359989845e-02  4.3830092795230140e-02  4.8247611101243981e-02  8.5286918012048032e-02  3.5128622842114786e-02  5.4784573934650235e-02  1.0195431478180415e-02  6.1949628711386637e-02  4.3951465223879958e-02  2.8143888757560614e-02  6.3348772870717912e-02  5.2800462828294654e-02  3.1370046437837057e-02  6.6675733825533268e-02  7.7937077884564124e-02  3.8265861562961322e-02  4.6972666043432747e-02  4.9848419452061941e-02  5.0224629335645948e-02  7.0213682802832342e-02  3.8028412183108311e-02  4.2206644583687968e-02  4.5257739650073611e-02  5.9383043998379653e-02  1.5996528880351222e-02  6.8510925123243055e-02  3.0805603608015607e-02  5.0304061000479725e-02  2.4331423217764599e-02  7.4718553441026070e-03  4.3276512790402524e-02  1.1046022883548907e-02  1.4323508833248615e-02  3.3941054086282799e-02  6.5781342917578534e-02  5.7930327126114775e-02  2.7536739731818256e-02  5.3285100478741319e-02  4.6081959718837120e-02  3.7019322191945342e-02  8.3745037872366406e-03  5.4874129460659019e-02  6.0133196324865506e-03  3.7942660708716616e-02  4.3350575126196444e-02  1.3630545898931290e-02  5.4164069773427914e-02  3.6713955653641057e-02  6.4766385501969392e-02  3.1044636830293390e-02  1.7541182271718875e-02  8.4900135714008104e-02  5.4029445740125741e-02  5.4725054355182809e-02  2.7616580202357216e-02  3.6899452888936582e-03  4.7543136537121264e-02  6.1144725192050366e-02  -1.1066338726087309e-02  3.0129140980144374e-02  1.7211059497883475e-02  1.5424722785965621e-02  9.6388779824812115e-02  -2.7091798226417632e-03  1.0040559424797513e-01  1.5025211759052916e-02  4.7751245522481910e-02  6.5948550797896383e-02  2.6279671897029372e-02  4.5015966557823223e-02  5.7781555244012350e-02  6.7416428786421539e-02  7.3271156913250609e-03  2.4220485800611341e-02  1.0226014239278412e-02  3.2488903334507963e-02  4.3463631824213799e-03  -4.7847565132197734e-03  1.7716332431125283e-02  5.7843559756911977e-03  4.3849660836217323e-02  1.1534911340435976e-02  4.9479661755054090e-02  4.7372373420719455e-02  2.4572150068696095e-02  4.9173035565349459e-02  5.6397838137023419e-02  1.7951732900441653e-02  4.1920302566786319e-02  5.1412197025948965e-02  2.4989915009319432e-02  5.1851886169540319e-02  4.6538364306397718e-02  6.8317278285438154e-02  5.1255220198531397e-02  2.3190885285641918e-02  1.0710634580686526e-03  6.2322859147700839e-02  6.4144328092654176e-02  4.5244228425940579e-02  7.8523638017485312e-02  3.9724652297525476e-02  7.2644086424494630e-02  3.3142074939992362e-02  5.5596296580808766e-02  6.1141301072819752e-02  4.8856923928715608e-02  9.3116327012776733e-03  1.1051608555380274e-02  4.1833477791091270e-02  6.9370894937758595e-02  2.2980090140000037e-02  8.8704791965168225e-03  2.1361706999891657e-02  6.9713902473313744e-02  6.3637980984900644e-02  6.9165857790589647e-02  3.2577279434383273e-02  3.4020868939176031e-02  7.9773766436535151e-02  2.0013370443868632e-02  5.8568979282693397e-02  3.1896516027096589e-02  7.4859810952853753e-02  6.9451368338248859e-02  3.0161894947455057e-02  4.3956268454019232e-02  4.9870916952499934e-02  4.1918824619235434e-02  7.5266678290133546e-02  7.6594567042457887e-02  7.2890548158601465e-02  5.5463034947166650e-03  1.3959038195703604e-02  4.8297661164261450e-02  6.8578278637841444e-04  4.2551640377749791e-02  2.8691828153473369e-02  1.5880047144221716e-02  7.8952685610871164e-03  -7.3414728780394118e-05  4.4913301896881759e-02  2.5552487014859803e-02  7.1176945035054631e-02  4.8109824907611398e-02  3.4399169348516521e-02  1.3165070748422825e-02  1.3719530718957089e-02  4.2831864200567935e-02  8.7634189763062892e-02  8.7039775936292030e-03  5.9004554220204238e-02  4.8161855296854364e-02  5.2347843448586062e-02  4.3471542943921471e-02  7.5089274459806135e-02  5.6731458328665180e-03  4.7213521621329226e-02  4.3485528709778801e-02  3.2848153069450728e-02  4.6195088398127790e-02  4.0815459266710000e-02  4.7893700700549664e-02  4.2311604578352840e-02  4.3243212592792492e-02  2.3559714992578529e-02  4.2396580148996582e-02  6.4708622236762534e-02  6.0972064941268590e-02  7.5942661325386032e-02  3.5812995625265034e-02  2.1383631000660288e-02  5.1150924557281936e-02  4.0034826704403621e-02  7.5463850708663127e-02  9.7556004939478122e-02  3.8354852448388224e-02  4.2984452271093321e-02  6.9126273819147765e-02  4.6339380914387017e-02  2.4036698583747313e-02  8.2088369085904458e-02  2.7893880308226794e-02  3.5295714957160926e-02  4.8590872951652875e-02  4.8451710592979536e-02  3.1863204164886569e-02  9.6972791878289950e-03  7.3057503127102782e-02  7.9874976690432559e-02  4.3860110906236337e-02  2.9225336781766080e-02  7.5366620276671958e-02  4.8005789081790644e-02  3.7331539109808388e-02  5.2562373906141532e-02  5.0318062260999184e-02  2.7550852987689334e-02  5.1810417110190249e-03  5.2959969809605496e-02  7.6081670263068460e-02  1.6681935903283752e-02  6.9300442624574951e-02  5.0037240212002905e-02  4.3114564307149397e-02  3.9278557828634958e-02  5.7005004289266484e-02  4.3999549846935805e-02  4.7748502186529679e-02  4.8303299319203734e-02  6.1608151928007043e-03  1.2688300905641247e-02  4.5133001493550602e-02  1.4719956347800208e-02  4.7984225840093583e-02  -1.8616302219542458e-03  -8.4010466040879365e-03  1.4363757539474215e-02  3.054708