<?xml version="1.0"?>
<VTKFile type="UnstructuredGrid"  version="0.1"  >
<UnstructuredGrid>
<Piece  NumberOfPoints="1419" NumberOfCells="2698">
<Points>
<DataArray  type="Float64"  NumberOfComponents="3"  format="ascii">0 0 0  0 0.41 0  2.5 0 0  2.5 0.41 0  0.6 0.19 0  0.6 0.21 0  0.25 0.2 0  0.15 0.2 0  0.2489897948556636 0.21 0  0.2489897948556636 0.19 0  0.6 0.2 0  0 0.3807142857143437 0  0 0.3514285714286952 0  0 0.3221428571430699 0  0 0.29285714285744 0  0 0.2635714285718054 0  0 0.2342857142861561 0  0 0.2050000000005308 0  0 0.175714285714732 0  0 0.1464285714289574 0  0 0.1171428571431897 0  0 0.08785714285737878 0  0 0.05857142857161107 0  0 0.02928571428580012 0  0.03015443760436003 0 0  0.06140001986583606 0 0  0.09377624077125973 0 0  0.1273239957535082 0 0  0.1620856860351972 0 0  0.1981052433264291 0 0  0.235428184091502 0 0  0.2741016576309132 0 0  0.3141745521465447 0 0  0.3556974926295285 0 0  0.3987229542472677 0 0  0.4433053055141081 0 0  0.4895008759286886 0 0  0.5373680609405097 0 0  0.5869673343216626 0 0  0.6383613676634521 0 0  0.6916151138468254 0 0  0.7467958595648856 0 0  0.8039733463919316 0 0  0.8632198139502143 0 0  0.9246101326867038 0 0  0.9882218810934433 0 0  1.054135445558498 0 0  1.122434100542598 0 0  1.193204177141305 0 0  1.266535089879536 0 0  1.342519516046404 0 0  1.421253448503939 0 0  1.502836389106271 0 0  1.587371439758838 0 0  1.674965418777374 0 0  1.765729001825544 0 0  1.859776908880082 0 0  1.957227977487062 0 0  2.058205329869943 0 0  2.162836591189951 0 0  2.271253957290865 0 0  2.383594446803425 0 0  2.5 0.1024999999997612 0  2.5 0.2049999999994743 0  2.5 0.3074999999997183 0  2.383594446803656 0.41 0  2.271253957291315 0.41 0  2.162836591190598 0.41 0  2.058205329870775 0.41 0  1.957227977488067 0.41 0  1.859776908881246 0.41 0  1.765729001826854 0.41 0  1.674965418778818 0.41 0  1.58737143976041 0.41 0  1.502836389107956 0.41 0  1.421253448505726 0.41 0  1.342519516048286 0.41 0  1.266535089881505 0.41 0  1.193204177143353 0.41 0  1.122434100544716 0.41 0  1.05413544556068 0.41 0  0.9882218810956305 0.41 0  0.9246101326886647 0.41 0  0.8632198139519631 0.41 0  0.8039733463934788 0.41 0  0.7467958595662458 0.41 0  0.6916151138480078 0.41 0  0.6383613676644679 0.41 0  0.5869673343225223 0.41 0  0.5373680609412221 0.41 0  0.4895008759292634 0.41 0  0.4433053055145528 0.41 0  0.3987229542475914 0.41 0  0.3556974926297398 0.41 0  0.3141745521466497 0.41 0  0.2741016576310038 0.41 0  0.2354281840915826 0.41 0  0.1981052433265003 0.41 0  0.1620856860352591 0.41 0  0.1273239957535623 0.41 0  0.09377624077128965 0.41 0  0.06140001986584975 0.41 0  0.03015443760436654 0.41 0  0.2497468076502589 0.2050254481002335 0  0.2497468076502614 0.1949745518997913 0  0.2469965252529372 0.1829317073451959 0  0.2439893735792749 0.1762316384219906 0  0.2400332147834255 0.1700443375285386 0  0.2352133972704371 0.1645032867342007 0  0.2296339016332438 0.1597280261969788 0  0.2234150974217223 0.1558215752574715 0  0.2166911463437691 0.1528682099456123 0  0.2096071079204251 0.1509316448471593 0  0.2023158100364996 0.1500536585536553 0  0.194974551899914 0.1502531923497262 0  0.1877417105387872 0.1515259415822739 0  0.1807733240461124 0.153844448527136 0  0.1742197252835808 0.15715869474974 0  0.1682222986673531 0.1613971801805478 0  0.162910430003803 0.1664684656256651 0  0.1583987151779087 0.1722631454351573 0  0.1547844879126891 0.178656207771761 0  0.1521457199348551 0.1855097315605723 0  0.1505393388476355 0.1926758619366523 0  0.1505393388476328 0.2073241380633295 0  0.1521457199348437 0.2144902684393899 0  0.1547844879126531 0.221343792228163 0  0.1583987151778488 0.2277368545647528 0  0.1629104300036858 0.2335315343742052 0  0.1682222986671726 0.2386028198193036 0  0.1742197252833576 0.2428413052501257 0  0.1807733240458683 0.2461555514727623 0  0.1877417105384929 0.2484740584176516 0  0.1949745518995776 0.2497468076502398 0  0.202315810036185 0.2499463414463592 0  0.2096071079201568 0.2490683551528932 0  0.2166911463435495 0.2471317900544655 0  0.2234150974215506 0.2441784247426195 0  0.2296339016331197 0.2402719738031125 0  0.2352133972703547 0.2354967132658811 0  0.2400332147833751 0.2299556624715287 0  0.2439893735792577 0.2237683615780412 0  0.246996525252926 0.2170682926548348 0  0.25645809709277 0.21 0  0.2639263993298655 0.21 0  0.271394701566961 0.21 0  0.2788630038040554 0.21 0  0.2863313060411479 0.21 0  0.2937996082782405 0.21 0  0.301267910515333 0.21 0  0.3087362127524279 0.21 0  0.3162045149895234 0.21 0  0.3236728172265972 0.21 0  0.3311411194636928 0.21 0  0.3386094217007701 0.21 0  0.3460777239378666 0.21 0  0.3535460261749672 0.21 0  0.3610143284120516 0.21 0  0.3684826306491596 0.21 0  0.3759509328862226 0.21 0  0.383419235123329 0.21 0  0.3908875373604028 0.21 0  0.3983558395975142 0.21 0  0.4058241418345938 0.21 0  0.4132924440716992 0.21 0  0.4207607463087888 0.21 0  0.4282290485459029 0.21 0  0.4356973507830418 0.21 0  0.4431656530201649 0.21 0  0.4506339552573136 0.21 0  0.4581022574944306 0.21 0  0.4655705597315852 0.21 0  0.4730388619686996 0.21 0  0.480507164205851 0.21 0  0.4879754664429498 0.21 0  0.4954437686800938 0.21 0  0.502912070917267 0.21 0  0.5103803731544119 0.21 0  0.5178486753915261 0.21 0  0.5253169776286404 0.21 0  0.5327852798657868 0.21 0  0.5402535821029386 0.21 0  0.54772188434007 0.21 0  0.5551901865771842 0.21 0  0.5626584888143201 0.21 0  0.5701267910514778 0.21 0  0.5775950932886138 0.21 0  0.5850633955257281 0.21 0  0.5925316977628483 0.21 0  0.6 0.2050000000000054 0  0.6 0.1950000000000217 0  0.5925316977628897 0.19 0  0.5850633955257988 0.19 0  0.5775950932887378 0.19 0  0.5701267910515998 0.19 0  0.5626584888145268 0.19 0  0.5551901865773963 0.19 0  0.547721884340339 0.19 0  0.5402535821032429 0.19 0  0.5327852798661811 0.19 0  0.5253169776290537 0.19 0  0.5178486753919799 0.19 0  0.5103803731549078 0.19 0  0.502912070917822 0.19 0  0.4954437686807294 0.19 0  0.4879754664436223 0.19 0  0.4805071642065402 0.19 0  0.4730388619694271 0.19 0  0.4655705597323621 0.19 0  0.4581022574952563 0.19 0  0.4506339552581777 0.19 0  0.4431656530210671 0.19 0  0.4356973507839815 0.19 0  0.4282290485468779 0.19 0  0.4207607463097617 0.19 0  0.4132924440726327 0.19 0  0.4058241418354857 0.19 0  0.3983558395983636 0.19 0  0.3908875373612097 0.19 0  0.3834192351240934 0.19 0  0.3759509328869369 0.19 0  0.3684826306498175 0.19 0  0.361014328412667 0.19 0  0.3535460261755617 0.19 0  0.3460777239384295 0.19 0  0.3386094217012945 0.19 0  0.3311411194641595 0.19 0  0.3236728172270245 0.19 0  0.3162045149898895 0.19 0  0.3087362127527544 0.19 0  0.3012679105156187 0.19 0  0.2937996082784807 0.19 0  0.2863313060413428 0.19 0  0.2788630038042048 0.19 0  0.2713947015670686 0.19 0  0.2639263993299336 0.19 0  0.2564580970927985 0.19 0  0.2607803159922026 0.2000727136295815 0  0.5887803774232762 0.2001272386983733 0  0.5745072403740523 0.2002044435018727 0  0.5511891430099709 0.2001122610077113 0  0.2751288526855082 0.20000000000002 0  0.5365194309847112 0.1999999999999436 0  0.2894621222999649 0.1998691686390484 0  0.5215828265105155 0.1999999999999228 0  0.3127789816668748 0.1998657885438805 0  0.3274069683451451 0.2000000000000796 0  0.5066462220363641 0.199999999999908 0  0.3650630746574081 0.199866017807523 0  0.476773013087985 0.1999999999998713 0  0.3417402379596385 0.1998691686391011 0  0.3796850840047755 0.200000000000134 0  0.4618364086138087 0.1999999999998546 0  0.4917096175621762 0.1999999999998808 0  0.3946216884789568 0.2000000000001512 0  0.446899804139621 0.1999999999998389 0  0.4089549580935208 0.1998691686391595 0  0.4322718174608562 0.200127451265745 0  0.4201487168029707 0.1999966199048527 0  0.3528922713220932 0.2000185703532356 0  0.5633122436674589 0.1999814296467508 0  0.3006558810093873 0.1999966199048318 0  0.5815926498168407 0.1966545283159175 0  0.2677053789419034 0.1964246479135325 0  0.5290511287476175 0.1970915826863981 0  0.5439877332217911 0.197091582686394 0  0.2825131256993216 0.2035478995978015 0  0.3199386661080599 0.202908417313604 0  0.4842413153250809 0.1970915826863873 0  0.5141145242734466 0.1970915826863843 0  0.3722167817676917 0.2029084173136195 0  0.4693047108508938 0.1970915826863783 0  0.3348752705822316 0.202908417313609 0  0.3871533862418661 0.2029084173136212 0  0.4543681063767183 0.1970915826863795 0  0.4991779197992749 0.1970915826863902 0  0.4020059614928624 0.203547899597858 0  0.4394315019025246 0.1970915826863714 0  0.2550657455369551 0.2034088125358657 0  0.2548908499171161 0.1966940311614271 0  0.5946539510196798 0.2024302972968126 0  0.267698176732111 0.2039977513680092 0  0.4261685417851465 0.196409292431739 0  0.3590076176283495 0.196411355804271 0  0.5571672426447437 0.2036011176410121 0  0.3066757059912147 0.1964092924317024 0  0.594380730180568 0.1966558399668133 0  0.4842413153245942 0.2040749161535287 0  0.4693047108503577 0.2040749161535231 0  0.3871533862424271 0.1959250838464788 0  0.372246743208829 0.1959123236376545 0  0.5141145242731028 0.2040749161535395 0  0.4543681063761134 0.2040749161535186 0  0.4019979587101454 0.1959834479682427 0  0.4394608940728603 0.2040870543693135 0  0.5439623148931173 0.2040856076781014 0  0.5290511287473298 0.2040749161535501 0  0.4991779197988497 0.2040749161535382 0  0.3347912413592433 0.1959225448935183 0  0.3199680582793816 0.1959123018030061 0  0.2825051229162361 0.1959834479681729 0  0.3590471196690275 0.2036304442587945 0  0.5571594006495384 0.1963685282145804 0  0.3067669986803285 0.203627750582736 0  0.4262598344738712 0.2036568242185335 0  0.5814408164431408 0.2041285596160068 0  0.5688286748170428 0.1961819304477386 0  0.4145905603063645 0.2038180695522843 0  0.3473758401724931 0.2038180695522752 0  0.2950977245128307 0.2038180695522663 0  0.5688286748170693 0.203818069552238 0  0.2950977245127906 0.1961819304477774 0  0.3473758401723931 0.1961819304478349 0  0.4145905603061963 0.1961819304479011 0  0.2601812407614425 0.2056861609747042
[...]
<PointData  Scalars="f_46-1"> 
<DataArray  type="Float64"  Name="f_46-1"  format="ascii">9.6100894534104157e+01  9.4801062886761287e+01  1.1423859477806312e+01  2.7183184240599061e+01  3.0266891750450878e+01  2.9821344244894082e+01  0.0000000000000000e+00  1.6938835643747433e+02  4.3855332036926690e+01  4.5273882979551210e+01  2.7128522208058218e+01  9.3374207515774756e+01  9.5148492877163179e+01  9.6433182529081520e+01  9.9817457238312045e+01  1.0548389822046146e+02  1.0921336431629842e+02  1.1182124784610843e+02  1.1112393685205527e+02  1.0724482826463063e+02  1.0283627870651091e+02  9.9673799742444729e+01  9.6439570429115818e+01  9.6638728726863846e+01  9.8419872337499683e+01  9.6545616543496550e+01  9.9355039396903166e+01  9.4102580573062752e+01  9.2008540910843351e+01  8.1004250527029754e+01  7.2002201270786017e+01  6.5490867954519061e+01  5.3886496944658433e+01  5.6788562007845499e+01  5.0269605921001990e+01  5.3846860221416840e+01  4.7182272460092534e+01  4.9292922136837092e+01  4.5993618678262791e+01  4.5275947344311994e+01  4.2819977421079621e+01  4.3691437951073539e+01  3.4076482194792725e+01  4.1937725070980797e+01  3.8261969518090233e+01  2.9167999869430197e+01  4.5062987695723045e+01  3.5320183987383594e+01  2.5290467142811011e+01  4.3146315353294817e+01  2.8253454988915692e+01  2.5096791944321705e+01  3.1505497773243981e+01  2.0174497714354626e+01  1.9280902616118411e+01  2.3281494802314835e+01  1.0174475405834439e+01  1.7373762602127055e+01  6.6473603269650496e+00  1.3690529307464265e+01  2.3223916135061021e+01  -7.9503829435159137e+00  -4.9247525668743970e+00  2.0367157212109962e+01  -2.1652661706302318e+01  -2.3481896810030765e+01  1.4502526207934840e+01  4.8873686336579105e+00  7.4830510776267127e+00  1.6513011459371878e+01  1.2037038717550031e+01  2.2047850767832077e+01  1.5736137307314316e+01  2.3336409426996315e+01  2.0806778621417976e+01  2.9144323518597513e+01  1.7429183419913315e+01  4.2356147782581651e+01  2.5768256291195264e+01  2.7793312225951563e+01  4.3769781070432408e+01  2.7593767051634060e+01  3.8640412337718615e+01  3.7843279474431093e+01  4.0138019600636170e+01  4.2531104880825524e+01  4.2672040634518794e+01  4.4668260467162405e+01  4.5189086681411425e+01  4.7847568754429801e+01  5.1095881698575518e+01  5.1610849100212057e+01  5.4747725749233062e+01  5.2960549259610765e+01  5.7616214724080969e+01  6.4998752694304315e+01  7.3081780596022398e+01  8.2103193043069453e+01  8.9432956048328819e+01  9.4860965623602667e+01  9.1235923800288191e+01  9.5682142485613568e+01  9.3825645356200312e+01  0.0000000000000000e+00  0.0000000000000000e+00  4.5188276743318283e+01  4.3265120350543974e+01  3.9589826313539916e+01  3.5797394989288250e+01  3.1527520211445012e+01  2.7206996165914987e+01  2.1865682230132016e+01  2.1068359737421339e+01  1.7994448903720713e+01  2.1677795145598651e+01  2.5584386899854650e+01  4.0578001971349082e+01  5.0905282129657174e+01  7.5213998034657081e+01  8.9136691914190905e+01  1.1763876882937923e+02  1.3400256133677593e+02  1.5406835841131669e+02  1.6293655241509651e+02  1.6174185852600661e+02  1.5521061259138668e+02  1.3152756160521378e+02  1.1675790393582585e+02  8.9043966149223124e+01  7.4214019897021743e+01  4.8827318190440437e+01  3.6719795039010293e+01  2.8300474714008747e+01  1.8957038532367772e+01  1.4429458631057159e+01  2.0796678376748968e+01  2.1972302497108252e+01  2.7145245946077406e+01  3.0521925515535063e+01  3.4940733332904976e+01  3.8500633958453072e+01  4.1939959791974232e+01  4.3813361901052097e+01  4.3550626689831965e+01  4.4488083693956213e+01  4.6058948572823738e+01  4.7789485417769129e+01  4.9313820941015855e+01  5.1232812482103625e+01  5.3031182476280236e+01  5.4229247422609227e+01  5.5855131620064455e+01  5.6807366403522863e+01  5.8086805778902978e+01  5.8957253309351366e+01  5.9820820943875255e+01  6.0047690540540920e+01  6.0517595695673229e+01  6.0699472767236493e+01  6.0872718840120868e+01  6.0733770098638082e+01  6.0533145268812433e+01  6.0401297592389668e+01  6.0057862902903381e+01  5.9468286731622541e+01  5.9105227751729494e+01  5.8203485017711969e+01  5.8003797922283859e+01  5.6943892759846278e+01  5.6414859097558278e+01  5.5620316855231728e+01  5.4745325044637958e+01  5.4239834298907297e+01  5.3200993903588191e+01  5.2608271856977446e+01  5.1820394565155169e+01  5.0709610004397071e+01  4.9956692011751031e+01  4.9228043772534022e+01  4.8266182184575982e+01  4.7668700107869839e+01  4.6553606562700757e+01  4.5958944510864484e+01  4.4960212704155772e+01  4.3845854440406519e+01  4.3075001144399664e+01  4.1735032580430733e+01  4.1498886434453937e+01  4.1313291205960766e+01  2.5208489531920044e+01  2.4011701266409606e+01  4.1373461163114733e+01  4.1284924553670869e+01  4.1700979676486362e+01  4.2666306542306785e+01  4.3559117244270382e+01  4.4398907791885080e+01  4.5541352835316331e+01  4.6098939961048437e+01  4.7215467555595382e+01  4.7786496610722835e+01  4.8905402542550824e+01  4.9470558328545039e+01  5.0546957977838332e+01  5.1161067278799450e+01  5.2206668736156224e+01  5.2723909692623991e+01  5.3799571450982448e+01  5.4445040224085957e+01  5.5421874592160755e+01  5.6014227933880264e+01  5.6951790256043665e+01  5.7546906657476171e+01  5.8441420369912230e+01  5.8858323136155356e+01  5.9582275780811571e+01  5.9963360532336786e+01  6.0503452648105224e+01  6.0860867149214386e+01  6.1183572562123651e+01  6.1172471915893055e+01  6.1125881598890132e+01  6.0995443106388976e+01  6.0660311035645456e+01  6.0449359751622552e+01  5.9667143262843595e+01  5.8942413533117758e+01  5.7784816595418448e+01  5.6938214007634194e+01  5.5441432949024218e+01  5.4329955385408880e+01  5.2648558905440424e+01  5.0843904606605669e+01  4.9332439746313341e+01  4.7528916547585382e+01  4.5948505703749490e+01  4.4967674162510029e+01  0.0000000000000000e+00  0.0000000000000000e+00  0.0000000000000000e+00  0.0000000000000000e+00  0.0000000000000000e+00  0.0000000000000000e+00  0.0000000000000000e+00  0.0000000000000000e+00  0.0000000000000000e+00  0.0000000000000000e+00  0.0000000000000000e+00  0.0000000000000000e+00  0.0000000000000000e+00  0.0000000000000000e+00  0.0000000000000000e+00  0.0000000000000000e+00  0.0000000000000000e+00  0.0000000000000000e+00  0.0000000000000000e+00  0.0000000000000000e+00  0.0000000000000000e+00  0.0000000000000000e+00  0.0000000000000000e+00  0.0000000000000000e+00  0.0000000000000000e+00  0.0000000000000000e+00  0.0000000000000000e+00  0.0000000000000000e+00  0.0000000000000000e+00  0.0000000000000000e+00  0.0000000000000000e+00  0.0000000000000000e+00  0.0000000000000000e+00  0.0000000000000000e+00  0.0000000000000000e+00  0.0000000000000000e+00  0.0000000000000000e+00  0.0000000000000000e+00  0.0000000000000000e+00  0.0000000000000000e+00  0.0000000000000000e+00  0.0000000000000000e+00  0.0000000000000000e+00  0.0000000000000000e+00  0.0000000000000000e+00  0.0000000000000000e+00  0.0000000000000000e+00  0.0000000000000000e+00  0.0000000000000000e+00  0.0000000000000000e+00  0.0000000000000000e+00  0.0000000000000000e+00  0.0000000000000000e+00  0.0000000000000000e+00  0.0000000000000000e+00  0.0000000000000000e+00  0.0000000000000000e+00  0.0000000000000000e+00  0.0000000000000000e+00  0.0000000000000000e+00  0.0000000000000000e+00  0.0000000000000000e+00  0.0000000000000000e+00  0.0000000000000000e+00  0.0000000000000000e+00  0.0000000000000000e+00  0.0000000000000000e+00  0.0000000000000000e+00  0.0000000000000000e+00  0.0000000000000000e+00  0.0000000000000000e+00  0.0000000000000000e+00  0.0000000000000000e+00  0.0000000000000000e+00  0.0000000000000000e+00  0.0000000000000000e+00  0.0000000000000000e+00  0.0000000000000000e+00  0.0000000000000000e+00  0.0000000000000000e+00  0.0000000000000000e+00  0.0000000000000000e+00  0.0000000000000000e+00  0.0000000000000000e+00  0.0000000000000000e+00  0.0000000000000000e+00  0.0000000000000000e+00  0.0000000000000000e+00  0.0000000000000000e+00  0.0000000000000000e+00  0.0000000000000000e+00  0.0000000000000000e+00  0.0000000000000000e+00  0.0000000000000000e+00  0.0000000000000000e+00  0.0000000000000000e+00  0.0000000000000000e+00  0.0000000000000000e+00  0.0000000000000000e+00  0.0000000000000000e+00  0.0000000000000000e+00  0.0000000000000000e+00  0.0000000000000000e+00  0.0000000000000000e+00  0.0000000000000000e+00  0.0000000000000000e+00  0.0000000000000000e+00  0.0000000000000000e+00  0.0000000000000000e+00  0.0000000000000000e+00  0.0000000000000000e+00  0.0000000000000000e+00  0.0000000000000000e+00  0.0000000000000000e+00  0.0000000000000000e+00  0.0000000000000000e+00  0.0000000000000000e+00  0.0000000000000000e+00  0.0000000000000000e+00  0.0000000000000000e+00  0.0000000000000000e+00  0.0000000000000000e+00  0.0000000000000000e+00  5.5196028780659169e+01  5.2010011432875451e+01  4.1207074295850859e+01  5.6685935704385180e+01  5.1451043600859350e+01  5.7555846476573578e+01  4.4655967505659028e+01  5.1942258175197061e+01  9.4502643966536525e+01  4.7507004164049327e+01  1.0145768994888607e+02  8.3244086899575862e+01  5.8101236721330693e+01  7.6343029876785351e+01  1.1779166123087032e+02  5.9420678265412349e+01  4.7092122612596377e+01  4.5657321380191867e+01  1.2416582245054200e+02  5.4315748749744543e+01  5.5140712033975355e+01  5.8637922210343383e+01  4.5255982597113331e+01  5.9507675107424767e+01  5.8662125048524402e+01  5.4982525701683855e+01  5.8592832875209602e+01  5.5359629826763751e+01  5.0417267353073434e+01  4.7357516270665059e+01  4.5692158219383828e+01  9.5867164923430693e+01  4.2384663136249650e+01  9.7278563175868584e+01  4.2683109307477665e+01  4.3323864894077417e+01  4.1278184914250687e+01  4.1644776901723510e+01  4.0931322964435807e+01  4.1011179170156268e+01  5.0981842406651758e+01  1.3677060780205025e+02  4.7974889460404341e+01  6.0339968116851296e+01  3.2888907568845831e+01  6.8851458399485452e+01  1.1815722093162719e+02  1.1815568477715614e+02  3.1835499799698709e+01  5.7104050662877349e+01  5.0583256160527469e+01  3.7715778377857006e+01  5.2089394555086962e+01  5.7647572160614679e+01  5.9589340958045085e+01  6.8492245351144874e+01  3.9178274344479824e+01  5.8420569407461294e+01  4.5574168685476678e+01  6.0040761656368133e+01  3.5247304842829948e+01  4.1740988977357084e+01  5.7564084975501160e+01  8.7765684023321157e+01  2.5789502085914112e+01  5.3264914683070764e+01  4.8255435365540649e+01  5.5979968655746298e+01  4.2920757393037171e+01  5.3394886757665141e+01  4.8516625363677448e+01  3.9278315445979793e+01  1.4089946700356069e+02  4.4336937341426797e+01  1.6509578770710029e+01  3.9858494464166832e+01  5.6092358218682463e+01  8.9981866497259759e+01  4.2156618241439972e+01  1.0277777352042961e+02  1.1513038788430697e+02  9.4962154746856427e+01  4.3825455824397025e+01  4.0877621118908564e+01  4.5484713180463366e+01  4.2234985825913476e+01  5.4601518981356492e+01  3.9209978261388891e+01  5.4875412081957833e+01  5.8681974891599324e+01  1.0874117508409901e+02  5.5932474021173618e+01  8.8993719502782000e+01  1.5052016256622554e+01  5.9326392397916024e+01  4.1589649040569057e+01  3.7012806633596441e+01  4.9009581697204808e+01  9.7855177779951120e+01  5.9901768588234795e+01  5.9156874818879395e+01  9.4010914610572797e+01  6.3247418375789259e+01  7.9056495086033763e+01  1.4373546472843802e+02  5.5556381128512392e+01  4.1124095347843152e+01  5.0834058406288079e+01  5.7357634441064462e+01  5.4983580704506949e+01  3.5132240571440207e+01  3.9467420343496549e+01  4.5601998170515635e+01  2.3156260102311823e+01  1.1086166332364679e+02  5.5806888197796205e+01  4.2509647814555763e+01  4.9815001273522810e+01  4.7331006866468471e+01  3.3923853784981887e+01  3.7061999236434069e+01  4.5558229362763619e+01  4.8909931380435658e+01  9.3483186738273204e+01  5.1155392862791125e+01  5.4825469216333602e+01  6.1896601925576974e+01  4.1630529052625747e+01  1.8334606835922074e+01  1.0306005290951235e+02  3.6408047780609060e+01  4.6815343678134404e+01  3.0602553352590956e+01  3.7924224261992613e+01  5.9755380813258881e+01  5.7674112820091779e+01  5.7058924104557491e+01  7.2736328762329464e+01  5.0783060703851682e+01  4.1123951714351904e+01  4.9092771658481695e+01  5.2590236757321087e+01  8.9141716497563095e+01  8.4092044287842540e+01  4.4257367841622965e+01  3.8468026725125938e+01  5.0858579471813343e+01  5.3933818544435674e+01  1.2083976979551873e+02  4.8956680050596361e+01  3.3384345946004807e+01  5.1442681311119529e+01  4.7571003386993411e+01  5.4185585477608647e+01  1.2338724162724201e+02  4.7680937563197936e+01  2.3855356323081569e+01  3.5178985678387605e+01  5.8115456179675959e+01  5.7554247621711468e+01  5.9005245427692486e+01  1.2006798939251725e+02  5.7607838397827727e+01  5.9684806809440474e+01  5.8378639046280256e+01  6.0154714669155759e+01  5.2792306439842548e+01  6.0529740699912409e+01  6.0212121264575060e+01  3.8189075159233461e+01  3.6345046482680637e+01  2.9744439150663947e+01  1.1069824947988711e+02  5.4039947989692585e+01  5.7758859128742259e+01  5.7077707372151465e+01  5.8337580517858825e+01  5.6379851107837716e+01  5.4044548868678156e+01  5.2526291043748699e+01  1.2802455140062665e+02  4.3488831788633419e+01  4.7473972254345000e+01  4.9067459428091304e+01  1.5238050496901056e+02  7.0510812939281024e+01  5.8872572686509194e+01  4.3704544455376897e+01  4.2451467251772861e+01  4.2835762390809265e+01  8.5962775516798615e+01  1.9769225772828296e+01  2.7031442607285321e+01  9.6238555430325931e+01  6.9364752283390985e+01  7.0045517256267928e+01  5.2877849132926649e+01  5.4355956133691301e+01  1.0921476793726228e+02  5.7313385982993204e+01  4.9290378958849765e+01  1.0206935654785620e+02  3.7561966294316456e+01  5.0513486859842040e+01  5.7241779079118743e+01  3.7698854351052738e+01  3.5722375320468728e+01  5.4535382427819556e+01  6.1638679731726029e+01  5.2430943297857858e+01  4.5531754476465828e+01  4.4977694322691050e+01  1.1463895556501166e+02  5.4079483039919161e+01  9.1371909797470849e+01  4.8638919336222301e+01  4.7419144031178369e+01  4.6847744557946747e+01  4.0364237109155923e+01  5.3140443105449940e+01  8.4336259168513479e+01  4.9507243071071215e+01  1.2698299229487888e+02  4.2802955346433535e+01  3.5923860131116108e+01  2.9754432974630951e+01  5.0987854757655526e+01  3.1322402999577253e+01  9.2364189632667561e+01  4.3855625790285558e+01  1.0331211529102863e+01  2.1682744992980332e+01  3.7536565608260091e+01  5.3735356977171108e+01  4.1493947309745813e+01  1.1230948934134881e+02  4.3977618170200152e+01  4.2688958213705355e+01  5.4672294175219776e+01  3.6248062347798630e+01  4.3929274210558866e+01  4.4729991836365457e+01  9.7367917263077658e+01  4.4212410069262482e+01  8.1820117666841881e+01  5.8565992620453542e+01  4.1269249373714821e+01  4.3706732812594971e+01  5.7125708976563011e+01  4.2836809076479405e+01  1.0060501354975132e+02  5.7736795620946594e+01  3.5617628574048311e+01  3.1113234189805681e+01  5.7638512067321855e+01  8.2508455458321635e+01  5.0448581607283053e+01  9.5577849558675211e+01  3.8969040985381078e+01  5.2328379015343735e+01  5.3402932986014321e+01  4.8969689374485633e+01  1.0757611755704809e+02  5.8074838806765094e+01  1.4680798153284820e+02  3.0665861011129518e+01  5.1548341718825029e+01  1.2150615403989509e+01  1.1006318323796650e+01  5.5613171338117681e+01  5.8963797167133137e+01  1.7096045779145204e+01  2.5349179424082045e+01  1.3698590551375057e+02  5.6640169971082550e+01  5.3730504320551844e+01  1.3088890156801964e+01  5.1317068939345084e+01  4.5746970266841842e+01  6.0041227840766474e+01  1.0030640344506517e+02  5.5000180021571595e+01  4.7014814074936858e+01  9.6382236033924329e+01  6.0471526470119372e+01  3.9719403796494511e+01  5.6440873942991310e+01  1.3641888751391596e+02  9.7469273577433754e+01  5.9478825643742681e+01  1.0410457623219514e+02  8.4678942414863982e+01  4.3665141700876269e+01  5.5634059395016642e+01  6.0014137684235962e+01  5.0825820366447985e+01  1.1201986690901342e+02  4.5074640451207848e+01  4.7339500463153385e+01  5.9351363790901424e+01  5.9700759373287489e+01  2.3415308110785798e+01  1.7028331750830990e+01  4.5761450665415097e+01  9.1749721980807166e+01  4.6327478420207733e+01  4.3053291235695731e+01  8.7198639867915404e+01  4.3858143287680200e+01  9.5609841473464627e+01  4.2738939972903012e+01  4.8180281166253209e+01  5.5839671960612698e+01  4.5821218572022381e+01  9.0825949955849424e+01  4.6300228186161895e+01  5.6046697110571728e+01  1.0929911026184996e+02  9.7789851448837446e+00  1.3193101307085977e+01  5.7915907757166849e+01  2.6532578468759294e+01  8.5253204365012152e+01  4.2143541229982645e+01  4.3412581292402479e+01  1.1052609651301549e+02  4.3889514022158366e+01  4.0919400784503772e+01  5.9356322663353659e+01  9.4949488647561637e+01  5.2843714454280843e+01  7.5004731845699864e+00  5.9104489706645360e+01  3.1746438952598222e+01  1.2791518958399480e+02  4.3064351375542209e+01  4.4933422522057882e+01  5.6214660654249684e+01  5.5984802647387490e+01  7.2536855999012744e+01  4.8183057895121351e+01  4.3548114040472967e+01  6.7413285673616855e+01  5.4125476933190320e+01  4.4918692925779126e+01  8.2968328584153795e+01  3.0081417019825597e+01  2.8210256440902178e+01  3.7991279698813734e+01  4.2859073523726785e+01  8.4303865747805560e+01  4.0435701366423160e+01  9.9589500596121553e+01  7.4209479496125127e+01  4.9444015001175956e+01  4.1798626948247424e+01  5.3400463937299769e+01  5.5722389074331169e+01  3.8175723434814707e+01  4.3877451506183476e+01  5.6040730869749886e+01  5.1186831421687806e+01  4.0201545957917951e+01  9.1438364549277438e+01  1.0615555262475065e+02  1.0450220255716529e+02  9.8367104525357306e+01  6.2557945713065067e+01  1.2798478925584516e+02  6.2257062872863330e+01  3.2141869564294431e+01  1.3016547961034138e+02  5.8273988314493273e+01  4.7855062991686346e+01  1.3598731338827002e+02  1.2080975846180826e+02  1.0554773246478354e+02  4.3522889033073540e+01  5.9020307340444134e+01  3.9806264615582883e+01  5.7011287596231050e+01  3.8853822876358088e+01  4.0994548889808151e+01  2.6371732008357803e+01  6.0324276558837518e+01  1.4554890923465052e+02  2.3390568319659113e+01  2.4588056287977018e+01  1.1972823778921398e+02  4.6747097825812538e+01  5.8616041721942089e+01  5.7677424383950402e+01  5.6702133991710404e+01  1.0070752950120104e+02  6.3645329571295171e+01  5.9400363216038542e+01  5.3258361633323638e+01  4.8232595547630368e+01  4.0629341749415573e+01  5.5083104526891454e+01  5.1045080365294680e+01  5.7484772763370579e+01  4.9506506514734383e+01  7.6112434623712545e+01  3.4865405154650261e+01  5.7805853194516622e+01  7.4515719812646836e+01  4.0323424052039606e+01  9.9930272785734019e+01  5.1211513790687242e+01  1.0621642666882236e+02  5.9032217951966246e+01  5.4604237677162054e+01  5.4999522803928599e+01  5.3661556033433868e+01  2.6170427185364211e+01  2.7428848501095651e+01  4.0227718720506680e+01  5.9824795248210833e+01  3.7196730875544326e+01  3.8407890462243692e+01  4.1905181449071854e+01  4.7664166626453529e+01  2.7731624596063234e+01  5.8883142711919191e+01  3.0832622092174180e+01  1.0892542684096856e+02  5.9644842532246287e+01  1.0493649960641402e+02  4.9194221985192357e+01  2.6953615091009450e+01  4.5243327162628880e+01  4.1408540886915596e+01  4.4170097459066412e+01  3.9660386878550234e+01  6.5342092846833410e+01  1.1533642087034103e+02  5.8511994913400109e+01  3.2909652198410335e+01  8.9824472706766912e+01  3.7032417530162697e+01  8.8375486732770199e+01  4.1111806837180481e+01  3.4292694231398208e+01  7.2609882180462307e+01  7.0033056018235001e+01  3.2475649687378962e+01  1.1799650583551349e+02  5.6044817251442467e+01  9.9227809884639456e+01  5.1232082842977917e+01  9.0233102492476490e+01  1.3168709352854128e+02  1.5412509491171409e+02  5.1024753361940547e+01  3.9395754493726443e+01  5.2547796106209319e+01  5.3974426085509329e+01  5.6241942626996398e+01  5.2999309757674986e+01  9.7316891707660062e+01  5.3131641433538576e+01  5.4501323397974197e+01  4.5752947149651163e+01  5.9821391741133361e+01  6.3524373718102822e+01  5.1933278921684042e+01  3.3508467265677091e+01  3.8348560886770095e+01  4.870895008