<?xml version="1.0"?>
<VTKFile type="UnstructuredGrid"  version="0.1"  >
<UnstructuredGrid>
<Piece  NumberOfPoints="1419" NumberOfCells="2698">
<Points>
<DataArray  type="Float64"  NumberOfComponents="3"  format="ascii">0 0 0  0 0.41 0  2.5 0 0  2.5 0.41 0  0.6 0.19 0  0.6 0.21 0  0.25 0.2 0  0.15 0.2 0  0.2489897948556636 0.21 0  0.2489897948556636 0.19 0  0.6 0.2 0  0 0.3807142857143437 0  0 0.3514285714286952 0  0 0.3221428571430699 0  0 0.29285714285744 0  0 0.2635714285718054 0  0 0.2342857142861561 0  0 0.2050000000005308 0  0 0.175714285714732 0  0 0.1464285714289574 0  0 0.1171428571431897 0  0 0.08785714285737878 0  0 0.05857142857161107 0  0 0.02928571428580012 0  0.03015443760436003 0 0  0.06140001986583606 0 0  0.09377624077125973 0 0  0.1273239957535082 0 0  0.1620856860351972 0 0  0.1981052433264291 0 0  0.235428184091502 0 0  0.2741016576309132 0 0  0.3141745521465447 0 0  0.3556974926295285 0 0  0.3987229542472677 0 0  0.4433053055141081 0 0  0.4895008759286886 0 0  0.5373680609405097 0 0  0.5869673343216626 0 0  0.6383613676634521 0 0  0.6916151138468254 0 0  0.7467958595648856 0 0  0.8039733463919316 0 0  0.8632198139502143 0 0  0.9246101326867038 0 0  0.9882218810934433 0 0  1.054135445558498 0 0  1.122434100542598 0 0  1.193204177141305 0 0  1.266535089879536 0 0  1.342519516046404 0 0  1.421253448503939 0 0  1.502836389106271 0 0  1.587371439758838 0 0  1.674965418777374 0 0  1.765729001825544 0 0  1.859776908880082 0 0  1.957227977487062 0 0  2.058205329869943 0 0  2.162836591189951 0 0  2.271253957290865 0 0  2.383594446803425 0 0  2.5 0.1024999999997612 0  2.5 0.2049999999994743 0  2.5 0.3074999999997183 0  2.383594446803656 0.41 0  2.271253957291315 0.41 0  2.162836591190598 0.41 0  2.058205329870775 0.41 0  1.957227977488067 0.41 0  1.859776908881246 0.41 0  1.765729001826854 0.41 0  1.674965418778818 0.41 0  1.58737143976041 0.41 0  1.502836389107956 0.41 0  1.421253448505726 0.41 0  1.342519516048286 0.41 0  1.266535089881505 0.41 0  1.193204177143353 0.41 0  1.122434100544716 0.41 0  1.05413544556068 0.41 0  0.9882218810956305 0.41 0  0.9246101326886647 0.41 0  0.8632198139519631 0.41 0  0.8039733463934788 0.41 0  0.7467958595662458 0.41 0  0.6916151138480078 0.41 0  0.6383613676644679 0.41 0  0.5869673343225223 0.41 0  0.5373680609412221 0.41 0  0.4895008759292634 0.41 0  0.4433053055145528 0.41 0  0.3987229542475914 0.41 0  0.3556974926297398 0.41 0  0.3141745521466497 0.41 0  0.2741016576310038 0.41 0  0.2354281840915826 0.41 0  0.1981052433265003 0.41 0  0.1620856860352591 0.41 0  0.1273239957535623 0.41 0  0.09377624077128965 0.41 0  0.06140001986584975 0.41 0  0.03015443760436654 0.41 0  0.2497468076502589 0.2050254481002335 0  0.2497468076502614 0.1949745518997913 0  0.2469965252529372 0.1829317073451959 0  0.2439893735792749 0.1762316384219906 0  0.2400332147834255 0.1700443375285386 0  0.2352133972704371 0.1645032867342007 0  0.2296339016332438 0.1597280261969788 0  0.2234150974217223 0.1558215752574715 0  0.2166911463437691 0.1528682099456123 0  0.2096071079204251 0.1509316448471593 0  0.2023158100364996 0.1500536585536553 0  0.194974551899914 0.1502531923497262 0  0.1877417105387872 0.1515259415822739 0  0.1807733240461124 0.153844448527136 0  0.1742197252835808 0.15715869474974 0  0.1682222986673531 0.1613971801805478 0  0.162910430003803 0.1664684656256651 0  0.1583987151779087 0.1722631454351573 0  0.1547844879126891 0.178656207771761 0  0.1521457199348551 0.1855097315605723 0  0.1505393388476355 0.1926758619366523 0  0.1505393388476328 0.2073241380633295 0  0.1521457199348437 0.2144902684393899 0  0.1547844879126531 0.221343792228163 0  0.1583987151778488 0.2277368545647528 0  0.1629104300036858 0.2335315343742052 0  0.1682222986671726 0.2386028198193036 0  0.1742197252833576 0.2428413052501257 0  0.1807733240458683 0.2461555514727623 0  0.1877417105384929 0.2484740584176516 0  0.1949745518995776 0.2497468076502398 0  0.202315810036185 0.2499463414463592 0  0.2096071079201568 0.2490683551528932 0  0.2166911463435495 0.2471317900544655 0  0.2234150974215506 0.2441784247426195 0  0.2296339016331197 0.2402719738031125 0  0.2352133972703547 0.2354967132658811 0  0.2400332147833751 0.2299556624715287 0  0.2439893735792577 0.2237683615780412 0  0.246996525252926 0.2170682926548348 0  0.25645809709277 0.21 0  0.2639263993298655 0.21 0  0.271394701566961 0.21 0  0.2788630038040554 0.21 0  0.2863313060411479 0.21 0  0.2937996082782405 0.21 0  0.301267910515333 0.21 0  0.3087362127524279 0.21 0  0.3162045149895234 0.21 0  0.3236728172265972 0.21 0  0.3311411194636928 0.21 0  0.3386094217007701 0.21 0  0.3460777239378666 0.21 0  0.3535460261749672 0.21 0  0.3610143284120516 0.21 0  0.3684826306491596 0.21 0  0.3759509328862226 0.21 0  0.383419235123329 0.21 0  0.3908875373604028 0.21 0  0.3983558395975142 0.21 0  0.4058241418345938 0.21 0  0.4132924440716992 0.21 0  0.4207607463087888 0.21 0  0.4282290485459029 0.21 0  0.4356973507830418 0.21 0  0.4431656530201649 0.21 0  0.4506339552573136 0.21 0  0.4581022574944306 0.21 0  0.4655705597315852 0.21 0  0.4730388619686996 0.21 0  0.480507164205851 0.21 0  0.4879754664429498 0.21 0  0.4954437686800938 0.21 0  0.502912070917267 0.21 0  0.5103803731544119 0.21 0  0.5178486753915261 0.21 0  0.5253169776286404 0.21 0  0.5327852798657868 0.21 0  0.5402535821029386 0.21 0  0.54772188434007 0.21 0  0.5551901865771842 0.21 0  0.5626584888143201 0.21 0  0.5701267910514778 0.21 0  0.5775950932886138 0.21 0  0.5850633955257281 0.21 0  0.5925316977628483 0.21 0  0.6 0.2050000000000054 0  0.6 0.1950000000000217 0  0.5925316977628897 0.19 0  0.5850633955257988 0.19 0  0.5775950932887378 0.19 0  0.5701267910515998 0.19 0  0.5626584888145268 0.19 0  0.5551901865773963 0.19 0  0.547721884340339 0.19 0  0.5402535821032429 0.19 0  0.5327852798661811 0.19 0  0.5253169776290537 0.19 0  0.5178486753919799 0.19 0  0.5103803731549078 0.19 0  0.502912070917822 0.19 0  0.4954437686807294 0.19 0  0.4879754664436223 0.19 0  0.4805071642065402 0.19 0  0.4730388619694271 0.19 0  0.4655705597323621 0.19 0  0.4581022574952563 0.19 0  0.4506339552581777 0.19 0  0.4431656530210671 0.19 0  0.4356973507839815 0.19 0  0.4282290485468779 0.19 0  0.4207607463097617 0.19 0  0.4132924440726327 0.19 0  0.4058241418354857 0.19 0  0.3983558395983636 0.19 0  0.3908875373612097 0.19 0  0.3834192351240934 0.19 0  0.3759509328869369 0.19 0  0.3684826306498175 0.19 0  0.361014328412667 0.19 0  0.3535460261755617 0.19 0  0.3460777239384295 0.19 0  0.3386094217012945 0.19 0  0.3311411194641595 0.19 0  0.3236728172270245 0.19 0  0.3162045149898895 0.19 0  0.3087362127527544 0.19 0  0.3012679105156187 0.19 0  0.2937996082784807 0.19 0  0.2863313060413428 0.19 0  0.2788630038042048 0.19 0  0.2713947015670686 0.19 0  0.2639263993299336 0.19 0  0.2564580970927985 0.19 0  0.2607803159922026 0.2000727136295815 0  0.5887803774232762 0.2001272386983733 0  0.5745072403740523 0.2002044435018727 0  0.5511891430099709 0.2001122610077113 0  0.2751288526855082 0.20000000000002 0  0.5365194309847112 0.1999999999999436 0  0.2894621222999649 0.1998691686390484 0  0.5215828265105155 0.1999999999999228 0  0.3127789816668748 0.1998657885438805 0  0.3274069683451451 0.2000000000000796 0  0.5066462220363641 0.199999999999908 0  0.3650630746574081 0.199866017807523 0  0.476773013087985 0.1999999999998713 0  0.3417402379596385 0.1998691686391011 0  0.3796850840047755 0.200000000000134 0  0.4618364086138087 0.1999999999998546 0  0.4917096175621762 0.1999999999998808 0  0.3946216884789568 0.2000000000001512 0  0.446899804139621 0.1999999999998389 0  0.4089549580935208 0.1998691686391595 0  0.4322718174608562 0.200127451265745 0  0.4201487168029707 0.1999966199048527 0  0.3528922713220932 0.2000185703532356 0  0.5633122436674589 0.1999814296467508 0  0.3006558810093873 0.1999966199048318 0  0.5815926498168407 0.1966545283159175 0  0.2677053789419034 0.1964246479135325 0  0.5290511287476175 0.1970915826863981 0  0.5439877332217911 0.197091582686394 0  0.2825131256993216 0.2035478995978015 0  0.3199386661080599 0.202908417313604 0  0.4842413153250809 0.1970915826863873 0  0.5141145242734466 0.1970915826863843 0  0.3722167817676917 0.2029084173136195 0  0.4693047108508938 0.1970915826863783 0  0.3348752705822316 0.202908417313609 0  0.3871533862418661 0.2029084173136212 0  0.4543681063767183 0.1970915826863795 0  0.4991779197992749 0.1970915826863902 0  0.4020059614928624 0.203547899597858 0  0.4394315019025246 0.1970915826863714 0  0.2550657455369551 0.2034088125358657 0  0.2548908499171161 0.1966940311614271 0  0.5946539510196798 0.2024302972968126 0  0.267698176732111 0.2039977513680092 0  0.4261685417851465 0.196409292431739 0  0.3590076176283495 0.196411355804271 0  0.5571672426447437 0.2036011176410121 0  0.3066757059912147 0.1964092924317024 0  0.594380730180568 0.1966558399668133 0  0.4842413153245942 0.2040749161535287 0  0.4693047108503577 0.2040749161535231 0  0.3871533862424271 0.1959250838464788 0  0.372246743208829 0.1959123236376545 0  0.5141145242731028 0.2040749161535395 0  0.4543681063761134 0.2040749161535186 0  0.4019979587101454 0.1959834479682427 0  0.4394608940728603 0.2040870543693135 0  0.5439623148931173 0.2040856076781014 0  0.5290511287473298 0.2040749161535501 0  0.4991779197988497 0.2040749161535382 0  0.3347912413592433 0.1959225448935183 0  0.3199680582793816 0.1959123018030061 0  0.2825051229162361 0.1959834479681729 0  0.3590471196690275 0.2036304442587945 0  0.5571594006495384 0.1963685282145804 0  0.3067669986803285 0.203627750582736 0  0.4262598344738712 0.2036568242185335 0  0.5814408164431408 0.2041285596160068 0  0.5688286748170428 0.1961819304477386 0  0.4145905603063645 0.2038180695522843 0  0.3473758401724931 0.2038180695522752 0  0.2950977245128307 0.2038180695522663 0  0.5688286748170693 0.203818069552238 0  0.2950977245127906 0.1961819304477774 0  0.3473758401723931 0.1961819304478349 0  0.4145905603061963 0.1961819304479011 0  0.2601812407614425 0.2056861609747042
[...]
<PointData  Vectors="f_46-2"> 
<DataArray  type="Float64"  Name="f_46-2"  NumberOfComponents="3" format="ascii">0.0000000000000000e+00 0.0000000000000000e+00 0.0000000000000000e+00  0.0000000000000000e+00 0.0000000000000000e+00 0.0000000000000000e+00  0.0000000000000000e+00 0.0000000000000000e+00 0.0000000000000000e+00  0.0000000000000000e+00 0.0000000000000000e+00 0.0000000000000000e+00  -8.1317670132017119e-06 -3.2324433436810929e-05 0.0000000000000000e+00  -5.3695107979802747e-06 -3.5563292613878377e-05 0.0000000000000000e+00  0.0000000000000000e+00 -4.9521416880514745e-26 0.0000000000000000e+00  0.0000000000000000e+00 0.0000000000000000e+00 0.0000000000000000e+00  0.0000000000000000e+00 0.0000000000000000e+00 0.0000000000000000e+00  0.0000000000000000e+00 0.0000000000000000e+00 0.0000000000000000e+00  -7.0060063963809355e-06 -3.3945771114751189e-05 0.0000000000000000e+00  0.0000000000000000e+00 0.0000000000000000e+00 0.0000000000000000e+00  0.0000000000000000e+00 0.0000000000000000e+00 0.0000000000000000e+00  0.0000000000000000e+00 0.0000000000000000e+00 0.0000000000000000e+00  0.0000000000000000e+00 0.0000000000000000e+00 0.0000000000000000e+00  0.0000000000000000e+00 0.0000000000000000e+00 0.0000000000000000e+00  0.0000000000000000e+00 0.0000000000000000e+00 0.0000000000000000e+00  0.0000000000000000e+00 0.0000000000000000e+00 0.0000000000000000e+00  0.0000000000000000e+00 0.0000000000000000e+00 0.0000000000000000e+00  0.0000000000000000e+00 0.0000000000000000e+00 0.0000000000000000e+00  0.0000000000000000e+00 0.0000000000000000e+00 0.0000000000000000e+00  0.0000000000000000e+00 0.0000000000000000e+00 0.0000000000000000e+00  0.0000000000000000e+00 0.0000000000000000e+00 0.0000000000000000e+00  0.0000000000000000e+00 0.0000000000000000e+00 0.0000000000000000e+00  0.0000000000000000e+00 0.0000000000000000e+00 0.0000000000000000e+00  0.0000000000000000e+00 0.0000000000000000e+00 0.0000000000000000e+00  0.0000000000000000e+00 0.0000000000000000e+00 0.0000000000000000e+00  0.0000000000000000e+00 0.0000000000000000e+00 0.0000000000000000e+00  0.0000000000000000e+00 0.0000000000000000e+00 0.0000000000000000e+00  0.0000000000000000e+00 0.0000000000000000e+00 0.0000000000000000e+00  0.0000000000000000e+00 0.0000000000000000e+00 0.0000000000000000e+00  0.0000000000000000e+00 0.0000000000000000e+00 0.0000000000000000e+00  0.0000000000000000e+00 0.0000000000000000e+00 0.0000000000000000e+00  0.0000000000000000e+00 0.0000000000000000e+00 0.0000000000000000e+00  0.0000000000000000e+00 0.0000000000000000e+00 0.0000000000000000e+00  2.4192032366290168e-14 -2.5664009490648790e-17 0.0000000000000000e+00  0.0000000000000000e+00 0.0000000000000000e+00 0.0000000000000000e+00  0.0000000000000000e+00 0.0000000000000000e+00 0.0000000000000000e+00  0.0000000000000000e+00 0.0000000000000000e+00 0.0000000000000000e+00  0.0000000000000000e+00 0.0000000000000000e+00 0.0000000000000000e+00  0.0000000000000000e+00 0.0000000000000000e+00 0.0000000000000000e+00  0.0000000000000000e+00 0.0000000000000000e+00 0.0000000000000000e+00  0.0000000000000000e+00 0.0000000000000000e+00 0.0000000000000000e+00  0.0000000000000000e+00 0.0000000000000000e+00 0.0000000000000000e+00  0.0000000000000000e+00 0.0000000000000000e+00 0.0000000000000000e+00  0.0000000000000000e+00 0.0000000000000000e+00 0.0000000000000000e+00  0.0000000000000000e+00 0.0000000000000000e+00 0.0000000000000000e+00  0.0000000000000000e+00 0.0000000000000000e+00 0.0000000000000000e+00  0.0000000000000000e+00 0.0000000000000000e+00 0.0000000000000000e+00  0.0000000000000000e+00 0.0000000000000000e+00 0.0000000000000000e+00  0.0000000000000000e+00 0.0000000000000000e+00 0.0000000000000000e+00  0.0000000000000000e+00 0.0000000000000000e+00 0.0000000000000000e+00  0.0000000000000000e+00 0.0000000000000000e+00 0.0000000000000000e+00  0.0000000000000000e+00 0.0000000000000000e+00 0.0000000000000000e+00  0.0000000000000000e+00 0.0000000000000000e+00 0.0000000000000000e+00  0.0000000000000000e+00 0.0000000000000000e+00 0.0000000000000000e+00  0.0000000000000000e+00 0.0000000000000000e+00 0.0000000000000000e+00  0.0000000000000000e+00 0.0000000000000000e+00 0.0000000000000000e+00  0.0000000000000000e+00 0.0000000000000000e+00 0.0000000000000000e+00  0.0000000000000000e+00 0.0000000000000000e+00 0.0000000000000000e+00  0.0000000000000000e+00 0.0000000000000000e+00 0.0000000000000000e+00  0.0000000000000000e+00 0.0000000000000000e+00 0.0000000000000000e+00  0.0000000000000000e+00 0.0000000000000000e+00 0.0000000000000000e+00  0.0000000000000000e+00 0.0000000000000000e+00 0.0000000000000000e+00  0.0000000000000000e+00 0.0000000000000000e+00 0.0000000000000000e+00  0.0000000000000000e+00 0.0000000000000000e+00 0.0000000000000000e+00  0.0000000000000000e+00 0.0000000000000000e+00 0.0000000000000000e+00  0.0000000000000000e+00 0.0000000000000000e+00 0.0000000000000000e+00  0.0000000000000000e+00 0.0000000000000000e+00 0.0000000000000000e+00  0.0000000000000000e+00 0.0000000000000000e+00 0.0000000000000000e+00  0.0000000000000000e+00 0.0000000000000000e+00 0.0000000000000000e+00  0.0000000000000000e+00 0.0000000000000000e+00 0.0000000000000000e+00  0.0000000000000000e+00 0.0000000000000000e+00 0.0000000000000000e+00  0.0000000000000000e+00 0.0000000000000000e+00 0.0000000000000000e+00  0.0000000000000000e+00 0.0000000000000000e+00 0.0000000000000000e+00  0.0000000000000000e+00 0.0000000000000000e+00 0.0000000000000000e+00  0.0000000000000000e+00 0.0000000000000000e+00 0.0000000000000000e+00  0.0000000000000000e+00 0.0000000000000000e+00 0.0000000000000000e+00  0.0000000000000000e+00 0.0000000000000000e+00 0.0000000000000000e+00  0.0000000000000000e+00 0.0000000000000000e+00 0.0000000000000000e+00  0.0000000000000000e+00 0.0000000000000000e+00 0.0000000000000000e+00  0.0000000000000000e+00 0.0000000000000000e+00 0.0000000000000000e+00  0.0000000000000000e+00 0.0000000000000000e+00 0.0000000000000000e+00  0.0000000000000000e+00 0.0000000000000000e+00 0.0000000000000000e+00  0.0000000000000000e+00 0.0000000000000000e+00 0.0000000000000000e+00  0.0000000000000000e+00 0.0000000000000000e+00 0.0000000000000000e+00  0.0000000000000000e+00 0.0000000000000000e+00 0.0000000000000000e+00  0.0000000000000000e+00 0.0000000000000000e+00 0.0000000000000000e+00  1.7917152715092275e-14 0.0000000000000000e+00 0.0000000000000000e+00  0.0000000000000000e+00 0.0000000000000000e+00 0.0000000000000000e+00  0.0000000000000000e+00 0.0000000000000000e+00 0.0000000000000000e+00  0.0000000000000000e+00 0.0000000000000000e+00 0.0000000000000000e+00  0.0000000000000000e+00 0.0000000000000000e+00 0.0000000000000000e+00  0.0000000000000000e+00 0.0000000000000000e+00 0.0000000000000000e+00  -3.0316884779106098e-13 4.6368222502795828e-18 0.0000000000000000e+00  0.0000000000000000e+00 0.0000000000000000e+00 0.0000000000000000e+00  0.0000000000000000e+00 0.0000000000000000e+00 0.0000000000000000e+00  0.0000000000000000e+00 0.0000000000000000e+00 0.0000000000000000e+00  0.0000000000000000e+00 0.0000000000000000e+00 0.0000000000000000e+00  0.0000000000000000e+00 0.0000000000000000e+00 0.0000000000000000e+00  0.0000000000000000e+00 0.0000000000000000e+00 0.0000000000000000e+00  0.0000000000000000e+00 0.0000000000000000e+00 0.0000000000000000e+00  0.0000000000000000e+00 0.0000000000000000e+00 0.0000000000000000e+00  0.0000000000000000e+00 0.0000000000000000e+00 0.0000000000000000e+00  0.0000000000000000e+00 0.0000000000000000e+00 0.0000000000000000e+00  9.2508081356599355e-16 -5.4377564825534343e-14 0.0000000000000000e+00  0.0000000000000000e+00 0.0000000000000000e+00 0.0000000000000000e+00  0.0000000000000000e+00 0.0000000000000000e+00 0.0000000000000000e+00  0.0000000000000000e+00 0.0000000000000000e+00 0.0000000000000000e+00  0.0000000000000000e+00 0.0000000000000000e+00 0.0000000000000000e+00  -5.7574123525838549e-15 -1.3369876960024383e-14 0.0000000000000000e+00  0.0000000000000000e+00 0.0000000000000000e+00 0.0000000000000000e+00  0.0000000000000000e+00 0.0000000000000000e+00 0.0000000000000000e+00  0.0000000000000000e+00 0.0000000000000000e+00 0.0000000000000000e+00  0.0000000000000000e+00 0.0000000000000000e+00 0.0000000000000000e+00  0.0000000000000000e+00 0.0000000000000000e+00 0.0000000000000000e+00  0.0000000000000000e+00 0.0000000000000000e+00 0.0000000000000000e+00  0.0000000000000000e+00 0.0000000000000000e+00 0.0000000000000000e+00  0.0000000000000000e+00 0.0000000000000000e+00 0.0000000000000000e+00  0.0000000000000000e+00 0.0000000000000000e+00 0.0000000000000000e+00  0.0000000000000000e+00 0.0000000000000000e+00 0.0000000000000000e+00  0.0000000000000000e+00 0.0000000000000000e+00 0.0000000000000000e+00  0.0000000000000000e+00 0.0000000000000000e+00 0.0000000000000000e+00  0.0000000000000000e+00 0.0000000000000000e+00 0.0000000000000000e+00  0.0000000000000000e+00 0.0000000000000000e+00 0.0000000000000000e+00  0.0000000000000000e+00 0.0000000000000000e+00 0.0000000000000000e+00  0.0000000000000000e+00 0.0000000000000000e+00 0.0000000000000000e+00  0.0000000000000000e+00 0.0000000000000000e+00 0.0000000000000000e+00  0.0000000000000000e+00 0.0000000000000000e+00 0.0000000000000000e+00  0.0000000000000000e+00 0.0000000000000000e+00 0.0000000000000000e+00  0.0000000000000000e+00 0.0000000000000000e+00 0.0000000000000000e+00  0.0000000000000000e+00 0.0000000000000000e+00 0.0000000000000000e+00  0.0000000000000000e+00 0.0000000000000000e+00 0.0000000000000000e+00  0.0000000000000000e+00 0.0000000000000000e+00 0.0000000000000000e+00  0.0000000000000000e+00 0.0000000000000000e+00 0.0000000000000000e+00  0.0000000000000000e+00 0.0000000000000000e+00 0.0000000000000000e+00  0.0000000000000000e+00 0.0000000000000000e+00 0.0000000000000000e+00  0.0000000000000000e+00 0.0000000000000000e+00 0.0000000000000000e+00  0.0000000000000000e+00 0.0000000000000000e+00 0.0000000000000000e+00  0.0000000000000000e+00 0.0000000000000000e+00 0.0000000000000000e+00  0.0000000000000000e+00 0.0000000000000000e+00 0.0000000000000000e+00  0.0000000000000000e+00 0.0000000000000000e+00 0.0000000000000000e+00  -1.1219295370635709e-14 1.5092410323965534e-13 0.0000000000000000e+00  1.8511251268928069e-07 -2.8971743329225511e-06 0.0000000000000000e+00  4.7254057095167193e-07 -3.1840296525718971e-06 0.0000000000000000e+00  9.0002097058588994e-07 -3.3542264939832421e-06 0.0000000000000000e+00  1.3970778335837276e-06 -3.4857967048387236e-06 0.0000000000000000e+00  1.8952321853016886e-06 -3.6580528344506266e-06 0.0000000000000000e+00  2.3727882743623484e-06 -3.9065387119479096e-06 0.0000000000000000e+00  2.8174025936582055e-06 -4.1890830942953681e-06 0.0000000000000000e+00  3.2282534979148484e-06 -4.5209191952408484e-06 0.0000000000000000e+00  3.6268733884084617e-06 -4.8943899693287534e-06 0.0000000000000000e+00  3.9774394467109422e-06 -5.2978214338944131e-06 0.0000000000000000e+00  4.3114255024256835e-06 -5.7567303794077740e-06 0.0000000000000000e+00  4.6001300837575001e-06 -6.2352352992525271e-06 0.0000000000000000e+00  4.8639252402582360e-06 -6.7584123568208502e-06 0.0000000000000000e+00  5.0929347277239102e-06 -7.3107271244335622e-06 0.0000000000000000e+00  5.2847870860306708e-06 -7.8943073042215552e-06 0.0000000000000000e+00  5.4592889839292374e-06 -8.5123021097681756e-06 0.0000000000000000e+00  5.5877624576887265e-06 -9.1422642443876150e-06 0.0000000000000000e+00  5.6923123318919499e-06 -9.8191203263700466e-06 0.0000000000000000e+00  5.7556260492364572e-06 -1.0498203446745382e-05 0.0000000000000000e+00  5.7950358940089222e-06 -1.1220947253470232e-05 0.0000000000000000e+00  5.7953362438281404e-06 -1.1944762750730316e-05 0.0000000000000000e+00  5.7626368433722824e-06 -1.2701241033402021e-05 0.0000000000000000e+00  5.7015774644853772e-06 -1.3473529126925936e-05 0.0000000000000000e+00  5.6037083334257762e-06 -1.4261320663149989e-05 0.0000000000000000e+00  5.4852612791230100e-06 -1.5072451578448052e-05 0.0000000000000000e+00  5.3259210560229303e-06 -1.5884324591813638e-05 0.0000000000000000e+00  5.1341983951748802e-06 -1.6733318190409802e-05 0.0000000000000000e+00  4.9099053935176360e-06 -1.7573650183664133e-05 0.0000000000000000e+00  4.6533473748173894e-06 -1.8447211064632539e-05 0.0000000000000000e+00  4.3645418603332407e-06 -1.9313805199270987e-05 0.0000000000000000e+00  4.0444360718766832e-06 -2.0210182494593965e-05 0.0000000000000000e+00  3.6905334491746457e-06 -2.1097631712469167e-05 0.0000000000000000e+00  3.3070820889972821e-06 -2.2014791859994483e-05 0.0000000000000000e+00  2.8888854449563304e-06 -2.2918577479335787e-05 0.0000000000000000e+00  2.4375155765206526e-06 -2.3853602967713997e-05 0.0000000000000000e+00  1.9543315967329498e-06 -2.4775657140388806e-05 0.0000000000000000e+00  1.4397983700795760e-06 -2.5725056193334150e-05 0.0000000000000000e+00  8.9247258115326838e-07 -2.6661359041542944e-05 0.0000000000000000e+00  3.1201449655739141e-07 -2.7623433427168613e-05 0.0000000000000000e+00  -3.0330891632289226e-07 -2.8571848186282787e-05 0.0000000000000000e+00  -9.5546280077220812e-07 -2.9537554624781735e-05 0.0000000000000000e+00  -1.6345455425763911e-06 -3.0499803359159206e-05 0.0000000000000000e+00  -2.3529461599828782e-06 -3.1469610385050236e-05 0.0000000000000000e+00  -3.0905336540192016e-06 -3.2440488489447908e-05 0.0000000000000000e+00  -3.8664847560997698e-06 -3.3403712013806989e-05 0.0000000000000000e+00  -4.6431056419791931e-06 -3.4403497900435944e-05 0.0000000000000000e+00  -6.2768959348046964e-06 -3.4751554154579517e-05 0.0000000000000000e+00  -7.6466132823598063e-06 -3.3142312485157984e-05 0.0000000000000000e+00  -7.3935329624938299e-06 -3.1434717042591357e-05 0.0000000000000000e+00  -6.6002955761205423e-06 -3.0379212046240391e-05 0.0000000000000000e+00  -5.8129139366506420e-06 -2.9306716546260827e-05 0.0000000000000000e+00  -5.0613623141898428e-06 -2.8250516182066497e-05 0.0000000000000000e+00  -4.3310195428656732e-06 -2.7198251794011937e-05 0.0000000000000000e+00  -3.6410236647112898e-06 -2.6151275053964933e-05 0.0000000000000000e+00  -2.9753020016297843e-06 -2.5113677427420903e-05 0.0000000000000000e+00  -2.3476189162773150e-06 -2.4070361229150814e-05 0.0000000000000000e+00  -1.7493064969734060e-06 -2.3050624351745825e-05 0.0000000000000000e+00  -1.1847639157581097e-06 -2.2017352007441007e-05 0.0000000000000000e+00  -6.4919597910178307e-07 -2.1010677297651608e-05 0.0000000000000000e+00  -1.4750657776725798e-07 -1.9991990270827191e-05 0.0000000000000000e+00  3.2572530249658773e-07 -1.9001021145796312e-05 0.0000000000000000e+00  7.6574572293804852e-07 -1.7999680679125645e-05 0.0000000000000000e+00  1.1786331875861422e-06 -1.7026724477543735e-05 0.0000000000000000e+00  1.5574541941644821e-06 -1.6044221617588146e-05 0.0000000000000000e+00  1.9093879330750086e-06 -1.5091161094527644e-05 0.0000000000000000e+00  2.2269957726762566e-06 -1.4130014193501164e-05 0.0000000000000000e+00  2.5185361582830689e-06 -1.3200663030266655e-05 0.0000000000000000e+00  2.7761120134385033e-06 -1.2265672920306327e-05 0.0000000000000000e+00  3.0087644954671530e-06 -1.1363425844798900e-05 0.0000000000000000e+00  3.2065034637210894e-06 -1.0457962177964702e-05 0.0000000000000000e+00  3.3753027496772209e-06 -9.5802061180965132e-06 0.0000000000000000e+00  3.5167680813302599e-06 -8.7136524545816539e-06 0.0000000000000000e+00  3.6225401692354277e-06 -7.8686397199387701e-06 0.0000000000000000e+00  3.7132624512412900e-06 -7.0427146367771490e-06 0.0000000000000000e+00  3.7654882085867996e-06 -6.2278112066427236e-06 0.0000000000000000e+00  3.7917154100850508e-06 -5.4525200568273943e-06 0.0000000000000000e+00  3.7860492306002735e-06 -4.6795496491484212e-06 0.0000000000000000e+00  3.7535939111823001e-06 -3.9512603327304552e-06 0.0000000000000000e+00  3.6899048795986008e-06 -3.2279009882529349e-06 0.0000000000000000e+00  3.5991940441685555e-06 -2.5494628571024424e-06 0.0000000000000000e+00  3.4820397421523980e-06 -1.8879835855212313e-06 0.0000000000000000e+00  3.3319548945638348e-06 -1.2668102420748305e-06 0.0000000000000000e+00  3.1702785002908202e-06 -6.7239569856429840e-07 0.0000000000000000e+00  2.9710748585318201e-06 -1.1056538377385001e-07 0.0000000000000000e+00  2.7479033996007362e-06 3.9918413786094661e-07 0.0000000000000000e+00  2.4943737513149103e-06 8.8618028822668873e-07 0.0000000000000000e+00  2.2185298980642693e-06 1.3181317379200014e-06 0.0000000000000000e+00  1.9147778003462461e-06 1.7171856766703109e-06 0.0000000000000000e+00  1.5806273911908877e-06 2.0626922141401510e-06 0.0000000000000000e+00  1.2415428649423895e-06 2.3664200088608659e-06 0.0000000000000000e+00  8.6475927534059972e-07 2.6434033260163557e-06 0.0000000000000000e+00  5.1365402098337012e-07 2.8583372482781379e-06 0.0000000000000000e+00  2.0902238683510715e-07 2.9320165718712002e-06 0.0000000000000000e+00  5.2594366170725068e-08 2.7818767536824335e-06 0.0000000000000000e+00  -3.0406502784314068e-07 -7.1460101629679888e-08 0.0000000000000000e+00  -5.7007306402182241e-06 -3.2416674657165768e-05 0.0000000000000000e+00  -4.1400412612470471e-06 -3.0482145002382687e-05 0.0000000000000000e+00  -1.9527333602672074e-06 -2.7323099838847668e-05 0.0000000000000000e+00  8.8823371106843563e-07 -2.9707739502727873e-07 0.0000000000000000e+00  -7.5206410970122374e-07 -2.5346482330765952e-05 0.0000000000000000e+00  1.7229851231129902e-06 -6.8384085253862770e-07 0.0000000000000000e+00  3.6193924070533013e-07 -2.3376533175074083e-05 0.0000000000000000e+00  2.8790712872010422e-06 -1.7478362889848299e-06 0.0000000000000000e+00  3.4762856370610541e-06 -2.6622978264191812e-06 0.0000000000000000e+00  1.3481340570466917e-06 -2.1435338885105583e-05 0.0000000000000000e+00  4.4813744490292404e-06 -5.5154630637378745e-06 0.0000000000000000e+00  2.9411438473568558e-06 -1.7656263347011968e-05 0.0000000000000000e+00  3.9452100988170886e-06 -3.6238048474789165e-06 0.0000000000000000e+00  4.6778010271881065e-06 -6.8787630856442566e-06 0.0000000000000000e+00  3.5496100100349994e-06 -1.5828446270000590e-05 0.0000000000000000e+00  2.2076505498118770e-06 -1.9526876637291630e-05 0.0000000000000000e+00  4.7507945048601000e-06 -8.3320671605661430e-06 0.0000000000000000e+00  4.0333253820507398e-06 -1.4050858743077498e-05 0.0000000000000000e+00  4.6946867142223529e-06 -9.7772049087508437e-06 0.0000000000000000e+00  4.4046230525826989e-06 -1.2394476316923958e-05 0.0000000000000000e+00  4.5808872144514432e-06 -1.1017211959495491e-05 0.0000000000000000e+00  4.2385289037994692e-06 -4.5366318282791123e-06 0.0000000000000000e+00  -3.0864205386093042e-06 -2.8932115561929438e-05 0.0000000000000000e+00  2.3044638462085557e-06 -1.1861497881627497e-06 0.0000000000000000e+00  -5.3709335863900250e-06 -3.0907642057865256e-05 0.0000000000000000e+00  2.9631045644935135e-07 1.0075154011582850e-06 0.0000000000000000e+00  -5.6177505955627323e-07 -2.3826803225246808e-05 0.0000000000000000e+00  -1.7441696136600137e-06 -2.5830998076292920e-05 0.0000000000000000e+00  1.4354897603544879e-06 -1.5754931098163939e-06 0.0000000000000000e+00  3.3598275912384112e-06 -3.0338389953051806e-06 0.0000000000000000e+00  2.2266776869567855e-06 -1.7988703136275469e-05 0.0000000000000000e+00  4.9370252149814661e-07 -2.1848287387049496e-05 0.0000000000000000e+00  4.8590707321569060e-06 -6.9515706365105240e-06 0.0000000000000000e+00  2.9062103967532971e-06 -1.6116625380433894e-05 0.0000000000000000e+00  3.9383773684272319e-06 -3.9844723327017055e-06 0.0000000000000000e+00  5.0101912000992699e-06 -8.3369815410904824e-06 0.0000000000000000e+00  3.4618013491333757e-06 -1.4291272406317141e-05 0.0000000000000000e+00  1.4226624684829000e-06 -1.9900646291034161e-05 0.0000000000000000e+00  5.1067455390786816e-06 -9.9650183889849338e-06 0.0000000000000000e+00  3.8950844090923790e-06 -1.2520205205040570e-05 0.0000000000000000e+00  -4.7187141926047620e-07 -6.9835835857024057e-07 0.0000000000000000e+00  -4.8659231558230953e-07 6.0977990781836345e-07 0.0000000000000000e+00  -6.0582145826571871e-06 -3.3570400941043521e-05 0.0000000000000000e+00  4.3271497664114673e-07 -1.4435424494608094e-06