<?xml version="1.0"?>
<VTKFile type="UnstructuredGrid"  version="0.1"  >
<UnstructuredGrid>
<Piece  NumberOfPoints="1419" NumberOfCells="2698">
<Points>
<DataArray  type="Float64"  NumberOfComponents="3"  format="ascii">0 0 0  0 0.41 0  2.5 0 0  2.5 0.41 0  0.6 0.19 0  0.6 0.21 0  0.25 0.2 0  0.15 0.2 0  0.2489897948556636 0.21 0  0.2489897948556636 0.19 0  0.6 0.2 0  0 0.3807142857143437 0  0 0.3514285714286952 0  0 0.3221428571430699 0  0 0.29285714285744 0  0 0.2635714285718054 0  0 0.2342857142861561 0  0 0.2050000000005308 0  0 0.175714285714732 0  0 0.1464285714289574 0  0 0.1171428571431897 0  0 0.08785714285737878 0  0 0.05857142857161107 0  0 0.02928571428580012 0  0.03015443760436003 0 0  0.06140001986583606 0 0  0.09377624077125973 0 0  0.1273239957535082 0 0  0.1620856860351972 0 0  0.1981052433264291 0 0  0.235428184091502 0 0  0.2741016576309132 0 0  0.3141745521465447 0 0  0.3556974926295285 0 0  0.3987229542472677 0 0  0.4433053055141081 0 0  0.4895008759286886 0 0  0.5373680609405097 0 0  0.5869673343216626 0 0  0.6383613676634521 0 0  0.6916151138468254 0 0  0.7467958595648856 0 0  0.8039733463919316 0 0  0.8632198139502143 0 0  0.9246101326867038 0 0  0.9882218810934433 0 0  1.054135445558498 0 0  1.122434100542598 0 0  1.193204177141305 0 0  1.266535089879536 0 0  1.342519516046404 0 0  1.421253448503939 0 0  1.502836389106271 0 0  1.587371439758838 0 0  1.674965418777374 0 0  1.765729001825544 0 0  1.859776908880082 0 0  1.957227977487062 0 0  2.058205329869943 0 0  2.162836591189951 0 0  2.271253957290865 0 0  2.383594446803425 0 0  2.5 0.1024999999997612 0  2.5 0.2049999999994743 0  2.5 0.3074999999997183 0  2.383594446803656 0.41 0  2.271253957291315 0.41 0  2.162836591190598 0.41 0  2.058205329870775 0.41 0  1.957227977488067 0.41 0  1.859776908881246 0.41 0  1.765729001826854 0.41 0  1.674965418778818 0.41 0  1.58737143976041 0.41 0  1.502836389107956 0.41 0  1.421253448505726 0.41 0  1.342519516048286 0.41 0  1.266535089881505 0.41 0  1.193204177143353 0.41 0  1.122434100544716 0.41 0  1.05413544556068 0.41 0  0.9882218810956305 0.41 0  0.9246101326886647 0.41 0  0.8632198139519631 0.41 0  0.8039733463934788 0.41 0  0.7467958595662458 0.41 0  0.6916151138480078 0.41 0  0.6383613676644679 0.41 0  0.5869673343225223 0.41 0  0.5373680609412221 0.41 0  0.4895008759292634 0.41 0  0.4433053055145528 0.41 0  0.3987229542475914 0.41 0  0.3556974926297398 0.41 0  0.3141745521466497 0.41 0  0.2741016576310038 0.41 0  0.2354281840915826 0.41 0  0.1981052433265003 0.41 0  0.1620856860352591 0.41 0  0.1273239957535623 0.41 0  0.09377624077128965 0.41 0  0.06140001986584975 0.41 0  0.03015443760436654 0.41 0  0.2497468076502589 0.2050254481002335 0  0.2497468076502614 0.1949745518997913 0  0.2469965252529372 0.1829317073451959 0  0.2439893735792749 0.1762316384219906 0  0.2400332147834255 0.1700443375285386 0  0.2352133972704371 0.1645032867342007 0  0.2296339016332438 0.1597280261969788 0  0.2234150974217223 0.1558215752574715 0  0.2166911463437691 0.1528682099456123 0  0.2096071079204251 0.1509316448471593 0  0.2023158100364996 0.1500536585536553 0  0.194974551899914 0.1502531923497262 0  0.1877417105387872 0.1515259415822739 0  0.1807733240461124 0.153844448527136 0  0.1742197252835808 0.15715869474974 0  0.1682222986673531 0.1613971801805478 0  0.162910430003803 0.1664684656256651 0  0.1583987151779087 0.1722631454351573 0  0.1547844879126891 0.178656207771761 0  0.1521457199348551 0.1855097315605723 0  0.1505393388476355 0.1926758619366523 0  0.1505393388476328 0.2073241380633295 0  0.1521457199348437 0.2144902684393899 0  0.1547844879126531 0.221343792228163 0  0.1583987151778488 0.2277368545647528 0  0.1629104300036858 0.2335315343742052 0  0.1682222986671726 0.2386028198193036 0  0.1742197252833576 0.2428413052501257 0  0.1807733240458683 0.2461555514727623 0  0.1877417105384929 0.2484740584176516 0  0.1949745518995776 0.2497468076502398 0  0.202315810036185 0.2499463414463592 0  0.2096071079201568 0.2490683551528932 0  0.2166911463435495 0.2471317900544655 0  0.2234150974215506 0.2441784247426195 0  0.2296339016331197 0.2402719738031125 0  0.2352133972703547 0.2354967132658811 0  0.2400332147833751 0.2299556624715287 0  0.2439893735792577 0.2237683615780412 0  0.246996525252926 0.2170682926548348 0  0.25645809709277 0.21 0  0.2639263993298655 0.21 0  0.271394701566961 0.21 0  0.2788630038040554 0.21 0  0.2863313060411479 0.21 0  0.2937996082782405 0.21 0  0.301267910515333 0.21 0  0.3087362127524279 0.21 0  0.3162045149895234 0.21 0  0.3236728172265972 0.21 0  0.3311411194636928 0.21 0  0.3386094217007701 0.21 0  0.3460777239378666 0.21 0  0.3535460261749672 0.21 0  0.3610143284120516 0.21 0  0.3684826306491596 0.21 0  0.3759509328862226 0.21 0  0.383419235123329 0.21 0  0.3908875373604028 0.21 0  0.3983558395975142 0.21 0  0.4058241418345938 0.21 0  0.4132924440716992 0.21 0  0.4207607463087888 0.21 0  0.4282290485459029 0.21 0  0.4356973507830418 0.21 0  0.4431656530201649 0.21 0  0.4506339552573136 0.21 0  0.4581022574944306 0.21 0  0.4655705597315852 0.21 0  0.4730388619686996 0.21 0  0.480507164205851 0.21 0  0.4879754664429498 0.21 0  0.4954437686800938 0.21 0  0.502912070917267 0.21 0  0.5103803731544119 0.21 0  0.5178486753915261 0.21 0  0.5253169776286404 0.21 0  0.5327852798657868 0.21 0  0.5402535821029386 0.21 0  0.54772188434007 0.21 0  0.5551901865771842 0.21 0  0.5626584888143201 0.21 0  0.5701267910514778 0.21 0  0.5775950932886138 0.21 0  0.5850633955257281 0.21 0  0.5925316977628483 0.21 0  0.6 0.2050000000000054 0  0.6 0.1950000000000217 0  0.5925316977628897 0.19 0  0.5850633955257988 0.19 0  0.5775950932887378 0.19 0  0.5701267910515998 0.19 0  0.5626584888145268 0.19 0  0.5551901865773963 0.19 0  0.547721884340339 0.19 0  0.5402535821032429 0.19 0  0.5327852798661811 0.19 0  0.5253169776290537 0.19 0  0.5178486753919799 0.19 0  0.5103803731549078 0.19 0  0.502912070917822 0.19 0  0.4954437686807294 0.19 0  0.4879754664436223 0.19 0  0.4805071642065402 0.19 0  0.4730388619694271 0.19 0  0.4655705597323621 0.19 0  0.4581022574952563 0.19 0  0.4506339552581777 0.19 0  0.4431656530210671 0.19 0  0.4356973507839815 0.19 0  0.4282290485468779 0.19 0  0.4207607463097617 0.19 0  0.4132924440726327 0.19 0  0.4058241418354857 0.19 0  0.3983558395983636 0.19 0  0.3908875373612097 0.19 0  0.3834192351240934 0.19 0  0.3759509328869369 0.19 0  0.3684826306498175 0.19 0  0.361014328412667 0.19 0  0.3535460261755617 0.19 0  0.3460777239384295 0.19 0  0.3386094217012945 0.19 0  0.3311411194641595 0.19 0  0.3236728172270245 0.19 0  0.3162045149898895 0.19 0  0.3087362127527544 0.19 0  0.3012679105156187 0.19 0  0.2937996082784807 0.19 0  0.2863313060413428 0.19 0  0.2788630038042048 0.19 0  0.2713947015670686 0.19 0  0.2639263993299336 0.19 0  0.2564580970927985 0.19 0  0.2607803159922026 0.2000727136295815 0  0.5887803774232762 0.2001272386983733 0  0.5745072403740523 0.2002044435018727 0  0.5511891430099709 0.2001122610077113 0  0.2751288526855082 0.20000000000002 0  0.5365194309847112 0.1999999999999436 0  0.2894621222999649 0.1998691686390484 0  0.5215828265105155 0.1999999999999228 0  0.3127789816668748 0.1998657885438805 0  0.3274069683451451 0.2000000000000796 0  0.5066462220363641 0.199999999999908 0  0.3650630746574081 0.199866017807523 0  0.476773013087985 0.1999999999998713 0  0.3417402379596385 0.1998691686391011 0  0.3796850840047755 0.200000000000134 0  0.4618364086138087 0.1999999999998546 0  0.4917096175621762 0.1999999999998808 0  0.3946216884789568 0.2000000000001512 0  0.446899804139621 0.1999999999998389 0  0.4089549580935208 0.1998691686391595 0  0.4322718174608562 0.200127451265745 0  0.4201487168029707 0.1999966199048527 0  0.3528922713220932 0.2000185703532356 0  0.5633122436674589 0.1999814296467508 0  0.3006558810093873 0.1999966199048318 0  0.5815926498168407 0.1966545283159175 0  0.2677053789419034 0.1964246479135325 0  0.5290511287476175 0.1970915826863981 0  0.5439877332217911 0.197091582686394 0  0.2825131256993216 0.2035478995978015 0  0.3199386661080599 0.202908417313604 0  0.4842413153250809 0.1970915826863873 0  0.5141145242734466 0.1970915826863843 0  0.3722167817676917 0.2029084173136195 0  0.4693047108508938 0.1970915826863783 0  0.3348752705822316 0.202908417313609 0  0.3871533862418661 0.2029084173136212 0  0.4543681063767183 0.1970915826863795 0  0.4991779197992749 0.1970915826863902 0  0.4020059614928624 0.203547899597858 0  0.4394315019025246 0.1970915826863714 0  0.2550657455369551 0.2034088125358657 0  0.2548908499171161 0.1966940311614271 0  0.5946539510196798 0.2024302972968126 0  0.267698176732111 0.2039977513680092 0  0.4261685417851465 0.196409292431739 0  0.3590076176283495 0.196411355804271 0  0.5571672426447437 0.2036011176410121 0  0.3066757059912147 0.1964092924317024 0  0.594380730180568 0.1966558399668133 0  0.4842413153245942 0.2040749161535287 0  0.4693047108503577 0.2040749161535231 0  0.3871533862424271 0.1959250838464788 0  0.372246743208829 0.1959123236376545 0  0.5141145242731028 0.2040749161535395 0  0.4543681063761134 0.2040749161535186 0  0.4019979587101454 0.1959834479682427 0  0.4394608940728603 0.2040870543693135 0  0.5439623148931173 0.2040856076781014 0  0.5290511287473298 0.2040749161535501 0  0.4991779197988497 0.2040749161535382 0  0.3347912413592433 0.1959225448935183 0  0.3199680582793816 0.1959123018030061 0  0.2825051229162361 0.1959834479681729 0  0.3590471196690275 0.2036304442587945 0  0.5571594006495384 0.1963685282145804 0  0.3067669986803285 0.203627750582736 0  0.4262598344738712 0.2036568242185335 0  0.5814408164431408 0.2041285596160068 0  0.5688286748170428 0.1961819304477386 0  0.4145905603063645 0.2038180695522843 0  0.3473758401724931 0.2038180695522752 0  0.2950977245128307 0.2038180695522663 0  0.5688286748170693 0.203818069552238 0  0.2950977245127906 0.1961819304477774 0  0.3473758401723931 0.1961819304478349 0  0.4145905603061963 0.1961819304479011 0  0.2601812407614425 0.2056861609747042
[...]
<PointData  Vectors="f_46-2"> 
<DataArray  type="Float64"  Name="f_46-2"  NumberOfComponents="3" format="ascii">0.0000000000000000e+00 0.0000000000000000e+00 0.0000000000000000e+00  0.0000000000000000e+00 0.0000000000000000e+00 0.0000000000000000e+00  0.0000000000000000e+00 0.0000000000000000e+00 0.0000000000000000e+00  0.0000000000000000e+00 0.0000000000000000e+00 0.0000000000000000e+00  2.2815181358890584e-06 -8.4433202052872043e-05 0.0000000000000000e+00  8.9675255968882837e-06 -8.7852843850944591e-05 0.0000000000000000e+00  0.0000000000000000e+00 -3.9691998173849382e-29 0.0000000000000000e+00  0.0000000000000000e+00 0.0000000000000000e+00 0.0000000000000000e+00  0.0000000000000000e+00 0.0000000000000000e+00 0.0000000000000000e+00  0.0000000000000000e+00 0.0000000000000000e+00 0.0000000000000000e+00  5.2613750466100692e-06 -8.6145762219169654e-05 0.0000000000000000e+00  0.0000000000000000e+00 0.0000000000000000e+00 0.0000000000000000e+00  0.0000000000000000e+00 0.0000000000000000e+00 0.0000000000000000e+00  0.0000000000000000e+00 0.0000000000000000e+00 0.0000000000000000e+00  0.0000000000000000e+00 0.0000000000000000e+00 0.0000000000000000e+00  0.0000000000000000e+00 0.0000000000000000e+00 0.0000000000000000e+00  0.0000000000000000e+00 0.0000000000000000e+00 0.0000000000000000e+00  0.0000000000000000e+00 0.0000000000000000e+00 0.0000000000000000e+00  0.0000000000000000e+00 0.0000000000000000e+00 0.0000000000000000e+00  0.0000000000000000e+00 0.0000000000000000e+00 0.0000000000000000e+00  0.0000000000000000e+00 0.0000000000000000e+00 0.0000000000000000e+00  0.0000000000000000e+00 0.0000000000000000e+00 0.0000000000000000e+00  0.0000000000000000e+00 0.0000000000000000e+00 0.0000000000000000e+00  0.0000000000000000e+00 0.0000000000000000e+00 0.0000000000000000e+00  0.0000000000000000e+00 0.0000000000000000e+00 0.0000000000000000e+00  0.0000000000000000e+00 0.0000000000000000e+00 0.0000000000000000e+00  0.0000000000000000e+00 0.0000000000000000e+00 0.0000000000000000e+00  0.0000000000000000e+00 0.0000000000000000e+00 0.0000000000000000e+00  0.0000000000000000e+00 0.0000000000000000e+00 0.0000000000000000e+00  0.0000000000000000e+00 0.0000000000000000e+00 0.0000000000000000e+00  0.0000000000000000e+00 0.0000000000000000e+00 0.0000000000000000e+00  0.0000000000000000e+00 0.0000000000000000e+00 0.0000000000000000e+00  0.0000000000000000e+00 0.0000000000000000e+00 0.0000000000000000e+00  0.0000000000000000e+00 0.0000000000000000e+00 0.0000000000000000e+00  0.0000000000000000e+00 0.0000000000000000e+00 0.0000000000000000e+00  2.3535939563750193e-12 1.2715670452542215e-17 0.0000000000000000e+00  0.0000000000000000e+00 0.0000000000000000e+00 0.0000000000000000e+00  0.0000000000000000e+00 0.0000000000000000e+00 0.0000000000000000e+00  0.0000000000000000e+00 0.0000000000000000e+00 0.0000000000000000e+00  0.0000000000000000e+00 0.0000000000000000e+00 0.0000000000000000e+00  0.0000000000000000e+00 0.0000000000000000e+00 0.0000000000000000e+00  0.0000000000000000e+00 0.0000000000000000e+00 0.0000000000000000e+00  0.0000000000000000e+00 0.0000000000000000e+00 0.0000000000000000e+00  0.0000000000000000e+00 0.0000000000000000e+00 0.0000000000000000e+00  0.0000000000000000e+00 0.0000000000000000e+00 0.0000000000000000e+00  0.0000000000000000e+00 0.0000000000000000e+00 0.0000000000000000e+00  0.0000000000000000e+00 0.0000000000000000e+00 0.0000000000000000e+00  0.0000000000000000e+00 0.0000000000000000e+00 0.0000000000000000e+00  0.0000000000000000e+00 0.0000000000000000e+00 0.0000000000000000e+00  0.0000000000000000e+00 0.0000000000000000e+00 0.0000000000000000e+00  0.0000000000000000e+00 0.0000000000000000e+00 0.0000000000000000e+00  0.0000000000000000e+00 0.0000000000000000e+00 0.0000000000000000e+00  0.0000000000000000e+00 0.0000000000000000e+00 0.0000000000000000e+00  0.0000000000000000e+00 0.0000000000000000e+00 0.0000000000000000e+00  0.0000000000000000e+00 0.0000000000000000e+00 0.0000000000000000e+00  0.0000000000000000e+00 0.0000000000000000e+00 0.0000000000000000e+00  0.0000000000000000e+00 0.0000000000000000e+00 0.0000000000000000e+00  0.0000000000000000e+00 0.0000000000000000e+00 0.0000000000000000e+00  0.0000000000000000e+00 0.0000000000000000e+00 0.0000000000000000e+00  0.0000000000000000e+00 0.0000000000000000e+00 0.0000000000000000e+00  0.0000000000000000e+00 0.0000000000000000e+00 0.0000000000000000e+00  0.0000000000000000e+00 0.0000000000000000e+00 0.0000000000000000e+00  0.0000000000000000e+00 0.0000000000000000e+00 0.0000000000000000e+00  0.0000000000000000e+00 0.0000000000000000e+00 0.0000000000000000e+00  0.0000000000000000e+00 0.0000000000000000e+00 0.0000000000000000e+00  0.0000000000000000e+00 0.0000000000000000e+00 0.0000000000000000e+00  0.0000000000000000e+00 0.0000000000000000e+00 0.0000000000000000e+00  0.0000000000000000e+00 0.0000000000000000e+00 0.0000000000000000e+00  0.0000000000000000e+00 0.0000000000000000e+00 0.0000000000000000e+00  0.0000000000000000e+00 0.0000000000000000e+00 0.0000000000000000e+00  0.0000000000000000e+00 0.0000000000000000e+00 0.0000000000000000e+00  0.0000000000000000e+00 0.0000000000000000e+00 0.0000000000000000e+00  0.0000000000000000e+00 0.0000000000000000e+00 0.0000000000000000e+00  0.0000000000000000e+00 0.0000000000000000e+00 0.0000000000000000e+00  0.0000000000000000e+00 0.0000000000000000e+00 0.0000000000000000e+00  0.0000000000000000e+00 0.0000000000000000e+00 0.0000000000000000e+00  0.0000000000000000e+00 0.0000000000000000e+00 0.0000000000000000e+00  0.0000000000000000e+00 0.0000000000000000e+00 0.0000000000000000e+00  0.0000000000000000e+00 0.0000000000000000e+00 0.0000000000000000e+00  0.0000000000000000e+00 0.0000000000000000e+00 0.0000000000000000e+00  0.0000000000000000e+00 0.0000000000000000e+00 0.0000000000000000e+00  0.0000000000000000e+00 0.0000000000000000e+00 0.0000000000000000e+00  0.0000000000000000e+00 0.0000000000000000e+00 0.0000000000000000e+00  0.0000000000000000e+00 0.0000000000000000e+00 0.0000000000000000e+00  0.0000000000000000e+00 0.0000000000000000e+00 0.0000000000000000e+00  0.0000000000000000e+00 0.0000000000000000e+00 0.0000000000000000e+00  0.0000000000000000e+00 0.0000000000000000e+00 0.0000000000000000e+00  0.0000000000000000e+00 0.0000000000000000e+00 0.0000000000000000e+00  -1.4338158382277545e-13 0.0000000000000000e+00 0.0000000000000000e+00  0.0000000000000000e+00 0.0000000000000000e+00 0.0000000000000000e+00  0.0000000000000000e+00 0.0000000000000000e+00 0.0000000000000000e+00  0.0000000000000000e+00 0.0000000000000000e+00 0.0000000000000000e+00  0.0000000000000000e+00 0.0000000000000000e+00 0.0000000000000000e+00  0.0000000000000000e+00 0.0000000000000000e+00 0.0000000000000000e+00  4.9910586206943843e-12 0.0000000000000000e+00 0.0000000000000000e+00  0.0000000000000000e+00 0.0000000000000000e+00 0.0000000000000000e+00  0.0000000000000000e+00 0.0000000000000000e+00 0.0000000000000000e+00  0.0000000000000000e+00 0.0000000000000000e+00 0.0000000000000000e+00  0.0000000000000000e+00 0.0000000000000000e+00 0.0000000000000000e+00  0.0000000000000000e+00 0.0000000000000000e+00 0.0000000000000000e+00  0.0000000000000000e+00 0.0000000000000000e+00 0.0000000000000000e+00  0.0000000000000000e+00 0.0000000000000000e+00 0.0000000000000000e+00  0.0000000000000000e+00 0.0000000000000000e+00 0.0000000000000000e+00  0.0000000000000000e+00 0.0000000000000000e+00 0.0000000000000000e+00  0.0000000000000000e+00 0.0000000000000000e+00 0.0000000000000000e+00  -2.0725367183382449e-13 2.6175407534520286e-13 0.0000000000000000e+00  0.0000000000000000e+00 0.0000000000000000e+00 0.0000000000000000e+00  0.0000000000000000e+00 0.0000000000000000e+00 0.0000000000000000e+00  0.0000000000000000e+00 0.0000000000000000e+00 0.0000000000000000e+00  0.0000000000000000e+00 0.0000000000000000e+00 0.0000000000000000e+00  0.0000000000000000e+00 0.0000000000000000e+00 0.0000000000000000e+00  0.0000000000000000e+00 0.0000000000000000e+00 0.0000000000000000e+00  0.0000000000000000e+00 0.0000000000000000e+00 0.0000000000000000e+00  0.0000000000000000e+00 0.0000000000000000e+00 0.0000000000000000e+00  0.0000000000000000e+00 0.0000000000000000e+00 0.0000000000000000e+00  0.0000000000000000e+00 0.0000000000000000e+00 0.0000000000000000e+00  0.0000000000000000e+00 0.0000000000000000e+00 0.0000000000000000e+00  0.0000000000000000e+00 0.0000000000000000e+00 0.0000000000000000e+00  0.0000000000000000e+00 0.0000000000000000e+00 0.0000000000000000e+00  0.0000000000000000e+00 0.0000000000000000e+00 0.0000000000000000e+00  0.0000000000000000e+00 0.0000000000000000e+00 0.0000000000000000e+00  0.0000000000000000e+00 0.0000000000000000e+00 0.0000000000000000e+00  0.0000000000000000e+00 0.0000000000000000e+00 0.0000000000000000e+00  0.0000000000000000e+00 0.0000000000000000e+00 0.0000000000000000e+00  0.0000000000000000e+00 0.0000000000000000e+00 0.0000000000000000e+00  0.0000000000000000e+00 0.0000000000000000e+00 0.0000000000000000e+00  0.0000000000000000e+00 0.0000000000000000e+00 0.0000000000000000e+00  0.0000000000000000e+00 0.0000000000000000e+00 0.0000000000000000e+00  0.0000000000000000e+00 0.0000000000000000e+00 0.0000000000000000e+00  0.0000000000000000e+00 0.0000000000000000e+00 0.0000000000000000e+00  0.0000000000000000e+00 0.0000000000000000e+00 0.0000000000000000e+00  0.0000000000000000e+00 0.0000000000000000e+00 0.0000000000000000e+00  0.0000000000000000e+00 0.0000000000000000e+00 0.0000000000000000e+00  0.0000000000000000e+00 0.0000000000000000e+00 0.0000000000000000e+00  0.0000000000000000e+00 0.0000000000000000e+00 0.0000000000000000e+00  0.0000000000000000e+00 0.0000000000000000e+00 0.0000000000000000e+00  0.0000000000000000e+00 0.0000000000000000e+00 0.0000000000000000e+00  0.0000000000000000e+00 0.0000000000000000e+00 0.0000000000000000e+00  0.0000000000000000e+00 0.0000000000000000e+00 0.0000000000000000e+00  0.0000000000000000e+00 0.0000000000000000e+00 0.0000000000000000e+00  0.0000000000000000e+00 0.0000000000000000e+00 0.0000000000000000e+00  0.0000000000000000e+00 0.0000000000000000e+00 0.0000000000000000e+00  -1.0379710578410275e-15 -2.2903973151857815e-15 0.0000000000000000e+00  6.5326932975761695e-07 -3.3573562329543117e-06 0.0000000000000000e+00  1.4537410797974051e-06 -3.8054571225674900e-06 0.0000000000000000e+00  2.4092080287621828e-06 -4.2001183006618187e-06 0.0000000000000000e+00  3.4548156594533990e-06 -4.6351879539605387e-06 0.0000000000000000e+00  4.4821841357341664e-06 -5.1851876736270758e-06 0.0000000000000000e+00  5.4991116081160369e-06 -5.8979471625902783e-06 0.0000000000000000e+00  6.4550944366638570e-06 -6.7048523458007936e-06 0.0000000000000000e+00  7.3669324096216136e-06 -7.6417194644046669e-06 0.0000000000000000e+00  8.2742332974491056e-06 -8.6829124917272057e-06 0.0000000000000000e+00  9.0977936452765741e-06 -9.8140285119223149e-06 0.0000000000000000e+00  9.9136901724165996e-06 -1.1069276657145591e-05 0.0000000000000000e+00  1.0649993073150130e-05 -1.2395083117886652e-05 0.0000000000000000e+00  1.1363472305052710e-05 -1.3824643604475599e-05 0.0000000000000000e+00  1.2016424161734625e-05 -1.5327175476218992e-05 0.0000000000000000e+00  1.2619316814974707e-05 -1.6913988981856985e-05 0.0000000000000000e+00  1.3205001315342703e-05 -1.8577786281506289e-05 0.0000000000000000e+00  1.3716072506501017e-05 -2.0289270924653637e-05 0.0000000000000000e+00  1.4203186764641705e-05 -2.2093973599576329e-05 0.0000000000000000e+00  1.4623200354929925e-05 -2.3927844350114975e-05 0.0000000000000000e+00  1.5017492018326194e-05 -2.5844726662078260e-05 0.0000000000000000e+00  1.5351505355587712e-05 -2.7785918927562162e-05 0.0000000000000000e+00  1.5644841476068554e-05 -2.9792853759395997e-05 0.0000000000000000e+00  1.5893380905858794e-05 -3.1836003787798368e-05 0.0000000000000000e+00  1.6093319737713499e-05 -3.3920105065345557e-05 0.0000000000000000e+00  1.6267726516124637e-05 -3.6047576662173900e-05 0.0000000000000000e+00  1.6383652186542089e-05 -3.8191519040140607e-05 0.0000000000000000e+00  1.6456722985889255e-05 -4.0396622843584499e-05 0.0000000000000000e+00  1.6484118045788141e-05 -4.2600530961933707e-05 0.0000000000000000e+00  1.6468803943755008e-05 -4.4858368902427421e-05 0.0000000000000000e+00  1.6408789772048828e-05 -4.7113798994462187e-05 0.0000000000000000e+00  1.6307217018241402e-05 -4.9416225497226783e-05 0.0000000000000000e+00  1.6159708445904275e-05 -5.1711080296785199e-05 0.0000000000000000e+00  1.5972476701693123e-05 -5.4050205253612595e-05 0.0000000000000000e+00  1.5738681576694966e-05 -5.6374950404268122e-05 0.0000000000000000e+00  1.5461209498090293e-05 -5.8743770412981982e-05 0.0000000000000000e+00  1.5140848297079426e-05 -6.1096681399589652e-05 0.0000000000000000e+00  1.4778908586382058e-05 -6.3487515954566300e-05 0.0000000000000000e+00  1.4373296822119498e-05 -6.5861181616058996e-05 0.0000000000000000e+00  1.3924116875268265e-05 -6.8269963837415146e-05 0.0000000000000000e+00  1.3428823986396983e-05 -7.0659812374919005e-05 0.0000000000000000e+00  1.2884641652270705e-05 -7.3072769602739739e-05 0.0000000000000000e+00  1.2304682767514084e-05 -7.5480622748534519e-05 0.0000000000000000e+00  1.1673946370809358e-05 -7.7897966996168472e-05 0.0000000000000000e+00  1.1017546727333795e-05 -8.0316330202908360e-05 0.0000000000000000e+00  1.0309728259540718e-05 -8.2722992556787884e-05 0.0000000000000000e+00  9.6023047660225964e-06 -8.5179262755512896e-05 0.0000000000000000e+00  6.9894027489094370e-06 -8.6994473442309460e-05 0.0000000000000000e+00  3.6614403256464817e-06 -8.5300394017206625e-05 0.0000000000000000e+00  2.9318935158085079e-06 -8.2131864394174758e-05 0.0000000000000000e+00  3.6618795833453664e-06 -7.9605614756428930e-05 0.0000000000000000e+00  4.3847091215219138e-06 -7.7055795209908447e-05 0.0000000000000000e+00  5.0593707431414770e-06 -7.4529073794506710e-05 0.0000000000000000e+00  5.7057391103619466e-06 -7.2007450815829508e-05 0.0000000000000000e+00  6.2999193246208555e-06 -6.9492612805810116e-05 0.0000000000000000e+00  6.8618888636885813e-06 -6.6990595490851881e-05 0.0000000000000000e+00  7.3739554732903025e-06 -6.4479871242932471e-05 0.0000000000000000e+00  7.8477994850571258e-06 -6.2001718328525885e-05 0.0000000000000000e+00  8.2777520118579455e-06 -5.9505233677414075e-05 0.0000000000000000e+00  8.6709797006110133e-06 -5.7045560202654352e-05 0.0000000000000000e+00  9.0202678530943629e-06 -5.4570229354840527e-05 0.0000000000000000e+00  9.3340270857250160e-06 -5.2134199563609093e-05 0.0000000000000000e+00  9.6045138213975119e-06 -4.9686446715514153e-05 0.0000000000000000e+00  9.8421164649618031e-06 -4.7280345625909418e-05 0.0000000000000000e+00  1.0035036850978418e-05 -4.4865474996077978e-05 0.0000000000000000e+00  1.0196671567161277e-05 -4.2495493664884578e-05 0.0000000000000000e+00  1.0312898750134081e-05 -4.0120690723557481e-05 0.0000000000000000e+00  1.0399831675671012e-05 -3.7796091190893787e-05 0.0000000000000000e+00  1.0441059875160513e-05 -3.5472889819898417e-05 0.0000000000000000e+00  1.0455790633718135e-05 -3.3204146852120310e-05 0.0000000000000000e+00  1.0422762664741730e-05 -3.0943064215290629e-05 0.0000000000000000e+00  1.0358977222639423e-05 -2.8733159411877695e-05 0.0000000000000000e+00  1.0257379194804901e-05 -2.6551500447131652e-05 0.0000000000000000e+00  1.0112441519234997e-05 -2.4418644693234787e-05 0.0000000000000000e+00  9.9542780582420468e-06 -2.2325589593511211e-05 0.0000000000000000e+00  9.7449629355446106e-06 -2.0270649910695177e-05 0.0000000000000000e+00  9.5071290653719752e-06 -1.8289247850257533e-05 0.0000000000000000e+00  9.2279795872432714e-06 -1.6337730303979017e-05 0.0000000000000000e+00  8.9197199951896965e-06 -1.4470818700838086e-05 0.0000000000000000e+00  8.5706501755681839e-06 -1.2640137147912594e-05 0.0000000000000000e+00  8.1960850254759372e-06 -1.0903997559316776e-05 0.0000000000000000e+00  7.7813235806735529e-06 -9.2196004913444010e-06 0.0000000000000000e+00  7.3274393026124751e-06 -7.6321003782282826e-06 0.0000000000000000e+00  6.8706309076924269e-06 -6.1118972181631586e-06 0.0000000000000000e+00  6.3621300634965586e-06 -4.6823822325160203e-06 0.0000000000000000e+00  5.8304435924148402e-06 -3.3657875385037330e-06 0.0000000000000000e+00  5.2580164727366806e-06 -2.1276856388205125e-06 0.0000000000000000e+00  4.6704713022879021e-06 -1.0193391972885616e-06 0.0000000000000000e+00  4.0376640215450794e-06 -5.2906899981159597e-10 0.0000000000000000e+00  3.3701859473491274e-06 8.7990774328300023e-07 0.0000000000000000e+00  2.7150510594730400e-06 1.6560400075096045e-06 0.0000000000000000e+00  2.0082363728725929e-06 2.3225206799710178e-06 0.0000000000000000e+00  1.3464918175695263e-06 2.8414567110113104e-06 0.0000000000000000e+00  7.2827217306408846e-07 3.1223922173060885e-06 0.0000000000000000e+00  3.0370237477648318e-07 3.0705163032753709e-06 0.0000000000000000e+00  2.0492260467121038e-07 -1.6236862383666577e-07 0.0000000000000000e+00  6.5348391305892791e-06 -8.2416746018939337e-05 0.0000000000000000e+00  8.0046828644371015e-06 -7.7691194744184061e-05 0.0000000000000000e+00  9.8883971777873132e-06 -6.9981311777098787e-05 0.0000000000000000e+00  2.2647556149583827e-06 -8.1571045517346229e-07 0.0000000000000000e+00  1.0833874616512629e-05 -6.5146310489827428e-05 0.0000000000000000e+00  3.9177696433940076e-06 -1.9318919049910437e-06 0.0000000000000000e+00  1.1672414673315030e-05 -6.0275306136845720e-05 0.0000000000000000e+00  6.3719960305870730e-06 -4.7834804992159677e-06 0.0000000000000000e+00  7.7609671859629924e-06 -7.1579651648347977e-06 0.0000000000000000e+00  1.2344047764406348e-05 -5.5445908652486636e-05 0.0000000000000000e+00  1.0602963893336593e-05 -1.4734738503041924e-05 0.0000000000000000e+00  1.3192865152561733e-05 -4.5956546181964163e-05 0.0000000000000000e+00  8.9487955132299795e-06 -9.7602697280906942e-06 0.0000000000000000e+00  1.1474008639936542e-05 -1.8250230125992958e-05 0.0000000000000000e+00  1.3372621473154705e-05 -4.1324624199536676e-05 0.0000000000000000e+00  1.2850489012912853e-05 -5.0668551241404665e-05 0.0000000000000000e+00  1.2181768645393278e-05 -2.2040701970874331e-05 0.0000000000000000e+00  1.3390039325460991e-05 -3.6793030903802397e-05 0.0000000000000000e+00  1.2678904780205025e-05 -2.5841718844990127e-05 0.0000000000000000e+00  1.3292523986168297e-05 -3.2504593787632276e-05 0.0000000000000000e+00  1.3005677345482320e-05 -2.9000270591037993e-05 0.0000000000000000e+00  9.8030396115526964e-06 -1.2102359516502782e-05 0.0000000000000000e+00  8.8854556715396893e-06 -7.3953871740366445e-05 0.0000000000000000e+00  5.1359762406550019e-06 -3.2219370430549701e-06 0.0000000000000000e+00  6.1403968129314393e-06 -7.9485098285774514e-05 0.0000000000000000e+00  1.1313522337903528e-06 8.9502439126840068e-07 0.0000000000000000e+00  1.0327699704795475e-05 -6.2137096599843621e-05 0.0000000000000000e+00  9.3994144556156699e-06 -6.7052173186338325e-05 0.0000000000000000e+00  3.4170202909594865e-06 -2.5904082410987250e-06 0.0000000000000000e+00  7.5363240945850386e-06 -6.8727788022943766e-06 0.0000000000000000e+00  1.2127407813762228e-05 -4.7652392373556196e-05 0.0000000000000000e+00  1.1090881063039533e-05 -5.7257949644584897e-05 0.0000000000000000e+00  1.1748808253165875e-05 -1.7303590004621890e-05 0.0000000000000000e+00  1.2404650207882029e-05 -4.2951142169335802e-05 0.0000000000000000e+00  8.9399029135994956e-06 -9.4233527753058269e-06 0.0000000000000000e+00  1.2580564348958329e-05 -2.0951552753225715e-05 0.0000000000000000e+00  1.2522646145276684e-05 -3.8340063446829471e-05 0.0000000000000000e+00  1.1689925639859022e-05 -5.2425562368152839e-05 0.0000000000000000e+00  1.3419417692915930e-05 -2.4980909756688743e-05 0.0000000000000000e+00  1.2483560925841237e-05 -3.3840600702527306e-05 0.0000000000000000e+00  -2.5395813920018650e-07 -8.1082355570008484e-07 0.0000000000000000e+00  -3.1285991428634189e-07 6.7989457500955311e-07 0.0000000000000000e+00  6.6594621384991116e-06 -8.4731226290571783e-05 0.0000000000000000e+00  1.4865195808819800e-06 -1.8820093192384277e-06 0.0000000000000000e+00  1.21255