<?xml version="1.0"?>
<VTKFile type="UnstructuredGrid"  version="0.1"  >
<UnstructuredGrid>
<Piece  NumberOfPoints="1419" NumberOfCells="2698">
<Points>
<DataArray  type="Float64"  NumberOfComponents="3"  format="ascii">0 0 0  0 0.41 0  2.5 0 0  2.5 0.41 0  0.6 0.19 0  0.6 0.21 0  0.25 0.2 0  0.15 0.2 0  0.2489897948556636 0.21 0  0.2489897948556636 0.19 0  0.6 0.2 0  0 0.3807142857143437 0  0 0.3514285714286952 0  0 0.3221428571430699 0  0 0.29285714285744 0  0 0.2635714285718054 0  0 0.2342857142861561 0  0 0.2050000000005308 0  0 0.175714285714732 0  0 0.1464285714289574 0  0 0.1171428571431897 0  0 0.08785714285737878 0  0 0.05857142857161107 0  0 0.02928571428580012 0  0.03015443760436003 0 0  0.06140001986583606 0 0  0.09377624077125973 0 0  0.1273239957535082 0 0  0.1620856860351972 0 0  0.1981052433264291 0 0  0.235428184091502 0 0  0.2741016576309132 0 0  0.3141745521465447 0 0  0.3556974926295285 0 0  0.3987229542472677 0 0  0.4433053055141081 0 0  0.4895008759286886 0 0  0.5373680609405097 0 0  0.5869673343216626 0 0  0.6383613676634521 0 0  0.6916151138468254 0 0  0.7467958595648856 0 0  0.8039733463919316 0 0  0.8632198139502143 0 0  0.9246101326867038 0 0  0.9882218810934433 0 0  1.054135445558498 0 0  1.122434100542598 0 0  1.193204177141305 0 0  1.266535089879536 0 0  1.342519516046404 0 0  1.421253448503939 0 0  1.502836389106271 0 0  1.587371439758838 0 0  1.674965418777374 0 0  1.765729001825544 0 0  1.859776908880082 0 0  1.957227977487062 0 0  2.058205329869943 0 0  2.162836591189951 0 0  2.271253957290865 0 0  2.383594446803425 0 0  2.5 0.1024999999997612 0  2.5 0.2049999999994743 0  2.5 0.3074999999997183 0  2.383594446803656 0.41 0  2.271253957291315 0.41 0  2.162836591190598 0.41 0  2.058205329870775 0.41 0  1.957227977488067 0.41 0  1.859776908881246 0.41 0  1.765729001826854 0.41 0  1.674965418778818 0.41 0  1.58737143976041 0.41 0  1.502836389107956 0.41 0  1.421253448505726 0.41 0  1.342519516048286 0.41 0  1.266535089881505 0.41 0  1.193204177143353 0.41 0  1.122434100544716 0.41 0  1.05413544556068 0.41 0  0.9882218810956305 0.41 0  0.9246101326886647 0.41 0  0.8632198139519631 0.41 0  0.8039733463934788 0.41 0  0.7467958595662458 0.41 0  0.6916151138480078 0.41 0  0.6383613676644679 0.41 0  0.5869673343225223 0.41 0  0.5373680609412221 0.41 0  0.4895008759292634 0.41 0  0.4433053055145528 0.41 0  0.3987229542475914 0.41 0  0.3556974926297398 0.41 0  0.3141745521466497 0.41 0  0.2741016576310038 0.41 0  0.2354281840915826 0.41 0  0.1981052433265003 0.41 0  0.1620856860352591 0.41 0  0.1273239957535623 0.41 0  0.09377624077128965 0.41 0  0.06140001986584975 0.41 0  0.03015443760436654 0.41 0  0.2497468076502589 0.2050254481002335 0  0.2497468076502614 0.1949745518997913 0  0.2469965252529372 0.1829317073451959 0  0.2439893735792749 0.1762316384219906 0  0.2400332147834255 0.1700443375285386 0  0.2352133972704371 0.1645032867342007 0  0.2296339016332438 0.1597280261969788 0  0.2234150974217223 0.1558215752574715 0  0.2166911463437691 0.1528682099456123 0  0.2096071079204251 0.1509316448471593 0  0.2023158100364996 0.1500536585536553 0  0.194974551899914 0.1502531923497262 0  0.1877417105387872 0.1515259415822739 0  0.1807733240461124 0.153844448527136 0  0.1742197252835808 0.15715869474974 0  0.1682222986673531 0.1613971801805478 0  0.162910430003803 0.1664684656256651 0  0.1583987151779087 0.1722631454351573 0  0.1547844879126891 0.178656207771761 0  0.1521457199348551 0.1855097315605723 0  0.1505393388476355 0.1926758619366523 0  0.1505393388476328 0.2073241380633295 0  0.1521457199348437 0.2144902684393899 0  0.1547844879126531 0.221343792228163 0  0.1583987151778488 0.2277368545647528 0  0.1629104300036858 0.2335315343742052 0  0.1682222986671726 0.2386028198193036 0  0.1742197252833576 0.2428413052501257 0  0.1807733240458683 0.2461555514727623 0  0.1877417105384929 0.2484740584176516 0  0.1949745518995776 0.2497468076502398 0  0.202315810036185 0.2499463414463592 0  0.2096071079201568 0.2490683551528932 0  0.2166911463435495 0.2471317900544655 0  0.2234150974215506 0.2441784247426195 0  0.2296339016331197 0.2402719738031125 0  0.2352133972703547 0.2354967132658811 0  0.2400332147833751 0.2299556624715287 0  0.2439893735792577 0.2237683615780412 0  0.246996525252926 0.2170682926548348 0  0.25645809709277 0.21 0  0.2639263993298655 0.21 0  0.271394701566961 0.21 0  0.2788630038040554 0.21 0  0.2863313060411479 0.21 0  0.2937996082782405 0.21 0  0.301267910515333 0.21 0  0.3087362127524279 0.21 0  0.3162045149895234 0.21 0  0.3236728172265972 0.21 0  0.3311411194636928 0.21 0  0.3386094217007701 0.21 0  0.3460777239378666 0.21 0  0.3535460261749672 0.21 0  0.3610143284120516 0.21 0  0.3684826306491596 0.21 0  0.3759509328862226 0.21 0  0.383419235123329 0.21 0  0.3908875373604028 0.21 0  0.3983558395975142 0.21 0  0.4058241418345938 0.21 0  0.4132924440716992 0.21 0  0.4207607463087888 0.21 0  0.4282290485459029 0.21 0  0.4356973507830418 0.21 0  0.4431656530201649 0.21 0  0.4506339552573136 0.21 0  0.4581022574944306 0.21 0  0.4655705597315852 0.21 0  0.4730388619686996 0.21 0  0.480507164205851 0.21 0  0.4879754664429498 0.21 0  0.4954437686800938 0.21 0  0.502912070917267 0.21 0  0.5103803731544119 0.21 0  0.5178486753915261 0.21 0  0.5253169776286404 0.21 0  0.5327852798657868 0.21 0  0.5402535821029386 0.21 0  0.54772188434007 0.21 0  0.5551901865771842 0.21 0  0.5626584888143201 0.21 0  0.5701267910514778 0.21 0  0.5775950932886138 0.21 0  0.5850633955257281 0.21 0  0.5925316977628483 0.21 0  0.6 0.2050000000000054 0  0.6 0.1950000000000217 0  0.5925316977628897 0.19 0  0.5850633955257988 0.19 0  0.5775950932887378 0.19 0  0.5701267910515998 0.19 0  0.5626584888145268 0.19 0  0.5551901865773963 0.19 0  0.547721884340339 0.19 0  0.5402535821032429 0.19 0  0.5327852798661811 0.19 0  0.5253169776290537 0.19 0  0.5178486753919799 0.19 0  0.5103803731549078 0.19 0  0.502912070917822 0.19 0  0.4954437686807294 0.19 0  0.4879754664436223 0.19 0  0.4805071642065402 0.19 0  0.4730388619694271 0.19 0  0.4655705597323621 0.19 0  0.4581022574952563 0.19 0  0.4506339552581777 0.19 0  0.4431656530210671 0.19 0  0.4356973507839815 0.19 0  0.4282290485468779 0.19 0  0.4207607463097617 0.19 0  0.4132924440726327 0.19 0  0.4058241418354857 0.19 0  0.3983558395983636 0.19 0  0.3908875373612097 0.19 0  0.3834192351240934 0.19 0  0.3759509328869369 0.19 0  0.3684826306498175 0.19 0  0.361014328412667 0.19 0  0.3535460261755617 0.19 0  0.3460777239384295 0.19 0  0.3386094217012945 0.19 0  0.3311411194641595 0.19 0  0.3236728172270245 0.19 0  0.3162045149898895 0.19 0  0.3087362127527544 0.19 0  0.3012679105156187 0.19 0  0.2937996082784807 0.19 0  0.2863313060413428 0.19 0  0.2788630038042048 0.19 0  0.2713947015670686 0.19 0  0.2639263993299336 0.19 0  0.2564580970927985 0.19 0  0.2607803159922026 0.2000727136295815 0  0.5887803774232762 0.2001272386983733 0  0.5745072403740523 0.2002044435018727 0  0.5511891430099709 0.2001122610077113 0  0.2751288526855082 0.20000000000002 0  0.5365194309847112 0.1999999999999436 0  0.2894621222999649 0.1998691686390484 0  0.5215828265105155 0.1999999999999228 0  0.3127789816668748 0.1998657885438805 0  0.3274069683451451 0.2000000000000796 0  0.5066462220363641 0.199999999999908 0  0.3650630746574081 0.199866017807523 0  0.476773013087985 0.1999999999998713 0  0.3417402379596385 0.1998691686391011 0  0.3796850840047755 0.200000000000134 0  0.4618364086138087 0.1999999999998546 0  0.4917096175621762 0.1999999999998808 0  0.3946216884789568 0.2000000000001512 0  0.446899804139621 0.1999999999998389 0  0.4089549580935208 0.1998691686391595 0  0.4322718174608562 0.200127451265745 0  0.4201487168029707 0.1999966199048527 0  0.3528922713220932 0.2000185703532356 0  0.5633122436674589 0.1999814296467508 0  0.3006558810093873 0.1999966199048318 0  0.5815926498168407 0.1966545283159175 0  0.2677053789419034 0.1964246479135325 0  0.5290511287476175 0.1970915826863981 0  0.5439877332217911 0.197091582686394 0  0.2825131256993216 0.2035478995978015 0  0.3199386661080599 0.202908417313604 0  0.4842413153250809 0.1970915826863873 0  0.5141145242734466 0.1970915826863843 0  0.3722167817676917 0.2029084173136195 0  0.4693047108508938 0.1970915826863783 0  0.3348752705822316 0.202908417313609 0  0.3871533862418661 0.2029084173136212 0  0.4543681063767183 0.1970915826863795 0  0.4991779197992749 0.1970915826863902 0  0.4020059614928624 0.203547899597858 0  0.4394315019025246 0.1970915826863714 0  0.2550657455369551 0.2034088125358657 0  0.2548908499171161 0.1966940311614271 0  0.5946539510196798 0.2024302972968126 0  0.267698176732111 0.2039977513680092 0  0.4261685417851465 0.196409292431739 0  0.3590076176283495 0.196411355804271 0  0.5571672426447437 0.2036011176410121 0  0.3066757059912147 0.1964092924317024 0  0.594380730180568 0.1966558399668133 0  0.4842413153245942 0.2040749161535287 0  0.4693047108503577 0.2040749161535231 0  0.3871533862424271 0.1959250838464788 0  0.372246743208829 0.1959123236376545 0  0.5141145242731028 0.2040749161535395 0  0.4543681063761134 0.2040749161535186 0  0.4019979587101454 0.1959834479682427 0  0.4394608940728603 0.2040870543693135 0  0.5439623148931173 0.2040856076781014 0  0.5290511287473298 0.2040749161535501 0  0.4991779197988497 0.2040749161535382 0  0.3347912413592433 0.1959225448935183 0  0.3199680582793816 0.1959123018030061 0  0.2825051229162361 0.1959834479681729 0  0.3590471196690275 0.2036304442587945 0  0.5571594006495384 0.1963685282145804 0  0.3067669986803285 0.203627750582736 0  0.4262598344738712 0.2036568242185335 0  0.5814408164431408 0.2041285596160068 0  0.5688286748170428 0.1961819304477386 0  0.4145905603063645 0.2038180695522843 0  0.3473758401724931 0.2038180695522752 0  0.2950977245128307 0.2038180695522663 0  0.5688286748170693 0.203818069552238 0  0.2950977245127906 0.1961819304477774 0  0.3473758401723931 0.1961819304478349 0  0.4145905603061963 0.1961819304479011 0  0.2601812407614425 0.2056861609747042
[...]
<PointData  Vectors="f_46-2"> 
<DataArray  type="Float64"  Name="f_46-2"  NumberOfComponents="3" format="ascii">0.0000000000000000e+00 0.0000000000000000e+00 0.0000000000000000e+00  0.0000000000000000e+00 0.0000000000000000e+00 0.0000000000000000e+00  0.0000000000000000e+00 0.0000000000000000e+00 0.0000000000000000e+00  0.0000000000000000e+00 0.0000000000000000e+00 0.0000000000000000e+00  -8.0861796231444937e-06 -3.2541297825613027e-05 0.0000000000000000e+00  -5.3080183636373733e-06 -3.5783808736156798e-05 0.0000000000000000e+00  0.0000000000000000e+00 1.2368981085683124e-25 0.0000000000000000e+00  0.0000000000000000e+00 0.0000000000000000e+00 0.0000000000000000e+00  0.0000000000000000e+00 0.0000000000000000e+00 0.0000000000000000e+00  0.0000000000000000e+00 0.0000000000000000e+00 0.0000000000000000e+00  -6.9532147886841024e-06 -3.4164469066698596e-05 0.0000000000000000e+00  0.0000000000000000e+00 0.0000000000000000e+00 0.0000000000000000e+00  0.0000000000000000e+00 0.0000000000000000e+00 0.0000000000000000e+00  0.0000000000000000e+00 0.0000000000000000e+00 0.0000000000000000e+00  0.0000000000000000e+00 0.0000000000000000e+00 0.0000000000000000e+00  0.0000000000000000e+00 0.0000000000000000e+00 0.0000000000000000e+00  0.0000000000000000e+00 0.0000000000000000e+00 0.0000000000000000e+00  0.0000000000000000e+00 0.0000000000000000e+00 0.0000000000000000e+00  0.0000000000000000e+00 0.0000000000000000e+00 0.0000000000000000e+00  0.0000000000000000e+00 0.0000000000000000e+00 0.0000000000000000e+00  0.0000000000000000e+00 0.0000000000000000e+00 0.0000000000000000e+00  0.0000000000000000e+00 0.0000000000000000e+00 0.0000000000000000e+00  0.0000000000000000e+00 0.0000000000000000e+00 0.0000000000000000e+00  0.0000000000000000e+00 0.0000000000000000e+00 0.0000000000000000e+00  0.0000000000000000e+00 0.0000000000000000e+00 0.0000000000000000e+00  0.0000000000000000e+00 0.0000000000000000e+00 0.0000000000000000e+00  0.0000000000000000e+00 0.0000000000000000e+00 0.0000000000000000e+00  0.0000000000000000e+00 0.0000000000000000e+00 0.0000000000000000e+00  0.0000000000000000e+00 0.0000000000000000e+00 0.0000000000000000e+00  0.0000000000000000e+00 0.0000000000000000e+00 0.0000000000000000e+00  0.0000000000000000e+00 0.0000000000000000e+00 0.0000000000000000e+00  0.0000000000000000e+00 0.0000000000000000e+00 0.0000000000000000e+00  0.0000000000000000e+00 0.0000000000000000e+00 0.0000000000000000e+00  0.0000000000000000e+00 0.0000000000000000e+00 0.0000000000000000e+00  0.0000000000000000e+00 0.0000000000000000e+00 0.0000000000000000e+00  5.5470809433717589e-14 -3.0613668504091956e-18 0.0000000000000000e+00  0.0000000000000000e+00 0.0000000000000000e+00 0.0000000000000000e+00  0.0000000000000000e+00 0.0000000000000000e+00 0.0000000000000000e+00  0.0000000000000000e+00 0.0000000000000000e+00 0.0000000000000000e+00  0.0000000000000000e+00 0.0000000000000000e+00 0.0000000000000000e+00  0.0000000000000000e+00 0.0000000000000000e+00 0.0000000000000000e+00  0.0000000000000000e+00 0.0000000000000000e+00 0.0000000000000000e+00  0.0000000000000000e+00 0.0000000000000000e+00 0.0000000000000000e+00  0.0000000000000000e+00 0.0000000000000000e+00 0.0000000000000000e+00  0.0000000000000000e+00 0.0000000000000000e+00 0.0000000000000000e+00  0.0000000000000000e+00 0.0000000000000000e+00 0.0000000000000000e+00  0.0000000000000000e+00 0.0000000000000000e+00 0.0000000000000000e+00  0.0000000000000000e+00 0.0000000000000000e+00 0.0000000000000000e+00  0.0000000000000000e+00 0.0000000000000000e+00 0.0000000000000000e+00  0.0000000000000000e+00 0.0000000000000000e+00 0.0000000000000000e+00  0.0000000000000000e+00 0.0000000000000000e+00 0.0000000000000000e+00  0.0000000000000000e+00 0.0000000000000000e+00 0.0000000000000000e+00  0.0000000000000000e+00 0.0000000000000000e+00 0.0000000000000000e+00  0.0000000000000000e+00 0.0000000000000000e+00 0.0000000000000000e+00  0.0000000000000000e+00 0.0000000000000000e+00 0.0000000000000000e+00  0.0000000000000000e+00 0.0000000000000000e+00 0.0000000000000000e+00  0.0000000000000000e+00 0.0000000000000000e+00 0.0000000000000000e+00  0.0000000000000000e+00 0.0000000000000000e+00 0.0000000000000000e+00  0.0000000000000000e+00 0.0000000000000000e+00 0.0000000000000000e+00  0.0000000000000000e+00 0.0000000000000000e+00 0.0000000000000000e+00  0.0000000000000000e+00 0.0000000000000000e+00 0.0000000000000000e+00  0.0000000000000000e+00 0.0000000000000000e+00 0.0000000000000000e+00  0.0000000000000000e+00 0.0000000000000000e+00 0.0000000000000000e+00  0.0000000000000000e+00 0.0000000000000000e+00 0.0000000000000000e+00  0.0000000000000000e+00 0.0000000000000000e+00 0.0000000000000000e+00  0.0000000000000000e+00 0.0000000000000000e+00 0.0000000000000000e+00  0.0000000000000000e+00 0.0000000000000000e+00 0.0000000000000000e+00  0.0000000000000000e+00 0.0000000000000000e+00 0.0000000000000000e+00  0.0000000000000000e+00 0.0000000000000000e+00 0.0000000000000000e+00  0.0000000000000000e+00 0.0000000000000000e+00 0.0000000000000000e+00  0.0000000000000000e+00 0.0000000000000000e+00 0.0000000000000000e+00  0.0000000000000000e+00 0.0000000000000000e+00 0.0000000000000000e+00  0.0000000000000000e+00 0.0000000000000000e+00 0.0000000000000000e+00  0.0000000000000000e+00 0.0000000000000000e+00 0.0000000000000000e+00  0.0000000000000000e+00 0.0000000000000000e+00 0.0000000000000000e+00  0.0000000000000000e+00 0.0000000000000000e+00 0.0000000000000000e+00  0.0000000000000000e+00 0.0000000000000000e+00 0.0000000000000000e+00  0.0000000000000000e+00 0.0000000000000000e+00 0.0000000000000000e+00  0.0000000000000000e+00 0.0000000000000000e+00 0.0000000000000000e+00  0.0000000000000000e+00 0.0000000000000000e+00 0.0000000000000000e+00  0.0000000000000000e+00 0.0000000000000000e+00 0.0000000000000000e+00  0.0000000000000000e+00 0.0000000000000000e+00 0.0000000000000000e+00  0.0000000000000000e+00 0.0000000000000000e+00 0.0000000000000000e+00  0.0000000000000000e+00 0.0000000000000000e+00 0.0000000000000000e+00  0.0000000000000000e+00 0.0000000000000000e+00 0.0000000000000000e+00  0.0000000000000000e+00 0.0000000000000000e+00 0.0000000000000000e+00  0.0000000000000000e+00 0.0000000000000000e+00 0.0000000000000000e+00  0.0000000000000000e+00 0.0000000000000000e+00 0.0000000000000000e+00  1.0992606499487935e-13 0.0000000000000000e+00 0.0000000000000000e+00  0.0000000000000000e+00 0.0000000000000000e+00 0.0000000000000000e+00  0.0000000000000000e+00 0.0000000000000000e+00 0.0000000000000000e+00  0.0000000000000000e+00 0.0000000000000000e+00 0.0000000000000000e+00  0.0000000000000000e+00 0.0000000000000000e+00 0.0000000000000000e+00  0.0000000000000000e+00 0.0000000000000000e+00 0.0000000000000000e+00  -6.1756914094436010e-14 -8.8315734205909994e-18 0.0000000000000000e+00  0.0000000000000000e+00 0.0000000000000000e+00 0.0000000000000000e+00  0.0000000000000000e+00 0.0000000000000000e+00 0.0000000000000000e+00  0.0000000000000000e+00 0.0000000000000000e+00 0.0000000000000000e+00  0.0000000000000000e+00 0.0000000000000000e+00 0.0000000000000000e+00  0.0000000000000000e+00 0.0000000000000000e+00 0.0000000000000000e+00  0.0000000000000000e+00 0.0000000000000000e+00 0.0000000000000000e+00  0.0000000000000000e+00 0.0000000000000000e+00 0.0000000000000000e+00  0.0000000000000000e+00 0.0000000000000000e+00 0.0000000000000000e+00  0.0000000000000000e+00 0.0000000000000000e+00 0.0000000000000000e+00  0.0000000000000000e+00 0.0000000000000000e+00 0.0000000000000000e+00  -8.9367434967059254e-15 8.7474523682294557e-16 0.0000000000000000e+00  0.0000000000000000e+00 0.0000000000000000e+00 0.0000000000000000e+00  0.0000000000000000e+00 0.0000000000000000e+00 0.0000000000000000e+00  0.0000000000000000e+00 0.0000000000000000e+00 0.0000000000000000e+00  0.0000000000000000e+00 0.0000000000000000e+00 0.0000000000000000e+00  -2.1734087615586328e-14 -4.2473221672191572e-14 0.0000000000000000e+00  0.0000000000000000e+00 0.0000000000000000e+00 0.0000000000000000e+00  0.0000000000000000e+00 0.0000000000000000e+00 0.0000000000000000e+00  0.0000000000000000e+00 0.0000000000000000e+00 0.0000000000000000e+00  0.0000000000000000e+00 0.0000000000000000e+00 0.0000000000000000e+00  0.0000000000000000e+00 0.0000000000000000e+00 0.0000000000000000e+00  0.0000000000000000e+00 0.0000000000000000e+00 0.0000000000000000e+00  0.0000000000000000e+00 0.0000000000000000e+00 0.0000000000000000e+00  0.0000000000000000e+00 0.0000000000000000e+00 0.0000000000000000e+00  0.0000000000000000e+00 0.0000000000000000e+00 0.0000000000000000e+00  0.0000000000000000e+00 0.0000000000000000e+00 0.0000000000000000e+00  0.0000000000000000e+00 0.0000000000000000e+00 0.0000000000000000e+00  0.0000000000000000e+00 0.0000000000000000e+00 0.0000000000000000e+00  0.0000000000000000e+00 0.0000000000000000e+00 0.0000000000000000e+00  0.0000000000000000e+00 0.0000000000000000e+00 0.0000000000000000e+00  0.0000000000000000e+00 0.0000000000000000e+00 0.0000000000000000e+00  0.0000000000000000e+00 0.0000000000000000e+00 0.0000000000000000e+00  0.0000000000000000e+00 0.0000000000000000e+00 0.0000000000000000e+00  0.0000000000000000e+00 0.0000000000000000e+00 0.0000000000000000e+00  0.0000000000000000e+00 0.0000000000000000e+00 0.0000000000000000e+00  0.0000000000000000e+00 0.0000000000000000e+00 0.0000000000000000e+00  0.0000000000000000e+00 0.0000000000000000e+00 0.0000000000000000e+00  0.0000000000000000e+00 0.0000000000000000e+00 0.0000000000000000e+00  0.0000000000000000e+00 0.0000000000000000e+00 0.0000000000000000e+00  0.0000000000000000e+00 0.0000000000000000e+00 0.0000000000000000e+00  0.0000000000000000e+00 0.0000000000000000e+00 0.0000000000000000e+00  0.0000000000000000e+00 0.0000000000000000e+00 0.0000000000000000e+00  0.0000000000000000e+00 0.0000000000000000e+00 0.0000000000000000e+00  0.0000000000000000e+00 0.0000000000000000e+00 0.0000000000000000e+00  0.0000000000000000e+00 0.0000000000000000e+00 0.0000000000000000e+00  0.0000000000000000e+00 0.0000000000000000e+00 0.0000000000000000e+00  0.0000000000000000e+00 0.0000000000000000e+00 0.0000000000000000e+00  -2.5454806135476238e-15 -1.3490879701439198e-12 0.0000000000000000e+00  1.8747556760697708e-07 -2.9018097139251771e-06 0.0000000000000000e+00  4.7755465278276668e-07 -3.1896147673233241e-06 0.0000000000000000e+00  9.0787245201855006e-07 -3.3609004008319876e-06 0.0000000000000000e+00  1.4079030132723557e-06 -3.4938451676309484e-06 0.0000000000000000e+00  1.9089408185916899e-06 -3.6678009174170266e-06 0.0000000000000000e+00  2.3893838009827031e-06 -3.9184010217111763e-06 0.0000000000000000e+00  2.8367339928098837e-06 -4.2033221098753921e-06 0.0000000000000000e+00  3.2502352833096956e-06 -4.5378869544080675e-06 0.0000000000000000e+00  3.6515104040241355e-06 -4.9143610945865809e-06 0.0000000000000000e+00  4.0045407373924137e-06 -5.3210391039814414e-06 0.0000000000000000e+00  4.3409936172461830e-06 -5.7835003301394935e-06 0.0000000000000000e+00  4.6319874460505326e-06 -6.2657471808411423e-06 0.0000000000000000e+00  4.8980397296267527e-06 -6.7929165359118853e-06 0.0000000000000000e+00  5.1291744378099688e-06 -7.3493975061983204e-06 0.0000000000000000e+00  5.3230594758110734e-06 -7.9373459425500821e-06 0.0000000000000000e+00  5.4995647707304335e-06 -8.5598804185759603e-06 0.0000000000000000e+00  5.6298901095512377e-06 -9.1944968012632277e-06 0.0000000000000000e+00  5.7362521381256813e-06 -9.8762019365446123e-06 0.0000000000000000e+00  5.8012449429550502e-06 -1.0560201982455220e-05 0.0000000000000000e+00  5.8422886300855338e-06 -1.1288027926625035e-05 0.0000000000000000e+00  5.8441076859138472e-06 -1.2016976484263667e-05 0.0000000000000000e+00  5.8128524409340301e-06 -1.2778713957357185e-05 0.0000000000000000e+00  5.7531524349859864e-06 -1.3556326428728200e-05 0.0000000000000000e+00  5.6565581537436749e-06 -1.4349516569008163e-05 0.0000000000000000e+00  5.5393371187875854e-06 -1.5166119858709317e-05 0.0000000000000000e+00  5.3811176983989818e-06 -1.5983489895935507e-05 0.0000000000000000e+00  5.1904382956931160e-06 -1.6838082391685238e-05 0.0000000000000000e+00  4.9671068425956669e-06 -1.7684002197412366e-05 0.0000000000000000e+00  4.7114339653544424e-06 -1.8563237625324763e-05 0.0000000000000000e+00  4.4234346786859761e-06 -1.9435488834990921e-05 0.0000000000000000e+00  4.1040611222187653e-06 -2.0337596041975438e-05 0.0000000000000000e+00  3.7508114667494874e-06 -2.1230746637371892e-05 0.0000000000000000e+00  3.3679414411059103e-06 -2.2153674267954489e-05 0.0000000000000000e+00  2.9502468956193858e-06 -2.3063189657337533e-05 0.0000000000000000e+00  2.4993032983318936e-06 -2.4004009878926510e-05 0.0000000000000000e+00  2.0164717802944251e-06 -2.4931817444595038e-05 0.0000000000000000e+00  1.5022182329991199e-06 -2.5887026002874622e-05 0.0000000000000000e+00  9.5509758063739471e-07 -2.6829096511721985e-05 0.0000000000000000e+00  3.7476929872992213e-07 -2.7796992533863985e-05 0.0000000000000000e+00  -2.4050305006240316e-07 -2.8751185344830002e-05 0.0000000000000000e+00  -8.9269214601806979e-07 -2.9722703707058416e-05 0.0000000000000000e+00  -1.5718712925602911e-06 -3.0690750105583400e-05 0.0000000000000000e+00  -2.2904532258178348e-06 -3.1666365904692164e-05 0.0000000000000000e+00  -3.0282674953936651e-06 -3.2643051145167934e-05 0.0000000000000000e+00  -3.8045364188834879e-06 -3.3612054791403683e-05 0.0000000000000000e+00  -4.5814644215280358e-06 -3.4617715719394677e-05 0.0000000000000000e+00  -6.2200064197746559e-06 -3.4971149552931773e-05 0.0000000000000000e+00  -7.5976492804347244e-06 -3.3360119503881718e-05 0.0000000000000000e+00  -7.3477709213411731e-06 -3.1646040950010759e-05 0.0000000000000000e+00  -6.5541861445653720e-06 -3.0584552082458658e-05 0.0000000000000000e+00  -5.7664637780437504e-06 -2.9506025551695693e-05 0.0000000000000000e+00  -5.0146606785158493e-06 -2.8443838259348899e-05 0.0000000000000000e+00  -4.2841175211775437e-06 -2.7385593784937031e-05 0.0000000000000000e+00  -3.5940123819440311e-06 -2.6332644259251519e-05 0.0000000000000000e+00  -2.9282424633612970e-06 -2.5289093410291436e-05 0.0000000000000000e+00  -2.3005990915351595e-06 -2.4239797856776970e-05 0.0000000000000000e+00  -1.7023984385462539e-06 -2.3214135777031811e-05 0.0000000000000000e+00  -1.1380426939762880e-06 -2.2174892781777832e-05 0.0000000000000000e+00  -6.0273013892970540e-07 -2.1162305935582889e-05 0.0000000000000000e+00  -1.0136986097220275e-07 -2.0137663096897917e-05 0.0000000000000000e+00  3.7146587283942965e-07 -1.9140799077300768e-05 0.0000000000000000e+00  8.1101839792413611e-07 -1.8133527041680759e-05 0.0000000000000000e+00  1.2233761738397191e-06 -1.7154703480535643e-05 0.0000000000000000e+00  1.6015940397951692e-06 -1.6166301756173011e-05 0.0000000000000000e+00  1.9528673713528255e-06 -1.5207412200813220e-05 0.0000000000000000e+00  2.2697409217816536e-06 -1.4240411851833561e-05 0.0000000000000000e+00  2.5604939525395858e-06 -1.3305287233844669e-05 0.0000000000000000e+00  2.8172077660768148e-06 -1.2364513687446850e-05 0.0000000000000000e+00  3.0489517017287566e-06 -1.1456573744543318e-05 0.0000000000000000e+00  3.2457033771865450e-06 -1.0545421619656968e-05 0.0000000000000000e+00  3.4134640711467961e-06 -9.6620655001140538e-06 0.0000000000000000e+00  3.5538279070612476e-06 -8.7899575547971746e-06 0.0000000000000000e+00  3.6584302380795040e-06 -7.9394787583011509e-06 0.0000000000000000e+00  3.7479636883684419e-06 -7.1081591234237952e-06 0.0000000000000000e+00  3.7989152496426489e-06 -6.2879368884661048e-06 0.0000000000000000e+00  3.8238250718720193e-06 -5.5074660349008954e-06 0.0000000000000000e+00  3.8167745997802837e-06 -4.7293869236294523e-06 0.0000000000000000e+00  3.7828938083432980e-06 -3.9961550991117980e-06 0.0000000000000000e+00  3.7177123594967175e-06 -3.2679440142420213e-06 0.0000000000000000e+00  3.6254804683533484e-06 -2.5848557634696897e-06 0.0000000000000000e+00  3.5067322822748171e-06 -1.9188510940029813e-06 0.0000000000000000e+00  3.3549970801873938e-06 -1.2933771670022059e-06 0.0000000000000000e+00  3.1916861456512166e-06 -6.9482299778846029e-07 0.0000000000000000e+00  2.9907594381855856e-06 -1.2908065208379768e-07 0.0000000000000000e+00  2.7658418609191248e-06 3.8431488491852662e-07 0.0000000000000000e+00  2.5104973428849062e-06 8.7474044532041037e-07 0.0000000000000000e+00  2.2328418932595824e-06 1.3097951532432734e-06 0.0000000000000000e+00  1.9271860564250371e-06 1.7117126087681469e-06 0.0000000000000000e+00  1.5910842429066375e-06 2.0597118629748688e-06 0.0000000000000000e+00  1.2501091034200038e-06 2.3656537358751079e-06 0.0000000000000000e+00  8.7134195264162900e-07 2.6445046735113260e-06 0.0000000000000000e+00  5.1835273869995940e-07 2.8609053391698847e-06 0.0000000000000000e+00  2.1187076633468509e-07 2.9355271951499979e-06 0.0000000000000000e+00  5.3924744274128084e-08 2.7856680334397556e-06 0.0000000000000000e+00  -3.0185379918852072e-07 -7.1925669178122316e-08 0.0000000000000000e+00  -5.6470463739560366e-06 -3.2626473487303546e-05 0.0000000000000000e+00  -4.0855157273193137e-06 -3.0680667146714925e-05 0.0000000000000000e+00  -1.8978193256732163e-06 -2.7503224995502156e-05 0.0000000000000000e+00  8.9564842391545389e-07 -2.9954657473782501e-07 0.0000000000000000e+00  -6.9734187293334691e-07 -2.5515038136249488e-05 0.0000000000000000e+00  1.7350407149877281e-06 -6.8967039496120770e-07 0.0000000000000000e+00  4.1627375433687339e-07 -2.3533351386363196e-05 0.0000000000000000e+00  2.8982967039642516e-06 -1.7618610395098863e-06 0.0000000000000000e+00  3.4997678105064214e-06 -2.6829507537145599e-06 0.0000000000000000e+00  1.4017890331639191e-06 -2.1580447976234196e-05 0.0000000000000000e+00  4.5144453085545160e-06 -5.5569919188637136e-06 0.0000000000000000e+00  2.9925776742019403e-06 -1.7778100918677310e-05 0.0000000000000000e+00  3.9725142725706035e-06 -3.6517544217498233e-06 0.0000000000000000e+00  4.7142269980780045e-06 -6.9296714527366748e-06 0.0000000000000000e+00  3.5995076791820028e-06 -1.5938769944741016e-05 0.0000000000000000e+00  2.2603377828801111e-06 -1.9660318439274286e-05 0.0000000000000000e+00  4.7903015592252709e-06 -8.3930189578028051e-06 0.0000000000000000e+00  4.0814045790666321e-06 -1.4149802629193758e-05 0.0000000000000000e+00  4.7368035075878081e-06 -9.8481510852588561e-06 0.0000000000000000e+00  4.4507531642507909e-06 -1.2482492261111238e-05 0.0000000000000000e+00  4.6249843439206149e-06 -1.1096281144494460e-05 0.0000000000000000e+00  4.2687293066433271e-06 -4.5709390923272237e-06 0.0000000000000000e+00  -3.0317898355770094e-06 -2.9121769128807990e-05 0.0000000000000000e+00  2.3200455524195874e-06 -1.1956408550819849e-06 0.0000000000000000e+00  -5.3195450099119933e-06 -3.1111228727810042e-05 0.0000000000000000e+00  3.0067655982289338e-07 1.0079578486655429e-06 0.0000000000000000e+00  -5.0949152416677879e-07 -2.3988858916353075e-05 0.0000000000000000e+00  -1.6916486431208180e-06 -2.6004845652397158e-05 0.0000000000000000e+00  1.4461566776516295e-06 -1.5812034202661626e-06 0.0000000000000000e+00  3.3824824427318770e-06 -3.0522594471787713e-06 0.0000000000000000e+00  2.2765210709291665e-06 -1.8115574641956058e-05 0.0000000000000000e+00  5.4545848382374004e-07 -2.1998574260869660e-05 0.0000000000000000e+00  4.8956974093010412e-06 -6.9987380269944481e-06 0.0000000000000000e+00  2.9546784835375210e-06 -1.6231890689803404e-05 0.0000000000000000e+00  3.9653885959378090e-06 -4.0100603450887466e-06 0.0000000000000000e+00  5.0501344421595060e-06 -8.3939048112664850e-06 0.0000000000000000e+00  3.5086187612556489e-06 -1.4395042740487004e-05 0.0000000000000000e+00  1.4736032061938430e-06 -2.0039198748688052e-05 0.0000000000000000e+00  5.1501494531052292e-06 -1.0032329937676873e-05 0.0000000000000000e+00  3.9399804225433800e-06 -1.2612641028834666e-05 0.0000000000000000e+00  -4.7122504959129454e-07 -6.9949117020922093e-07 0.0000000000000000e+00  -4.8614959978723202e-07 6.1063574941601590e-07 0.0000000000000000e+00  -6.0031130432661709e-06 -3.3785202330576341e-05 0.0000000000000000e+00  4.3811242825896181e-07 -1.4467443189535830e-0