<?xml version="1.0"?>
<VTKFile type="UnstructuredGrid"  version="0.1"  >
<UnstructuredGrid>
<Piece  NumberOfPoints="1419" NumberOfCells="2698">
<Points>
<DataArray  type="Float64"  NumberOfComponents="3"  format="ascii">0 0 0  0 0.41 0  2.5 0 0  2.5 0.41 0  0.6 0.19 0  0.6 0.21 0  0.25 0.2 0  0.15 0.2 0  0.2489897948556636 0.21 0  0.2489897948556636 0.19 0  0.6 0.2 0  0 0.3807142857143437 0  0 0.3514285714286952 0  0 0.3221428571430699 0  0 0.29285714285744 0  0 0.2635714285718054 0  0 0.2342857142861561 0  0 0.2050000000005308 0  0 0.175714285714732 0  0 0.1464285714289574 0  0 0.1171428571431897 0  0 0.08785714285737878 0  0 0.05857142857161107 0  0 0.02928571428580012 0  0.03015443760436003 0 0  0.06140001986583606 0 0  0.09377624077125973 0 0  0.1273239957535082 0 0  0.1620856860351972 0 0  0.1981052433264291 0 0  0.235428184091502 0 0  0.2741016576309132 0 0  0.3141745521465447 0 0  0.3556974926295285 0 0  0.3987229542472677 0 0  0.4433053055141081 0 0  0.4895008759286886 0 0  0.5373680609405097 0 0  0.5869673343216626 0 0  0.6383613676634521 0 0  0.6916151138468254 0 0  0.7467958595648856 0 0  0.8039733463919316 0 0  0.8632198139502143 0 0  0.9246101326867038 0 0  0.9882218810934433 0 0  1.054135445558498 0 0  1.122434100542598 0 0  1.193204177141305 0 0  1.266535089879536 0 0  1.342519516046404 0 0  1.421253448503939 0 0  1.502836389106271 0 0  1.587371439758838 0 0  1.674965418777374 0 0  1.765729001825544 0 0  1.859776908880082 0 0  1.957227977487062 0 0  2.058205329869943 0 0  2.162836591189951 0 0  2.271253957290865 0 0  2.383594446803425 0 0  2.5 0.1024999999997612 0  2.5 0.2049999999994743 0  2.5 0.3074999999997183 0  2.383594446803656 0.41 0  2.271253957291315 0.41 0  2.162836591190598 0.41 0  2.058205329870775 0.41 0  1.957227977488067 0.41 0  1.859776908881246 0.41 0  1.765729001826854 0.41 0  1.674965418778818 0.41 0  1.58737143976041 0.41 0  1.502836389107956 0.41 0  1.421253448505726 0.41 0  1.342519516048286 0.41 0  1.266535089881505 0.41 0  1.193204177143353 0.41 0  1.122434100544716 0.41 0  1.05413544556068 0.41 0  0.9882218810956305 0.41 0  0.9246101326886647 0.41 0  0.8632198139519631 0.41 0  0.8039733463934788 0.41 0  0.7467958595662458 0.41 0  0.6916151138480078 0.41 0  0.6383613676644679 0.41 0  0.5869673343225223 0.41 0  0.5373680609412221 0.41 0  0.4895008759292634 0.41 0  0.4433053055145528 0.41 0  0.3987229542475914 0.41 0  0.3556974926297398 0.41 0  0.3141745521466497 0.41 0  0.2741016576310038 0.41 0  0.2354281840915826 0.41 0  0.1981052433265003 0.41 0  0.1620856860352591 0.41 0  0.1273239957535623 0.41 0  0.09377624077128965 0.41 0  0.06140001986584975 0.41 0  0.03015443760436654 0.41 0  0.2497468076502589 0.2050254481002335 0  0.2497468076502614 0.1949745518997913 0  0.2469965252529372 0.1829317073451959 0  0.2439893735792749 0.1762316384219906 0  0.2400332147834255 0.1700443375285386 0  0.2352133972704371 0.1645032867342007 0  0.2296339016332438 0.1597280261969788 0  0.2234150974217223 0.1558215752574715 0  0.2166911463437691 0.1528682099456123 0  0.2096071079204251 0.1509316448471593 0  0.2023158100364996 0.1500536585536553 0  0.194974551899914 0.1502531923497262 0  0.1877417105387872 0.1515259415822739 0  0.1807733240461124 0.153844448527136 0  0.1742197252835808 0.15715869474974 0  0.1682222986673531 0.1613971801805478 0  0.162910430003803 0.1664684656256651 0  0.1583987151779087 0.1722631454351573 0  0.1547844879126891 0.178656207771761 0  0.1521457199348551 0.1855097315605723 0  0.1505393388476355 0.1926758619366523 0  0.1505393388476328 0.2073241380633295 0  0.1521457199348437 0.2144902684393899 0  0.1547844879126531 0.221343792228163 0  0.1583987151778488 0.2277368545647528 0  0.1629104300036858 0.2335315343742052 0  0.1682222986671726 0.2386028198193036 0  0.1742197252833576 0.2428413052501257 0  0.1807733240458683 0.2461555514727623 0  0.1877417105384929 0.2484740584176516 0  0.1949745518995776 0.2497468076502398 0  0.202315810036185 0.2499463414463592 0  0.2096071079201568 0.2490683551528932 0  0.2166911463435495 0.2471317900544655 0  0.2234150974215506 0.2441784247426195 0  0.2296339016331197 0.2402719738031125 0  0.2352133972703547 0.2354967132658811 0  0.2400332147833751 0.2299556624715287 0  0.2439893735792577 0.2237683615780412 0  0.246996525252926 0.2170682926548348 0  0.25645809709277 0.21 0  0.2639263993298655 0.21 0  0.271394701566961 0.21 0  0.2788630038040554 0.21 0  0.2863313060411479 0.21 0  0.2937996082782405 0.21 0  0.301267910515333 0.21 0  0.3087362127524279 0.21 0  0.3162045149895234 0.21 0  0.3236728172265972 0.21 0  0.3311411194636928 0.21 0  0.3386094217007701 0.21 0  0.3460777239378666 0.21 0  0.3535460261749672 0.21 0  0.3610143284120516 0.21 0  0.3684826306491596 0.21 0  0.3759509328862226 0.21 0  0.383419235123329 0.21 0  0.3908875373604028 0.21 0  0.3983558395975142 0.21 0  0.4058241418345938 0.21 0  0.4132924440716992 0.21 0  0.4207607463087888 0.21 0  0.4282290485459029 0.21 0  0.4356973507830418 0.21 0  0.4431656530201649 0.21 0  0.4506339552573136 0.21 0  0.4581022574944306 0.21 0  0.4655705597315852 0.21 0  0.4730388619686996 0.21 0  0.480507164205851 0.21 0  0.4879754664429498 0.21 0  0.4954437686800938 0.21 0  0.502912070917267 0.21 0  0.5103803731544119 0.21 0  0.5178486753915261 0.21 0  0.5253169776286404 0.21 0  0.5327852798657868 0.21 0  0.5402535821029386 0.21 0  0.54772188434007 0.21 0  0.5551901865771842 0.21 0  0.5626584888143201 0.21 0  0.5701267910514778 0.21 0  0.5775950932886138 0.21 0  0.5850633955257281 0.21 0  0.5925316977628483 0.21 0  0.6 0.2050000000000054 0  0.6 0.1950000000000217 0  0.5925316977628897 0.19 0  0.5850633955257988 0.19 0  0.5775950932887378 0.19 0  0.5701267910515998 0.19 0  0.5626584888145268 0.19 0  0.5551901865773963 0.19 0  0.547721884340339 0.19 0  0.5402535821032429 0.19 0  0.5327852798661811 0.19 0  0.5253169776290537 0.19 0  0.5178486753919799 0.19 0  0.5103803731549078 0.19 0  0.502912070917822 0.19 0  0.4954437686807294 0.19 0  0.4879754664436223 0.19 0  0.4805071642065402 0.19 0  0.4730388619694271 0.19 0  0.4655705597323621 0.19 0  0.4581022574952563 0.19 0  0.4506339552581777 0.19 0  0.4431656530210671 0.19 0  0.4356973507839815 0.19 0  0.4282290485468779 0.19 0  0.4207607463097617 0.19 0  0.4132924440726327 0.19 0  0.4058241418354857 0.19 0  0.3983558395983636 0.19 0  0.3908875373612097 0.19 0  0.3834192351240934 0.19 0  0.3759509328869369 0.19 0  0.3684826306498175 0.19 0  0.361014328412667 0.19 0  0.3535460261755617 0.19 0  0.3460777239384295 0.19 0  0.3386094217012945 0.19 0  0.3311411194641595 0.19 0  0.3236728172270245 0.19 0  0.3162045149898895 0.19 0  0.3087362127527544 0.19 0  0.3012679105156187 0.19 0  0.2937996082784807 0.19 0  0.2863313060413428 0.19 0  0.2788630038042048 0.19 0  0.2713947015670686 0.19 0  0.2639263993299336 0.19 0  0.2564580970927985 0.19 0  0.2607803159922026 0.2000727136295815 0  0.5887803774232762 0.2001272386983733 0  0.5745072403740523 0.2002044435018727 0  0.5511891430099709 0.2001122610077113 0  0.2751288526855082 0.20000000000002 0  0.5365194309847112 0.1999999999999436 0  0.2894621222999649 0.1998691686390484 0  0.5215828265105155 0.1999999999999228 0  0.3127789816668748 0.1998657885438805 0  0.3274069683451451 0.2000000000000796 0  0.5066462220363641 0.199999999999908 0  0.3650630746574081 0.199866017807523 0  0.476773013087985 0.1999999999998713 0  0.3417402379596385 0.1998691686391011 0  0.3796850840047755 0.200000000000134 0  0.4618364086138087 0.1999999999998546 0  0.4917096175621762 0.1999999999998808 0  0.3946216884789568 0.2000000000001512 0  0.446899804139621 0.1999999999998389 0  0.4089549580935208 0.1998691686391595 0  0.4322718174608562 0.200127451265745 0  0.4201487168029707 0.1999966199048527 0  0.3528922713220932 0.2000185703532356 0  0.5633122436674589 0.1999814296467508 0  0.3006558810093873 0.1999966199048318 0  0.5815926498168407 0.1966545283159175 0  0.2677053789419034 0.1964246479135325 0  0.5290511287476175 0.1970915826863981 0  0.5439877332217911 0.197091582686394 0  0.2825131256993216 0.2035478995978015 0  0.3199386661080599 0.202908417313604 0  0.4842413153250809 0.1970915826863873 0  0.5141145242734466 0.1970915826863843 0  0.3722167817676917 0.2029084173136195 0  0.4693047108508938 0.1970915826863783 0  0.3348752705822316 0.202908417313609 0  0.3871533862418661 0.2029084173136212 0  0.4543681063767183 0.1970915826863795 0  0.4991779197992749 0.1970915826863902 0  0.4020059614928624 0.203547899597858 0  0.4394315019025246 0.1970915826863714 0  0.2550657455369551 0.2034088125358657 0  0.2548908499171161 0.1966940311614271 0  0.5946539510196798 0.2024302972968126 0  0.267698176732111 0.2039977513680092 0  0.4261685417851465 0.196409292431739 0  0.3590076176283495 0.196411355804271 0  0.5571672426447437 0.2036011176410121 0  0.3066757059912147 0.1964092924317024 0  0.594380730180568 0.1966558399668133 0  0.4842413153245942 0.2040749161535287 0  0.4693047108503577 0.2040749161535231 0  0.3871533862424271 0.1959250838464788 0  0.372246743208829 0.1959123236376545 0  0.5141145242731028 0.2040749161535395 0  0.4543681063761134 0.2040749161535186 0  0.4019979587101454 0.1959834479682427 0  0.4394608940728603 0.2040870543693135 0  0.5439623148931173 0.2040856076781014 0  0.5290511287473298 0.2040749161535501 0  0.4991779197988497 0.2040749161535382 0  0.3347912413592433 0.1959225448935183 0  0.3199680582793816 0.1959123018030061 0  0.2825051229162361 0.1959834479681729 0  0.3590471196690275 0.2036304442587945 0  0.5571594006495384 0.1963685282145804 0  0.3067669986803285 0.203627750582736 0  0.4262598344738712 0.2036568242185335 0  0.5814408164431408 0.2041285596160068 0  0.5688286748170428 0.1961819304477386 0  0.4145905603063645 0.2038180695522843 0  0.3473758401724931 0.2038180695522752 0  0.2950977245128307 0.2038180695522663 0  0.5688286748170693 0.203818069552238 0  0.2950977245127906 0.1961819304477774 0  0.3473758401723931 0.1961819304478349 0  0.4145905603061963 0.1961819304479011 0  0.2601812407614425 0.2056861609747042
[...]
<PointData  Vectors="f_46-2"> 
<DataArray  type="Float64"  Name="f_46-2"  NumberOfComponents="3" format="ascii">0.0000000000000000e+00 0.0000000000000000e+00 0.0000000000000000e+00  0.0000000000000000e+00 0.0000000000000000e+00 0.0000000000000000e+00  0.0000000000000000e+00 0.0000000000000000e+00 0.0000000000000000e+00  0.0000000000000000e+00 0.0000000000000000e+00 0.0000000000000000e+00  2.3523666835787264e-06 -8.4817924730065658e-05 0.0000000000000000e+00  9.0680042103652127e-06 -8.8235932548705044e-05 0.0000000000000000e+00  0.0000000000000000e+00 3.9616811029042248e-25 0.0000000000000000e+00  0.0000000000000000e+00 0.0000000000000000e+00 0.0000000000000000e+00  0.0000000000000000e+00 0.0000000000000000e+00 0.0000000000000000e+00  0.0000000000000000e+00 0.0000000000000000e+00 0.0000000000000000e+00  5.3465753860585368e-06 -8.6529669244049038e-05 0.0000000000000000e+00  0.0000000000000000e+00 0.0000000000000000e+00 0.0000000000000000e+00  0.0000000000000000e+00 0.0000000000000000e+00 0.0000000000000000e+00  0.0000000000000000e+00 0.0000000000000000e+00 0.0000000000000000e+00  0.0000000000000000e+00 0.0000000000000000e+00 0.0000000000000000e+00  0.0000000000000000e+00 0.0000000000000000e+00 0.0000000000000000e+00  0.0000000000000000e+00 0.0000000000000000e+00 0.0000000000000000e+00  0.0000000000000000e+00 0.0000000000000000e+00 0.0000000000000000e+00  0.0000000000000000e+00 0.0000000000000000e+00 0.0000000000000000e+00  0.0000000000000000e+00 0.0000000000000000e+00 0.0000000000000000e+00  0.0000000000000000e+00 0.0000000000000000e+00 0.0000000000000000e+00  0.0000000000000000e+00 0.0000000000000000e+00 0.0000000000000000e+00  0.0000000000000000e+00 0.0000000000000000e+00 0.0000000000000000e+00  0.0000000000000000e+00 0.0000000000000000e+00 0.0000000000000000e+00  0.0000000000000000e+00 0.0000000000000000e+00 0.0000000000000000e+00  0.0000000000000000e+00 0.0000000000000000e+00 0.0000000000000000e+00  0.0000000000000000e+00 0.0000000000000000e+00 0.0000000000000000e+00  0.0000000000000000e+00 0.0000000000000000e+00 0.0000000000000000e+00  0.0000000000000000e+00 0.0000000000000000e+00 0.0000000000000000e+00  0.0000000000000000e+00 0.0000000000000000e+00 0.0000000000000000e+00  0.0000000000000000e+00 0.0000000000000000e+00 0.0000000000000000e+00  0.0000000000000000e+00 0.0000000000000000e+00 0.0000000000000000e+00  0.0000000000000000e+00 0.0000000000000000e+00 0.0000000000000000e+00  0.0000000000000000e+00 0.0000000000000000e+00 0.0000000000000000e+00  0.0000000000000000e+00 0.0000000000000000e+00 0.0000000000000000e+00  -6.1831213659571894e-14 1.9621128431806716e-17 0.0000000000000000e+00  0.0000000000000000e+00 0.0000000000000000e+00 0.0000000000000000e+00  0.0000000000000000e+00 0.0000000000000000e+00 0.0000000000000000e+00  0.0000000000000000e+00 0.0000000000000000e+00 0.0000000000000000e+00  0.0000000000000000e+00 0.0000000000000000e+00 0.0000000000000000e+00  0.0000000000000000e+00 0.0000000000000000e+00 0.0000000000000000e+00  0.0000000000000000e+00 0.0000000000000000e+00 0.0000000000000000e+00  0.0000000000000000e+00 0.0000000000000000e+00 0.0000000000000000e+00  0.0000000000000000e+00 0.0000000000000000e+00 0.0000000000000000e+00  0.0000000000000000e+00 0.0000000000000000e+00 0.0000000000000000e+00  0.0000000000000000e+00 0.0000000000000000e+00 0.0000000000000000e+00  0.0000000000000000e+00 0.0000000000000000e+00 0.0000000000000000e+00  0.0000000000000000e+00 0.0000000000000000e+00 0.0000000000000000e+00  0.0000000000000000e+00 0.0000000000000000e+00 0.0000000000000000e+00  0.0000000000000000e+00 0.0000000000000000e+00 0.0000000000000000e+00  0.0000000000000000e+00 0.0000000000000000e+00 0.0000000000000000e+00  0.0000000000000000e+00 0.0000000000000000e+00 0.0000000000000000e+00  0.0000000000000000e+00 0.0000000000000000e+00 0.0000000000000000e+00  0.0000000000000000e+00 0.0000000000000000e+00 0.0000000000000000e+00  0.0000000000000000e+00 0.0000000000000000e+00 0.0000000000000000e+00  0.0000000000000000e+00 0.0000000000000000e+00 0.0000000000000000e+00  0.0000000000000000e+00 0.0000000000000000e+00 0.0000000000000000e+00  0.0000000000000000e+00 0.0000000000000000e+00 0.0000000000000000e+00  0.0000000000000000e+00 0.0000000000000000e+00 0.0000000000000000e+00  0.0000000000000000e+00 0.0000000000000000e+00 0.0000000000000000e+00  0.0000000000000000e+00 0.0000000000000000e+00 0.0000000000000000e+00  0.0000000000000000e+00 0.0000000000000000e+00 0.0000000000000000e+00  0.0000000000000000e+00 0.0000000000000000e+00 0.0000000000000000e+00  0.0000000000000000e+00 0.0000000000000000e+00 0.0000000000000000e+00  0.0000000000000000e+00 0.0000000000000000e+00 0.0000000000000000e+00  0.0000000000000000e+00 0.0000000000000000e+00 0.0000000000000000e+00  0.0000000000000000e+00 0.0000000000000000e+00 0.0000000000000000e+00  0.0000000000000000e+00 0.0000000000000000e+00 0.0000000000000000e+00  0.0000000000000000e+00 0.0000000000000000e+00 0.0000000000000000e+00  0.0000000000000000e+00 0.0000000000000000e+00 0.0000000000000000e+00  0.0000000000000000e+00 0.0000000000000000e+00 0.0000000000000000e+00  0.0000000000000000e+00 0.0000000000000000e+00 0.0000000000000000e+00  0.0000000000000000e+00 0.0000000000000000e+00 0.0000000000000000e+00  0.0000000000000000e+00 0.0000000000000000e+00 0.0000000000000000e+00  0.0000000000000000e+00 0.0000000000000000e+00 0.0000000000000000e+00  0.0000000000000000e+00 0.0000000000000000e+00 0.0000000000000000e+00  0.0000000000000000e+00 0.0000000000000000e+00 0.0000000000000000e+00  0.0000000000000000e+00 0.0000000000000000e+00 0.0000000000000000e+00  0.0000000000000000e+00 0.0000000000000000e+00 0.0000000000000000e+00  0.0000000000000000e+00 0.0000000000000000e+00 0.0000000000000000e+00  0.0000000000000000e+00 0.0000000000000000e+00 0.0000000000000000e+00  0.0000000000000000e+00 0.0000000000000000e+00 0.0000000000000000e+00  0.0000000000000000e+00 0.0000000000000000e+00 0.0000000000000000e+00  0.0000000000000000e+00 0.0000000000000000e+00 0.0000000000000000e+00  0.0000000000000000e+00 0.0000000000000000e+00 0.0000000000000000e+00  0.0000000000000000e+00 0.0000000000000000e+00 0.0000000000000000e+00  0.0000000000000000e+00 0.0000000000000000e+00 0.0000000000000000e+00  0.0000000000000000e+00 0.0000000000000000e+00 0.0000000000000000e+00  2.5017932982567391e-13 0.0000000000000000e+00 0.0000000000000000e+00  0.0000000000000000e+00 0.0000000000000000e+00 0.0000000000000000e+00  0.0000000000000000e+00 0.0000000000000000e+00 0.0000000000000000e+00  0.0000000000000000e+00 0.0000000000000000e+00 0.0000000000000000e+00  0.0000000000000000e+00 0.0000000000000000e+00 0.0000000000000000e+00  0.0000000000000000e+00 0.0000000000000000e+00 0.0000000000000000e+00  1.4535652851092864e-13 0.0000000000000000e+00 0.0000000000000000e+00  0.0000000000000000e+00 0.0000000000000000e+00 0.0000000000000000e+00  0.0000000000000000e+00 0.0000000000000000e+00 0.0000000000000000e+00  0.0000000000000000e+00 0.0000000000000000e+00 0.0000000000000000e+00  0.0000000000000000e+00 0.0000000000000000e+00 0.0000000000000000e+00  0.0000000000000000e+00 0.0000000000000000e+00 0.0000000000000000e+00  0.0000000000000000e+00 0.0000000000000000e+00 0.0000000000000000e+00  0.0000000000000000e+00 0.0000000000000000e+00 0.0000000000000000e+00  0.0000000000000000e+00 0.0000000000000000e+00 0.0000000000000000e+00  0.0000000000000000e+00 0.0000000000000000e+00 0.0000000000000000e+00  0.0000000000000000e+00 0.0000000000000000e+00 0.0000000000000000e+00  6.3739709765986713e-14 -9.3760894362297408e-14 0.0000000000000000e+00  0.0000000000000000e+00 0.0000000000000000e+00 0.0000000000000000e+00  0.0000000000000000e+00 0.0000000000000000e+00 0.0000000000000000e+00  0.0000000000000000e+00 0.0000000000000000e+00 0.0000000000000000e+00  0.0000000000000000e+00 0.0000000000000000e+00 0.0000000000000000e+00  3.1489586668127741e-18 -2.5987173797185845e-19 0.0000000000000000e+00  0.0000000000000000e+00 0.0000000000000000e+00 0.0000000000000000e+00  0.0000000000000000e+00 0.0000000000000000e+00 0.0000000000000000e+00  0.0000000000000000e+00 0.0000000000000000e+00 0.0000000000000000e+00  0.0000000000000000e+00 0.0000000000000000e+00 0.0000000000000000e+00  0.0000000000000000e+00 0.0000000000000000e+00 0.0000000000000000e+00  0.0000000000000000e+00 0.0000000000000000e+00 0.0000000000000000e+00  0.0000000000000000e+00 0.0000000000000000e+00 0.0000000000000000e+00  0.0000000000000000e+00 0.0000000000000000e+00 0.0000000000000000e+00  0.0000000000000000e+00 0.0000000000000000e+00 0.0000000000000000e+00  0.0000000000000000e+00 0.0000000000000000e+00 0.0000000000000000e+00  0.0000000000000000e+00 0.0000000000000000e+00 0.0000000000000000e+00  0.0000000000000000e+00 0.0000000000000000e+00 0.0000000000000000e+00  0.0000000000000000e+00 0.0000000000000000e+00 0.0000000000000000e+00  0.0000000000000000e+00 0.0000000000000000e+00 0.0000000000000000e+00  0.0000000000000000e+00 0.0000000000000000e+00 0.0000000000000000e+00  0.0000000000000000e+00 0.0000000000000000e+00 0.0000000000000000e+00  0.0000000000000000e+00 0.0000000000000000e+00 0.0000000000000000e+00  0.0000000000000000e+00 0.0000000000000000e+00 0.0000000000000000e+00  0.0000000000000000e+00 0.0000000000000000e+00 0.0000000000000000e+00  0.0000000000000000e+00 0.0000000000000000e+00 0.0000000000000000e+00  0.0000000000000000e+00 0.0000000000000000e+00 0.0000000000000000e+00  0.0000000000000000e+00 0.0000000000000000e+00 0.0000000000000000e+00  0.0000000000000000e+00 0.0000000000000000e+00 0.0000000000000000e+00  0.0000000000000000e+00 0.0000000000000000e+00 0.0000000000000000e+00  0.0000000000000000e+00 0.0000000000000000e+00 0.0000000000000000e+00  0.0000000000000000e+00 0.0000000000000000e+00 0.0000000000000000e+00  0.0000000000000000e+00 0.0000000000000000e+00 0.0000000000000000e+00  0.0000000000000000e+00 0.0000000000000000e+00 0.0000000000000000e+00  0.0000000000000000e+00 0.0000000000000000e+00 0.0000000000000000e+00  0.0000000000000000e+00 0.0000000000000000e+00 0.0000000000000000e+00  0.0000000000000000e+00 0.0000000000000000e+00 0.0000000000000000e+00  5.6127366344319679e-16 -1.3501348563888457e-15 0.0000000000000000e+00  6.5615964099624012e-07 -3.3578410815274552e-06 0.0000000000000000e+00  1.4597394035226355e-06 -3.8068102226957229e-06 0.0000000000000000e+00  2.4182946104668803e-06 -4.2029287967143061e-06 0.0000000000000000e+00  3.4670900930372612e-06 -4.6400739449199491e-06 0.0000000000000000e+00  4.4975216871936827e-06 -5.1926759757920292e-06 0.0000000000000000e+00  5.5176334313764911e-06 -5.9086109148711675e-06 0.0000000000000000e+00  6.4766371171295569e-06 -6.7191185456457436e-06 0.0000000000000000e+00  7.3914708469487343e-06 -7.6601622287730494e-06 0.0000000000000000e+00  8.3018576406451856e-06 -8.7059770615055523e-06 0.0000000000000000e+00  9.1282911430143056e-06 -9.8421645284321652e-06 0.0000000000000000e+00  9.9471681927145266e-06 -1.1102967489236273e-05 0.0000000000000000e+00  1.0686238245348565e-05 -1.2434732109447313e-05 0.0000000000000000e+00  1.1402547904953838e-05 -1.3870683111091850e-05 0.0000000000000000e+00  1.2058167554208606e-05 -1.5379941075329856e-05 0.0000000000000000e+00  1.2663676341874657e-05 -1.6973896654026572e-05 0.0000000000000000e+00  1.3252012764572815e-05 -1.8645160402317624e-05 0.0000000000000000e+00  1.3765559805256422e-05 -2.0364417688784405e-05 0.0000000000000000e+00  1.4255195314396988e-05 -2.2177237789285120e-05 0.0000000000000000e+00  1.4677565508490774e-05 -2.4019479475609805e-05 0.0000000000000000e+00  1.5074243694976975e-05 -2.5945027032116705e-05 0.0000000000000000e+00  1.5410515497501188e-05 -2.7895112854046688e-05 0.0000000000000000e+00  1.5706101582168900e-05 -2.9911204214755951e-05 0.0000000000000000e+00  1.5956786041010230e-05 -3.1963688300850112e-05 0.0000000000000000e+00  1.6158821385075926e-05 -3.4057353061017199e-05 0.0000000000000000e+00  1.6335320257767966e-05 -3.6194551634886912e-05 0.0000000000000000e+00  1.6453242020602106e-05 -3.8348388071700337e-05 0.0000000000000000e+00  1.6528269056106118e-05 -4.0563566923194870e-05 0.0000000000000000e+00  1.6557552651519885e-05 -4.2777656714758509e-05 0.0000000000000000e+00  1.6544086215913812e-05 -4.5045833690826789e-05 0.0000000000000000e+00  1.6485856771730662e-05 -4.7311681537409924e-05 0.0000000000000000e+00  1.6386027440117987e-05 -4.9624656321278119e-05 0.0000000000000000e+00  1.6240203411112634e-05 -5.1930111612015155e-05 0.0000000000000000e+00  1.6054613361442175e-05 -5.4279942892368729e-05 0.0000000000000000e+00  1.5822404894801212e-05 -5.6615427614121351e-05 0.0000000000000000e+00  1.5546477054909359e-05 -5.8995073084991848e-05 0.0000000000000000e+00  1.5227608116232687e-05 -6.1358823293276995e-05 0.0000000000000000e+00  1.4867118234493873e-05 -6.3760565149458698e-05 0.0000000000000000e+00  1.4462907498128829e-05 -6.6145138314157841e-05 0.0000000000000000e+00  1.4015086395931744e-05 -6.8564882977523511e-05 0.0000000000000000e+00  1.3521103913985719e-05 -7.0965681101865658e-05 0.0000000000000000e+00  1.2978182736776848e-05 -7.3389622308500410e-05 0.0000000000000000e+00  1.2399446041162526e-05 -7.5808456829299368e-05 0.0000000000000000e+00  1.1769887931350364e-05 -7.8236794924871575e-05 0.0000000000000000e+00  1.1114639465464227e-05 -8.0666154150653671e-05 0.0000000000000000e+00  1.0407916633888480e-05 -8.3083795540337738e-05 0.0000000000000000e+00  9.7015910685863185e-06 -8.5551097466445526e-05 0.0000000000000000e+00  7.0820905997545088e-06 -8.7377962120642474e-05 0.0000000000000000e+00  3.7393277168073733e-06 -8.5684724491828917e-05 0.0000000000000000e+00  3.0015677334638750e-06 -8.2505728674814929e-05 0.0000000000000000e+00  3.7304841557760274e-06 -7.9968398608087609e-05 0.0000000000000000e+00  4.4522374711632321e-06 -7.7407472531652803e-05 0.0000000000000000e+00  5.1257749569600148e-06 -7.4869677423938319e-05 0.0000000000000000e+00  5.7709910592136397e-06 -7.2336987926303054e-05 0.0000000000000000e+00  6.3639781329204727e-06 -6.9811094636852309e-05 0.0000000000000000e+00  6.9247277674933912e-06 -6.7298042787945664e-05 0.0000000000000000e+00  7.4355293156498013e-06 -6.4776279164713134e-05 0.0000000000000000e+00  7.9080829839455780e-06 -6.2287136428104391e-05 0.0000000000000000e+00  8.3367061824431134e-06 -5.9779657469248679e-05 0.0000000000000000e+00  8.7285885651907405e-06 -5.7309049930028200e-05 0.0000000000000000e+00  9.0764914637077150e-06 -5.4822793135595420e-05 0.0000000000000000e+00  9.3888561458363329e-06 -5.2375911931744276e-05 0.0000000000000000e+00  9.6579059119911720e-06 -4.9917335896759053e-05 0.0000000000000000e+00  9.8940724539893148e-06 -4.7500503251604630e-05 0.0000000000000000e+00  1.0085509312428035e-05 -4.5074949612474344e-05 0.0000000000000000e+00  1.0245672570287227e-05 -4.2694397429322431e-05 0.0000000000000000e+00  1.0360375563483716e-05 -4.0309094722484999e-05 0.0000000000000000e+00  1.0445805961517092e-05 -3.7974132208096812e-05 0.0000000000000000e+00  1.0485471674909564e-05 -3.5640668348228694e-05 0.0000000000000000e+00  1.0498674266320698e-05 -3.3361827969421453e-05 0.0000000000000000e+00  1.0464049254863953e-05 -3.1090778934216067e-05 0.0000000000000000e+00  1.0398703258729659e-05 -2.8871096744182400e-05 0.0000000000000000e+00  1.0295487113147128e-05 -2.6679819406230744e-05 0.0000000000000000e+00  1.0148914476009608e-05 -2.4537580972849540e-05 0.0000000000000000e+00  9.9891602428465988e-06 -2.2435317216002019e-05 0.0000000000000000e+00  9.7781956118522016e-06 -2.0371416158561566e-05 0.0000000000000000e+00  9.5387300338037291e-06 -1.8381311278795965e-05 0.0000000000000000e+00  9.2579086347194805e-06 -1.6421348313755240e-05 0.0000000000000000e+00  8.9479946662213082e-06 -1.4546291900046500e-05 0.0000000000000000e+00  8.5972285618468451e-06 -1.2707745169921984e-05 0.0000000000000000e+00  8.2210170317603656e-06 -1.0964117648569081e-05 0.0000000000000000e+00  7.8045232940786982e-06 -9.2725152314520247e-06 0.0000000000000000e+00  7.3488939114295699e-06 -7.6782438915930921e-06 0.0000000000000000e+00  6.8904266499022736e-06 -6.1515802918857587e-06 0.0000000000000000e+00  6.3801944811653452e-06 -4.7160529551660381e-06 0.0000000000000000e+00  5.8468112735373850e-06 -3.3938825190077893e-06 0.0000000000000000e+00  5.2726395856225600e-06 -2.1506352628766944e-06 0.0000000000000000e+00  4.6834326434472985e-06 -1.0376777858987757e-06 0.0000000000000000e+00  4.0488587392762232e-06 -1.4669894580419983e-08 0.0000000000000000e+00  3.3796171769265531e-06 8.6936130287887345e-07 0.0000000000000000e+00  2.7228583961801970e-06 1.6486501835432865e-06 0.0000000000000000e+00  2.0143563988077621e-06 2.3176844538036307e-06 0.0000000000000000e+00  1.3510473148578332e-06 2.8386016186232409e-06 0.0000000000000000e+00  7.3119276411565260e-07 3.1209452189166565e-06 0.0000000000000000e+00  3.0516460548214888e-07 3.0699076717301903e-06 0.0000000000000000e+00  2.0841254261620144e-07 -1.6292638993704584e-07 0.0000000000000000e+00  6.6187791695664272e-06 -8.2784021493147864e-05 0.0000000000000000e+00  8.0867451082994318e-06 -7.8037355322107781e-05 0.0000000000000000e+00  9.9666220359827412e-06 -7.0293060040354374e-05 0.0000000000000000e+00  2.2727378539423875e-06 -8.1911443225621345e-07 0.0000000000000000e+00  1.0909398127377335e-05 -6.5436467138788455e-05 0.0000000000000000e+00  3.9302685085502233e-06 -1.9402276901424666e-06 0.0000000000000000e+00  1.1745213499645231e-05 -6.0543553960806310e-05 0.0000000000000000e+00  6.3918859026019614e-06 -4.8039925612599897e-06 0.0000000000000000e+00  7.7854998887332221e-06 -7.1885249682423122e-06 0.0000000000000000e+00  1.2413975150750941e-05 -5.5692382219173163e-05 0.0000000000000000e+00  1.0638568511385563e-05 -1.4798541839642564e-05 0.0000000000000000e+00  1.3256620738179163e-05 -4.6160145881660672e-05 0.0000000000000000e+00  8.9775878210205448e-06 -9.8023076894928931e-06 0.0000000000000000e+00  1.1513855596724947e-05 -1.8329375058082854e-05 0.0000000000000000e+00  1.3433081470290361e-05 -4.1507290367941057e-05 0.0000000000000000e+00  1.2917401085004424e-05 -5.0893449792801517e-05 0.0000000000000000e+00  1.2225680081737837e-05 -2.2136688933147167e-05 0.0000000000000000e+00  1.3447064104414605e-05 -3.6955235395322518e-05 0.0000000000000000e+00  1.2726429229560122e-05 -2.5954848988831608e-05 0.0000000000000000e+00  1.3346223550959498e-05 -3.2647321323533700e-05 0.0000000000000000e+00  1.3056188134429048e-05 -2.9127399550755851e-05 0.0000000000000000e+00  9.8352506066265505e-06 -1.2154415477497913e-05 0.0000000000000000e+00  8.9654393258459335e-06 -7.4283518450459803e-05 0.0000000000000000e+00  5.1520893494580521e-06 -3.2355802628975726e-06 0.0000000000000000e+00  6.2182333917263118e-06 -7.9842085624481164e-05 0.0000000000000000e+00  1.1363107135210657e-06 8.9327690680595308e-07 0.0000000000000000e+00  1.0397623960551183e-05 -6.2416494674125074e-05 0.0000000000000000e+00  9.4719714765994261e-06 -6.7353543190962306e-05 0.0000000000000000e+00  3.4285535156087593e-06 -2.5961728326616220e-06 0.0000000000000000e+00  7.5605215002255364e-06 -6.8980378978448141e-06 0.0000000000000000e+00  1.2188628319998272e-05 -4.7866767441979756e-05 0.0000000000000000e+00  1.1158035397331547e-05 -5.7515483805257162e-05 0.0000000000000000e+00  1.1789605811041252e-05 -1.7374732762979024e-05 0.0000000000000000e+00  1.2462717979522114e-05 -4.3144375481306555e-05 0.0000000000000000e+00  8.9690331399790202e-06 -9.4597377645780030e-06 0.0000000000000000e+00  1.2625720249752613e-05 -2.1038949767107755e-05 0.0000000000000000e+00  1.2577441648781460e-05 -3.8512571802032420e-05 0.0000000000000000e+00  1.1754176818806887e-05 -5.2661398066001422e-05 0.0000000000000000e+00  1.3469509665666959e-05 -2.5085556022209826e-05 0.0000000000000000e+00  1.2534965598424617e-05 -3.3992914036510267e-05 0.0000000000000000e+00  -2.5215588856878571e-07 -8.1093939862551183e-07 0.0000000000000000e+00  -3.1135425671774509e-07 6.7981585252212937e-07 0.0000000000000000e+00  6.7475781251906956e-06 -8.5106964696235243e-05 0.0000000000000000e+00  1.4929312739116194e-06 -1.8837282791423621e-06 0.0000000000000000e+00  1.217302