<?xml version="1.0"?>
<VTKFile type="UnstructuredGrid"  version="0.1"  >
<UnstructuredGrid>
<Piece  NumberOfPoints="1419" NumberOfCells="2698">
<Points>
<DataArray  type="Float64"  NumberOfComponents="3"  format="ascii">0 0 0  0 0.41 0  2.5 0 0  2.5 0.41 0  0.6 0.19 0  0.6 0.21 0  0.25 0.2 0  0.15 0.2 0  0.2489897948556636 0.21 0  0.2489897948556636 0.19 0  0.6 0.2 0  0 0.3807142857143437 0  0 0.3514285714286952 0  0 0.3221428571430699 0  0 0.29285714285744 0  0 0.2635714285718054 0  0 0.2342857142861561 0  0 0.2050000000005308 0  0 0.175714285714732 0  0 0.1464285714289574 0  0 0.1171428571431897 0  0 0.08785714285737878 0  0 0.05857142857161107 0  0 0.02928571428580012 0  0.03015443760436003 0 0  0.06140001986583606 0 0  0.09377624077125973 0 0  0.1273239957535082 0 0  0.1620856860351972 0 0  0.1981052433264291 0 0  0.235428184091502 0 0  0.2741016576309132 0 0  0.3141745521465447 0 0  0.3556974926295285 0 0  0.3987229542472677 0 0  0.4433053055141081 0 0  0.4895008759286886 0 0  0.5373680609405097 0 0  0.5869673343216626 0 0  0.6383613676634521 0 0  0.6916151138468254 0 0  0.7467958595648856 0 0  0.8039733463919316 0 0  0.8632198139502143 0 0  0.9246101326867038 0 0  0.9882218810934433 0 0  1.054135445558498 0 0  1.122434100542598 0 0  1.193204177141305 0 0  1.266535089879536 0 0  1.342519516046404 0 0  1.421253448503939 0 0  1.502836389106271 0 0  1.587371439758838 0 0  1.674965418777374 0 0  1.765729001825544 0 0  1.859776908880082 0 0  1.957227977487062 0 0  2.058205329869943 0 0  2.162836591189951 0 0  2.271253957290865 0 0  2.383594446803425 0 0  2.5 0.1024999999997612 0  2.5 0.2049999999994743 0  2.5 0.3074999999997183 0  2.383594446803656 0.41 0  2.271253957291315 0.41 0  2.162836591190598 0.41 0  2.058205329870775 0.41 0  1.957227977488067 0.41 0  1.859776908881246 0.41 0  1.765729001826854 0.41 0  1.674965418778818 0.41 0  1.58737143976041 0.41 0  1.502836389107956 0.41 0  1.421253448505726 0.41 0  1.342519516048286 0.41 0  1.266535089881505 0.41 0  1.193204177143353 0.41 0  1.122434100544716 0.41 0  1.05413544556068 0.41 0  0.9882218810956305 0.41 0  0.9246101326886647 0.41 0  0.8632198139519631 0.41 0  0.8039733463934788 0.41 0  0.7467958595662458 0.41 0  0.6916151138480078 0.41 0  0.6383613676644679 0.41 0  0.5869673343225223 0.41 0  0.5373680609412221 0.41 0  0.4895008759292634 0.41 0  0.4433053055145528 0.41 0  0.3987229542475914 0.41 0  0.3556974926297398 0.41 0  0.3141745521466497 0.41 0  0.2741016576310038 0.41 0  0.2354281840915826 0.41 0  0.1981052433265003 0.41 0  0.1620856860352591 0.41 0  0.1273239957535623 0.41 0  0.09377624077128965 0.41 0  0.06140001986584975 0.41 0  0.03015443760436654 0.41 0  0.2497468076502589 0.2050254481002335 0  0.2497468076502614 0.1949745518997913 0  0.2469965252529372 0.1829317073451959 0  0.2439893735792749 0.1762316384219906 0  0.2400332147834255 0.1700443375285386 0  0.2352133972704371 0.1645032867342007 0  0.2296339016332438 0.1597280261969788 0  0.2234150974217223 0.1558215752574715 0  0.2166911463437691 0.1528682099456123 0  0.2096071079204251 0.1509316448471593 0  0.2023158100364996 0.1500536585536553 0  0.194974551899914 0.1502531923497262 0  0.1877417105387872 0.1515259415822739 0  0.1807733240461124 0.153844448527136 0  0.1742197252835808 0.15715869474974 0  0.1682222986673531 0.1613971801805478 0  0.162910430003803 0.1664684656256651 0  0.1583987151779087 0.1722631454351573 0  0.1547844879126891 0.178656207771761 0  0.1521457199348551 0.1855097315605723 0  0.1505393388476355 0.1926758619366523 0  0.1505393388476328 0.2073241380633295 0  0.1521457199348437 0.2144902684393899 0  0.1547844879126531 0.221343792228163 0  0.1583987151778488 0.2277368545647528 0  0.1629104300036858 0.2335315343742052 0  0.1682222986671726 0.2386028198193036 0  0.1742197252833576 0.2428413052501257 0  0.1807733240458683 0.2461555514727623 0  0.1877417105384929 0.2484740584176516 0  0.1949745518995776 0.2497468076502398 0  0.202315810036185 0.2499463414463592 0  0.2096071079201568 0.2490683551528932 0  0.2166911463435495 0.2471317900544655 0  0.2234150974215506 0.2441784247426195 0  0.2296339016331197 0.2402719738031125 0  0.2352133972703547 0.2354967132658811 0  0.2400332147833751 0.2299556624715287 0  0.2439893735792577 0.2237683615780412 0  0.246996525252926 0.2170682926548348 0  0.25645809709277 0.21 0  0.2639263993298655 0.21 0  0.271394701566961 0.21 0  0.2788630038040554 0.21 0  0.2863313060411479 0.21 0  0.2937996082782405 0.21 0  0.301267910515333 0.21 0  0.3087362127524279 0.21 0  0.3162045149895234 0.21 0  0.3236728172265972 0.21 0  0.3311411194636928 0.21 0  0.3386094217007701 0.21 0  0.3460777239378666 0.21 0  0.3535460261749672 0.21 0  0.3610143284120516 0.21 0  0.3684826306491596 0.21 0  0.3759509328862226 0.21 0  0.383419235123329 0.21 0  0.3908875373604028 0.21 0  0.3983558395975142 0.21 0  0.4058241418345938 0.21 0  0.4132924440716992 0.21 0  0.4207607463087888 0.21 0  0.4282290485459029 0.21 0  0.4356973507830418 0.21 0  0.4431656530201649 0.21 0  0.4506339552573136 0.21 0  0.4581022574944306 0.21 0  0.4655705597315852 0.21 0  0.4730388619686996 0.21 0  0.480507164205851 0.21 0  0.4879754664429498 0.21 0  0.4954437686800938 0.21 0  0.502912070917267 0.21 0  0.5103803731544119 0.21 0  0.5178486753915261 0.21 0  0.5253169776286404 0.21 0  0.5327852798657868 0.21 0  0.5402535821029386 0.21 0  0.54772188434007 0.21 0  0.5551901865771842 0.21 0  0.5626584888143201 0.21 0  0.5701267910514778 0.21 0  0.5775950932886138 0.21 0  0.5850633955257281 0.21 0  0.5925316977628483 0.21 0  0.6 0.2050000000000054 0  0.6 0.1950000000000217 0  0.5925316977628897 0.19 0  0.5850633955257988 0.19 0  0.5775950932887378 0.19 0  0.5701267910515998 0.19 0  0.5626584888145268 0.19 0  0.5551901865773963 0.19 0  0.547721884340339 0.19 0  0.5402535821032429 0.19 0  0.5327852798661811 0.19 0  0.5253169776290537 0.19 0  0.5178486753919799 0.19 0  0.5103803731549078 0.19 0  0.502912070917822 0.19 0  0.4954437686807294 0.19 0  0.4879754664436223 0.19 0  0.4805071642065402 0.19 0  0.4730388619694271 0.19 0  0.4655705597323621 0.19 0  0.4581022574952563 0.19 0  0.4506339552581777 0.19 0  0.4431656530210671 0.19 0  0.4356973507839815 0.19 0  0.4282290485468779 0.19 0  0.4207607463097617 0.19 0  0.4132924440726327 0.19 0  0.4058241418354857 0.19 0  0.3983558395983636 0.19 0  0.3908875373612097 0.19 0  0.3834192351240934 0.19 0  0.3759509328869369 0.19 0  0.3684826306498175 0.19 0  0.361014328412667 0.19 0  0.3535460261755617 0.19 0  0.3460777239384295 0.19 0  0.3386094217012945 0.19 0  0.3311411194641595 0.19 0  0.3236728172270245 0.19 0  0.3162045149898895 0.19 0  0.3087362127527544 0.19 0  0.3012679105156187 0.19 0  0.2937996082784807 0.19 0  0.2863313060413428 0.19 0  0.2788630038042048 0.19 0  0.2713947015670686 0.19 0  0.2639263993299336 0.19 0  0.2564580970927985 0.19 0  0.2607803159922026 0.2000727136295815 0  0.5887803774232762 0.2001272386983733 0  0.5745072403740523 0.2002044435018727 0  0.5511891430099709 0.2001122610077113 0  0.2751288526855082 0.20000000000002 0  0.5365194309847112 0.1999999999999436 0  0.2894621222999649 0.1998691686390484 0  0.5215828265105155 0.1999999999999228 0  0.3127789816668748 0.1998657885438805 0  0.3274069683451451 0.2000000000000796 0  0.5066462220363641 0.199999999999908 0  0.3650630746574081 0.199866017807523 0  0.476773013087985 0.1999999999998713 0  0.3417402379596385 0.1998691686391011 0  0.3796850840047755 0.200000000000134 0  0.4618364086138087 0.1999999999998546 0  0.4917096175621762 0.1999999999998808 0  0.3946216884789568 0.2000000000001512 0  0.446899804139621 0.1999999999998389 0  0.4089549580935208 0.1998691686391595 0  0.4322718174608562 0.200127451265745 0  0.4201487168029707 0.1999966199048527 0  0.3528922713220932 0.2000185703532356 0  0.5633122436674589 0.1999814296467508 0  0.3006558810093873 0.1999966199048318 0  0.5815926498168407 0.1966545283159175 0  0.2677053789419034 0.1964246479135325 0  0.5290511287476175 0.1970915826863981 0  0.5439877332217911 0.197091582686394 0  0.2825131256993216 0.2035478995978015 0  0.3199386661080599 0.202908417313604 0  0.4842413153250809 0.1970915826863873 0  0.5141145242734466 0.1970915826863843 0  0.3722167817676917 0.2029084173136195 0  0.4693047108508938 0.1970915826863783 0  0.3348752705822316 0.202908417313609 0  0.3871533862418661 0.2029084173136212 0  0.4543681063767183 0.1970915826863795 0  0.4991779197992749 0.1970915826863902 0  0.4020059614928624 0.203547899597858 0  0.4394315019025246 0.1970915826863714 0  0.2550657455369551 0.2034088125358657 0  0.2548908499171161 0.1966940311614271 0  0.5946539510196798 0.2024302972968126 0  0.267698176732111 0.2039977513680092 0  0.4261685417851465 0.196409292431739 0  0.3590076176283495 0.196411355804271 0  0.5571672426447437 0.2036011176410121 0  0.3066757059912147 0.1964092924317024 0  0.594380730180568 0.1966558399668133 0  0.4842413153245942 0.2040749161535287 0  0.4693047108503577 0.2040749161535231 0  0.3871533862424271 0.1959250838464788 0  0.372246743208829 0.1959123236376545 0  0.5141145242731028 0.2040749161535395 0  0.4543681063761134 0.2040749161535186 0  0.4019979587101454 0.1959834479682427 0  0.4394608940728603 0.2040870543693135 0  0.5439623148931173 0.2040856076781014 0  0.5290511287473298 0.2040749161535501 0  0.4991779197988497 0.2040749161535382 0  0.3347912413592433 0.1959225448935183 0  0.3199680582793816 0.1959123018030061 0  0.2825051229162361 0.1959834479681729 0  0.3590471196690275 0.2036304442587945 0  0.5571594006495384 0.1963685282145804 0  0.3067669986803285 0.203627750582736 0  0.4262598344738712 0.2036568242185335 0  0.5814408164431408 0.2041285596160068 0  0.5688286748170428 0.1961819304477386 0  0.4145905603063645 0.2038180695522843 0  0.3473758401724931 0.2038180695522752 0  0.2950977245128307 0.2038180695522663 0  0.5688286748170693 0.203818069552238 0  0.2950977245127906 0.1961819304477774 0  0.3473758401723931 0.1961819304478349 0  0.4145905603061963 0.1961819304479011 0  0.2601812407614425 0.2056861609747042
[...]
<PointData  Vectors="f_46-2"> 
<DataArray  type="Float64"  Name="f_46-2"  NumberOfComponents="3" format="ascii">0.0000000000000000e+00 0.0000000000000000e+00 0.0000000000000000e+00  0.0000000000000000e+00 0.0000000000000000e+00 0.0000000000000000e+00  0.0000000000000000e+00 0.0000000000000000e+00 0.0000000000000000e+00  0.0000000000000000e+00 0.0000000000000000e+00 0.0000000000000000e+00  -2.9468127738168574e-06 -5.7286433363294306e-05 0.0000000000000000e+00  1.6679072092398433e-06 -6.0738683554860630e-05 0.0000000000000000e+00  0.0000000000000000e+00 -3.9600575687772812e-25 0.0000000000000000e+00  0.0000000000000000e+00 0.0000000000000000e+00 0.0000000000000000e+00  0.0000000000000000e+00 0.0000000000000000e+00 0.0000000000000000e+00  0.0000000000000000e+00 0.0000000000000000e+00 0.0000000000000000e+00  -9.6025211433996269e-07 -5.9015066077675270e-05 0.0000000000000000e+00  0.0000000000000000e+00 0.0000000000000000e+00 0.0000000000000000e+00  0.0000000000000000e+00 0.0000000000000000e+00 0.0000000000000000e+00  0.0000000000000000e+00 0.0000000000000000e+00 0.0000000000000000e+00  0.0000000000000000e+00 0.0000000000000000e+00 0.0000000000000000e+00  0.0000000000000000e+00 0.0000000000000000e+00 0.0000000000000000e+00  0.0000000000000000e+00 0.0000000000000000e+00 0.0000000000000000e+00  0.0000000000000000e+00 0.0000000000000000e+00 0.0000000000000000e+00  0.0000000000000000e+00 0.0000000000000000e+00 0.0000000000000000e+00  0.0000000000000000e+00 0.0000000000000000e+00 0.0000000000000000e+00  0.0000000000000000e+00 0.0000000000000000e+00 0.0000000000000000e+00  0.0000000000000000e+00 0.0000000000000000e+00 0.0000000000000000e+00  0.0000000000000000e+00 0.0000000000000000e+00 0.0000000000000000e+00  0.0000000000000000e+00 0.0000000000000000e+00 0.0000000000000000e+00  0.0000000000000000e+00 0.0000000000000000e+00 0.0000000000000000e+00  0.0000000000000000e+00 0.0000000000000000e+00 0.0000000000000000e+00  0.0000000000000000e+00 0.0000000000000000e+00 0.0000000000000000e+00  0.0000000000000000e+00 0.0000000000000000e+00 0.0000000000000000e+00  0.0000000000000000e+00 0.0000000000000000e+00 0.0000000000000000e+00  0.0000000000000000e+00 0.0000000000000000e+00 0.0000000000000000e+00  0.0000000000000000e+00 0.0000000000000000e+00 0.0000000000000000e+00  0.0000000000000000e+00 0.0000000000000000e+00 0.0000000000000000e+00  0.0000000000000000e+00 0.0000000000000000e+00 0.0000000000000000e+00  0.0000000000000000e+00 0.0000000000000000e+00 0.0000000000000000e+00  0.0000000000000000e+00 0.0000000000000000e+00 0.0000000000000000e+00  7.9309195639767183e-14 0.0000000000000000e+00 0.0000000000000000e+00  0.0000000000000000e+00 0.0000000000000000e+00 0.0000000000000000e+00  0.0000000000000000e+00 0.0000000000000000e+00 0.0000000000000000e+00  0.0000000000000000e+00 0.0000000000000000e+00 0.0000000000000000e+00  0.0000000000000000e+00 0.0000000000000000e+00 0.0000000000000000e+00  0.0000000000000000e+00 0.0000000000000000e+00 0.0000000000000000e+00  0.0000000000000000e+00 0.0000000000000000e+00 0.0000000000000000e+00  0.0000000000000000e+00 0.0000000000000000e+00 0.0000000000000000e+00  0.0000000000000000e+00 0.0000000000000000e+00 0.0000000000000000e+00  0.0000000000000000e+00 0.0000000000000000e+00 0.0000000000000000e+00  0.0000000000000000e+00 0.0000000000000000e+00 0.0000000000000000e+00  0.0000000000000000e+00 0.0000000000000000e+00 0.0000000000000000e+00  0.0000000000000000e+00 0.0000000000000000e+00 0.0000000000000000e+00  0.0000000000000000e+00 0.0000000000000000e+00 0.0000000000000000e+00  0.0000000000000000e+00 0.0000000000000000e+00 0.0000000000000000e+00  0.0000000000000000e+00 0.0000000000000000e+00 0.0000000000000000e+00  0.0000000000000000e+00 0.0000000000000000e+00 0.0000000000000000e+00  0.0000000000000000e+00 0.0000000000000000e+00 0.0000000000000000e+00  0.0000000000000000e+00 0.0000000000000000e+00 0.0000000000000000e+00  0.0000000000000000e+00 0.0000000000000000e+00 0.0000000000000000e+00  0.0000000000000000e+00 0.0000000000000000e+00 0.0000000000000000e+00  0.0000000000000000e+00 0.0000000000000000e+00 0.0000000000000000e+00  0.0000000000000000e+00 0.0000000000000000e+00 0.0000000000000000e+00  0.0000000000000000e+00 0.0000000000000000e+00 0.0000000000000000e+00  0.0000000000000000e+00 0.0000000000000000e+00 0.0000000000000000e+00  0.0000000000000000e+00 0.0000000000000000e+00 0.0000000000000000e+00  0.0000000000000000e+00 0.0000000000000000e+00 0.0000000000000000e+00  0.0000000000000000e+00 0.0000000000000000e+00 0.0000000000000000e+00  0.0000000000000000e+00 0.0000000000000000e+00 0.0000000000000000e+00  0.0000000000000000e+00 0.0000000000000000e+00 0.0000000000000000e+00  0.0000000000000000e+00 0.0000000000000000e+00 0.0000000000000000e+00  0.0000000000000000e+00 0.0000000000000000e+00 0.0000000000000000e+00  0.0000000000000000e+00 0.0000000000000000e+00 0.0000000000000000e+00  0.0000000000000000e+00 0.0000000000000000e+00 0.0000000000000000e+00  0.0000000000000000e+00 0.0000000000000000e+00 0.0000000000000000e+00  0.0000000000000000e+00 0.0000000000000000e+00 0.0000000000000000e+00  0.0000000000000000e+00 0.0000000000000000e+00 0.0000000000000000e+00  0.0000000000000000e+00 0.0000000000000000e+00 0.0000000000000000e+00  0.0000000000000000e+00 0.0000000000000000e+00 0.0000000000000000e+00  0.0000000000000000e+00 0.0000000000000000e+00 0.0000000000000000e+00  0.0000000000000000e+00 0.0000000000000000e+00 0.0000000000000000e+00  0.0000000000000000e+00 0.0000000000000000e+00 0.0000000000000000e+00  0.0000000000000000e+00 0.0000000000000000e+00 0.0000000000000000e+00  0.0000000000000000e+00 0.0000000000000000e+00 0.0000000000000000e+00  0.0000000000000000e+00 0.0000000000000000e+00 0.0000000000000000e+00  0.0000000000000000e+00 0.0000000000000000e+00 0.0000000000000000e+00  0.0000000000000000e+00 0.0000000000000000e+00 0.0000000000000000e+00  0.0000000000000000e+00 0.0000000000000000e+00 0.0000000000000000e+00  0.0000000000000000e+00 0.0000000000000000e+00 0.0000000000000000e+00  0.0000000000000000e+00 0.0000000000000000e+00 0.0000000000000000e+00  0.0000000000000000e+00 0.0000000000000000e+00 0.0000000000000000e+00  0.0000000000000000e+00 0.0000000000000000e+00 0.0000000000000000e+00  0.0000000000000000e+00 0.0000000000000000e+00 0.0000000000000000e+00  -5.4966034602665271e-18 0.0000000000000000e+00 0.0000000000000000e+00  0.0000000000000000e+00 0.0000000000000000e+00 0.0000000000000000e+00  0.0000000000000000e+00 0.0000000000000000e+00 0.0000000000000000e+00  0.0000000000000000e+00 0.0000000000000000e+00 0.0000000000000000e+00  0.0000000000000000e+00 0.0000000000000000e+00 0.0000000000000000e+00  0.0000000000000000e+00 0.0000000000000000e+00 0.0000000000000000e+00  -2.8795045308774008e-14 0.0000000000000000e+00 0.0000000000000000e+00  0.0000000000000000e+00 0.0000000000000000e+00 0.0000000000000000e+00  0.0000000000000000e+00 0.0000000000000000e+00 0.0000000000000000e+00  0.0000000000000000e+00 0.0000000000000000e+00 0.0000000000000000e+00  0.0000000000000000e+00 0.0000000000000000e+00 0.0000000000000000e+00  0.0000000000000000e+00 0.0000000000000000e+00 0.0000000000000000e+00  0.0000000000000000e+00 0.0000000000000000e+00 0.0000000000000000e+00  0.0000000000000000e+00 0.0000000000000000e+00 0.0000000000000000e+00  0.0000000000000000e+00 0.0000000000000000e+00 0.0000000000000000e+00  0.0000000000000000e+00 0.0000000000000000e+00 0.0000000000000000e+00  0.0000000000000000e+00 0.0000000000000000e+00 0.0000000000000000e+00  6.4414404484651183e-19 5.5349129992857045e-14 0.0000000000000000e+00  0.0000000000000000e+00 0.0000000000000000e+00 0.0000000000000000e+00  0.0000000000000000e+00 0.0000000000000000e+00 0.0000000000000000e+00  0.0000000000000000e+00 0.0000000000000000e+00 0.0000000000000000e+00  0.0000000000000000e+00 0.0000000000000000e+00 0.0000000000000000e+00  0.0000000000000000e+00 0.0000000000000000e+00 0.0000000000000000e+00  0.0000000000000000e+00 0.0000000000000000e+00 0.0000000000000000e+00  0.0000000000000000e+00 0.0000000000000000e+00 0.0000000000000000e+00  0.0000000000000000e+00 0.0000000000000000e+00 0.0000000000000000e+00  0.0000000000000000e+00 0.0000000000000000e+00 0.0000000000000000e+00  0.0000000000000000e+00 0.0000000000000000e+00 0.0000000000000000e+00  0.0000000000000000e+00 0.0000000000000000e+00 0.0000000000000000e+00  0.0000000000000000e+00 0.0000000000000000e+00 0.0000000000000000e+00  0.0000000000000000e+00 0.0000000000000000e+00 0.0000000000000000e+00  0.0000000000000000e+00 0.0000000000000000e+00 0.0000000000000000e+00  0.0000000000000000e+00 0.0000000000000000e+00 0.0000000000000000e+00  0.0000000000000000e+00 0.0000000000000000e+00 0.0000000000000000e+00  0.0000000000000000e+00 0.0000000000000000e+00 0.0000000000000000e+00  0.0000000000000000e+00 0.0000000000000000e+00 0.0000000000000000e+00  0.0000000000000000e+00 0.0000000000000000e+00 0.0000000000000000e+00  0.0000000000000000e+00 0.0000000000000000e+00 0.0000000000000000e+00  0.0000000000000000e+00 0.0000000000000000e+00 0.0000000000000000e+00  0.0000000000000000e+00 0.0000000000000000e+00 0.0000000000000000e+00  0.0000000000000000e+00 0.0000000000000000e+00 0.0000000000000000e+00  0.0000000000000000e+00 0.0000000000000000e+00 0.0000000000000000e+00  0.0000000000000000e+00 0.0000000000000000e+00 0.0000000000000000e+00  0.0000000000000000e+00 0.0000000000000000e+00 0.0000000000000000e+00  0.0000000000000000e+00 0.0000000000000000e+00 0.0000000000000000e+00  0.0000000000000000e+00 0.0000000000000000e+00 0.0000000000000000e+00  0.0000000000000000e+00 0.0000000000000000e+00 0.0000000000000000e+00  0.0000000000000000e+00 0.0000000000000000e+00 0.0000000000000000e+00  0.0000000000000000e+00 0.0000000000000000e+00 0.0000000000000000e+00  0.0000000000000000e+00 0.0000000000000000e+00 0.0000000000000000e+00  0.0000000000000000e+00 0.0000000000000000e+00 0.0000000000000000e+00  0.0000000000000000e+00 0.0000000000000000e+00 0.0000000000000000e+00  0.0000000000000000e+00 0.0000000000000000e+00 0.0000000000000000e+00  0.0000000000000000e+00 0.0000000000000000e+00 0.0000000000000000e+00  3.6854300726509249e-15 -7.0636999041452829e-14 0.0000000000000000e+00  4.3126075630138804e-07 -3.2397520094225993e-06 0.0000000000000000e+00  9.9102442677987658e-07 -3.6171764218614306e-06 0.0000000000000000e+00  1.7034513083719534e-06 -3.9030515423945121e-06 0.0000000000000000e+00  2.4975223678457638e-06 -4.1866564200879262e-06 0.0000000000000000e+00  3.2827638446711261e-06 -4.5474378852396722e-06 0.0000000000000000e+00  4.0504224922742227e-06 -5.0286322868455956e-06 0.0000000000000000e+00  4.7699894396507301e-06 -5.5733771600161690e-06 0.0000000000000000e+00  5.4487651888456910e-06 -6.2069639672351841e-06 0.0000000000000000e+00  6.1176765435190220e-06 -6.9129490385026807e-06 0.0000000000000000e+00  6.7193838743861743e-06 -7.6773653916422846e-06 0.0000000000000000e+00  7.3071205692230791e-06 -8.5311176113397229e-06 0.0000000000000000e+00  7.8314955102315656e-06 -9.4278028688405663e-06 0.0000000000000000e+00  8.3300143336210785e-06 -1.0397634391475855e-05 0.0000000000000000e+00  8.7802721965489654e-06 -1.1417133336435689e-05 0.0000000000000000e+00  9.1853873418270115e-06 -1.2492314231018603e-05 0.0000000000000000e+00  9.5717885118384668e-06 -1.3621911981518389e-05 0.0000000000000000e+00  9.8970038239762278e-06 -1.4778859421508231e-05 0.0000000000000000e+00  1.0196390027335260e-05 -1.6004805417907567e-05 0.0000000000000000e+00  1.0441041400161027e-05 -1.7243647137949511e-05 0.0000000000000000e+00  1.0659117951653945e-05 -1.8544865729262523e-05 0.0000000000000000e+00  1.0826758631430593e-05 -1.9855951916489571e-05 0.0000000000000000e+00  1.0955714140889546e-05 -2.1214781037238042e-05 0.0000000000000000e+00  1.1047746086561582e-05 -2.2598086738495841e-05 0.0000000000000000e+00  1.1095706862751311e-05 -2.4007362485361320e-05 0.0000000000000000e+00  1.1119375067042170e-05 -2.5448926588131798e-05 0.0000000000000000e+00  1.1092312237252568e-05 -2.6896641123587892e-05 0.0000000000000000e+00  1.1026286694221558e-05 -2.8392839242295764e-05 0.0000000000000000e+00  1.0920203594250532e-05 -2.9881797645261691e-05 0.0000000000000000e+00  1.0775341402653927e-05 -3.1413697521742011e-05 0.0000000000000000e+00  1.0591062613403952e-05 -3.2938929668593995e-05 0.0000000000000000e+00  1.0369136937924160e-05 -3.4502029685286235e-05 0.0000000000000000e+00  1.0106323915661715e-05 -3.6055088256223550e-05 0.0000000000000000e+00  9.8077494300452782e-06 -3.7644885637282038e-05 0.0000000000000000e+00  9.4674334780751198e-06 -3.9219126053512326e-05 0.0000000000000000e+00  9.0874542033016647e-06 -4.0831109503509792e-05 0.0000000000000000e+00  8.6691235023162157e-06 -4.2427238283940362e-05 0.0000000000000000e+00  8.2131725548905041e-06 -4.4056187326587245e-05 0.0000000000000000e+00  7.7179132398426526e-06 -4.5668834451439584e-05 0.0000000000000000e+00  7.1830779512266220e-06 -4.7312307927962023e-05 0.0000000000000000e+00  6.6065585059147305e-06 -4.8938519408148759e-05 0.0000000000000000e+00  5.9857884239529421e-06 -5.0585164597192658e-05 0.0000000000000000e+00  5.3327634095018684e-06 -5.2227174146414371e-05 0.0000000000000000e+00  4.6332471890913838e-06 -5.3877749378036112e-05 0.0000000000000000e+00  3.9105925323983468e-06 -5.5529272664528268e-05 0.0000000000000000e+00  3.1416440082652396e-06 -5.7170691134617991e-05 0.0000000000000000e+00  2.3728046528075374e-06 -5.8856753466344621e-05 0.0000000000000000e+00  2.4276381471479798e-07 -5.9872825742274652e-05 0.0000000000000000e+00  -2.0509233524696719e-06 -5.8160219697086531e-05 0.0000000000000000e+00  -2.2278541138032809e-06 -5.5738623244823487e-05 0.0000000000000000e+00  -1.4388835372155360e-06 -5.3987713575441096e-05 0.0000000000000000e+00  -6.5648184486546966e-07 -5.2215736447870610e-05 0.0000000000000000e+00  8.2407318859271521e-08 -5.0464027991999320e-05 0.0000000000000000e+00  7.9569646354296235e-07 -4.8716875345911646e-05 0.0000000000000000e+00  1.4610380296527785e-06 -4.6975723887104248e-05 0.0000000000000000e+00  2.0969871071783203e-06 -4.5245792375679608e-05 0.0000000000000000e+00  2.6874537333572898e-06 -4.3508000648265700e-05 0.0000000000000000e+00  3.2426472854496157e-06 -4.1798786617117372e-05 0.0000000000000000e+00  3.7577370282919702e-06 -4.0072457800018318e-05 0.0000000000000000e+00  4.2384229100442340e-06 -3.8378241498378096e-05 0.0000000000000000e+00  4.6789851195999021e-06 -3.6668812740449921e-05 0.0000000000000000e+00  5.0859158655904185e-06 -3.4993093038072284e-05 0.0000000000000000e+00  5.4534931738907865e-06 -3.3304760305765786e-05 0.0000000000000000e+00  5.7893772845134072e-06 -3.1651411933869190e-05 0.0000000000000000e+00  6.0848266772197236e-06 -2.9987100888650345e-05 0.0000000000000000e+00  6.3494243337316084e-06 -2.8359691340569614e-05 0.0000000000000000e+00  6.5731841235411737e-06 -2.6723798362510580e-05 0.0000000000000000e+00  6.7674372028557979e-06 -2.5128461309188752e-05 0.0000000000000000e+00  6.9209968056905305e-06 -2.3528828529660341e-05 0.0000000000000000e+00  7.0469689305648492e-06 -2.1972124135276056e-05 0.0000000000000000e+00  7.1308009936685835e-06 -2.0415301249423349e-05 0.0000000000000000e+00  7.1827513605036363e-06 -1.8896765597527405e-05 0.0000000000000000e+00  7.2015316550061941e-06 -1.7396220647278454e-05 0.0000000000000000e+00  7.1793103033481498e-06 -1.5928848067985731e-05 0.0000000000000000e+00  7.1416446289281347e-06 -1.4489616521417775e-05 0.0000000000000000e+00  7.0579831500854276e-06 -1.3072438904902790e-05 0.0000000000000000e+00  6.9456112234011927e-06 -1.1710805157785272e-05 0.0000000000000000e+00  6.7956138909901696e-06 -1.0362485835224126e-05 0.0000000000000000e+00  6.6162817820266187e-06 -9.0777594279909769e-06 0.0000000000000000e+00  6.3999347794038649e-06 -7.8109773111827412e-06 0.0000000000000000e+00  6.1557047467087424e-06 -6.6124725597621229e-06 0.0000000000000000e+00  5.8777907566939993e-06 -5.4465553045388647e-06 0.0000000000000000e+00  5.5626179222813999e-06 -4.3474232810933915e-06 0.0000000000000000e+00  5.2390926783831971e-06 -3.2940311021754287e-06 0.0000000000000000e+00  4.8699426547696739e-06 -2.3003261473740920e-06 0.0000000000000000e+00  4.4760260507158354e-06 -1.3883958025075565e-06 0.0000000000000000e+00  4.0456205438258499e-06 -5.2520527950947248e-07 0.0000000000000000e+00  3.5951629190637381e-06 2.4640883693831526e-07 0.0000000000000000e+00  3.1075556551113966e-06 9.5775287017101774e-07 0.0000000000000000e+00  2.5861264844330029e-06 1.5739497694185676e-06 0.0000000000000000e+00  2.0675796193902367e-06 2.1174311042018857e-06 0.0000000000000000e+00  1.5030235382887253e-06 2.5941044383904645e-06 0.0000000000000000e+00  9.7432695113692708e-07 2.9653925292077263e-06 0.0000000000000000e+00  4.9272610389836218e-07 3.1432328991579728e-06 0.0000000000000000e+00  1.8769602693094557e-07 3.0352725660110425e-06 0.0000000000000000e+00  -5.1781199757672724e-08 -1.1960857927457055e-07 0.0000000000000000e+00  3.7384805929015434e-07 -5.6448163402324548e-05 0.0000000000000000e+00  1.9431314255239742e-06 -5.3197594465672122e-05 0.0000000000000000e+00  4.0546049641681224e-06 -4.7892063893173977e-05 0.0000000000000000e+00  1.6327928467695186e-06 -5.6270357705996589e-07 0.0000000000000000e+00  5.1690879845779736e-06 -4.4566300537625480e-05 0.0000000000000000e+00  2.9200389974822285e-06 -1.3172554367179189e-06 0.0000000000000000e+00  6.1819958836585493e-06 -4.1226867822939569e-05 0.0000000000000000e+00  4.7849429228403187e-06 -3.2792831383423992e-06 0.0000000000000000e+00  5.8090770481229567e-06 -4.9232249000735596e-06 0.0000000000000000e+00  7.0424770722105001e-06 -3.7920683325075061e-05 0.0000000000000000e+00  7.7920238503713215e-06 -1.0106670196335826e-05 0.0000000000000000e+00  8.3114719351673834e-06 -3.1435422855483057e-05 0.0000000000000000e+00  6.6637694276792923e-06 -6.6969240054495779e-06 0.0000000000000000e+00  8.3402008920244137e-06 -1.2523909029394440e-05 0.0000000000000000e+00  8.7221568941109510e-06 -2.8273617020524262e-05 0.0000000000000000e+00  7.7519989272046996e-06 -3.4654086477157097e-05 0.0000000000000000e+00  8.7409723290852375e-06 -1.5114269094185766e-05 0.0000000000000000e+00  8.9843540287232149e-06 -2.5181740096617341e-05 0.0000000000000000e+00  8.9674182226686827e-06 -1.7698705832876571e-05 0.0000000000000000e+00  9.1275386452290036e-06 -2.2265963586622180e-05 0.0000000000000000e+00  9.0741326239741399e-06 -1.9864998442333265e-05 0.0000000000000000e+00  7.2541941852588401e-06 -8.3165860076258048e-06 0.0000000000000000e+00  2.9488654041334362e-06 -5.0614777964888162e-05 0.0000000000000000e+00  3.8496329368406002e-06 -2.2176941308456367e-06 0.0000000000000000e+00  3.8906985975216499e-07 -5.4248062138130348e-05 0.0000000000000000e+00  7.4255038148582474e-07 9.9249520904626442e-07 0.0000000000000000e+00  5.0457878726462015e-06 -4.2322633882466155e-05 0.0000000000000000e+00  3.9515334405223554e-06 -4.5701413311367663e-05 0.0000000000000000e+00  2.5063478073183822e-06 -2.1332487081517936e-06 0.0000000000000000e+00  5.6226460862321038e-06 -4.9995946172538276e-06 0.0000000000000000e+00  7.4253935064220173e-06 -3.2391173619217007e-05 0.0000000000000000e+00  5.9888224504672590e-06 -3.8973093009731171e-05 0.0000000000000000e+00  8.5565689501195618e-06 -1.2128533208964473e-05 0.0000000000000000e+00  7.9219589951534478e-06 -2.9174086485208571e-05 0.0000000000000000e+00  6.6422601478701344e-06 -6.7449153891608916e-06 0.0000000000000000e+00  9.0593244518870109e-06 -1.4616723558781614e-05 0.0000000000000000e+00  8.2718068567932561e-06 -2.6020484556387851e-05 0.0000000000000000e+00  6.7813177704838054e-06 -3.5660008931648207e-05 0.0000000000000000e+00  9.5319819690961218e-06 -1.7415460332764073e-05 0.0000000000000000e+00  8.4769474042578924e-06 -2.2944139496962178e-05 0.0000000000000000e+00  -3.7695431370592909e-07 -7.8215483149440355e-07 0.0000000000000000e+00  -4.1399883125361127e-07 6.6842526394252795e-07 0.0000000000000000e+00  2.2094785163996276e-07 -5.8162847201761419e-05 0.0000000000000000e+00  9.9033596184662973e-07 -1.7169269947027823e-06 0.0000000000000000e+00  8.4