<?xml version="1.0"?>
<VTKFile type="UnstructuredGrid"  version="0.1"  >
<UnstructuredGrid>
<Piece  NumberOfPoints="1419" NumberOfCells="2698">
<Points>
<DataArray  type="Float64"  NumberOfComponents="3"  format="ascii">0 0 0  0 0.41 0  2.5 0 0  2.5 0.41 0  0.6 0.19 0  0.6 0.21 0  0.25 0.2 0  0.15 0.2 0  0.2489897948556636 0.21 0  0.2489897948556636 0.19 0  0.6 0.2 0  0 0.3807142857143437 0  0 0.3514285714286952 0  0 0.3221428571430699 0  0 0.29285714285744 0  0 0.2635714285718054 0  0 0.2342857142861561 0  0 0.2050000000005308 0  0 0.175714285714732 0  0 0.1464285714289574 0  0 0.1171428571431897 0  0 0.08785714285737878 0  0 0.05857142857161107 0  0 0.02928571428580012 0  0.03015443760436003 0 0  0.06140001986583606 0 0  0.09377624077125973 0 0  0.1273239957535082 0 0  0.1620856860351972 0 0  0.1981052433264291 0 0  0.235428184091502 0 0  0.2741016576309132 0 0  0.3141745521465447 0 0  0.3556974926295285 0 0  0.3987229542472677 0 0  0.4433053055141081 0 0  0.4895008759286886 0 0  0.5373680609405097 0 0  0.5869673343216626 0 0  0.6383613676634521 0 0  0.6916151138468254 0 0  0.7467958595648856 0 0  0.8039733463919316 0 0  0.8632198139502143 0 0  0.9246101326867038 0 0  0.9882218810934433 0 0  1.054135445558498 0 0  1.122434100542598 0 0  1.193204177141305 0 0  1.266535089879536 0 0  1.342519516046404 0 0  1.421253448503939 0 0  1.502836389106271 0 0  1.587371439758838 0 0  1.674965418777374 0 0  1.765729001825544 0 0  1.859776908880082 0 0  1.957227977487062 0 0  2.058205329869943 0 0  2.162836591189951 0 0  2.271253957290865 0 0  2.383594446803425 0 0  2.5 0.1024999999997612 0  2.5 0.2049999999994743 0  2.5 0.3074999999997183 0  2.383594446803656 0.41 0  2.271253957291315 0.41 0  2.162836591190598 0.41 0  2.058205329870775 0.41 0  1.957227977488067 0.41 0  1.859776908881246 0.41 0  1.765729001826854 0.41 0  1.674965418778818 0.41 0  1.58737143976041 0.41 0  1.502836389107956 0.41 0  1.421253448505726 0.41 0  1.342519516048286 0.41 0  1.266535089881505 0.41 0  1.193204177143353 0.41 0  1.122434100544716 0.41 0  1.05413544556068 0.41 0  0.9882218810956305 0.41 0  0.9246101326886647 0.41 0  0.8632198139519631 0.41 0  0.8039733463934788 0.41 0  0.7467958595662458 0.41 0  0.6916151138480078 0.41 0  0.6383613676644679 0.41 0  0.5869673343225223 0.41 0  0.5373680609412221 0.41 0  0.4895008759292634 0.41 0  0.4433053055145528 0.41 0  0.3987229542475914 0.41 0  0.3556974926297398 0.41 0  0.3141745521466497 0.41 0  0.2741016576310038 0.41 0  0.2354281840915826 0.41 0  0.1981052433265003 0.41 0  0.1620856860352591 0.41 0  0.1273239957535623 0.41 0  0.09377624077128965 0.41 0  0.06140001986584975 0.41 0  0.03015443760436654 0.41 0  0.2497468076502589 0.2050254481002335 0  0.2497468076502614 0.1949745518997913 0  0.2469965252529372 0.1829317073451959 0  0.2439893735792749 0.1762316384219906 0  0.2400332147834255 0.1700443375285386 0  0.2352133972704371 0.1645032867342007 0  0.2296339016332438 0.1597280261969788 0  0.2234150974217223 0.1558215752574715 0  0.2166911463437691 0.1528682099456123 0  0.2096071079204251 0.1509316448471593 0  0.2023158100364996 0.1500536585536553 0  0.194974551899914 0.1502531923497262 0  0.1877417105387872 0.1515259415822739 0  0.1807733240461124 0.153844448527136 0  0.1742197252835808 0.15715869474974 0  0.1682222986673531 0.1613971801805478 0  0.162910430003803 0.1664684656256651 0  0.1583987151779087 0.1722631454351573 0  0.1547844879126891 0.178656207771761 0  0.1521457199348551 0.1855097315605723 0  0.1505393388476355 0.1926758619366523 0  0.1505393388476328 0.2073241380633295 0  0.1521457199348437 0.2144902684393899 0  0.1547844879126531 0.221343792228163 0  0.1583987151778488 0.2277368545647528 0  0.1629104300036858 0.2335315343742052 0  0.1682222986671726 0.2386028198193036 0  0.1742197252833576 0.2428413052501257 0  0.1807733240458683 0.2461555514727623 0  0.1877417105384929 0.2484740584176516 0  0.1949745518995776 0.2497468076502398 0  0.202315810036185 0.2499463414463592 0  0.2096071079201568 0.2490683551528932 0  0.2166911463435495 0.2471317900544655 0  0.2234150974215506 0.2441784247426195 0  0.2296339016331197 0.2402719738031125 0  0.2352133972703547 0.2354967132658811 0  0.2400332147833751 0.2299556624715287 0  0.2439893735792577 0.2237683615780412 0  0.246996525252926 0.2170682926548348 0  0.25645809709277 0.21 0  0.2639263993298655 0.21 0  0.271394701566961 0.21 0  0.2788630038040554 0.21 0  0.2863313060411479 0.21 0  0.2937996082782405 0.21 0  0.301267910515333 0.21 0  0.3087362127524279 0.21 0  0.3162045149895234 0.21 0  0.3236728172265972 0.21 0  0.3311411194636928 0.21 0  0.3386094217007701 0.21 0  0.3460777239378666 0.21 0  0.3535460261749672 0.21 0  0.3610143284120516 0.21 0  0.3684826306491596 0.21 0  0.3759509328862226 0.21 0  0.383419235123329 0.21 0  0.3908875373604028 0.21 0  0.3983558395975142 0.21 0  0.4058241418345938 0.21 0  0.4132924440716992 0.21 0  0.4207607463087888 0.21 0  0.4282290485459029 0.21 0  0.4356973507830418 0.21 0  0.4431656530201649 0.21 0  0.4506339552573136 0.21 0  0.4581022574944306 0.21 0  0.4655705597315852 0.21 0  0.4730388619686996 0.21 0  0.480507164205851 0.21 0  0.4879754664429498 0.21 0  0.4954437686800938 0.21 0  0.502912070917267 0.21 0  0.5103803731544119 0.21 0  0.5178486753915261 0.21 0  0.5253169776286404 0.21 0  0.5327852798657868 0.21 0  0.5402535821029386 0.21 0  0.54772188434007 0.21 0  0.5551901865771842 0.21 0  0.5626584888143201 0.21 0  0.5701267910514778 0.21 0  0.5775950932886138 0.21 0  0.5850633955257281 0.21 0  0.5925316977628483 0.21 0  0.6 0.2050000000000054 0  0.6 0.1950000000000217 0  0.5925316977628897 0.19 0  0.5850633955257988 0.19 0  0.5775950932887378 0.19 0  0.5701267910515998 0.19 0  0.5626584888145268 0.19 0  0.5551901865773963 0.19 0  0.547721884340339 0.19 0  0.5402535821032429 0.19 0  0.5327852798661811 0.19 0  0.5253169776290537 0.19 0  0.5178486753919799 0.19 0  0.5103803731549078 0.19 0  0.502912070917822 0.19 0  0.4954437686807294 0.19 0  0.4879754664436223 0.19 0  0.4805071642065402 0.19 0  0.4730388619694271 0.19 0  0.4655705597323621 0.19 0  0.4581022574952563 0.19 0  0.4506339552581777 0.19 0  0.4431656530210671 0.19 0  0.4356973507839815 0.19 0  0.4282290485468779 0.19 0  0.4207607463097617 0.19 0  0.4132924440726327 0.19 0  0.4058241418354857 0.19 0  0.3983558395983636 0.19 0  0.3908875373612097 0.19 0  0.3834192351240934 0.19 0  0.3759509328869369 0.19 0  0.3684826306498175 0.19 0  0.361014328412667 0.19 0  0.3535460261755617 0.19 0  0.3460777239384295 0.19 0  0.3386094217012945 0.19 0  0.3311411194641595 0.19 0  0.3236728172270245 0.19 0  0.3162045149898895 0.19 0  0.3087362127527544 0.19 0  0.3012679105156187 0.19 0  0.2937996082784807 0.19 0  0.2863313060413428 0.19 0  0.2788630038042048 0.19 0  0.2713947015670686 0.19 0  0.2639263993299336 0.19 0  0.2564580970927985 0.19 0  0.2607803159922026 0.2000727136295815 0  0.5887803774232762 0.2001272386983733 0  0.5745072403740523 0.2002044435018727 0  0.5511891430099709 0.2001122610077113 0  0.2751288526855082 0.20000000000002 0  0.5365194309847112 0.1999999999999436 0  0.2894621222999649 0.1998691686390484 0  0.5215828265105155 0.1999999999999228 0  0.3127789816668748 0.1998657885438805 0  0.3274069683451451 0.2000000000000796 0  0.5066462220363641 0.199999999999908 0  0.3650630746574081 0.199866017807523 0  0.476773013087985 0.1999999999998713 0  0.3417402379596385 0.1998691686391011 0  0.3796850840047755 0.200000000000134 0  0.4618364086138087 0.1999999999998546 0  0.4917096175621762 0.1999999999998808 0  0.3946216884789568 0.2000000000001512 0  0.446899804139621 0.1999999999998389 0  0.4089549580935208 0.1998691686391595 0  0.4322718174608562 0.200127451265745 0  0.4201487168029707 0.1999966199048527 0  0.3528922713220932 0.2000185703532356 0  0.5633122436674589 0.1999814296467508 0  0.3006558810093873 0.1999966199048318 0  0.5815926498168407 0.1966545283159175 0  0.2677053789419034 0.1964246479135325 0  0.5290511287476175 0.1970915826863981 0  0.5439877332217911 0.197091582686394 0  0.2825131256993216 0.2035478995978015 0  0.3199386661080599 0.202908417313604 0  0.4842413153250809 0.1970915826863873 0  0.5141145242734466 0.1970915826863843 0  0.3722167817676917 0.2029084173136195 0  0.4693047108508938 0.1970915826863783 0  0.3348752705822316 0.202908417313609 0  0.3871533862418661 0.2029084173136212 0  0.4543681063767183 0.1970915826863795 0  0.4991779197992749 0.1970915826863902 0  0.4020059614928624 0.203547899597858 0  0.4394315019025246 0.1970915826863714 0  0.2550657455369551 0.2034088125358657 0  0.2548908499171161 0.1966940311614271 0  0.5946539510196798 0.2024302972968126 0  0.267698176732111 0.2039977513680092 0  0.4261685417851465 0.196409292431739 0  0.3590076176283495 0.196411355804271 0  0.5571672426447437 0.2036011176410121 0  0.3066757059912147 0.1964092924317024 0  0.594380730180568 0.1966558399668133 0  0.4842413153245942 0.2040749161535287 0  0.4693047108503577 0.2040749161535231 0  0.3871533862424271 0.1959250838464788 0  0.372246743208829 0.1959123236376545 0  0.5141145242731028 0.2040749161535395 0  0.4543681063761134 0.2040749161535186 0  0.4019979587101454 0.1959834479682427 0  0.4394608940728603 0.2040870543693135 0  0.5439623148931173 0.2040856076781014 0  0.5290511287473298 0.2040749161535501 0  0.4991779197988497 0.2040749161535382 0  0.3347912413592433 0.1959225448935183 0  0.3199680582793816 0.1959123018030061 0  0.2825051229162361 0.1959834479681729 0  0.3590471196690275 0.2036304442587945 0  0.5571594006495384 0.1963685282145804 0  0.3067669986803285 0.203627750582736 0  0.4262598344738712 0.2036568242185335 0  0.5814408164431408 0.2041285596160068 0  0.5688286748170428 0.1961819304477386 0  0.4145905603063645 0.2038180695522843 0  0.3473758401724931 0.2038180695522752 0  0.2950977245128307 0.2038180695522663 0  0.5688286748170693 0.203818069552238 0  0.2950977245127906 0.1961819304477774 0  0.3473758401723931 0.1961819304478349 0  0.4145905603061963 0.1961819304479011 0  0.2601812407614425 0.2056861609747042
[...]
<PointData  Vectors="f_46-2"> 
<DataArray  type="Float64"  Name="f_46-2"  NumberOfComponents="3" format="ascii">0.0000000000000000e+00 0.0000000000000000e+00 0.0000000000000000e+00  0.0000000000000000e+00 0.0000000000000000e+00 0.0000000000000000e+00  0.0000000000000000e+00 0.0000000000000000e+00 0.0000000000000000e+00  0.0000000000000000e+00 0.0000000000000000e+00 0.0000000000000000e+00  -3.0554999680595864e-05 -4.0407397469324592e-05 0.0000000000000000e+00  -2.6816527635222896e-05 -4.5009403644769419e-05 0.0000000000000000e+00  0.0000000000000000e+00 -2.7770832874499632e-21 0.0000000000000000e+00  0.0000000000000000e+00 0.0000000000000000e+00 0.0000000000000000e+00  0.0000000000000000e+00 0.0000000000000000e+00 0.0000000000000000e+00  0.0000000000000000e+00 0.0000000000000000e+00 0.0000000000000000e+00  -2.8894892250636336e-05 -4.2707741059731710e-05 0.0000000000000000e+00  0.0000000000000000e+00 0.0000000000000000e+00 0.0000000000000000e+00  0.0000000000000000e+00 0.0000000000000000e+00 0.0000000000000000e+00  0.0000000000000000e+00 0.0000000000000000e+00 0.0000000000000000e+00  0.0000000000000000e+00 0.0000000000000000e+00 0.0000000000000000e+00  0.0000000000000000e+00 0.0000000000000000e+00 0.0000000000000000e+00  0.0000000000000000e+00 0.0000000000000000e+00 0.0000000000000000e+00  0.0000000000000000e+00 0.0000000000000000e+00 0.0000000000000000e+00  0.0000000000000000e+00 0.0000000000000000e+00 0.0000000000000000e+00  0.0000000000000000e+00 0.0000000000000000e+00 0.0000000000000000e+00  0.0000000000000000e+00 0.0000000000000000e+00 0.0000000000000000e+00  0.0000000000000000e+00 0.0000000000000000e+00 0.0000000000000000e+00  0.0000000000000000e+00 0.0000000000000000e+00 0.0000000000000000e+00  0.0000000000000000e+00 0.0000000000000000e+00 0.0000000000000000e+00  0.0000000000000000e+00 0.0000000000000000e+00 0.0000000000000000e+00  0.0000000000000000e+00 0.0000000000000000e+00 0.0000000000000000e+00  0.0000000000000000e+00 0.0000000000000000e+00 0.0000000000000000e+00  0.0000000000000000e+00 0.0000000000000000e+00 0.0000000000000000e+00  0.0000000000000000e+00 0.0000000000000000e+00 0.0000000000000000e+00  0.0000000000000000e+00 0.0000000000000000e+00 0.0000000000000000e+00  0.0000000000000000e+00 0.0000000000000000e+00 0.0000000000000000e+00  0.0000000000000000e+00 0.0000000000000000e+00 0.0000000000000000e+00  0.0000000000000000e+00 0.0000000000000000e+00 0.0000000000000000e+00  0.0000000000000000e+00 0.0000000000000000e+00 0.0000000000000000e+00  0.0000000000000000e+00 0.0000000000000000e+00 0.0000000000000000e+00  -4.5996020988267906e-14 3.7329665531942349e-17 0.0000000000000000e+00  0.0000000000000000e+00 0.0000000000000000e+00 0.0000000000000000e+00  0.0000000000000000e+00 0.0000000000000000e+00 0.0000000000000000e+00  0.0000000000000000e+00 0.0000000000000000e+00 0.0000000000000000e+00  0.0000000000000000e+00 0.0000000000000000e+00 0.0000000000000000e+00  0.0000000000000000e+00 0.0000000000000000e+00 0.0000000000000000e+00  0.0000000000000000e+00 0.0000000000000000e+00 0.0000000000000000e+00  0.0000000000000000e+00 0.0000000000000000e+00 0.0000000000000000e+00  0.0000000000000000e+00 0.0000000000000000e+00 0.0000000000000000e+00  0.0000000000000000e+00 0.0000000000000000e+00 0.0000000000000000e+00  0.0000000000000000e+00 0.0000000000000000e+00 0.0000000000000000e+00  0.0000000000000000e+00 0.0000000000000000e+00 0.0000000000000000e+00  0.0000000000000000e+00 0.0000000000000000e+00 0.0000000000000000e+00  0.0000000000000000e+00 0.0000000000000000e+00 0.0000000000000000e+00  0.0000000000000000e+00 0.0000000000000000e+00 0.0000000000000000e+00  0.0000000000000000e+00 0.0000000000000000e+00 0.0000000000000000e+00  0.0000000000000000e+00 0.0000000000000000e+00 0.0000000000000000e+00  0.0000000000000000e+00 0.0000000000000000e+00 0.0000000000000000e+00  0.0000000000000000e+00 0.0000000000000000e+00 0.0000000000000000e+00  0.0000000000000000e+00 0.0000000000000000e+00 0.0000000000000000e+00  0.0000000000000000e+00 0.0000000000000000e+00 0.0000000000000000e+00  0.0000000000000000e+00 0.0000000000000000e+00 0.0000000000000000e+00  0.0000000000000000e+00 0.0000000000000000e+00 0.0000000000000000e+00  0.0000000000000000e+00 0.0000000000000000e+00 0.0000000000000000e+00  0.0000000000000000e+00 0.0000000000000000e+00 0.0000000000000000e+00  0.0000000000000000e+00 0.0000000000000000e+00 0.0000000000000000e+00  0.0000000000000000e+00 0.0000000000000000e+00 0.0000000000000000e+00  0.0000000000000000e+00 0.0000000000000000e+00 0.0000000000000000e+00  0.0000000000000000e+00 0.0000000000000000e+00 0.0000000000000000e+00  0.0000000000000000e+00 0.0000000000000000e+00 0.0000000000000000e+00  0.0000000000000000e+00 0.0000000000000000e+00 0.0000000000000000e+00  0.0000000000000000e+00 0.0000000000000000e+00 0.0000000000000000e+00  0.0000000000000000e+00 0.0000000000000000e+00 0.0000000000000000e+00  0.0000000000000000e+00 0.0000000000000000e+00 0.0000000000000000e+00  0.0000000000000000e+00 0.0000000000000000e+00 0.0000000000000000e+00  0.0000000000000000e+00 0.0000000000000000e+00 0.0000000000000000e+00  0.0000000000000000e+00 0.0000000000000000e+00 0.0000000000000000e+00  0.0000000000000000e+00 0.0000000000000000e+00 0.0000000000000000e+00  0.0000000000000000e+00 0.0000000000000000e+00 0.0000000000000000e+00  0.0000000000000000e+00 0.0000000000000000e+00 0.0000000000000000e+00  0.0000000000000000e+00 0.0000000000000000e+00 0.0000000000000000e+00  0.0000000000000000e+00 0.0000000000000000e+00 0.0000000000000000e+00  0.0000000000000000e+00 0.0000000000000000e+00 0.0000000000000000e+00  0.0000000000000000e+00 0.0000000000000000e+00 0.0000000000000000e+00  0.0000000000000000e+00 0.0000000000000000e+00 0.0000000000000000e+00  0.0000000000000000e+00 0.0000000000000000e+00 0.0000000000000000e+00  0.0000000000000000e+00 0.0000000000000000e+00 0.0000000000000000e+00  0.0000000000000000e+00 0.0000000000000000e+00 0.0000000000000000e+00  0.0000000000000000e+00 0.0000000000000000e+00 0.0000000000000000e+00  0.0000000000000000e+00 0.0000000000000000e+00 0.0000000000000000e+00  0.0000000000000000e+00 0.0000000000000000e+00 0.0000000000000000e+00  0.0000000000000000e+00 0.0000000000000000e+00 0.0000000000000000e+00  0.0000000000000000e+00 0.0000000000000000e+00 0.0000000000000000e+00  0.0000000000000000e+00 0.0000000000000000e+00 0.0000000000000000e+00  0.0000000000000000e+00 0.0000000000000000e+00 0.0000000000000000e+00  0.0000000000000000e+00 0.0000000000000000e+00 0.0000000000000000e+00  0.0000000000000000e+00 0.0000000000000000e+00 0.0000000000000000e+00  0.0000000000000000e+00 0.0000000000000000e+00 0.0000000000000000e+00  0.0000000000000000e+00 0.0000000000000000e+00 0.0000000000000000e+00  -8.6670954546926356e-14 0.0000000000000000e+00 0.0000000000000000e+00  0.0000000000000000e+00 0.0000000000000000e+00 0.0000000000000000e+00  0.0000000000000000e+00 0.0000000000000000e+00 0.0000000000000000e+00  0.0000000000000000e+00 0.0000000000000000e+00 0.0000000000000000e+00  0.0000000000000000e+00 0.0000000000000000e+00 0.0000000000000000e+00  0.0000000000000000e+00 0.0000000000000000e+00 0.0000000000000000e+00  0.0000000000000000e+00 0.0000000000000000e+00 0.0000000000000000e+00  0.0000000000000000e+00 0.0000000000000000e+00 0.0000000000000000e+00  0.0000000000000000e+00 0.0000000000000000e+00 0.0000000000000000e+00  0.0000000000000000e+00 0.0000000000000000e+00 0.0000000000000000e+00  0.0000000000000000e+00 0.0000000000000000e+00 0.0000000000000000e+00  -3.7073755638737096e-14 3.4982250725293065e-12 0.0000000000000000e+00  0.0000000000000000e+00 0.0000000000000000e+00 0.0000000000000000e+00  0.0000000000000000e+00 0.0000000000000000e+00 0.0000000000000000e+00  0.0000000000000000e+00 0.0000000000000000e+00 0.0000000000000000e+00  0.0000000000000000e+00 0.0000000000000000e+00 0.0000000000000000e+00  0.0000000000000000e+00 0.0000000000000000e+00 0.0000000000000000e+00  0.0000000000000000e+00 0.0000000000000000e+00 0.0000000000000000e+00  0.0000000000000000e+00 0.0000000000000000e+00 0.0000000000000000e+00  0.0000000000000000e+00 0.0000000000000000e+00 0.0000000000000000e+00  0.0000000000000000e+00 0.0000000000000000e+00 0.0000000000000000e+00  0.0000000000000000e+00 0.0000000000000000e+00 0.0000000000000000e+00  0.0000000000000000e+00 0.0000000000000000e+00 0.0000000000000000e+00  0.0000000000000000e+00 0.0000000000000000e+00 0.0000000000000000e+00  0.0000000000000000e+00 0.0000000000000000e+00 0.0000000000000000e+00  0.0000000000000000e+00 0.0000000000000000e+00 0.0000000000000000e+00  0.0000000000000000e+00 0.0000000000000000e+00 0.0000000000000000e+00  0.0000000000000000e+00 0.0000000000000000e+00 0.0000000000000000e+00  0.0000000000000000e+00 0.0000000000000000e+00 0.0000000000000000e+00  0.0000000000000000e+00 0.0000000000000000e+00 0.0000000000000000e+00  0.0000000000000000e+00 0.0000000000000000e+00 0.0000000000000000e+00  0.0000000000000000e+00 0.0000000000000000e+00 0.0000000000000000e+00  0.0000000000000000e+00 0.0000000000000000e+00 0.0000000000000000e+00  0.0000000000000000e+00 0.0000000000000000e+00 0.0000000000000000e+00  0.0000000000000000e+00 0.0000000000000000e+00 0.0000000000000000e+00  0.0000000000000000e+00 0.0000000000000000e+00 0.0000000000000000e+00  0.0000000000000000e+00 0.0000000000000000e+00 0.0000000000000000e+00  0.0000000000000000e+00 0.0000000000000000e+00 0.0000000000000000e+00  0.0000000000000000e+00 0.0000000000000000e+00 0.0000000000000000e+00  0.0000000000000000e+00 0.0000000000000000e+00 0.0000000000000000e+00  0.0000000000000000e+00 0.0000000000000000e+00 0.0000000000000000e+00  0.0000000000000000e+00 0.0000000000000000e+00 0.0000000000000000e+00  0.0000000000000000e+00 0.0000000000000000e+00 0.0000000000000000e+00  0.0000000000000000e+00 0.0000000000000000e+00 0.0000000000000000e+00  0.0000000000000000e+00 0.0000000000000000e+00 0.0000000000000000e+00  0.0000000000000000e+00 0.0000000000000000e+00 0.0000000000000000e+00  0.0000000000000000e+00 0.0000000000000000e+00 0.0000000000000000e+00  0.0000000000000000e+00 0.0000000000000000e+00 0.0000000000000000e+00  1.2298172305609615e-14 4.6265872100294772e-15 0.0000000000000000e+00  -2.9264068129448317e-07 -3.8885860643265894e-06 0.0000000000000000e+00  -4.7249979306803122e-07 -4.2378637595308093e-06 0.0000000000000000e+00  -4.6639856961183121e-07 -4.4158184489905433e-06 0.0000000000000000e+00  -3.6417554084762888e-07 -4.5178095847688334e-06 0.0000000000000000e+00  -2.4996593226089257e-07 -4.6646309844829561e-06 0.0000000000000000e+00  -1.5933934124631285e-07 -4.8981446963170098e-06 0.0000000000000000e+00  -1.0376075667828052e-07 -5.1700189691226107e-06 0.0000000000000000e+00  -8.6491861158658049e-08 -5.4990642484161468e-06 0.0000000000000000e+00  -8.0658119692851459e-08 -5.8767548692601754e-06 0.0000000000000000e+00  -1.2784330323669325e-07 -6.2937098859049926e-06 0.0000000000000000e+00  -1.9056024136788783e-07 -6.7761609518089122e-06 0.0000000000000000e+00  -3.0473059390386614e-07 -7.2890262679605079e-06 0.0000000000000000e+00  -4.4370057341284433e-07 -7.8578423017503488e-06 0.0000000000000000e+00  -6.2236042345879187e-07 -8.4674823915296218e-06 0.0000000000000000e+00  -8.4339724564506896e-07 -9.1220629522351047e-06 0.0000000000000000e+00  -1.0802841997203111e-06 -9.8237076476998110e-06 0.0000000000000000e+00  -1.3710893642335836e-06 -1.0549658354708642e-05 0.0000000000000000e+00  -1.6848710252618581e-06 -1.1337205537019840e-05 0.0000000000000000e+00  -2.0480024402233559e-06 -1.2139141028084430e-05 0.0000000000000000e+00  -2.4343020641502391e-06 -1.2998617290063535e-05 0.0000000000000000e+00  -2.8667956942106254e-06 -1.3871882498440852e-05 0.0000000000000000e+00  -3.3333455071724355e-06 -1.4792058719367324e-05 0.0000000000000000e+00  -3.8337420775153114e-06 -1.5739750627122026e-05 0.0000000000000000e+00  -4.3771856712823665e-06 -1.6717114075242568e-05 0.0000000000000000e+00  -4.9405471291442028e-06 -1.7729709067778301e-05 0.0000000000000000e+00  -5.5519787645977130e-06 -1.8755134804330421e-05 0.0000000000000000e+00  -6.1984915713134166e-06 -1.9832523430111977e-05 0.0000000000000000e+00  -6.8825400952887027e-06 -2.0911080327441872e-05 0.0000000000000000e+00  -7.6022297184717375e-06 -2.2036964720233813e-05 0.0000000000000000e+00  -8.3591010007048538e-06 -2.3165848004412265e-05 0.0000000000000000e+00  -9.1510128088620144e-06 -2.4337219684099285e-05 0.0000000000000000e+00  -9.9821164578408856e-06 -2.5509105674487308e-05 0.0000000000000000e+00  -1.0845661447363080e-05 -2.6722555562915902e-05 0.0000000000000000e+00  -1.1750368099599713e-05 -2.7929672545239118e-05 0.0000000000000000e+00  -1.2692706096164842e-05 -2.9180330734492610e-05 0.0000000000000000e+00  -1.3671924852771920e-05 -3.0424018943252019e-05 0.0000000000000000e+00  -1.4686675189283860e-05 -3.1703912421273279e-05 0.0000000000000000e+00  -1.5739612355330139e-05 -3.2974622155928426e-05 0.0000000000000000e+00  -1.6830520983005617e-05 -3.4278168795325305e-05 0.0000000000000000e+00  -1.7961721471213392e-05 -3.5571434642662595e-05 0.0000000000000000e+00  -1.9134312346985350e-05 -3.6887113904493179e-05 0.0000000000000000e+00  -2.0338297342874316e-05 -3.8201009575101897e-05 0.0000000000000000e+00  -2.1589282203701457e-05 -3.9525711322457979e-05 0.0000000000000000e+00  -2.2862537670909486e-05 -4.0852524669446894e-05 0.0000000000000000e+00  -2.4180944972935201e-05 -4.2170918868104033e-05 0.0000000000000000e+00  -2.5513780693288063e-05 -4.3520998432014281e-05 0.0000000000000000e+00  -2.7930547961914611e-05 -4.3856842541556015e-05 0.0000000000000000e+00  -2.9789859675377745e-05 -4.1560925516789308e-05 0.0000000000000000e+00  -2.9240330180699152e-05 -3.9109835063696537e-05 0.0000000000000000e+00  -2.7891521117196146e-05 -3.7676631304809112e-05 0.0000000000000000e+00  -2.6559845000934426e-05 -3.6228480797383473e-05 0.0000000000000000e+00  -2.5268441320838481e-05 -3.4798251324589959e-05 0.0000000000000000e+00  -2.4000799569382160e-05 -3.3373410915051186e-05 0.0000000000000000e+00  -2.2779237695460401e-05 -3.1956983661119555e-05 0.0000000000000000e+00  -2.1582764421909216e-05 -3.0552492519472046e-05 0.0000000000000000e+00  -2.0428814767237942e-05 -2.9147119276025736e-05 0.0000000000000000e+00  -1.9305161926675585e-05 -2.7770040061435591e-05 0.0000000000000000e+00  -1.8219992692711720e-05 -2.6384616880242079e-05 0.0000000000000000e+00  -1.7164335526504272e-05 -2.5031737611299644e-05 0.0000000000000000e+00  -1.6148219357379420e-05 -2.3674005072972123e-05 0.0000000000000000e+00  -1.5160358071874796e-05 -2.2352591057066909e-05 0.0000000000000000e+00  -1.4211459877514716e-05 -2.1029840355932957e-05 0.0000000000000000e+00  -1.3289147134027780e-05 -1.9745550721822321e-05 0.0000000000000000e+00  -1.2407410830142522e-05 -1.8461776040851645e-05 0.0000000000000000e+00  -1.1551914983390859e-05 -1.7218041800760109e-05 0.0000000000000000e+00  -1.0738262843745969e-05 -1.5977147528788098e-05 0.0000000000000000e+00  -9.9499299751625763e-06 -1.4780473801885767e-05 0.0000000000000000e+00  -9.2029051204262146e-06 -1.3590020990992114e-05 0.0000000000000000e+00  -8.4796032634903344e-06 -1.2445173389284625e-05 0.0000000000000000e+00  -7.7988461864202912e-06 -1.1309437310542689e-05 0.0000000000000000e+00  -7.1465880143877177e-06 -1.0213629222857495e-05 0.0000000000000000e+00  -6.5277787625548678e-06 -9.1410729594087776e-06 0.0000000000000000e+00  -5.9508062101926468e-06 -8.1048793179168746e-06 0.0000000000000000e+00  -5.3876179747170143e-06 -7.0993844573317184e-06 0.0000000000000000e+00  -4.8692962205051149e-06 -6.1186699520596614e-06 0.0000000000000000e+00  -4.3786384953594048e-06 -5.1922229778229415e-06 0.0000000000000000e+00  -3.9251597073536640e-06 -4.2789448222647952e-06 0.0000000000000000e+00  -3.5013282586377706e-06 -3.4259018375963932e-06 0.0000000000000000e+00  -3.1136192508359850e-06 -2.5888555586250017e-06 0.0000000000000000e+00  -2.7547831558519672e-06 -1.8131186966311479e-06 0.0000000000000000e+00  -2.4278825893355351e-06 -1.0641654626631897e-06 0.0000000000000000e+00  -2.1406180658474519e-06 -3.7071426390851904e-07 0.0000000000000000e+00  -1.8649053129083913e-06 2.8676189695844139e-07 0.0000000000000000e+00  -1.6341107580281651e-06 8.9887171214409509e-07 0.0000000000000000e+00  -1.4307451439062582e-06 1.4467107321830661e-06 0.0000000000000000e+00  -1.2637422911978301e-06 1.9634935883453573e-06 0.0000000000000000e+00  -1.1229384243253567e-06 2.4145586391748747e-06 0.0000000000000000e+00  -1.0159015826388423e-06 2.8265377696157236e-06 0.0000000000000000e+00  -9.4728867167139389e-07 3.1778270464757343e-06 0.0000000000000000e+00  -8.8638076927089216e-07 3.4825790509776399e-06 0.0000000000000000e+00  -8.7261472121210621e-07 3.7645333400766729e-06 0.0000000000000000e+00  -8.2527750430037121e-07 3.9807067890106809e-06 0.0000000000000000e+00  -7.1312855408141144e-07 4.0210130509861715e-06 0.0000000000000000e+00  -4.1533236953907016e-07 3.7824767782577831e-06 0.0000000000000000e+00  -1.2266760119379674e-06 -6.7513346710323538e-08 0.0000000000000000e+00  -2.6755013192543670e-05 -4.0639574633940090e-05 0.0000000000000000e+00  -2.4157690279381407e-05 -3.8012359318840708e-05 0.0000000000000000e+00  -2.0315675088062201e-05 -3.3714562423792532e-05 0.0000000000000000e+00  -6.6378456957465112e-07 -2.5942737828727753e-07 0.0000000000000000e+00  -1.8096358233924659e-05 -3.1033524660813241e-05 0.0000000000000000e+00  -5.7175471375920348e-07 -6.0887229221614976e-07 0.0000000000000000e+00  -1.5955271871377108e-05 -2.8375054316512509e-05 0.0000000000000000e+00  -6.6137851618779613e-07 -1.6746469630229076e-06 0.0000000000000000e+00  -8.6402860832101333e-07 -2.6440632477785436e-06 0.0000000000000000e+00  -1.3957456590835016e-05 -2.5771879482099406e-05 0.0000000000000000e+00  -1.9869693694842300e-06 -5.7869322797151435e-06 0.0000000000000000e+00  -1.0386888630024786e-05 -2.0778620041312988e-05 0.0000000000000000e+00  -1.1941292163518810e-06 -3.6714323358379703e-06 0.0000000000000000e+00  -2.6396177580244152e-06 -7.3685268611813097e-06 0.0000000000000000e+00  -8.8124728999269403e-06 -1.8407953612003960e-05 0.0000000000000000e+00  -1.2101562708455320e-05 -2.3236123714981838e-05 0.0000000000000000e+00  -3.4504107380488855e-06 -9.0838621158937945e-06 0.0000000000000000e+00  -7.3780236590570433e-06 -1.6135361200566524e-05 0.0000000000000000e+00  -4.3716014173593564e-06 -1.0818209940298011e-05 0.0000000000000000e+00  -6.0863474215563817e-06 -1.4054005379858803e-05 0.0000000000000000e+00  -5.1649105082027491e-06 -1.2341863072091518e-05 0.0000000000000000e+00  -1.5303682511785485e-06 -4.6928745045235894e-06 0.0000000000000000e+00  -2.2313199416301199e-05 -3.5899642159376018e-05 0.0000000000000000e+00  -5.8377012790418795e-07 -1.1186870428505087e-06 0.0000000000000000e+00  -2.6074237955218082e-05 -3.8521602969939941e-05 0.0000000000000000e+00  -8.9792222080701905e-07 1.4386695163038932e-06 0.0000000000000000e+00  -1.7524496376973196e-05 -2.8934237307235143e-05 0.0000000000000000e+00  -1.9745778127278918e-05 -3.1642355441346332e-05 0.0000000000000000e+00  -5.0084506155674832e-07 -1.9031931522774740e-06 0.0000000000000000e+00  -5.6156946063449355e-07 -3.2892397961655066e-06 0.0000000000000000e+00  -1.1704538037886839e-05 -2.1152833084040846e-05 0.0000000000000000e+00  -1.5444347621294410e-05 -2.6274781464961266e-05 0.0000000000000000e+00  -1.9818187370783865e-06 -7.6136469382967352e-06 0.0000000000000000e+00  -1.0042842993964435e-05 -1.8710660065872496e-05 0.0000000000000000e+00  -7.9983019424498755e-07 -4.2969887834239986e-06 0.0000000000000000e+00  -2.6971401069344328e-06 -9.2301302086448202e-06 0.0000000000000000e+00  -8.5199272171400098e-06 -1.6361343532455989e-05 0.0000000000000000e+00  -1.3505026012979531e-05 -2.3676894753350535e-05 0.0000000000000000e+00  -3.4633622089262677e-06 -1.1200716362532131e-05 0.0000000000000000e+00  -7.1338183386996209e-06 -1.4115495387206540e-05 0.0000000000000000e+00  -1.0329329099984803e-06 -9.2973972434412086e-07 0.0000000000000000e+00  -1.0304703769363024e-06 8.2419647460236844e-07 0.0000000000000000e+00  -2.743163838959133