<?xml version="1.0"?>
<VTKFile type="UnstructuredGrid"  version="0.1"  >
<UnstructuredGrid>
<Piece  NumberOfPoints="1419" NumberOfCells="2698">
<Points>
<DataArray  type="Float64"  NumberOfComponents="3"  format="ascii">0 0 0  0 0.41 0  2.5 0 0  2.5 0.41 0  0.6 0.19 0  0.6 0.21 0  0.25 0.2 0  0.15 0.2 0  0.2489897948556636 0.21 0  0.2489897948556636 0.19 0  0.6 0.2 0  0 0.3807142857143437 0  0 0.3514285714286952 0  0 0.3221428571430699 0  0 0.29285714285744 0  0 0.2635714285718054 0  0 0.2342857142861561 0  0 0.2050000000005308 0  0 0.175714285714732 0  0 0.1464285714289574 0  0 0.1171428571431897 0  0 0.08785714285737878 0  0 0.05857142857161107 0  0 0.02928571428580012 0  0.03015443760436003 0 0  0.06140001986583606 0 0  0.09377624077125973 0 0  0.1273239957535082 0 0  0.1620856860351972 0 0  0.1981052433264291 0 0  0.235428184091502 0 0  0.2741016576309132 0 0  0.3141745521465447 0 0  0.3556974926295285 0 0  0.3987229542472677 0 0  0.4433053055141081 0 0  0.4895008759286886 0 0  0.5373680609405097 0 0  0.5869673343216626 0 0  0.6383613676634521 0 0  0.6916151138468254 0 0  0.7467958595648856 0 0  0.8039733463919316 0 0  0.8632198139502143 0 0  0.9246101326867038 0 0  0.9882218810934433 0 0  1.054135445558498 0 0  1.122434100542598 0 0  1.193204177141305 0 0  1.266535089879536 0 0  1.342519516046404 0 0  1.421253448503939 0 0  1.502836389106271 0 0  1.587371439758838 0 0  1.674965418777374 0 0  1.765729001825544 0 0  1.859776908880082 0 0  1.957227977487062 0 0  2.058205329869943 0 0  2.162836591189951 0 0  2.271253957290865 0 0  2.383594446803425 0 0  2.5 0.1024999999997612 0  2.5 0.2049999999994743 0  2.5 0.3074999999997183 0  2.383594446803656 0.41 0  2.271253957291315 0.41 0  2.162836591190598 0.41 0  2.058205329870775 0.41 0  1.957227977488067 0.41 0  1.859776908881246 0.41 0  1.765729001826854 0.41 0  1.674965418778818 0.41 0  1.58737143976041 0.41 0  1.502836389107956 0.41 0  1.421253448505726 0.41 0  1.342519516048286 0.41 0  1.266535089881505 0.41 0  1.193204177143353 0.41 0  1.122434100544716 0.41 0  1.05413544556068 0.41 0  0.9882218810956305 0.41 0  0.9246101326886647 0.41 0  0.8632198139519631 0.41 0  0.8039733463934788 0.41 0  0.7467958595662458 0.41 0  0.6916151138480078 0.41 0  0.6383613676644679 0.41 0  0.5869673343225223 0.41 0  0.5373680609412221 0.41 0  0.4895008759292634 0.41 0  0.4433053055145528 0.41 0  0.3987229542475914 0.41 0  0.3556974926297398 0.41 0  0.3141745521466497 0.41 0  0.2741016576310038 0.41 0  0.2354281840915826 0.41 0  0.1981052433265003 0.41 0  0.1620856860352591 0.41 0  0.1273239957535623 0.41 0  0.09377624077128965 0.41 0  0.06140001986584975 0.41 0  0.03015443760436654 0.41 0  0.2497468076502589 0.2050254481002335 0  0.2497468076502614 0.1949745518997913 0  0.2469965252529372 0.1829317073451959 0  0.2439893735792749 0.1762316384219906 0  0.2400332147834255 0.1700443375285386 0  0.2352133972704371 0.1645032867342007 0  0.2296339016332438 0.1597280261969788 0  0.2234150974217223 0.1558215752574715 0  0.2166911463437691 0.1528682099456123 0  0.2096071079204251 0.1509316448471593 0  0.2023158100364996 0.1500536585536553 0  0.194974551899914 0.1502531923497262 0  0.1877417105387872 0.1515259415822739 0  0.1807733240461124 0.153844448527136 0  0.1742197252835808 0.15715869474974 0  0.1682222986673531 0.1613971801805478 0  0.162910430003803 0.1664684656256651 0  0.1583987151779087 0.1722631454351573 0  0.1547844879126891 0.178656207771761 0  0.1521457199348551 0.1855097315605723 0  0.1505393388476355 0.1926758619366523 0  0.1505393388476328 0.2073241380633295 0  0.1521457199348437 0.2144902684393899 0  0.1547844879126531 0.221343792228163 0  0.1583987151778488 0.2277368545647528 0  0.1629104300036858 0.2335315343742052 0  0.1682222986671726 0.2386028198193036 0  0.1742197252833576 0.2428413052501257 0  0.1807733240458683 0.2461555514727623 0  0.1877417105384929 0.2484740584176516 0  0.1949745518995776 0.2497468076502398 0  0.202315810036185 0.2499463414463592 0  0.2096071079201568 0.2490683551528932 0  0.2166911463435495 0.2471317900544655 0  0.2234150974215506 0.2441784247426195 0  0.2296339016331197 0.2402719738031125 0  0.2352133972703547 0.2354967132658811 0  0.2400332147833751 0.2299556624715287 0  0.2439893735792577 0.2237683615780412 0  0.246996525252926 0.2170682926548348 0  0.25645809709277 0.21 0  0.2639263993298655 0.21 0  0.271394701566961 0.21 0  0.2788630038040554 0.21 0  0.2863313060411479 0.21 0  0.2937996082782405 0.21 0  0.301267910515333 0.21 0  0.3087362127524279 0.21 0  0.3162045149895234 0.21 0  0.3236728172265972 0.21 0  0.3311411194636928 0.21 0  0.3386094217007701 0.21 0  0.3460777239378666 0.21 0  0.3535460261749672 0.21 0  0.3610143284120516 0.21 0  0.3684826306491596 0.21 0  0.3759509328862226 0.21 0  0.383419235123329 0.21 0  0.3908875373604028 0.21 0  0.3983558395975142 0.21 0  0.4058241418345938 0.21 0  0.4132924440716992 0.21 0  0.4207607463087888 0.21 0  0.4282290485459029 0.21 0  0.4356973507830418 0.21 0  0.4431656530201649 0.21 0  0.4506339552573136 0.21 0  0.4581022574944306 0.21 0  0.4655705597315852 0.21 0  0.4730388619686996 0.21 0  0.480507164205851 0.21 0  0.4879754664429498 0.21 0  0.4954437686800938 0.21 0  0.502912070917267 0.21 0  0.5103803731544119 0.21 0  0.5178486753915261 0.21 0  0.5253169776286404 0.21 0  0.5327852798657868 0.21 0  0.5402535821029386 0.21 0  0.54772188434007 0.21 0  0.5551901865771842 0.21 0  0.5626584888143201 0.21 0  0.5701267910514778 0.21 0  0.5775950932886138 0.21 0  0.5850633955257281 0.21 0  0.5925316977628483 0.21 0  0.6 0.2050000000000054 0  0.6 0.1950000000000217 0  0.5925316977628897 0.19 0  0.5850633955257988 0.19 0  0.5775950932887378 0.19 0  0.5701267910515998 0.19 0  0.5626584888145268 0.19 0  0.5551901865773963 0.19 0  0.547721884340339 0.19 0  0.5402535821032429 0.19 0  0.5327852798661811 0.19 0  0.5253169776290537 0.19 0  0.5178486753919799 0.19 0  0.5103803731549078 0.19 0  0.502912070917822 0.19 0  0.4954437686807294 0.19 0  0.4879754664436223 0.19 0  0.4805071642065402 0.19 0  0.4730388619694271 0.19 0  0.4655705597323621 0.19 0  0.4581022574952563 0.19 0  0.4506339552581777 0.19 0  0.4431656530210671 0.19 0  0.4356973507839815 0.19 0  0.4282290485468779 0.19 0  0.4207607463097617 0.19 0  0.4132924440726327 0.19 0  0.4058241418354857 0.19 0  0.3983558395983636 0.19 0  0.3908875373612097 0.19 0  0.3834192351240934 0.19 0  0.3759509328869369 0.19 0  0.3684826306498175 0.19 0  0.361014328412667 0.19 0  0.3535460261755617 0.19 0  0.3460777239384295 0.19 0  0.3386094217012945 0.19 0  0.3311411194641595 0.19 0  0.3236728172270245 0.19 0  0.3162045149898895 0.19 0  0.3087362127527544 0.19 0  0.3012679105156187 0.19 0  0.2937996082784807 0.19 0  0.2863313060413428 0.19 0  0.2788630038042048 0.19 0  0.2713947015670686 0.19 0  0.2639263993299336 0.19 0  0.2564580970927985 0.19 0  0.2607803159922026 0.2000727136295815 0  0.5887803774232762 0.2001272386983733 0  0.5745072403740523 0.2002044435018727 0  0.5511891430099709 0.2001122610077113 0  0.2751288526855082 0.20000000000002 0  0.5365194309847112 0.1999999999999436 0  0.2894621222999649 0.1998691686390484 0  0.5215828265105155 0.1999999999999228 0  0.3127789816668748 0.1998657885438805 0  0.3274069683451451 0.2000000000000796 0  0.5066462220363641 0.199999999999908 0  0.3650630746574081 0.199866017807523 0  0.476773013087985 0.1999999999998713 0  0.3417402379596385 0.1998691686391011 0  0.3796850840047755 0.200000000000134 0  0.4618364086138087 0.1999999999998546 0  0.4917096175621762 0.1999999999998808 0  0.3946216884789568 0.2000000000001512 0  0.446899804139621 0.1999999999998389 0  0.4089549580935208 0.1998691686391595 0  0.4322718174608562 0.200127451265745 0  0.4201487168029707 0.1999966199048527 0  0.3528922713220932 0.2000185703532356 0  0.5633122436674589 0.1999814296467508 0  0.3006558810093873 0.1999966199048318 0  0.5815926498168407 0.1966545283159175 0  0.2677053789419034 0.1964246479135325 0  0.5290511287476175 0.1970915826863981 0  0.5439877332217911 0.197091582686394 0  0.2825131256993216 0.2035478995978015 0  0.3199386661080599 0.202908417313604 0  0.4842413153250809 0.1970915826863873 0  0.5141145242734466 0.1970915826863843 0  0.3722167817676917 0.2029084173136195 0  0.4693047108508938 0.1970915826863783 0  0.3348752705822316 0.202908417313609 0  0.3871533862418661 0.2029084173136212 0  0.4543681063767183 0.1970915826863795 0  0.4991779197992749 0.1970915826863902 0  0.4020059614928624 0.203547899597858 0  0.4394315019025246 0.1970915826863714 0  0.2550657455369551 0.2034088125358657 0  0.2548908499171161 0.1966940311614271 0  0.5946539510196798 0.2024302972968126 0  0.267698176732111 0.2039977513680092 0  0.4261685417851465 0.196409292431739 0  0.3590076176283495 0.196411355804271 0  0.5571672426447437 0.2036011176410121 0  0.3066757059912147 0.1964092924317024 0  0.594380730180568 0.1966558399668133 0  0.4842413153245942 0.2040749161535287 0  0.4693047108503577 0.2040749161535231 0  0.3871533862424271 0.1959250838464788 0  0.372246743208829 0.1959123236376545 0  0.5141145242731028 0.2040749161535395 0  0.4543681063761134 0.2040749161535186 0  0.4019979587101454 0.1959834479682427 0  0.4394608940728603 0.2040870543693135 0  0.5439623148931173 0.2040856076781014 0  0.5290511287473298 0.2040749161535501 0  0.4991779197988497 0.2040749161535382 0  0.3347912413592433 0.1959225448935183 0  0.3199680582793816 0.1959123018030061 0  0.2825051229162361 0.1959834479681729 0  0.3590471196690275 0.2036304442587945 0  0.5571594006495384 0.1963685282145804 0  0.3067669986803285 0.203627750582736 0  0.4262598344738712 0.2036568242185335 0  0.5814408164431408 0.2041285596160068 0  0.5688286748170428 0.1961819304477386 0  0.4145905603063645 0.2038180695522843 0  0.3473758401724931 0.2038180695522752 0  0.2950977245128307 0.2038180695522663 0  0.5688286748170693 0.203818069552238 0  0.2950977245127906 0.1961819304477774 0  0.3473758401723931 0.1961819304478349 0  0.4145905603061963 0.1961819304479011 0  0.2601812407614425 0.2056861609747042
[...]
<PointData  Vectors="f_46-2"> 
<DataArray  type="Float64"  Name="f_46-2"  NumberOfComponents="3" format="ascii">0.0000000000000000e+00 0.0000000000000000e+00 0.0000000000000000e+00  0.0000000000000000e+00 0.0000000000000000e+00 0.0000000000000000e+00  0.0000000000000000e+00 0.0000000000000000e+00 0.0000000000000000e+00  0.0000000000000000e+00 0.0000000000000000e+00 0.0000000000000000e+00  -3.1334771807965154e-06 -5.6360473830825835e-05 0.0000000000000000e+00  1.4115148430571422e-06 -5.9810209326035175e-05 0.0000000000000000e+00  0.0000000000000000e+00 -5.9392539537529191e-25 0.0000000000000000e+00  0.0000000000000000e+00 0.0000000000000000e+00 0.0000000000000000e+00  0.0000000000000000e+00 0.0000000000000000e+00 0.0000000000000000e+00  0.0000000000000000e+00 0.0000000000000000e+00 0.0000000000000000e+00  -1.1799228308311057e-06 -5.8087835217161574e-05 0.0000000000000000e+00  0.0000000000000000e+00 0.0000000000000000e+00 0.0000000000000000e+00  0.0000000000000000e+00 0.0000000000000000e+00 0.0000000000000000e+00  0.0000000000000000e+00 0.0000000000000000e+00 0.0000000000000000e+00  0.0000000000000000e+00 0.0000000000000000e+00 0.0000000000000000e+00  0.0000000000000000e+00 0.0000000000000000e+00 0.0000000000000000e+00  0.0000000000000000e+00 0.0000000000000000e+00 0.0000000000000000e+00  0.0000000000000000e+00 0.0000000000000000e+00 0.0000000000000000e+00  0.0000000000000000e+00 0.0000000000000000e+00 0.0000000000000000e+00  0.0000000000000000e+00 0.0000000000000000e+00 0.0000000000000000e+00  0.0000000000000000e+00 0.0000000000000000e+00 0.0000000000000000e+00  0.0000000000000000e+00 0.0000000000000000e+00 0.0000000000000000e+00  0.0000000000000000e+00 0.0000000000000000e+00 0.0000000000000000e+00  0.0000000000000000e+00 0.0000000000000000e+00 0.0000000000000000e+00  0.0000000000000000e+00 0.0000000000000000e+00 0.0000000000000000e+00  0.0000000000000000e+00 0.0000000000000000e+00 0.0000000000000000e+00  0.0000000000000000e+00 0.0000000000000000e+00 0.0000000000000000e+00  0.0000000000000000e+00 0.0000000000000000e+00 0.0000000000000000e+00  0.0000000000000000e+00 0.0000000000000000e+00 0.0000000000000000e+00  0.0000000000000000e+00 0.0000000000000000e+00 0.0000000000000000e+00  0.0000000000000000e+00 0.0000000000000000e+00 0.0000000000000000e+00  0.0000000000000000e+00 0.0000000000000000e+00 0.0000000000000000e+00  0.0000000000000000e+00 0.0000000000000000e+00 0.0000000000000000e+00  0.0000000000000000e+00 0.0000000000000000e+00 0.0000000000000000e+00  0.0000000000000000e+00 0.0000000000000000e+00 0.0000000000000000e+00  -8.5600701905118331e-14 0.0000000000000000e+00 0.0000000000000000e+00  0.0000000000000000e+00 0.0000000000000000e+00 0.0000000000000000e+00  0.0000000000000000e+00 0.0000000000000000e+00 0.0000000000000000e+00  0.0000000000000000e+00 0.0000000000000000e+00 0.0000000000000000e+00  0.0000000000000000e+00 0.0000000000000000e+00 0.0000000000000000e+00  0.0000000000000000e+00 0.0000000000000000e+00 0.0000000000000000e+00  0.0000000000000000e+00 0.0000000000000000e+00 0.0000000000000000e+00  0.0000000000000000e+00 0.0000000000000000e+00 0.0000000000000000e+00  0.0000000000000000e+00 0.0000000000000000e+00 0.0000000000000000e+00  0.0000000000000000e+00 0.0000000000000000e+00 0.0000000000000000e+00  0.0000000000000000e+00 0.0000000000000000e+00 0.0000000000000000e+00  0.0000000000000000e+00 0.0000000000000000e+00 0.0000000000000000e+00  0.0000000000000000e+00 0.0000000000000000e+00 0.0000000000000000e+00  0.0000000000000000e+00 0.0000000000000000e+00 0.0000000000000000e+00  0.0000000000000000e+00 0.0000000000000000e+00 0.0000000000000000e+00  0.0000000000000000e+00 0.0000000000000000e+00 0.0000000000000000e+00  0.0000000000000000e+00 0.0000000000000000e+00 0.0000000000000000e+00  0.0000000000000000e+00 0.0000000000000000e+00 0.0000000000000000e+00  0.0000000000000000e+00 0.0000000000000000e+00 0.0000000000000000e+00  0.0000000000000000e+00 0.0000000000000000e+00 0.0000000000000000e+00  0.0000000000000000e+00 0.0000000000000000e+00 0.0000000000000000e+00  0.0000000000000000e+00 0.0000000000000000e+00 0.0000000000000000e+00  0.0000000000000000e+00 0.0000000000000000e+00 0.0000000000000000e+00  0.0000000000000000e+00 0.0000000000000000e+00 0.0000000000000000e+00  0.0000000000000000e+00 0.0000000000000000e+00 0.0000000000000000e+00  0.0000000000000000e+00 0.0000000000000000e+00 0.0000000000000000e+00  0.0000000000000000e+00 0.0000000000000000e+00 0.0000000000000000e+00  0.0000000000000000e+00 0.0000000000000000e+00 0.0000000000000000e+00  0.0000000000000000e+00 0.0000000000000000e+00 0.0000000000000000e+00  0.0000000000000000e+00 0.0000000000000000e+00 0.0000000000000000e+00  0.0000000000000000e+00 0.0000000000000000e+00 0.0000000000000000e+00  0.0000000000000000e+00 0.0000000000000000e+00 0.0000000000000000e+00  0.0000000000000000e+00 0.0000000000000000e+00 0.0000000000000000e+00  0.0000000000000000e+00 0.0000000000000000e+00 0.0000000000000000e+00  0.0000000000000000e+00 0.0000000000000000e+00 0.0000000000000000e+00  0.0000000000000000e+00 0.0000000000000000e+00 0.0000000000000000e+00  0.0000000000000000e+00 0.0000000000000000e+00 0.0000000000000000e+00  0.0000000000000000e+00 0.0000000000000000e+00 0.0000000000000000e+00  0.0000000000000000e+00 0.0000000000000000e+00 0.0000000000000000e+00  0.0000000000000000e+00 0.0000000000000000e+00 0.0000000000000000e+00  0.0000000000000000e+00 0.0000000000000000e+00 0.0000000000000000e+00  0.0000000000000000e+00 0.0000000000000000e+00 0.0000000000000000e+00  0.0000000000000000e+00 0.0000000000000000e+00 0.0000000000000000e+00  0.0000000000000000e+00 0.0000000000000000e+00 0.0000000000000000e+00  0.0000000000000000e+00 0.0000000000000000e+00 0.0000000000000000e+00  0.0000000000000000e+00 0.0000000000000000e+00 0.0000000000000000e+00  0.0000000000000000e+00 0.0000000000000000e+00 0.0000000000000000e+00  0.0000000000000000e+00 0.0000000000000000e+00 0.0000000000000000e+00  0.0000000000000000e+00 0.0000000000000000e+00 0.0000000000000000e+00  0.0000000000000000e+00 0.0000000000000000e+00 0.0000000000000000e+00  0.0000000000000000e+00 0.0000000000000000e+00 0.0000000000000000e+00  0.0000000000000000e+00 0.0000000000000000e+00 0.0000000000000000e+00  0.0000000000000000e+00 0.0000000000000000e+00 0.0000000000000000e+00  1.9522684183298042e-12 0.0000000000000000e+00 0.0000000000000000e+00  0.0000000000000000e+00 0.0000000000000000e+00 0.0000000000000000e+00  0.0000000000000000e+00 0.0000000000000000e+00 0.0000000000000000e+00  0.0000000000000000e+00 0.0000000000000000e+00 0.0000000000000000e+00  0.0000000000000000e+00 0.0000000000000000e+00 0.0000000000000000e+00  0.0000000000000000e+00 0.0000000000000000e+00 0.0000000000000000e+00  1.0344242958694540e-13 0.0000000000000000e+00 0.0000000000000000e+00  0.0000000000000000e+00 0.0000000000000000e+00 0.0000000000000000e+00  0.0000000000000000e+00 0.0000000000000000e+00 0.0000000000000000e+00  0.0000000000000000e+00 0.0000000000000000e+00 0.0000000000000000e+00  0.0000000000000000e+00 0.0000000000000000e+00 0.0000000000000000e+00  0.0000000000000000e+00 0.0000000000000000e+00 0.0000000000000000e+00  0.0000000000000000e+00 0.0000000000000000e+00 0.0000000000000000e+00  0.0000000000000000e+00 0.0000000000000000e+00 0.0000000000000000e+00  0.0000000000000000e+00 0.0000000000000000e+00 0.0000000000000000e+00  0.0000000000000000e+00 0.0000000000000000e+00 0.0000000000000000e+00  0.0000000000000000e+00 0.0000000000000000e+00 0.0000000000000000e+00  2.9841708549342910e-18 -3.7969743781581187e-14 0.0000000000000000e+00  0.0000000000000000e+00 0.0000000000000000e+00 0.0000000000000000e+00  0.0000000000000000e+00 0.0000000000000000e+00 0.0000000000000000e+00  0.0000000000000000e+00 0.0000000000000000e+00 0.0000000000000000e+00  0.0000000000000000e+00 0.0000000000000000e+00 0.0000000000000000e+00  0.0000000000000000e+00 0.0000000000000000e+00 0.0000000000000000e+00  0.0000000000000000e+00 0.0000000000000000e+00 0.0000000000000000e+00  0.0000000000000000e+00 0.0000000000000000e+00 0.0000000000000000e+00  0.0000000000000000e+00 0.0000000000000000e+00 0.0000000000000000e+00  0.0000000000000000e+00 0.0000000000000000e+00 0.0000000000000000e+00  0.0000000000000000e+00 0.0000000000000000e+00 0.0000000000000000e+00  0.0000000000000000e+00 0.0000000000000000e+00 0.0000000000000000e+00  0.0000000000000000e+00 0.0000000000000000e+00 0.0000000000000000e+00  0.0000000000000000e+00 0.0000000000000000e+00 0.0000000000000000e+00  0.0000000000000000e+00 0.0000000000000000e+00 0.0000000000000000e+00  0.0000000000000000e+00 0.0000000000000000e+00 0.0000000000000000e+00  0.0000000000000000e+00 0.0000000000000000e+00 0.0000000000000000e+00  0.0000000000000000e+00 0.0000000000000000e+00 0.0000000000000000e+00  0.0000000000000000e+00 0.0000000000000000e+00 0.0000000000000000e+00  0.0000000000000000e+00 0.0000000000000000e+00 0.0000000000000000e+00  0.0000000000000000e+00 0.0000000000000000e+00 0.0000000000000000e+00  0.0000000000000000e+00 0.0000000000000000e+00 0.0000000000000000e+00  0.0000000000000000e+00 0.0000000000000000e+00 0.0000000000000000e+00  0.0000000000000000e+00 0.0000000000000000e+00 0.0000000000000000e+00  0.0000000000000000e+00 0.0000000000000000e+00 0.0000000000000000e+00  0.0000000000000000e+00 0.0000000000000000e+00 0.0000000000000000e+00  0.0000000000000000e+00 0.0000000000000000e+00 0.0000000000000000e+00  0.0000000000000000e+00 0.0000000000000000e+00 0.0000000000000000e+00  0.0000000000000000e+00 0.0000000000000000e+00 0.0000000000000000e+00  0.0000000000000000e+00 0.0000000000000000e+00 0.0000000000000000e+00  0.0000000000000000e+00 0.0000000000000000e+00 0.0000000000000000e+00  0.0000000000000000e+00 0.0000000000000000e+00 0.0000000000000000e+00  0.0000000000000000e+00 0.0000000000000000e+00 0.0000000000000000e+00  0.0000000000000000e+00 0.0000000000000000e+00 0.0000000000000000e+00  0.0000000000000000e+00 0.0000000000000000e+00 0.0000000000000000e+00  0.0000000000000000e+00 0.0000000000000000e+00 0.0000000000000000e+00  0.0000000000000000e+00 0.0000000000000000e+00 0.0000000000000000e+00  -6.5547082037874276e-15 2.0876339810379533e-13 0.0000000000000000e+00  4.2295850981468059e-07 -3.2321517939303586e-06 0.0000000000000000e+00  9.7364073899155228e-07 -3.6067571218547453e-06 0.0000000000000000e+00  1.6767484943759193e-06 -3.8886582951914698e-06 0.0000000000000000e+00  2.4611470997812717e-06 -4.1668698318653960e-06 0.0000000000000000e+00  3.2370620367452812e-06 -4.5209406144479165e-06 0.0000000000000000e+00  3.9952084377827714e-06 -4.9938948728177745e-06 0.0000000000000000e+00  4.7057570948715261e-06 -5.5293332674211713e-06 0.0000000000000000e+00  5.3756939326493868e-06 -6.1521820996560140e-06 0.0000000000000000e+00  6.0356266482717269e-06 -6.8463170043923010e-06 0.0000000000000000e+00  6.6289834153376113e-06 -7.5978170516076441e-06 0.0000000000000000e+00  7.2082066642065849e-06 -8.4374365537623922e-06 0.0000000000000000e+00  7.7246718501808907e-06 -9.3190810385793963e-06 0.0000000000000000e+00  8.2152377017188701e-06 -1.0272823802168262e-05 0.0000000000000000e+00  8.6579950599042491e-06 -1.1275455177351414e-05 0.0000000000000000e+00  9.0558317710335788e-06 -1.2332825419076671e-05 0.0000000000000000e+00  9.4349471062139542e-06 -1.3443857228073558e-05 0.0000000000000000e+00  9.7533775036704214e-06 -1.4581600175602230e-05 0.0000000000000000e+00  1.0045972655367626e-05 -1.5787521689157863e-05 0.0000000000000000e+00  1.0284286573372510e-05 -1.7005854645588980e-05 0.0000000000000000e+00  1.0496051407462049e-05 -1.8285868271566657e-05 0.0000000000000000e+00  1.0657750338057351e-05 -1.9575330680990364e-05 0.0000000000000000e+00  1.0780892612875831e-05 -2.0911948767402818e-05 0.0000000000000000e+00  1.0867399347356490e-05 -2.2272679284662221e-05 0.0000000000000000e+00  1.0910037087635952e-05 -2.3658924279285621e-05 0.0000000000000000e+00  1.0928465093722655e-05 -2.5077101904697416e-05 0.0000000000000000e+00  1.0896467613035338e-05 -2.6501144772977934e-05 0.0000000000000000e+00  1.0825686740597446e-05 -2.7973246445475760e-05 0.0000000000000000e+00  1.0715075458635337e-05 -2.9437969213236889e-05 0.0000000000000000e+00  1.0565864091201455e-05 -3.0945267459528703e-05 0.0000000000000000e+00  1.0377451761129388e-05 -3.2445811443793802e-05 0.0000000000000000e+00  1.0151568619807608e-05 -3.3983919130835931e-05 0.0000000000000000e+00  9.8850078749124863e-06 -3.5511956028119550e-05 0.0000000000000000e+00  9.5828607301882504e-06 -3.7076475418255140e-05 0.0000000000000000e+00  9.2391759645008040e-06 -3.8625450241568336e-05 0.0000000000000000e+00  8.8560081503632845e-06 -4.0211943378535099e-05 0.0000000000000000e+00  8.4346801082311876e-06 -4.1782629416434663e-05 0.0000000000000000e+00  7.9759076658075734e-06 -4.3385951054828883e-05 0.0000000000000000e+00  7.4780142994064789e-06 -4.4973039249234116e-05 0.0000000000000000e+00  6.9407241310616215e-06 -4.6590791430075724e-05 0.0000000000000000e+00  6.3619433505445684e-06 -4.8191371958076813e-05 0.0000000000000000e+00  5.7391193227141566e-06 -4.9812285403975169e-05 0.0000000000000000e+00  5.0841927736030751e-06 -5.1428591600163324e-05 0.0000000000000000e+00  4.3829713961609373e-06 -5.3053430379701768e-05 0.0000000000000000e+00  3.6587233343961022e-06 -5.4679218338839029e-05 0.0000000000000000e+00  2.8884066692965091e-06 -5.6294972351816679e-05 0.0000000000000000e+00  2.1181824972476155e-06 -5.7955147055050384e-05 0.0000000000000000e+00  5.3501180953627655e-09 -5.8945005426221503e-05 0.0000000000000000e+00  -2.2535347126995296e-06 -5.7233560681155820e-05 0.0000000000000000e+00  -2.4128124453136717e-06 -5.4837786615612948e-05 0.0000000000000000e+00  -1.6225588580864240e-06 -5.3113009808821667e-05 0.0000000000000000e+00  -8.3885019465184912e-07 -5.1367278984473291e-05 0.0000000000000000e+00  -9.8441418028034774e-08 -4.9641698934830681e-05 0.0000000000000000e+00  6.1648922301664856e-07 -4.7920654783301468e-05 0.0000000000000000e+00  1.2836747473484807e-06 -4.6205585948860161e-05 0.0000000000000000e+00  1.9216037642098660e-06 -4.4501677276439345e-05 0.0000000000000000e+00  2.5142536182703067e-06 -4.2789959598578055e-05 0.0000000000000000e+00  3.0717812716200479e-06 -4.1106663482782193e-05 0.0000000000000000e+00  3.5893783445174758e-06 -3.9406333802037344e-05 0.0000000000000000e+00  4.0727025518094150e-06 -3.7737938954867079e-05 0.0000000000000000e+00  4.5160753999434321e-06 -3.6054392068802599e-05 0.0000000000000000e+00  4.9259355531630143e-06 -3.4404351673894715e-05 0.0000000000000000e+00  5.2966148946389850e-06 -3.2741717447715411e-05 0.0000000000000000e+00  5.6356963447042278e-06 -3.1113834519234639e-05 0.0000000000000000e+00  5.9345256200054463e-06 -2.9474969758661556e-05 0.0000000000000000e+00  6.2025742191290221e-06 -2.7872734293252901e-05 0.0000000000000000e+00  6.4299760180853363e-06 -2.6261951682060985e-05 0.0000000000000000e+00  6.6279213736718877e-06 -2.4691399935994723e-05 0.0000000000000000e+00  6.7853763044884236e-06 -2.3116421580465145e-05 0.0000000000000000e+00  6.9152647093185440e-06 -2.1583987393294358e-05 0.0000000000000000e+00  7.0032357632492686e-06 -2.0051235623916667e-05 0.0000000000000000e+00  7.0593496839021708e-06 -1.8556354288563076e-05 0.0000000000000000e+00  7.0824755176124179e-06 -1.7079158160842875e-05 0.0000000000000000e+00  7.0647283248350493e-06 -1.5634647834387822e-05 0.0000000000000000e+00  7.0314999325170083e-06 -1.4217909802792192e-05 0.0000000000000000e+00  6.9524937981472792e-06 -1.2822740080513263e-05 0.0000000000000000e+00  6.8448159638445008e-06 -1.1482513743814242e-05 0.0000000000000000e+00  6.6996743127298599e-06 -1.0155106502795739e-05 0.0000000000000000e+00  6.5252331202465023e-06 -8.8905857975541968e-06 0.0000000000000000e+00  6.3139415162221844e-06 -7.6434483454148775e-06 0.0000000000000000e+00  6.0747331980153973e-06 -6.4637087019214869e-06 0.0000000000000000e+00  5.8020814938371934e-06 -5.3159368367518785e-06 0.0000000000000000e+00  5.4922746396175013e-06 -4.2339454028900126e-06 0.0000000000000000e+00  5.1739575699394634e-06 -3.1969739541743653e-06 0.0000000000000000e+00  4.8102615889824408e-06 -2.2186570216966154e-06 0.0000000000000000e+00  4.4217801397121199e-06 -1.3210374539779611e-06 0.0000000000000000e+00  3.9969899024127626e-06 -4.7116610237703559e-07 0.0000000000000000e+00  3.5520150199923093e-06 2.8845305115222423e-07 0.0000000000000000e+00  3.0701958326062337e-06 9.8880737996058528e-07 0.0000000000000000e+00  2.5546261677266609e-06 1.5955194936454737e-06 0.0000000000000000e+00  2.0416298991393668e-06 2.1306249983149885e-06 0.0000000000000000e+00  1.4828670542383404e-06 2.6003989949810802e-06 0.0000000000000000e+00  9.5962333388907726e-07 2.9663028171166833e-06 0.0000000000000000e+00  4.8353762507178299e-07 3.1404579916631620e-06 0.0000000000000000e+00  1.8324223752763541e-07 3.0307112503051406e-06 0.0000000000000000e+00  -6.0905685550903967e-08 -1.1800063793354945e-07 0.0000000000000000e+00  1.5500162814158227e-07 -5.5560031114811787e-05 0.0000000000000000e+00  1.7262151978315014e-06 -5.2359069258628283e-05 0.0000000000000000e+00  3.8435348360803896e-06 -4.7134424582486438e-05 0.0000000000000000e+00  1.6084674928129297e-06 -5.5350414078517748e-07 0.0000000000000000e+00  4.9628041194872671e-06 -4.3859465432801256e-05 0.0000000000000000e+00  2.8813157753859899e-06 -1.2951085363750486e-06 0.0000000000000000e+00  5.9808386839999404e-06 -4.0571599730279539e-05 0.0000000000000000e+00  4.7233498134731750e-06 -3.2254251707548246e-06 0.0000000000000000e+00  5.7335176536710125e-06 -4.8434723399721719e-06 0.0000000000000000e+00  6.8471160631480236e-06 -3.7316752712995008e-05 0.0000000000000000e+00  7.6839977074783787e-06 -9.9430934403786183e-06 0.0000000000000000e+00  8.1296727589651813e-06 -3.0932980351661119e-05 0.0000000000000000e+00  6.5755185240137065e-06 -6.5880520124008554e-06 0.0000000000000000e+00  8.2202148838100316e-06 -1.2322141080415762e-05 0.0000000000000000e+00  8.5481071575498573e-06 -2.7821002113024731e-05 0.0000000000000000e+00  7.5630933787830235e-06 -3.4101146878558975e-05 0.0000000000000000e+00  8.6097117767894926e-06 -1.4871012406397275e-05 0.0000000000000000e+00  8.8186967257356742e-06 -2.4778054530903880e-05 0.0000000000000000e+00  8.8263088216620208e-06 -1.7413614133603022e-05 0.0000000000000000e+00  8.9702929730188653e-06 -2.1909038174445355e-05 0.0000000000000000e+00  8.9251620705555913e-06 -1.9545843966900096e-05 0.0000000000000000e+00  7.1560247611438153e-06 -8.1823611637337351e-06 0.0000000000000000e+00  2.7352427362894296e-06 -4.9815122639851084e-05 0.0000000000000000e+00  3.7996935758294336e-06 -2.1815809973523276e-06 0.0000000000000000e+00  1.8325874137884427e-07 -5.3385102889804550e-05 0.0000000000000000e+00  7.2775001633101041e-07 9.9471869968336855e-07 0.0000000000000000e+00  4.8520019551170598e-06 -4.1642165330881756e-05 0.0000000000000000e+00  3.7529877457705897e-06 -4.4969207502732122e-05 0.0000000000000000e+00  2.4713524867828642e-06 -2.1154569711212521e-06 0.0000000000000000e+00  5.5489667950868595e-06 -4.9316595916297531e-06 0.0000000000000000e+00  7.2497573139862293e-06 -3.1864377818631455e-05 0.0000000000000000e+00  5.8004493747110453e-06 -3.8344179111839344e-05 0.0000000000000000e+00  8.4349183052306625e-06 -1.1945013682061502e-05 0.0000000000000000e+00  7.7536139631946614e-06 -2.8697562892593295e-05 0.0000000000000000e+00  6.5540171640086934e-06 -6.6485914352763188e-06 0.0000000000000000e+00  8.9255951936539657e-06 -1.4393039497199820e-05 0.0000000000000000e+00  8.1113551507493727e-06 -2.5593453677833904e-05 0.0000000000000000e+00  6.5990004749039998e-06 -3.5082365181343133e-05 0.0000000000000000e+00  9.3850560743361931e-06 -1.7149173009148208e-05 0.0000000000000000e+00  8.3249821274015715e-06 -2.2565574291745911e-05 0.0000000000000000e+00  -3.8093217901646126e-07 -7.8029572417439902e-07 0.0000000000000000e+00  -4.1719121232734572e-07 6.6730318391023331e-07 0.0000000000000000e+00  -6.6026259886321656e-09 -5.7254160166002671e-05 0.0000000000000000e+00  9.7165697595795471e-07 -1.7094040711767323e-06 0.0000000000000000e+00  8