<?xml version="1.0"?>
<VTKFile type="UnstructuredGrid"  version="0.1"  >
<UnstructuredGrid>
<Piece  NumberOfPoints="1419" NumberOfCells="2698">
<Points>
<DataArray  type="Float64"  NumberOfComponents="3"  format="ascii">0 0 0  0 0.41 0  2.5 0 0  2.5 0.41 0  0.6 0.19 0  0.6 0.21 0  0.25 0.2 0  0.15 0.2 0  0.2489897948556636 0.21 0  0.2489897948556636 0.19 0  0.6 0.2 0  0 0.3807142857143437 0  0 0.3514285714286952 0  0 0.3221428571430699 0  0 0.29285714285744 0  0 0.2635714285718054 0  0 0.2342857142861561 0  0 0.2050000000005308 0  0 0.175714285714732 0  0 0.1464285714289574 0  0 0.1171428571431897 0  0 0.08785714285737878 0  0 0.05857142857161107 0  0 0.02928571428580012 0  0.03015443760436003 0 0  0.06140001986583606 0 0  0.09377624077125973 0 0  0.1273239957535082 0 0  0.1620856860351972 0 0  0.1981052433264291 0 0  0.235428184091502 0 0  0.2741016576309132 0 0  0.3141745521465447 0 0  0.3556974926295285 0 0  0.3987229542472677 0 0  0.4433053055141081 0 0  0.4895008759286886 0 0  0.5373680609405097 0 0  0.5869673343216626 0 0  0.6383613676634521 0 0  0.6916151138468254 0 0  0.7467958595648856 0 0  0.8039733463919316 0 0  0.8632198139502143 0 0  0.9246101326867038 0 0  0.9882218810934433 0 0  1.054135445558498 0 0  1.122434100542598 0 0  1.193204177141305 0 0  1.266535089879536 0 0  1.342519516046404 0 0  1.421253448503939 0 0  1.502836389106271 0 0  1.587371439758838 0 0  1.674965418777374 0 0  1.765729001825544 0 0  1.859776908880082 0 0  1.957227977487062 0 0  2.058205329869943 0 0  2.162836591189951 0 0  2.271253957290865 0 0  2.383594446803425 0 0  2.5 0.1024999999997612 0  2.5 0.2049999999994743 0  2.5 0.3074999999997183 0  2.383594446803656 0.41 0  2.271253957291315 0.41 0  2.162836591190598 0.41 0  2.058205329870775 0.41 0  1.957227977488067 0.41 0  1.859776908881246 0.41 0  1.765729001826854 0.41 0  1.674965418778818 0.41 0  1.58737143976041 0.41 0  1.502836389107956 0.41 0  1.421253448505726 0.41 0  1.342519516048286 0.41 0  1.266535089881505 0.41 0  1.193204177143353 0.41 0  1.122434100544716 0.41 0  1.05413544556068 0.41 0  0.9882218810956305 0.41 0  0.9246101326886647 0.41 0  0.8632198139519631 0.41 0  0.8039733463934788 0.41 0  0.7467958595662458 0.41 0  0.6916151138480078 0.41 0  0.6383613676644679 0.41 0  0.5869673343225223 0.41 0  0.5373680609412221 0.41 0  0.4895008759292634 0.41 0  0.4433053055145528 0.41 0  0.3987229542475914 0.41 0  0.3556974926297398 0.41 0  0.3141745521466497 0.41 0  0.2741016576310038 0.41 0  0.2354281840915826 0.41 0  0.1981052433265003 0.41 0  0.1620856860352591 0.41 0  0.1273239957535623 0.41 0  0.09377624077128965 0.41 0  0.06140001986584975 0.41 0  0.03015443760436654 0.41 0  0.2497468076502589 0.2050254481002335 0  0.2497468076502614 0.1949745518997913 0  0.2469965252529372 0.1829317073451959 0  0.2439893735792749 0.1762316384219906 0  0.2400332147834255 0.1700443375285386 0  0.2352133972704371 0.1645032867342007 0  0.2296339016332438 0.1597280261969788 0  0.2234150974217223 0.1558215752574715 0  0.2166911463437691 0.1528682099456123 0  0.2096071079204251 0.1509316448471593 0  0.2023158100364996 0.1500536585536553 0  0.194974551899914 0.1502531923497262 0  0.1877417105387872 0.1515259415822739 0  0.1807733240461124 0.153844448527136 0  0.1742197252835808 0.15715869474974 0  0.1682222986673531 0.1613971801805478 0  0.162910430003803 0.1664684656256651 0  0.1583987151779087 0.1722631454351573 0  0.1547844879126891 0.178656207771761 0  0.1521457199348551 0.1855097315605723 0  0.1505393388476355 0.1926758619366523 0  0.1505393388476328 0.2073241380633295 0  0.1521457199348437 0.2144902684393899 0  0.1547844879126531 0.221343792228163 0  0.1583987151778488 0.2277368545647528 0  0.1629104300036858 0.2335315343742052 0  0.1682222986671726 0.2386028198193036 0  0.1742197252833576 0.2428413052501257 0  0.1807733240458683 0.2461555514727623 0  0.1877417105384929 0.2484740584176516 0  0.1949745518995776 0.2497468076502398 0  0.202315810036185 0.2499463414463592 0  0.2096071079201568 0.2490683551528932 0  0.2166911463435495 0.2471317900544655 0  0.2234150974215506 0.2441784247426195 0  0.2296339016331197 0.2402719738031125 0  0.2352133972703547 0.2354967132658811 0  0.2400332147833751 0.2299556624715287 0  0.2439893735792577 0.2237683615780412 0  0.246996525252926 0.2170682926548348 0  0.25645809709277 0.21 0  0.2639263993298655 0.21 0  0.271394701566961 0.21 0  0.2788630038040554 0.21 0  0.2863313060411479 0.21 0  0.2937996082782405 0.21 0  0.301267910515333 0.21 0  0.3087362127524279 0.21 0  0.3162045149895234 0.21 0  0.3236728172265972 0.21 0  0.3311411194636928 0.21 0  0.3386094217007701 0.21 0  0.3460777239378666 0.21 0  0.3535460261749672 0.21 0  0.3610143284120516 0.21 0  0.3684826306491596 0.21 0  0.3759509328862226 0.21 0  0.383419235123329 0.21 0  0.3908875373604028 0.21 0  0.3983558395975142 0.21 0  0.4058241418345938 0.21 0  0.4132924440716992 0.21 0  0.4207607463087888 0.21 0  0.4282290485459029 0.21 0  0.4356973507830418 0.21 0  0.4431656530201649 0.21 0  0.4506339552573136 0.21 0  0.4581022574944306 0.21 0  0.4655705597315852 0.21 0  0.4730388619686996 0.21 0  0.480507164205851 0.21 0  0.4879754664429498 0.21 0  0.4954437686800938 0.21 0  0.502912070917267 0.21 0  0.5103803731544119 0.21 0  0.5178486753915261 0.21 0  0.5253169776286404 0.21 0  0.5327852798657868 0.21 0  0.5402535821029386 0.21 0  0.54772188434007 0.21 0  0.5551901865771842 0.21 0  0.5626584888143201 0.21 0  0.5701267910514778 0.21 0  0.5775950932886138 0.21 0  0.5850633955257281 0.21 0  0.5925316977628483 0.21 0  0.6 0.2050000000000054 0  0.6 0.1950000000000217 0  0.5925316977628897 0.19 0  0.5850633955257988 0.19 0  0.5775950932887378 0.19 0  0.5701267910515998 0.19 0  0.5626584888145268 0.19 0  0.5551901865773963 0.19 0  0.547721884340339 0.19 0  0.5402535821032429 0.19 0  0.5327852798661811 0.19 0  0.5253169776290537 0.19 0  0.5178486753919799 0.19 0  0.5103803731549078 0.19 0  0.502912070917822 0.19 0  0.4954437686807294 0.19 0  0.4879754664436223 0.19 0  0.4805071642065402 0.19 0  0.4730388619694271 0.19 0  0.4655705597323621 0.19 0  0.4581022574952563 0.19 0  0.4506339552581777 0.19 0  0.4431656530210671 0.19 0  0.4356973507839815 0.19 0  0.4282290485468779 0.19 0  0.4207607463097617 0.19 0  0.4132924440726327 0.19 0  0.4058241418354857 0.19 0  0.3983558395983636 0.19 0  0.3908875373612097 0.19 0  0.3834192351240934 0.19 0  0.3759509328869369 0.19 0  0.3684826306498175 0.19 0  0.361014328412667 0.19 0  0.3535460261755617 0.19 0  0.3460777239384295 0.19 0  0.3386094217012945 0.19 0  0.3311411194641595 0.19 0  0.3236728172270245 0.19 0  0.3162045149898895 0.19 0  0.3087362127527544 0.19 0  0.3012679105156187 0.19 0  0.2937996082784807 0.19 0  0.2863313060413428 0.19 0  0.2788630038042048 0.19 0  0.2713947015670686 0.19 0  0.2639263993299336 0.19 0  0.2564580970927985 0.19 0  0.2607803159922026 0.2000727136295815 0  0.5887803774232762 0.2001272386983733 0  0.5745072403740523 0.2002044435018727 0  0.5511891430099709 0.2001122610077113 0  0.2751288526855082 0.20000000000002 0  0.5365194309847112 0.1999999999999436 0  0.2894621222999649 0.1998691686390484 0  0.5215828265105155 0.1999999999999228 0  0.3127789816668748 0.1998657885438805 0  0.3274069683451451 0.2000000000000796 0  0.5066462220363641 0.199999999999908 0  0.3650630746574081 0.199866017807523 0  0.476773013087985 0.1999999999998713 0  0.3417402379596385 0.1998691686391011 0  0.3796850840047755 0.200000000000134 0  0.4618364086138087 0.1999999999998546 0  0.4917096175621762 0.1999999999998808 0  0.3946216884789568 0.2000000000001512 0  0.446899804139621 0.1999999999998389 0  0.4089549580935208 0.1998691686391595 0  0.4322718174608562 0.200127451265745 0  0.4201487168029707 0.1999966199048527 0  0.3528922713220932 0.2000185703532356 0  0.5633122436674589 0.1999814296467508 0  0.3006558810093873 0.1999966199048318 0  0.5815926498168407 0.1966545283159175 0  0.2677053789419034 0.1964246479135325 0  0.5290511287476175 0.1970915826863981 0  0.5439877332217911 0.197091582686394 0  0.2825131256993216 0.2035478995978015 0  0.3199386661080599 0.202908417313604 0  0.4842413153250809 0.1970915826863873 0  0.5141145242734466 0.1970915826863843 0  0.3722167817676917 0.2029084173136195 0  0.4693047108508938 0.1970915826863783 0  0.3348752705822316 0.202908417313609 0  0.3871533862418661 0.2029084173136212 0  0.4543681063767183 0.1970915826863795 0  0.4991779197992749 0.1970915826863902 0  0.4020059614928624 0.203547899597858 0  0.4394315019025246 0.1970915826863714 0  0.2550657455369551 0.2034088125358657 0  0.2548908499171161 0.1966940311614271 0  0.5946539510196798 0.2024302972968126 0  0.267698176732111 0.2039977513680092 0  0.4261685417851465 0.196409292431739 0  0.3590076176283495 0.196411355804271 0  0.5571672426447437 0.2036011176410121 0  0.3066757059912147 0.1964092924317024 0  0.594380730180568 0.1966558399668133 0  0.4842413153245942 0.2040749161535287 0  0.4693047108503577 0.2040749161535231 0  0.3871533862424271 0.1959250838464788 0  0.372246743208829 0.1959123236376545 0  0.5141145242731028 0.2040749161535395 0  0.4543681063761134 0.2040749161535186 0  0.4019979587101454 0.1959834479682427 0  0.4394608940728603 0.2040870543693135 0  0.5439623148931173 0.2040856076781014 0  0.5290511287473298 0.2040749161535501 0  0.4991779197988497 0.2040749161535382 0  0.3347912413592433 0.1959225448935183 0  0.3199680582793816 0.1959123018030061 0  0.2825051229162361 0.1959834479681729 0  0.3590471196690275 0.2036304442587945 0  0.5571594006495384 0.1963685282145804 0  0.3067669986803285 0.203627750582736 0  0.4262598344738712 0.2036568242185335 0  0.5814408164431408 0.2041285596160068 0  0.5688286748170428 0.1961819304477386 0  0.4145905603063645 0.2038180695522843 0  0.3473758401724931 0.2038180695522752 0  0.2950977245128307 0.2038180695522663 0  0.5688286748170693 0.203818069552238 0  0.2950977245127906 0.1961819304477774 0  0.3473758401723931 0.1961819304478349 0  0.4145905603061963 0.1961819304479011 0  0.2601812407614425 0.2056861609747042
[...]
<PointData  Vectors="f_46-2"> 
<DataArray  type="Float64"  Name="f_46-2"  NumberOfComponents="3" format="ascii">0.0000000000000000e+00 0.0000000000000000e+00 0.0000000000000000e+00  0.0000000000000000e+00 0.0000000000000000e+00 0.0000000000000000e+00  0.0000000000000000e+00 0.0000000000000000e+00 0.0000000000000000e+00  0.0000000000000000e+00 0.0000000000000000e+00 0.0000000000000000e+00  -1.1783957037818757e-05 -4.3770241301271742e-06 0.0000000000000000e+00  -1.1215620189850198e-05 -6.2917269697551495e-06 0.0000000000000000e+00  0.0000000000000000e+00 3.1030152967845156e-20 0.0000000000000000e+00  0.0000000000000000e+00 0.0000000000000000e+00 0.0000000000000000e+00  0.0000000000000000e+00 0.0000000000000000e+00 0.0000000000000000e+00  0.0000000000000000e+00 0.0000000000000000e+00 0.0000000000000000e+00  -1.1592687492616194e-05 -5.3346164817289901e-06 0.0000000000000000e+00  0.0000000000000000e+00 0.0000000000000000e+00 0.0000000000000000e+00  0.0000000000000000e+00 0.0000000000000000e+00 0.0000000000000000e+00  0.0000000000000000e+00 0.0000000000000000e+00 0.0000000000000000e+00  0.0000000000000000e+00 0.0000000000000000e+00 0.0000000000000000e+00  0.0000000000000000e+00 0.0000000000000000e+00 0.0000000000000000e+00  0.0000000000000000e+00 0.0000000000000000e+00 0.0000000000000000e+00  0.0000000000000000e+00 0.0000000000000000e+00 0.0000000000000000e+00  0.0000000000000000e+00 0.0000000000000000e+00 0.0000000000000000e+00  0.0000000000000000e+00 0.0000000000000000e+00 0.0000000000000000e+00  0.0000000000000000e+00 0.0000000000000000e+00 0.0000000000000000e+00  0.0000000000000000e+00 0.0000000000000000e+00 0.0000000000000000e+00  0.0000000000000000e+00 0.0000000000000000e+00 0.0000000000000000e+00  0.0000000000000000e+00 0.0000000000000000e+00 0.0000000000000000e+00  0.0000000000000000e+00 0.0000000000000000e+00 0.0000000000000000e+00  0.0000000000000000e+00 0.0000000000000000e+00 0.0000000000000000e+00  0.0000000000000000e+00 0.0000000000000000e+00 0.0000000000000000e+00  0.0000000000000000e+00 0.0000000000000000e+00 0.0000000000000000e+00  0.0000000000000000e+00 0.0000000000000000e+00 0.0000000000000000e+00  0.0000000000000000e+00 0.0000000000000000e+00 0.0000000000000000e+00  0.0000000000000000e+00 0.0000000000000000e+00 0.0000000000000000e+00  0.0000000000000000e+00 0.0000000000000000e+00 0.0000000000000000e+00  0.0000000000000000e+00 0.0000000000000000e+00 0.0000000000000000e+00  0.0000000000000000e+00 0.0000000000000000e+00 0.0000000000000000e+00  0.0000000000000000e+00 0.0000000000000000e+00 0.0000000000000000e+00  1.6169512369965511e-14 -1.8530425021636337e-18 0.0000000000000000e+00  0.0000000000000000e+00 0.0000000000000000e+00 0.0000000000000000e+00  0.0000000000000000e+00 0.0000000000000000e+00 0.0000000000000000e+00  0.0000000000000000e+00 0.0000000000000000e+00 0.0000000000000000e+00  0.0000000000000000e+00 0.0000000000000000e+00 0.0000000000000000e+00  0.0000000000000000e+00 0.0000000000000000e+00 0.0000000000000000e+00  0.0000000000000000e+00 0.0000000000000000e+00 0.0000000000000000e+00  0.0000000000000000e+00 0.0000000000000000e+00 0.0000000000000000e+00  0.0000000000000000e+00 0.0000000000000000e+00 0.0000000000000000e+00  0.0000000000000000e+00 0.0000000000000000e+00 0.0000000000000000e+00  0.0000000000000000e+00 0.0000000000000000e+00 0.0000000000000000e+00  0.0000000000000000e+00 0.0000000000000000e+00 0.0000000000000000e+00  0.0000000000000000e+00 0.0000000000000000e+00 0.0000000000000000e+00  0.0000000000000000e+00 0.0000000000000000e+00 0.0000000000000000e+00  0.0000000000000000e+00 0.0000000000000000e+00 0.0000000000000000e+00  0.0000000000000000e+00 0.0000000000000000e+00 0.0000000000000000e+00  0.0000000000000000e+00 0.0000000000000000e+00 0.0000000000000000e+00  0.0000000000000000e+00 0.0000000000000000e+00 0.0000000000000000e+00  0.0000000000000000e+00 0.0000000000000000e+00 0.0000000000000000e+00  0.0000000000000000e+00 0.0000000000000000e+00 0.0000000000000000e+00  0.0000000000000000e+00 0.0000000000000000e+00 0.0000000000000000e+00  0.0000000000000000e+00 0.0000000000000000e+00 0.0000000000000000e+00  0.0000000000000000e+00 0.0000000000000000e+00 0.0000000000000000e+00  0.0000000000000000e+00 0.0000000000000000e+00 0.0000000000000000e+00  0.0000000000000000e+00 0.0000000000000000e+00 0.0000000000000000e+00  0.0000000000000000e+00 0.0000000000000000e+00 0.0000000000000000e+00  0.0000000000000000e+00 0.0000000000000000e+00 0.0000000000000000e+00  0.0000000000000000e+00 0.0000000000000000e+00 0.0000000000000000e+00  0.0000000000000000e+00 0.0000000000000000e+00 0.0000000000000000e+00  0.0000000000000000e+00 0.0000000000000000e+00 0.0000000000000000e+00  0.0000000000000000e+00 0.0000000000000000e+00 0.0000000000000000e+00  0.0000000000000000e+00 0.0000000000000000e+00 0.0000000000000000e+00  0.0000000000000000e+00 0.0000000000000000e+00 0.0000000000000000e+00  0.0000000000000000e+00 0.0000000000000000e+00 0.0000000000000000e+00  0.0000000000000000e+00 0.0000000000000000e+00 0.0000000000000000e+00  0.0000000000000000e+00 0.0000000000000000e+00 0.0000000000000000e+00  0.0000000000000000e+00 0.0000000000000000e+00 0.0000000000000000e+00  0.0000000000000000e+00 0.0000000000000000e+00 0.0000000000000000e+00  0.0000000000000000e+00 0.0000000000000000e+00 0.0000000000000000e+00  0.0000000000000000e+00 0.0000000000000000e+00 0.0000000000000000e+00  0.0000000000000000e+00 0.0000000000000000e+00 0.0000000000000000e+00  0.0000000000000000e+00 0.0000000000000000e+00 0.0000000000000000e+00  0.0000000000000000e+00 0.0000000000000000e+00 0.0000000000000000e+00  0.0000000000000000e+00 0.0000000000000000e+00 0.0000000000000000e+00  0.0000000000000000e+00 0.0000000000000000e+00 0.0000000000000000e+00  0.0000000000000000e+00 0.0000000000000000e+00 0.0000000000000000e+00  0.0000000000000000e+00 0.0000000000000000e+00 0.0000000000000000e+00  0.0000000000000000e+00 0.0000000000000000e+00 0.0000000000000000e+00  0.0000000000000000e+00 0.0000000000000000e+00 0.0000000000000000e+00  0.0000000000000000e+00 0.0000000000000000e+00 0.0000000000000000e+00  0.0000000000000000e+00 0.0000000000000000e+00 0.0000000000000000e+00  0.0000000000000000e+00 0.0000000000000000e+00 0.0000000000000000e+00  0.0000000000000000e+00 0.0000000000000000e+00 0.0000000000000000e+00  0.0000000000000000e+00 0.0000000000000000e+00 0.0000000000000000e+00  0.0000000000000000e+00 0.0000000000000000e+00 0.0000000000000000e+00  0.0000000000000000e+00 0.0000000000000000e+00 0.0000000000000000e+00  0.0000000000000000e+00 0.0000000000000000e+00 0.0000000000000000e+00  0.0000000000000000e+00 0.0000000000000000e+00 0.0000000000000000e+00  0.0000000000000000e+00 0.0000000000000000e+00 0.0000000000000000e+00  5.5610754924644560e-14 1.9079893079180695e-18 0.0000000000000000e+00  0.0000000000000000e+00 0.0000000000000000e+00 0.0000000000000000e+00  0.0000000000000000e+00 0.0000000000000000e+00 0.0000000000000000e+00  0.0000000000000000e+00 0.0000000000000000e+00 0.0000000000000000e+00  0.0000000000000000e+00 0.0000000000000000e+00 0.0000000000000000e+00  0.0000000000000000e+00 0.0000000000000000e+00 0.0000000000000000e+00  0.0000000000000000e+00 0.0000000000000000e+00 0.0000000000000000e+00  0.0000000000000000e+00 0.0000000000000000e+00 0.0000000000000000e+00  0.0000000000000000e+00 0.0000000000000000e+00 0.0000000000000000e+00  0.0000000000000000e+00 0.0000000000000000e+00 0.0000000000000000e+00  0.0000000000000000e+00 0.0000000000000000e+00 0.0000000000000000e+00  -9.3269310720336208e-16 -3.1594747084749880e-12 0.0000000000000000e+00  0.0000000000000000e+00 0.0000000000000000e+00 0.0000000000000000e+00  0.0000000000000000e+00 0.0000000000000000e+00 0.0000000000000000e+00  0.0000000000000000e+00 0.0000000000000000e+00 0.0000000000000000e+00  0.0000000000000000e+00 0.0000000000000000e+00 0.0000000000000000e+00  -2.1227608080304567e-19 0.0000000000000000e+00 0.0000000000000000e+00  0.0000000000000000e+00 0.0000000000000000e+00 0.0000000000000000e+00  0.0000000000000000e+00 0.0000000000000000e+00 0.0000000000000000e+00  0.0000000000000000e+00 0.0000000000000000e+00 0.0000000000000000e+00  0.0000000000000000e+00 0.0000000000000000e+00 0.0000000000000000e+00  0.0000000000000000e+00 0.0000000000000000e+00 0.0000000000000000e+00  0.0000000000000000e+00 0.0000000000000000e+00 0.0000000000000000e+00  0.0000000000000000e+00 0.0000000000000000e+00 0.0000000000000000e+00  0.0000000000000000e+00 0.0000000000000000e+00 0.0000000000000000e+00  0.0000000000000000e+00 0.0000000000000000e+00 0.0000000000000000e+00  0.0000000000000000e+00 0.0000000000000000e+00 0.0000000000000000e+00  0.0000000000000000e+00 0.0000000000000000e+00 0.0000000000000000e+00  0.0000000000000000e+00 0.0000000000000000e+00 0.0000000000000000e+00  0.0000000000000000e+00 0.0000000000000000e+00 0.0000000000000000e+00  0.0000000000000000e+00 0.0000000000000000e+00 0.0000000000000000e+00  0.0000000000000000e+00 0.0000000000000000e+00 0.0000000000000000e+00  0.0000000000000000e+00 0.0000000000000000e+00 0.0000000000000000e+00  0.0000000000000000e+00 0.0000000000000000e+00 0.0000000000000000e+00  0.0000000000000000e+00 0.0000000000000000e+00 0.0000000000000000e+00  0.0000000000000000e+00 0.0000000000000000e+00 0.0000000000000000e+00  0.0000000000000000e+00 0.0000000000000000e+00 0.0000000000000000e+00  0.0000000000000000e+00 0.0000000000000000e+00 0.0000000000000000e+00  0.0000000000000000e+00 0.0000000000000000e+00 0.0000000000000000e+00  0.0000000000000000e+00 0.0000000000000000e+00 0.0000000000000000e+00  0.0000000000000000e+00 0.0000000000000000e+00 0.0000000000000000e+00  0.0000000000000000e+00 0.0000000000000000e+00 0.0000000000000000e+00  0.0000000000000000e+00 0.0000000000000000e+00 0.0000000000000000e+00  0.0000000000000000e+00 0.0000000000000000e+00 0.0000000000000000e+00  0.0000000000000000e+00 0.0000000000000000e+00 0.0000000000000000e+00  0.0000000000000000e+00 0.0000000000000000e+00 0.0000000000000000e+00  0.0000000000000000e+00 0.0000000000000000e+00 0.0000000000000000e+00  0.0000000000000000e+00 0.0000000000000000e+00 0.0000000000000000e+00  -1.0328052761971303e-17 -8.8391700634325969e-14 0.0000000000000000e+00  -1.3642208911001188e-07 -1.5713088800744583e-06 0.0000000000000000e+00  -2.3083459437901958e-07 -1.6881939255334610e-06 0.0000000000000000e+00  -2.4719426820666042e-07 -1.7174076420863032e-06 0.0000000000000000e+00  -2.2706175621151285e-07 -1.6978147280751042e-06 0.0000000000000000e+00  -1.9803240897652404e-07 -1.6806720158361993e-06 0.0000000000000000e+00  -1.8191278372294254e-07 -1.6814968848378924e-06 0.0000000000000000e+00  -1.7515908578955851e-07 -1.6845909393668154e-06 0.0000000000000000e+00  -1.8333279060194796e-07 -1.6930919335533495e-06 0.0000000000000000e+00  -1.9927311374965486e-07 -1.7076885335561675e-06 0.0000000000000000e+00  -2.3126330487806693e-07 -1.7237561119004931e-06 0.0000000000000000e+00  -2.7363682526464891e-07 -1.7521742218575549e-06 0.0000000000000000e+00  -3.3138028181989677e-07 -1.7795820886820329e-06 0.0000000000000000e+00  -4.0224923281977803e-07 -1.8166297768914343e-06 0.0000000000000000e+00  -4.8524723104736317e-07 -1.8595448133476121e-06 0.0000000000000000e+00  -5.8495864224126613e-07 -1.9075426642186401e-06 0.0000000000000000e+00  -6.9326198773077117e-07 -1.9647087515311253e-06 0.0000000000000000e+00  -8.1929475124729143e-07 -2.0213466145749447e-06 0.0000000000000000e+00  -9.5735850596786418e-07 -2.0930151202563206e-06 0.0000000000000000e+00  -1.1115124265387981e-06 -2.1614645933992898e-06 0.0000000000000000e+00  -1.2773327693972853e-06 -2.2449814854634072e-06 0.0000000000000000e+00  -1.4591747509871125e-06 -2.3256947958995828e-06 0.0000000000000000e+00  -1.6562145886061780e-06 -2.4173496178464299e-06 0.0000000000000000e+00  -1.8646943260382246e-06 -2.5141071246658689e-06 0.0000000000000000e+00  -2.0903147424416769e-06 -2.6149754572451662e-06 0.0000000000000000e+00  -2.3251581982280657e-06 -2.7249093355482599e-06 0.0000000000000000e+00  -2.5778230543803264e-06 -2.8333619550166662e-06 0.0000000000000000e+00  -2.8450375858713002e-06 -2.9573262070620006e-06 0.0000000000000000e+00  -3.1265654092130788e-06 -3.0765885248861457e-06 0.0000000000000000e+00  -3.4226721878588722e-06 -3.2100007683352468e-06 0.0000000000000000e+00  -3.7330752226373279e-06 -3.3403330806286989e-06 0.0000000000000000e+00  -4.0576316535682789e-06 -3.4836517906928937e-06 0.0000000000000000e+00  -4.3974712566906382e-06 -3.6235826960884957e-06 0.0000000000000000e+00  -4.7504281094079011e-06 -3.7770033176652284e-06 0.0000000000000000e+00  -5.1192987658286251e-06 -3.9247847673120829e-06 0.0000000000000000e+00  -5.5033895950761544e-06 -4.0871993737477469e-06 0.0000000000000000e+00  -5.9018733480008221e-06 -4.2446689342921319e-06 0.0000000000000000e+00  -6.3145809362602186e-06 -4.4149529410854702e-06 0.0000000000000000e+00  -6.7422642294072293e-06 -4.5802249392568853e-06 0.0000000000000000e+00  -7.1851215452405876e-06 -4.7574166816853964e-06 0.0000000000000000e+00  -7.6439800601696786e-06 -4.9294489087293806e-06 0.0000000000000000e+00  -8.1194472574423582e-06 -5.1096903246703542e-06 0.0000000000000000e+00  -8.6071833999060686e-06 -5.2888498073553820e-06 0.0000000000000000e+00  -9.1135568742367892e-06 -5.4719131735692708e-06 0.0000000000000000e+00  -9.6286324495812093e-06 -5.6558401397589874e-06 0.0000000000000000e+00  -1.0161043523108667e-05 -5.8371193119215471e-06 0.0000000000000000e+00  -1.0696342723323119e-05 -6.0329847921421003e-06 0.0000000000000000e+00  -1.1437585255120540e-05 -5.8124472740886172e-06 0.0000000000000000e+00  -1.1716924468554735e-05 -4.8576860036953245e-06 0.0000000000000000e+00  -1.1259286071810578e-05 -4.2157339259893686e-06 0.0000000000000000e+00  -1.0716999683900431e-05 -3.9907206887798008e-06 0.0000000000000000e+00  -1.0179270409552250e-05 -3.7590535229515004e-06 0.0000000000000000e+00  -9.6574094380291682e-06 -3.5340165809840142e-06 0.0000000000000000e+00  -9.1450875125904340e-06 -3.3108971279845744e-06 0.0000000000000000e+00  -8.6515110728879019e-06 -3.0905310206819811e-06 0.0000000000000000e+00  -8.1685530448991377e-06 -2.8744757436764434e-06 0.0000000000000000e+00  -7.7028473998462789e-06 -2.6570400020953210e-06 0.0000000000000000e+00  -7.2501815118897912e-06 -2.4500359927889332e-06 0.0000000000000000e+00  -6.8130881612412813e-06 -2.2381563111763493e-06 0.0000000000000000e+00  -6.3891160082580300e-06 -2.0382608890633550e-06 0.0000000000000000e+00  -5.9809170551939412e-06 -1.8343798781094786e-06 0.0000000000000000e+00  -5.5855891318397171e-06 -1.6430453642052378e-06 0.0000000000000000e+00  -5.2057412888802399e-06 -1.4481385424711229e-06 0.0000000000000000e+00  -4.8383475986737952e-06 -1.2659061825701876e-06 0.0000000000000000e+00  -4.4868187029926161e-06 -1.0801929493445901e-06 0.0000000000000000e+00  -4.1479714540496157e-06 -9.0733542694804274e-07 0.0000000000000000e+00  -3.8251597536261270e-06 -7.3142537103103330e-07 0.0000000000000000e+00  -3.5147877173003909e-06 -5.6912407402713985e-07 0.0000000000000000e+00  -3.2201046082895617e-06 -4.0415201524545001e-07 0.0000000000000000e+00  -2.9376066664995295e-06 -2.5254935742561348e-07 0.0000000000000000e+00  -2.6710670294667790e-06 -9.8731881457863705e-08 0.0000000000000000e+00  -2.4188392735881573e-06 4.4677807651239580e-08 0.0000000000000000e+00  -2.1789800386426566e-06 1.8441603685618096e-07 0.0000000000000000e+00  -1.9566254988343118e-06 3.1733642504703665e-07 0.0000000000000000e+00  -1.7421536400293869e-06 4.4360996420382669e-07 0.0000000000000000e+00  -1.5453500608065769e-06 5.6848056413367964e-07 0.0000000000000000e+00  -1.3614787524055782e-06 6.7891028286985127e-07 0.0000000000000000e+00  -1.1925991344067912e-06 7.9292900291489196e-07 0.0000000000000000e+00  -1.0373779461664437e-06 8.9110979726216294e-07 0.0000000000000000e+00  -8.9667012661927413e-07 9.9252051232232367e-07 0.0000000000000000e+00  -7.7057753986558744e-07 1.0804374985779640e-06 0.0000000000000000e+00  -6.5563227630897295e-07 1.1666537758207621e-06 0.0000000000000000e+00  -5.5736301239488827e-07 1.2438095011534994e-06 0.0000000000000000e+00  -4.6734641275728633e-07 1.3158450070343587e-06 0.0000000000000000e+00  -3.9429683026921848e-07 1.3836143463096961e-06 0.0000000000000000e+00  -3.3441478942089601e-07 1.4381140913520970e-06 0.0000000000000000e+00  -2.8844839722217433e-07 1.4937030919857861e-06 0.0000000000000000e+00  -2.5651018437571829e-07 1.5384508012103444e-06 0.0000000000000000e+00  -2.3525544961423996e-07 1.5797708743124892e-06 0.0000000000000000e+00  -2.2966973822711502e-07 1.6143857209713702e-06 0.0000000000000000e+00  -2.3138813742405860e-07 1.6429414575000941e-06 0.0000000000000000e+00  -2.4986547582223849e-07 1.6803814651859077e-06 0.0000000000000000e+00  -2.5791671395507630e-07 1.7084337875143498e-06 0.0000000000000000e+00  -2.3696408152966117e-07 1.6827119485476838e-06 0.0000000000000000e+00  -1.4390219641892840e-07 1.5604588487183715e-06 0.0000000000000000e+00  -4.9487427644868255e-07 -1.1175505777314481e-08 0.0000000000000000e+00  -1.0737177827925556e-05 -5.0280402345538444e-06 0.0000000000000000e+00  -9.6902515338441992e-06 -4.6402275185160092e-06 0.0000000000000000e+00  -8.1316642834859764e-06 -4.0032603772136692e-06 0.0000000000000000e+00  -2.5850148161586190e-07 -4.5949880633934846e-09 0.0000000000000000e+00  -7.2286289975738070e-06 -3.6084778423380192e-06 0.0000000000000000e+00  -2.1381467900791125e-07 6.5581879645813933e-10 0.0000000000000000e+00  -6.3628475479463604e-06 -3.2309928869881667e-06 0.0000000000000000e+00  -2.3863172284322041e-07 -6.7471850460390407e-08 0.0000000000000000e+00  -3.1608911964379952e-07 -1.5896288591857171e-07 0.0000000000000000e+00  -5.5554905741571487e-06 -2.8693005328799999e-06 0.0000000000000000e+00  -7.4804259003924282e-07 -4.2818348749324334e-07 0.0000000000000000e+00  -4.1145486386168947e-06 -2.1990395985943527e-06 0.0000000000000000e+00  -4.3923130778443401e-07 -2.2938275151286321e-07 0.0000000000000000e+00  -1.0096884515308421e-06 -6.0297459602297942e-07 0.0000000000000000e+00  -3.4803503371397455e-06 -1.8929363582809656e-06 0.0000000000000000e+00  -4.8061314011564634e-06 -2.5248272716487458e-06 0.0000000000000000e+00  -1.3315103884609395e-06 -7.8487197138994683e-07 0.0000000000000000e+00  -2.9033783235186487e-06 -1.6078024469169101e-06 0.0000000000000000e+00  -1.6938666120016621e-06 -9.6379491736834866e-07 0.0000000000000000e+00  -2.3899599351413296e-06 -1.3660778095624858e-06 0.0000000000000000e+00  -2.0158283392178364e-06 -1.1520375011605556e-06 0.0000000000000000e+00  -5.7367279856496845e-07 -3.4080364302830876e-07 0.0000000000000000e+00  -8.9336600577334534e-06 -4.3146215504124303e-06 0.0000000000000000e+00  -2.1522347719045160e-07 -4.7741829881616780e-08 0.0000000000000000e+00  -1.0297644187331419e-05 -4.5064360697423380e-06 0.0000000000000000e+00  -3.3654042378886854e-07 6.3842417551800747e-07 0.0000000000000000e+00  -6.8618029186782480e-06 -3.1051212438719618e-06 0.0000000000000000e+00  -7.7592928374875925e-06 -3.5003074970154428e-06 0.0000000000000000e+00  -2.2519858067281268e-07 -6.0479325238184224e-07 0.0000000000000000e+00  -2.5664332834033938e-07 -5.8350335864159549e-07 0.0000000000000000e+00  -4.5166957543514737e-06 -2.0138217990186632e-06 0.0000000000000000e+00  -6.0223453245487448e-06 -2.7241915384349257e-06 0.0000000000000000e+00  -8.3872548961145894e-07 -9.4810040251330859e-07 0.0000000000000000e+00  -3.8499757237513222e-06 -1.6867291834218304e-06 0.0000000000000000e+00  -3.5577962746725529e-07 -6.5716588427103133e-07 0.0000000000000000e+00  -1.1288484269468522e-06 -1.1079926165816070e-06 0.0000000000000000e+00  -3.2405218954418146e-06 -1.3801917133394942e-06 0.0000000000000000e+00  -5.2408407869421668e-06 -2.3599482777471582e-06 0.0000000000000000e+00  -1.4625575031061085e-06 -1.3800954968018500e-06 0.0000000000000000e+00  -2.6876090547138899e-06 -1.0951476290741003e-06 0.0000000000000000e+00  -4.2252871680830180e-07 -3.7667433444163323e-07 0.0000000000000000e+00  -4.1445295270219335e-07 3.3922277760363756e-07 0.0000000000000000e+00  -1.1118395194774498e-05 -5.40