<?xml version="1.0"?>
<VTKFile type="UnstructuredGrid"  version="0.1"  >
<UnstructuredGrid>
<Piece  NumberOfPoints="1419" NumberOfCells="2698">
<Points>
<DataArray  type="Float64"  NumberOfComponents="3"  format="ascii">0 0 0  0 0.41 0  2.5 0 0  2.5 0.41 0  0.6 0.19 0  0.6 0.21 0  0.25 0.2 0  0.15 0.2 0  0.2489897948556636 0.21 0  0.2489897948556636 0.19 0  0.6 0.2 0  0 0.3807142857143437 0  0 0.3514285714286952 0  0 0.3221428571430699 0  0 0.29285714285744 0  0 0.2635714285718054 0  0 0.2342857142861561 0  0 0.2050000000005308 0  0 0.175714285714732 0  0 0.1464285714289574 0  0 0.1171428571431897 0  0 0.08785714285737878 0  0 0.05857142857161107 0  0 0.02928571428580012 0  0.03015443760436003 0 0  0.06140001986583606 0 0  0.09377624077125973 0 0  0.1273239957535082 0 0  0.1620856860351972 0 0  0.1981052433264291 0 0  0.235428184091502 0 0  0.2741016576309132 0 0  0.3141745521465447 0 0  0.3556974926295285 0 0  0.3987229542472677 0 0  0.4433053055141081 0 0  0.4895008759286886 0 0  0.5373680609405097 0 0  0.5869673343216626 0 0  0.6383613676634521 0 0  0.6916151138468254 0 0  0.7467958595648856 0 0  0.8039733463919316 0 0  0.8632198139502143 0 0  0.9246101326867038 0 0  0.9882218810934433 0 0  1.054135445558498 0 0  1.122434100542598 0 0  1.193204177141305 0 0  1.266535089879536 0 0  1.342519516046404 0 0  1.421253448503939 0 0  1.502836389106271 0 0  1.587371439758838 0 0  1.674965418777374 0 0  1.765729001825544 0 0  1.859776908880082 0 0  1.957227977487062 0 0  2.058205329869943 0 0  2.162836591189951 0 0  2.271253957290865 0 0  2.383594446803425 0 0  2.5 0.1024999999997612 0  2.5 0.2049999999994743 0  2.5 0.3074999999997183 0  2.383594446803656 0.41 0  2.271253957291315 0.41 0  2.162836591190598 0.41 0  2.058205329870775 0.41 0  1.957227977488067 0.41 0  1.859776908881246 0.41 0  1.765729001826854 0.41 0  1.674965418778818 0.41 0  1.58737143976041 0.41 0  1.502836389107956 0.41 0  1.421253448505726 0.41 0  1.342519516048286 0.41 0  1.266535089881505 0.41 0  1.193204177143353 0.41 0  1.122434100544716 0.41 0  1.05413544556068 0.41 0  0.9882218810956305 0.41 0  0.9246101326886647 0.41 0  0.8632198139519631 0.41 0  0.8039733463934788 0.41 0  0.7467958595662458 0.41 0  0.6916151138480078 0.41 0  0.6383613676644679 0.41 0  0.5869673343225223 0.41 0  0.5373680609412221 0.41 0  0.4895008759292634 0.41 0  0.4433053055145528 0.41 0  0.3987229542475914 0.41 0  0.3556974926297398 0.41 0  0.3141745521466497 0.41 0  0.2741016576310038 0.41 0  0.2354281840915826 0.41 0  0.1981052433265003 0.41 0  0.1620856860352591 0.41 0  0.1273239957535623 0.41 0  0.09377624077128965 0.41 0  0.06140001986584975 0.41 0  0.03015443760436654 0.41 0  0.2497468076502589 0.2050254481002335 0  0.2497468076502614 0.1949745518997913 0  0.2469965252529372 0.1829317073451959 0  0.2439893735792749 0.1762316384219906 0  0.2400332147834255 0.1700443375285386 0  0.2352133972704371 0.1645032867342007 0  0.2296339016332438 0.1597280261969788 0  0.2234150974217223 0.1558215752574715 0  0.2166911463437691 0.1528682099456123 0  0.2096071079204251 0.1509316448471593 0  0.2023158100364996 0.1500536585536553 0  0.194974551899914 0.1502531923497262 0  0.1877417105387872 0.1515259415822739 0  0.1807733240461124 0.153844448527136 0  0.1742197252835808 0.15715869474974 0  0.1682222986673531 0.1613971801805478 0  0.162910430003803 0.1664684656256651 0  0.1583987151779087 0.1722631454351573 0  0.1547844879126891 0.178656207771761 0  0.1521457199348551 0.1855097315605723 0  0.1505393388476355 0.1926758619366523 0  0.1505393388476328 0.2073241380633295 0  0.1521457199348437 0.2144902684393899 0  0.1547844879126531 0.221343792228163 0  0.1583987151778488 0.2277368545647528 0  0.1629104300036858 0.2335315343742052 0  0.1682222986671726 0.2386028198193036 0  0.1742197252833576 0.2428413052501257 0  0.1807733240458683 0.2461555514727623 0  0.1877417105384929 0.2484740584176516 0  0.1949745518995776 0.2497468076502398 0  0.202315810036185 0.2499463414463592 0  0.2096071079201568 0.2490683551528932 0  0.2166911463435495 0.2471317900544655 0  0.2234150974215506 0.2441784247426195 0  0.2296339016331197 0.2402719738031125 0  0.2352133972703547 0.2354967132658811 0  0.2400332147833751 0.2299556624715287 0  0.2439893735792577 0.2237683615780412 0  0.246996525252926 0.2170682926548348 0  0.25645809709277 0.21 0  0.2639263993298655 0.21 0  0.271394701566961 0.21 0  0.2788630038040554 0.21 0  0.2863313060411479 0.21 0  0.2937996082782405 0.21 0  0.301267910515333 0.21 0  0.3087362127524279 0.21 0  0.3162045149895234 0.21 0  0.3236728172265972 0.21 0  0.3311411194636928 0.21 0  0.3386094217007701 0.21 0  0.3460777239378666 0.21 0  0.3535460261749672 0.21 0  0.3610143284120516 0.21 0  0.3684826306491596 0.21 0  0.3759509328862226 0.21 0  0.383419235123329 0.21 0  0.3908875373604028 0.21 0  0.3983558395975142 0.21 0  0.4058241418345938 0.21 0  0.4132924440716992 0.21 0  0.4207607463087888 0.21 0  0.4282290485459029 0.21 0  0.4356973507830418 0.21 0  0.4431656530201649 0.21 0  0.4506339552573136 0.21 0  0.4581022574944306 0.21 0  0.4655705597315852 0.21 0  0.4730388619686996 0.21 0  0.480507164205851 0.21 0  0.4879754664429498 0.21 0  0.4954437686800938 0.21 0  0.502912070917267 0.21 0  0.5103803731544119 0.21 0  0.5178486753915261 0.21 0  0.5253169776286404 0.21 0  0.5327852798657868 0.21 0  0.5402535821029386 0.21 0  0.54772188434007 0.21 0  0.5551901865771842 0.21 0  0.5626584888143201 0.21 0  0.5701267910514778 0.21 0  0.5775950932886138 0.21 0  0.5850633955257281 0.21 0  0.5925316977628483 0.21 0  0.6 0.2050000000000054 0  0.6 0.1950000000000217 0  0.5925316977628897 0.19 0  0.5850633955257988 0.19 0  0.5775950932887378 0.19 0  0.5701267910515998 0.19 0  0.5626584888145268 0.19 0  0.5551901865773963 0.19 0  0.547721884340339 0.19 0  0.5402535821032429 0.19 0  0.5327852798661811 0.19 0  0.5253169776290537 0.19 0  0.5178486753919799 0.19 0  0.5103803731549078 0.19 0  0.502912070917822 0.19 0  0.4954437686807294 0.19 0  0.4879754664436223 0.19 0  0.4805071642065402 0.19 0  0.4730388619694271 0.19 0  0.4655705597323621 0.19 0  0.4581022574952563 0.19 0  0.4506339552581777 0.19 0  0.4431656530210671 0.19 0  0.4356973507839815 0.19 0  0.4282290485468779 0.19 0  0.4207607463097617 0.19 0  0.4132924440726327 0.19 0  0.4058241418354857 0.19 0  0.3983558395983636 0.19 0  0.3908875373612097 0.19 0  0.3834192351240934 0.19 0  0.3759509328869369 0.19 0  0.3684826306498175 0.19 0  0.361014328412667 0.19 0  0.3535460261755617 0.19 0  0.3460777239384295 0.19 0  0.3386094217012945 0.19 0  0.3311411194641595 0.19 0  0.3236728172270245 0.19 0  0.3162045149898895 0.19 0  0.3087362127527544 0.19 0  0.3012679105156187 0.19 0  0.2937996082784807 0.19 0  0.2863313060413428 0.19 0  0.2788630038042048 0.19 0  0.2713947015670686 0.19 0  0.2639263993299336 0.19 0  0.2564580970927985 0.19 0  0.2607803159922026 0.2000727136295815 0  0.5887803774232762 0.2001272386983733 0  0.5745072403740523 0.2002044435018727 0  0.5511891430099709 0.2001122610077113 0  0.2751288526855082 0.20000000000002 0  0.5365194309847112 0.1999999999999436 0  0.2894621222999649 0.1998691686390484 0  0.5215828265105155 0.1999999999999228 0  0.3127789816668748 0.1998657885438805 0  0.3274069683451451 0.2000000000000796 0  0.5066462220363641 0.199999999999908 0  0.3650630746574081 0.199866017807523 0  0.476773013087985 0.1999999999998713 0  0.3417402379596385 0.1998691686391011 0  0.3796850840047755 0.200000000000134 0  0.4618364086138087 0.1999999999998546 0  0.4917096175621762 0.1999999999998808 0  0.3946216884789568 0.2000000000001512 0  0.446899804139621 0.1999999999998389 0  0.4089549580935208 0.1998691686391595 0  0.4322718174608562 0.200127451265745 0  0.4201487168029707 0.1999966199048527 0  0.3528922713220932 0.2000185703532356 0  0.5633122436674589 0.1999814296467508 0  0.3006558810093873 0.1999966199048318 0  0.5815926498168407 0.1966545283159175 0  0.2677053789419034 0.1964246479135325 0  0.5290511287476175 0.1970915826863981 0  0.5439877332217911 0.197091582686394 0  0.2825131256993216 0.2035478995978015 0  0.3199386661080599 0.202908417313604 0  0.4842413153250809 0.1970915826863873 0  0.5141145242734466 0.1970915826863843 0  0.3722167817676917 0.2029084173136195 0  0.4693047108508938 0.1970915826863783 0  0.3348752705822316 0.202908417313609 0  0.3871533862418661 0.2029084173136212 0  0.4543681063767183 0.1970915826863795 0  0.4991779197992749 0.1970915826863902 0  0.4020059614928624 0.203547899597858 0  0.4394315019025246 0.1970915826863714 0  0.2550657455369551 0.2034088125358657 0  0.2548908499171161 0.1966940311614271 0  0.5946539510196798 0.2024302972968126 0  0.267698176732111 0.2039977513680092 0  0.4261685417851465 0.196409292431739 0  0.3590076176283495 0.196411355804271 0  0.5571672426447437 0.2036011176410121 0  0.3066757059912147 0.1964092924317024 0  0.594380730180568 0.1966558399668133 0  0.4842413153245942 0.2040749161535287 0  0.4693047108503577 0.2040749161535231 0  0.3871533862424271 0.1959250838464788 0  0.372246743208829 0.1959123236376545 0  0.5141145242731028 0.2040749161535395 0  0.4543681063761134 0.2040749161535186 0  0.4019979587101454 0.1959834479682427 0  0.4394608940728603 0.2040870543693135 0  0.5439623148931173 0.2040856076781014 0  0.5290511287473298 0.2040749161535501 0  0.4991779197988497 0.2040749161535382 0  0.3347912413592433 0.1959225448935183 0  0.3199680582793816 0.1959123018030061 0  0.2825051229162361 0.1959834479681729 0  0.3590471196690275 0.2036304442587945 0  0.5571594006495384 0.1963685282145804 0  0.3067669986803285 0.203627750582736 0  0.4262598344738712 0.2036568242185335 0  0.5814408164431408 0.2041285596160068 0  0.5688286748170428 0.1961819304477386 0  0.4145905603063645 0.2038180695522843 0  0.3473758401724931 0.2038180695522752 0  0.2950977245128307 0.2038180695522663 0  0.5688286748170693 0.203818069552238 0  0.2950977245127906 0.1961819304477774 0  0.3473758401723931 0.1961819304478349 0  0.4145905603061963 0.1961819304479011 0  0.2601812407614425 0.2056861609747042
[...]
<PointData  Vectors="f_46-2"> 
<DataArray  type="Float64"  Name="f_46-2"  NumberOfComponents="3" format="ascii">0.0000000000000000e+00 0.0000000000000000e+00 0.0000000000000000e+00  0.0000000000000000e+00 0.0000000000000000e+00 0.0000000000000000e+00  0.0000000000000000e+00 0.0000000000000000e+00 0.0000000000000000e+00  0.0000000000000000e+00 0.0000000000000000e+00 0.0000000000000000e+00  1.4766745324214263e-05 -1.5977617912970535e-04 0.0000000000000000e+00  2.7272070785098807e-05 -1.6250984596960334e-04 0.0000000000000000e+00  0.0000000000000000e+00 0.0000000000000000e+00 0.0000000000000000e+00  0.0000000000000000e+00 0.0000000000000000e+00 0.0000000000000000e+00  0.0000000000000000e+00 0.0000000000000000e+00 0.0000000000000000e+00  0.0000000000000000e+00 0.0000000000000000e+00 0.0000000000000000e+00  2.0609975438322924e-05 -1.6114553908183369e-04 0.0000000000000000e+00  0.0000000000000000e+00 0.0000000000000000e+00 0.0000000000000000e+00  0.0000000000000000e+00 0.0000000000000000e+00 0.0000000000000000e+00  0.0000000000000000e+00 0.0000000000000000e+00 0.0000000000000000e+00  0.0000000000000000e+00 0.0000000000000000e+00 0.0000000000000000e+00  0.0000000000000000e+00 0.0000000000000000e+00 0.0000000000000000e+00  0.0000000000000000e+00 0.0000000000000000e+00 0.0000000000000000e+00  0.0000000000000000e+00 0.0000000000000000e+00 0.0000000000000000e+00  0.0000000000000000e+00 0.0000000000000000e+00 0.0000000000000000e+00  0.0000000000000000e+00 0.0000000000000000e+00 0.0000000000000000e+00  0.0000000000000000e+00 0.0000000000000000e+00 0.0000000000000000e+00  0.0000000000000000e+00 0.0000000000000000e+00 0.0000000000000000e+00  0.0000000000000000e+00 0.0000000000000000e+00 0.0000000000000000e+00  0.0000000000000000e+00 0.0000000000000000e+00 0.0000000000000000e+00  0.0000000000000000e+00 0.0000000000000000e+00 0.0000000000000000e+00  0.0000000000000000e+00 0.0000000000000000e+00 0.0000000000000000e+00  0.0000000000000000e+00 0.0000000000000000e+00 0.0000000000000000e+00  0.0000000000000000e+00 0.0000000000000000e+00 0.0000000000000000e+00  0.0000000000000000e+00 0.0000000000000000e+00 0.0000000000000000e+00  0.0000000000000000e+00 0.0000000000000000e+00 0.0000000000000000e+00  0.0000000000000000e+00 0.0000000000000000e+00 0.0000000000000000e+00  0.0000000000000000e+00 0.0000000000000000e+00 0.0000000000000000e+00  0.0000000000000000e+00 0.0000000000000000e+00 0.0000000000000000e+00  0.0000000000000000e+00 0.0000000000000000e+00 0.0000000000000000e+00  0.0000000000000000e+00 0.0000000000000000e+00 0.0000000000000000e+00  2.8988157926302970e-13 8.2628348882627277e-17 0.0000000000000000e+00  0.0000000000000000e+00 0.0000000000000000e+00 0.0000000000000000e+00  0.0000000000000000e+00 0.0000000000000000e+00 0.0000000000000000e+00  0.0000000000000000e+00 0.0000000000000000e+00 0.0000000000000000e+00  0.0000000000000000e+00 0.0000000000000000e+00 0.0000000000000000e+00  0.0000000000000000e+00 0.0000000000000000e+00 0.0000000000000000e+00  0.0000000000000000e+00 0.0000000000000000e+00 0.0000000000000000e+00  0.0000000000000000e+00 0.0000000000000000e+00 0.0000000000000000e+00  0.0000000000000000e+00 0.0000000000000000e+00 0.0000000000000000e+00  0.0000000000000000e+00 0.0000000000000000e+00 0.0000000000000000e+00  0.0000000000000000e+00 0.0000000000000000e+00 0.0000000000000000e+00  0.0000000000000000e+00 0.0000000000000000e+00 0.0000000000000000e+00  0.0000000000000000e+00 0.0000000000000000e+00 0.0000000000000000e+00  0.0000000000000000e+00 0.0000000000000000e+00 0.0000000000000000e+00  0.0000000000000000e+00 0.0000000000000000e+00 0.0000000000000000e+00  0.0000000000000000e+00 0.0000000000000000e+00 0.0000000000000000e+00  0.0000000000000000e+00 0.0000000000000000e+00 0.0000000000000000e+00  0.0000000000000000e+00 0.0000000000000000e+00 0.0000000000000000e+00  0.0000000000000000e+00 0.0000000000000000e+00 0.0000000000000000e+00  0.0000000000000000e+00 0.0000000000000000e+00 0.0000000000000000e+00  0.0000000000000000e+00 0.0000000000000000e+00 0.0000000000000000e+00  0.0000000000000000e+00 0.0000000000000000e+00 0.0000000000000000e+00  0.0000000000000000e+00 0.0000000000000000e+00 0.0000000000000000e+00  0.0000000000000000e+00 0.0000000000000000e+00 0.0000000000000000e+00  0.0000000000000000e+00 0.0000000000000000e+00 0.0000000000000000e+00  0.0000000000000000e+00 0.0000000000000000e+00 0.0000000000000000e+00  0.0000000000000000e+00 0.0000000000000000e+00 0.0000000000000000e+00  0.0000000000000000e+00 0.0000000000000000e+00 0.0000000000000000e+00  0.0000000000000000e+00 0.0000000000000000e+00 0.0000000000000000e+00  0.0000000000000000e+00 0.0000000000000000e+00 0.0000000000000000e+00  0.0000000000000000e+00 0.0000000000000000e+00 0.0000000000000000e+00  0.0000000000000000e+00 0.0000000000000000e+00 0.0000000000000000e+00  0.0000000000000000e+00 0.0000000000000000e+00 0.0000000000000000e+00  0.0000000000000000e+00 0.0000000000000000e+00 0.0000000000000000e+00  0.0000000000000000e+00 0.0000000000000000e+00 0.0000000000000000e+00  0.0000000000000000e+00 0.0000000000000000e+00 0.0000000000000000e+00  0.0000000000000000e+00 0.0000000000000000e+00 0.0000000000000000e+00  0.0000000000000000e+00 0.0000000000000000e+00 0.0000000000000000e+00  0.0000000000000000e+00 0.0000000000000000e+00 0.0000000000000000e+00  0.0000000000000000e+00 0.0000000000000000e+00 0.0000000000000000e+00  0.0000000000000000e+00 0.0000000000000000e+00 0.0000000000000000e+00  0.0000000000000000e+00 0.0000000000000000e+00 0.0000000000000000e+00  0.0000000000000000e+00 0.0000000000000000e+00 0.0000000000000000e+00  0.0000000000000000e+00 0.0000000000000000e+00 0.0000000000000000e+00  0.0000000000000000e+00 0.0000000000000000e+00 0.0000000000000000e+00  0.0000000000000000e+00 0.0000000000000000e+00 0.0000000000000000e+00  0.0000000000000000e+00 0.0000000000000000e+00 0.0000000000000000e+00  0.0000000000000000e+00 0.0000000000000000e+00 0.0000000000000000e+00  0.0000000000000000e+00 0.0000000000000000e+00 0.0000000000000000e+00  0.0000000000000000e+00 0.0000000000000000e+00 0.0000000000000000e+00  0.0000000000000000e+00 0.0000000000000000e+00 0.0000000000000000e+00  0.0000000000000000e+00 0.0000000000000000e+00 0.0000000000000000e+00  0.0000000000000000e+00 0.0000000000000000e+00 0.0000000000000000e+00  -1.2432787415764763e-12 0.0000000000000000e+00 0.0000000000000000e+00  0.0000000000000000e+00 0.0000000000000000e+00 0.0000000000000000e+00  0.0000000000000000e+00 0.0000000000000000e+00 0.0000000000000000e+00  0.0000000000000000e+00 0.0000000000000000e+00 0.0000000000000000e+00  0.0000000000000000e+00 0.0000000000000000e+00 0.0000000000000000e+00  0.0000000000000000e+00 0.0000000000000000e+00 0.0000000000000000e+00  -1.1257583303769306e-13 0.0000000000000000e+00 0.0000000000000000e+00  0.0000000000000000e+00 0.0000000000000000e+00 0.0000000000000000e+00  0.0000000000000000e+00 0.0000000000000000e+00 0.0000000000000000e+00  0.0000000000000000e+00 0.0000000000000000e+00 0.0000000000000000e+00  0.0000000000000000e+00 0.0000000000000000e+00 0.0000000000000000e+00  0.0000000000000000e+00 0.0000000000000000e+00 0.0000000000000000e+00  0.0000000000000000e+00 0.0000000000000000e+00 0.0000000000000000e+00  0.0000000000000000e+00 0.0000000000000000e+00 0.0000000000000000e+00  0.0000000000000000e+00 0.0000000000000000e+00 0.0000000000000000e+00  0.0000000000000000e+00 0.0000000000000000e+00 0.0000000000000000e+00  0.0000000000000000e+00 0.0000000000000000e+00 0.0000000000000000e+00  -1.0654402290375888e-13 1.0387699201635182e-13 0.0000000000000000e+00  0.0000000000000000e+00 0.0000000000000000e+00 0.0000000000000000e+00  0.0000000000000000e+00 0.0000000000000000e+00 0.0000000000000000e+00  0.0000000000000000e+00 0.0000000000000000e+00 0.0000000000000000e+00  0.0000000000000000e+00 0.0000000000000000e+00 0.0000000000000000e+00  0.0000000000000000e+00 0.0000000000000000e+00 0.0000000000000000e+00  0.0000000000000000e+00 0.0000000000000000e+00 0.0000000000000000e+00  0.0000000000000000e+00 0.0000000000000000e+00 0.0000000000000000e+00  0.0000000000000000e+00 0.0000000000000000e+00 0.0000000000000000e+00  0.0000000000000000e+00 0.0000000000000000e+00 0.0000000000000000e+00  0.0000000000000000e+00 0.0000000000000000e+00 0.0000000000000000e+00  0.0000000000000000e+00 0.0000000000000000e+00 0.0000000000000000e+00  0.0000000000000000e+00 0.0000000000000000e+00 0.0000000000000000e+00  0.0000000000000000e+00 0.0000000000000000e+00 0.0000000000000000e+00  0.0000000000000000e+00 0.0000000000000000e+00 0.0000000000000000e+00  0.0000000000000000e+00 0.0000000000000000e+00 0.0000000000000000e+00  0.0000000000000000e+00 0.0000000000000000e+00 0.0000000000000000e+00  0.0000000000000000e+00 0.0000000000000000e+00 0.0000000000000000e+00  0.0000000000000000e+00 0.0000000000000000e+00 0.0000000000000000e+00  0.0000000000000000e+00 0.0000000000000000e+00 0.0000000000000000e+00  0.0000000000000000e+00 0.0000000000000000e+00 0.0000000000000000e+00  0.0000000000000000e+00 0.0000000000000000e+00 0.0000000000000000e+00  0.0000000000000000e+00 0.0000000000000000e+00 0.0000000000000000e+00  0.0000000000000000e+00 0.0000000000000000e+00 0.0000000000000000e+00  0.0000000000000000e+00 0.0000000000000000e+00 0.0000000000000000e+00  0.0000000000000000e+00 0.0000000000000000e+00 0.0000000000000000e+00  0.0000000000000000e+00 0.0000000000000000e+00 0.0000000000000000e+00  0.0000000000000000e+00 0.0000000000000000e+00 0.0000000000000000e+00  0.0000000000000000e+00 0.0000000000000000e+00 0.0000000000000000e+00  0.0000000000000000e+00 0.0000000000000000e+00 0.0000000000000000e+00  0.0000000000000000e+00 0.0000000000000000e+00 0.0000000000000000e+00  0.0000000000000000e+00 0.0000000000000000e+00 0.0000000000000000e+00  0.0000000000000000e+00 0.0000000000000000e+00 0.0000000000000000e+00  0.0000000000000000e+00 0.0000000000000000e+00 0.0000000000000000e+00  0.0000000000000000e+00 0.0000000000000000e+00 0.0000000000000000e+00  0.0000000000000000e+00 0.0000000000000000e+00 0.0000000000000000e+00  0.0000000000000000e+00 0.0000000000000000e+00 0.0000000000000000e+00  -8.0303507415697558e-15 -6.2789607744060355e-15 0.0000000000000000e+00  1.1273779058045269e-06 -3.0657620819679540e-06 0.0000000000000000e+00  2.4286686827317355e-06 -3.6458426340955048e-06 0.0000000000000000e+00  3.8618716168297490e-06 -4.3075793782963798e-06 0.0000000000000000e+00  5.3974723823128486e-06 -5.1391876503236841e-06 0.0000000000000000e+00  6.8924147218144465e-06 -6.1892964088589006e-06 0.0000000000000000e+00  8.4075711968049692e-06 -7.5085265426506663e-06 0.0000000000000000e+00  9.8355167973800704e-06 -9.0054656944308643e-06 0.0000000000000000e+00  1.1222395254992163e-05 -1.0744101180008740e-05 0.0000000000000000e+00  1.2627855236025390e-05 -1.2672967417408570e-05 0.0000000000000000e+00  1.3915229734996075e-05 -1.4782030778981772e-05 0.0000000000000000e+00  1.5222542959501913e-05 -1.7106712769082592e-05 0.0000000000000000e+00  1.6414082922880418e-05 -1.9585222402611552e-05 0.0000000000000000e+00  1.7602154098600378e-05 -2.2251095050370560e-05 0.0000000000000000e+00  1.8701531225763593e-05 -2.5056792940961131e-05 0.0000000000000000e+00  1.9746694464594335e-05 -2.8030771767344860e-05 0.0000000000000000e+00  2.0785983631332328e-05 -3.1145588854217551e-05 0.0000000000000000e+00  2.1721131436834663e-05 -3.4372565306475332e-05 0.0000000000000000e+00  2.2646719509679507e-05 -3.7759036696009887e-05 0.0000000000000000e+00  2.3476883065154363e-05 -4.1229964607455382e-05 0.0000000000000000e+00  2.4292239085149547e-05 -4.4840155945822767e-05 0.0000000000000000e+00  2.5026407344302905e-05 -4.8524781963603066e-05 0.0000000000000000e+00  2.5724001161466166e-05 -5.2326707927806118e-05 0.0000000000000000e+00  2.6359008129168010e-05 -5.6201136382203327e-05 0.0000000000000000e+00  2.6940952778283010e-05 -6.0164042176444847e-05 0.0000000000000000e+00  2.7500216115362308e-05 -6.4202208017751400e-05 0.0000000000000000e+00  2.7987261121654740e-05 -6.8293432091211503e-05 0.0000000000000000e+00  2.8428486405822984e-05 -7.2478987864106603e-05 0.0000000000000000e+00  2.8815075009568572e-05 -7.6688494988971071e-05 0.0000000000000000e+00  2.9155739127755600e-05 -8.0980561953631198e-05 0.0000000000000000e+00  2.9443747515349366e-05 -8.5289255007030225e-05 0.0000000000000000e+00  2.9686771992479657e-05 -8.9668339666201859e-05 0.0000000000000000e+00  2.9876983606586127e-05 -9.4053630561124151e-05 0.0000000000000000e+00  3.0023566378671079e-05 -9.8501369859142998e-05 0.0000000000000000e+00  3.0117696680261749e-05 -1.0294492431306522e-04 0.0000000000000000e+00  3.0164783196234128e-05 -1.0744618697533693e-04 0.0000000000000000e+00  3.0163366185574301e-05 -1.1193766957188085e-04 0.0000000000000000e+00  3.0116792972505213e-05 -1.1647750125076053e-04 0.0000000000000000e+00  3.0021753663141579e-05 -1.2100337694679871e-04 0.0000000000000000e+00  2.9879877008533693e-05 -1.2557207828914287e-04 0.0000000000000000e+00  2.9687559243038359e-05 -1.3012233294848786e-04 0.0000000000000000e+00  2.9442424410072984e-05 -1.3470050888991699e-04 0.0000000000000000e+00  2.9157896258907313e-05 -1.3927412331545894e-04 0.0000000000000000e+00  2.8819889769182354e-05 -1.4385906339802211e-04 0.0000000000000000e+00  2.8453991919525264e-05 -1.4844568377472776e-04 0.0000000000000000e+00  2.8031937349293507e-05 -1.5301919372608336e-04 0.0000000000000000e+00  2.7610856608886930e-05 -1.5764698981130142e-04 0.0000000000000000e+00  2.3801331268273864e-05 -1.6182168847361938e-04 0.0000000000000000e+00  1.7565059994725698e-05 -1.6047337530259887e-04 0.0000000000000000e+00  1.5123367036883287e-05 -1.5531907224819821e-04 0.0000000000000000e+00  1.5570419037955778e-05 -1.5062065257881292e-04 0.0000000000000000e+00  1.6010147858904341e-05 -1.4589659023321529e-04 0.0000000000000000e+00  1.6398439227873159e-05 -1.4119937299464366e-04 0.0000000000000000e+00  1.6756341154591783e-05 -1.3650830057566470e-04 0.0000000000000000e+00  1.7060419912532167e-05 -1.3182585729413376e-04 0.0000000000000000e+00  1.7331221190413720e-05 -1.2715919695424676e-04 0.0000000000000000e+00  1.7549176554430114e-05 -1.2248463399574849e-04 0.0000000000000000e+00  1.7729030370390345e-05 -1.1784918787193138e-04 0.0000000000000000e+00  1.7862406603027685e-05 -1.1319780577390393e-04 0.0000000000000000e+00  1.7960941939341481e-05 -1.0859179502918657e-04 0.0000000000000000e+00  1.8012689626543503e-05 -1.0397516264538076e-04 0.0000000000000000e+00  1.8032196588991789e-05 -9.9409299741266919e-05 0.0000000000000000e+00  1.8004878208281069e-05 -9.4840638506076401e-05 0.0000000000000000e+00  1.7949877103570265e-05 -9.0328670230123632e-05 0.0000000000000000e+00  1.7845691846688472e-05 -8.5821089260657382e-05 0.0000000000000000e+00  1.7717679678701203e-05 -8.1377724530319872e-05 0.0000000000000000e+00  1.7538621908745131e-05 -7.6947393025700235e-05 0.0000000000000000e+00  1.7339726816200505e-05 -7.2591480253131286e-05 0.0000000000000000e+00  1.7087873015968084e-05 -6.8260557957471282e-05 0.0000000000000000e+00  1.6821515859102990e-05 -6.4014199747227616e-05 0.0000000000000000e+00  1.6498399923299392e-05 -5.9805301103021003e-05 0.0000000000000000e+00  1.6157665120622507e-05 -5.5683882124112107e-05 0.0000000000000000e+00  1.5771360921233013e-05 -5.1623933184935227e-05 0.0000000000000000e+00  1.5343952341060438e-05 -4.7660572692360725e-05 0.0000000000000000e+00  1.4915742286666431e-05 -4.3771913202893748e-05 0.0000000000000000e+00  1.4430309857639974e-05 -3.9973679575663705e-05 0.0000000000000000e+00  1.3924821516685341e-05 -3.6298482236264562e-05 0.0000000000000000e+00  1.3374673749043601e-05 -3.2709101466547263e-05 0.0000000000000000e+00  1.2803792606347288e-05 -2.9262122085536090e-05 0.0000000000000000e+00  1.2188440867626174e-05 -2.5911569013183661e-05 0.0000000000000000e+00  1.1563052917994347e-05 -2.2729461654053858e-05 0.0000000000000000e+00  1.0883510960621970e-05 -1.9657401937397724e-05 0.0000000000000000e+00  1.0167600732700835e-05 -1.6768791474465627e-05 0.0000000000000000e+00  9.4691796413481264e-06 -1.4009780249261731e-05 0.0000000000000000e+00  8.7107176137969933e-06 -1.1432327148083551e-05 0.0000000000000000e+00  7.9410079442440267e-06 -9.0514298744572420e-06 0.0000000000000000e+00  7.1266807385035036e-06 -6.8374667004869991e-06 0.0000000000000000e+00  6.3195247515792044e-06 -4.8563275293201223e-06 0.0000000000000000e+00  5.4508164539233894e-06 -3.0464147460766528e-06 0.0000000000000000e+00  4.5545717316082167e-06 -1.4917538397758864e-06 0.0000000000000000e+00  3.7013485915534460e-06 -1.2509872133434931e-07 0.0000000000000000e+00  2.7901733553761644e-06 1.0127498958128595e-06 0.0000000000000000e+00  1.9468451300542018e-06 1.8967732778116360e-06 0.0000000000000000e+00  1.1262111352643856e-06 2.4466819221544930e-06 0.0000000000000000e+00  5.1248535462216114e-07 2.5803832553182085e-06 0.0000000000000000e+00  8.1980084547633974e-07 -2.6065430635199449e-07 0.0000000000000000e+00  2.1509344978888565e-05 -1.5414788095292607e-04 0.0000000000000000e+00  2.2465049785065297e-05 -1.4527078899303540e-04 0.0000000000000000e+00  2.3411780980112550e-05 -1.3079574907029108e-04 0.0000000000000000e+00  3.4600819281501643e-06 -1.4477567091122921e-06 0.0000000000000000e+00  2.3737983983707357e-05 -1.2171681369104469e-04 0.0000000000000000e+00  5.7502617546369355e-06 -3.4979611942693699e-06 0.0000000000000000e+00  2.3970263758240359e-05 -1.1253715023620368e-04 0.0000000000000000e+00  9.2954709324427562e-06 -8.6608188927652719e-06 0.0000000000000000e+00  1.1399855964759047e-05 -1.2951472717098960e-05 0.0000000000000000e+00  2.4026568253844116e-05 -1.0342583703984369e-04 0.0000000000000000e+00  1.6005317545656623e-05 -2.6942303023849381e-05 0.0000000000000000e+00  2.3618843571035196e-05 -8.5508110486424340e-05 0.0000000000000000e+00  1.3252115350358207e-05 -1.7763719375480652e-05 0.0000000000000000e+00  1.7584071379266917e-05 -3.3431248054246190e-05 0.0000000000000000e+00  2.3157924551114614e-05 -7.6763845100185981e-05 0.0000000000000000e+00  2.3908933330848970e-05 -9.4406493268974566e-05 0.0000000000000000e+00  1.8980023201773471e-05 -4.0501651505626646e-05 0.0000000000000000e+00  2.2526240227706929e-05 -6.8215390036865093e-05 0.0000000000000000e+00  2.0098303393298467e-05 -4.7654189856607677e-05 0.0000000000000000e+00  2.1818315401476306e-05 -6.0103557781939591e-05 0.0000000000000000e+00  2.0956789405680042e-05 -5.3547509352119138e-05 0.0000000000000000e+00  1.4659158555175035e-05 -2.2032735907318124e-05 0.0000000000000000e+00  2.2845292930168700e-05 -1.3829046545350010e-04 0.0000000000000000e+00  7.4999804575618352e-06 -5.7879734784960429e-06 0.0000000000000000e+00  1.9838450997285509e-05 -1.4925173326864680e-04 0.0000000000000000e+00  1.8832374124536730e-06 4.1777478998815655e-07 0.0000000000000000e+00  2.2092901641837684e-05 -1.1665357469206691e-04 0.0000000000000000e+00  2.1762711812035149e-05 -1.2588650061632129e-04 0.0000000000000000e+00  5.1695126726963107e-06 -3.5237226254287609e-06 0.0000000000000000e+00  1.1196904224002080e-05 -1.1545104637080231e-05 0.0000000000000000e+00  2.2058727594809683e-05 -8.9393146046414291e-05 0.0000000000000000e+00  2.2250900178350404e-05 -1.0747793809857677e-04 0.0000000000000000e+00  1.8100465614645221e-05 -3.0835595262573884e-05 0.0000000000000000e+00  2.1714216303408740e-05 -8.0540617746254023e-05 0.0000000000000000e+00  1.3379878314591315e-05 -1.6231859791513340e-05 0.0000000000000000e+00  1.9670498020157306e-05 -3.7646826081840646e-05 0.0000000000000000e+00  2.1206259809787497e-05 -7.1862625836261284e-05 0.0000000000000000e+00  2.2238371448446467e-05 -9.8382113557280977e-05 0.0000000000000000e+00  2.1378731477756795e-05 -4.5023595190597206e-05 0.0000000000000000e+00  2.0536876580946387e-05 -6.3403424669014095e-05 0.0000000000000000e+00  1.1004135144667437e-07 -7.3848799624956606e-07 0.0000000000000000e+00  -3.9352994355119486e-09 5.8337934327831229e-07 0.0000000000000000e+00  2.2520260955297299e-05 -1.5808754813774082e-04 0.0000000000000000e+00  2.5099759703712503e-06 -2.0267814238433550e-06 0.0000000000000000e+00  1.9445