<?xml version="1.0"?>
<VTKFile type="UnstructuredGrid"  version="0.1"  >
<UnstructuredGrid>
<Piece  NumberOfPoints="1419" NumberOfCells="2698">
<Points>
<DataArray  type="Float64"  NumberOfComponents="3"  format="ascii">0 0 0  0 0.41 0  2.5 0 0  2.5 0.41 0  0.6 0.19 0  0.6 0.21 0  0.25 0.2 0  0.15 0.2 0  0.2489897948556636 0.21 0  0.2489897948556636 0.19 0  0.6 0.2 0  0 0.3807142857143437 0  0 0.3514285714286952 0  0 0.3221428571430699 0  0 0.29285714285744 0  0 0.2635714285718054 0  0 0.2342857142861561 0  0 0.2050000000005308 0  0 0.175714285714732 0  0 0.1464285714289574 0  0 0.1171428571431897 0  0 0.08785714285737878 0  0 0.05857142857161107 0  0 0.02928571428580012 0  0.03015443760436003 0 0  0.06140001986583606 0 0  0.09377624077125973 0 0  0.1273239957535082 0 0  0.1620856860351972 0 0  0.1981052433264291 0 0  0.235428184091502 0 0  0.2741016576309132 0 0  0.3141745521465447 0 0  0.3556974926295285 0 0  0.3987229542472677 0 0  0.4433053055141081 0 0  0.4895008759286886 0 0  0.5373680609405097 0 0  0.5869673343216626 0 0  0.6383613676634521 0 0  0.6916151138468254 0 0  0.7467958595648856 0 0  0.8039733463919316 0 0  0.8632198139502143 0 0  0.9246101326867038 0 0  0.9882218810934433 0 0  1.054135445558498 0 0  1.122434100542598 0 0  1.193204177141305 0 0  1.266535089879536 0 0  1.342519516046404 0 0  1.421253448503939 0 0  1.502836389106271 0 0  1.587371439758838 0 0  1.674965418777374 0 0  1.765729001825544 0 0  1.859776908880082 0 0  1.957227977487062 0 0  2.058205329869943 0 0  2.162836591189951 0 0  2.271253957290865 0 0  2.383594446803425 0 0  2.5 0.1024999999997612 0  2.5 0.2049999999994743 0  2.5 0.3074999999997183 0  2.383594446803656 0.41 0  2.271253957291315 0.41 0  2.162836591190598 0.41 0  2.058205329870775 0.41 0  1.957227977488067 0.41 0  1.859776908881246 0.41 0  1.765729001826854 0.41 0  1.674965418778818 0.41 0  1.58737143976041 0.41 0  1.502836389107956 0.41 0  1.421253448505726 0.41 0  1.342519516048286 0.41 0  1.266535089881505 0.41 0  1.193204177143353 0.41 0  1.122434100544716 0.41 0  1.05413544556068 0.41 0  0.9882218810956305 0.41 0  0.9246101326886647 0.41 0  0.8632198139519631 0.41 0  0.8039733463934788 0.41 0  0.7467958595662458 0.41 0  0.6916151138480078 0.41 0  0.6383613676644679 0.41 0  0.5869673343225223 0.41 0  0.5373680609412221 0.41 0  0.4895008759292634 0.41 0  0.4433053055145528 0.41 0  0.3987229542475914 0.41 0  0.3556974926297398 0.41 0  0.3141745521466497 0.41 0  0.2741016576310038 0.41 0  0.2354281840915826 0.41 0  0.1981052433265003 0.41 0  0.1620856860352591 0.41 0  0.1273239957535623 0.41 0  0.09377624077128965 0.41 0  0.06140001986584975 0.41 0  0.03015443760436654 0.41 0  0.2497468076502589 0.2050254481002335 0  0.2497468076502614 0.1949745518997913 0  0.2469965252529372 0.1829317073451959 0  0.2439893735792749 0.1762316384219906 0  0.2400332147834255 0.1700443375285386 0  0.2352133972704371 0.1645032867342007 0  0.2296339016332438 0.1597280261969788 0  0.2234150974217223 0.1558215752574715 0  0.2166911463437691 0.1528682099456123 0  0.2096071079204251 0.1509316448471593 0  0.2023158100364996 0.1500536585536553 0  0.194974551899914 0.1502531923497262 0  0.1877417105387872 0.1515259415822739 0  0.1807733240461124 0.153844448527136 0  0.1742197252835808 0.15715869474974 0  0.1682222986673531 0.1613971801805478 0  0.162910430003803 0.1664684656256651 0  0.1583987151779087 0.1722631454351573 0  0.1547844879126891 0.178656207771761 0  0.1521457199348551 0.1855097315605723 0  0.1505393388476355 0.1926758619366523 0  0.1505393388476328 0.2073241380633295 0  0.1521457199348437 0.2144902684393899 0  0.1547844879126531 0.221343792228163 0  0.1583987151778488 0.2277368545647528 0  0.1629104300036858 0.2335315343742052 0  0.1682222986671726 0.2386028198193036 0  0.1742197252833576 0.2428413052501257 0  0.1807733240458683 0.2461555514727623 0  0.1877417105384929 0.2484740584176516 0  0.1949745518995776 0.2497468076502398 0  0.202315810036185 0.2499463414463592 0  0.2096071079201568 0.2490683551528932 0  0.2166911463435495 0.2471317900544655 0  0.2234150974215506 0.2441784247426195 0  0.2296339016331197 0.2402719738031125 0  0.2352133972703547 0.2354967132658811 0  0.2400332147833751 0.2299556624715287 0  0.2439893735792577 0.2237683615780412 0  0.246996525252926 0.2170682926548348 0  0.25645809709277 0.21 0  0.2639263993298655 0.21 0  0.271394701566961 0.21 0  0.2788630038040554 0.21 0  0.2863313060411479 0.21 0  0.2937996082782405 0.21 0  0.301267910515333 0.21 0  0.3087362127524279 0.21 0  0.3162045149895234 0.21 0  0.3236728172265972 0.21 0  0.3311411194636928 0.21 0  0.3386094217007701 0.21 0  0.3460777239378666 0.21 0  0.3535460261749672 0.21 0  0.3610143284120516 0.21 0  0.3684826306491596 0.21 0  0.3759509328862226 0.21 0  0.383419235123329 0.21 0  0.3908875373604028 0.21 0  0.3983558395975142 0.21 0  0.4058241418345938 0.21 0  0.4132924440716992 0.21 0  0.4207607463087888 0.21 0  0.4282290485459029 0.21 0  0.4356973507830418 0.21 0  0.4431656530201649 0.21 0  0.4506339552573136 0.21 0  0.4581022574944306 0.21 0  0.4655705597315852 0.21 0  0.4730388619686996 0.21 0  0.480507164205851 0.21 0  0.4879754664429498 0.21 0  0.4954437686800938 0.21 0  0.502912070917267 0.21 0  0.5103803731544119 0.21 0  0.5178486753915261 0.21 0  0.5253169776286404 0.21 0  0.5327852798657868 0.21 0  0.5402535821029386 0.21 0  0.54772188434007 0.21 0  0.5551901865771842 0.21 0  0.5626584888143201 0.21 0  0.5701267910514778 0.21 0  0.5775950932886138 0.21 0  0.5850633955257281 0.21 0  0.5925316977628483 0.21 0  0.6 0.2050000000000054 0  0.6 0.1950000000000217 0  0.5925316977628897 0.19 0  0.5850633955257988 0.19 0  0.5775950932887378 0.19 0  0.5701267910515998 0.19 0  0.5626584888145268 0.19 0  0.5551901865773963 0.19 0  0.547721884340339 0.19 0  0.5402535821032429 0.19 0  0.5327852798661811 0.19 0  0.5253169776290537 0.19 0  0.5178486753919799 0.19 0  0.5103803731549078 0.19 0  0.502912070917822 0.19 0  0.4954437686807294 0.19 0  0.4879754664436223 0.19 0  0.4805071642065402 0.19 0  0.4730388619694271 0.19 0  0.4655705597323621 0.19 0  0.4581022574952563 0.19 0  0.4506339552581777 0.19 0  0.4431656530210671 0.19 0  0.4356973507839815 0.19 0  0.4282290485468779 0.19 0  0.4207607463097617 0.19 0  0.4132924440726327 0.19 0  0.4058241418354857 0.19 0  0.3983558395983636 0.19 0  0.3908875373612097 0.19 0  0.3834192351240934 0.19 0  0.3759509328869369 0.19 0  0.3684826306498175 0.19 0  0.361014328412667 0.19 0  0.3535460261755617 0.19 0  0.3460777239384295 0.19 0  0.3386094217012945 0.19 0  0.3311411194641595 0.19 0  0.3236728172270245 0.19 0  0.3162045149898895 0.19 0  0.3087362127527544 0.19 0  0.3012679105156187 0.19 0  0.2937996082784807 0.19 0  0.2863313060413428 0.19 0  0.2788630038042048 0.19 0  0.2713947015670686 0.19 0  0.2639263993299336 0.19 0  0.2564580970927985 0.19 0  0.2607803159922026 0.2000727136295815 0  0.5887803774232762 0.2001272386983733 0  0.5745072403740523 0.2002044435018727 0  0.5511891430099709 0.2001122610077113 0  0.2751288526855082 0.20000000000002 0  0.5365194309847112 0.1999999999999436 0  0.2894621222999649 0.1998691686390484 0  0.5215828265105155 0.1999999999999228 0  0.3127789816668748 0.1998657885438805 0  0.3274069683451451 0.2000000000000796 0  0.5066462220363641 0.199999999999908 0  0.3650630746574081 0.199866017807523 0  0.476773013087985 0.1999999999998713 0  0.3417402379596385 0.1998691686391011 0  0.3796850840047755 0.200000000000134 0  0.4618364086138087 0.1999999999998546 0  0.4917096175621762 0.1999999999998808 0  0.3946216884789568 0.2000000000001512 0  0.446899804139621 0.1999999999998389 0  0.4089549580935208 0.1998691686391595 0  0.4322718174608562 0.200127451265745 0  0.4201487168029707 0.1999966199048527 0  0.3528922713220932 0.2000185703532356 0  0.5633122436674589 0.1999814296467508 0  0.3006558810093873 0.1999966199048318 0  0.5815926498168407 0.1966545283159175 0  0.2677053789419034 0.1964246479135325 0  0.5290511287476175 0.1970915826863981 0  0.5439877332217911 0.197091582686394 0  0.2825131256993216 0.2035478995978015 0  0.3199386661080599 0.202908417313604 0  0.4842413153250809 0.1970915826863873 0  0.5141145242734466 0.1970915826863843 0  0.3722167817676917 0.2029084173136195 0  0.4693047108508938 0.1970915826863783 0  0.3348752705822316 0.202908417313609 0  0.3871533862418661 0.2029084173136212 0  0.4543681063767183 0.1970915826863795 0  0.4991779197992749 0.1970915826863902 0  0.4020059614928624 0.203547899597858 0  0.4394315019025246 0.1970915826863714 0  0.2550657455369551 0.2034088125358657 0  0.2548908499171161 0.1966940311614271 0  0.5946539510196798 0.2024302972968126 0  0.267698176732111 0.2039977513680092 0  0.4261685417851465 0.196409292431739 0  0.3590076176283495 0.196411355804271 0  0.5571672426447437 0.2036011176410121 0  0.3066757059912147 0.1964092924317024 0  0.594380730180568 0.1966558399668133 0  0.4842413153245942 0.2040749161535287 0  0.4693047108503577 0.2040749161535231 0  0.3871533862424271 0.1959250838464788 0  0.372246743208829 0.1959123236376545 0  0.5141145242731028 0.2040749161535395 0  0.4543681063761134 0.2040749161535186 0  0.4019979587101454 0.1959834479682427 0  0.4394608940728603 0.2040870543693135 0  0.5439623148931173 0.2040856076781014 0  0.5290511287473298 0.2040749161535501 0  0.4991779197988497 0.2040749161535382 0  0.3347912413592433 0.1959225448935183 0  0.3199680582793816 0.1959123018030061 0  0.2825051229162361 0.1959834479681729 0  0.3590471196690275 0.2036304442587945 0  0.5571594006495384 0.1963685282145804 0  0.3067669986803285 0.203627750582736 0  0.4262598344738712 0.2036568242185335 0  0.5814408164431408 0.2041285596160068 0  0.5688286748170428 0.1961819304477386 0  0.4145905603063645 0.2038180695522843 0  0.3473758401724931 0.2038180695522752 0  0.2950977245128307 0.2038180695522663 0  0.5688286748170693 0.203818069552238 0  0.2950977245127906 0.1961819304477774 0  0.3473758401723931 0.1961819304478349 0  0.4145905603061963 0.1961819304479011 0  0.2601812407614425 0.2056861609747042
[...]
<PointData  Vectors="f_46-2"> 
<DataArray  type="Float64"  Name="f_46-2"  NumberOfComponents="3" format="ascii">0.0000000000000000e+00 0.0000000000000000e+00 0.0000000000000000e+00  0.0000000000000000e+00 0.0000000000000000e+00 0.0000000000000000e+00  0.0000000000000000e+00 0.0000000000000000e+00 0.0000000000000000e+00  0.0000000000000000e+00 0.0000000000000000e+00 0.0000000000000000e+00  2.2996647496789412e-05 -2.2054280970690900e-04 0.0000000000000000e+00  4.0165558877816854e-05 -2.2235195187043938e-04 0.0000000000000000e+00  0.0000000000000000e+00 0.0000000000000000e+00 0.0000000000000000e+00  0.0000000000000000e+00 0.0000000000000000e+00 0.0000000000000000e+00  0.0000000000000000e+00 0.0000000000000000e+00 0.0000000000000000e+00  0.0000000000000000e+00 0.0000000000000000e+00 0.0000000000000000e+00  3.1180536598780427e-05 -2.2144950375606239e-04 0.0000000000000000e+00  0.0000000000000000e+00 0.0000000000000000e+00 0.0000000000000000e+00  0.0000000000000000e+00 0.0000000000000000e+00 0.0000000000000000e+00  0.0000000000000000e+00 0.0000000000000000e+00 0.0000000000000000e+00  0.0000000000000000e+00 0.0000000000000000e+00 0.0000000000000000e+00  0.0000000000000000e+00 0.0000000000000000e+00 0.0000000000000000e+00  0.0000000000000000e+00 0.0000000000000000e+00 0.0000000000000000e+00  0.0000000000000000e+00 0.0000000000000000e+00 0.0000000000000000e+00  0.0000000000000000e+00 0.0000000000000000e+00 0.0000000000000000e+00  0.0000000000000000e+00 0.0000000000000000e+00 0.0000000000000000e+00  0.0000000000000000e+00 0.0000000000000000e+00 0.0000000000000000e+00  0.0000000000000000e+00 0.0000000000000000e+00 0.0000000000000000e+00  0.0000000000000000e+00 0.0000000000000000e+00 0.0000000000000000e+00  0.0000000000000000e+00 0.0000000000000000e+00 0.0000000000000000e+00  0.0000000000000000e+00 0.0000000000000000e+00 0.0000000000000000e+00  0.0000000000000000e+00 0.0000000000000000e+00 0.0000000000000000e+00  0.0000000000000000e+00 0.0000000000000000e+00 0.0000000000000000e+00  0.0000000000000000e+00 0.0000000000000000e+00 0.0000000000000000e+00  0.0000000000000000e+00 0.0000000000000000e+00 0.0000000000000000e+00  0.0000000000000000e+00 0.0000000000000000e+00 0.0000000000000000e+00  0.0000000000000000e+00 0.0000000000000000e+00 0.0000000000000000e+00  0.0000000000000000e+00 0.0000000000000000e+00 0.0000000000000000e+00  0.0000000000000000e+00 0.0000000000000000e+00 0.0000000000000000e+00  0.0000000000000000e+00 0.0000000000000000e+00 0.0000000000000000e+00  0.0000000000000000e+00 0.0000000000000000e+00 0.0000000000000000e+00  1.8360846139952789e-13 0.0000000000000000e+00 0.0000000000000000e+00  0.0000000000000000e+00 0.0000000000000000e+00 0.0000000000000000e+00  0.0000000000000000e+00 0.0000000000000000e+00 0.0000000000000000e+00  0.0000000000000000e+00 0.0000000000000000e+00 0.0000000000000000e+00  0.0000000000000000e+00 0.0000000000000000e+00 0.0000000000000000e+00  0.0000000000000000e+00 0.0000000000000000e+00 0.0000000000000000e+00  0.0000000000000000e+00 0.0000000000000000e+00 0.0000000000000000e+00  0.0000000000000000e+00 0.0000000000000000e+00 0.0000000000000000e+00  0.0000000000000000e+00 0.0000000000000000e+00 0.0000000000000000e+00  0.0000000000000000e+00 0.0000000000000000e+00 0.0000000000000000e+00  0.0000000000000000e+00 0.0000000000000000e+00 0.0000000000000000e+00  0.0000000000000000e+00 0.0000000000000000e+00 0.0000000000000000e+00  0.0000000000000000e+00 0.0000000000000000e+00 0.0000000000000000e+00  0.0000000000000000e+00 0.0000000000000000e+00 0.0000000000000000e+00  0.0000000000000000e+00 0.0000000000000000e+00 0.0000000000000000e+00  0.0000000000000000e+00 0.0000000000000000e+00 0.0000000000000000e+00  0.0000000000000000e+00 0.0000000000000000e+00 0.0000000000000000e+00  0.0000000000000000e+00 0.0000000000000000e+00 0.0000000000000000e+00  0.0000000000000000e+00 0.0000000000000000e+00 0.0000000000000000e+00  0.0000000000000000e+00 0.0000000000000000e+00 0.0000000000000000e+00  0.0000000000000000e+00 0.0000000000000000e+00 0.0000000000000000e+00  0.0000000000000000e+00 0.0000000000000000e+00 0.0000000000000000e+00  0.0000000000000000e+00 0.0000000000000000e+00 0.0000000000000000e+00  0.0000000000000000e+00 0.0000000000000000e+00 0.0000000000000000e+00  0.0000000000000000e+00 0.0000000000000000e+00 0.0000000000000000e+00  0.0000000000000000e+00 0.0000000000000000e+00 0.0000000000000000e+00  0.0000000000000000e+00 0.0000000000000000e+00 0.0000000000000000e+00  0.0000000000000000e+00 0.0000000000000000e+00 0.0000000000000000e+00  0.0000000000000000e+00 0.0000000000000000e+00 0.0000000000000000e+00  0.0000000000000000e+00 0.0000000000000000e+00 0.0000000000000000e+00  0.0000000000000000e+00 0.0000000000000000e+00 0.0000000000000000e+00  0.0000000000000000e+00 0.0000000000000000e+00 0.0000000000000000e+00  0.0000000000000000e+00 0.0000000000000000e+00 0.0000000000000000e+00  0.0000000000000000e+00 0.0000000000000000e+00 0.0000000000000000e+00  0.0000000000000000e+00 0.0000000000000000e+00 0.0000000000000000e+00  0.0000000000000000e+00 0.0000000000000000e+00 0.0000000000000000e+00  0.0000000000000000e+00 0.0000000000000000e+00 0.0000000000000000e+00  0.0000000000000000e+00 0.0000000000000000e+00 0.0000000000000000e+00  0.0000000000000000e+00 0.0000000000000000e+00 0.0000000000000000e+00  0.0000000000000000e+00 0.0000000000000000e+00 0.0000000000000000e+00  0.0000000000000000e+00 0.0000000000000000e+00 0.0000000000000000e+00  0.0000000000000000e+00 0.0000000000000000e+00 0.0000000000000000e+00  0.0000000000000000e+00 0.0000000000000000e+00 0.0000000000000000e+00  0.0000000000000000e+00 0.0000000000000000e+00 0.0000000000000000e+00  0.0000000000000000e+00 0.0000000000000000e+00 0.0000000000000000e+00  0.0000000000000000e+00 0.0000000000000000e+00 0.0000000000000000e+00  0.0000000000000000e+00 0.0000000000000000e+00 0.0000000000000000e+00  0.0000000000000000e+00 0.0000000000000000e+00 0.0000000000000000e+00  0.0000000000000000e+00 0.0000000000000000e+00 0.0000000000000000e+00  0.0000000000000000e+00 0.0000000000000000e+00 0.0000000000000000e+00  0.0000000000000000e+00 0.0000000000000000e+00 0.0000000000000000e+00  0.0000000000000000e+00 0.0000000000000000e+00 0.0000000000000000e+00  0.0000000000000000e+00 0.0000000000000000e+00 0.0000000000000000e+00  -6.4897144876687529e-13 0.0000000000000000e+00 0.0000000000000000e+00  0.0000000000000000e+00 0.0000000000000000e+00 0.0000000000000000e+00  0.0000000000000000e+00 0.0000000000000000e+00 0.0000000000000000e+00  0.0000000000000000e+00 0.0000000000000000e+00 0.0000000000000000e+00  0.0000000000000000e+00 0.0000000000000000e+00 0.0000000000000000e+00  0.0000000000000000e+00 0.0000000000000000e+00 0.0000000000000000e+00  3.1720469171152464e-13 -1.6080435880074544e-18 0.0000000000000000e+00  0.0000000000000000e+00 0.0000000000000000e+00 0.0000000000000000e+00  0.0000000000000000e+00 0.0000000000000000e+00 0.0000000000000000e+00  0.0000000000000000e+00 0.0000000000000000e+00 0.0000000000000000e+00  0.0000000000000000e+00 0.0000000000000000e+00 0.0000000000000000e+00  0.0000000000000000e+00 0.0000000000000000e+00 0.0000000000000000e+00  0.0000000000000000e+00 0.0000000000000000e+00 0.0000000000000000e+00  0.0000000000000000e+00 0.0000000000000000e+00 0.0000000000000000e+00  0.0000000000000000e+00 0.0000000000000000e+00 0.0000000000000000e+00  0.0000000000000000e+00 0.0000000000000000e+00 0.0000000000000000e+00  0.0000000000000000e+00 0.0000000000000000e+00 0.0000000000000000e+00  1.9031174399578196e-12 -1.7349927405309191e-13 0.0000000000000000e+00  0.0000000000000000e+00 0.0000000000000000e+00 0.0000000000000000e+00  0.0000000000000000e+00 0.0000000000000000e+00 0.0000000000000000e+00  0.0000000000000000e+00 0.0000000000000000e+00 0.0000000000000000e+00  0.0000000000000000e+00 0.0000000000000000e+00 0.0000000000000000e+00  8.1897662041856333e-15 -9.0381168470372230e-15 0.0000000000000000e+00  0.0000000000000000e+00 0.0000000000000000e+00 0.0000000000000000e+00  0.0000000000000000e+00 0.0000000000000000e+00 0.0000000000000000e+00  0.0000000000000000e+00 0.0000000000000000e+00 0.0000000000000000e+00  0.0000000000000000e+00 0.0000000000000000e+00 0.0000000000000000e+00  0.0000000000000000e+00 0.0000000000000000e+00 0.0000000000000000e+00  0.0000000000000000e+00 0.0000000000000000e+00 0.0000000000000000e+00  0.0000000000000000e+00 0.0000000000000000e+00 0.0000000000000000e+00  0.0000000000000000e+00 0.0000000000000000e+00 0.0000000000000000e+00  0.0000000000000000e+00 0.0000000000000000e+00 0.0000000000000000e+00  0.0000000000000000e+00 0.0000000000000000e+00 0.0000000000000000e+00  0.0000000000000000e+00 0.0000000000000000e+00 0.0000000000000000e+00  0.0000000000000000e+00 0.0000000000000000e+00 0.0000000000000000e+00  0.0000000000000000e+00 0.0000000000000000e+00 0.0000000000000000e+00  0.0000000000000000e+00 0.0000000000000000e+00 0.0000000000000000e+00  0.0000000000000000e+00 0.0000000000000000e+00 0.0000000000000000e+00  0.0000000000000000e+00 0.0000000000000000e+00 0.0000000000000000e+00  0.0000000000000000e+00 0.0000000000000000e+00 0.0000000000000000e+00  0.0000000000000000e+00 0.0000000000000000e+00 0.0000000000000000e+00  0.0000000000000000e+00 0.0000000000000000e+00 0.0000000000000000e+00  0.0000000000000000e+00 0.0000000000000000e+00 0.0000000000000000e+00  0.0000000000000000e+00 0.0000000000000000e+00 0.0000000000000000e+00  0.0000000000000000e+00 0.0000000000000000e+00 0.0000000000000000e+00  0.0000000000000000e+00 0.0000000000000000e+00 0.0000000000000000e+00  0.0000000000000000e+00 0.0000000000000000e+00 0.0000000000000000e+00  0.0000000000000000e+00 0.0000000000000000e+00 0.0000000000000000e+00  0.0000000000000000e+00 0.0000000000000000e+00 0.0000000000000000e+00  0.0000000000000000e+00 0.0000000000000000e+00 0.0000000000000000e+00  0.0000000000000000e+00 0.0000000000000000e+00 0.0000000000000000e+00  0.0000000000000000e+00 0.0000000000000000e+00 0.0000000000000000e+00  0.0000000000000000e+00 0.0000000000000000e+00 0.0000000000000000e+00  0.0000000000000000e+00 0.0000000000000000e+00 0.0000000000000000e+00  1.1932437154792184e-12 -2.9241731720011359e-13 0.0000000000000000e+00  1.4011764126410606e-06 -2.4170354734271013e-06 0.0000000000000000e+00  2.9807808022945777e-06 -3.0634414067551814e-06 0.0000000000000000e+00  4.6516036948054162e-06 -3.9224018533283106e-06 0.0000000000000000e+00  6.4260584760477201e-06 -5.0668167606459441e-06 0.0000000000000000e+00  8.1427951991259236e-06 -6.5152320838178623e-06 0.0000000000000000e+00  9.9112714492713321e-06 -8.3146512289068486e-06 0.0000000000000000e+00  1.1576913874480782e-05 -1.0361111231628678e-05 0.0000000000000000e+00  1.3212802410138586e-05 -1.2740722877065059e-05 0.0000000000000000e+00  1.4892344128870161e-05 -1.5379819879006273e-05 0.0000000000000000e+00  1.6434688757011991e-05 -1.8275908975337172e-05 0.0000000000000000e+00  1.8027402640010999e-05 -2.1458244170081073e-05 0.0000000000000000e+00  1.9481924506936029e-05 -2.4867369874094925e-05 0.0000000000000000e+00  2.0957310112468920e-05 -2.8530002520295563e-05 0.0000000000000000e+00  2.2325665780614037e-05 -3.2387537753647974e-05 0.0000000000000000e+00  2.3643658373560002e-05 -3.6483749495099111e-05 0.0000000000000000e+00  2.4969829422659410e-05 -4.0772094759114680e-05 0.0000000000000000e+00  2.6173860558959397e-05 -4.5229103933601895e-05 0.0000000000000000e+00  2.7385918575337511e-05 -4.9896723239003434e-05 0.0000000000000000e+00  2.8484186632923949e-05 -5.4698752998816278e-05 0.0000000000000000e+00  2.9581629837341692e-05 -5.9682838307278381e-05 0.0000000000000000e+00  3.0585697201118438e-05 -6.4786455024728602e-05 0.0000000000000000e+00  3.1562308977576631e-05 -7.0047593565394456e-05 0.0000000000000000e+00  3.2465191685393952e-05 -7.5410915510168433e-05 0.0000000000000000e+00  3.3316691978521010e-05 -8.0902057701666815e-05 0.0000000000000000e+00  3.4151370146940461e-05 -8.6492680775700567e-05 0.0000000000000000e+00  3.4908406483036594e-05 -9.2168128763431194e-05 0.0000000000000000e+00  3.5622221880636523e-05 -9.7960493039970413e-05 0.0000000000000000e+00  3.6278955623443984e-05 -1.0379987898854814e-04 0.0000000000000000e+00  3.6892173161910421e-05 -1.0974073100160491e-04 0.0000000000000000e+00  3.7451253261071773e-05 -1.1571571416649021e-04 0.0000000000000000e+00  3.7967536202042007e-05 -1.2177582220493215e-04 0.0000000000000000e+00  3.8430761238639876e-05 -1.2785549341181611e-04 0.0000000000000000e+00  3.8852060386813436e-05 -1.3400786924328004e-04 0.0000000000000000e+00  3.9221759823831541e-05 -1.4016687931553336e-04 0.0000000000000000e+00  3.9547130899430766e-05 -1.4638968911257177e-04 0.0000000000000000e+00  3.9824766204689434e-05 -1.5261028272349356e-04 0.0000000000000000e+00  4.0059632411030557e-05 -1.5888329619683376e-04 0.0000000000000000e+00  4.0247667378792166e-05 -1.6514760078104442e-04 0.0000000000000000e+00  4.0391799559621379e-05 -1.7145676618284545e-04 0.0000000000000000e+00  4.0487913853504494e-05 -1.7775067194614481e-04 0.0000000000000000e+00  4.0534423157425856e-05 -1.8407369645042707e-04 0.0000000000000000e+00  4.0543285666870660e-05 -1.9039351335817831e-04 0.0000000000000000e+00  4.0503128025066678e-05 -1.9672512628565963e-04 0.0000000000000000e+00  4.0436794196907001e-05 -2.0305903679881999e-04 0.0000000000000000e+00  4.0317561915733779e-05 -2.0938075087327887e-04 0.0000000000000000e+00  4.0200741352923205e-05 -2.1575469684240162e-04 0.0000000000000000e+00  3.5537192901055883e-05 -2.2189442910623298e-04 0.0000000000000000e+00  2.6968626000405528e-05 -2.2100865078372240e-04 0.0000000000000000e+00  2.3049875884250985e-05 -2.1433635590983088e-04 0.0000000000000000e+00  2.3192939998325310e-05 -2.0790189925224502e-04 0.0000000000000000e+00  2.3330436868257802e-05 -2.0144323039950255e-04 0.0000000000000000e+00  2.3420619522837523e-05 -1.9501121342225703e-04 0.0000000000000000e+00  2.3482537737289348e-05 -1.8858560922774021e-04 0.0000000000000000e+00  2.3496226155303692e-05 -1.8216939065687608e-04 0.0000000000000000e+00  2.3480160272255132e-05 -1.7576977284950785e-04 0.0000000000000000e+00  2.3415365424869823e-05 -1.6936430701276281e-04 0.0000000000000000e+00  2.3317743151794399e-05 -1.6299916064414359e-04 0.0000000000000000e+00  2.3177180308847329e-05 -1.5662280299832821e-04 0.0000000000000000e+00  2.3008274420967027e-05 -1.5029430037557747e-04 0.0000000000000000e+00  2.2795914765817790e-05 -1.4396190048745979e-04 0.0000000000000000e+00  2.2558965108451774e-05 -1.3768487848466701e-04 0.0000000000000000e+00  2.2277790450696875e-05 -1.3141454881618483e-04 0.0000000000000000e+00  2.1977961601058529e-05 -1.2520839754605020e-04 0.0000000000000000e+00  2.1630922006483106e-05 -1.1901959468953658e-04 0.0000000000000000e+00  2.1270931459355798e-05 -1.1290605082411799e-04 0.0000000000000000e+00  2.0860935739261040e-05 -1.0682245465686995e-04 0.0000000000000000e+00  2.0443732442652577e-05 -1.0082820271511217e-04 0.0000000000000000e+00  1.9973158445116087e-05 -9.4880398694020994e-05 0.0000000000000000e+00  1.9502849508089318e-05 -8.9037189660914017e-05 0.0000000000000000e+00  1.8974015828156472e-05 -8.3258207073670610e-05 0.0000000000000000e+00  1.8444185459683823e-05 -7.7593460991825673e-05 0.0000000000000000e+00  1.7866882012148374e-05 -7.2017786847776644e-05 0.0000000000000000e+00  1.7256410258057241e-05 -6.6577248075723588e-05 0.0000000000000000e+00  1.6659075406596075e-05 -6.1239316824153393e-05 0.0000000000000000e+00  1.6006032903663991e-05 -5.6036932550353260e-05 0.0000000000000000e+00  1.5345305009973292e-05 -5.0995091280677646e-05 0.0000000000000000e+00  1.4642615595819610e-05 -4.6089534151185284e-05 0.0000000000000000e+00  1.3931717271976022e-05 -4.1370903144700179e-05 0.0000000000000000e+00  1.3179059506078762e-05 -3.6803058865610506e-05 0.0000000000000000e+00  1.2435803226961596e-05 -3.2462682185534294e-05 0.0000000000000000e+00  1.1631001898653324e-05 -2.8282794341947289e-05 0.0000000000000000e+00  1.0798941337596233e-05 -2.4357796568701947e-05 0.0000000000000000e+00  1.0005504532776755e-05 -2.0614454704586171e-05 0.0000000000000000e+00  9.1532964040468369e-06 -1.7130106548051114e-05 0.0000000000000000e+00  8.3065490824119350e-06 -1.3907505222574372e-05 0.0000000000000000e+00  7.4192861134986273e-06 -1.0928969477939057e-05 0.0000000000000000e+00  6.5655037740699840e-06 -8.2650548702828352e-06 0.0000000000000000e+00  5.6419955158117094e-06 -5.8397172190738783e-06 0.0000000000000000e+00  4.7042947199067861e-06 -3.7634707224705911e-06 0.0000000000000000e+00  3.8383826431499598e-06 -1.9410388360289219e-06 0.0000000000000000e+00  2.9150410731348949e-06 -4.4574926530158816e-07 0.0000000000000000e+00  2.0759828160516415e-06 7.1432879908495354e-07 0.0000000000000000e+00  1.2337241846738312e-06 1.4786819933931933e-06 0.0000000000000000e+00  5.8482131315850116e-07 1.7871192889759792e-06 0.0000000000000000e+00  1.2236836100740111e-06 -3.2845553690923335e-07 0.0000000000000000e+00  3.1646129015691707e-05 -2.1183009683365303e-04 0.0000000000000000e+00  3.2037662927718700e-05 -1.9962100887294852e-04 0.0000000000000000e+00  3.2043922080717083e-05 -1.7971567835034361e-04 0.0000000000000000e+00  3.9855396887625111e-06 -1.9267913828501642e-06 0.0000000000000000e+00  3.1783712855276677e-05 -1.6722914413276794e-04 0.0000000000000000e+00  6.4950391664925103e-06 -4.7088382013867109e-06 0.0000000000000000e+00  3.1459341032426472e-05 -1.5458483084382927e-04 0.0000000000000000e+00  1.0488401681959264e-05 -1.1689748541887607e-05 0.0000000000000000e+00  1.2934754656232340e-05 -1.7496447134107765e-05 0.0000000000000000e+00  3.0973228415656286e-05 -1.4202689363217185e-04 0.0000000000000000e+00  1.8476305705076251e-05 -3.6631401670199375e-05 0.0000000000000000e+00  2.9523166114070560e-05 -1.1731219477803423e-04 0.0000000000000000e+00  1.5117708825304897e-05 -2.4078228463120833e-05 0.0000000000000000e+00  2.0479529505636198e-05 -4.5513243540190025e-05 0.0000000000000000e+00  2.8562160026391056e-05 -1.0524510913116252e-04 0.0000000000000000e+00  3.0327339405990149e-05 -1.2958890892715441e-04 0.0000000000000000e+00  2.2301523385987855e-05 -5.5235201115128846e-05 0.0000000000000000e+00  2.7444039567043947e-05 -9.3446890244429606e-05 0.0000000000000000e+00  2.3815851618599481e-05 -6.5105646353130842e-05 0.0000000000000000e+00  2.6299212611272321e-05 -8.2235115285604008e-05 0.0000000000000000e+00  2.5037286468776849e-05 -7.3210377085935663e-05 0.0000000000000000e+00  1.6831194190425827e-05 -2.9886114402187100e-05 0.0000000000000000e+00  3.1921046208337248e-05 -1.9004150141328877e-04 0.0000000000000000e+00  8.4606234171169529e-06 -7.7772170352098320e-06 0.0000000000000000e+00  2.8870692518950859e-05 -2.0541807605584458e-04 0.0000000000000000e+00  2.2225517915357041e-06 -1.1485307887406088e-07 0.0000000000000000e+00  2.9185307735069173e-05 -1.6057945305470489e-04 0.0000000000000000e+00  2.9416532194411432e-05 -1.7327950327037023e-04 0.0000000000000000e+00  5.9843849061060705e-06 -4.0775145175995913e-06 0.0000000000000000e+00  1.2861443297472238e-05 -1.5082146968471959e-05 0.0000000000000000e+00  2.7562995809907825e-05 -1.2303930998768160e-04 0.0000000000000000e+00  2.8797631786331515e-05 -1.4795080860564974e-04 0.0000000000000000e+00  2.1262838673063540e-05 -4.1486995619869835e-05 0.0000000000000000e+00  2.6722556774935895e-05 -1.1083803816357138e-04 0.0000000000000000e+00  1.5447441022065048e-05 -2.1474635172224077e-05 0.0000000000000000e+00  2.3290140899994548e-05 -5.0855728313915145e-05 0.0000000000000000e+00  2.5736009997980897e-05 -9.8875174538902080e-05 0.0000000000000000e+00  2.8255622481616250e-05 -1.3542472215360854e-04 0.0000000000000000e+00  2.5582516135622770e-05 -6.0923782974179537e-05 0.0000000000000000e+00  2.4604937006052898e-05 -8.7213906165526791e-05 0.0000000000000000e+00  4.0687470007844541e-07 -5.7791648957194280e-07 0.0000000000000000e+00  2.5144706196416820e-07 4.1873691917251843e-07 0.0000000000000000e+00  3.3437105562196942e-05 -2.1703397618334501e-04 0.0000000000000000e+00  3.0578068218873659e-06 -1.9399188932197403e-06 0.0000000000000000e+00  2.297