<?xml version="1.0"?>
<VTKFile type="UnstructuredGrid"  version="0.1"  >
<UnstructuredGrid>
<Piece  NumberOfPoints="1419" NumberOfCells="2698">
<Points>
<DataArray  type="Float64"  NumberOfComponents="3"  format="ascii">0 0 0  0 0.41 0  2.5 0 0  2.5 0.41 0  0.6 0.19 0  0.6 0.21 0  0.25 0.2 0  0.15 0.2 0  0.2489897948556636 0.21 0  0.2489897948556636 0.19 0  0.6 0.2 0  0 0.3807142857143437 0  0 0.3514285714286952 0  0 0.3221428571430699 0  0 0.29285714285744 0  0 0.2635714285718054 0  0 0.2342857142861561 0  0 0.2050000000005308 0  0 0.175714285714732 0  0 0.1464285714289574 0  0 0.1171428571431897 0  0 0.08785714285737878 0  0 0.05857142857161107 0  0 0.02928571428580012 0  0.03015443760436003 0 0  0.06140001986583606 0 0  0.09377624077125973 0 0  0.1273239957535082 0 0  0.1620856860351972 0 0  0.1981052433264291 0 0  0.235428184091502 0 0  0.2741016576309132 0 0  0.3141745521465447 0 0  0.3556974926295285 0 0  0.3987229542472677 0 0  0.4433053055141081 0 0  0.4895008759286886 0 0  0.5373680609405097 0 0  0.5869673343216626 0 0  0.6383613676634521 0 0  0.6916151138468254 0 0  0.7467958595648856 0 0  0.8039733463919316 0 0  0.8632198139502143 0 0  0.9246101326867038 0 0  0.9882218810934433 0 0  1.054135445558498 0 0  1.122434100542598 0 0  1.193204177141305 0 0  1.266535089879536 0 0  1.342519516046404 0 0  1.421253448503939 0 0  1.502836389106271 0 0  1.587371439758838 0 0  1.674965418777374 0 0  1.765729001825544 0 0  1.859776908880082 0 0  1.957227977487062 0 0  2.058205329869943 0 0  2.162836591189951 0 0  2.271253957290865 0 0  2.383594446803425 0 0  2.5 0.1024999999997612 0  2.5 0.2049999999994743 0  2.5 0.3074999999997183 0  2.383594446803656 0.41 0  2.271253957291315 0.41 0  2.162836591190598 0.41 0  2.058205329870775 0.41 0  1.957227977488067 0.41 0  1.859776908881246 0.41 0  1.765729001826854 0.41 0  1.674965418778818 0.41 0  1.58737143976041 0.41 0  1.502836389107956 0.41 0  1.421253448505726 0.41 0  1.342519516048286 0.41 0  1.266535089881505 0.41 0  1.193204177143353 0.41 0  1.122434100544716 0.41 0  1.05413544556068 0.41 0  0.9882218810956305 0.41 0  0.9246101326886647 0.41 0  0.8632198139519631 0.41 0  0.8039733463934788 0.41 0  0.7467958595662458 0.41 0  0.6916151138480078 0.41 0  0.6383613676644679 0.41 0  0.5869673343225223 0.41 0  0.5373680609412221 0.41 0  0.4895008759292634 0.41 0  0.4433053055145528 0.41 0  0.3987229542475914 0.41 0  0.3556974926297398 0.41 0  0.3141745521466497 0.41 0  0.2741016576310038 0.41 0  0.2354281840915826 0.41 0  0.1981052433265003 0.41 0  0.1620856860352591 0.41 0  0.1273239957535623 0.41 0  0.09377624077128965 0.41 0  0.06140001986584975 0.41 0  0.03015443760436654 0.41 0  0.2497468076502589 0.2050254481002335 0  0.2497468076502614 0.1949745518997913 0  0.2469965252529372 0.1829317073451959 0  0.2439893735792749 0.1762316384219906 0  0.2400332147834255 0.1700443375285386 0  0.2352133972704371 0.1645032867342007 0  0.2296339016332438 0.1597280261969788 0  0.2234150974217223 0.1558215752574715 0  0.2166911463437691 0.1528682099456123 0  0.2096071079204251 0.1509316448471593 0  0.2023158100364996 0.1500536585536553 0  0.194974551899914 0.1502531923497262 0  0.1877417105387872 0.1515259415822739 0  0.1807733240461124 0.153844448527136 0  0.1742197252835808 0.15715869474974 0  0.1682222986673531 0.1613971801805478 0  0.162910430003803 0.1664684656256651 0  0.1583987151779087 0.1722631454351573 0  0.1547844879126891 0.178656207771761 0  0.1521457199348551 0.1855097315605723 0  0.1505393388476355 0.1926758619366523 0  0.1505393388476328 0.2073241380633295 0  0.1521457199348437 0.2144902684393899 0  0.1547844879126531 0.221343792228163 0  0.1583987151778488 0.2277368545647528 0  0.1629104300036858 0.2335315343742052 0  0.1682222986671726 0.2386028198193036 0  0.1742197252833576 0.2428413052501257 0  0.1807733240458683 0.2461555514727623 0  0.1877417105384929 0.2484740584176516 0  0.1949745518995776 0.2497468076502398 0  0.202315810036185 0.2499463414463592 0  0.2096071079201568 0.2490683551528932 0  0.2166911463435495 0.2471317900544655 0  0.2234150974215506 0.2441784247426195 0  0.2296339016331197 0.2402719738031125 0  0.2352133972703547 0.2354967132658811 0  0.2400332147833751 0.2299556624715287 0  0.2439893735792577 0.2237683615780412 0  0.246996525252926 0.2170682926548348 0  0.25645809709277 0.21 0  0.2639263993298655 0.21 0  0.271394701566961 0.21 0  0.2788630038040554 0.21 0  0.2863313060411479 0.21 0  0.2937996082782405 0.21 0  0.301267910515333 0.21 0  0.3087362127524279 0.21 0  0.3162045149895234 0.21 0  0.3236728172265972 0.21 0  0.3311411194636928 0.21 0  0.3386094217007701 0.21 0  0.3460777239378666 0.21 0  0.3535460261749672 0.21 0  0.3610143284120516 0.21 0  0.3684826306491596 0.21 0  0.3759509328862226 0.21 0  0.383419235123329 0.21 0  0.3908875373604028 0.21 0  0.3983558395975142 0.21 0  0.4058241418345938 0.21 0  0.4132924440716992 0.21 0  0.4207607463087888 0.21 0  0.4282290485459029 0.21 0  0.4356973507830418 0.21 0  0.4431656530201649 0.21 0  0.4506339552573136 0.21 0  0.4581022574944306 0.21 0  0.4655705597315852 0.21 0  0.4730388619686996 0.21 0  0.480507164205851 0.21 0  0.4879754664429498 0.21 0  0.4954437686800938 0.21 0  0.502912070917267 0.21 0  0.5103803731544119 0.21 0  0.5178486753915261 0.21 0  0.5253169776286404 0.21 0  0.5327852798657868 0.21 0  0.5402535821029386 0.21 0  0.54772188434007 0.21 0  0.5551901865771842 0.21 0  0.5626584888143201 0.21 0  0.5701267910514778 0.21 0  0.5775950932886138 0.21 0  0.5850633955257281 0.21 0  0.5925316977628483 0.21 0  0.6 0.2050000000000054 0  0.6 0.1950000000000217 0  0.5925316977628897 0.19 0  0.5850633955257988 0.19 0  0.5775950932887378 0.19 0  0.5701267910515998 0.19 0  0.5626584888145268 0.19 0  0.5551901865773963 0.19 0  0.547721884340339 0.19 0  0.5402535821032429 0.19 0  0.5327852798661811 0.19 0  0.5253169776290537 0.19 0  0.5178486753919799 0.19 0  0.5103803731549078 0.19 0  0.502912070917822 0.19 0  0.4954437686807294 0.19 0  0.4879754664436223 0.19 0  0.4805071642065402 0.19 0  0.4730388619694271 0.19 0  0.4655705597323621 0.19 0  0.4581022574952563 0.19 0  0.4506339552581777 0.19 0  0.4431656530210671 0.19 0  0.4356973507839815 0.19 0  0.4282290485468779 0.19 0  0.4207607463097617 0.19 0  0.4132924440726327 0.19 0  0.4058241418354857 0.19 0  0.3983558395983636 0.19 0  0.3908875373612097 0.19 0  0.3834192351240934 0.19 0  0.3759509328869369 0.19 0  0.3684826306498175 0.19 0  0.361014328412667 0.19 0  0.3535460261755617 0.19 0  0.3460777239384295 0.19 0  0.3386094217012945 0.19 0  0.3311411194641595 0.19 0  0.3236728172270245 0.19 0  0.3162045149898895 0.19 0  0.3087362127527544 0.19 0  0.3012679105156187 0.19 0  0.2937996082784807 0.19 0  0.2863313060413428 0.19 0  0.2788630038042048 0.19 0  0.2713947015670686 0.19 0  0.2639263993299336 0.19 0  0.2564580970927985 0.19 0  0.2607803159922026 0.2000727136295815 0  0.5887803774232762 0.2001272386983733 0  0.5745072403740523 0.2002044435018727 0  0.5511891430099709 0.2001122610077113 0  0.2751288526855082 0.20000000000002 0  0.5365194309847112 0.1999999999999436 0  0.2894621222999649 0.1998691686390484 0  0.5215828265105155 0.1999999999999228 0  0.3127789816668748 0.1998657885438805 0  0.3274069683451451 0.2000000000000796 0  0.5066462220363641 0.199999999999908 0  0.3650630746574081 0.199866017807523 0  0.476773013087985 0.1999999999998713 0  0.3417402379596385 0.1998691686391011 0  0.3796850840047755 0.200000000000134 0  0.4618364086138087 0.1999999999998546 0  0.4917096175621762 0.1999999999998808 0  0.3946216884789568 0.2000000000001512 0  0.446899804139621 0.1999999999998389 0  0.4089549580935208 0.1998691686391595 0  0.4322718174608562 0.200127451265745 0  0.4201487168029707 0.1999966199048527 0  0.3528922713220932 0.2000185703532356 0  0.5633122436674589 0.1999814296467508 0  0.3006558810093873 0.1999966199048318 0  0.5815926498168407 0.1966545283159175 0  0.2677053789419034 0.1964246479135325 0  0.5290511287476175 0.1970915826863981 0  0.5439877332217911 0.197091582686394 0  0.2825131256993216 0.2035478995978015 0  0.3199386661080599 0.202908417313604 0  0.4842413153250809 0.1970915826863873 0  0.5141145242734466 0.1970915826863843 0  0.3722167817676917 0.2029084173136195 0  0.4693047108508938 0.1970915826863783 0  0.3348752705822316 0.202908417313609 0  0.3871533862418661 0.2029084173136212 0  0.4543681063767183 0.1970915826863795 0  0.4991779197992749 0.1970915826863902 0  0.4020059614928624 0.203547899597858 0  0.4394315019025246 0.1970915826863714 0  0.2550657455369551 0.2034088125358657 0  0.2548908499171161 0.1966940311614271 0  0.5946539510196798 0.2024302972968126 0  0.267698176732111 0.2039977513680092 0  0.4261685417851465 0.196409292431739 0  0.3590076176283495 0.196411355804271 0  0.5571672426447437 0.2036011176410121 0  0.3066757059912147 0.1964092924317024 0  0.594380730180568 0.1966558399668133 0  0.4842413153245942 0.2040749161535287 0  0.4693047108503577 0.2040749161535231 0  0.3871533862424271 0.1959250838464788 0  0.372246743208829 0.1959123236376545 0  0.5141145242731028 0.2040749161535395 0  0.4543681063761134 0.2040749161535186 0  0.4019979587101454 0.1959834479682427 0  0.4394608940728603 0.2040870543693135 0  0.5439623148931173 0.2040856076781014 0  0.5290511287473298 0.2040749161535501 0  0.4991779197988497 0.2040749161535382 0  0.3347912413592433 0.1959225448935183 0  0.3199680582793816 0.1959123018030061 0  0.2825051229162361 0.1959834479681729 0  0.3590471196690275 0.2036304442587945 0  0.5571594006495384 0.1963685282145804 0  0.3067669986803285 0.203627750582736 0  0.4262598344738712 0.2036568242185335 0  0.5814408164431408 0.2041285596160068 0  0.5688286748170428 0.1961819304477386 0  0.4145905603063645 0.2038180695522843 0  0.3473758401724931 0.2038180695522752 0  0.2950977245128307 0.2038180695522663 0  0.5688286748170693 0.203818069552238 0  0.2950977245127906 0.1961819304477774 0  0.3473758401723931 0.1961819304478349 0  0.4145905603061963 0.1961819304479011 0  0.2601812407614425 0.2056861609747042
[...]
<PointData  Vectors="f_46-2"> 
<DataArray  type="Float64"  Name="f_46-2"  NumberOfComponents="3" format="ascii">0.0000000000000000e+00 0.0000000000000000e+00 0.0000000000000000e+00  0.0000000000000000e+00 0.0000000000000000e+00 0.0000000000000000e+00  0.0000000000000000e+00 0.0000000000000000e+00 0.0000000000000000e+00  0.0000000000000000e+00 0.0000000000000000e+00 0.0000000000000000e+00  -1.1681401323897478e-05 -1.3513937635255570e-05 0.0000000000000000e+00  -1.0324050690849311e-05 -1.6172982748596070e-05 0.0000000000000000e+00  0.0000000000000000e+00 -2.4947030166215406e-25 0.0000000000000000e+00  0.0000000000000000e+00 0.0000000000000000e+00 0.0000000000000000e+00  0.0000000000000000e+00 0.0000000000000000e+00 0.0000000000000000e+00  0.0000000000000000e+00 0.0000000000000000e+00 0.0000000000000000e+00  -1.1170546846499176e-05 -1.4844434865791325e-05 0.0000000000000000e+00  0.0000000000000000e+00 0.0000000000000000e+00 0.0000000000000000e+00  0.0000000000000000e+00 0.0000000000000000e+00 0.0000000000000000e+00  0.0000000000000000e+00 0.0000000000000000e+00 0.0000000000000000e+00  0.0000000000000000e+00 0.0000000000000000e+00 0.0000000000000000e+00  0.0000000000000000e+00 0.0000000000000000e+00 0.0000000000000000e+00  0.0000000000000000e+00 0.0000000000000000e+00 0.0000000000000000e+00  0.0000000000000000e+00 0.0000000000000000e+00 0.0000000000000000e+00  0.0000000000000000e+00 0.0000000000000000e+00 0.0000000000000000e+00  0.0000000000000000e+00 0.0000000000000000e+00 0.0000000000000000e+00  0.0000000000000000e+00 0.0000000000000000e+00 0.0000000000000000e+00  0.0000000000000000e+00 0.0000000000000000e+00 0.0000000000000000e+00  0.0000000000000000e+00 0.0000000000000000e+00 0.0000000000000000e+00  0.0000000000000000e+00 0.0000000000000000e+00 0.0000000000000000e+00  0.0000000000000000e+00 0.0000000000000000e+00 0.0000000000000000e+00  0.0000000000000000e+00 0.0000000000000000e+00 0.0000000000000000e+00  0.0000000000000000e+00 0.0000000000000000e+00 0.0000000000000000e+00  0.0000000000000000e+00 0.0000000000000000e+00 0.0000000000000000e+00  0.0000000000000000e+00 0.0000000000000000e+00 0.0000000000000000e+00  0.0000000000000000e+00 0.0000000000000000e+00 0.0000000000000000e+00  0.0000000000000000e+00 0.0000000000000000e+00 0.0000000000000000e+00  0.0000000000000000e+00 0.0000000000000000e+00 0.0000000000000000e+00  0.0000000000000000e+00 0.0000000000000000e+00 0.0000000000000000e+00  0.0000000000000000e+00 0.0000000000000000e+00 0.0000000000000000e+00  0.0000000000000000e+00 0.0000000000000000e+00 0.0000000000000000e+00  -1.5639656426720184e-13 4.6503211663643280e-18 0.0000000000000000e+00  0.0000000000000000e+00 0.0000000000000000e+00 0.0000000000000000e+00  0.0000000000000000e+00 0.0000000000000000e+00 0.0000000000000000e+00  0.0000000000000000e+00 0.0000000000000000e+00 0.0000000000000000e+00  0.0000000000000000e+00 0.0000000000000000e+00 0.0000000000000000e+00  0.0000000000000000e+00 0.0000000000000000e+00 0.0000000000000000e+00  0.0000000000000000e+00 0.0000000000000000e+00 0.0000000000000000e+00  0.0000000000000000e+00 0.0000000000000000e+00 0.0000000000000000e+00  0.0000000000000000e+00 0.0000000000000000e+00 0.0000000000000000e+00  0.0000000000000000e+00 0.0000000000000000e+00 0.0000000000000000e+00  0.0000000000000000e+00 0.0000000000000000e+00 0.0000000000000000e+00  0.0000000000000000e+00 0.0000000000000000e+00 0.0000000000000000e+00  0.0000000000000000e+00 0.0000000000000000e+00 0.0000000000000000e+00  0.0000000000000000e+00 0.0000000000000000e+00 0.0000000000000000e+00  0.0000000000000000e+00 0.0000000000000000e+00 0.0000000000000000e+00  0.0000000000000000e+00 0.0000000000000000e+00 0.0000000000000000e+00  0.0000000000000000e+00 0.0000000000000000e+00 0.0000000000000000e+00  0.0000000000000000e+00 0.0000000000000000e+00 0.0000000000000000e+00  0.0000000000000000e+00 0.0000000000000000e+00 0.0000000000000000e+00  0.0000000000000000e+00 0.0000000000000000e+00 0.0000000000000000e+00  0.0000000000000000e+00 0.0000000000000000e+00 0.0000000000000000e+00  0.0000000000000000e+00 0.0000000000000000e+00 0.0000000000000000e+00  0.0000000000000000e+00 0.0000000000000000e+00 0.0000000000000000e+00  0.0000000000000000e+00 0.0000000000000000e+00 0.0000000000000000e+00  0.0000000000000000e+00 0.0000000000000000e+00 0.0000000000000000e+00  0.0000000000000000e+00 0.0000000000000000e+00 0.0000000000000000e+00  0.0000000000000000e+00 0.0000000000000000e+00 0.0000000000000000e+00  0.0000000000000000e+00 0.0000000000000000e+00 0.0000000000000000e+00  0.0000000000000000e+00 0.0000000000000000e+00 0.0000000000000000e+00  0.0000000000000000e+00 0.0000000000000000e+00 0.0000000000000000e+00  0.0000000000000000e+00 0.0000000000000000e+00 0.0000000000000000e+00  0.0000000000000000e+00 0.0000000000000000e+00 0.0000000000000000e+00  0.0000000000000000e+00 0.0000000000000000e+00 0.0000000000000000e+00  0.0000000000000000e+00 0.0000000000000000e+00 0.0000000000000000e+00  0.0000000000000000e+00 0.0000000000000000e+00 0.0000000000000000e+00  0.0000000000000000e+00 0.0000000000000000e+00 0.0000000000000000e+00  0.0000000000000000e+00 0.0000000000000000e+00 0.0000000000000000e+00  0.0000000000000000e+00 0.0000000000000000e+00 0.0000000000000000e+00  0.0000000000000000e+00 0.0000000000000000e+00 0.0000000000000000e+00  0.0000000000000000e+00 0.0000000000000000e+00 0.0000000000000000e+00  0.0000000000000000e+00 0.0000000000000000e+00 0.0000000000000000e+00  0.0000000000000000e+00 0.0000000000000000e+00 0.0000000000000000e+00  0.0000000000000000e+00 0.0000000000000000e+00 0.0000000000000000e+00  0.0000000000000000e+00 0.0000000000000000e+00 0.0000000000000000e+00  0.0000000000000000e+00 0.0000000000000000e+00 0.0000000000000000e+00  0.0000000000000000e+00 0.0000000000000000e+00 0.0000000000000000e+00  0.0000000000000000e+00 0.0000000000000000e+00 0.0000000000000000e+00  0.0000000000000000e+00 0.0000000000000000e+00 0.0000000000000000e+00  0.0000000000000000e+00 0.0000000000000000e+00 0.0000000000000000e+00  0.0000000000000000e+00 0.0000000000000000e+00 0.0000000000000000e+00  0.0000000000000000e+00 0.0000000000000000e+00 0.0000000000000000e+00  0.0000000000000000e+00 0.0000000000000000e+00 0.0000000000000000e+00  0.0000000000000000e+00 0.0000000000000000e+00 0.0000000000000000e+00  3.1029519461161923e-13 0.0000000000000000e+00 0.0000000000000000e+00  0.0000000000000000e+00 0.0000000000000000e+00 0.0000000000000000e+00  0.0000000000000000e+00 0.0000000000000000e+00 0.0000000000000000e+00  0.0000000000000000e+00 0.0000000000000000e+00 0.0000000000000000e+00  0.0000000000000000e+00 0.0000000000000000e+00 0.0000000000000000e+00  0.0000000000000000e+00 0.0000000000000000e+00 0.0000000000000000e+00  1.3457773659076288e-13 7.6364757458826869e-18 0.0000000000000000e+00  0.0000000000000000e+00 0.0000000000000000e+00 0.0000000000000000e+00  0.0000000000000000e+00 0.0000000000000000e+00 0.0000000000000000e+00  0.0000000000000000e+00 0.0000000000000000e+00 0.0000000000000000e+00  0.0000000000000000e+00 0.0000000000000000e+00 0.0000000000000000e+00  0.0000000000000000e+00 0.0000000000000000e+00 0.0000000000000000e+00  0.0000000000000000e+00 0.0000000000000000e+00 0.0000000000000000e+00  0.0000000000000000e+00 0.0000000000000000e+00 0.0000000000000000e+00  0.0000000000000000e+00 0.0000000000000000e+00 0.0000000000000000e+00  0.0000000000000000e+00 0.0000000000000000e+00 0.0000000000000000e+00  0.0000000000000000e+00 0.0000000000000000e+00 0.0000000000000000e+00  1.7937714597965656e-14 -6.8287211948448535e-14 0.0000000000000000e+00  0.0000000000000000e+00 0.0000000000000000e+00 0.0000000000000000e+00  0.0000000000000000e+00 0.0000000000000000e+00 0.0000000000000000e+00  0.0000000000000000e+00 0.0000000000000000e+00 0.0000000000000000e+00  0.0000000000000000e+00 0.0000000000000000e+00 0.0000000000000000e+00  -4.7782815501748713e-15 -7.5801785044240673e-20 0.0000000000000000e+00  0.0000000000000000e+00 0.0000000000000000e+00 0.0000000000000000e+00  0.0000000000000000e+00 0.0000000000000000e+00 0.0000000000000000e+00  0.0000000000000000e+00 0.0000000000000000e+00 0.0000000000000000e+00  0.0000000000000000e+00 0.0000000000000000e+00 0.0000000000000000e+00  0.0000000000000000e+00 0.0000000000000000e+00 0.0000000000000000e+00  0.0000000000000000e+00 0.0000000000000000e+00 0.0000000000000000e+00  0.0000000000000000e+00 0.0000000000000000e+00 0.0000000000000000e+00  0.0000000000000000e+00 0.0000000000000000e+00 0.0000000000000000e+00  0.0000000000000000e+00 0.0000000000000000e+00 0.0000000000000000e+00  0.0000000000000000e+00 0.0000000000000000e+00 0.0000000000000000e+00  0.0000000000000000e+00 0.0000000000000000e+00 0.0000000000000000e+00  0.0000000000000000e+00 0.0000000000000000e+00 0.0000000000000000e+00  0.0000000000000000e+00 0.0000000000000000e+00 0.0000000000000000e+00  0.0000000000000000e+00 0.0000000000000000e+00 0.0000000000000000e+00  0.0000000000000000e+00 0.0000000000000000e+00 0.0000000000000000e+00  0.0000000000000000e+00 0.0000000000000000e+00 0.0000000000000000e+00  0.0000000000000000e+00 0.0000000000000000e+00 0.0000000000000000e+00  0.0000000000000000e+00 0.0000000000000000e+00 0.0000000000000000e+00  0.0000000000000000e+00 0.0000000000000000e+00 0.0000000000000000e+00  0.0000000000000000e+00 0.0000000000000000e+00 0.0000000000000000e+00  0.0000000000000000e+00 0.0000000000000000e+00 0.0000000000000000e+00  0.0000000000000000e+00 0.0000000000000000e+00 0.0000000000000000e+00  0.0000000000000000e+00 0.0000000000000000e+00 0.0000000000000000e+00  0.0000000000000000e+00 0.0000000000000000e+00 0.0000000000000000e+00  0.0000000000000000e+00 0.0000000000000000e+00 0.0000000000000000e+00  0.0000000000000000e+00 0.0000000000000000e+00 0.0000000000000000e+00  0.0000000000000000e+00 0.0000000000000000e+00 0.0000000000000000e+00  0.0000000000000000e+00 0.0000000000000000e+00 0.0000000000000000e+00  0.0000000000000000e+00 0.0000000000000000e+00 0.0000000000000000e+00  0.0000000000000000e+00 0.0000000000000000e+00 0.0000000000000000e+00  0.0000000000000000e+00 0.0000000000000000e+00 0.0000000000000000e+00  -9.7519338900711158e-15 1.2534358187208955e-13 0.0000000000000000e+00  -3.4444426248578214e-08 -2.2653190403728942e-06 0.0000000000000000e+00  7.2912985134888239e-10 -2.4527073868721650e-06 0.0000000000000000e+00  1.4815573063248815e-07 -2.5251369037665308e-06 0.0000000000000000e+00  3.4860623697360397e-07 -2.5413581658159969e-06 0.0000000000000000e+00  5.5727993129860991e-07 -2.5705972029988486e-06 0.0000000000000000e+00  7.4779755195096439e-07 -2.6377965602323202e-06 0.0000000000000000e+00  9.2016654014134678e-07 -2.7165008211052456e-06 0.0000000000000000e+00  1.0689135546743561e-06 -2.8139636820808568e-06 0.0000000000000000e+00  1.2067787511769333e-06 -2.9289096310385336e-06 0.0000000000000000e+00  1.3158079819786756e-06 -3.0535338498456645e-06 0.0000000000000000e+00  1.4103078465057460e-06 -3.2057920443237515e-06 0.0000000000000000e+00  1.4773480027246692e-06 -3.3625812490310322e-06 0.0000000000000000e+00  1.5249480801329002e-06 -3.5415545662986840e-06 0.0000000000000000e+00  1.5510908599844012e-06 -3.7345500847846426e-06 0.0000000000000000e+00  1.5509615225239558e-06 -3.9416309581938472e-06 0.0000000000000000e+00  1.5378508984686353e-06 -4.1676148711305328e-06 0.0000000000000000e+00  1.4946555888330956e-06 -4.3968897351839323e-06 0.0000000000000000e+00  1.4334454434888575e-06 -4.6544862735561607e-06 0.0000000000000000e+00  1.3450038964712385e-06 -4.9101541765940731e-06 0.0000000000000000e+00  1.2389209487127175e-06 -5.1933628372080058e-06 0.0000000000000000e+00  1.1062720770172468e-06 -5.4748486302136218e-06 0.0000000000000000e+00  9.4996447480228292e-07 -5.7769886908553671e-06 0.0000000000000000e+00  7.7443969183252352e-07 -6.0891569098920175e-06 0.0000000000000000e+00  5.7228967046508294e-07 -6.4106324149013372e-06 0.0000000000000000e+00  3.5561746579428039e-07 -6.7481190555142235e-06 0.0000000000000000e+00  1.1014035232433862e-07 -7.0853194298351192e-06 0.0000000000000000e+00  -1.5838822485720456e-07 -7.4487462429128095e-06 0.0000000000000000e+00  -4.4996906707344236e-07 -7.8059941103456228e-06 0.0000000000000000e+00  -7.6460668665437166e-07 -8.1870572193692249e-06 0.0000000000000000e+00  -1.1022069742744140e-06 -8.5638578611309723e-06 0.0000000000000000e+00  -1.4622000539508180e-06 -8.9623374989540276e-06 0.0000000000000000e+00  -1.8465187371215212e-06 -9.3555591960707074e-06 0.0000000000000000e+00  -2.2518235224099739e-06 -9.7708093149577539e-06 0.0000000000000000e+00  -2.6823022564857588e-06 -1.0177371348220976e-05 0.0000000000000000e+00  -3.1367384996920860e-06 -1.0607333827354240e-05 0.0000000000000000e+00  -3.6141063165886128e-06 -1.1029188502943602e-05 0.0000000000000000e+00  -4.1140159356679657e-06 -1.1471521857217676e-05 0.0000000000000000e+00  -4.6376679732186229e-06 -1.1905568992696843e-05 0.0000000000000000e+00  -5.1852680719048074e-06 -1.2358732384668725e-05 0.0000000000000000e+00  -5.7581432343081835e-06 -1.2803169516371064e-05 0.0000000000000000e+00  -6.3574227912442425e-06 -1.3260619903815544e-05 0.0000000000000000e+00  -6.9761864254212511e-06 -1.3716129864249354e-05 0.0000000000000000e+00  -7.6237939546501652e-06 -1.4177629821672565e-05 0.0000000000000000e+00  -8.2851544784904102e-06 -1.4640266927907821e-05 0.0000000000000000e+00  -8.9739875073542805e-06 -1.5098164854303477e-05 0.0000000000000000e+00  -9.6648396516899593e-06 -1.5581130941542526e-05 0.0000000000000000e+00  -1.0806642272274822e-05 -1.5507015241758433e-05 0.0000000000000000e+00  -1.1477267885055068e-05 -1.4183421100557413e-05 0.0000000000000000e+00  -1.1013585448194150e-05 -1.3100686136478702e-05 0.0000000000000000e+00  -1.0311037845927591e-05 -1.2575392200178581e-05 0.0000000000000000e+00  -9.6137102805570495e-06 -1.2038646797446893e-05 0.0000000000000000e+00  -8.9416537516170634e-06 -1.1513069573911060e-05 0.0000000000000000e+00  -8.2847024791501729e-06 -1.0990511476982692e-05 0.0000000000000000e+00  -7.6569532761969098e-06 -1.0472195831339233e-05 0.0000000000000000e+00  -7.0462049593599037e-06 -9.9608353244969485e-06 0.0000000000000000e+00  -6.4627784289953614e-06 -9.4465534259857425e-06 0.0000000000000000e+00  -5.9000351095226020e-06 -8.9493135089208268e-06 0.0000000000000000e+00  -5.3618060742380305e-06 -8.4437042634190128e-06 0.0000000000000000e+00  -4.8441495795546790e-06 -7.9575792346072410e-06 0.0000000000000000e+00  -4.3512382643797001e-06 -7.4644282414246162e-06 0.0000000000000000e+00  -3.8785010610981107e-06 -6.9916909975823578e-06 0.0000000000000000e+00  -3.4300858744735547e-06 -6.5129415335969648e-06 0.0000000000000000e+00  -3.0010232221479494e-06 -6.0550419740828496e-06 0.0000000000000000e+00  -2.5969441454854846e-06 -5.5915716514472882e-06 0.0000000000000000e+00  -2.2123154764049125e-06 -5.1495597253428105e-06 0.0000000000000000e+00  -1.8529200713386632e-06 -4.7028664283786755e-06 0.0000000000000000e+00  -1.5125146303318025e-06 -4.2790837430052857e-06 0.0000000000000000e+00  -1.1969800922965449e-06 -3.8517911453160844e-06 0.0000000000000000e+00  -8.9986550886094703e-07 -3.4475463725979152e-06 0.0000000000000000e+00  -6.2819247126915253e-07 -3.0409688755241322e-06 0.0000000000000000e+00  -3.7815716117748068e-07 -2.6532183393774159e-06 0.0000000000000000e+00  -1.4795093988642701e-07 -2.2728559223475769e-06 0.0000000000000000e+00  5.5498747864417982e-08 -1.9061211700574813e-06 0.0000000000000000e+00  2.4724872320813232e-07 -1.5518158151213523e-06 0.0000000000000000e+00  4.1095338918700891e-07 -1.2027855553343969e-06 0.0000000000000000e+00  5.5489626841238740e-07 -8.7960802275193476e-07 0.0000000000000000e+00  6.7531890395431113e-07 -5.5429342262032584e-07 0.0000000000000000e+00  7.7506490341840299e-07 -2.5745907546129241e-07 0.0000000000000000e+00  8.5189778441183510e-07 4.0638442897144043e-08 0.0000000000000000e+00  9.0702132009574427e-07 3.1251526227534560e-07 0.0000000000000000e+00  9.4376757059721716e-07 5.7764324108862986e-07 0.0000000000000000e+00  9.5527397274141049e-07 8.2229878134172652e-07 0.0000000000000000e+00  9.5553262786769958e-07 1.0542241468642869e-06 0.0000000000000000e+00  9.2875449076320356e-07 1.2727810151002309e-06 0.0000000000000000e+00  8.8243500660161865e-07 1.4637055762952282e-06 0.0000000000000000e+00  8.1406278355033336e-07 1.6493872941347268e-06 0.0000000000000000e+00  7.2572661019977840e-07 1.8091740360527630e-06 0.0000000000000000e+00  6.1916263926991820e-07 1.9566173944123020e-06 0.0000000000000000e+00  4.8898970394260708e-07 2.0828378282470890e-06 0.0000000000000000e+00  3.5013796509361521e-07 2.1917916385624895e-06 0.0000000000000000e+00  1.8451284262660532e-07 2.3019282017129384e-06 0.0000000000000000e+00  3.4970583003214171e-08 2.3859666934414332e-06 0.0000000000000000e+00  -7.5069562090918686e-08 2.3814591745563468e-06 0.0000000000000000e+00  -7.6627985352067023e-08 2.2248843793244249e-06 0.0000000000000000e+00  -4.7846515824001206e-07 -2.9215182539930917e-08 0.0000000000000000e+00  -1.0042046308597268e-05 -1.4099830101927856e-05 0.0000000000000000e+00  -8.6740836439013571e-06 -1.3158444867696375e-05 0.0000000000000000e+00  -6.6888308485409503e-06 -1.1619426283409203e-05 0.0000000000000000e+00  1.5759417305879983e-07 -8.2613479981115117e-08 0.0000000000000000e+00  -5.5638806748397673e-06 -1.0660863861997885e-05 0.0000000000000000e+00  5.1459497127738856e-07 -1.8093051873835787e-07 0.0000000000000000e+00  -4.5003881988682095e-06 -9.7207398772578814e-06 0.0000000000000000e+00  9.4465681843662218e-07 -5.3265337202402413e-07 0.0000000000000000e+00  1.1187319682695408e-06 -8.6804389755682769e-07 0.0000000000000000e+00  -3.5290404274666955e-06 -8.8052340074473353e-06 0.0000000000000000e+00  1.1939654407035859e-06 -1.9099476341687052e-06 0.0000000000000000e+00  -1.8601697590673038e-06 -7.0602070570064979e-06 0.0000000000000000e+00  1.2114020393509900e-06 -1.1984781750357257e-06 0.0000000000000000e+00  1.0782267793713439e-06 -2.4554610963633652e-06 0.0000000000000000e+00  -1.1615809650513504e-06 -6.2368048793469868e-06 0.0000000000000000e+00  -2.6491005426631987e-06 -7.9172747195923258e-06 0.0000000000000000e+00  8.7174470508625772e-07 -3.0362178647457251e-06 0.0000000000000000e+00  -5.5311784669248214e-07 -5.4507871737482362e-06 0.0000000000000000e+00  5.8665852002287933e-07 -3.6154563292061236e-06 0.0000000000000000e+00  -3.5586012505202725e-08 -4.7433677914942386e-06 0.0000000000000000e+00  3.0668006647615837e-07 -4.1466730509076279e-06 0.0000000000000000e+00  1.2259574757186835e-06 -1.5554420386153127e-06 0.0000000000000000e+00  -7.7124294092741857e-06 -1.2391989285231605e-05 0.0000000000000000e+00  7.3844605811544000e-07 -3.6193694878666879e-07 0.0000000000000000e+00  -9.5713946188688035e-06 -1.3179824331117659e-05 0.0000000000000000e+00  -1.2257633212553360e-07 8.7596258930057185e-07 0.0000000000000000e+00  -5.2031738579030074e-06 -9.7534577193788748e-06 0.0000000000000000e+00  -6.3165733104578795e-06 -1.0720560510085629e-05 0.0000000000000000e+00  3.8294305655255467e-07 -9.9352380933627607e-07 0.0000000000000000e+00  1.1003320206287242e-06 -1.3670548915464954e-06 0.0000000000000000e+00  -2.4099384739045602e-06 -7.0004457420167400e-06 0.0000000000000000e+00  -4.1811936213157039e-06 -8.8084418389619759e-06 0.0000000000000000e+00  1.2515105459558915e-06 -2.7925810687993497e-06 0.0000000000000000e+00  -1.6595722437354467e-06 -6.1432124958259308e-06 0.0000000000000000e+00  1.2501703850515294e-06 -1.6963813211708991e-06 0.0000000000000000e+00  1.0979248790387846e-06 -3.3320179126196154e-06 0.0000000000000000e+00  -9.9906058461236168e-07 -5.3217774326778101e-06 0.0000000000000000e+00  -3.2504495282565958e-06 -7.8896934205239901e-06 0.0000000000000000e+00  8.8676042125941890e-07 -4.0464705367949040e-06 0.0000000000000000e+00  -4.2729830711147273e-07 -4.5395391243927780e-06 0.0000000000000000e+00  -4.9244080063524181e-07 -5.4448121226725474e-07 0.0000000000000000e+00  -4.8985747050304159e-07 4.8567531721589980e-07 0.0000000000000000e+00  -1.0473203130120713e-05 -1.4784734956714192e-05 0.0000000000000000e+00  -7.65446702