<?xml version="1.0"?>
<VTKFile type="UnstructuredGrid"  version="0.1"  >
<UnstructuredGrid>
<Piece  NumberOfPoints="1419" NumberOfCells="2698">
<Points>
<DataArray  type="Float64"  NumberOfComponents="3"  format="ascii">0 0 0  0 0.41 0  2.5 0 0  2.5 0.41 0  0.6 0.19 0  0.6 0.21 0  0.25 0.2 0  0.15 0.2 0  0.2489897948556636 0.21 0  0.2489897948556636 0.19 0  0.6 0.2 0  0 0.3807142857143437 0  0 0.3514285714286952 0  0 0.3221428571430699 0  0 0.29285714285744 0  0 0.2635714285718054 0  0 0.2342857142861561 0  0 0.2050000000005308 0  0 0.175714285714732 0  0 0.1464285714289574 0  0 0.1171428571431897 0  0 0.08785714285737878 0  0 0.05857142857161107 0  0 0.02928571428580012 0  0.03015443760436003 0 0  0.06140001986583606 0 0  0.09377624077125973 0 0  0.1273239957535082 0 0  0.1620856860351972 0 0  0.1981052433264291 0 0  0.235428184091502 0 0  0.2741016576309132 0 0  0.3141745521465447 0 0  0.3556974926295285 0 0  0.3987229542472677 0 0  0.4433053055141081 0 0  0.4895008759286886 0 0  0.5373680609405097 0 0  0.5869673343216626 0 0  0.6383613676634521 0 0  0.6916151138468254 0 0  0.7467958595648856 0 0  0.8039733463919316 0 0  0.8632198139502143 0 0  0.9246101326867038 0 0  0.9882218810934433 0 0  1.054135445558498 0 0  1.122434100542598 0 0  1.193204177141305 0 0  1.266535089879536 0 0  1.342519516046404 0 0  1.421253448503939 0 0  1.502836389106271 0 0  1.587371439758838 0 0  1.674965418777374 0 0  1.765729001825544 0 0  1.859776908880082 0 0  1.957227977487062 0 0  2.058205329869943 0 0  2.162836591189951 0 0  2.271253957290865 0 0  2.383594446803425 0 0  2.5 0.1024999999997612 0  2.5 0.2049999999994743 0  2.5 0.3074999999997183 0  2.383594446803656 0.41 0  2.271253957291315 0.41 0  2.162836591190598 0.41 0  2.058205329870775 0.41 0  1.957227977488067 0.41 0  1.859776908881246 0.41 0  1.765729001826854 0.41 0  1.674965418778818 0.41 0  1.58737143976041 0.41 0  1.502836389107956 0.41 0  1.421253448505726 0.41 0  1.342519516048286 0.41 0  1.266535089881505 0.41 0  1.193204177143353 0.41 0  1.122434100544716 0.41 0  1.05413544556068 0.41 0  0.9882218810956305 0.41 0  0.9246101326886647 0.41 0  0.8632198139519631 0.41 0  0.8039733463934788 0.41 0  0.7467958595662458 0.41 0  0.6916151138480078 0.41 0  0.6383613676644679 0.41 0  0.5869673343225223 0.41 0  0.5373680609412221 0.41 0  0.4895008759292634 0.41 0  0.4433053055145528 0.41 0  0.3987229542475914 0.41 0  0.3556974926297398 0.41 0  0.3141745521466497 0.41 0  0.2741016576310038 0.41 0  0.2354281840915826 0.41 0  0.1981052433265003 0.41 0  0.1620856860352591 0.41 0  0.1273239957535623 0.41 0  0.09377624077128965 0.41 0  0.06140001986584975 0.41 0  0.03015443760436654 0.41 0  0.2497468076502589 0.2050254481002335 0  0.2497468076502614 0.1949745518997913 0  0.2469965252529372 0.1829317073451959 0  0.2439893735792749 0.1762316384219906 0  0.2400332147834255 0.1700443375285386 0  0.2352133972704371 0.1645032867342007 0  0.2296339016332438 0.1597280261969788 0  0.2234150974217223 0.1558215752574715 0  0.2166911463437691 0.1528682099456123 0  0.2096071079204251 0.1509316448471593 0  0.2023158100364996 0.1500536585536553 0  0.194974551899914 0.1502531923497262 0  0.1877417105387872 0.1515259415822739 0  0.1807733240461124 0.153844448527136 0  0.1742197252835808 0.15715869474974 0  0.1682222986673531 0.1613971801805478 0  0.162910430003803 0.1664684656256651 0  0.1583987151779087 0.1722631454351573 0  0.1547844879126891 0.178656207771761 0  0.1521457199348551 0.1855097315605723 0  0.1505393388476355 0.1926758619366523 0  0.1505393388476328 0.2073241380633295 0  0.1521457199348437 0.2144902684393899 0  0.1547844879126531 0.221343792228163 0  0.1583987151778488 0.2277368545647528 0  0.1629104300036858 0.2335315343742052 0  0.1682222986671726 0.2386028198193036 0  0.1742197252833576 0.2428413052501257 0  0.1807733240458683 0.2461555514727623 0  0.1877417105384929 0.2484740584176516 0  0.1949745518995776 0.2497468076502398 0  0.202315810036185 0.2499463414463592 0  0.2096071079201568 0.2490683551528932 0  0.2166911463435495 0.2471317900544655 0  0.2234150974215506 0.2441784247426195 0  0.2296339016331197 0.2402719738031125 0  0.2352133972703547 0.2354967132658811 0  0.2400332147833751 0.2299556624715287 0  0.2439893735792577 0.2237683615780412 0  0.246996525252926 0.2170682926548348 0  0.25645809709277 0.21 0  0.2639263993298655 0.21 0  0.271394701566961 0.21 0  0.2788630038040554 0.21 0  0.2863313060411479 0.21 0  0.2937996082782405 0.21 0  0.301267910515333 0.21 0  0.3087362127524279 0.21 0  0.3162045149895234 0.21 0  0.3236728172265972 0.21 0  0.3311411194636928 0.21 0  0.3386094217007701 0.21 0  0.3460777239378666 0.21 0  0.3535460261749672 0.21 0  0.3610143284120516 0.21 0  0.3684826306491596 0.21 0  0.3759509328862226 0.21 0  0.383419235123329 0.21 0  0.3908875373604028 0.21 0  0.3983558395975142 0.21 0  0.4058241418345938 0.21 0  0.4132924440716992 0.21 0  0.4207607463087888 0.21 0  0.4282290485459029 0.21 0  0.4356973507830418 0.21 0  0.4431656530201649 0.21 0  0.4506339552573136 0.21 0  0.4581022574944306 0.21 0  0.4655705597315852 0.21 0  0.4730388619686996 0.21 0  0.480507164205851 0.21 0  0.4879754664429498 0.21 0  0.4954437686800938 0.21 0  0.502912070917267 0.21 0  0.5103803731544119 0.21 0  0.5178486753915261 0.21 0  0.5253169776286404 0.21 0  0.5327852798657868 0.21 0  0.5402535821029386 0.21 0  0.54772188434007 0.21 0  0.5551901865771842 0.21 0  0.5626584888143201 0.21 0  0.5701267910514778 0.21 0  0.5775950932886138 0.21 0  0.5850633955257281 0.21 0  0.5925316977628483 0.21 0  0.6 0.2050000000000054 0  0.6 0.1950000000000217 0  0.5925316977628897 0.19 0  0.5850633955257988 0.19 0  0.5775950932887378 0.19 0  0.5701267910515998 0.19 0  0.5626584888145268 0.19 0  0.5551901865773963 0.19 0  0.547721884340339 0.19 0  0.5402535821032429 0.19 0  0.5327852798661811 0.19 0  0.5253169776290537 0.19 0  0.5178486753919799 0.19 0  0.5103803731549078 0.19 0  0.502912070917822 0.19 0  0.4954437686807294 0.19 0  0.4879754664436223 0.19 0  0.4805071642065402 0.19 0  0.4730388619694271 0.19 0  0.4655705597323621 0.19 0  0.4581022574952563 0.19 0  0.4506339552581777 0.19 0  0.4431656530210671 0.19 0  0.4356973507839815 0.19 0  0.4282290485468779 0.19 0  0.4207607463097617 0.19 0  0.4132924440726327 0.19 0  0.4058241418354857 0.19 0  0.3983558395983636 0.19 0  0.3908875373612097 0.19 0  0.3834192351240934 0.19 0  0.3759509328869369 0.19 0  0.3684826306498175 0.19 0  0.361014328412667 0.19 0  0.3535460261755617 0.19 0  0.3460777239384295 0.19 0  0.3386094217012945 0.19 0  0.3311411194641595 0.19 0  0.3236728172270245 0.19 0  0.3162045149898895 0.19 0  0.3087362127527544 0.19 0  0.3012679105156187 0.19 0  0.2937996082784807 0.19 0  0.2863313060413428 0.19 0  0.2788630038042048 0.19 0  0.2713947015670686 0.19 0  0.2639263993299336 0.19 0  0.2564580970927985 0.19 0  0.2607803159922026 0.2000727136295815 0  0.5887803774232762 0.2001272386983733 0  0.5745072403740523 0.2002044435018727 0  0.5511891430099709 0.2001122610077113 0  0.2751288526855082 0.20000000000002 0  0.5365194309847112 0.1999999999999436 0  0.2894621222999649 0.1998691686390484 0  0.5215828265105155 0.1999999999999228 0  0.3127789816668748 0.1998657885438805 0  0.3274069683451451 0.2000000000000796 0  0.5066462220363641 0.199999999999908 0  0.3650630746574081 0.199866017807523 0  0.476773013087985 0.1999999999998713 0  0.3417402379596385 0.1998691686391011 0  0.3796850840047755 0.200000000000134 0  0.4618364086138087 0.1999999999998546 0  0.4917096175621762 0.1999999999998808 0  0.3946216884789568 0.2000000000001512 0  0.446899804139621 0.1999999999998389 0  0.4089549580935208 0.1998691686391595 0  0.4322718174608562 0.200127451265745 0  0.4201487168029707 0.1999966199048527 0  0.3528922713220932 0.2000185703532356 0  0.5633122436674589 0.1999814296467508 0  0.3006558810093873 0.1999966199048318 0  0.5815926498168407 0.1966545283159175 0  0.2677053789419034 0.1964246479135325 0  0.5290511287476175 0.1970915826863981 0  0.5439877332217911 0.197091582686394 0  0.2825131256993216 0.2035478995978015 0  0.3199386661080599 0.202908417313604 0  0.4842413153250809 0.1970915826863873 0  0.5141145242734466 0.1970915826863843 0  0.3722167817676917 0.2029084173136195 0  0.4693047108508938 0.1970915826863783 0  0.3348752705822316 0.202908417313609 0  0.3871533862418661 0.2029084173136212 0  0.4543681063767183 0.1970915826863795 0  0.4991779197992749 0.1970915826863902 0  0.4020059614928624 0.203547899597858 0  0.4394315019025246 0.1970915826863714 0  0.2550657455369551 0.2034088125358657 0  0.2548908499171161 0.1966940311614271 0  0.5946539510196798 0.2024302972968126 0  0.267698176732111 0.2039977513680092 0  0.4261685417851465 0.196409292431739 0  0.3590076176283495 0.196411355804271 0  0.5571672426447437 0.2036011176410121 0  0.3066757059912147 0.1964092924317024 0  0.594380730180568 0.1966558399668133 0  0.4842413153245942 0.2040749161535287 0  0.4693047108503577 0.2040749161535231 0  0.3871533862424271 0.1959250838464788 0  0.372246743208829 0.1959123236376545 0  0.5141145242731028 0.2040749161535395 0  0.4543681063761134 0.2040749161535186 0  0.4019979587101454 0.1959834479682427 0  0.4394608940728603 0.2040870543693135 0  0.5439623148931173 0.2040856076781014 0  0.5290511287473298 0.2040749161535501 0  0.4991779197988497 0.2040749161535382 0  0.3347912413592433 0.1959225448935183 0  0.3199680582793816 0.1959123018030061 0  0.2825051229162361 0.1959834479681729 0  0.3590471196690275 0.2036304442587945 0  0.5571594006495384 0.1963685282145804 0  0.3067669986803285 0.203627750582736 0  0.4262598344738712 0.2036568242185335 0  0.5814408164431408 0.2041285596160068 0  0.5688286748170428 0.1961819304477386 0  0.4145905603063645 0.2038180695522843 0  0.3473758401724931 0.2038180695522752 0  0.2950977245128307 0.2038180695522663 0  0.5688286748170693 0.203818069552238 0  0.2950977245127906 0.1961819304477774 0  0.3473758401723931 0.1961819304478349 0  0.4145905603061963 0.1961819304479011 0  0.2601812407614425 0.2056861609747042
[...]
<PointData  Vectors="f_46-2"> 
<DataArray  type="Float64"  Name="f_46-2"  NumberOfComponents="3" format="ascii">0.0000000000000000e+00 0.0000000000000000e+00 0.0000000000000000e+00  0.0000000000000000e+00 0.0000000000000000e+00 0.0000000000000000e+00  0.0000000000000000e+00 0.0000000000000000e+00 0.0000000000000000e+00  0.0000000000000000e+00 0.0000000000000000e+00 0.0000000000000000e+00  2.5413889949340728e-05 -2.4155369805201936e-04 0.0000000000000000e+00  4.4206976276902551e-05 -2.4297758042473889e-04 0.0000000000000000e+00  0.0000000000000000e+00 0.0000000000000000e+00 0.0000000000000000e+00  0.0000000000000000e+00 0.0000000000000000e+00 0.0000000000000000e+00  0.0000000000000000e+00 0.0000000000000000e+00 0.0000000000000000e+00  0.0000000000000000e+00 0.0000000000000000e+00 0.0000000000000000e+00  3.4421385040825126e-05 -2.4226761524846942e-04 0.0000000000000000e+00  0.0000000000000000e+00 0.0000000000000000e+00 0.0000000000000000e+00  0.0000000000000000e+00 0.0000000000000000e+00 0.0000000000000000e+00  0.0000000000000000e+00 0.0000000000000000e+00 0.0000000000000000e+00  0.0000000000000000e+00 0.0000000000000000e+00 0.0000000000000000e+00  0.0000000000000000e+00 0.0000000000000000e+00 0.0000000000000000e+00  0.0000000000000000e+00 0.0000000000000000e+00 0.0000000000000000e+00  0.0000000000000000e+00 0.0000000000000000e+00 0.0000000000000000e+00  0.0000000000000000e+00 0.0000000000000000e+00 0.0000000000000000e+00  0.0000000000000000e+00 0.0000000000000000e+00 0.0000000000000000e+00  0.0000000000000000e+00 0.0000000000000000e+00 0.0000000000000000e+00  0.0000000000000000e+00 0.0000000000000000e+00 0.0000000000000000e+00  0.0000000000000000e+00 0.0000000000000000e+00 0.0000000000000000e+00  0.0000000000000000e+00 0.0000000000000000e+00 0.0000000000000000e+00  0.0000000000000000e+00 0.0000000000000000e+00 0.0000000000000000e+00  0.0000000000000000e+00 0.0000000000000000e+00 0.0000000000000000e+00  0.0000000000000000e+00 0.0000000000000000e+00 0.0000000000000000e+00  0.0000000000000000e+00 0.0000000000000000e+00 0.0000000000000000e+00  0.0000000000000000e+00 0.0000000000000000e+00 0.0000000000000000e+00  0.0000000000000000e+00 0.0000000000000000e+00 0.0000000000000000e+00  0.0000000000000000e+00 0.0000000000000000e+00 0.0000000000000000e+00  0.0000000000000000e+00 0.0000000000000000e+00 0.0000000000000000e+00  0.0000000000000000e+00 0.0000000000000000e+00 0.0000000000000000e+00  0.0000000000000000e+00 0.0000000000000000e+00 0.0000000000000000e+00  0.0000000000000000e+00 0.0000000000000000e+00 0.0000000000000000e+00  -8.3938016873886098e-14 0.0000000000000000e+00 0.0000000000000000e+00  0.0000000000000000e+00 0.0000000000000000e+00 0.0000000000000000e+00  0.0000000000000000e+00 0.0000000000000000e+00 0.0000000000000000e+00  0.0000000000000000e+00 0.0000000000000000e+00 0.0000000000000000e+00  0.0000000000000000e+00 0.0000000000000000e+00 0.0000000000000000e+00  0.0000000000000000e+00 0.0000000000000000e+00 0.0000000000000000e+00  0.0000000000000000e+00 0.0000000000000000e+00 0.0000000000000000e+00  0.0000000000000000e+00 0.0000000000000000e+00 0.0000000000000000e+00  0.0000000000000000e+00 0.0000000000000000e+00 0.0000000000000000e+00  0.0000000000000000e+00 0.0000000000000000e+00 0.0000000000000000e+00  0.0000000000000000e+00 0.0000000000000000e+00 0.0000000000000000e+00  0.0000000000000000e+00 0.0000000000000000e+00 0.0000000000000000e+00  0.0000000000000000e+00 0.0000000000000000e+00 0.0000000000000000e+00  0.0000000000000000e+00 0.0000000000000000e+00 0.0000000000000000e+00  0.0000000000000000e+00 0.0000000000000000e+00 0.0000000000000000e+00  0.0000000000000000e+00 0.0000000000000000e+00 0.0000000000000000e+00  0.0000000000000000e+00 0.0000000000000000e+00 0.0000000000000000e+00  0.0000000000000000e+00 0.0000000000000000e+00 0.0000000000000000e+00  0.0000000000000000e+00 0.0000000000000000e+00 0.0000000000000000e+00  0.0000000000000000e+00 0.0000000000000000e+00 0.0000000000000000e+00  0.0000000000000000e+00 0.0000000000000000e+00 0.0000000000000000e+00  0.0000000000000000e+00 0.0000000000000000e+00 0.0000000000000000e+00  0.0000000000000000e+00 0.0000000000000000e+00 0.0000000000000000e+00  0.0000000000000000e+00 0.0000000000000000e+00 0.0000000000000000e+00  0.0000000000000000e+00 0.0000000000000000e+00 0.0000000000000000e+00  0.0000000000000000e+00 0.0000000000000000e+00 0.0000000000000000e+00  0.0000000000000000e+00 0.0000000000000000e+00 0.0000000000000000e+00  0.0000000000000000e+00 0.0000000000000000e+00 0.0000000000000000e+00  0.0000000000000000e+00 0.0000000000000000e+00 0.0000000000000000e+00  0.0000000000000000e+00 0.0000000000000000e+00 0.0000000000000000e+00  0.0000000000000000e+00 0.0000000000000000e+00 0.0000000000000000e+00  0.0000000000000000e+00 0.0000000000000000e+00 0.0000000000000000e+00  0.0000000000000000e+00 0.0000000000000000e+00 0.0000000000000000e+00  0.0000000000000000e+00 0.0000000000000000e+00 0.0000000000000000e+00  0.0000000000000000e+00 0.0000000000000000e+00 0.0000000000000000e+00  0.0000000000000000e+00 0.0000000000000000e+00 0.0000000000000000e+00  0.0000000000000000e+00 0.0000000000000000e+00 0.0000000000000000e+00  0.0000000000000000e+00 0.0000000000000000e+00 0.0000000000000000e+00  0.0000000000000000e+00 0.0000000000000000e+00 0.0000000000000000e+00  0.0000000000000000e+00 0.0000000000000000e+00 0.0000000000000000e+00  0.0000000000000000e+00 0.0000000000000000e+00 0.0000000000000000e+00  0.0000000000000000e+00 0.0000000000000000e+00 0.0000000000000000e+00  0.0000000000000000e+00 0.0000000000000000e+00 0.0000000000000000e+00  0.0000000000000000e+00 0.0000000000000000e+00 0.0000000000000000e+00  0.0000000000000000e+00 0.0000000000000000e+00 0.0000000000000000e+00  0.0000000000000000e+00 0.0000000000000000e+00 0.0000000000000000e+00  0.0000000000000000e+00 0.0000000000000000e+00 0.0000000000000000e+00  0.0000000000000000e+00 0.0000000000000000e+00 0.0000000000000000e+00  0.0000000000000000e+00 0.0000000000000000e+00 0.0000000000000000e+00  0.0000000000000000e+00 0.0000000000000000e+00 0.0000000000000000e+00  0.0000000000000000e+00 0.0000000000000000e+00 0.0000000000000000e+00  0.0000000000000000e+00 0.0000000000000000e+00 0.0000000000000000e+00  0.0000000000000000e+00 0.0000000000000000e+00 0.0000000000000000e+00  1.1924140238095204e-11 0.0000000000000000e+00 0.0000000000000000e+00  0.0000000000000000e+00 0.0000000000000000e+00 0.0000000000000000e+00  0.0000000000000000e+00 0.0000000000000000e+00 0.0000000000000000e+00  0.0000000000000000e+00 0.0000000000000000e+00 0.0000000000000000e+00  0.0000000000000000e+00 0.0000000000000000e+00 0.0000000000000000e+00  0.0000000000000000e+00 0.0000000000000000e+00 0.0000000000000000e+00  1.8855456440712072e-14 5.4903791755422297e-18 0.0000000000000000e+00  0.0000000000000000e+00 0.0000000000000000e+00 0.0000000000000000e+00  0.0000000000000000e+00 0.0000000000000000e+00 0.0000000000000000e+00  0.0000000000000000e+00 0.0000000000000000e+00 0.0000000000000000e+00  0.0000000000000000e+00 0.0000000000000000e+00 0.0000000000000000e+00  0.0000000000000000e+00 0.0000000000000000e+00 0.0000000000000000e+00  0.0000000000000000e+00 0.0000000000000000e+00 0.0000000000000000e+00  0.0000000000000000e+00 0.0000000000000000e+00 0.0000000000000000e+00  0.0000000000000000e+00 0.0000000000000000e+00 0.0000000000000000e+00  0.0000000000000000e+00 0.0000000000000000e+00 0.0000000000000000e+00  0.0000000000000000e+00 0.0000000000000000e+00 0.0000000000000000e+00  -7.9655247895419787e-13 7.8878687826253698e-14 0.0000000000000000e+00  0.0000000000000000e+00 0.0000000000000000e+00 0.0000000000000000e+00  0.0000000000000000e+00 0.0000000000000000e+00 0.0000000000000000e+00  0.0000000000000000e+00 0.0000000000000000e+00 0.0000000000000000e+00  0.0000000000000000e+00 0.0000000000000000e+00 0.0000000000000000e+00  -8.2660253550936291e-15 1.6090221038196584e-14 0.0000000000000000e+00  0.0000000000000000e+00 0.0000000000000000e+00 0.0000000000000000e+00  0.0000000000000000e+00 0.0000000000000000e+00 0.0000000000000000e+00  0.0000000000000000e+00 0.0000000000000000e+00 0.0000000000000000e+00  0.0000000000000000e+00 0.0000000000000000e+00 0.0000000000000000e+00  0.0000000000000000e+00 0.0000000000000000e+00 0.0000000000000000e+00  0.0000000000000000e+00 0.0000000000000000e+00 0.0000000000000000e+00  0.0000000000000000e+00 0.0000000000000000e+00 0.0000000000000000e+00  0.0000000000000000e+00 0.0000000000000000e+00 0.0000000000000000e+00  0.0000000000000000e+00 0.0000000000000000e+00 0.0000000000000000e+00  0.0000000000000000e+00 0.0000000000000000e+00 0.0000000000000000e+00  0.0000000000000000e+00 0.0000000000000000e+00 0.0000000000000000e+00  0.0000000000000000e+00 0.0000000000000000e+00 0.0000000000000000e+00  0.0000000000000000e+00 0.0000000000000000e+00 0.0000000000000000e+00  0.0000000000000000e+00 0.0000000000000000e+00 0.0000000000000000e+00  0.0000000000000000e+00 0.0000000000000000e+00 0.0000000000000000e+00  0.0000000000000000e+00 0.0000000000000000e+00 0.0000000000000000e+00  0.0000000000000000e+00 0.0000000000000000e+00 0.0000000000000000e+00  0.0000000000000000e+00 0.0000000000000000e+00 0.0000000000000000e+00  0.0000000000000000e+00 0.0000000000000000e+00 0.0000000000000000e+00  0.0000000000000000e+00 0.0000000000000000e+00 0.0000000000000000e+00  0.0000000000000000e+00 0.0000000000000000e+00 0.0000000000000000e+00  0.0000000000000000e+00 0.0000000000000000e+00 0.0000000000000000e+00  0.0000000000000000e+00 0.0000000000000000e+00 0.0000000000000000e+00  0.0000000000000000e+00 0.0000000000000000e+00 0.0000000000000000e+00  0.0000000000000000e+00 0.0000000000000000e+00 0.0000000000000000e+00  0.0000000000000000e+00 0.0000000000000000e+00 0.0000000000000000e+00  0.0000000000000000e+00 0.0000000000000000e+00 0.0000000000000000e+00  0.0000000000000000e+00 0.0000000000000000e+00 0.0000000000000000e+00  0.0000000000000000e+00 0.0000000000000000e+00 0.0000000000000000e+00  0.0000000000000000e+00 0.0000000000000000e+00 0.0000000000000000e+00  0.0000000000000000e+00 0.0000000000000000e+00 0.0000000000000000e+00  1.9171849979754688e-11 1.8227953755665096e-13 0.0000000000000000e+00  1.4721634858927785e-06 -2.1152227975336156e-06 0.0000000000000000e+00  3.1212146859113855e-06 -2.7742767881691901e-06 0.0000000000000000e+00  4.8435958168907260e-06 -3.6937431576162153e-06 0.0000000000000000e+00  6.6683108399886503e-06 -4.9395283757776457e-06 0.0000000000000000e+00  8.4296803801503453e-06 -6.5184162385323593e-06 0.0000000000000000e+00  1.0254652430985343e-05 -8.4753964776087948e-06 0.0000000000000000e+00  1.1972497903749822e-05 -1.0703565532184465e-05 0.0000000000000000e+00  1.3666072413236336e-05 -1.3296601689778314e-05 0.0000000000000000e+00  1.5413175362586861e-05 -1.6173108591493940e-05 0.0000000000000000e+00  1.7018319179631166e-05 -1.9334092769672547e-05 0.0000000000000000e+00  1.8686081391196890e-05 -2.2805268531816740e-05 0.0000000000000000e+00  2.0209416513615880e-05 -2.6529957473357621e-05 0.0000000000000000e+00  2.1764078535149104e-05 -3.0531062900338898e-05 0.0000000000000000e+00  2.3206377553447586e-05 -3.4746669879300179e-05 0.0000000000000000e+00  2.4601337943104724e-05 -3.9226308644039363e-05 0.0000000000000000e+00  2.6010618019979411e-05 -4.3916156557086784e-05 0.0000000000000000e+00  2.7292736952125862e-05 -4.8795672046006230e-05 0.0000000000000000e+00  2.8590512533481831e-05 -5.3903470598119727e-05 0.0000000000000000e+00  2.9768924842624857e-05 -5.9164663007434915e-05 0.0000000000000000e+00  3.0952664225831209e-05 -6.4622730455259788e-05 0.0000000000000000e+00  3.2039609776450602e-05 -7.0217528352693094e-05 0.0000000000000000e+00  3.3103584412165272e-05 -7.5984131229294869e-05 0.0000000000000000e+00  3.4090415409559725e-05 -8.1863805858411413e-05 0.0000000000000000e+00  3.5027462009600040e-05 -8.7885836009075663e-05 0.0000000000000000e+00  3.5950516479892884e-05 -9.4015958750791459e-05 0.0000000000000000e+00  3.6794980472333626e-05 -1.0024298079053625e-04 0.0000000000000000e+00  3.7598083624431349e-05 -1.0659452174949540e-04 0.0000000000000000e+00  3.8344064142603464e-05 -1.1300212696242613e-04 0.0000000000000000e+00  3.9048302816756570e-05 -1.1951749049596101e-04 0.0000000000000000e+00  3.9698723800757541e-05 -1.2607391506392430e-04 0.0000000000000000e+00  4.0308021125342884e-05 -1.3272025647336578e-04 0.0000000000000000e+00  4.0865080939368844e-05 -1.3939160074184141e-04 0.0000000000000000e+00  4.1381697902036613e-05 -1.4613876662176152e-04 0.0000000000000000e+00  4.1847977495098022e-05 -1.5289711556312367e-04 0.0000000000000000e+00  4.2271869809491633e-05 -1.5972076705315141e-04 0.0000000000000000e+00  4.2649222839276556e-05 -1.6654555341709669e-04 0.0000000000000000e+00  4.2985607074707442e-05 -1.7342358195346894e-04 0.0000000000000000e+00  4.3276709810054467e-05 -1.8029539035795245e-04 0.0000000000000000e+00  4.3525956555809829e-05 -1.8721214161338234e-04 0.0000000000000000e+00  4.3729102191461281e-05 -1.9411538777266122e-04 0.0000000000000000e+00  4.3884948108207485e-05 -2.0104778071519474e-04 0.0000000000000000e+00  4.4004597414901377e-05 -2.0797767435899557e-04 0.0000000000000000e+00  4.4078004479165269e-05 -2.1491940034693542e-04 0.0000000000000000e+00  4.4126496437095958e-05 -2.2186367499586979e-04 0.0000000000000000e+00  4.4124556783856575e-05 -2.2879647546987904e-04 0.0000000000000000e+00  4.4125788769062315e-05 -2.3577974321994379e-04 0.0000000000000000e+00  3.9182521973756575e-05 -2.4261631400954934e-04 0.0000000000000000e+00  2.9801389793890106e-05 -2.4192293522308503e-04 0.0000000000000000e+00  2.5350488584882594e-05 -2.3473431371768400e-04 0.0000000000000000e+00  2.5375133165347544e-05 -2.2769613264131172e-04 0.0000000000000000e+00  2.5395272656075248e-05 -2.2063480392129085e-04 0.0000000000000000e+00  2.5370857687248907e-05 -2.1359944748262878e-04 0.0000000000000000e+00  2.5319666757929274e-05 -2.0657051455438925e-04 0.0000000000000000e+00  2.5223524061486270e-05 -1.9955115694926222e-04 0.0000000000000000e+00  2.5099737918435647e-05 -1.9254844943888288e-04 0.0000000000000000e+00  2.4929885986220229e-05 -1.8554098753942081e-04 0.0000000000000000e+00  2.4730100724187507e-05 -1.7857360208040901e-04 0.0000000000000000e+00  2.4489650166663457e-05 -1.7159734397320450e-04 0.0000000000000000e+00  2.4224164560944570e-05 -1.6466912674759380e-04 0.0000000000000000e+00  2.3917410699123146e-05 -1.5774007598603671e-04 0.0000000000000000e+00  2.3589803528379560e-05 -1.5086735091676210e-04 0.0000000000000000e+00  2.3219844892418725e-05 -1.4400534467870352e-04 0.0000000000000000e+00  2.2835436454126259e-05 -1.3720954475987063e-04 0.0000000000000000e+00  2.2405471193630954e-05 -1.3043641230758472e-04 0.0000000000000000e+00  2.1967423600732289e-05 -1.2374189895335275e-04 0.0000000000000000e+00  2.1480666713424806e-05 -1.1708412667760296e-04 0.0000000000000000e+00  2.0992222982872125e-05 -1.1052046981654566e-04 0.0000000000000000e+00  2.0451146704267391e-05 -1.0401167933221694e-04 0.0000000000000000e+00  1.9916633602632201e-05 -9.7614160572172398e-05 0.0000000000000000e+00  1.9323856289906678e-05 -9.1291249828527309e-05 0.0000000000000000e+00  1.8737190274904336e-05 -8.5091970983133282e-05 0.0000000000000000e+00  1.8103086085600663e-05 -7.8992056573276342e-05 0.0000000000000000e+00  1.7439737479663058e-05 -7.3041367028897489e-05 0.0000000000000000e+00  1.6795266706893798e-05 -6.7203440961338055e-05 0.0000000000000000e+00  1.6096762565087589e-05 -6.1517998568322649e-05 0.0000000000000000e+00  1.5396022409129046e-05 -5.6006229446097252e-05 0.0000000000000000e+00  1.4655270920923990e-05 -5.0649957680010471e-05 0.0000000000000000e+00  1.3911877570793697e-05 -4.5496193816439466e-05 0.0000000000000000e+00  1.3128797970625572e-05 -4.0513799168713753e-05 0.0000000000000000e+00  1.2363389041219792e-05 -3.5779722861955512e-05 0.0000000000000000e+00  1.1534588605264701e-05 -3.1224690126257469e-05 0.0000000000000000e+00  1.0683136141377778e-05 -2.6950032047023551e-05 0.0000000000000000e+00  9.8786796023025689e-06 -2.2875656672877025e-05 0.0000000000000000e+00  9.0174493578859893e-06 -1.9088121181046664e-05 0.0000000000000000e+00  8.1688866113605011e-06 -1.5584538204668476e-05 0.0000000000000000e+00  7.2824720487267445e-06 -1.2352811732994215e-05 0.0000000000000000e+00  6.4400834642064318e-06 -9.4636464042230226e-06 0.0000000000000000e+00  5.5258243874875549e-06 -6.8363708176812015e-06 0.0000000000000000e+00  4.6029694948131714e-06 -4.5901569190571152e-06 0.0000000000000000e+00  3.7620936735295698e-06 -2.6198181042011393e-06 0.0000000000000000e+00  2.8643801627346087e-06 -1.0102869310474419e-06 0.0000000000000000e+00  2.0554649154927715e-06 2.3718338564909562e-07 0.0000000000000000e+00  1.2323289228882876e-06 1.0716357718952934e-06 0.0000000000000000e+00  5.9255839856665934e-07 1.4423318690104782e-06 0.0000000000000000e+00  1.3435552317388508e-06 -3.4724812647892092e-07 0.0000000000000000e+00  3.4713724187829378e-05 -2.3173472076183958e-04 0.0000000000000000e+00  3.4884163808722737e-05 -2.1836421575799385e-04 0.0000000000000000e+00  3.4533825154250852e-05 -1.9656606468813534e-04 0.0000000000000000e+00  4.0799759797340194e-06 -2.0760907681465963e-06 0.0000000000000000e+00  3.4056645904191413e-05 -1.8289192320360563e-04 0.0000000000000000e+00  6.6062643403562176e-06 -5.0959722075185109e-06 0.0000000000000000e+00  3.3529397469859980e-05 -1.6903972269283657e-04 0.0000000000000000e+00  1.0664835775619436e-05 -1.2675595790142407e-05 0.0000000000000000e+00  1.3179248925553081e-05 -1.8987248655597946e-05 0.0000000000000000e+00  3.2849422808472665e-05 -1.5528026556524527e-04 0.0000000000000000e+00  1.8940553650751633e-05 -3.9864495963292933e-05 0.0000000000000000e+00  3.1038287925546208e-05 -1.2819699731346509e-04 0.0000000000000000e+00  1.5432673528572088e-05 -2.6165646820954038e-05 0.0000000000000000e+00  2.1059452620537902e-05 -4.9563893870767057e-05 0.0000000000000000e+00  2.9909867203467386e-05 -1.1497303467483085e-04 0.0000000000000000e+00  3.2018579415894202e-05 -1.4165074011622756e-04 0.0000000000000000e+00  2.3001477771672318e-05 -6.0197205172481665e-05 0.0000000000000000e+00  2.8632880017808319e-05 -1.0204449984418961e-04 0.0000000000000000e+00  2.4630483311560518e-05 -7.1006288436608302e-05 0.0000000000000000e+00  2.7349724014669197e-05 -8.9755391750933041e-05 0.0000000000000000e+00  2.5963164334443709e-05 -7.9875528949062383e-05 0.0000000000000000e+00  1.7222171650886205e-05 -3.2493640956968038e-05 0.0000000000000000e+00  3.4579663909787276e-05 -2.0787934798986555e-04 0.0000000000000000e+00  8.6024635136678638e-06 -8.4182357776294063e-06 0.0000000000000000e+00  3.1540279003310987e-05 -2.2480462349853543e-04 0.0000000000000000e+00  2.2879096769771454e-06 -3.1991868600979850e-07 0.0000000000000000e+00  3.1120941928016345e-05 -1.7570040301306516e-04 0.0000000000000000e+00  3.1558735788766590e-05 -1.8960856933792879e-04 0.0000000000000000e+00  6.1445309219695953e-06 -4.2159439668910187e-06 0.0000000000000000e+00  1.3172209062359867e-05 -1.6211835464799276e-05 0.0000000000000000e+00  2.8936761370666419e-05 -1.3457904953850696e-04 0.0000000000000000e+00  3.0536270536348796e-05 -1.6186861550860382e-04 0.0000000000000000e+00  2.1948610433082856e-05 -4.5028671290549240e-05 0.0000000000000000e+00  2.7928602460016114e-05 -1.2121205367019581e-04 0.0000000000000000e+00  1.5849396884932468e-05 -2.3177187992838492e-05 0.0000000000000000e+00  2.4105205591900123e-05 -5.5275096039196244e-05 0.0000000000000000e+00  2.6784267025342599e-05 -1.0810666389212491e-04 0.0000000000000000e+00  2.9806966002445972e-05 -1.4814745279184880e-04 0.0000000000000000e+00  2.6575056915182971e-05 -6.6266976790477461e-05 0.0000000000000000e+00  2.5505115301541915e-05 -9.5332997269049799e-05 0.0000000000000000e+00  5.0834690003951763e-07 -5.0295188167682679e-07 0.0000000000000000e+00  3.3980824409344315e-07 3.4666596003436299e-07 0.0000000000000000e+00  3.6787887674488289e-05 -2.3737248770503360e-04 0.0000000000000000e+00  3.1897836750673956e-06 -1.8664648954553870e-06 0.0000000000000000e+00  2.37083