<?xml version="1.0"?>
<VTKFile type="UnstructuredGrid"  version="0.1"  >
<UnstructuredGrid>
<Piece  NumberOfPoints="1419" NumberOfCells="2698">
<Points>
<DataArray  type="Float64"  NumberOfComponents="3"  format="ascii">0 0 0  0 0.41 0  2.5 0 0  2.5 0.41 0  0.6 0.19 0  0.6 0.21 0  0.25 0.2 0  0.15 0.2 0  0.2489897948556636 0.21 0  0.2489897948556636 0.19 0  0.6 0.2 0  0 0.3807142857143437 0  0 0.3514285714286952 0  0 0.3221428571430699 0  0 0.29285714285744 0  0 0.2635714285718054 0  0 0.2342857142861561 0  0 0.2050000000005308 0  0 0.175714285714732 0  0 0.1464285714289574 0  0 0.1171428571431897 0  0 0.08785714285737878 0  0 0.05857142857161107 0  0 0.02928571428580012 0  0.03015443760436003 0 0  0.06140001986583606 0 0  0.09377624077125973 0 0  0.1273239957535082 0 0  0.1620856860351972 0 0  0.1981052433264291 0 0  0.235428184091502 0 0  0.2741016576309132 0 0  0.3141745521465447 0 0  0.3556974926295285 0 0  0.3987229542472677 0 0  0.4433053055141081 0 0  0.4895008759286886 0 0  0.5373680609405097 0 0  0.5869673343216626 0 0  0.6383613676634521 0 0  0.6916151138468254 0 0  0.7467958595648856 0 0  0.8039733463919316 0 0  0.8632198139502143 0 0  0.9246101326867038 0 0  0.9882218810934433 0 0  1.054135445558498 0 0  1.122434100542598 0 0  1.193204177141305 0 0  1.266535089879536 0 0  1.342519516046404 0 0  1.421253448503939 0 0  1.502836389106271 0 0  1.587371439758838 0 0  1.674965418777374 0 0  1.765729001825544 0 0  1.859776908880082 0 0  1.957227977487062 0 0  2.058205329869943 0 0  2.162836591189951 0 0  2.271253957290865 0 0  2.383594446803425 0 0  2.5 0.1024999999997612 0  2.5 0.2049999999994743 0  2.5 0.3074999999997183 0  2.383594446803656 0.41 0  2.271253957291315 0.41 0  2.162836591190598 0.41 0  2.058205329870775 0.41 0  1.957227977488067 0.41 0  1.859776908881246 0.41 0  1.765729001826854 0.41 0  1.674965418778818 0.41 0  1.58737143976041 0.41 0  1.502836389107956 0.41 0  1.421253448505726 0.41 0  1.342519516048286 0.41 0  1.266535089881505 0.41 0  1.193204177143353 0.41 0  1.122434100544716 0.41 0  1.05413544556068 0.41 0  0.9882218810956305 0.41 0  0.9246101326886647 0.41 0  0.8632198139519631 0.41 0  0.8039733463934788 0.41 0  0.7467958595662458 0.41 0  0.6916151138480078 0.41 0  0.6383613676644679 0.41 0  0.5869673343225223 0.41 0  0.5373680609412221 0.41 0  0.4895008759292634 0.41 0  0.4433053055145528 0.41 0  0.3987229542475914 0.41 0  0.3556974926297398 0.41 0  0.3141745521466497 0.41 0  0.2741016576310038 0.41 0  0.2354281840915826 0.41 0  0.1981052433265003 0.41 0  0.1620856860352591 0.41 0  0.1273239957535623 0.41 0  0.09377624077128965 0.41 0  0.06140001986584975 0.41 0  0.03015443760436654 0.41 0  0.2497468076502589 0.2050254481002335 0  0.2497468076502614 0.1949745518997913 0  0.2469965252529372 0.1829317073451959 0  0.2439893735792749 0.1762316384219906 0  0.2400332147834255 0.1700443375285386 0  0.2352133972704371 0.1645032867342007 0  0.2296339016332438 0.1597280261969788 0  0.2234150974217223 0.1558215752574715 0  0.2166911463437691 0.1528682099456123 0  0.2096071079204251 0.1509316448471593 0  0.2023158100364996 0.1500536585536553 0  0.194974551899914 0.1502531923497262 0  0.1877417105387872 0.1515259415822739 0  0.1807733240461124 0.153844448527136 0  0.1742197252835808 0.15715869474974 0  0.1682222986673531 0.1613971801805478 0  0.162910430003803 0.1664684656256651 0  0.1583987151779087 0.1722631454351573 0  0.1547844879126891 0.178656207771761 0  0.1521457199348551 0.1855097315605723 0  0.1505393388476355 0.1926758619366523 0  0.1505393388476328 0.2073241380633295 0  0.1521457199348437 0.2144902684393899 0  0.1547844879126531 0.221343792228163 0  0.1583987151778488 0.2277368545647528 0  0.1629104300036858 0.2335315343742052 0  0.1682222986671726 0.2386028198193036 0  0.1742197252833576 0.2428413052501257 0  0.1807733240458683 0.2461555514727623 0  0.1877417105384929 0.2484740584176516 0  0.1949745518995776 0.2497468076502398 0  0.202315810036185 0.2499463414463592 0  0.2096071079201568 0.2490683551528932 0  0.2166911463435495 0.2471317900544655 0  0.2234150974215506 0.2441784247426195 0  0.2296339016331197 0.2402719738031125 0  0.2352133972703547 0.2354967132658811 0  0.2400332147833751 0.2299556624715287 0  0.2439893735792577 0.2237683615780412 0  0.246996525252926 0.2170682926548348 0  0.25645809709277 0.21 0  0.2639263993298655 0.21 0  0.271394701566961 0.21 0  0.2788630038040554 0.21 0  0.2863313060411479 0.21 0  0.2937996082782405 0.21 0  0.301267910515333 0.21 0  0.3087362127524279 0.21 0  0.3162045149895234 0.21 0  0.3236728172265972 0.21 0  0.3311411194636928 0.21 0  0.3386094217007701 0.21 0  0.3460777239378666 0.21 0  0.3535460261749672 0.21 0  0.3610143284120516 0.21 0  0.3684826306491596 0.21 0  0.3759509328862226 0.21 0  0.383419235123329 0.21 0  0.3908875373604028 0.21 0  0.3983558395975142 0.21 0  0.4058241418345938 0.21 0  0.4132924440716992 0.21 0  0.4207607463087888 0.21 0  0.4282290485459029 0.21 0  0.4356973507830418 0.21 0  0.4431656530201649 0.21 0  0.4506339552573136 0.21 0  0.4581022574944306 0.21 0  0.4655705597315852 0.21 0  0.4730388619686996 0.21 0  0.480507164205851 0.21 0  0.4879754664429498 0.21 0  0.4954437686800938 0.21 0  0.502912070917267 0.21 0  0.5103803731544119 0.21 0  0.5178486753915261 0.21 0  0.5253169776286404 0.21 0  0.5327852798657868 0.21 0  0.5402535821029386 0.21 0  0.54772188434007 0.21 0  0.5551901865771842 0.21 0  0.5626584888143201 0.21 0  0.5701267910514778 0.21 0  0.5775950932886138 0.21 0  0.5850633955257281 0.21 0  0.5925316977628483 0.21 0  0.6 0.2050000000000054 0  0.6 0.1950000000000217 0  0.5925316977628897 0.19 0  0.5850633955257988 0.19 0  0.5775950932887378 0.19 0  0.5701267910515998 0.19 0  0.5626584888145268 0.19 0  0.5551901865773963 0.19 0  0.547721884340339 0.19 0  0.5402535821032429 0.19 0  0.5327852798661811 0.19 0  0.5253169776290537 0.19 0  0.5178486753919799 0.19 0  0.5103803731549078 0.19 0  0.502912070917822 0.19 0  0.4954437686807294 0.19 0  0.4879754664436223 0.19 0  0.4805071642065402 0.19 0  0.4730388619694271 0.19 0  0.4655705597323621 0.19 0  0.4581022574952563 0.19 0  0.4506339552581777 0.19 0  0.4431656530210671 0.19 0  0.4356973507839815 0.19 0  0.4282290485468779 0.19 0  0.4207607463097617 0.19 0  0.4132924440726327 0.19 0  0.4058241418354857 0.19 0  0.3983558395983636 0.19 0  0.3908875373612097 0.19 0  0.3834192351240934 0.19 0  0.3759509328869369 0.19 0  0.3684826306498175 0.19 0  0.361014328412667 0.19 0  0.3535460261755617 0.19 0  0.3460777239384295 0.19 0  0.3386094217012945 0.19 0  0.3311411194641595 0.19 0  0.3236728172270245 0.19 0  0.3162045149898895 0.19 0  0.3087362127527544 0.19 0  0.3012679105156187 0.19 0  0.2937996082784807 0.19 0  0.2863313060413428 0.19 0  0.2788630038042048 0.19 0  0.2713947015670686 0.19 0  0.2639263993299336 0.19 0  0.2564580970927985 0.19 0  0.2607803159922026 0.2000727136295815 0  0.5887803774232762 0.2001272386983733 0  0.5745072403740523 0.2002044435018727 0  0.5511891430099709 0.2001122610077113 0  0.2751288526855082 0.20000000000002 0  0.5365194309847112 0.1999999999999436 0  0.2894621222999649 0.1998691686390484 0  0.5215828265105155 0.1999999999999228 0  0.3127789816668748 0.1998657885438805 0  0.3274069683451451 0.2000000000000796 0  0.5066462220363641 0.199999999999908 0  0.3650630746574081 0.199866017807523 0  0.476773013087985 0.1999999999998713 0  0.3417402379596385 0.1998691686391011 0  0.3796850840047755 0.200000000000134 0  0.4618364086138087 0.1999999999998546 0  0.4917096175621762 0.1999999999998808 0  0.3946216884789568 0.2000000000001512 0  0.446899804139621 0.1999999999998389 0  0.4089549580935208 0.1998691686391595 0  0.4322718174608562 0.200127451265745 0  0.4201487168029707 0.1999966199048527 0  0.3528922713220932 0.2000185703532356 0  0.5633122436674589 0.1999814296467508 0  0.3006558810093873 0.1999966199048318 0  0.5815926498168407 0.1966545283159175 0  0.2677053789419034 0.1964246479135325 0  0.5290511287476175 0.1970915826863981 0  0.5439877332217911 0.197091582686394 0  0.2825131256993216 0.2035478995978015 0  0.3199386661080599 0.202908417313604 0  0.4842413153250809 0.1970915826863873 0  0.5141145242734466 0.1970915826863843 0  0.3722167817676917 0.2029084173136195 0  0.4693047108508938 0.1970915826863783 0  0.3348752705822316 0.202908417313609 0  0.3871533862418661 0.2029084173136212 0  0.4543681063767183 0.1970915826863795 0  0.4991779197992749 0.1970915826863902 0  0.4020059614928624 0.203547899597858 0  0.4394315019025246 0.1970915826863714 0  0.2550657455369551 0.2034088125358657 0  0.2548908499171161 0.1966940311614271 0  0.5946539510196798 0.2024302972968126 0  0.267698176732111 0.2039977513680092 0  0.4261685417851465 0.196409292431739 0  0.3590076176283495 0.196411355804271 0  0.5571672426447437 0.2036011176410121 0  0.3066757059912147 0.1964092924317024 0  0.594380730180568 0.1966558399668133 0  0.4842413153245942 0.2040749161535287 0  0.4693047108503577 0.2040749161535231 0  0.3871533862424271 0.1959250838464788 0  0.372246743208829 0.1959123236376545 0  0.5141145242731028 0.2040749161535395 0  0.4543681063761134 0.2040749161535186 0  0.4019979587101454 0.1959834479682427 0  0.4394608940728603 0.2040870543693135 0  0.5439623148931173 0.2040856076781014 0  0.5290511287473298 0.2040749161535501 0  0.4991779197988497 0.2040749161535382 0  0.3347912413592433 0.1959225448935183 0  0.3199680582793816 0.1959123018030061 0  0.2825051229162361 0.1959834479681729 0  0.3590471196690275 0.2036304442587945 0  0.5571594006495384 0.1963685282145804 0  0.3067669986803285 0.203627750582736 0  0.4262598344738712 0.2036568242185335 0  0.5814408164431408 0.2041285596160068 0  0.5688286748170428 0.1961819304477386 0  0.4145905603063645 0.2038180695522843 0  0.3473758401724931 0.2038180695522752 0  0.2950977245128307 0.2038180695522663 0  0.5688286748170693 0.203818069552238 0  0.2950977245127906 0.1961819304477774 0  0.3473758401723931 0.1961819304478349 0  0.4145905603061963 0.1961819304479011 0  0.2601812407614425 0.2056861609747042
[...]
<PointData  Vectors="f_46-2"> 
<DataArray  type="Float64"  Name="f_46-2"  NumberOfComponents="3" format="ascii">0.0000000000000000e+00 0.0000000000000000e+00 0.0000000000000000e+00  0.0000000000000000e+00 0.0000000000000000e+00 0.0000000000000000e+00  0.0000000000000000e+00 0.0000000000000000e+00 0.0000000000000000e+00  0.0000000000000000e+00 0.0000000000000000e+00 0.0000000000000000e+00  2.4893743350011086e-05 -2.3684400668068438e-04 0.0000000000000000e+00  4.3321510544314054e-05 -2.3835735002336183e-04 0.0000000000000000e+00  0.0000000000000000e+00 0.0000000000000000e+00 0.0000000000000000e+00  0.0000000000000000e+00 0.0000000000000000e+00 0.0000000000000000e+00  0.0000000000000000e+00 0.0000000000000000e+00 0.0000000000000000e+00  0.0000000000000000e+00 0.0000000000000000e+00 0.0000000000000000e+00  3.3715593206738225e-05 -2.3760268759300172e-04 0.0000000000000000e+00  0.0000000000000000e+00 0.0000000000000000e+00 0.0000000000000000e+00  0.0000000000000000e+00 0.0000000000000000e+00 0.0000000000000000e+00  0.0000000000000000e+00 0.0000000000000000e+00 0.0000000000000000e+00  0.0000000000000000e+00 0.0000000000000000e+00 0.0000000000000000e+00  0.0000000000000000e+00 0.0000000000000000e+00 0.0000000000000000e+00  0.0000000000000000e+00 0.0000000000000000e+00 0.0000000000000000e+00  0.0000000000000000e+00 0.0000000000000000e+00 0.0000000000000000e+00  0.0000000000000000e+00 0.0000000000000000e+00 0.0000000000000000e+00  0.0000000000000000e+00 0.0000000000000000e+00 0.0000000000000000e+00  0.0000000000000000e+00 0.0000000000000000e+00 0.0000000000000000e+00  0.0000000000000000e+00 0.0000000000000000e+00 0.0000000000000000e+00  0.0000000000000000e+00 0.0000000000000000e+00 0.0000000000000000e+00  0.0000000000000000e+00 0.0000000000000000e+00 0.0000000000000000e+00  0.0000000000000000e+00 0.0000000000000000e+00 0.0000000000000000e+00  0.0000000000000000e+00 0.0000000000000000e+00 0.0000000000000000e+00  0.0000000000000000e+00 0.0000000000000000e+00 0.0000000000000000e+00  0.0000000000000000e+00 0.0000000000000000e+00 0.0000000000000000e+00  0.0000000000000000e+00 0.0000000000000000e+00 0.0000000000000000e+00  0.0000000000000000e+00 0.0000000000000000e+00 0.0000000000000000e+00  0.0000000000000000e+00 0.0000000000000000e+00 0.0000000000000000e+00  0.0000000000000000e+00 0.0000000000000000e+00 0.0000000000000000e+00  0.0000000000000000e+00 0.0000000000000000e+00 0.0000000000000000e+00  0.0000000000000000e+00 0.0000000000000000e+00 0.0000000000000000e+00  0.0000000000000000e+00 0.0000000000000000e+00 0.0000000000000000e+00  -1.3305239396584310e-12 0.0000000000000000e+00 0.0000000000000000e+00  0.0000000000000000e+00 0.0000000000000000e+00 0.0000000000000000e+00  0.0000000000000000e+00 0.0000000000000000e+00 0.0000000000000000e+00  0.0000000000000000e+00 0.0000000000000000e+00 0.0000000000000000e+00  0.0000000000000000e+00 0.0000000000000000e+00 0.0000000000000000e+00  0.0000000000000000e+00 0.0000000000000000e+00 0.0000000000000000e+00  0.0000000000000000e+00 0.0000000000000000e+00 0.0000000000000000e+00  0.0000000000000000e+00 0.0000000000000000e+00 0.0000000000000000e+00  0.0000000000000000e+00 0.0000000000000000e+00 0.0000000000000000e+00  0.0000000000000000e+00 0.0000000000000000e+00 0.0000000000000000e+00  0.0000000000000000e+00 0.0000000000000000e+00 0.0000000000000000e+00  0.0000000000000000e+00 0.0000000000000000e+00 0.0000000000000000e+00  0.0000000000000000e+00 0.0000000000000000e+00 0.0000000000000000e+00  0.0000000000000000e+00 0.0000000000000000e+00 0.0000000000000000e+00  0.0000000000000000e+00 0.0000000000000000e+00 0.0000000000000000e+00  0.0000000000000000e+00 0.0000000000000000e+00 0.0000000000000000e+00  0.0000000000000000e+00 0.0000000000000000e+00 0.0000000000000000e+00  0.0000000000000000e+00 0.0000000000000000e+00 0.0000000000000000e+00  0.0000000000000000e+00 0.0000000000000000e+00 0.0000000000000000e+00  0.0000000000000000e+00 0.0000000000000000e+00 0.0000000000000000e+00  0.0000000000000000e+00 0.0000000000000000e+00 0.0000000000000000e+00  0.0000000000000000e+00 0.0000000000000000e+00 0.0000000000000000e+00  0.0000000000000000e+00 0.0000000000000000e+00 0.0000000000000000e+00  0.0000000000000000e+00 0.0000000000000000e+00 0.0000000000000000e+00  0.0000000000000000e+00 0.0000000000000000e+00 0.0000000000000000e+00  0.0000000000000000e+00 0.0000000000000000e+00 0.0000000000000000e+00  0.0000000000000000e+00 0.0000000000000000e+00 0.0000000000000000e+00  0.0000000000000000e+00 0.0000000000000000e+00 0.0000000000000000e+00  0.0000000000000000e+00 0.0000000000000000e+00 0.0000000000000000e+00  0.0000000000000000e+00 0.0000000000000000e+00 0.0000000000000000e+00  0.0000000000000000e+00 0.0000000000000000e+00 0.0000000000000000e+00  0.0000000000000000e+00 0.0000000000000000e+00 0.0000000000000000e+00  0.0000000000000000e+00 0.0000000000000000e+00 0.0000000000000000e+00  0.0000000000000000e+00 0.0000000000000000e+00 0.0000000000000000e+00  0.0000000000000000e+00 0.0000000000000000e+00 0.0000000000000000e+00  0.0000000000000000e+00 0.0000000000000000e+00 0.0000000000000000e+00  0.0000000000000000e+00 0.0000000000000000e+00 0.0000000000000000e+00  0.0000000000000000e+00 0.0000000000000000e+00 0.0000000000000000e+00  0.0000000000000000e+00 0.0000000000000000e+00 0.0000000000000000e+00  0.0000000000000000e+00 0.0000000000000000e+00 0.0000000000000000e+00  0.0000000000000000e+00 0.0000000000000000e+00 0.0000000000000000e+00  0.0000000000000000e+00 0.0000000000000000e+00 0.0000000000000000e+00  0.0000000000000000e+00 0.0000000000000000e+00 0.0000000000000000e+00  0.0000000000000000e+00 0.0000000000000000e+00 0.0000000000000000e+00  0.0000000000000000e+00 0.0000000000000000e+00 0.0000000000000000e+00  0.0000000000000000e+00 0.0000000000000000e+00 0.0000000000000000e+00  0.0000000000000000e+00 0.0000000000000000e+00 0.0000000000000000e+00  0.0000000000000000e+00 0.0000000000000000e+00 0.0000000000000000e+00  0.0000000000000000e+00 0.0000000000000000e+00 0.0000000000000000e+00  0.0000000000000000e+00 0.0000000000000000e+00 0.0000000000000000e+00  0.0000000000000000e+00 0.0000000000000000e+00 0.0000000000000000e+00  0.0000000000000000e+00 0.0000000000000000e+00 0.0000000000000000e+00  0.0000000000000000e+00 0.0000000000000000e+00 0.0000000000000000e+00  2.0757643538797533e-13 0.0000000000000000e+00 0.0000000000000000e+00  0.0000000000000000e+00 0.0000000000000000e+00 0.0000000000000000e+00  0.0000000000000000e+00 0.0000000000000000e+00 0.0000000000000000e+00  0.0000000000000000e+00 0.0000000000000000e+00 0.0000000000000000e+00  0.0000000000000000e+00 0.0000000000000000e+00 0.0000000000000000e+00  0.0000000000000000e+00 0.0000000000000000e+00 0.0000000000000000e+00  -2.6226476913807928e-12 -1.8171884503383761e-17 0.0000000000000000e+00  0.0000000000000000e+00 0.0000000000000000e+00 0.0000000000000000e+00  0.0000000000000000e+00 0.0000000000000000e+00 0.0000000000000000e+00  0.0000000000000000e+00 0.0000000000000000e+00 0.0000000000000000e+00  0.0000000000000000e+00 0.0000000000000000e+00 0.0000000000000000e+00  0.0000000000000000e+00 0.0000000000000000e+00 0.0000000000000000e+00  0.0000000000000000e+00 0.0000000000000000e+00 0.0000000000000000e+00  0.0000000000000000e+00 0.0000000000000000e+00 0.0000000000000000e+00  0.0000000000000000e+00 0.0000000000000000e+00 0.0000000000000000e+00  0.0000000000000000e+00 0.0000000000000000e+00 0.0000000000000000e+00  0.0000000000000000e+00 0.0000000000000000e+00 0.0000000000000000e+00  -5.2547045575924758e-13 2.6476937305606703e-13 0.0000000000000000e+00  0.0000000000000000e+00 0.0000000000000000e+00 0.0000000000000000e+00  0.0000000000000000e+00 0.0000000000000000e+00 0.0000000000000000e+00  0.0000000000000000e+00 0.0000000000000000e+00 0.0000000000000000e+00  0.0000000000000000e+00 0.0000000000000000e+00 0.0000000000000000e+00  -2.2636701018284407e-14 -6.0023173943575932e-16 0.0000000000000000e+00  0.0000000000000000e+00 0.0000000000000000e+00 0.0000000000000000e+00  0.0000000000000000e+00 0.0000000000000000e+00 0.0000000000000000e+00  0.0000000000000000e+00 0.0000000000000000e+00 0.0000000000000000e+00  0.0000000000000000e+00 0.0000000000000000e+00 0.0000000000000000e+00  0.0000000000000000e+00 0.0000000000000000e+00 0.0000000000000000e+00  0.0000000000000000e+00 0.0000000000000000e+00 0.0000000000000000e+00  0.0000000000000000e+00 0.0000000000000000e+00 0.0000000000000000e+00  0.0000000000000000e+00 0.0000000000000000e+00 0.0000000000000000e+00  0.0000000000000000e+00 0.0000000000000000e+00 0.0000000000000000e+00  0.0000000000000000e+00 0.0000000000000000e+00 0.0000000000000000e+00  0.0000000000000000e+00 0.0000000000000000e+00 0.0000000000000000e+00  0.0000000000000000e+00 0.0000000000000000e+00 0.0000000000000000e+00  0.0000000000000000e+00 0.0000000000000000e+00 0.0000000000000000e+00  0.0000000000000000e+00 0.0000000000000000e+00 0.0000000000000000e+00  0.0000000000000000e+00 0.0000000000000000e+00 0.0000000000000000e+00  0.0000000000000000e+00 0.0000000000000000e+00 0.0000000000000000e+00  0.0000000000000000e+00 0.0000000000000000e+00 0.0000000000000000e+00  0.0000000000000000e+00 0.0000000000000000e+00 0.0000000000000000e+00  0.0000000000000000e+00 0.0000000000000000e+00 0.0000000000000000e+00  0.0000000000000000e+00 0.0000000000000000e+00 0.0000000000000000e+00  0.0000000000000000e+00 0.0000000000000000e+00 0.0000000000000000e+00  0.0000000000000000e+00 0.0000000000000000e+00 0.0000000000000000e+00  0.0000000000000000e+00 0.0000000000000000e+00 0.0000000000000000e+00  0.0000000000000000e+00 0.0000000000000000e+00 0.0000000000000000e+00  0.0000000000000000e+00 0.0000000000000000e+00 0.0000000000000000e+00  0.0000000000000000e+00 0.0000000000000000e+00 0.0000000000000000e+00  0.0000000000000000e+00 0.0000000000000000e+00 0.0000000000000000e+00  0.0000000000000000e+00 0.0000000000000000e+00 0.0000000000000000e+00  0.0000000000000000e+00 0.0000000000000000e+00 0.0000000000000000e+00  0.0000000000000000e+00 0.0000000000000000e+00 0.0000000000000000e+00  0.0000000000000000e+00 0.0000000000000000e+00 0.0000000000000000e+00  5.4164014560392629e-12 -5.6454025673919563e-13 0.0000000000000000e+00  1.4574463216733774e-06 -2.1865874142965727e-06 0.0000000000000000e+00  3.0922710263094357e-06 -2.8433888164433492e-06 0.0000000000000000e+00  4.8046012886990412e-06 -3.7498019505979931e-06 0.0000000000000000e+00  6.6196377432876019e-06 -4.9733780420327686e-06 0.0000000000000000e+00  8.3725695972378662e-06 -6.5235880726259519e-06 0.0000000000000000e+00  1.0186405400798279e-05 -8.4459024207727191e-06 0.0000000000000000e+00  1.1894019558816236e-05 -1.0633998418118371e-05 0.0000000000000000e+00  1.3576063342299032e-05 -1.3179860545176396e-05 0.0000000000000000e+00  1.5309367027740847e-05 -1.6003817853921237e-05 0.0000000000000000e+00  1.6901688637161549e-05 -1.9106046497806090e-05 0.0000000000000000e+00  1.8553800012467500e-05 -2.2513116238450962e-05 0.0000000000000000e+00  2.0062806763075994e-05 -2.6167628413838346e-05 0.0000000000000000e+00  2.1600690700033914e-05 -3.0093407576226886e-05 0.0000000000000000e+00  2.3027355809955404e-05 -3.4229255578834816e-05 0.0000000000000000e+00  2.4405916820395946e-05 -3.8623384784040831e-05 0.0000000000000000e+00  2.5797349386643271e-05 -4.3223639552967920e-05 0.0000000000000000e+00  2.7062687512270611e-05 -4.8008761493665249e-05 0.0000000000000000e+00  2.8341884343357179e-05 -5.3018186891807009e-05 0.0000000000000000e+00  2.9502932541905804e-05 -5.8176643391013277e-05 0.0000000000000000e+00  3.0667853386048991e-05 -6.3528632268329305e-05 0.0000000000000000e+00  3.1736711018098242e-05 -6.9013391844590288e-05 0.0000000000000000e+00  3.2781518949981298e-05 -7.4666712293042345e-05 0.0000000000000000e+00  3.3749933323718988e-05 -8.0430612595801981e-05 0.0000000000000000e+00  3.4668154438017280e-05 -8.6333536434572017e-05 0.0000000000000000e+00  3.5571704626852975e-05 -9.2342590771881154e-05 0.0000000000000000e+00  3.6396837234816674e-05 -9.8445758655043487e-05 0.0000000000000000e+00  3.7180144406453585e-05 -1.0467172797061771e-04 0.0000000000000000e+00  3.7906302961115951e-05 -1.1095166099271491e-04 0.0000000000000000e+00  3.8590276252481687e-05 -1.1733793115832074e-04 0.0000000000000000e+00  3.9220324072433399e-05 -1.2376364694372200e-04 0.0000000000000000e+00  3.9808829367291792e-05 -1.3027819956572861e-04 0.0000000000000000e+00  4.0344873713359432e-05 -1.3681647915667227e-04 0.0000000000000000e+00  4.0840100665922337e-05 -1.4342988471131827e-04 0.0000000000000000e+00  4.1284664781685138e-05 -1.5005340092952724e-04 0.0000000000000000e+00  4.1686359588386194e-05 -1.5674189727915431e-04 0.0000000000000000e+00  4.2041205651655623e-05 -1.6343073147182427e-04 0.0000000000000000e+00  4.2354633918895317e-05 -1.7017264079752925e-04 0.0000000000000000e+00  4.2622388970908108e-05 -1.7690773241424001e-04 0.0000000000000000e+00  4.2847781013762870e-05 -1.8368777066042575e-04 0.0000000000000000e+00  4.3026592783575553e-05 -1.9045387438475008e-04 0.0000000000000000e+00  4.3157531783069423e-05 -1.9724913189944464e-04 0.0000000000000000e+00  4.3251910509183745e-05 -2.0404171737751811e-04 0.0000000000000000e+00  4.3299366313421009e-05 -2.1084613028708358e-04 0.0000000000000000e+00  4.3321592730152111e-05 -2.1765303268378580e-04 0.0000000000000000e+00  4.3292771660422828e-05 -2.2444827906457459e-04 0.0000000000000000e+00  4.3266939907726521e-05 -2.3129443856181943e-04 0.0000000000000000e+00  3.8385815339801147e-05 -2.3797372615716727e-04 0.0000000000000000e+00  2.9187464694858806e-05 -2.3723568369666154e-04 0.0000000000000000e+00  2.4857033224714283e-05 -2.3016265883045174e-04 0.0000000000000000e+00  2.4908845291939772e-05 -2.2326023185353352e-04 0.0000000000000000e+00  2.4955891965947393e-05 -2.1633439097411324e-04 0.0000000000000000e+00  2.4957700564143296e-05 -2.0943470313326135e-04 0.0000000000000000e+00  2.4932362872349717e-05 -2.0254143900073825e-04 0.0000000000000000e+00  2.4861273169145789e-05 -1.9565770823963072e-04 0.0000000000000000e+00  2.4762021796414250e-05 -1.8879062486325528e-04 0.0000000000000000e+00  2.4616048138295114e-05 -1.8191851884978721e-04 0.0000000000000000e+00  2.4439437382739613e-05 -1.7508657023181752e-04 0.0000000000000000e+00  2.4221601594591072e-05 -1.6824518357061468e-04 0.0000000000000000e+00  2.3977933326047813e-05 -1.6145182085635054e-04 0.0000000000000000e+00  2.3692459084948211e-05 -1.5465689212806923e-04 0.0000000000000000e+00  2.3385235491040876e-05 -1.4791809661588877e-04 0.0000000000000000e+00  2.3035196481269584e-05 -1.4118906781618681e-04 0.0000000000000000e+00  2.2669706226478952e-05 -1.3452580313219777e-04 0.0000000000000000e+00  2.2258245795263093e-05 -1.2788395634379817e-04 0.0000000000000000e+00  2.1837550661874922e-05 -1.2131997976711558e-04 0.0000000000000000e+00  2.1367816056803747e-05 -1.1479115619210426e-04 0.0000000000000000e+00  2.0895093221693510e-05 -1.0835537664682036e-04 0.0000000000000000e+00  2.0369536270461303e-05 -1.0197250597347764e-04 0.0000000000000000e+00  1.9849064318229913e-05 -9.5699399378808866e-05 0.0000000000000000e+00  1.9270234732019809e-05 -8.9498494902508788e-05 0.0000000000000000e+00  1.8695849053962364e-05 -8.3419084430490792e-05 0.0000000000000000e+00  1.8073989328538883e-05 -7.7436671799390960e-05 0.0000000000000000e+00  1.7421947982818741e-05 -7.1600259602458947e-05 0.0000000000000000e+00  1.6787446551753955e-05 -6.5874288919584085e-05 0.0000000000000000e+00  1.6098483820027547e-05 -6.0296912161431308e-05 0.0000000000000000e+00  1.5406002927827632e-05 -5.4890234666098346e-05 0.0000000000000000e+00  1.4673025392930664e-05 -4.9634636829849182e-05 0.0000000000000000e+00  1.3936094599976773e-05 -4.4578024187157640e-05 0.0000000000000000e+00  1.3158958353495002e-05 -3.9688059100878166e-05 0.0000000000000000e+00  1.2397559952826155e-05 -3.5041697424516188e-05 0.0000000000000000e+00  1.1573153537426258e-05 -3.0570152670256693e-05 0.0000000000000000e+00  1.0724992776753317e-05 -2.6373216484920671e-05 0.0000000000000000e+00  9.9218976649494941e-06 -2.2372349084797071e-05 0.0000000000000000e+00  9.0615138182086483e-06 -1.8652021247706862e-05 0.0000000000000000e+00  8.2121180312800693e-06 -1.5210677921290109e-05 0.0000000000000000e+00  7.3242249550359584e-06 -1.2034911405155461e-05 0.0000000000000000e+00  6.4779379331861826e-06 -9.1954609863890821e-06 0.0000000000000000e+00  5.5602398721702074e-06 -6.6126822605679126e-06 0.0000000000000000e+00  4.6326626384973506e-06 -4.4038358021408118e-06 0.0000000000000000e+00  3.7847871790169978e-06 -2.4659648290367875e-06 0.0000000000000000e+00  2.8799383141140522e-06 -8.8139870313614064e-07 0.0000000000000000e+00  2.0629549515073703e-06 3.4704060083724053e-07 0.0000000000000000e+00  1.2343249676566217e-06 1.1661082144959148e-06 0.0000000000000000e+00  5.9157160798500593e-07 1.5228606299381181e-06 0.0000000000000000e+00  1.3176312436932124e-06 -3.4333866975121011e-07 0.0000000000000000e+00  3.4047855941161957e-05 -2.2727527987761466e-04 0.0000000000000000e+00  3.4269071601016599e-05 -2.1416605563909035e-04 0.0000000000000000e+00  3.4000130515151102e-05 -1.9279372013656531e-04 0.0000000000000000e+00  4.0629491766380303e-06 -2.0437689996556519e-06 0.0000000000000000e+00  3.3572242805466091e-05 -1.7938672322372976e-04 0.0000000000000000e+00  6.5882921481577421e-06 -5.0114746704206823e-06 0.0000000000000000e+00  3.3090940416916042e-05 -1.6580622401521456e-04 0.0000000000000000e+00  1.0636607793903583e-05 -1.2459128367740620e-05 0.0000000000000000e+00  1.3138250025634501e-05 -1.8659043987827336e-05 0.0000000000000000e+00  3.2454695313198089e-05 -1.5231699845270200e-04 0.0000000000000000e+00  1.8855487843466255e-05 -3.9148710705377774e-05 0.0000000000000000e+00  3.0724474724663232e-05 -1.2576624711885639e-04 0.0000000000000000e+00  1.5378061896722435e-05 -2.5704937645330655e-05 0.0000000000000000e+00  2.0950015483849277e-05 -4.8665683355957740e-05 0.0000000000000000e+00  2.9633291662444443e-05 -1.1280223245628688e-04 0.0000000000000000e+00  3.1665393273473868e-05 -1.3895540339749457e-04 0.0000000000000000e+00  2.2866493923446015e-05 -5.9095255968089148e-05 0.0000000000000000e+00  2.8391443100497842e-05 -1.0012754329732119e-04 0.0000000000000000e+00  2.4470898062039964e-05 -6.9694173632672992e-05 0.0000000000000000e+00  2.7138658200259182e-05 -8.8080252894211767e-05 0.0000000000000000e+00  2.5779350368917583e-05 -7.8392123061163111e-05 0.0000000000000000e+00  1.7152025679560134e-05 -3.1917281318687901e-05 0.0000000000000000e+00  3.4007443872051576e-05 -2.0388483508174070e-04 0.0000000000000000e+00  8.5797633579884929e-06 -8.2779319391571762e-06 0.0000000000000000e+00  3.0964503703485596e-05 -2.2046127867250727e-04 0.0000000000000000e+00  2.2756663121037267e-06 -2.7318019553221418e-07 0.0000000000000000e+00  3.0712589909086836e-05 -1.7231658013489853e-04 0.0000000000000000e+00  3.1103516952530157e-05 -1.8595301051883096e-04 0.0000000000000000e+00  6.1145054185349577e-06 -4.1879985530260731e-06 0.0000000000000000e+00  1.3115387320860047e-05 -1.5964910992346949e-05 0.0000000000000000e+00  2.8654853547820016e-05 -1.3200048177560396e-04 0.0000000000000000e+00  3.0172439137203646e-05 -1.5875537951579087e-04 0.0000000000000000e+00  2.1814836001836600e-05 -4.4245058780225357e-05 0.0000000000000000e+00  2.7684069392447068e-05 -1.1889545057922578e-04 0.0000000000000000e+00  1.5774524376855419e-05 -2.2803200049327921e-05 0.0000000000000000e+00  2.3943872834520322e-05 -5.4295387641084333e-05 0.0000000000000000e+00  2.6574692652823888e-05 -1.0604669110010212e-04 0.0000000000000000e+00  2.9485282457166224e-05 -1.4530294314224059e-04 0.0000000000000000e+00  2.6375151163039643e-05 -6.5080742168181858e-05 0.0000000000000000e+00  2.5328136500113972e-05 -9.3522738891250380e-05 0.0000000000000000e+00  4.8567582031620970e-07 -5.2069335731811221e-07 0.0000000000000000e+00  3.1999546539953985e-07 3.6351058544004427e-07 0.0000000000000000e+00  3.6057828183087834e-05 -2.3281573499639912e-04 0.0000000000000000e+00  3.1629951289242588e-06 -1.8851829406892058e-06 0.0000000000000000e+00  2.3