<?xml version="1.0"?>
<VTKFile type="UnstructuredGrid"  version="0.1"  >
<UnstructuredGrid>
<Piece  NumberOfPoints="1419" NumberOfCells="2698">
<Points>
<DataArray  type="Float64"  NumberOfComponents="3"  format="ascii">0 0 0  0 0.41 0  2.5 0 0  2.5 0.41 0  0.6 0.19 0  0.6 0.21 0  0.25 0.2 0  0.15 0.2 0  0.2489897948556636 0.21 0  0.2489897948556636 0.19 0  0.6 0.2 0  0 0.3807142857143437 0  0 0.3514285714286952 0  0 0.3221428571430699 0  0 0.29285714285744 0  0 0.2635714285718054 0  0 0.2342857142861561 0  0 0.2050000000005308 0  0 0.175714285714732 0  0 0.1464285714289574 0  0 0.1171428571431897 0  0 0.08785714285737878 0  0 0.05857142857161107 0  0 0.02928571428580012 0  0.03015443760436003 0 0  0.06140001986583606 0 0  0.09377624077125973 0 0  0.1273239957535082 0 0  0.1620856860351972 0 0  0.1981052433264291 0 0  0.235428184091502 0 0  0.2741016576309132 0 0  0.3141745521465447 0 0  0.3556974926295285 0 0  0.3987229542472677 0 0  0.4433053055141081 0 0  0.4895008759286886 0 0  0.5373680609405097 0 0  0.5869673343216626 0 0  0.6383613676634521 0 0  0.6916151138468254 0 0  0.7467958595648856 0 0  0.8039733463919316 0 0  0.8632198139502143 0 0  0.9246101326867038 0 0  0.9882218810934433 0 0  1.054135445558498 0 0  1.122434100542598 0 0  1.193204177141305 0 0  1.266535089879536 0 0  1.342519516046404 0 0  1.421253448503939 0 0  1.502836389106271 0 0  1.587371439758838 0 0  1.674965418777374 0 0  1.765729001825544 0 0  1.859776908880082 0 0  1.957227977487062 0 0  2.058205329869943 0 0  2.162836591189951 0 0  2.271253957290865 0 0  2.383594446803425 0 0  2.5 0.1024999999997612 0  2.5 0.2049999999994743 0  2.5 0.3074999999997183 0  2.383594446803656 0.41 0  2.271253957291315 0.41 0  2.162836591190598 0.41 0  2.058205329870775 0.41 0  1.957227977488067 0.41 0  1.859776908881246 0.41 0  1.765729001826854 0.41 0  1.674965418778818 0.41 0  1.58737143976041 0.41 0  1.502836389107956 0.41 0  1.421253448505726 0.41 0  1.342519516048286 0.41 0  1.266535089881505 0.41 0  1.193204177143353 0.41 0  1.122434100544716 0.41 0  1.05413544556068 0.41 0  0.9882218810956305 0.41 0  0.9246101326886647 0.41 0  0.8632198139519631 0.41 0  0.8039733463934788 0.41 0  0.7467958595662458 0.41 0  0.6916151138480078 0.41 0  0.6383613676644679 0.41 0  0.5869673343225223 0.41 0  0.5373680609412221 0.41 0  0.4895008759292634 0.41 0  0.4433053055145528 0.41 0  0.3987229542475914 0.41 0  0.3556974926297398 0.41 0  0.3141745521466497 0.41 0  0.2741016576310038 0.41 0  0.2354281840915826 0.41 0  0.1981052433265003 0.41 0  0.1620856860352591 0.41 0  0.1273239957535623 0.41 0  0.09377624077128965 0.41 0  0.06140001986584975 0.41 0  0.03015443760436654 0.41 0  0.2497468076502589 0.2050254481002335 0  0.2497468076502614 0.1949745518997913 0  0.2469965252529372 0.1829317073451959 0  0.2439893735792749 0.1762316384219906 0  0.2400332147834255 0.1700443375285386 0  0.2352133972704371 0.1645032867342007 0  0.2296339016332438 0.1597280261969788 0  0.2234150974217223 0.1558215752574715 0  0.2166911463437691 0.1528682099456123 0  0.2096071079204251 0.1509316448471593 0  0.2023158100364996 0.1500536585536553 0  0.194974551899914 0.1502531923497262 0  0.1877417105387872 0.1515259415822739 0  0.1807733240461124 0.153844448527136 0  0.1742197252835808 0.15715869474974 0  0.1682222986673531 0.1613971801805478 0  0.162910430003803 0.1664684656256651 0  0.1583987151779087 0.1722631454351573 0  0.1547844879126891 0.178656207771761 0  0.1521457199348551 0.1855097315605723 0  0.1505393388476355 0.1926758619366523 0  0.1505393388476328 0.2073241380633295 0  0.1521457199348437 0.2144902684393899 0  0.1547844879126531 0.221343792228163 0  0.1583987151778488 0.2277368545647528 0  0.1629104300036858 0.2335315343742052 0  0.1682222986671726 0.2386028198193036 0  0.1742197252833576 0.2428413052501257 0  0.1807733240458683 0.2461555514727623 0  0.1877417105384929 0.2484740584176516 0  0.1949745518995776 0.2497468076502398 0  0.202315810036185 0.2499463414463592 0  0.2096071079201568 0.2490683551528932 0  0.2166911463435495 0.2471317900544655 0  0.2234150974215506 0.2441784247426195 0  0.2296339016331197 0.2402719738031125 0  0.2352133972703547 0.2354967132658811 0  0.2400332147833751 0.2299556624715287 0  0.2439893735792577 0.2237683615780412 0  0.246996525252926 0.2170682926548348 0  0.25645809709277 0.21 0  0.2639263993298655 0.21 0  0.271394701566961 0.21 0  0.2788630038040554 0.21 0  0.2863313060411479 0.21 0  0.2937996082782405 0.21 0  0.301267910515333 0.21 0  0.3087362127524279 0.21 0  0.3162045149895234 0.21 0  0.3236728172265972 0.21 0  0.3311411194636928 0.21 0  0.3386094217007701 0.21 0  0.3460777239378666 0.21 0  0.3535460261749672 0.21 0  0.3610143284120516 0.21 0  0.3684826306491596 0.21 0  0.3759509328862226 0.21 0  0.383419235123329 0.21 0  0.3908875373604028 0.21 0  0.3983558395975142 0.21 0  0.4058241418345938 0.21 0  0.4132924440716992 0.21 0  0.4207607463087888 0.21 0  0.4282290485459029 0.21 0  0.4356973507830418 0.21 0  0.4431656530201649 0.21 0  0.4506339552573136 0.21 0  0.4581022574944306 0.21 0  0.4655705597315852 0.21 0  0.4730388619686996 0.21 0  0.480507164205851 0.21 0  0.4879754664429498 0.21 0  0.4954437686800938 0.21 0  0.502912070917267 0.21 0  0.5103803731544119 0.21 0  0.5178486753915261 0.21 0  0.5253169776286404 0.21 0  0.5327852798657868 0.21 0  0.5402535821029386 0.21 0  0.54772188434007 0.21 0  0.5551901865771842 0.21 0  0.5626584888143201 0.21 0  0.5701267910514778 0.21 0  0.5775950932886138 0.21 0  0.5850633955257281 0.21 0  0.5925316977628483 0.21 0  0.6 0.2050000000000054 0  0.6 0.1950000000000217 0  0.5925316977628897 0.19 0  0.5850633955257988 0.19 0  0.5775950932887378 0.19 0  0.5701267910515998 0.19 0  0.5626584888145268 0.19 0  0.5551901865773963 0.19 0  0.547721884340339 0.19 0  0.5402535821032429 0.19 0  0.5327852798661811 0.19 0  0.5253169776290537 0.19 0  0.5178486753919799 0.19 0  0.5103803731549078 0.19 0  0.502912070917822 0.19 0  0.4954437686807294 0.19 0  0.4879754664436223 0.19 0  0.4805071642065402 0.19 0  0.4730388619694271 0.19 0  0.4655705597323621 0.19 0  0.4581022574952563 0.19 0  0.4506339552581777 0.19 0  0.4431656530210671 0.19 0  0.4356973507839815 0.19 0  0.4282290485468779 0.19 0  0.4207607463097617 0.19 0  0.4132924440726327 0.19 0  0.4058241418354857 0.19 0  0.3983558395983636 0.19 0  0.3908875373612097 0.19 0  0.3834192351240934 0.19 0  0.3759509328869369 0.19 0  0.3684826306498175 0.19 0  0.361014328412667 0.19 0  0.3535460261755617 0.19 0  0.3460777239384295 0.19 0  0.3386094217012945 0.19 0  0.3311411194641595 0.19 0  0.3236728172270245 0.19 0  0.3162045149898895 0.19 0  0.3087362127527544 0.19 0  0.3012679105156187 0.19 0  0.2937996082784807 0.19 0  0.2863313060413428 0.19 0  0.2788630038042048 0.19 0  0.2713947015670686 0.19 0  0.2639263993299336 0.19 0  0.2564580970927985 0.19 0  0.2607803159922026 0.2000727136295815 0  0.5887803774232762 0.2001272386983733 0  0.5745072403740523 0.2002044435018727 0  0.5511891430099709 0.2001122610077113 0  0.2751288526855082 0.20000000000002 0  0.5365194309847112 0.1999999999999436 0  0.2894621222999649 0.1998691686390484 0  0.5215828265105155 0.1999999999999228 0  0.3127789816668748 0.1998657885438805 0  0.3274069683451451 0.2000000000000796 0  0.5066462220363641 0.199999999999908 0  0.3650630746574081 0.199866017807523 0  0.476773013087985 0.1999999999998713 0  0.3417402379596385 0.1998691686391011 0  0.3796850840047755 0.200000000000134 0  0.4618364086138087 0.1999999999998546 0  0.4917096175621762 0.1999999999998808 0  0.3946216884789568 0.2000000000001512 0  0.446899804139621 0.1999999999998389 0  0.4089549580935208 0.1998691686391595 0  0.4322718174608562 0.200127451265745 0  0.4201487168029707 0.1999966199048527 0  0.3528922713220932 0.2000185703532356 0  0.5633122436674589 0.1999814296467508 0  0.3006558810093873 0.1999966199048318 0  0.5815926498168407 0.1966545283159175 0  0.2677053789419034 0.1964246479135325 0  0.5290511287476175 0.1970915826863981 0  0.5439877332217911 0.197091582686394 0  0.2825131256993216 0.2035478995978015 0  0.3199386661080599 0.202908417313604 0  0.4842413153250809 0.1970915826863873 0  0.5141145242734466 0.1970915826863843 0  0.3722167817676917 0.2029084173136195 0  0.4693047108508938 0.1970915826863783 0  0.3348752705822316 0.202908417313609 0  0.3871533862418661 0.2029084173136212 0  0.4543681063767183 0.1970915826863795 0  0.4991779197992749 0.1970915826863902 0  0.4020059614928624 0.203547899597858 0  0.4394315019025246 0.1970915826863714 0  0.2550657455369551 0.2034088125358657 0  0.2548908499171161 0.1966940311614271 0  0.5946539510196798 0.2024302972968126 0  0.267698176732111 0.2039977513680092 0  0.4261685417851465 0.196409292431739 0  0.3590076176283495 0.196411355804271 0  0.5571672426447437 0.2036011176410121 0  0.3066757059912147 0.1964092924317024 0  0.594380730180568 0.1966558399668133 0  0.4842413153245942 0.2040749161535287 0  0.4693047108503577 0.2040749161535231 0  0.3871533862424271 0.1959250838464788 0  0.372246743208829 0.1959123236376545 0  0.5141145242731028 0.2040749161535395 0  0.4543681063761134 0.2040749161535186 0  0.4019979587101454 0.1959834479682427 0  0.4394608940728603 0.2040870543693135 0  0.5439623148931173 0.2040856076781014 0  0.5290511287473298 0.2040749161535501 0  0.4991779197988497 0.2040749161535382 0  0.3347912413592433 0.1959225448935183 0  0.3199680582793816 0.1959123018030061 0  0.2825051229162361 0.1959834479681729 0  0.3590471196690275 0.2036304442587945 0  0.5571594006495384 0.1963685282145804 0  0.3067669986803285 0.203627750582736 0  0.4262598344738712 0.2036568242185335 0  0.5814408164431408 0.2041285596160068 0  0.5688286748170428 0.1961819304477386 0  0.4145905603063645 0.2038180695522843 0  0.3473758401724931 0.2038180695522752 0  0.2950977245128307 0.2038180695522663 0  0.5688286748170693 0.203818069552238 0  0.2950977245127906 0.1961819304477774 0  0.3473758401723931 0.1961819304478349 0  0.4145905603061963 0.1961819304479011 0  0.2601812407614425 0.2056861609747042
[...]
<PointData  Vectors="f_46-2"> 
<DataArray  type="Float64"  Name="f_46-2"  NumberOfComponents="3" format="ascii">0.0000000000000000e+00 0.0000000000000000e+00 0.0000000000000000e+00  0.0000000000000000e+00 0.0000000000000000e+00 0.0000000000000000e+00  0.0000000000000000e+00 0.0000000000000000e+00 0.0000000000000000e+00  0.0000000000000000e+00 0.0000000000000000e+00 0.0000000000000000e+00  -1.0049193655570029e-05 -2.2984352257220530e-05 0.0000000000000000e+00  -7.9736150974885493e-06 -2.6014800787449980e-05 0.0000000000000000e+00  0.0000000000000000e+00 2.0182053585245542e-24 0.0000000000000000e+00  0.0000000000000000e+00 0.0000000000000000e+00 0.0000000000000000e+00  0.0000000000000000e+00 0.0000000000000000e+00 0.0000000000000000e+00  0.0000000000000000e+00 0.0000000000000000e+00 0.0000000000000000e+00  -9.2298853257439503e-06 -2.4501094584148993e-05 0.0000000000000000e+00  0.0000000000000000e+00 0.0000000000000000e+00 0.0000000000000000e+00  0.0000000000000000e+00 0.0000000000000000e+00 0.0000000000000000e+00  0.0000000000000000e+00 0.0000000000000000e+00 0.0000000000000000e+00  0.0000000000000000e+00 0.0000000000000000e+00 0.0000000000000000e+00  0.0000000000000000e+00 0.0000000000000000e+00 0.0000000000000000e+00  0.0000000000000000e+00 0.0000000000000000e+00 0.0000000000000000e+00  0.0000000000000000e+00 0.0000000000000000e+00 0.0000000000000000e+00  0.0000000000000000e+00 0.0000000000000000e+00 0.0000000000000000e+00  0.0000000000000000e+00 0.0000000000000000e+00 0.0000000000000000e+00  0.0000000000000000e+00 0.0000000000000000e+00 0.0000000000000000e+00  0.0000000000000000e+00 0.0000000000000000e+00 0.0000000000000000e+00  0.0000000000000000e+00 0.0000000000000000e+00 0.0000000000000000e+00  0.0000000000000000e+00 0.0000000000000000e+00 0.0000000000000000e+00  0.0000000000000000e+00 0.0000000000000000e+00 0.0000000000000000e+00  0.0000000000000000e+00 0.0000000000000000e+00 0.0000000000000000e+00  0.0000000000000000e+00 0.0000000000000000e+00 0.0000000000000000e+00  0.0000000000000000e+00 0.0000000000000000e+00 0.0000000000000000e+00  0.0000000000000000e+00 0.0000000000000000e+00 0.0000000000000000e+00  0.0000000000000000e+00 0.0000000000000000e+00 0.0000000000000000e+00  0.0000000000000000e+00 0.0000000000000000e+00 0.0000000000000000e+00  0.0000000000000000e+00 0.0000000000000000e+00 0.0000000000000000e+00  0.0000000000000000e+00 0.0000000000000000e+00 0.0000000000000000e+00  0.0000000000000000e+00 0.0000000000000000e+00 0.0000000000000000e+00  0.0000000000000000e+00 0.0000000000000000e+00 0.0000000000000000e+00  6.0293557906395271e-14 -3.9163619921281582e-19 0.0000000000000000e+00  0.0000000000000000e+00 0.0000000000000000e+00 0.0000000000000000e+00  0.0000000000000000e+00 0.0000000000000000e+00 0.0000000000000000e+00  0.0000000000000000e+00 0.0000000000000000e+00 0.0000000000000000e+00  0.0000000000000000e+00 0.0000000000000000e+00 0.0000000000000000e+00  0.0000000000000000e+00 0.0000000000000000e+00 0.0000000000000000e+00  0.0000000000000000e+00 0.0000000000000000e+00 0.0000000000000000e+00  0.0000000000000000e+00 0.0000000000000000e+00 0.0000000000000000e+00  0.0000000000000000e+00 0.0000000000000000e+00 0.0000000000000000e+00  0.0000000000000000e+00 0.0000000000000000e+00 0.0000000000000000e+00  0.0000000000000000e+00 0.0000000000000000e+00 0.0000000000000000e+00  0.0000000000000000e+00 0.0000000000000000e+00 0.0000000000000000e+00  0.0000000000000000e+00 0.0000000000000000e+00 0.0000000000000000e+00  0.0000000000000000e+00 0.0000000000000000e+00 0.0000000000000000e+00  0.0000000000000000e+00 0.0000000000000000e+00 0.0000000000000000e+00  0.0000000000000000e+00 0.0000000000000000e+00 0.0000000000000000e+00  0.0000000000000000e+00 0.0000000000000000e+00 0.0000000000000000e+00  0.0000000000000000e+00 0.0000000000000000e+00 0.0000000000000000e+00  0.0000000000000000e+00 0.0000000000000000e+00 0.0000000000000000e+00  0.0000000000000000e+00 0.0000000000000000e+00 0.0000000000000000e+00  0.0000000000000000e+00 0.0000000000000000e+00 0.0000000000000000e+00  0.0000000000000000e+00 0.0000000000000000e+00 0.0000000000000000e+00  0.0000000000000000e+00 0.0000000000000000e+00 0.0000000000000000e+00  0.0000000000000000e+00 0.0000000000000000e+00 0.0000000000000000e+00  0.0000000000000000e+00 0.0000000000000000e+00 0.0000000000000000e+00  0.0000000000000000e+00 0.0000000000000000e+00 0.0000000000000000e+00  0.0000000000000000e+00 0.0000000000000000e+00 0.0000000000000000e+00  0.0000000000000000e+00 0.0000000000000000e+00 0.0000000000000000e+00  0.0000000000000000e+00 0.0000000000000000e+00 0.0000000000000000e+00  0.0000000000000000e+00 0.0000000000000000e+00 0.0000000000000000e+00  0.0000000000000000e+00 0.0000000000000000e+00 0.0000000000000000e+00  0.0000000000000000e+00 0.0000000000000000e+00 0.0000000000000000e+00  0.0000000000000000e+00 0.0000000000000000e+00 0.0000000000000000e+00  0.0000000000000000e+00 0.0000000000000000e+00 0.0000000000000000e+00  0.0000000000000000e+00 0.0000000000000000e+00 0.0000000000000000e+00  0.0000000000000000e+00 0.0000000000000000e+00 0.0000000000000000e+00  0.0000000000000000e+00 0.0000000000000000e+00 0.0000000000000000e+00  0.0000000000000000e+00 0.0000000000000000e+00 0.0000000000000000e+00  0.0000000000000000e+00 0.0000000000000000e+00 0.0000000000000000e+00  0.0000000000000000e+00 0.0000000000000000e+00 0.0000000000000000e+00  0.0000000000000000e+00 0.0000000000000000e+00 0.0000000000000000e+00  0.0000000000000000e+00 0.0000000000000000e+00 0.0000000000000000e+00  0.0000000000000000e+00 0.0000000000000000e+00 0.0000000000000000e+00  0.0000000000000000e+00 0.0000000000000000e+00 0.0000000000000000e+00  0.0000000000000000e+00 0.0000000000000000e+00 0.0000000000000000e+00  0.0000000000000000e+00 0.0000000000000000e+00 0.0000000000000000e+00  0.0000000000000000e+00 0.0000000000000000e+00 0.0000000000000000e+00  0.0000000000000000e+00 0.0000000000000000e+00 0.0000000000000000e+00  0.0000000000000000e+00 0.0000000000000000e+00 0.0000000000000000e+00  0.0000000000000000e+00 0.0000000000000000e+00 0.0000000000000000e+00  0.0000000000000000e+00 0.0000000000000000e+00 0.0000000000000000e+00  0.0000000000000000e+00 0.0000000000000000e+00 0.0000000000000000e+00  0.0000000000000000e+00 0.0000000000000000e+00 0.0000000000000000e+00  0.0000000000000000e+00 0.0000000000000000e+00 0.0000000000000000e+00  0.0000000000000000e+00 0.0000000000000000e+00 0.0000000000000000e+00  0.0000000000000000e+00 0.0000000000000000e+00 0.0000000000000000e+00  0.0000000000000000e+00 0.0000000000000000e+00 0.0000000000000000e+00  0.0000000000000000e+00 0.0000000000000000e+00 0.0000000000000000e+00  0.0000000000000000e+00 0.0000000000000000e+00 0.0000000000000000e+00  -2.0257762483188354e-13 1.3072454745449516e-18 0.0000000000000000e+00  0.0000000000000000e+00 0.0000000000000000e+00 0.0000000000000000e+00  0.0000000000000000e+00 0.0000000000000000e+00 0.0000000000000000e+00  0.0000000000000000e+00 0.0000000000000000e+00 0.0000000000000000e+00  0.0000000000000000e+00 0.0000000000000000e+00 0.0000000000000000e+00  0.0000000000000000e+00 0.0000000000000000e+00 0.0000000000000000e+00  0.0000000000000000e+00 0.0000000000000000e+00 0.0000000000000000e+00  0.0000000000000000e+00 0.0000000000000000e+00 0.0000000000000000e+00  0.0000000000000000e+00 0.0000000000000000e+00 0.0000000000000000e+00  0.0000000000000000e+00 0.0000000000000000e+00 0.0000000000000000e+00  0.0000000000000000e+00 0.0000000000000000e+00 0.0000000000000000e+00  -3.2077382076758973e-14 1.1863202851568538e-13 0.0000000000000000e+00  0.0000000000000000e+00 0.0000000000000000e+00 0.0000000000000000e+00  0.0000000000000000e+00 0.0000000000000000e+00 0.0000000000000000e+00  0.0000000000000000e+00 0.0000000000000000e+00 0.0000000000000000e+00  0.0000000000000000e+00 0.0000000000000000e+00 0.0000000000000000e+00  0.0000000000000000e+00 0.0000000000000000e+00 0.0000000000000000e+00  0.0000000000000000e+00 0.0000000000000000e+00 0.0000000000000000e+00  0.0000000000000000e+00 0.0000000000000000e+00 0.0000000000000000e+00  0.0000000000000000e+00 0.0000000000000000e+00 0.0000000000000000e+00  0.0000000000000000e+00 0.0000000000000000e+00 0.0000000000000000e+00  0.0000000000000000e+00 0.0000000000000000e+00 0.0000000000000000e+00  0.0000000000000000e+00 0.0000000000000000e+00 0.0000000000000000e+00  0.0000000000000000e+00 0.0000000000000000e+00 0.0000000000000000e+00  0.0000000000000000e+00 0.0000000000000000e+00 0.0000000000000000e+00  0.0000000000000000e+00 0.0000000000000000e+00 0.0000000000000000e+00  0.0000000000000000e+00 0.0000000000000000e+00 0.0000000000000000e+00  0.0000000000000000e+00 0.0000000000000000e+00 0.0000000000000000e+00  0.0000000000000000e+00 0.0000000000000000e+00 0.0000000000000000e+00  0.0000000000000000e+00 0.0000000000000000e+00 0.0000000000000000e+00  0.0000000000000000e+00 0.0000000000000000e+00 0.0000000000000000e+00  0.0000000000000000e+00 0.0000000000000000e+00 0.0000000000000000e+00  0.0000000000000000e+00 0.0000000000000000e+00 0.0000000000000000e+00  0.0000000000000000e+00 0.0000000000000000e+00 0.0000000000000000e+00  0.0000000000000000e+00 0.0000000000000000e+00 0.0000000000000000e+00  0.0000000000000000e+00 0.0000000000000000e+00 0.0000000000000000e+00  0.0000000000000000e+00 0.0000000000000000e+00 0.0000000000000000e+00  0.0000000000000000e+00 0.0000000000000000e+00 0.0000000000000000e+00  0.0000000000000000e+00 0.0000000000000000e+00 0.0000000000000000e+00  0.0000000000000000e+00 0.0000000000000000e+00 0.0000000000000000e+00  0.0000000000000000e+00 0.0000000000000000e+00 0.0000000000000000e+00  0.0000000000000000e+00 0.0000000000000000e+00 0.0000000000000000e+00  0.0000000000000000e+00 0.0000000000000000e+00 0.0000000000000000e+00  0.0000000000000000e+00 0.0000000000000000e+00 0.0000000000000000e+00  0.0000000000000000e+00 0.0000000000000000e+00 0.0000000000000000e+00  0.0000000000000000e+00 0.0000000000000000e+00 0.0000000000000000e+00  0.0000000000000000e+00 0.0000000000000000e+00 0.0000000000000000e+00  0.0000000000000000e+00 0.0000000000000000e+00 0.0000000000000000e+00  -1.4242636068566035e-14 -6.3113370605920055e-13 0.0000000000000000e+00  7.9297665260362234e-08 -2.6520793640236116e-06 0.0000000000000000e+00  2.4693678965706412e-07 -2.8942719706307979e-06 0.0000000000000000e+00  5.4437046374802150e-07 -3.0163462238876959e-06 0.0000000000000000e+00  9.0460177233309916e-07 -3.0887018882115332e-06 0.0000000000000000e+00  1.2697633157973711e-06 -3.1877348122573075e-06 0.0000000000000000e+00  1.6147477975257441e-06 -3.3445522454441875e-06 0.0000000000000000e+00  1.9336957458460147e-06 -3.5240936641767615e-06 0.0000000000000000e+00  2.2231437787047409e-06 -3.7376890672976470e-06 0.0000000000000000e+00  2.5005295269710612e-06 -3.9809830110919285e-06 0.0000000000000000e+00  2.7386599681614980e-06 -4.2439130729097872e-06 0.0000000000000000e+00  2.9605855259068432e-06 -4.5488771265121932e-06 0.0000000000000000e+00  3.1453833528979504e-06 -4.8655773643790685e-06 0.0000000000000000e+00  3.3072296774133684e-06 -5.2160436804941291e-06 0.0000000000000000e+00  3.4403552163788146e-06 -5.5882002999226142e-06 0.0000000000000000e+00  3.5408986251561313e-06 -5.9830652804675840e-06 0.0000000000000000e+00  3.6257555304374217e-06 -6.4049050512219625e-06 0.0000000000000000e+00  3.6716596273587211e-06 -6.8341251212264910e-06 0.0000000000000000e+00  3.6958894067588466e-06 -7.3016088043841301e-06 0.0000000000000000e+00  3.6850813646482989e-06 -7.7688579846074271e-06 0.0000000000000000e+00  3.6528294858490909e-06 -8.2723971765387652e-06 0.0000000000000000e+00  3.5869157504844911e-06 -8.7752672222238509e-06 0.0000000000000000e+00  3.4918228107801111e-06 -9.3052752315730874e-06 0.0000000000000000e+00  3.3723510516929061e-06 -9.8483637170735724e-06 0.0000000000000000e+00  3.2202816479097637e-06 -1.0403946064616752e-05 0.0000000000000000e+00  3.0501287288764511e-06 -1.0979605385117070e-05 0.0000000000000000e+00  2.8441847233441855e-06 -1.1555296373711343e-05 0.0000000000000000e+00  2.6097274935536502e-06 -1.2163419543887368e-05 0.0000000000000000e+00  2.3466916938197963e-06 -1.2763772222304107e-05 0.0000000000000000e+00  2.0552026868090436e-06 -1.3393345242906797e-05 0.0000000000000000e+00  1.7353387650949228e-06 -1.4017041638533140e-05 0.0000000000000000e+00  1.3878617477187995e-06 -1.4667121235434113e-05 0.0000000000000000e+00  1.0105059706061113e-06 -1.5309828133662013e-05 0.0000000000000000e+00  6.0715773041993825e-07 -1.5979091074823526e-05 0.0000000000000000e+00  1.7300213009682590e-07 -1.6636957657272809e-05 0.0000000000000000e+00  -2.9053509844262973e-07 -1.7322893072993790e-05 0.0000000000000000e+00  -7.8222380221019816e-07 -1.7997951036847199e-05 0.0000000000000000e+00  -1.3016304288145725e-06 -1.8697590407785952e-05 0.0000000000000000e+00  -1.8501130667546672e-06 -1.9386215789195578e-05 0.0000000000000000e+00  -2.4279563997120741e-06 -2.0097931233321792e-05 0.0000000000000000e+00  -3.0367302957156526e-06 -2.0798125878409106e-05 0.0000000000000000e+00  -3.6780307110453433e-06 -2.1513912845529159e-05 0.0000000000000000e+00  -4.3432049274012962e-06 -2.2226928133122811e-05 0.0000000000000000e+00  -5.0434229272789022e-06 -2.2946919650096253e-05 0.0000000000000000e+00  -5.7605717140302916e-06 -2.3668046783089976e-05 0.0000000000000000e+00  -6.5115651833822542e-06 -2.4382809376243322e-05 0.0000000000000000e+00  -7.2637858943254399e-06 -2.5129385771219232e-05 0.0000000000000000e+00  -8.6783948903638867e-06 -2.5255529332061993e-05 0.0000000000000000e+00  -9.7061399189828651e-06 -2.3748665209506145e-05 0.0000000000000000e+00  -9.3288397998156965e-06 -2.2331093549713132e-05 0.0000000000000000e+00  -8.5620173619762844e-06 -2.1534271006468054e-05 0.0000000000000000e+00  -7.8007565273909069e-06 -2.0722787844807130e-05 0.0000000000000000e+00  -7.0709057006977293e-06 -1.9925439915639849e-05 0.0000000000000000e+00  -6.3597247997301544e-06 -1.9131676004209868e-05 0.0000000000000000e+00  -5.6843098684564980e-06 -1.8342818715028256e-05 0.0000000000000000e+00  -5.0301301149787704e-06 -1.7562367278751614e-05 0.0000000000000000e+00  -4.4095793429484862e-06 -1.6777459115505134e-05 0.0000000000000000e+00  -3.8147858689634130e-06 -1.6013453518792860e-05 0.0000000000000000e+00  -3.2499825370210368e-06 -1.5238159201602460e-05 0.0000000000000000e+00  -2.7106835206696830e-06 -1.4486571958484931e-05 0.0000000000000000e+00  -2.2015462296782082e-06 -1.3725152714303888e-05 0.0000000000000000e+00  -1.7174533601560964e-06 -1.2988475130170173e-05 0.0000000000000000e+00  -1.2629599344568963e-06 -1.2243314413564690e-05 0.0000000000000000e+00  -8.3241678538097803e-07 -1.1523445433344321e-05 0.0000000000000000e+00  -4.3225084279219969e-07 -1.0795722674566198e-05 0.0000000000000000e+00  -5.5971469659849802e-08 -1.0094129800230870e-05 0.0000000000000000e+00  2.8967860567197972e-07 -9.3858610370799576e-06 0.0000000000000000e+00  6.1208561123751220e-07 -8.7056469441264004e-06 0.0000000000000000e+00  9.0424033119492688e-07 -8.0205872657568822e-06 0.0000000000000000e+00  1.1740151740920609e-06 -7.3641061110301698e-06 0.0000000000000000e+00  1.4127642901105252e-06 -6.7045917166103315e-06 0.0000000000000000e+00  1.6253968041854140e-06 -6.0688495571542569e-06 0.0000000000000000e+00  1.8137875564223733e-06 -5.4424809591610532e-06 0.0000000000000000e+00  1.9700267789693048e-06 -4.8339391128747919e-06 0.0000000000000000e+00  2.1124065689445764e-06 -4.2414126528950363e-06 0.0000000000000000e+00  2.2205543623278181e-06 -3.6569426047987932e-06 0.0000000000000000e+00  2.3050735515064749e-06 -3.1058678858605309e-06 0.0000000000000000e+00  2.3610774342517050e-06 -2.5545105288944354e-06 0.0000000000000000e+00  2.3925768645859542e-06 -2.0404287605743143e-06 0.0000000000000000e+00  2.3962107079701992e-06 -1.5277998652250711e-06 0.0000000000000000e+00  2.3746246777966071e-06 -1.0512673375250986e-06 0.0000000000000000e+00  2.3300521446647764e-06 -5.8650889503880215e-07 0.0000000000000000e+00  2.2555218505653650e-06 -1.5238507148273119e-07 0.0000000000000000e+00  2.1690592669055968e-06 2.6188030205016473e-07 0.0000000000000000e+00  2.0494171475491516e-06 6.5321665445827935e-07 0.0000000000000000e+00  1.9072668588286940e-06 1.0041790675478751e-06 0.0000000000000000e+00  1.7381670498184970e-06 1.3414620008035869e-06 0.0000000000000000e+00  1.5471068032719518e-06 1.6379374036453388e-06 0.0000000000000000e+00  1.3324342779673306e-06 1.9118258702199534e-06 0.0000000000000000e+00  1.0899256759356819e-06 2.1482435069060505e-06 0.0000000000000000e+00  8.4012764948962437e-07 2.3550185088086523e-06 0.0000000000000000e+00  5.5719688634363467e-07 2.5496780305150088e-06 0.0000000000000000e+00  2.9542235772790217e-07 2.6999339628262607e-06 0.0000000000000000e+00  7.7880441016552246e-08 2.7331182899583927e-06 0.0000000000000000e+00  -7.9956571056008027e-09 2.5740146542138858e-06 0.0000000000000000e+00  -3.9726851379006253e-07 -5.0713617777608625e-08 0.0000000000000000e+00  -7.9819630801473125e-06 -2.3355892930310017e-05 0.0000000000000000e+00  -6.4802286724020298e-06 -2.1907619115113850e-05 0.0000000000000000e+00  -4.3412935886076389e-06 -1.9541862483936495e-05 0.0000000000000000e+00  5.4852563943653575e-07 -1.8914633582739014e-07 0.0000000000000000e+00  -3.1495476467935775e-06 -1.8064069879035523e-05 0.0000000000000000e+00  1.1668981061552496e-06 -4.3000006495622987e-07 0.0000000000000000e+00  -2.0343358385233718e-06 -1.6599728406016037e-05 0.0000000000000000e+00  1.9910349762258058e-06 -1.1371283436559147e-06 0.0000000000000000e+00  2.3926808768699342e-06 -1.7628508209143920e-06 0.0000000000000000e+00  -1.0322845648809684e-06 -1.5162774777221038e-05 0.0000000000000000e+00  2.9615528764720166e-06 -3.7109992730644375e-06 0.0000000000000000e+00  6.3574882062498640e-07 -1.2385748324243144e-05 0.0000000000000000e+00  2.6866782007173261e-06 -2.4080936231175357e-06 0.0000000000000000e+00  3.0078392186142496e-06 -4.6677522711307224e-06 0.0000000000000000e+00  1.3031240796591058e-06 -1.1053817881787994e-05 0.0000000000000000e+00  -1.4243571042724964e-07 -1.3756689786223872e-05 0.0000000000000000e+00  2.9442721001863438e-06 -5.6868441962556152e-06 0.0000000000000000e+00  1.8599426927922153e-06 -9.7665099976476178e-06 0.0000000000000000e+00  2.7738955394796966e-06 -6.7008418246342832e-06 0.0000000000000000e+00  2.3119798143599033e-06 -8.5807240526148962e-06 0.0000000000000000e+00  2.5748709288920812e-06 -7.5898070078529082e-06 0.0000000000000000e+00  2.8486559420023336e-06 -3.0445174106347988e-06 0.0000000000000000e+00  -5.4467614993277885e-06 -2.0740509647580155e-05 0.0000000000000000e+00  1.5850145805012580e-06 -7.7220952289690732e-07 0.0000000000000000e+00  -7.5649287144905498e-06 -2.2122943588137278e-05 0.0000000000000000e+00  9.8378523024522134e-08 9.7098877739461481e-07 0.0000000000000000e+00  -2.8622150971911926e-06 -1.6832652166014854e-05 0.0000000000000000e+00  -4.0382782246753010e-06 -1.8328464917467871e-05 0.0000000000000000e+00  9.4658185274711450e-07 -1.3101267601161547e-06 0.0000000000000000e+00  2.3173760401425454e-06 -2.2188195669490613e-06 0.0000000000000000e+00  -5.8411215059737262e-09 -1.2510749376238309e-05 0.0000000000000000e+00  -1.7984867633249409e-06 -1.5361370850981652e-05 0.0000000000000000e+00  3.1827213256726532e-06 -4.8907539644655481e-06 0.0000000000000000e+00  7.2467099022272872e-07 -1.1138828745100613e-05 0.0000000000000000e+00  2.6966839728568821e-06 -2.8583372067734214e-06 0.0000000000000000e+00  3.1862507172440617e-06 -5.8544470198920678e-06 0.0000000000000000e+00  1.3451588438574912e-06 -9.8089759704489261e-06 0.0000000000000000e+00  -8.4680096670052451e-07 -1.3919379300599496e-05 0.0000000000000000e+00  3.1308893141437114e-06 -7.0314835891263282e-06 0.0000000000000000e+00  1.8570271670192079e-06 -8.5266943412224501e-06 0.0000000000000000e+00  -4.9344584294007758e-07 -6.3853552568210665e-07 0.0000000000000000e+00  -4.9934877211095330e-07 5.6318803934544765e-07 0.0000000000000000e+00  -8.3907378333024639e-06 -2.4288369860424583e-05 0.0000000000000000e+00  1.8963816522403631e-07 -1.2843185