<?xml version="1.0"?>
<VTKFile type="UnstructuredGrid"  version="0.1"  >
<UnstructuredGrid>
<Piece  NumberOfPoints="1419" NumberOfCells="2698">
<Points>
<DataArray  type="Float64"  NumberOfComponents="3"  format="ascii">0 0 0  0 0.41 0  2.5 0 0  2.5 0.41 0  0.6 0.19 0  0.6 0.21 0  0.25 0.2 0  0.15 0.2 0  0.2489897948556636 0.21 0  0.2489897948556636 0.19 0  0.6 0.2 0  0 0.3807142857143437 0  0 0.3514285714286952 0  0 0.3221428571430699 0  0 0.29285714285744 0  0 0.2635714285718054 0  0 0.2342857142861561 0  0 0.2050000000005308 0  0 0.175714285714732 0  0 0.1464285714289574 0  0 0.1171428571431897 0  0 0.08785714285737878 0  0 0.05857142857161107 0  0 0.02928571428580012 0  0.03015443760436003 0 0  0.06140001986583606 0 0  0.09377624077125973 0 0  0.1273239957535082 0 0  0.1620856860351972 0 0  0.1981052433264291 0 0  0.235428184091502 0 0  0.2741016576309132 0 0  0.3141745521465447 0 0  0.3556974926295285 0 0  0.3987229542472677 0 0  0.4433053055141081 0 0  0.4895008759286886 0 0  0.5373680609405097 0 0  0.5869673343216626 0 0  0.6383613676634521 0 0  0.6916151138468254 0 0  0.7467958595648856 0 0  0.8039733463919316 0 0  0.8632198139502143 0 0  0.9246101326867038 0 0  0.9882218810934433 0 0  1.054135445558498 0 0  1.122434100542598 0 0  1.193204177141305 0 0  1.266535089879536 0 0  1.342519516046404 0 0  1.421253448503939 0 0  1.502836389106271 0 0  1.587371439758838 0 0  1.674965418777374 0 0  1.765729001825544 0 0  1.859776908880082 0 0  1.957227977487062 0 0  2.058205329869943 0 0  2.162836591189951 0 0  2.271253957290865 0 0  2.383594446803425 0 0  2.5 0.1024999999997612 0  2.5 0.2049999999994743 0  2.5 0.3074999999997183 0  2.383594446803656 0.41 0  2.271253957291315 0.41 0  2.162836591190598 0.41 0  2.058205329870775 0.41 0  1.957227977488067 0.41 0  1.859776908881246 0.41 0  1.765729001826854 0.41 0  1.674965418778818 0.41 0  1.58737143976041 0.41 0  1.502836389107956 0.41 0  1.421253448505726 0.41 0  1.342519516048286 0.41 0  1.266535089881505 0.41 0  1.193204177143353 0.41 0  1.122434100544716 0.41 0  1.05413544556068 0.41 0  0.9882218810956305 0.41 0  0.9246101326886647 0.41 0  0.8632198139519631 0.41 0  0.8039733463934788 0.41 0  0.7467958595662458 0.41 0  0.6916151138480078 0.41 0  0.6383613676644679 0.41 0  0.5869673343225223 0.41 0  0.5373680609412221 0.41 0  0.4895008759292634 0.41 0  0.4433053055145528 0.41 0  0.3987229542475914 0.41 0  0.3556974926297398 0.41 0  0.3141745521466497 0.41 0  0.2741016576310038 0.41 0  0.2354281840915826 0.41 0  0.1981052433265003 0.41 0  0.1620856860352591 0.41 0  0.1273239957535623 0.41 0  0.09377624077128965 0.41 0  0.06140001986584975 0.41 0  0.03015443760436654 0.41 0  0.2497468076502589 0.2050254481002335 0  0.2497468076502614 0.1949745518997913 0  0.2469965252529372 0.1829317073451959 0  0.2439893735792749 0.1762316384219906 0  0.2400332147834255 0.1700443375285386 0  0.2352133972704371 0.1645032867342007 0  0.2296339016332438 0.1597280261969788 0  0.2234150974217223 0.1558215752574715 0  0.2166911463437691 0.1528682099456123 0  0.2096071079204251 0.1509316448471593 0  0.2023158100364996 0.1500536585536553 0  0.194974551899914 0.1502531923497262 0  0.1877417105387872 0.1515259415822739 0  0.1807733240461124 0.153844448527136 0  0.1742197252835808 0.15715869474974 0  0.1682222986673531 0.1613971801805478 0  0.162910430003803 0.1664684656256651 0  0.1583987151779087 0.1722631454351573 0  0.1547844879126891 0.178656207771761 0  0.1521457199348551 0.1855097315605723 0  0.1505393388476355 0.1926758619366523 0  0.1505393388476328 0.2073241380633295 0  0.1521457199348437 0.2144902684393899 0  0.1547844879126531 0.221343792228163 0  0.1583987151778488 0.2277368545647528 0  0.1629104300036858 0.2335315343742052 0  0.1682222986671726 0.2386028198193036 0  0.1742197252833576 0.2428413052501257 0  0.1807733240458683 0.2461555514727623 0  0.1877417105384929 0.2484740584176516 0  0.1949745518995776 0.2497468076502398 0  0.202315810036185 0.2499463414463592 0  0.2096071079201568 0.2490683551528932 0  0.2166911463435495 0.2471317900544655 0  0.2234150974215506 0.2441784247426195 0  0.2296339016331197 0.2402719738031125 0  0.2352133972703547 0.2354967132658811 0  0.2400332147833751 0.2299556624715287 0  0.2439893735792577 0.2237683615780412 0  0.246996525252926 0.2170682926548348 0  0.25645809709277 0.21 0  0.2639263993298655 0.21 0  0.271394701566961 0.21 0  0.2788630038040554 0.21 0  0.2863313060411479 0.21 0  0.2937996082782405 0.21 0  0.301267910515333 0.21 0  0.3087362127524279 0.21 0  0.3162045149895234 0.21 0  0.3236728172265972 0.21 0  0.3311411194636928 0.21 0  0.3386094217007701 0.21 0  0.3460777239378666 0.21 0  0.3535460261749672 0.21 0  0.3610143284120516 0.21 0  0.3684826306491596 0.21 0  0.3759509328862226 0.21 0  0.383419235123329 0.21 0  0.3908875373604028 0.21 0  0.3983558395975142 0.21 0  0.4058241418345938 0.21 0  0.4132924440716992 0.21 0  0.4207607463087888 0.21 0  0.4282290485459029 0.21 0  0.4356973507830418 0.21 0  0.4431656530201649 0.21 0  0.4506339552573136 0.21 0  0.4581022574944306 0.21 0  0.4655705597315852 0.21 0  0.4730388619686996 0.21 0  0.480507164205851 0.21 0  0.4879754664429498 0.21 0  0.4954437686800938 0.21 0  0.502912070917267 0.21 0  0.5103803731544119 0.21 0  0.5178486753915261 0.21 0  0.5253169776286404 0.21 0  0.5327852798657868 0.21 0  0.5402535821029386 0.21 0  0.54772188434007 0.21 0  0.5551901865771842 0.21 0  0.5626584888143201 0.21 0  0.5701267910514778 0.21 0  0.5775950932886138 0.21 0  0.5850633955257281 0.21 0  0.5925316977628483 0.21 0  0.6 0.2050000000000054 0  0.6 0.1950000000000217 0  0.5925316977628897 0.19 0  0.5850633955257988 0.19 0  0.5775950932887378 0.19 0  0.5701267910515998 0.19 0  0.5626584888145268 0.19 0  0.5551901865773963 0.19 0  0.547721884340339 0.19 0  0.5402535821032429 0.19 0  0.5327852798661811 0.19 0  0.5253169776290537 0.19 0  0.5178486753919799 0.19 0  0.5103803731549078 0.19 0  0.502912070917822 0.19 0  0.4954437686807294 0.19 0  0.4879754664436223 0.19 0  0.4805071642065402 0.19 0  0.4730388619694271 0.19 0  0.4655705597323621 0.19 0  0.4581022574952563 0.19 0  0.4506339552581777 0.19 0  0.4431656530210671 0.19 0  0.4356973507839815 0.19 0  0.4282290485468779 0.19 0  0.4207607463097617 0.19 0  0.4132924440726327 0.19 0  0.4058241418354857 0.19 0  0.3983558395983636 0.19 0  0.3908875373612097 0.19 0  0.3834192351240934 0.19 0  0.3759509328869369 0.19 0  0.3684826306498175 0.19 0  0.361014328412667 0.19 0  0.3535460261755617 0.19 0  0.3460777239384295 0.19 0  0.3386094217012945 0.19 0  0.3311411194641595 0.19 0  0.3236728172270245 0.19 0  0.3162045149898895 0.19 0  0.3087362127527544 0.19 0  0.3012679105156187 0.19 0  0.2937996082784807 0.19 0  0.2863313060413428 0.19 0  0.2788630038042048 0.19 0  0.2713947015670686 0.19 0  0.2639263993299336 0.19 0  0.2564580970927985 0.19 0  0.2607803159922026 0.2000727136295815 0  0.5887803774232762 0.2001272386983733 0  0.5745072403740523 0.2002044435018727 0  0.5511891430099709 0.2001122610077113 0  0.2751288526855082 0.20000000000002 0  0.5365194309847112 0.1999999999999436 0  0.2894621222999649 0.1998691686390484 0  0.5215828265105155 0.1999999999999228 0  0.3127789816668748 0.1998657885438805 0  0.3274069683451451 0.2000000000000796 0  0.5066462220363641 0.199999999999908 0  0.3650630746574081 0.199866017807523 0  0.476773013087985 0.1999999999998713 0  0.3417402379596385 0.1998691686391011 0  0.3796850840047755 0.200000000000134 0  0.4618364086138087 0.1999999999998546 0  0.4917096175621762 0.1999999999998808 0  0.3946216884789568 0.2000000000001512 0  0.446899804139621 0.1999999999998389 0  0.4089549580935208 0.1998691686391595 0  0.4322718174608562 0.200127451265745 0  0.4201487168029707 0.1999966199048527 0  0.3528922713220932 0.2000185703532356 0  0.5633122436674589 0.1999814296467508 0  0.3006558810093873 0.1999966199048318 0  0.5815926498168407 0.1966545283159175 0  0.2677053789419034 0.1964246479135325 0  0.5290511287476175 0.1970915826863981 0  0.5439877332217911 0.197091582686394 0  0.2825131256993216 0.2035478995978015 0  0.3199386661080599 0.202908417313604 0  0.4842413153250809 0.1970915826863873 0  0.5141145242734466 0.1970915826863843 0  0.3722167817676917 0.2029084173136195 0  0.4693047108508938 0.1970915826863783 0  0.3348752705822316 0.202908417313609 0  0.3871533862418661 0.2029084173136212 0  0.4543681063767183 0.1970915826863795 0  0.4991779197992749 0.1970915826863902 0  0.4020059614928624 0.203547899597858 0  0.4394315019025246 0.1970915826863714 0  0.2550657455369551 0.2034088125358657 0  0.2548908499171161 0.1966940311614271 0  0.5946539510196798 0.2024302972968126 0  0.267698176732111 0.2039977513680092 0  0.4261685417851465 0.196409292431739 0  0.3590076176283495 0.196411355804271 0  0.5571672426447437 0.2036011176410121 0  0.3066757059912147 0.1964092924317024 0  0.594380730180568 0.1966558399668133 0  0.4842413153245942 0.2040749161535287 0  0.4693047108503577 0.2040749161535231 0  0.3871533862424271 0.1959250838464788 0  0.372246743208829 0.1959123236376545 0  0.5141145242731028 0.2040749161535395 0  0.4543681063761134 0.2040749161535186 0  0.4019979587101454 0.1959834479682427 0  0.4394608940728603 0.2040870543693135 0  0.5439623148931173 0.2040856076781014 0  0.5290511287473298 0.2040749161535501 0  0.4991779197988497 0.2040749161535382 0  0.3347912413592433 0.1959225448935183 0  0.3199680582793816 0.1959123018030061 0  0.2825051229162361 0.1959834479681729 0  0.3590471196690275 0.2036304442587945 0  0.5571594006495384 0.1963685282145804 0  0.3067669986803285 0.203627750582736 0  0.4262598344738712 0.2036568242185335 0  0.5814408164431408 0.2041285596160068 0  0.5688286748170428 0.1961819304477386 0  0.4145905603063645 0.2038180695522843 0  0.3473758401724931 0.2038180695522752 0  0.2950977245128307 0.2038180695522663 0  0.5688286748170693 0.203818069552238 0  0.2950977245127906 0.1961819304477774 0  0.3473758401723931 0.1961819304478349 0  0.4145905603061963 0.1961819304479011 0  0.2601812407614425 0.2056861609747042
[...]
<PointData  Vectors="f_46-2"> 
<DataArray  type="Float64"  Name="f_46-2"  NumberOfComponents="3" format="ascii">0.0000000000000000e+00 0.0000000000000000e+00 0.0000000000000000e+00  0.0000000000000000e+00 0.0000000000000000e+00 0.0000000000000000e+00  0.0000000000000000e+00 0.0000000000000000e+00 0.0000000000000000e+00  0.0000000000000000e+00 0.0000000000000000e+00 0.0000000000000000e+00  -1.2009158002049930e-05 -5.6790672601925033e-06 0.0000000000000000e+00  -1.1316215088822233e-05 -7.7495405330667992e-06 0.0000000000000000e+00  0.0000000000000000e+00 0.0000000000000000e+00 0.0000000000000000e+00  0.0000000000000000e+00 0.0000000000000000e+00 0.0000000000000000e+00  0.0000000000000000e+00 0.0000000000000000e+00 0.0000000000000000e+00  0.0000000000000000e+00 0.0000000000000000e+00 0.0000000000000000e+00  -1.1769192202665430e-05 -6.7146674872802499e-06 0.0000000000000000e+00  0.0000000000000000e+00 0.0000000000000000e+00 0.0000000000000000e+00  0.0000000000000000e+00 0.0000000000000000e+00 0.0000000000000000e+00  0.0000000000000000e+00 0.0000000000000000e+00 0.0000000000000000e+00  0.0000000000000000e+00 0.0000000000000000e+00 0.0000000000000000e+00  0.0000000000000000e+00 0.0000000000000000e+00 0.0000000000000000e+00  0.0000000000000000e+00 0.0000000000000000e+00 0.0000000000000000e+00  0.0000000000000000e+00 0.0000000000000000e+00 0.0000000000000000e+00  0.0000000000000000e+00 0.0000000000000000e+00 0.0000000000000000e+00  0.0000000000000000e+00 0.0000000000000000e+00 0.0000000000000000e+00  0.0000000000000000e+00 0.0000000000000000e+00 0.0000000000000000e+00  0.0000000000000000e+00 0.0000000000000000e+00 0.0000000000000000e+00  0.0000000000000000e+00 0.0000000000000000e+00 0.0000000000000000e+00  0.0000000000000000e+00 0.0000000000000000e+00 0.0000000000000000e+00  0.0000000000000000e+00 0.0000000000000000e+00 0.0000000000000000e+00  0.0000000000000000e+00 0.0000000000000000e+00 0.0000000000000000e+00  0.0000000000000000e+00 0.0000000000000000e+00 0.0000000000000000e+00  0.0000000000000000e+00 0.0000000000000000e+00 0.0000000000000000e+00  0.0000000000000000e+00 0.0000000000000000e+00 0.0000000000000000e+00  0.0000000000000000e+00 0.0000000000000000e+00 0.0000000000000000e+00  0.0000000000000000e+00 0.0000000000000000e+00 0.0000000000000000e+00  0.0000000000000000e+00 0.0000000000000000e+00 0.0000000000000000e+00  0.0000000000000000e+00 0.0000000000000000e+00 0.0000000000000000e+00  0.0000000000000000e+00 0.0000000000000000e+00 0.0000000000000000e+00  0.0000000000000000e+00 0.0000000000000000e+00 0.0000000000000000e+00  -1.0290113244860845e-13 -2.1137199474907065e-18 0.0000000000000000e+00  0.0000000000000000e+00 0.0000000000000000e+00 0.0000000000000000e+00  0.0000000000000000e+00 0.0000000000000000e+00 0.0000000000000000e+00  0.0000000000000000e+00 0.0000000000000000e+00 0.0000000000000000e+00  0.0000000000000000e+00 0.0000000000000000e+00 0.0000000000000000e+00  0.0000000000000000e+00 0.0000000000000000e+00 0.0000000000000000e+00  0.0000000000000000e+00 0.0000000000000000e+00 0.0000000000000000e+00  0.0000000000000000e+00 0.0000000000000000e+00 0.0000000000000000e+00  0.0000000000000000e+00 0.0000000000000000e+00 0.0000000000000000e+00  0.0000000000000000e+00 0.0000000000000000e+00 0.0000000000000000e+00  0.0000000000000000e+00 0.0000000000000000e+00 0.0000000000000000e+00  0.0000000000000000e+00 0.0000000000000000e+00 0.0000000000000000e+00  0.0000000000000000e+00 0.0000000000000000e+00 0.0000000000000000e+00  0.0000000000000000e+00 0.0000000000000000e+00 0.0000000000000000e+00  0.0000000000000000e+00 0.0000000000000000e+00 0.0000000000000000e+00  0.0000000000000000e+00 0.0000000000000000e+00 0.0000000000000000e+00  0.0000000000000000e+00 0.0000000000000000e+00 0.0000000000000000e+00  0.0000000000000000e+00 0.0000000000000000e+00 0.0000000000000000e+00  0.0000000000000000e+00 0.0000000000000000e+00 0.0000000000000000e+00  0.0000000000000000e+00 0.0000000000000000e+00 0.0000000000000000e+00  0.0000000000000000e+00 0.0000000000000000e+00 0.0000000000000000e+00  0.0000000000000000e+00 0.0000000000000000e+00 0.0000000000000000e+00  0.0000000000000000e+00 0.0000000000000000e+00 0.0000000000000000e+00  0.0000000000000000e+00 0.0000000000000000e+00 0.0000000000000000e+00  0.0000000000000000e+00 0.0000000000000000e+00 0.0000000000000000e+00  0.0000000000000000e+00 0.0000000000000000e+00 0.0000000000000000e+00  0.0000000000000000e+00 0.0000000000000000e+00 0.0000000000000000e+00  0.0000000000000000e+00 0.0000000000000000e+00 0.0000000000000000e+00  0.0000000000000000e+00 0.0000000000000000e+00 0.0000000000000000e+00  0.0000000000000000e+00 0.0000000000000000e+00 0.0000000000000000e+00  0.0000000000000000e+00 0.0000000000000000e+00 0.0000000000000000e+00  0.0000000000000000e+00 0.0000000000000000e+00 0.0000000000000000e+00  0.0000000000000000e+00 0.0000000000000000e+00 0.0000000000000000e+00  0.0000000000000000e+00 0.0000000000000000e+00 0.0000000000000000e+00  0.0000000000000000e+00 0.0000000000000000e+00 0.0000000000000000e+00  0.0000000000000000e+00 0.0000000000000000e+00 0.0000000000000000e+00  0.0000000000000000e+00 0.0000000000000000e+00 0.0000000000000000e+00  0.0000000000000000e+00 0.0000000000000000e+00 0.0000000000000000e+00  0.0000000000000000e+00 0.0000000000000000e+00 0.0000000000000000e+00  0.0000000000000000e+00 0.0000000000000000e+00 0.0000000000000000e+00  0.0000000000000000e+00 0.0000000000000000e+00 0.0000000000000000e+00  0.0000000000000000e+00 0.0000000000000000e+00 0.0000000000000000e+00  0.0000000000000000e+00 0.0000000000000000e+00 0.0000000000000000e+00  0.0000000000000000e+00 0.0000000000000000e+00 0.0000000000000000e+00  0.0000000000000000e+00 0.0000000000000000e+00 0.0000000000000000e+00  0.0000000000000000e+00 0.0000000000000000e+00 0.0000000000000000e+00  0.0000000000000000e+00 0.0000000000000000e+00 0.0000000000000000e+00  0.0000000000000000e+00 0.0000000000000000e+00 0.0000000000000000e+00  0.0000000000000000e+00 0.0000000000000000e+00 0.0000000000000000e+00  0.0000000000000000e+00 0.0000000000000000e+00 0.0000000000000000e+00  0.0000000000000000e+00 0.0000000000000000e+00 0.0000000000000000e+00  0.0000000000000000e+00 0.0000000000000000e+00 0.0000000000000000e+00  0.0000000000000000e+00 0.0000000000000000e+00 0.0000000000000000e+00  -1.4186933052809167e-12 0.0000000000000000e+00 0.0000000000000000e+00  0.0000000000000000e+00 0.0000000000000000e+00 0.0000000000000000e+00  0.0000000000000000e+00 0.0000000000000000e+00 0.0000000000000000e+00  0.0000000000000000e+00 0.0000000000000000e+00 0.0000000000000000e+00  0.0000000000000000e+00 0.0000000000000000e+00 0.0000000000000000e+00  0.0000000000000000e+00 0.0000000000000000e+00 0.0000000000000000e+00  3.3198101300545416e-14 2.1834951490910126e-18 0.0000000000000000e+00  0.0000000000000000e+00 0.0000000000000000e+00 0.0000000000000000e+00  0.0000000000000000e+00 0.0000000000000000e+00 0.0000000000000000e+00  0.0000000000000000e+00 0.0000000000000000e+00 0.0000000000000000e+00  0.0000000000000000e+00 0.0000000000000000e+00 0.0000000000000000e+00  0.0000000000000000e+00 0.0000000000000000e+00 0.0000000000000000e+00  0.0000000000000000e+00 0.0000000000000000e+00 0.0000000000000000e+00  0.0000000000000000e+00 0.0000000000000000e+00 0.0000000000000000e+00  0.0000000000000000e+00 0.0000000000000000e+00 0.0000000000000000e+00  0.0000000000000000e+00 0.0000000000000000e+00 0.0000000000000000e+00  0.0000000000000000e+00 0.0000000000000000e+00 0.0000000000000000e+00  4.1438680011705524e-15 -1.4238095114687454e-14 0.0000000000000000e+00  0.0000000000000000e+00 0.0000000000000000e+00 0.0000000000000000e+00  0.0000000000000000e+00 0.0000000000000000e+00 0.0000000000000000e+00  0.0000000000000000e+00 0.0000000000000000e+00 0.0000000000000000e+00  0.0000000000000000e+00 0.0000000000000000e+00 0.0000000000000000e+00  0.0000000000000000e+00 0.0000000000000000e+00 0.0000000000000000e+00  0.0000000000000000e+00 0.0000000000000000e+00 0.0000000000000000e+00  0.0000000000000000e+00 0.0000000000000000e+00 0.0000000000000000e+00  0.0000000000000000e+00 0.0000000000000000e+00 0.0000000000000000e+00  0.0000000000000000e+00 0.0000000000000000e+00 0.0000000000000000e+00  0.0000000000000000e+00 0.0000000000000000e+00 0.0000000000000000e+00  0.0000000000000000e+00 0.0000000000000000e+00 0.0000000000000000e+00  0.0000000000000000e+00 0.0000000000000000e+00 0.0000000000000000e+00  0.0000000000000000e+00 0.0000000000000000e+00 0.0000000000000000e+00  0.0000000000000000e+00 0.0000000000000000e+00 0.0000000000000000e+00  0.0000000000000000e+00 0.0000000000000000e+00 0.0000000000000000e+00  0.0000000000000000e+00 0.0000000000000000e+00 0.0000000000000000e+00  0.0000000000000000e+00 0.0000000000000000e+00 0.0000000000000000e+00  0.0000000000000000e+00 0.0000000000000000e+00 0.0000000000000000e+00  0.0000000000000000e+00 0.0000000000000000e+00 0.0000000000000000e+00  0.0000000000000000e+00 0.0000000000000000e+00 0.0000000000000000e+00  0.0000000000000000e+00 0.0000000000000000e+00 0.0000000000000000e+00  0.0000000000000000e+00 0.0000000000000000e+00 0.0000000000000000e+00  0.0000000000000000e+00 0.0000000000000000e+00 0.0000000000000000e+00  0.0000000000000000e+00 0.0000000000000000e+00 0.0000000000000000e+00  0.0000000000000000e+00 0.0000000000000000e+00 0.0000000000000000e+00  0.0000000000000000e+00 0.0000000000000000e+00 0.0000000000000000e+00  0.0000000000000000e+00 0.0000000000000000e+00 0.0000000000000000e+00  0.0000000000000000e+00 0.0000000000000000e+00 0.0000000000000000e+00  0.0000000000000000e+00 0.0000000000000000e+00 0.0000000000000000e+00  0.0000000000000000e+00 0.0000000000000000e+00 0.0000000000000000e+00  0.0000000000000000e+00 0.0000000000000000e+00 0.0000000000000000e+00  0.0000000000000000e+00 0.0000000000000000e+00 0.0000000000000000e+00  0.0000000000000000e+00 0.0000000000000000e+00 0.0000000000000000e+00  0.0000000000000000e+00 0.0000000000000000e+00 0.0000000000000000e+00  0.0000000000000000e+00 0.0000000000000000e+00 0.0000000000000000e+00  0.0000000000000000e+00 0.0000000000000000e+00 0.0000000000000000e+00  1.9387692342245911e-14 1.0309651904554300e-13 0.0000000000000000e+00  -1.2436110388490828e-07 -1.7108737572941199e-06 0.0000000000000000e+00  -2.0163475362767034e-07 -1.8399401523643363e-06 0.0000000000000000e+00  -1.9378377324988537e-07 -1.8745988054046272e-06 0.0000000000000000e+00  -1.4615957832213045e-07 -1.8576119589004428e-06 0.0000000000000000e+00  -8.9377586118244742e-08 -1.8442483842527521e-06 0.0000000000000000e+00  -4.6639185054191766e-08 -1.8517868002397427e-06 0.0000000000000000e+00  -1.4640605290016919e-08 -1.8627073651271400e-06 0.0000000000000000e+00  8.3447306567233769e-10 -1.8807631781146699e-06 0.0000000000000000e+00  7.8727922658567888e-09 -1.9064911838313503e-06 0.0000000000000000e+00  -3.2848141356098123e-09 -1.9347082087302072e-06 0.0000000000000000e+00  -2.5708683579966176e-08 -1.9776355945706182e-06 0.0000000000000000e+00  -6.5561551198860732e-08 -2.0202040448326554e-06 0.0000000000000000e+00  -1.1978079451286116e-07 -2.0743905495946094e-06 0.0000000000000000e+00  -1.8774461025353118e-07 -2.1357304677449382e-06 0.0000000000000000e+00  -2.7420685262608063e-07 -2.2035588332372421e-06 0.0000000000000000e+00  -3.7009077047362582e-07 -2.2822131910657412e-06 0.0000000000000000e+00  -4.8593653201949503e-07 -2.3609082221042389e-06 0.0000000000000000e+00  -6.1495250156101025e-07 -2.4570120901552154e-06 0.0000000000000000e+00  -7.6209826845294202e-07 -2.5500791331802507e-06 0.0000000000000000e+00  -9.2203399816738716e-07 -2.6605114295570343e-06 0.0000000000000000e+00  -1.0999538384989976e-06 -2.7683384831548632e-06 0.0000000000000000e+00  -1.2946544703814377e-06 -2.8889381800620087e-06 0.0000000000000000e+00  -1.5022515232458973e-06 -3.0156064045410202e-06 0.0000000000000000e+00  -1.7288013603015957e-06 -3.1474085350826313e-06 0.0000000000000000e+00  -1.9655529992111172e-06 -3.2896513757692621e-06 0.0000000000000000e+00  -2.2222139053598599e-06 -3.4307077911969068e-06 0.0000000000000000e+00  -2.4950308085105175e-06 -3.5893909499571989e-06 0.0000000000000000e+00  -2.7838235899563792e-06 -3.7431784766360242e-06 0.0000000000000000e+00  -3.0888035662512901e-06 -3.9130414168842388e-06 0.0000000000000000e+00  -3.4097356260260259e-06 -4.0797090924160478e-06 0.0000000000000000e+00  -3.7463867682030919e-06 -4.2611083483127135e-06 0.0000000000000000e+00  -4.1000598841844386e-06 -4.4388791841102912e-06 0.0000000000000000e+00  -4.4683406398789887e-06 -4.6318623251289685e-06 0.0000000000000000e+00  -4.8543213911701338e-06 -4.8187171700742479e-06 0.0000000000000000e+00  -5.2571954335678679e-06 -5.0219702822883714e-06 0.0000000000000000e+00  -5.6761041954223321e-06 -5.2197675907637958e-06 0.0000000000000000e+00  -6.1108265347046653e-06 -5.4319167936006623e-06 0.0000000000000000e+00  -6.5622131465576963e-06 -5.6385087398667721e-06 0.0000000000000000e+00  -7.0304559689802045e-06 -5.8584472891075685e-06 0.0000000000000000e+00  -7.5164848229604754e-06 -6.0726126104356179e-06 0.0000000000000000e+00  -8.0209894823029114e-06 -6.2959471167197480e-06 0.0000000000000000e+00  -8.5391513822946941e-06 -6.5180683134675114e-06 0.0000000000000000e+00  -9.0779226252106835e-06 -6.7445259395624440e-06 0.0000000000000000e+00  -9.6263583184047738e-06 -6.9719188152655485e-06 0.0000000000000000e+00  -1.0194058400630726e-05 -7.1963050546670774e-06 0.0000000000000000e+00  -1.0764542577218059e-05 -7.4372280078473694e-06 0.0000000000000000e+00  -1.1580873078929961e-05 -7.2312148928668168e-06 0.0000000000000000e+00  -1.1921905128994474e-05 -6.1991429464874321e-06 0.0000000000000000e+00  -1.1451472390136774e-05 -5.4790424793457707e-06 0.0000000000000000e+00  -1.0873109906654791e-05 -5.2063807934573579e-06 0.0000000000000000e+00  -1.0299466894947440e-05 -4.9261822497569610e-06 0.0000000000000000e+00  -9.7434563601051838e-06 -4.6534561089185183e-06 0.0000000000000000e+00  -9.1980375454588132e-06 -4.3828691606252068e-06 0.0000000000000000e+00  -8.6733594448914027e-06 -4.1153472594015883e-06 0.0000000000000000e+00  -8.1604881855410167e-06 -3.8526592555088022e-06 0.0000000000000000e+00  -7.6667861540644638e-06 -3.5883663027115964e-06 0.0000000000000000e+00  -7.1875472634387413e-06 -3.3357879132196356e-06 0.0000000000000000e+00  -6.7255976470289237e-06 -3.0777555579770462e-06 0.0000000000000000e+00  -6.2781591659060604e-06 -2.8331831194468752e-06 0.0000000000000000e+00  -5.8482260613411905e-06 -2.5841553499046120e-06 0.0000000000000000e+00  -5.4325202222828725e-06 -2.3492355655302507e-06 0.0000000000000000e+00  -5.0340081447144370e-06 -2.1103928652311278e-06 0.0000000000000000e+00  -4.6492304814365119e-06 -1.8858553332378753e-06 0.0000000000000000e+00  -4.2820904851876544e-06 -1.6575591320262856e-06 0.0000000000000000e+00  -3.9288962785863035e-06 -1.4438375604580249e-06 0.0000000000000000e+00  -3.5935323603968333e-06 -1.2268785435515093e-06 0.0000000000000000e+00  -3.2718331861585130e-06 -1.0253811357989647e-06 0.0000000000000000e+00  -2.9676155644170387e-06 -8.2116217125782959e-07 0.0000000000000000e+00  -2.6767568284338528e-06 -6.3222334869933947e-07 0.0000000000000000e+00  -2.4037057341677703e-06 -4.4114020491199168e-07 0.0000000000000000e+00  -2.1463652408010217e-06 -2.6211853590853950e-07 0.0000000000000000e+00  -1.9028459160828370e-06 -8.7538184204431420e-08 0.0000000000000000e+00  -1.6786420799655195e-06 7.8894485442476291e-08 0.0000000000000000e+00  -1.4630642299863694e-06 2.3755231897641003e-07 0.0000000000000000e+00  -1.2671688412037403e-06 3.9407786402393644e-07 0.0000000000000000e+00  -1.0855471196191563e-06 5.3400556973554559e-07 0.0000000000000000e+00  -9.2058469869504538e-07 6.7732006322579420e-07 0.0000000000000000e+00  -7.7067984593633101e-07 8.0245422288450167e-07 0.0000000000000000e+00  -6.3692713876017922e-07 9.3057907402384190e-07 0.0000000000000000e+00  -5.1924381719198114e-07 1.0429668609940928e-06 0.0000000000000000e+00  -4.1408478603260368e-07 1.1528797884569041e-06 0.0000000000000000e+00  -3.2731731693770714e-07 1.2518690964701509e-06 0.0000000000000000e+00  -2.4950796615470628e-07 1.3445385528182682e-06 0.0000000000000000e+00  -1.9061388132352154e-07 1.4316234658996418e-06 0.0000000000000000e+00  -1.4622519113621529e-07 1.5031161525320750e-06 0.0000000000000000e+00  -1.1733498620556996e-07 1.5749935326368966e-06 0.0000000000000000e+00  -1.0381328618478128e-07 1.6337885811062975e-06 0.0000000000000000e+00  -1.0234370362784873e-07 1.6879952065006904e-06 0.0000000000000000e+00  -1.1815612216795413e-07 1.7335708369997135e-06 0.0000000000000000e+00  -1.4180835522801604e-07 1.7715844313985176e-06 0.0000000000000000e+00  -1.8412653535239244e-07 1.8180423113303563e-06 0.0000000000000000e+00  -2.1511001676235994e-07 1.8528831985013430e-06 0.0000000000000000e+00  -2.1483397747910447e-07 1.8281005066106073e-06 0.0000000000000000e+00  -1.3552258995197382e-07 1.6968073219128673e-06 0.0000000000000000e+00  -5.0264126508656522e-07 -1.3310074881555994e-08 0.0000000000000000e+00  -1.0853715795021508e-05 -6.3391527369923379e-06 0.0000000000000000e+00  -9.7353132841295809e-06 -5.8642617007946426e-06 0.0000000000000000e+00  -8.0781285037000291e-06 -5.0854284420004245e-06 0.0000000000000000e+00  -1.9937843468127954e-07 -1.2186099833393354e-08 0.0000000000000000e+00  -7.1218371051709460e-06 -4.6022491154188960e-06 0.0000000000000000e+00  -1.0535719597203679e-07 -1.6999368169131109e-08 0.0000000000000000e+00  -6.2073733852318875e-06 -4.1372493917280190e-06 0.0000000000000000e+00  -6.0292451185935792e-08 -1.1734669013502601e-07 0.0000000000000000e+00  -1.0053406704237377e-07 -2.3864122016784382e-07 0.0000000000000000e+00  -5.3577715545180908e-06 -3.6900353244894890e-06 0.0000000000000000e+00  -4.6290931586766350e-07 -6.0459319627472718e-07 0.0000000000000000e+00  -3.8514535626780289e-06 -2.8561093148899963e-06 0.0000000000000000e+00  -1.9275599823400053e-07 -3.4029854350558296e-07 0.0000000000000000e+00  -7.0753511876024957e-07 -8.2893309801113818e-07 0.0000000000000000e+00  -3.1940431298009568e-06 -2.4726115300046540e-06 0.0000000000000000e+00  -4.5725489651355307e-06 -3.2623683393987983e-06 0.0000000000000000e+00  -1.0182199877915040e-06 -1.0647510633578193e-06 0.0000000000000000e+00  -2.6001482626790285e-06 -2.1135961446400706e-06 0.0000000000000000e+00  -1.3760822241560897e-06 -1.2985010726137961e-06 0.0000000000000000e+00  -2.0754613326086658e-06 -1.8046688817333143e-06 0.0000000000000000e+00  -1.6983609753566954e-06 -1.5355534021960715e-06 0.0000000000000000e+00  -3.0705525909428573e-07 -4.8352443089450068e-07 0.0000000000000000e+00  -8.9310965640613512e-06 -5.4689057330661802e-06 0.0000000000000000e+00  -7.1999697340027740e-08 -8.1061124712755038e-08 0.0000000000000000e+00  -1.0398570951678528e-05 -5.7483198541274801e-06 0.0000000000000000e+00  -3.0952747409623013e-07 6.9101807206429938e-07 0.0000000000000000e+00  -6.7468360025364618e-06 -4.0295150319845379e-06 0.0000000000000000e+00  -7.6965270338403253e-06 -4.5141373530753241e-06 0.0000000000000000e+00  -1.3702140889839868e-07 -6.7020059703240018e-07 0.0000000000000000e+00  -5.3799031253180806e-08 -6.8873028883730937e-07 0.0000000000000000e+00  -4.2831739082205586e-06 -2.6820844403397267e-06 0.0000000000000000e+00  -5.8615386313643891e-06 -3.5609162790087862e-06 0.0000000000000000e+00  -5.3489735419327724e-07 -1.1859154720548362e-06 0.0000000000000000e+00  -3.5894876208599909e-06 -2.2749154849108881e-06 0.0000000000000000e+00  -1.1664985680237956e-07 -7.9297285902806292e-07 0.0000000000000000e+00  -8.0992466832871737e-07 -1.3962000479302983e-06 0.0000000000000000e+00  -2.9593023867598395e-06 -1.8916113351143517e-06 0.0000000000000000e+00  -5.0405399694590833e-06 -3.1111687333749086e-06 0.0000000000000000e+00  -1.1320622707528540e-06 -1.7310415069883179e-06 0.0000000000000000e+00  -2.3918269986867993e-06 -1.5335287956018948e-06 0.0000000000000000e+00  -4.4233025974592104e-07 -4.1032748464935147e-07 0.0000000000000000e+00  -4.3463635118701961e-07 3.6920199234187475e-07 0.0000000000000000e+00  -1.1251670147456341e-05 -6.768