<?xml version="1.0"?>
<VTKFile type="UnstructuredGrid"  version="0.1"  >
<UnstructuredGrid>
<Piece  NumberOfPoints="1419" NumberOfCells="2698">
<Points>
<DataArray  type="Float64"  NumberOfComponents="3"  format="ascii">0 0 0  0 0.41 0  2.5 0 0  2.5 0.41 0  0.6 0.19 0  0.6 0.21 0  0.25 0.2 0  0.15 0.2 0  0.2489897948556636 0.21 0  0.2489897948556636 0.19 0  0.6 0.2 0  0 0.3807142857143437 0  0 0.3514285714286952 0  0 0.3221428571430699 0  0 0.29285714285744 0  0 0.2635714285718054 0  0 0.2342857142861561 0  0 0.2050000000005308 0  0 0.175714285714732 0  0 0.1464285714289574 0  0 0.1171428571431897 0  0 0.08785714285737878 0  0 0.05857142857161107 0  0 0.02928571428580012 0  0.03015443760436003 0 0  0.06140001986583606 0 0  0.09377624077125973 0 0  0.1273239957535082 0 0  0.1620856860351972 0 0  0.1981052433264291 0 0  0.235428184091502 0 0  0.2741016576309132 0 0  0.3141745521465447 0 0  0.3556974926295285 0 0  0.3987229542472677 0 0  0.4433053055141081 0 0  0.4895008759286886 0 0  0.5373680609405097 0 0  0.5869673343216626 0 0  0.6383613676634521 0 0  0.6916151138468254 0 0  0.7467958595648856 0 0  0.8039733463919316 0 0  0.8632198139502143 0 0  0.9246101326867038 0 0  0.9882218810934433 0 0  1.054135445558498 0 0  1.122434100542598 0 0  1.193204177141305 0 0  1.266535089879536 0 0  1.342519516046404 0 0  1.421253448503939 0 0  1.502836389106271 0 0  1.587371439758838 0 0  1.674965418777374 0 0  1.765729001825544 0 0  1.859776908880082 0 0  1.957227977487062 0 0  2.058205329869943 0 0  2.162836591189951 0 0  2.271253957290865 0 0  2.383594446803425 0 0  2.5 0.1024999999997612 0  2.5 0.2049999999994743 0  2.5 0.3074999999997183 0  2.383594446803656 0.41 0  2.271253957291315 0.41 0  2.162836591190598 0.41 0  2.058205329870775 0.41 0  1.957227977488067 0.41 0  1.859776908881246 0.41 0  1.765729001826854 0.41 0  1.674965418778818 0.41 0  1.58737143976041 0.41 0  1.502836389107956 0.41 0  1.421253448505726 0.41 0  1.342519516048286 0.41 0  1.266535089881505 0.41 0  1.193204177143353 0.41 0  1.122434100544716 0.41 0  1.05413544556068 0.41 0  0.9882218810956305 0.41 0  0.9246101326886647 0.41 0  0.8632198139519631 0.41 0  0.8039733463934788 0.41 0  0.7467958595662458 0.41 0  0.6916151138480078 0.41 0  0.6383613676644679 0.41 0  0.5869673343225223 0.41 0  0.5373680609412221 0.41 0  0.4895008759292634 0.41 0  0.4433053055145528 0.41 0  0.3987229542475914 0.41 0  0.3556974926297398 0.41 0  0.3141745521466497 0.41 0  0.2741016576310038 0.41 0  0.2354281840915826 0.41 0  0.1981052433265003 0.41 0  0.1620856860352591 0.41 0  0.1273239957535623 0.41 0  0.09377624077128965 0.41 0  0.06140001986584975 0.41 0  0.03015443760436654 0.41 0  0.2497468076502589 0.2050254481002335 0  0.2497468076502614 0.1949745518997913 0  0.2469965252529372 0.1829317073451959 0  0.2439893735792749 0.1762316384219906 0  0.2400332147834255 0.1700443375285386 0  0.2352133972704371 0.1645032867342007 0  0.2296339016332438 0.1597280261969788 0  0.2234150974217223 0.1558215752574715 0  0.2166911463437691 0.1528682099456123 0  0.2096071079204251 0.1509316448471593 0  0.2023158100364996 0.1500536585536553 0  0.194974551899914 0.1502531923497262 0  0.1877417105387872 0.1515259415822739 0  0.1807733240461124 0.153844448527136 0  0.1742197252835808 0.15715869474974 0  0.1682222986673531 0.1613971801805478 0  0.162910430003803 0.1664684656256651 0  0.1583987151779087 0.1722631454351573 0  0.1547844879126891 0.178656207771761 0  0.1521457199348551 0.1855097315605723 0  0.1505393388476355 0.1926758619366523 0  0.1505393388476328 0.2073241380633295 0  0.1521457199348437 0.2144902684393899 0  0.1547844879126531 0.221343792228163 0  0.1583987151778488 0.2277368545647528 0  0.1629104300036858 0.2335315343742052 0  0.1682222986671726 0.2386028198193036 0  0.1742197252833576 0.2428413052501257 0  0.1807733240458683 0.2461555514727623 0  0.1877417105384929 0.2484740584176516 0  0.1949745518995776 0.2497468076502398 0  0.202315810036185 0.2499463414463592 0  0.2096071079201568 0.2490683551528932 0  0.2166911463435495 0.2471317900544655 0  0.2234150974215506 0.2441784247426195 0  0.2296339016331197 0.2402719738031125 0  0.2352133972703547 0.2354967132658811 0  0.2400332147833751 0.2299556624715287 0  0.2439893735792577 0.2237683615780412 0  0.246996525252926 0.2170682926548348 0  0.25645809709277 0.21 0  0.2639263993298655 0.21 0  0.271394701566961 0.21 0  0.2788630038040554 0.21 0  0.2863313060411479 0.21 0  0.2937996082782405 0.21 0  0.301267910515333 0.21 0  0.3087362127524279 0.21 0  0.3162045149895234 0.21 0  0.3236728172265972 0.21 0  0.3311411194636928 0.21 0  0.3386094217007701 0.21 0  0.3460777239378666 0.21 0  0.3535460261749672 0.21 0  0.3610143284120516 0.21 0  0.3684826306491596 0.21 0  0.3759509328862226 0.21 0  0.383419235123329 0.21 0  0.3908875373604028 0.21 0  0.3983558395975142 0.21 0  0.4058241418345938 0.21 0  0.4132924440716992 0.21 0  0.4207607463087888 0.21 0  0.4282290485459029 0.21 0  0.4356973507830418 0.21 0  0.4431656530201649 0.21 0  0.4506339552573136 0.21 0  0.4581022574944306 0.21 0  0.4655705597315852 0.21 0  0.4730388619686996 0.21 0  0.480507164205851 0.21 0  0.4879754664429498 0.21 0  0.4954437686800938 0.21 0  0.502912070917267 0.21 0  0.5103803731544119 0.21 0  0.5178486753915261 0.21 0  0.5253169776286404 0.21 0  0.5327852798657868 0.21 0  0.5402535821029386 0.21 0  0.54772188434007 0.21 0  0.5551901865771842 0.21 0  0.5626584888143201 0.21 0  0.5701267910514778 0.21 0  0.5775950932886138 0.21 0  0.5850633955257281 0.21 0  0.5925316977628483 0.21 0  0.6 0.2050000000000054 0  0.6 0.1950000000000217 0  0.5925316977628897 0.19 0  0.5850633955257988 0.19 0  0.5775950932887378 0.19 0  0.5701267910515998 0.19 0  0.5626584888145268 0.19 0  0.5551901865773963 0.19 0  0.547721884340339 0.19 0  0.5402535821032429 0.19 0  0.5327852798661811 0.19 0  0.5253169776290537 0.19 0  0.5178486753919799 0.19 0  0.5103803731549078 0.19 0  0.502912070917822 0.19 0  0.4954437686807294 0.19 0  0.4879754664436223 0.19 0  0.4805071642065402 0.19 0  0.4730388619694271 0.19 0  0.4655705597323621 0.19 0  0.4581022574952563 0.19 0  0.4506339552581777 0.19 0  0.4431656530210671 0.19 0  0.4356973507839815 0.19 0  0.4282290485468779 0.19 0  0.4207607463097617 0.19 0  0.4132924440726327 0.19 0  0.4058241418354857 0.19 0  0.3983558395983636 0.19 0  0.3908875373612097 0.19 0  0.3834192351240934 0.19 0  0.3759509328869369 0.19 0  0.3684826306498175 0.19 0  0.361014328412667 0.19 0  0.3535460261755617 0.19 0  0.3460777239384295 0.19 0  0.3386094217012945 0.19 0  0.3311411194641595 0.19 0  0.3236728172270245 0.19 0  0.3162045149898895 0.19 0  0.3087362127527544 0.19 0  0.3012679105156187 0.19 0  0.2937996082784807 0.19 0  0.2863313060413428 0.19 0  0.2788630038042048 0.19 0  0.2713947015670686 0.19 0  0.2639263993299336 0.19 0  0.2564580970927985 0.19 0  0.2607803159922026 0.2000727136295815 0  0.5887803774232762 0.2001272386983733 0  0.5745072403740523 0.2002044435018727 0  0.5511891430099709 0.2001122610077113 0  0.2751288526855082 0.20000000000002 0  0.5365194309847112 0.1999999999999436 0  0.2894621222999649 0.1998691686390484 0  0.5215828265105155 0.1999999999999228 0  0.3127789816668748 0.1998657885438805 0  0.3274069683451451 0.2000000000000796 0  0.5066462220363641 0.199999999999908 0  0.3650630746574081 0.199866017807523 0  0.476773013087985 0.1999999999998713 0  0.3417402379596385 0.1998691686391011 0  0.3796850840047755 0.200000000000134 0  0.4618364086138087 0.1999999999998546 0  0.4917096175621762 0.1999999999998808 0  0.3946216884789568 0.2000000000001512 0  0.446899804139621 0.1999999999998389 0  0.4089549580935208 0.1998691686391595 0  0.4322718174608562 0.200127451265745 0  0.4201487168029707 0.1999966199048527 0  0.3528922713220932 0.2000185703532356 0  0.5633122436674589 0.1999814296467508 0  0.3006558810093873 0.1999966199048318 0  0.5815926498168407 0.1966545283159175 0  0.2677053789419034 0.1964246479135325 0  0.5290511287476175 0.1970915826863981 0  0.5439877332217911 0.197091582686394 0  0.2825131256993216 0.2035478995978015 0  0.3199386661080599 0.202908417313604 0  0.4842413153250809 0.1970915826863873 0  0.5141145242734466 0.1970915826863843 0  0.3722167817676917 0.2029084173136195 0  0.4693047108508938 0.1970915826863783 0  0.3348752705822316 0.202908417313609 0  0.3871533862418661 0.2029084173136212 0  0.4543681063767183 0.1970915826863795 0  0.4991779197992749 0.1970915826863902 0  0.4020059614928624 0.203547899597858 0  0.4394315019025246 0.1970915826863714 0  0.2550657455369551 0.2034088125358657 0  0.2548908499171161 0.1966940311614271 0  0.5946539510196798 0.2024302972968126 0  0.267698176732111 0.2039977513680092 0  0.4261685417851465 0.196409292431739 0  0.3590076176283495 0.196411355804271 0  0.5571672426447437 0.2036011176410121 0  0.3066757059912147 0.1964092924317024 0  0.594380730180568 0.1966558399668133 0  0.4842413153245942 0.2040749161535287 0  0.4693047108503577 0.2040749161535231 0  0.3871533862424271 0.1959250838464788 0  0.372246743208829 0.1959123236376545 0  0.5141145242731028 0.2040749161535395 0  0.4543681063761134 0.2040749161535186 0  0.4019979587101454 0.1959834479682427 0  0.4394608940728603 0.2040870543693135 0  0.5439623148931173 0.2040856076781014 0  0.5290511287473298 0.2040749161535501 0  0.4991779197988497 0.2040749161535382 0  0.3347912413592433 0.1959225448935183 0  0.3199680582793816 0.1959123018030061 0  0.2825051229162361 0.1959834479681729 0  0.3590471196690275 0.2036304442587945 0  0.5571594006495384 0.1963685282145804 0  0.3067669986803285 0.203627750582736 0  0.4262598344738712 0.2036568242185335 0  0.5814408164431408 0.2041285596160068 0  0.5688286748170428 0.1961819304477386 0  0.4145905603063645 0.2038180695522843 0  0.3473758401724931 0.2038180695522752 0  0.2950977245128307 0.2038180695522663 0  0.5688286748170693 0.203818069552238 0  0.2950977245127906 0.1961819304477774 0  0.3473758401723931 0.1961819304478349 0  0.4145905603061963 0.1961819304479011 0  0.2601812407614425 0.2056861609747042
[...]
<PointData  Vectors="f_46-2"> 
<DataArray  type="Float64"  Name="f_46-2"  NumberOfComponents="3" format="ascii">0.0000000000000000e+00 0.0000000000000000e+00 0.0000000000000000e+00  0.0000000000000000e+00 0.0000000000000000e+00 0.0000000000000000e+00  0.0000000000000000e+00 0.0000000000000000e+00 0.0000000000000000e+00  0.0000000000000000e+00 0.0000000000000000e+00 0.0000000000000000e+00  -9.1416109141441382e-06 -6.7485190697940950e-07 0.0000000000000000e+00  -8.9847108314147943e-06 -1.8170664354603082e-06 0.0000000000000000e+00  3.2836339964012541e-25 0.0000000000000000e+00 0.0000000000000000e+00  0.0000000000000000e+00 0.0000000000000000e+00 0.0000000000000000e+00  0.0000000000000000e+00 0.0000000000000000e+00 0.0000000000000000e+00  0.0000000000000000e+00 0.0000000000000000e+00 0.0000000000000000e+00  -9.1016092532134631e-06 -1.2458095118001741e-06 0.0000000000000000e+00  0.0000000000000000e+00 0.0000000000000000e+00 0.0000000000000000e+00  0.0000000000000000e+00 0.0000000000000000e+00 0.0000000000000000e+00  0.0000000000000000e+00 0.0000000000000000e+00 0.0000000000000000e+00  0.0000000000000000e+00 0.0000000000000000e+00 0.0000000000000000e+00  0.0000000000000000e+00 0.0000000000000000e+00 0.0000000000000000e+00  0.0000000000000000e+00 0.0000000000000000e+00 0.0000000000000000e+00  0.0000000000000000e+00 0.0000000000000000e+00 0.0000000000000000e+00  0.0000000000000000e+00 0.0000000000000000e+00 0.0000000000000000e+00  0.0000000000000000e+00 0.0000000000000000e+00 0.0000000000000000e+00  0.0000000000000000e+00 0.0000000000000000e+00 0.0000000000000000e+00  0.0000000000000000e+00 0.0000000000000000e+00 0.0000000000000000e+00  0.0000000000000000e+00 0.0000000000000000e+00 0.0000000000000000e+00  0.0000000000000000e+00 0.0000000000000000e+00 0.0000000000000000e+00  0.0000000000000000e+00 0.0000000000000000e+00 0.0000000000000000e+00  0.0000000000000000e+00 0.0000000000000000e+00 0.0000000000000000e+00  0.0000000000000000e+00 0.0000000000000000e+00 0.0000000000000000e+00  0.0000000000000000e+00 0.0000000000000000e+00 0.0000000000000000e+00  0.0000000000000000e+00 0.0000000000000000e+00 0.0000000000000000e+00  0.0000000000000000e+00 0.0000000000000000e+00 0.0000000000000000e+00  0.0000000000000000e+00 0.0000000000000000e+00 0.0000000000000000e+00  0.0000000000000000e+00 0.0000000000000000e+00 0.0000000000000000e+00  0.0000000000000000e+00 0.0000000000000000e+00 0.0000000000000000e+00  0.0000000000000000e+00 0.0000000000000000e+00 0.0000000000000000e+00  0.0000000000000000e+00 0.0000000000000000e+00 0.0000000000000000e+00  -2.4128316689807921e-14 -2.1323916454508413e-17 0.0000000000000000e+00  0.0000000000000000e+00 0.0000000000000000e+00 0.0000000000000000e+00  0.0000000000000000e+00 0.0000000000000000e+00 0.0000000000000000e+00  0.0000000000000000e+00 0.0000000000000000e+00 0.0000000000000000e+00  0.0000000000000000e+00 0.0000000000000000e+00 0.0000000000000000e+00  0.0000000000000000e+00 0.0000000000000000e+00 0.0000000000000000e+00  0.0000000000000000e+00 0.0000000000000000e+00 0.0000000000000000e+00  0.0000000000000000e+00 0.0000000000000000e+00 0.0000000000000000e+00  0.0000000000000000e+00 0.0000000000000000e+00 0.0000000000000000e+00  0.0000000000000000e+00 0.0000000000000000e+00 0.0000000000000000e+00  0.0000000000000000e+00 0.0000000000000000e+00 0.0000000000000000e+00  0.0000000000000000e+00 0.0000000000000000e+00 0.0000000000000000e+00  0.0000000000000000e+00 0.0000000000000000e+00 0.0000000000000000e+00  0.0000000000000000e+00 0.0000000000000000e+00 0.0000000000000000e+00  0.0000000000000000e+00 0.0000000000000000e+00 0.0000000000000000e+00  0.0000000000000000e+00 0.0000000000000000e+00 0.0000000000000000e+00  0.0000000000000000e+00 0.0000000000000000e+00 0.0000000000000000e+00  0.0000000000000000e+00 0.0000000000000000e+00 0.0000000000000000e+00  0.0000000000000000e+00 0.0000000000000000e+00 0.0000000000000000e+00  0.0000000000000000e+00 0.0000000000000000e+00 0.0000000000000000e+00  0.0000000000000000e+00 0.0000000000000000e+00 0.0000000000000000e+00  0.0000000000000000e+00 0.0000000000000000e+00 0.0000000000000000e+00  0.0000000000000000e+00 0.0000000000000000e+00 0.0000000000000000e+00  0.0000000000000000e+00 0.0000000000000000e+00 0.0000000000000000e+00  0.0000000000000000e+00 0.0000000000000000e+00 0.0000000000000000e+00  0.0000000000000000e+00 0.0000000000000000e+00 0.0000000000000000e+00  0.0000000000000000e+00 0.0000000000000000e+00 0.0000000000000000e+00  0.0000000000000000e+00 0.0000000000000000e+00 0.0000000000000000e+00  0.0000000000000000e+00 0.0000000000000000e+00 0.0000000000000000e+00  0.0000000000000000e+00 0.0000000000000000e+00 0.0000000000000000e+00  0.0000000000000000e+00 0.0000000000000000e+00 0.0000000000000000e+00  0.0000000000000000e+00 0.0000000000000000e+00 0.0000000000000000e+00  0.0000000000000000e+00 0.0000000000000000e+00 0.0000000000000000e+00  0.0000000000000000e+00 0.0000000000000000e+00 0.0000000000000000e+00  0.0000000000000000e+00 0.0000000000000000e+00 0.0000000000000000e+00  0.0000000000000000e+00 0.0000000000000000e+00 0.0000000000000000e+00  0.0000000000000000e+00 0.0000000000000000e+00 0.0000000000000000e+00  0.0000000000000000e+00 0.0000000000000000e+00 0.0000000000000000e+00  0.0000000000000000e+00 0.0000000000000000e+00 0.0000000000000000e+00  0.0000000000000000e+00 0.0000000000000000e+00 0.0000000000000000e+00  0.0000000000000000e+00 0.0000000000000000e+00 0.0000000000000000e+00  0.0000000000000000e+00 0.0000000000000000e+00 0.0000000000000000e+00  0.0000000000000000e+00 0.0000000000000000e+00 0.0000000000000000e+00  0.0000000000000000e+00 0.0000000000000000e+00 0.0000000000000000e+00  0.0000000000000000e+00 0.0000000000000000e+00 0.0000000000000000e+00  0.0000000000000000e+00 0.0000000000000000e+00 0.0000000000000000e+00  0.0000000000000000e+00 0.0000000000000000e+00 0.0000000000000000e+00  0.0000000000000000e+00 0.0000000000000000e+00 0.0000000000000000e+00  0.0000000000000000e+00 0.0000000000000000e+00 0.0000000000000000e+00  0.0000000000000000e+00 0.0000000000000000e+00 0.0000000000000000e+00  0.0000000000000000e+00 0.0000000000000000e+00 0.0000000000000000e+00  0.0000000000000000e+00 0.0000000000000000e+00 0.0000000000000000e+00  0.0000000000000000e+00 0.0000000000000000e+00 0.0000000000000000e+00  0.0000000000000000e+00 0.0000000000000000e+00 0.0000000000000000e+00  0.0000000000000000e+00 0.0000000000000000e+00 0.0000000000000000e+00  0.0000000000000000e+00 0.0000000000000000e+00 0.0000000000000000e+00  0.0000000000000000e+00 0.0000000000000000e+00 0.0000000000000000e+00  0.0000000000000000e+00 0.0000000000000000e+00 0.0000000000000000e+00  0.0000000000000000e+00 0.0000000000000000e+00 0.0000000000000000e+00  -9.4457018737090892e-15 1.6526102431764456e-17 0.0000000000000000e+00  0.0000000000000000e+00 0.0000000000000000e+00 0.0000000000000000e+00  0.0000000000000000e+00 0.0000000000000000e+00 0.0000000000000000e+00  0.0000000000000000e+00 0.0000000000000000e+00 0.0000000000000000e+00  0.0000000000000000e+00 0.0000000000000000e+00 0.0000000000000000e+00  0.0000000000000000e+00 0.0000000000000000e+00 0.0000000000000000e+00  0.0000000000000000e+00 0.0000000000000000e+00 0.0000000000000000e+00  0.0000000000000000e+00 0.0000000000000000e+00 0.0000000000000000e+00  0.0000000000000000e+00 0.0000000000000000e+00 0.0000000000000000e+00  0.0000000000000000e+00 0.0000000000000000e+00 0.0000000000000000e+00  0.0000000000000000e+00 0.0000000000000000e+00 0.0000000000000000e+00  4.2944479309949885e-15 -3.1494412107769053e-14 0.0000000000000000e+00  0.0000000000000000e+00 0.0000000000000000e+00 0.0000000000000000e+00  0.0000000000000000e+00 0.0000000000000000e+00 0.0000000000000000e+00  0.0000000000000000e+00 0.0000000000000000e+00 0.0000000000000000e+00  0.0000000000000000e+00 0.0000000000000000e+00 0.0000000000000000e+00  1.5405017528682678e-14 0.0000000000000000e+00 0.0000000000000000e+00  0.0000000000000000e+00 0.0000000000000000e+00 0.0000000000000000e+00  0.0000000000000000e+00 0.0000000000000000e+00 0.0000000000000000e+00  0.0000000000000000e+00 0.0000000000000000e+00 0.0000000000000000e+00  0.0000000000000000e+00 0.0000000000000000e+00 0.0000000000000000e+00  0.0000000000000000e+00 0.0000000000000000e+00 0.0000000000000000e+00  0.0000000000000000e+00 0.0000000000000000e+00 0.0000000000000000e+00  0.0000000000000000e+00 0.0000000000000000e+00 0.0000000000000000e+00  0.0000000000000000e+00 0.0000000000000000e+00 0.0000000000000000e+00  0.0000000000000000e+00 0.0000000000000000e+00 0.0000000000000000e+00  0.0000000000000000e+00 0.0000000000000000e+00 0.0000000000000000e+00  0.0000000000000000e+00 0.0000000000000000e+00 0.0000000000000000e+00  0.0000000000000000e+00 0.0000000000000000e+00 0.0000000000000000e+00  0.0000000000000000e+00 0.0000000000000000e+00 0.0000000000000000e+00  0.0000000000000000e+00 0.0000000000000000e+00 0.0000000000000000e+00  0.0000000000000000e+00 0.0000000000000000e+00 0.0000000000000000e+00  0.0000000000000000e+00 0.0000000000000000e+00 0.0000000000000000e+00  0.0000000000000000e+00 0.0000000000000000e+00 0.0000000000000000e+00  0.0000000000000000e+00 0.0000000000000000e+00 0.0000000000000000e+00  0.0000000000000000e+00 0.0000000000000000e+00 0.0000000000000000e+00  0.0000000000000000e+00 0.0000000000000000e+00 0.0000000000000000e+00  0.0000000000000000e+00 0.0000000000000000e+00 0.0000000000000000e+00  0.0000000000000000e+00 0.0000000000000000e+00 0.0000000000000000e+00  0.0000000000000000e+00 0.0000000000000000e+00 0.0000000000000000e+00  0.0000000000000000e+00 0.0000000000000000e+00 0.0000000000000000e+00  0.0000000000000000e+00 0.0000000000000000e+00 0.0000000000000000e+00  0.0000000000000000e+00 0.0000000000000000e+00 0.0000000000000000e+00  0.0000000000000000e+00 0.0000000000000000e+00 0.0000000000000000e+00  0.0000000000000000e+00 0.0000000000000000e+00 0.0000000000000000e+00  0.0000000000000000e+00 0.0000000000000000e+00 0.0000000000000000e+00  0.0000000000000000e+00 0.0000000000000000e+00 0.0000000000000000e+00  0.0000000000000000e+00 0.0000000000000000e+00 0.0000000000000000e+00  -9.4636914291835166e-16 -1.0300283028968223e-15 0.0000000000000000e+00  -1.4474933527346281e-07 -9.0679244180092815e-07 0.0000000000000000e+00  -2.6885805205895319e-07 -9.7242327986257077e-07 0.0000000000000000e+00  -3.4879884683645228e-07 -9.8667514586019156e-07 0.0000000000000000e+00  -4.0765482015638218e-07 -9.7063615731808316e-07 0.0000000000000000e+00  -4.6041231406123091e-07 -9.5493929297555768e-07 0.0000000000000000e+00  -5.2041620104340835e-07 -9.4752759301254971e-07 0.0000000000000000e+00  -5.8483619503690131e-07 -9.4006294065527680e-07 0.0000000000000000e+00  -6.5724701367339967e-07 -9.3372549137694129e-07 0.0000000000000000e+00  -7.3403739617331300e-07 -9.2908718665236627e-07 0.0000000000000000e+00  -8.1857549701376295e-07 -9.2383817351198423e-07 0.0000000000000000e+00  -9.0904012810005786e-07 -9.2314080734725514e-07 0.0000000000000000e+00  -1.0068556058733109e-06 -9.2054825810385212e-07 0.0000000000000000e+00  -1.1119729114216051e-06 -9.2106285196178228e-07 0.0000000000000000e+00  -1.2228540778052498e-06 -9.2328570379005742e-07 0.0000000000000000e+00  -1.3426344152158597e-06 -9.2628258686788517e-07 0.0000000000000000e+00  -1.4672104756527643e-06 -9.3248839388549248e-07 0.0000000000000000e+00  -1.6003590160456029e-06 -9.3689927561444553e-07 0.0000000000000000e+00  -1.7402924772874273e-06 -9.4719184047260675e-07 0.0000000000000000e+00  -1.8879017111567412e-06 -9.5434319001447694e-07 0.0000000000000000e+00  -2.0420738862366909e-06 -9.6746025254618301e-07 0.0000000000000000e+00  -2.2040101826835262e-06 -9.7759006993972974e-07 0.0000000000000000e+00  -2.3741508057781254e-06 -9.9143356255876978e-07 0.0000000000000000e+00  -2.5496362782681348e-06 -1.0065720177082113e-06 0.0000000000000000e+00  -2.7342194969211145e-06 -1.0219565429019099e-06 0.0000000000000000e+00  -2.9237492687879304e-06 -1.0406811735139009e-06 0.0000000000000000e+00  -3.1220906527755189e-06 -1.0570263451094281e-06 0.0000000000000000e+00  -3.3279574796520012e-06 -1.0798787726887025e-06 0.0000000000000000e+00  -3.5409413984833978e-06 -1.0990501893333823e-06 0.0000000000000000e+00  -3.7614526472663586e-06 -1.1241260373251042e-06 0.0000000000000000e+00  -3.9890634021635134e-06 -1.1466136135539181e-06 0.0000000000000000e+00  -4.2239602175602925e-06 -1.1745569750752426e-06 0.0000000000000000e+00  -4.4665157621961209e-06 -1.2000409598227817e-06 0.0000000000000000e+00  -4.7157040955014509e-06 -1.2314740871447428e-06 0.0000000000000000e+00  -4.9729336529978971e-06 -1.2593552741369086e-06 0.0000000000000000e+00  -5.2379965456346565e-06 -1.2940561339232594e-06 0.0000000000000000e+00  -5.5102556486299253e-06 -1.3258924584580655e-06 0.0000000000000000e+00  -5.7897533839471836e-06 -1.3637470923543856e-06 0.0000000000000000e+00  -6.0767957493292770e-06 -1.3988146620264764e-06 0.0000000000000000e+00  -6.3715954131657816e-06 -1.4395313253690590e-06 0.0000000000000000e+00  -6.6745254035064166e-06 -1.4775939013845227e-06 0.0000000000000000e+00  -6.9858869849327151e-06 -1.5196188905554183e-06 0.0000000000000000e+00  -7.3034146534045700e-06 -1.5610644638680579e-06 0.0000000000000000e+00  -7.6307597674739134e-06 -1.6044421336217528e-06 0.0000000000000000e+00  -7.9625683427513550e-06 -1.6483108450861092e-06 0.0000000000000000e+00  -8.3032544864059423e-06 -1.6909407129300359e-06 0.0000000000000000e+00  -8.6466576835041994e-06 -1.7400759862426997e-06 0.0000000000000000e+00  -9.0574218800103131e-06 -1.5312919342878826e-06 0.0000000000000000e+00  -9.1336301641252362e-06 -9.6072714335317829e-07 0.0000000000000000e+00  -8.8008720043708280e-06 -6.3616769201817728e-07 0.0000000000000000e+00  -8.4542371161808405e-06 -5.7009999985532693e-07 0.0000000000000000e+00  -8.1109675341892349e-06 -5.0103795537083101e-07 0.0000000000000000e+00  -7.7758781557906883e-06 -4.3508819785683501e-07 0.0000000000000000e+00  -7.4457096334486448e-06 -3.7007689019547788e-07 0.0000000000000000e+00  -7.1254263320811930e-06 -3.0640874057197666e-07 0.0000000000000000e+00  -6.8106095266315779e-06 -2.4477163979624930e-07 0.0000000000000000e+00  -6.5046381430159068e-06 -1.8250999958214127e-07 0.0000000000000000e+00  -6.2055037297400701e-06 -1.2514558544143580e-07 0.0000000000000000e+00  -5.9143652669780279e-06 -6.5206640374182390e-08 0.0000000000000000e+00  -5.6302400623553140e-06 -1.0832041872216402e-08 0.0000000000000000e+00  -5.3542120099776786e-06 4.5747214664583183e-08 0.0000000000000000e+00  -5.0851015695299435e-06 9.6586821927088151e-08 0.0000000000000000e+00  -4.8238773365682342e-06 1.4967504644052556e-07 0.0000000000000000e+00  -4.5694543546324433e-06 1.9716843422756977e-07 0.0000000000000000e+00  -4.3230428680809603e-06 2.4708888805071114e-07 0.0000000000000000e+00  -4.0836614523224755e-06 2.9156767874602189e-07 0.0000000000000000e+00  -3.8523528578529327e-06 3.3841343772079772e-07 0.0000000000000000e+00  -3.6279790321636218e-06 3.7959521020542119e-07 0.0000000000000000e+00  -3.4113748977675524e-06 4.2320028849308992e-07 0.0000000000000000e+00  -3.2016207716020740e-06 4.6149655238765716e-07 0.0000000000000000e+00  -2.9996892345121800e-06 5.0215887640540706e-07 0.0000000000000000e+00  -2.8056860115568215e-06 5.3920774155632243e-07 0.0000000000000000e+00  -2.6176852317517136e-06 5.7567316259588016e-07 0.0000000000000000e+00  -2.4389733429276526e-06 6.1052809389493347e-07 0.0000000000000000e+00  -2.2646633869314102e-06 6.4326968482213387e-07 0.0000000000000000e+00  -2.0991441589335373e-06 6.7705358059557460e-07 0.0000000000000000e+00  -1.9404382641330951e-06 7.0512990839406535e-07 0.0000000000000000e+00  -1.7893015447511461e-06 7.3671769226179490e-07 0.0000000000000000e+00  -1.6453787755303112e-06 7.6183037375876451e-07 0.0000000000000000e+00  -1.5087140701914755e-06 7.9009258960812865e-07 0.0000000000000000e+00  -1.3798115788838308e-06 8.1329213710027374e-07 0.0000000000000000e+00  -1.2561957993760257e-06 8.3695499226091811e-07 0.0000000000000000e+00  -1.1413860564091085e-06 8.5786051044973890e-07 0.0000000000000000e+00  -1.0311401606113934e-06 8.7748075055804618e-07 0.0000000000000000e+00  -9.2934585159265130e-07 8.9651649611024200e-07 0.0000000000000000e+00  -8.3441140606940078e-07 9.1038594538593706e-07 0.0000000000000000e+00  -7.4644336404585511e-07 9.2618939021638036e-07 0.0000000000000000e+00  -6.6588546660188007e-07 9.3818921424235986e-07 0.0000000000000000e+00  -5.9042026596933246e-07 9.4961901697020936e-07 0.0000000000000000e+00  -5.2321540151415979e-07 9.5937474539448871e-07 0.0000000000000000e+00  -4.6002431005240855e-07 9.6717732215592302e-07 0.0000000000000000e+00  -4.0534495105714478e-07 9.8175175132991199e-07 0.0000000000000000e+00  -3.4409242635772945e-07 9.9310228328271841e-07 0.0000000000000000e+00  -2.6535133136012896e-07 9.7450131646744027e-07 0.0000000000000000e+00  -1.4596406947248809e-07 9.0235611452092428e-07 0.0000000000000000e+00  -3.8800300579498042e-07 -5.7093803888006120e-09 0.0000000000000000e+00  -8.5630261428314579e-06 -1.1652049521030621e-06 0.0000000000000000e+00  -7.8988919800973309e-06 -1.0627181418958549e-06 0.0000000000000000e+00  -6.8885251769362290e-06 -8.9112985392528853e-07 0.0000000000000000e+00  -3.8267867277097636e-07 4.3029955113393624e-09 0.0000000000000000e+00  -6.2922652000397765e-06 -7.8530245211669395e-07 0.0000000000000000e+00  -4.8615286022108788e-07 1.9481299280646216e-08 0.0000000000000000e+00  -5.7136211688528279e-06 -6.9018152116608925e-07 0.0000000000000000e+00  -7.0550119720849034e-07 1.3780593359526356e-08 0.0000000000000000e+00  -8.7525012283279943e-07 -8.8554597420367826e-09 0.0000000000000000e+00  -5.1650486571876334e-06 -6.0166599364395488e-07 0.0000000000000000e+00  -1.4314495158532304e-06 -5.1695501164944041e-08 0.0000000000000000e+00  -4.1574378033923298e-06 -4.4442308564895797e-07 0.0000000000000000e+00  -1.0655510023732768e-06 -1.2656613160136725e-08 0.0000000000000000e+00  -1.6963154306878448e-06 -9.5301746975659923e-08 0.0000000000000000e+00  -3.6981188330302342e-06 -3.7524098789766609e-07 0.0000000000000000e+00  -4.6463535161454369e-06 -5.1978606470877783e-07 0.0000000000000000e+00  -1.9946525396500199e-06 -1.3366954785623800e-07 0.0000000000000000e+00  -3.2682953530086178e-06 -3.1202361666510329e-07 0.0000000000000000e+00  -2.3080133804707746e-06 -1.6516280604939811e-07 0.0000000000000000e+00  -2.8746846369535435e-06 -2.6523850134604634e-07 0.0000000000000000e+00  -2.5735136333691817e-06 -2.1244186496663646e-07 0.0000000000000000e+00  -1.2338850108887508e-06 -4.2981741908308377e-08 0.0000000000000000e+00  -7.4081107883968324e-06 -9.6865272751894074e-07 0.0000000000000000e+00  -5.8600255697356362e-07 5.7474561100187337e-09 0.0000000000000000e+00  -8.2503496296252737e-06 -9.1554403706420736e-07 0.0000000000000000e+00  -3.5844918247140923e-07 3.7208880969481558e-07 0.0000000000000000e+00  -6.0178213509802348e-06 -5.5009474721637937e-07 0.0000000000000000e+00  -6.6126086102308890e-06 -6.5410420303799781e-07 0.0000000000000000e+00  -4.3352275956367950e-07 -3.3702241947386953e-07 0.0000000000000000e+00  -7.8369881766377870e-07 -2.7131303181911331e-07 0.0000000000000000e+00  -4.4131489182661301e-06 -2.7651132431914525e-07 0.0000000000000000e+00  -5.4530442039772910e-06 -4.5217636166706915e-07 0.0000000000000000e+00  -1.5516221710494936e-06 -3.2705736247959564e-07 0.0000000000000000e+00  -3.9378287664327925e-06 -1.9826982174785627e-07 0.0000000000000000e+00  -9.6836636179727671e-07 -2.7948567515661348e-07 0.0000000000000000e+00  -1.8348580845485434e-06 -3.5707727842797016e-07 0.0000000000000000e+00  -3.4922016732185572e-06 -1.2623355574758240e-07 0.0000000000000000e+00  -4.9182512461150876e-06 -3.6101699031856303e-07 0.0000000000000000e+00  -2.1425534779120331e-06 -4.4481113149508393e-07 0.0000000000000000e+00  -3.0758281906312664e-06 -6.0014372526582539e-08 0.0000000000000000e+00  -2.9327971641519810e-07 -2.1684916147370123e-07 0.0000000000000000e+00  -2.8640067797997550e-07 1.9516117505128237e-07 0.0000000000000000e+00  -8.8266192599632086e-06 -1.3385255936087422