<?xml version="1.0"?>
<VTKFile type="UnstructuredGrid"  version="0.1"  >
<UnstructuredGrid>
<Piece  NumberOfPoints="1419" NumberOfCells="2698">
<Points>
<DataArray  type="Float64"  NumberOfComponents="3"  format="ascii">0 0 0  0 0.41 0  2.5 0 0  2.5 0.41 0  0.6 0.19 0  0.6 0.21 0  0.25 0.2 0  0.15 0.2 0  0.2489897948556636 0.21 0  0.2489897948556636 0.19 0  0.6 0.2 0  0 0.3807142857143437 0  0 0.3514285714286952 0  0 0.3221428571430699 0  0 0.29285714285744 0  0 0.2635714285718054 0  0 0.2342857142861561 0  0 0.2050000000005308 0  0 0.175714285714732 0  0 0.1464285714289574 0  0 0.1171428571431897 0  0 0.08785714285737878 0  0 0.05857142857161107 0  0 0.02928571428580012 0  0.03015443760436003 0 0  0.06140001986583606 0 0  0.09377624077125973 0 0  0.1273239957535082 0 0  0.1620856860351972 0 0  0.1981052433264291 0 0  0.235428184091502 0 0  0.2741016576309132 0 0  0.3141745521465447 0 0  0.3556974926295285 0 0  0.3987229542472677 0 0  0.4433053055141081 0 0  0.4895008759286886 0 0  0.5373680609405097 0 0  0.5869673343216626 0 0  0.6383613676634521 0 0  0.6916151138468254 0 0  0.7467958595648856 0 0  0.8039733463919316 0 0  0.8632198139502143 0 0  0.9246101326867038 0 0  0.9882218810934433 0 0  1.054135445558498 0 0  1.122434100542598 0 0  1.193204177141305 0 0  1.266535089879536 0 0  1.342519516046404 0 0  1.421253448503939 0 0  1.502836389106271 0 0  1.587371439758838 0 0  1.674965418777374 0 0  1.765729001825544 0 0  1.859776908880082 0 0  1.957227977487062 0 0  2.058205329869943 0 0  2.162836591189951 0 0  2.271253957290865 0 0  2.383594446803425 0 0  2.5 0.1024999999997612 0  2.5 0.2049999999994743 0  2.5 0.3074999999997183 0  2.383594446803656 0.41 0  2.271253957291315 0.41 0  2.162836591190598 0.41 0  2.058205329870775 0.41 0  1.957227977488067 0.41 0  1.859776908881246 0.41 0  1.765729001826854 0.41 0  1.674965418778818 0.41 0  1.58737143976041 0.41 0  1.502836389107956 0.41 0  1.421253448505726 0.41 0  1.342519516048286 0.41 0  1.266535089881505 0.41 0  1.193204177143353 0.41 0  1.122434100544716 0.41 0  1.05413544556068 0.41 0  0.9882218810956305 0.41 0  0.9246101326886647 0.41 0  0.8632198139519631 0.41 0  0.8039733463934788 0.41 0  0.7467958595662458 0.41 0  0.6916151138480078 0.41 0  0.6383613676644679 0.41 0  0.5869673343225223 0.41 0  0.5373680609412221 0.41 0  0.4895008759292634 0.41 0  0.4433053055145528 0.41 0  0.3987229542475914 0.41 0  0.3556974926297398 0.41 0  0.3141745521466497 0.41 0  0.2741016576310038 0.41 0  0.2354281840915826 0.41 0  0.1981052433265003 0.41 0  0.1620856860352591 0.41 0  0.1273239957535623 0.41 0  0.09377624077128965 0.41 0  0.06140001986584975 0.41 0  0.03015443760436654 0.41 0  0.2497468076502589 0.2050254481002335 0  0.2497468076502614 0.1949745518997913 0  0.2469965252529372 0.1829317073451959 0  0.2439893735792749 0.1762316384219906 0  0.2400332147834255 0.1700443375285386 0  0.2352133972704371 0.1645032867342007 0  0.2296339016332438 0.1597280261969788 0  0.2234150974217223 0.1558215752574715 0  0.2166911463437691 0.1528682099456123 0  0.2096071079204251 0.1509316448471593 0  0.2023158100364996 0.1500536585536553 0  0.194974551899914 0.1502531923497262 0  0.1877417105387872 0.1515259415822739 0  0.1807733240461124 0.153844448527136 0  0.1742197252835808 0.15715869474974 0  0.1682222986673531 0.1613971801805478 0  0.162910430003803 0.1664684656256651 0  0.1583987151779087 0.1722631454351573 0  0.1547844879126891 0.178656207771761 0  0.1521457199348551 0.1855097315605723 0  0.1505393388476355 0.1926758619366523 0  0.1505393388476328 0.2073241380633295 0  0.1521457199348437 0.2144902684393899 0  0.1547844879126531 0.221343792228163 0  0.1583987151778488 0.2277368545647528 0  0.1629104300036858 0.2335315343742052 0  0.1682222986671726 0.2386028198193036 0  0.1742197252833576 0.2428413052501257 0  0.1807733240458683 0.2461555514727623 0  0.1877417105384929 0.2484740584176516 0  0.1949745518995776 0.2497468076502398 0  0.202315810036185 0.2499463414463592 0  0.2096071079201568 0.2490683551528932 0  0.2166911463435495 0.2471317900544655 0  0.2234150974215506 0.2441784247426195 0  0.2296339016331197 0.2402719738031125 0  0.2352133972703547 0.2354967132658811 0  0.2400332147833751 0.2299556624715287 0  0.2439893735792577 0.2237683615780412 0  0.246996525252926 0.2170682926548348 0  0.25645809709277 0.21 0  0.2639263993298655 0.21 0  0.271394701566961 0.21 0  0.2788630038040554 0.21 0  0.2863313060411479 0.21 0  0.2937996082782405 0.21 0  0.301267910515333 0.21 0  0.3087362127524279 0.21 0  0.3162045149895234 0.21 0  0.3236728172265972 0.21 0  0.3311411194636928 0.21 0  0.3386094217007701 0.21 0  0.3460777239378666 0.21 0  0.3535460261749672 0.21 0  0.3610143284120516 0.21 0  0.3684826306491596 0.21 0  0.3759509328862226 0.21 0  0.383419235123329 0.21 0  0.3908875373604028 0.21 0  0.3983558395975142 0.21 0  0.4058241418345938 0.21 0  0.4132924440716992 0.21 0  0.4207607463087888 0.21 0  0.4282290485459029 0.21 0  0.4356973507830418 0.21 0  0.4431656530201649 0.21 0  0.4506339552573136 0.21 0  0.4581022574944306 0.21 0  0.4655705597315852 0.21 0  0.4730388619686996 0.21 0  0.480507164205851 0.21 0  0.4879754664429498 0.21 0  0.4954437686800938 0.21 0  0.502912070917267 0.21 0  0.5103803731544119 0.21 0  0.5178486753915261 0.21 0  0.5253169776286404 0.21 0  0.5327852798657868 0.21 0  0.5402535821029386 0.21 0  0.54772188434007 0.21 0  0.5551901865771842 0.21 0  0.5626584888143201 0.21 0  0.5701267910514778 0.21 0  0.5775950932886138 0.21 0  0.5850633955257281 0.21 0  0.5925316977628483 0.21 0  0.6 0.2050000000000054 0  0.6 0.1950000000000217 0  0.5925316977628897 0.19 0  0.5850633955257988 0.19 0  0.5775950932887378 0.19 0  0.5701267910515998 0.19 0  0.5626584888145268 0.19 0  0.5551901865773963 0.19 0  0.547721884340339 0.19 0  0.5402535821032429 0.19 0  0.5327852798661811 0.19 0  0.5253169776290537 0.19 0  0.5178486753919799 0.19 0  0.5103803731549078 0.19 0  0.502912070917822 0.19 0  0.4954437686807294 0.19 0  0.4879754664436223 0.19 0  0.4805071642065402 0.19 0  0.4730388619694271 0.19 0  0.4655705597323621 0.19 0  0.4581022574952563 0.19 0  0.4506339552581777 0.19 0  0.4431656530210671 0.19 0  0.4356973507839815 0.19 0  0.4282290485468779 0.19 0  0.4207607463097617 0.19 0  0.4132924440726327 0.19 0  0.4058241418354857 0.19 0  0.3983558395983636 0.19 0  0.3908875373612097 0.19 0  0.3834192351240934 0.19 0  0.3759509328869369 0.19 0  0.3684826306498175 0.19 0  0.361014328412667 0.19 0  0.3535460261755617 0.19 0  0.3460777239384295 0.19 0  0.3386094217012945 0.19 0  0.3311411194641595 0.19 0  0.3236728172270245 0.19 0  0.3162045149898895 0.19 0  0.3087362127527544 0.19 0  0.3012679105156187 0.19 0  0.2937996082784807 0.19 0  0.2863313060413428 0.19 0  0.2788630038042048 0.19 0  0.2713947015670686 0.19 0  0.2639263993299336 0.19 0  0.2564580970927985 0.19 0  0.2607803159922026 0.2000727136295815 0  0.5887803774232762 0.2001272386983733 0  0.5745072403740523 0.2002044435018727 0  0.5511891430099709 0.2001122610077113 0  0.2751288526855082 0.20000000000002 0  0.5365194309847112 0.1999999999999436 0  0.2894621222999649 0.1998691686390484 0  0.5215828265105155 0.1999999999999228 0  0.3127789816668748 0.1998657885438805 0  0.3274069683451451 0.2000000000000796 0  0.5066462220363641 0.199999999999908 0  0.3650630746574081 0.199866017807523 0  0.476773013087985 0.1999999999998713 0  0.3417402379596385 0.1998691686391011 0  0.3796850840047755 0.200000000000134 0  0.4618364086138087 0.1999999999998546 0  0.4917096175621762 0.1999999999998808 0  0.3946216884789568 0.2000000000001512 0  0.446899804139621 0.1999999999998389 0  0.4089549580935208 0.1998691686391595 0  0.4322718174608562 0.200127451265745 0  0.4201487168029707 0.1999966199048527 0  0.3528922713220932 0.2000185703532356 0  0.5633122436674589 0.1999814296467508 0  0.3006558810093873 0.1999966199048318 0  0.5815926498168407 0.1966545283159175 0  0.2677053789419034 0.1964246479135325 0  0.5290511287476175 0.1970915826863981 0  0.5439877332217911 0.197091582686394 0  0.2825131256993216 0.2035478995978015 0  0.3199386661080599 0.202908417313604 0  0.4842413153250809 0.1970915826863873 0  0.5141145242734466 0.1970915826863843 0  0.3722167817676917 0.2029084173136195 0  0.4693047108508938 0.1970915826863783 0  0.3348752705822316 0.202908417313609 0  0.3871533862418661 0.2029084173136212 0  0.4543681063767183 0.1970915826863795 0  0.4991779197992749 0.1970915826863902 0  0.4020059614928624 0.203547899597858 0  0.4394315019025246 0.1970915826863714 0  0.2550657455369551 0.2034088125358657 0  0.2548908499171161 0.1966940311614271 0  0.5946539510196798 0.2024302972968126 0  0.267698176732111 0.2039977513680092 0  0.4261685417851465 0.196409292431739 0  0.3590076176283495 0.196411355804271 0  0.5571672426447437 0.2036011176410121 0  0.3066757059912147 0.1964092924317024 0  0.594380730180568 0.1966558399668133 0  0.4842413153245942 0.2040749161535287 0  0.4693047108503577 0.2040749161535231 0  0.3871533862424271 0.1959250838464788 0  0.372246743208829 0.1959123236376545 0  0.5141145242731028 0.2040749161535395 0  0.4543681063761134 0.2040749161535186 0  0.4019979587101454 0.1959834479682427 0  0.4394608940728603 0.2040870543693135 0  0.5439623148931173 0.2040856076781014 0  0.5290511287473298 0.2040749161535501 0  0.4991779197988497 0.2040749161535382 0  0.3347912413592433 0.1959225448935183 0  0.3199680582793816 0.1959123018030061 0  0.2825051229162361 0.1959834479681729 0  0.3590471196690275 0.2036304442587945 0  0.5571594006495384 0.1963685282145804 0  0.3067669986803285 0.203627750582736 0  0.4262598344738712 0.2036568242185335 0  0.5814408164431408 0.2041285596160068 0  0.5688286748170428 0.1961819304477386 0  0.4145905603063645 0.2038180695522843 0  0.3473758401724931 0.2038180695522752 0  0.2950977245128307 0.2038180695522663 0  0.5688286748170693 0.203818069552238 0  0.2950977245127906 0.1961819304477774 0  0.3473758401723931 0.1961819304478349 0  0.4145905603061963 0.1961819304479011 0  0.2601812407614425 0.2056861609747042
[...]
<PointData  Vectors="f_46-2"> 
<DataArray  type="Float64"  Name="f_46-2"  NumberOfComponents="3" format="ascii">0.0000000000000000e+00 0.0000000000000000e+00 0.0000000000000000e+00  0.0000000000000000e+00 0.0000000000000000e+00 0.0000000000000000e+00  0.0000000000000000e+00 0.0000000000000000e+00 0.0000000000000000e+00  0.0000000000000000e+00 0.0000000000000000e+00 0.0000000000000000e+00  1.6974613308784557e-05 -2.1965943864962490e-04 0.0000000000000000e+00  3.8035519383998115e-05 -2.2032641936658052e-04 0.0000000000000000e+00  0.0000000000000000e+00 0.0000000000000000e+00 0.0000000000000000e+00  0.0000000000000000e+00 0.0000000000000000e+00 0.0000000000000000e+00  0.0000000000000000e+00 0.0000000000000000e+00 0.0000000000000000e+00  0.0000000000000000e+00 0.0000000000000000e+00 0.0000000000000000e+00  2.7213597641418425e-05 -2.1999220310792722e-04 0.0000000000000000e+00  0.0000000000000000e+00 0.0000000000000000e+00 0.0000000000000000e+00  0.0000000000000000e+00 0.0000000000000000e+00 0.0000000000000000e+00  0.0000000000000000e+00 0.0000000000000000e+00 0.0000000000000000e+00  0.0000000000000000e+00 0.0000000000000000e+00 0.0000000000000000e+00  0.0000000000000000e+00 0.0000000000000000e+00 0.0000000000000000e+00  0.0000000000000000e+00 0.0000000000000000e+00 0.0000000000000000e+00  0.0000000000000000e+00 0.0000000000000000e+00 0.0000000000000000e+00  0.0000000000000000e+00 0.0000000000000000e+00 0.0000000000000000e+00  0.0000000000000000e+00 0.0000000000000000e+00 0.0000000000000000e+00  0.0000000000000000e+00 0.0000000000000000e+00 0.0000000000000000e+00  0.0000000000000000e+00 0.0000000000000000e+00 0.0000000000000000e+00  0.0000000000000000e+00 0.0000000000000000e+00 0.0000000000000000e+00  0.0000000000000000e+00 0.0000000000000000e+00 0.0000000000000000e+00  0.0000000000000000e+00 0.0000000000000000e+00 0.0000000000000000e+00  0.0000000000000000e+00 0.0000000000000000e+00 0.0000000000000000e+00  0.0000000000000000e+00 0.0000000000000000e+00 0.0000000000000000e+00  0.0000000000000000e+00 0.0000000000000000e+00 0.0000000000000000e+00  0.0000000000000000e+00 0.0000000000000000e+00 0.0000000000000000e+00  0.0000000000000000e+00 0.0000000000000000e+00 0.0000000000000000e+00  0.0000000000000000e+00 0.0000000000000000e+00 0.0000000000000000e+00  0.0000000000000000e+00 0.0000000000000000e+00 0.0000000000000000e+00  0.0000000000000000e+00 0.0000000000000000e+00 0.0000000000000000e+00  0.0000000000000000e+00 0.0000000000000000e+00 0.0000000000000000e+00  0.0000000000000000e+00 0.0000000000000000e+00 0.0000000000000000e+00  -3.8444914661220724e-13 -5.5554160613794393e-18 0.0000000000000000e+00  0.0000000000000000e+00 0.0000000000000000e+00 0.0000000000000000e+00  0.0000000000000000e+00 0.0000000000000000e+00 0.0000000000000000e+00  0.0000000000000000e+00 0.0000000000000000e+00 0.0000000000000000e+00  0.0000000000000000e+00 0.0000000000000000e+00 0.0000000000000000e+00  0.0000000000000000e+00 0.0000000000000000e+00 0.0000000000000000e+00  0.0000000000000000e+00 0.0000000000000000e+00 0.0000000000000000e+00  0.0000000000000000e+00 0.0000000000000000e+00 0.0000000000000000e+00  0.0000000000000000e+00 0.0000000000000000e+00 0.0000000000000000e+00  0.0000000000000000e+00 0.0000000000000000e+00 0.0000000000000000e+00  0.0000000000000000e+00 0.0000000000000000e+00 0.0000000000000000e+00  0.0000000000000000e+00 0.0000000000000000e+00 0.0000000000000000e+00  0.0000000000000000e+00 0.0000000000000000e+00 0.0000000000000000e+00  0.0000000000000000e+00 0.0000000000000000e+00 0.0000000000000000e+00  0.0000000000000000e+00 0.0000000000000000e+00 0.0000000000000000e+00  0.0000000000000000e+00 0.0000000000000000e+00 0.0000000000000000e+00  0.0000000000000000e+00 0.0000000000000000e+00 0.0000000000000000e+00  0.0000000000000000e+00 0.0000000000000000e+00 0.0000000000000000e+00  0.0000000000000000e+00 0.0000000000000000e+00 0.0000000000000000e+00  0.0000000000000000e+00 0.0000000000000000e+00 0.0000000000000000e+00  0.0000000000000000e+00 0.0000000000000000e+00 0.0000000000000000e+00  0.0000000000000000e+00 0.0000000000000000e+00 0.0000000000000000e+00  0.0000000000000000e+00 0.0000000000000000e+00 0.0000000000000000e+00  0.0000000000000000e+00 0.0000000000000000e+00 0.0000000000000000e+00  0.0000000000000000e+00 0.0000000000000000e+00 0.0000000000000000e+00  0.0000000000000000e+00 0.0000000000000000e+00 0.0000000000000000e+00  0.0000000000000000e+00 0.0000000000000000e+00 0.0000000000000000e+00  0.0000000000000000e+00 0.0000000000000000e+00 0.0000000000000000e+00  0.0000000000000000e+00 0.0000000000000000e+00 0.0000000000000000e+00  0.0000000000000000e+00 0.0000000000000000e+00 0.0000000000000000e+00  0.0000000000000000e+00 0.0000000000000000e+00 0.0000000000000000e+00  0.0000000000000000e+00 0.0000000000000000e+00 0.0000000000000000e+00  0.0000000000000000e+00 0.0000000000000000e+00 0.0000000000000000e+00  0.0000000000000000e+00 0.0000000000000000e+00 0.0000000000000000e+00  0.0000000000000000e+00 0.0000000000000000e+00 0.0000000000000000e+00  0.0000000000000000e+00 0.0000000000000000e+00 0.0000000000000000e+00  0.0000000000000000e+00 0.0000000000000000e+00 0.0000000000000000e+00  0.0000000000000000e+00 0.0000000000000000e+00 0.0000000000000000e+00  0.0000000000000000e+00 0.0000000000000000e+00 0.0000000000000000e+00  0.0000000000000000e+00 0.0000000000000000e+00 0.0000000000000000e+00  0.0000000000000000e+00 0.0000000000000000e+00 0.0000000000000000e+00  0.0000000000000000e+00 0.0000000000000000e+00 0.0000000000000000e+00  0.0000000000000000e+00 0.0000000000000000e+00 0.0000000000000000e+00  0.0000000000000000e+00 0.0000000000000000e+00 0.0000000000000000e+00  0.0000000000000000e+00 0.0000000000000000e+00 0.0000000000000000e+00  0.0000000000000000e+00 0.0000000000000000e+00 0.0000000000000000e+00  0.0000000000000000e+00 0.0000000000000000e+00 0.0000000000000000e+00  0.0000000000000000e+00 0.0000000000000000e+00 0.0000000000000000e+00  0.0000000000000000e+00 0.0000000000000000e+00 0.0000000000000000e+00  0.0000000000000000e+00 0.0000000000000000e+00 0.0000000000000000e+00  0.0000000000000000e+00 0.0000000000000000e+00 0.0000000000000000e+00  0.0000000000000000e+00 0.0000000000000000e+00 0.0000000000000000e+00  0.0000000000000000e+00 0.0000000000000000e+00 0.0000000000000000e+00  -9.8929884470559080e-12 0.0000000000000000e+00 0.0000000000000000e+00  0.0000000000000000e+00 0.0000000000000000e+00 0.0000000000000000e+00  0.0000000000000000e+00 0.0000000000000000e+00 0.0000000000000000e+00  0.0000000000000000e+00 0.0000000000000000e+00 0.0000000000000000e+00  0.0000000000000000e+00 0.0000000000000000e+00 0.0000000000000000e+00  0.0000000000000000e+00 0.0000000000000000e+00 0.0000000000000000e+00  1.5266139232245553e-12 -4.7795459750039983e-18 0.0000000000000000e+00  0.0000000000000000e+00 0.0000000000000000e+00 0.0000000000000000e+00  0.0000000000000000e+00 0.0000000000000000e+00 0.0000000000000000e+00  0.0000000000000000e+00 0.0000000000000000e+00 0.0000000000000000e+00  0.0000000000000000e+00 0.0000000000000000e+00 0.0000000000000000e+00  0.0000000000000000e+00 0.0000000000000000e+00 0.0000000000000000e+00  0.0000000000000000e+00 0.0000000000000000e+00 0.0000000000000000e+00  0.0000000000000000e+00 0.0000000000000000e+00 0.0000000000000000e+00  0.0000000000000000e+00 0.0000000000000000e+00 0.0000000000000000e+00  0.0000000000000000e+00 0.0000000000000000e+00 0.0000000000000000e+00  0.0000000000000000e+00 0.0000000000000000e+00 0.0000000000000000e+00  -5.3887086326315257e-13 6.1967213767301923e-13 0.0000000000000000e+00  0.0000000000000000e+00 0.0000000000000000e+00 0.0000000000000000e+00  0.0000000000000000e+00 0.0000000000000000e+00 0.0000000000000000e+00  0.0000000000000000e+00 0.0000000000000000e+00 0.0000000000000000e+00  0.0000000000000000e+00 0.0000000000000000e+00 0.0000000000000000e+00  1.3857993505764904e-13 0.0000000000000000e+00 0.0000000000000000e+00  0.0000000000000000e+00 0.0000000000000000e+00 0.0000000000000000e+00  0.0000000000000000e+00 0.0000000000000000e+00 0.0000000000000000e+00  0.0000000000000000e+00 0.0000000000000000e+00 0.0000000000000000e+00  0.0000000000000000e+00 0.0000000000000000e+00 0.0000000000000000e+00  0.0000000000000000e+00 0.0000000000000000e+00 0.0000000000000000e+00  0.0000000000000000e+00 0.0000000000000000e+00 0.0000000000000000e+00  0.0000000000000000e+00 0.0000000000000000e+00 0.0000000000000000e+00  0.0000000000000000e+00 0.0000000000000000e+00 0.0000000000000000e+00  0.0000000000000000e+00 0.0000000000000000e+00 0.0000000000000000e+00  0.0000000000000000e+00 0.0000000000000000e+00 0.0000000000000000e+00  0.0000000000000000e+00 0.0000000000000000e+00 0.0000000000000000e+00  0.0000000000000000e+00 0.0000000000000000e+00 0.0000000000000000e+00  0.0000000000000000e+00 0.0000000000000000e+00 0.0000000000000000e+00  0.0000000000000000e+00 0.0000000000000000e+00 0.0000000000000000e+00  0.0000000000000000e+00 0.0000000000000000e+00 0.0000000000000000e+00  0.0000000000000000e+00 0.0000000000000000e+00 0.0000000000000000e+00  0.0000000000000000e+00 0.0000000000000000e+00 0.0000000000000000e+00  0.0000000000000000e+00 0.0000000000000000e+00 0.0000000000000000e+00  0.0000000000000000e+00 0.0000000000000000e+00 0.0000000000000000e+00  0.0000000000000000e+00 0.0000000000000000e+00 0.0000000000000000e+00  0.0000000000000000e+00 0.0000000000000000e+00 0.0000000000000000e+00  0.0000000000000000e+00 0.0000000000000000e+00 0.0000000000000000e+00  0.0000000000000000e+00 0.0000000000000000e+00 0.0000000000000000e+00  0.0000000000000000e+00 0.0000000000000000e+00 0.0000000000000000e+00  0.0000000000000000e+00 0.0000000000000000e+00 0.0000000000000000e+00  0.0000000000000000e+00 0.0000000000000000e+00 0.0000000000000000e+00  0.0000000000000000e+00 0.0000000000000000e+00 0.0000000000000000e+00  0.0000000000000000e+00 0.0000000000000000e+00 0.0000000000000000e+00  0.0000000000000000e+00 0.0000000000000000e+00 0.0000000000000000e+00  0.0000000000000000e+00 0.0000000000000000e+00 0.0000000000000000e+00  0.0000000000000000e+00 0.0000000000000000e+00 0.0000000000000000e+00  -2.1188426400223783e-13 5.6084824779774077e-12 0.0000000000000000e+00  5.5306185620672799e-07 -5.9408699210818283e-07 0.0000000000000000e+00  1.2283531005731636e-06 -4.7491175246884408e-07 0.0000000000000000e+00  2.0370816644186836e-06 -3.6132650867864730e-07 0.0000000000000000e+00  2.9516877747095853e-06 -2.8431903744541931e-07 0.0000000000000000e+00  3.9150092384435654e-06 -3.5260545697226387e-07 0.0000000000000000e+00  4.9810784008882090e-06 -5.8970936567748684e-07 0.0000000000000000e+00  6.0398325545909498e-06 -9.9836176554893405e-07 0.0000000000000000e+00  7.1440417718252241e-06 -1.6665226168837513e-06 0.0000000000000000e+00  8.3472542701581038e-06 -2.5654154923219542e-06 0.0000000000000000e+00  9.4937753797777831e-06 -3.7440173791675881e-06 0.0000000000000000e+00  1.0766142430783959e-05 -5.2178590485938033e-06 0.0000000000000000e+00  1.1946922309674881e-05 -7.0079420818577741e-06 0.0000000000000000e+00  1.3238235029171075e-05 -9.1211870242300986e-06 0.0000000000000000e+00  1.4442508233530166e-05 -1.1520446204780273e-05 0.0000000000000000e+00  1.5652772615252238e-05 -1.4296674515760363e-05 0.0000000000000000e+00  1.6943215216230779e-05 -1.7376390264219644e-05 0.0000000000000000e+00  1.8114753271050956e-05 -2.0785534515619552e-05 0.0000000000000000e+00  1.9383883930826745e-05 -2.4535744524574972e-05 0.0000000000000000e+00  2.0517782643288255e-05 -2.8601225854303249e-05 0.0000000000000000e+00  2.1730547552290964e-05 -3.2982599331172280e-05 0.0000000000000000e+00  2.2834269458251297e-05 -3.7671231646510261e-05 0.0000000000000000e+00  2.3976398688529292e-05 -4.2673769900277242e-05 0.0000000000000000e+00  2.5014478636334578e-05 -4.7912278554162671e-05 0.0000000000000000e+00  2.6022650050927474e-05 -5.3460600324283428e-05 0.0000000000000000e+00  2.7056542214348158e-05 -5.9227174889693670e-05 0.0000000000000000e+00  2.7999261504603918e-05 -6.5243610199493932e-05 0.0000000000000000e+00  2.8920321021331887e-05 -7.1498229798868640e-05 0.0000000000000000e+00  2.9777402827030518e-05 -7.7934142489349356e-05 0.0000000000000000e+00  3.0607433577871191e-05 -8.4583346586057434e-05 0.0000000000000000e+00  3.1374524780134510e-05 -9.1378961024987879e-05 0.0000000000000000e+00  3.2110796098221561e-05 -9.8355831181397922e-05 0.0000000000000000e+00  3.2786182118413917e-05 -1.0544578324775083e-04 0.0000000000000000e+00  3.3427784052069461e-05 -1.1268585182248518e-04 0.0000000000000000e+00  3.4012455400108071e-05 -1.2000782301879265e-04 0.0000000000000000e+00  3.4559889052927210e-05 -1.2745155662976037e-04 0.0000000000000000e+00  3.5054519006641904e-05 -1.3494994417128444e-04 0.0000000000000000e+00  3.5512088212486450e-05 -1.4254303148809354e-04 0.0000000000000000e+00  3.5920871620715458e-05 -1.5016832160138536e-04 0.0000000000000000e+00  3.6292160576749255e-05 -1.5786571420578548e-04 0.0000000000000000e+00  3.6617101949777564e-05 -1.6557579352408157e-04 0.0000000000000000e+00  3.6901490204750115e-05 -1.7333413103043987e-04 0.0000000000000000e+00  3.7149054895087085e-05 -1.8110241728060603e-04 0.0000000000000000e+00  3.7356772503938631e-05 -1.8889349090953121e-04 0.0000000000000000e+00  3.7543947740934962e-05 -1.9669332206096241e-04 0.0000000000000000e+00  3.7688033807930192e-05 -2.0449028506612339e-04 0.0000000000000000e+00  3.7832396045443144e-05 -2.1232858553589797e-04 0.0000000000000000e+00  3.2525149098390607e-05 -2.2015409135450132e-04 0.0000000000000000e+00  2.2008304399687463e-05 -2.1983436945080358e-04 0.0000000000000000e+00  1.6791846013772447e-05 -2.1194086879329911e-04 0.0000000000000000e+00  1.6676588431445823e-05 -2.0406520276771930e-04 0.0000000000000000e+00  1.6559381519079934e-05 -1.9617492822840305e-04 0.0000000000000000e+00  1.6414808674485125e-05 -1.8830908330021859e-04 0.0000000000000000e+00  1.6251272826561860e-05 -1.8045429357612191e-04 0.0000000000000000e+00  1.6059636788712794e-05 -1.7262012712820915e-04 0.0000000000000000e+00  1.5857925569000143e-05 -1.6481252274343517e-04 0.0000000000000000e+00  1.5621610278212471e-05 -1.5702344352117996e-04 0.0000000000000000e+00  1.5381169505424851e-05 -1.4929074929448489e-04 0.0000000000000000e+00  1.5106892746643586e-05 -1.4158769499393267e-04 0.0000000000000000e+00  1.4839157251301917e-05 -1.3396023364281584e-04 0.0000000000000000e+00  1.4534367074445635e-05 -1.2638551643094682e-04 0.0000000000000000e+00  1.4247537084442732e-05 -1.1890921738026813e-04 0.0000000000000000e+00  1.3918539832685631e-05 -1.1151352520626852e-04 0.0000000000000000e+00  1.3620343194740762e-05 -1.0424268571356251e-04 0.0000000000000000e+00  1.3272530837939431e-05 -9.7082663637371907e-05 0.0000000000000000e+00  1.2968414380654800e-05 -9.0077080741032551e-05 0.0000000000000000e+00  1.2606981487900443e-05 -8.3215609297552227e-05 0.0000000000000000e+00  1.2302997033344320e-05 -7.6540099455559804e-05 0.0000000000000000e+00  1.1932652114288315e-05 -7.0043262846689828e-05 0.0000000000000000e+00  1.1634307560522737e-05 -6.3766077605680887e-05 0.0000000000000000e+00  1.1259859295904174e-05 -5.7704123728700091e-05 0.0000000000000000e+00  1.0959352457550826e-05 -5.1893792436607550e-05 0.0000000000000000e+00  1.0596725310557852e-05 -4.6314147106843502e-05 0.0000000000000000e+00  1.0228235389857956e-05 -4.1048309518471939e-05 0.0000000000000000e+00  9.9286221046535671e-06 -3.6012513337063287e-05 0.0000000000000000e+00  9.5749091015855220e-06 -3.1301306761065494e-05 0.0000000000000000e+00  9.2560413339283853e-06 -2.6893474603234535e-05 0.0000000000000000e+00  8.9000278748523096e-06 -2.2804627607744899e-05 0.0000000000000000e+00  8.5712523589717016e-06 -1.9045518600577851e-05 0.0000000000000000e+00  8.2058651862886352e-06 -1.5603003882548813e-05 0.0000000000000000e+00  7.8924791907862113e-06 -1.2535483267890454e-05 0.0000000000000000e+00  7.4946397652907520e-06 -9.7460686844428611e-06 0.0000000000000000e+00  7.0824182237614393e-06 -7.3450758387538814e-06 0.0000000000000000e+00  6.7334352893968063e-06 -5.2115353254651669e-06 0.0000000000000000e+00  6.3173968406093532e-06 -3.4317528962802588e-06 0.0000000000000000e+00  5.9117827971204524e-06 -1.9650441365801505e-06 0.0000000000000000e+00  5.4554179764322827e-06 -7.8166995876603377e-07 0.0000000000000000e+00  5.0154572018356189e-06 8.9072605408809364e-08 0.0000000000000000e+00  4.4925270961766841e-06 7.4783392164156973e-07 0.0000000000000000e+00  3.9355045183616190e-06 1.1395229996255016e-06 0.0000000000000000e+00  3.3905608368793621e-06 1.3619149400995465e-06 0.0000000000000000e+00  2.7663149804221602e-06 1.4167979645239841e-06 0.0000000000000000e+00  2.1196549479877653e-06 1.3320003014237128e-06 0.0000000000000000e+00  1.4218982420893667e-06 1.1715917295259792e-06 0.0000000000000000e+00  7.1668487315067247e-07 9.2480337893656867e-07 0.0000000000000000e+00  8.8356436213474547e-07 2.6021912247896423e-07 0.0000000000000000e+00  2.7266926407620978e-05 -2.0818239670146286e-04 0.0000000000000000e+00  2.7154866048275176e-05 -1.9318859235893893e-04 0.0000000000000000e+00  2.6426156681665744e-05 -1.6878829577225240e-04 0.0000000000000000e+00  2.4650065462722046e-06 5.9653346462198347e-07 0.0000000000000000e+00  2.5756685813616656e-05 -1.5355160386400650e-04 0.0000000000000000e+00  3.9855552449200585e-06 5.5611034195863471e-07 0.0000000000000000e+00  2.5081980970250874e-05 -1.3820901482450486e-04 0.0000000000000000e+00  6.4967342281363436e-06 -1.0508976713052312e-06 0.0000000000000000e+00  8.1120211641789396e-06 -3.3623648355372923e-06 0.0000000000000000e+00  2.4293349049995832e-05 -1.2311833291375071e-04 0.0000000000000000e+00  1.2129823287308292e-05 -1.4811031728627149e-05 0.0000000000000000e+00  2.2389304771925276e-05 -9.4107645339264895e-05 0.0000000000000000e+00  9.6398366221550296e-06 -6.7329165797040195e-06 0.0000000000000000e+00  1.3720987321678940e-05 -2.1543569246155090e-05 0.0000000000000000e+00  2.1283407796855176e-05 -8.0427237264613278e-05 0.0000000000000000e+00  2.3394400517877049e-05 -1.0837969063758976e-04 0.0000000000000000e+00  1.5246719395043164e-05 -2.9703630621061000e-05 0.0000000000000000e+00  2.0081705870143355e-05 -6.7472351886456138e-05 0.0000000000000000e+00  1.6573491538095896e-05 -3.8702585486451472e-05 0.0000000000000000e+00  1.8922727789209147e-05 -5.5627152383911358e-05 0.0000000000000000e+00  1.7710336004126623e-05 -4.6542253548038301e-05 0.0000000000000000e+00  1.0885542322875581e-05 -1.0256021941265719e-05 0.0000000000000000e+00  2.6640817338111975e-05 -1.8145187724486365e-04 0.0000000000000000e+00  5.1949151976380309e-06 1.8714647214942342e-08 0.0000000000000000e+00  2.3546985386567310e-05 -2.0055358658159045e-04 0.0000000000000000e+00  1.6820509964176021e-06 7.6142160198488675e-07 0.0000000000000000e+00  2.2459347327000134e-05 -1.4572650939203904e-04 0.0000000000000000e+00  2.3041446435895581e-05 -1.6117703717174328e-04 0.0000000000000000e+00  3.3144676486660256e-06 3.2247124683306254e-07 0.0000000000000000e+00  7.7742149565720417e-06 -2.3318389169556251e-06 0.0000000000000000e+00  2.0144815820941471e-05 -1.0101010555286023e-04 0.0000000000000000e+00  2.1778716210192038e-05 -1.3048416574653598e-04 0.0000000000000000e+00  1.4276028618673861e-05 -1.8234470591931246e-05 0.0000000000000000e+00  1.9204865915329956e-05 -8.7006361609016832e-05 0.0000000000000000e+00  9.6252653735359123e-06 -5.2662057496094504e-06 0.0000000000000000e+00  1.6069175054603877e-05 -2.5741503050589574e-05 0.0000000000000000e+00  1.8191918575405362e-05 -7.3661058783242513e-05 0.0000000000000000e+00  2.1004948530034845e-05 -1.1554255729394087e-04 0.0000000000000000e+00  1.8195971658851273e-05 -3.4535378858732296e-05 0.0000000000000000e+00  1.7109762486319338e-05 -6.1110653329369231e-05 0.0000000000000000e+00  3.2435502894311384e-07 -8.1730204969988650e-08 0.0000000000000000e+00  3.2607080050494646e-07 2.7959860617584204e-07 0.0000000000000000e+00  2.9734175110006201e-05 -2.1441066275866308e-04 0.0000000000000000e+00  1.6502259092664295e-06 9.7406959694710672e-08 0.0000000000000000e+00  1.55930850143947