<?xml version="1.0"?>
<VTKFile type="UnstructuredGrid"  version="0.1"  >
<UnstructuredGrid>
<Piece  NumberOfPoints="1419" NumberOfCells="2698">
<Points>
<DataArray  type="Float64"  NumberOfComponents="3"  format="ascii">0 0 0  0 0.41 0  2.5 0 0  2.5 0.41 0  0.6 0.19 0  0.6 0.21 0  0.25 0.2 0  0.15 0.2 0  0.2489897948556636 0.21 0  0.2489897948556636 0.19 0  0.6 0.2 0  0 0.3807142857143437 0  0 0.3514285714286952 0  0 0.3221428571430699 0  0 0.29285714285744 0  0 0.2635714285718054 0  0 0.2342857142861561 0  0 0.2050000000005308 0  0 0.175714285714732 0  0 0.1464285714289574 0  0 0.1171428571431897 0  0 0.08785714285737878 0  0 0.05857142857161107 0  0 0.02928571428580012 0  0.03015443760436003 0 0  0.06140001986583606 0 0  0.09377624077125973 0 0  0.1273239957535082 0 0  0.1620856860351972 0 0  0.1981052433264291 0 0  0.235428184091502 0 0  0.2741016576309132 0 0  0.3141745521465447 0 0  0.3556974926295285 0 0  0.3987229542472677 0 0  0.4433053055141081 0 0  0.4895008759286886 0 0  0.5373680609405097 0 0  0.5869673343216626 0 0  0.6383613676634521 0 0  0.6916151138468254 0 0  0.7467958595648856 0 0  0.8039733463919316 0 0  0.8632198139502143 0 0  0.9246101326867038 0 0  0.9882218810934433 0 0  1.054135445558498 0 0  1.122434100542598 0 0  1.193204177141305 0 0  1.266535089879536 0 0  1.342519516046404 0 0  1.421253448503939 0 0  1.502836389106271 0 0  1.587371439758838 0 0  1.674965418777374 0 0  1.765729001825544 0 0  1.859776908880082 0 0  1.957227977487062 0 0  2.058205329869943 0 0  2.162836591189951 0 0  2.271253957290865 0 0  2.383594446803425 0 0  2.5 0.1024999999997612 0  2.5 0.2049999999994743 0  2.5 0.3074999999997183 0  2.383594446803656 0.41 0  2.271253957291315 0.41 0  2.162836591190598 0.41 0  2.058205329870775 0.41 0  1.957227977488067 0.41 0  1.859776908881246 0.41 0  1.765729001826854 0.41 0  1.674965418778818 0.41 0  1.58737143976041 0.41 0  1.502836389107956 0.41 0  1.421253448505726 0.41 0  1.342519516048286 0.41 0  1.266535089881505 0.41 0  1.193204177143353 0.41 0  1.122434100544716 0.41 0  1.05413544556068 0.41 0  0.9882218810956305 0.41 0  0.9246101326886647 0.41 0  0.8632198139519631 0.41 0  0.8039733463934788 0.41 0  0.7467958595662458 0.41 0  0.6916151138480078 0.41 0  0.6383613676644679 0.41 0  0.5869673343225223 0.41 0  0.5373680609412221 0.41 0  0.4895008759292634 0.41 0  0.4433053055145528 0.41 0  0.3987229542475914 0.41 0  0.3556974926297398 0.41 0  0.3141745521466497 0.41 0  0.2741016576310038 0.41 0  0.2354281840915826 0.41 0  0.1981052433265003 0.41 0  0.1620856860352591 0.41 0  0.1273239957535623 0.41 0  0.09377624077128965 0.41 0  0.06140001986584975 0.41 0  0.03015443760436654 0.41 0  0.2497468076502589 0.2050254481002335 0  0.2497468076502614 0.1949745518997913 0  0.2469965252529372 0.1829317073451959 0  0.2439893735792749 0.1762316384219906 0  0.2400332147834255 0.1700443375285386 0  0.2352133972704371 0.1645032867342007 0  0.2296339016332438 0.1597280261969788 0  0.2234150974217223 0.1558215752574715 0  0.2166911463437691 0.1528682099456123 0  0.2096071079204251 0.1509316448471593 0  0.2023158100364996 0.1500536585536553 0  0.194974551899914 0.1502531923497262 0  0.1877417105387872 0.1515259415822739 0  0.1807733240461124 0.153844448527136 0  0.1742197252835808 0.15715869474974 0  0.1682222986673531 0.1613971801805478 0  0.162910430003803 0.1664684656256651 0  0.1583987151779087 0.1722631454351573 0  0.1547844879126891 0.178656207771761 0  0.1521457199348551 0.1855097315605723 0  0.1505393388476355 0.1926758619366523 0  0.1505393388476328 0.2073241380633295 0  0.1521457199348437 0.2144902684393899 0  0.1547844879126531 0.221343792228163 0  0.1583987151778488 0.2277368545647528 0  0.1629104300036858 0.2335315343742052 0  0.1682222986671726 0.2386028198193036 0  0.1742197252833576 0.2428413052501257 0  0.1807733240458683 0.2461555514727623 0  0.1877417105384929 0.2484740584176516 0  0.1949745518995776 0.2497468076502398 0  0.202315810036185 0.2499463414463592 0  0.2096071079201568 0.2490683551528932 0  0.2166911463435495 0.2471317900544655 0  0.2234150974215506 0.2441784247426195 0  0.2296339016331197 0.2402719738031125 0  0.2352133972703547 0.2354967132658811 0  0.2400332147833751 0.2299556624715287 0  0.2439893735792577 0.2237683615780412 0  0.246996525252926 0.2170682926548348 0  0.25645809709277 0.21 0  0.2639263993298655 0.21 0  0.271394701566961 0.21 0  0.2788630038040554 0.21 0  0.2863313060411479 0.21 0  0.2937996082782405 0.21 0  0.301267910515333 0.21 0  0.3087362127524279 0.21 0  0.3162045149895234 0.21 0  0.3236728172265972 0.21 0  0.3311411194636928 0.21 0  0.3386094217007701 0.21 0  0.3460777239378666 0.21 0  0.3535460261749672 0.21 0  0.3610143284120516 0.21 0  0.3684826306491596 0.21 0  0.3759509328862226 0.21 0  0.383419235123329 0.21 0  0.3908875373604028 0.21 0  0.3983558395975142 0.21 0  0.4058241418345938 0.21 0  0.4132924440716992 0.21 0  0.4207607463087888 0.21 0  0.4282290485459029 0.21 0  0.4356973507830418 0.21 0  0.4431656530201649 0.21 0  0.4506339552573136 0.21 0  0.4581022574944306 0.21 0  0.4655705597315852 0.21 0  0.4730388619686996 0.21 0  0.480507164205851 0.21 0  0.4879754664429498 0.21 0  0.4954437686800938 0.21 0  0.502912070917267 0.21 0  0.5103803731544119 0.21 0  0.5178486753915261 0.21 0  0.5253169776286404 0.21 0  0.5327852798657868 0.21 0  0.5402535821029386 0.21 0  0.54772188434007 0.21 0  0.5551901865771842 0.21 0  0.5626584888143201 0.21 0  0.5701267910514778 0.21 0  0.5775950932886138 0.21 0  0.5850633955257281 0.21 0  0.5925316977628483 0.21 0  0.6 0.2050000000000054 0  0.6 0.1950000000000217 0  0.5925316977628897 0.19 0  0.5850633955257988 0.19 0  0.5775950932887378 0.19 0  0.5701267910515998 0.19 0  0.5626584888145268 0.19 0  0.5551901865773963 0.19 0  0.547721884340339 0.19 0  0.5402535821032429 0.19 0  0.5327852798661811 0.19 0  0.5253169776290537 0.19 0  0.5178486753919799 0.19 0  0.5103803731549078 0.19 0  0.502912070917822 0.19 0  0.4954437686807294 0.19 0  0.4879754664436223 0.19 0  0.4805071642065402 0.19 0  0.4730388619694271 0.19 0  0.4655705597323621 0.19 0  0.4581022574952563 0.19 0  0.4506339552581777 0.19 0  0.4431656530210671 0.19 0  0.4356973507839815 0.19 0  0.4282290485468779 0.19 0  0.4207607463097617 0.19 0  0.4132924440726327 0.19 0  0.4058241418354857 0.19 0  0.3983558395983636 0.19 0  0.3908875373612097 0.19 0  0.3834192351240934 0.19 0  0.3759509328869369 0.19 0  0.3684826306498175 0.19 0  0.361014328412667 0.19 0  0.3535460261755617 0.19 0  0.3460777239384295 0.19 0  0.3386094217012945 0.19 0  0.3311411194641595 0.19 0  0.3236728172270245 0.19 0  0.3162045149898895 0.19 0  0.3087362127527544 0.19 0  0.3012679105156187 0.19 0  0.2937996082784807 0.19 0  0.2863313060413428 0.19 0  0.2788630038042048 0.19 0  0.2713947015670686 0.19 0  0.2639263993299336 0.19 0  0.2564580970927985 0.19 0  0.2607803159922026 0.2000727136295815 0  0.5887803774232762 0.2001272386983733 0  0.5745072403740523 0.2002044435018727 0  0.5511891430099709 0.2001122610077113 0  0.2751288526855082 0.20000000000002 0  0.5365194309847112 0.1999999999999436 0  0.2894621222999649 0.1998691686390484 0  0.5215828265105155 0.1999999999999228 0  0.3127789816668748 0.1998657885438805 0  0.3274069683451451 0.2000000000000796 0  0.5066462220363641 0.199999999999908 0  0.3650630746574081 0.199866017807523 0  0.476773013087985 0.1999999999998713 0  0.3417402379596385 0.1998691686391011 0  0.3796850840047755 0.200000000000134 0  0.4618364086138087 0.1999999999998546 0  0.4917096175621762 0.1999999999998808 0  0.3946216884789568 0.2000000000001512 0  0.446899804139621 0.1999999999998389 0  0.4089549580935208 0.1998691686391595 0  0.4322718174608562 0.200127451265745 0  0.4201487168029707 0.1999966199048527 0  0.3528922713220932 0.2000185703532356 0  0.5633122436674589 0.1999814296467508 0  0.3006558810093873 0.1999966199048318 0  0.5815926498168407 0.1966545283159175 0  0.2677053789419034 0.1964246479135325 0  0.5290511287476175 0.1970915826863981 0  0.5439877332217911 0.197091582686394 0  0.2825131256993216 0.2035478995978015 0  0.3199386661080599 0.202908417313604 0  0.4842413153250809 0.1970915826863873 0  0.5141145242734466 0.1970915826863843 0  0.3722167817676917 0.2029084173136195 0  0.4693047108508938 0.1970915826863783 0  0.3348752705822316 0.202908417313609 0  0.3871533862418661 0.2029084173136212 0  0.4543681063767183 0.1970915826863795 0  0.4991779197992749 0.1970915826863902 0  0.4020059614928624 0.203547899597858 0  0.4394315019025246 0.1970915826863714 0  0.2550657455369551 0.2034088125358657 0  0.2548908499171161 0.1966940311614271 0  0.5946539510196798 0.2024302972968126 0  0.267698176732111 0.2039977513680092 0  0.4261685417851465 0.196409292431739 0  0.3590076176283495 0.196411355804271 0  0.5571672426447437 0.2036011176410121 0  0.3066757059912147 0.1964092924317024 0  0.594380730180568 0.1966558399668133 0  0.4842413153245942 0.2040749161535287 0  0.4693047108503577 0.2040749161535231 0  0.3871533862424271 0.1959250838464788 0  0.372246743208829 0.1959123236376545 0  0.5141145242731028 0.2040749161535395 0  0.4543681063761134 0.2040749161535186 0  0.4019979587101454 0.1959834479682427 0  0.4394608940728603 0.2040870543693135 0  0.5439623148931173 0.2040856076781014 0  0.5290511287473298 0.2040749161535501 0  0.4991779197988497 0.2040749161535382 0  0.3347912413592433 0.1959225448935183 0  0.3199680582793816 0.1959123018030061 0  0.2825051229162361 0.1959834479681729 0  0.3590471196690275 0.2036304442587945 0  0.5571594006495384 0.1963685282145804 0  0.3067669986803285 0.203627750582736 0  0.4262598344738712 0.2036568242185335 0  0.5814408164431408 0.2041285596160068 0  0.5688286748170428 0.1961819304477386 0  0.4145905603063645 0.2038180695522843 0  0.3473758401724931 0.2038180695522752 0  0.2950977245128307 0.2038180695522663 0  0.5688286748170693 0.203818069552238 0  0.2950977245127906 0.1961819304477774 0  0.3473758401723931 0.1961819304478349 0  0.4145905603061963 0.1961819304479011 0  0.2601812407614425 0.2056861609747042
[...]
<PointData  Vectors="f_46-2"> 
<DataArray  type="Float64"  Name="f_46-2"  NumberOfComponents="3" format="ascii">0.0000000000000000e+00 0.0000000000000000e+00 0.0000000000000000e+00  0.0000000000000000e+00 0.0000000000000000e+00 0.0000000000000000e+00  0.0000000000000000e+00 0.0000000000000000e+00 0.0000000000000000e+00  0.0000000000000000e+00 0.0000000000000000e+00 0.0000000000000000e+00  2.0100262774097126e-05 -1.1140113795237748e-04 0.0000000000000000e+00  3.3458619300455865e-05 -1.1205857456235409e-04 0.0000000000000000e+00  0.0000000000000000e+00 0.0000000000000000e+00 0.0000000000000000e+00  0.0000000000000000e+00 0.0000000000000000e+00 0.0000000000000000e+00  0.0000000000000000e+00 0.0000000000000000e+00 0.0000000000000000e+00  0.0000000000000000e+00 0.0000000000000000e+00 0.0000000000000000e+00  2.6488204908328872e-05 -1.1172932150243030e-04 0.0000000000000000e+00  0.0000000000000000e+00 0.0000000000000000e+00 0.0000000000000000e+00  0.0000000000000000e+00 0.0000000000000000e+00 0.0000000000000000e+00  0.0000000000000000e+00 0.0000000000000000e+00 0.0000000000000000e+00  0.0000000000000000e+00 0.0000000000000000e+00 0.0000000000000000e+00  0.0000000000000000e+00 0.0000000000000000e+00 0.0000000000000000e+00  0.0000000000000000e+00 0.0000000000000000e+00 0.0000000000000000e+00  0.0000000000000000e+00 0.0000000000000000e+00 0.0000000000000000e+00  0.0000000000000000e+00 0.0000000000000000e+00 0.0000000000000000e+00  0.0000000000000000e+00 0.0000000000000000e+00 0.0000000000000000e+00  0.0000000000000000e+00 0.0000000000000000e+00 0.0000000000000000e+00  0.0000000000000000e+00 0.0000000000000000e+00 0.0000000000000000e+00  0.0000000000000000e+00 0.0000000000000000e+00 0.0000000000000000e+00  0.0000000000000000e+00 0.0000000000000000e+00 0.0000000000000000e+00  0.0000000000000000e+00 0.0000000000000000e+00 0.0000000000000000e+00  0.0000000000000000e+00 0.0000000000000000e+00 0.0000000000000000e+00  0.0000000000000000e+00 0.0000000000000000e+00 0.0000000000000000e+00  0.0000000000000000e+00 0.0000000000000000e+00 0.0000000000000000e+00  0.0000000000000000e+00 0.0000000000000000e+00 0.0000000000000000e+00  0.0000000000000000e+00 0.0000000000000000e+00 0.0000000000000000e+00  0.0000000000000000e+00 0.0000000000000000e+00 0.0000000000000000e+00  0.0000000000000000e+00 0.0000000000000000e+00 0.0000000000000000e+00  0.0000000000000000e+00 0.0000000000000000e+00 0.0000000000000000e+00  0.0000000000000000e+00 0.0000000000000000e+00 0.0000000000000000e+00  0.0000000000000000e+00 0.0000000000000000e+00 0.0000000000000000e+00  -4.1285566836795625e-13 1.0854707365962163e-17 0.0000000000000000e+00  0.0000000000000000e+00 0.0000000000000000e+00 0.0000000000000000e+00  0.0000000000000000e+00 0.0000000000000000e+00 0.0000000000000000e+00  0.0000000000000000e+00 0.0000000000000000e+00 0.0000000000000000e+00  0.0000000000000000e+00 0.0000000000000000e+00 0.0000000000000000e+00  0.0000000000000000e+00 0.0000000000000000e+00 0.0000000000000000e+00  0.0000000000000000e+00 0.0000000000000000e+00 0.0000000000000000e+00  0.0000000000000000e+00 0.0000000000000000e+00 0.0000000000000000e+00  0.0000000000000000e+00 0.0000000000000000e+00 0.0000000000000000e+00  0.0000000000000000e+00 0.0000000000000000e+00 0.0000000000000000e+00  0.0000000000000000e+00 0.0000000000000000e+00 0.0000000000000000e+00  0.0000000000000000e+00 0.0000000000000000e+00 0.0000000000000000e+00  0.0000000000000000e+00 0.0000000000000000e+00 0.0000000000000000e+00  0.0000000000000000e+00 0.0000000000000000e+00 0.0000000000000000e+00  0.0000000000000000e+00 0.0000000000000000e+00 0.0000000000000000e+00  0.0000000000000000e+00 0.0000000000000000e+00 0.0000000000000000e+00  0.0000000000000000e+00 0.0000000000000000e+00 0.0000000000000000e+00  0.0000000000000000e+00 0.0000000000000000e+00 0.0000000000000000e+00  0.0000000000000000e+00 0.0000000000000000e+00 0.0000000000000000e+00  0.0000000000000000e+00 0.0000000000000000e+00 0.0000000000000000e+00  0.0000000000000000e+00 0.0000000000000000e+00 0.0000000000000000e+00  0.0000000000000000e+00 0.0000000000000000e+00 0.0000000000000000e+00  0.0000000000000000e+00 0.0000000000000000e+00 0.0000000000000000e+00  0.0000000000000000e+00 0.0000000000000000e+00 0.0000000000000000e+00  0.0000000000000000e+00 0.0000000000000000e+00 0.0000000000000000e+00  0.0000000000000000e+00 0.0000000000000000e+00 0.0000000000000000e+00  0.0000000000000000e+00 0.0000000000000000e+00 0.0000000000000000e+00  0.0000000000000000e+00 0.0000000000000000e+00 0.0000000000000000e+00  0.0000000000000000e+00 0.0000000000000000e+00 0.0000000000000000e+00  0.0000000000000000e+00 0.0000000000000000e+00 0.0000000000000000e+00  0.0000000000000000e+00 0.0000000000000000e+00 0.0000000000000000e+00  0.0000000000000000e+00 0.0000000000000000e+00 0.0000000000000000e+00  0.0000000000000000e+00 0.0000000000000000e+00 0.0000000000000000e+00  0.0000000000000000e+00 0.0000000000000000e+00 0.0000000000000000e+00  0.0000000000000000e+00 0.0000000000000000e+00 0.0000000000000000e+00  0.0000000000000000e+00 0.0000000000000000e+00 0.0000000000000000e+00  0.0000000000000000e+00 0.0000000000000000e+00 0.0000000000000000e+00  0.0000000000000000e+00 0.0000000000000000e+00 0.0000000000000000e+00  0.0000000000000000e+00 0.0000000000000000e+00 0.0000000000000000e+00  0.0000000000000000e+00 0.0000000000000000e+00 0.0000000000000000e+00  0.0000000000000000e+00 0.0000000000000000e+00 0.0000000000000000e+00  0.0000000000000000e+00 0.0000000000000000e+00 0.0000000000000000e+00  0.0000000000000000e+00 0.0000000000000000e+00 0.0000000000000000e+00  0.0000000000000000e+00 0.0000000000000000e+00 0.0000000000000000e+00  0.0000000000000000e+00 0.0000000000000000e+00 0.0000000000000000e+00  0.0000000000000000e+00 0.0000000000000000e+00 0.0000000000000000e+00  0.0000000000000000e+00 0.0000000000000000e+00 0.0000000000000000e+00  0.0000000000000000e+00 0.0000000000000000e+00 0.0000000000000000e+00  0.0000000000000000e+00 0.0000000000000000e+00 0.0000000000000000e+00  0.0000000000000000e+00 0.0000000000000000e+00 0.0000000000000000e+00  0.0000000000000000e+00 0.0000000000000000e+00 0.0000000000000000e+00  0.0000000000000000e+00 0.0000000000000000e+00 0.0000000000000000e+00  0.0000000000000000e+00 0.0000000000000000e+00 0.0000000000000000e+00  -1.3309093713902220e-13 0.0000000000000000e+00 0.0000000000000000e+00  0.0000000000000000e+00 0.0000000000000000e+00 0.0000000000000000e+00  0.0000000000000000e+00 0.0000000000000000e+00 0.0000000000000000e+00  0.0000000000000000e+00 0.0000000000000000e+00 0.0000000000000000e+00  0.0000000000000000e+00 0.0000000000000000e+00 0.0000000000000000e+00  0.0000000000000000e+00 0.0000000000000000e+00 0.0000000000000000e+00  -3.5148996975861037e-14 2.7183307452120916e-18 0.0000000000000000e+00  0.0000000000000000e+00 0.0000000000000000e+00 0.0000000000000000e+00  0.0000000000000000e+00 0.0000000000000000e+00 0.0000000000000000e+00  0.0000000000000000e+00 0.0000000000000000e+00 0.0000000000000000e+00  0.0000000000000000e+00 0.0000000000000000e+00 0.0000000000000000e+00  0.0000000000000000e+00 0.0000000000000000e+00 0.0000000000000000e+00  0.0000000000000000e+00 0.0000000000000000e+00 0.0000000000000000e+00  0.0000000000000000e+00 0.0000000000000000e+00 0.0000000000000000e+00  0.0000000000000000e+00 0.0000000000000000e+00 0.0000000000000000e+00  0.0000000000000000e+00 0.0000000000000000e+00 0.0000000000000000e+00  0.0000000000000000e+00 0.0000000000000000e+00 0.0000000000000000e+00  -8.3291297099270627e-12 1.1994453825435537e-11 0.0000000000000000e+00  0.0000000000000000e+00 0.0000000000000000e+00 0.0000000000000000e+00  0.0000000000000000e+00 0.0000000000000000e+00 0.0000000000000000e+00  0.0000000000000000e+00 0.0000000000000000e+00 0.0000000000000000e+00  0.0000000000000000e+00 0.0000000000000000e+00 0.0000000000000000e+00  1.4601759906946907e-17 8.5132229230934556e-18 0.0000000000000000e+00  0.0000000000000000e+00 0.0000000000000000e+00 0.0000000000000000e+00  0.0000000000000000e+00 0.0000000000000000e+00 0.0000000000000000e+00  0.0000000000000000e+00 0.0000000000000000e+00 0.0000000000000000e+00  0.0000000000000000e+00 0.0000000000000000e+00 0.0000000000000000e+00  0.0000000000000000e+00 0.0000000000000000e+00 0.0000000000000000e+00  0.0000000000000000e+00 0.0000000000000000e+00 0.0000000000000000e+00  0.0000000000000000e+00 0.0000000000000000e+00 0.0000000000000000e+00  0.0000000000000000e+00 0.0000000000000000e+00 0.0000000000000000e+00  0.0000000000000000e+00 0.0000000000000000e+00 0.0000000000000000e+00  0.0000000000000000e+00 0.0000000000000000e+00 0.0000000000000000e+00  0.0000000000000000e+00 0.0000000000000000e+00 0.0000000000000000e+00  0.0000000000000000e+00 0.0000000000000000e+00 0.0000000000000000e+00  0.0000000000000000e+00 0.0000000000000000e+00 0.0000000000000000e+00  0.0000000000000000e+00 0.0000000000000000e+00 0.0000000000000000e+00  0.0000000000000000e+00 0.0000000000000000e+00 0.0000000000000000e+00  0.0000000000000000e+00 0.0000000000000000e+00 0.0000000000000000e+00  0.0000000000000000e+00 0.0000000000000000e+00 0.0000000000000000e+00  0.0000000000000000e+00 0.0000000000000000e+00 0.0000000000000000e+00  0.0000000000000000e+00 0.0000000000000000e+00 0.0000000000000000e+00  0.0000000000000000e+00 0.0000000000000000e+00 0.0000000000000000e+00  0.0000000000000000e+00 0.0000000000000000e+00 0.0000000000000000e+00  0.0000000000000000e+00 0.0000000000000000e+00 0.0000000000000000e+00  0.0000000000000000e+00 0.0000000000000000e+00 0.0000000000000000e+00  0.0000000000000000e+00 0.0000000000000000e+00 0.0000000000000000e+00  0.0000000000000000e+00 0.0000000000000000e+00 0.0000000000000000e+00  0.0000000000000000e+00 0.0000000000000000e+00 0.0000000000000000e+00  0.0000000000000000e+00 0.0000000000000000e+00 0.0000000000000000e+00  0.0000000000000000e+00 0.0000000000000000e+00 0.0000000000000000e+00  0.0000000000000000e+00 0.0000000000000000e+00 0.0000000000000000e+00  0.0000000000000000e+00 0.0000000000000000e+00 0.0000000000000000e+00  0.0000000000000000e+00 0.0000000000000000e+00 0.0000000000000000e+00  2.0613659591240186e-13 -1.9437519816154495e-13 0.0000000000000000e+00  2.6809956501120067e-07 -3.5212934484431844e-07 0.0000000000000000e+00  6.2558842629251535e-07 9.1988739113507388e-08 0.0000000000000000e+00  1.1558171181212971e-06 7.2903194496156638e-07 0.0000000000000000e+00  1.7742118101679619e-06 1.5385354913365479e-06 0.0000000000000000e+00  2.4914211516574205e-06 2.3734578906186891e-06 0.0000000000000000e+00  3.2840659355764731e-06 3.2251794282959114e-06 0.0000000000000000e+00  4.1232925218181426e-06 4.0401019241763729e-06 0.0000000000000000e+00  5.0171684711123459e-06 4.7706212949223461e-06 0.0000000000000000e+00  5.9841081918750644e-06 5.4007515463571949e-06 0.0000000000000000e+00  6.9501469535575486e-06 5.8845146871158679e-06 0.0000000000000000e+00  8.0087556910290301e-06 6.2022827111582397e-06 0.0000000000000000e+00  9.0281926425586271e-06 6.3197044964937838e-06 0.0000000000000000e+00  1.0135024907024463e-05 6.2244157204157538e-06 0.0000000000000000e+00  1.1192493618971916e-05 5.9302052787980798e-06 0.0000000000000000e+00  1.2263307025624072e-05 5.3648207733951999e-06 0.0000000000000000e+00  1.3401481301268491e-05 4.5734675071830043e-06 0.0000000000000000e+00  1.4456713016159202e-05 3.5298853878459520e-06 0.0000000000000000e+00  1.5594161173669653e-05 2.2193973734347269e-06 0.0000000000000000e+00  1.6629247820411351e-05 6.5565140388176821e-07 0.0000000000000000e+00  1.7733003579934334e-05 -1.1655651599624929e-06 0.0000000000000000e+00  1.8751012783260176e-05 -3.2426210458736489e-06 0.0000000000000000e+00  1.9805540230738925e-05 -5.5847110305482756e-06 0.0000000000000000e+00  2.0774332390075551e-05 -8.1296212461320214e-06 0.0000000000000000e+00  2.1720294496814598e-05 -1.0943643676770486e-05 0.0000000000000000e+00  2.2691678206378380e-05 -1.3949840697653096e-05 0.0000000000000000e+00  2.3585646757294945e-05 -1.7179079100145551e-05 0.0000000000000000e+00  2.4462818497841780e-05 -2.0622800462479923e-05 0.0000000000000000e+00  2.5284454107151063e-05 -2.4233247872731787e-05 0.0000000000000000e+00  2.6083843927728042e-05 -2.8039805176134097e-05 0.0000000000000000e+00  2.6826934637064198e-05 -3.1984100033091779e-05 0.0000000000000000e+00  2.7543500227585012e-05 -3.6098520899514792e-05 0.0000000000000000e+00  2.8204250883510452e-05 -4.0321825505377321e-05 0.0000000000000000e+00  2.8834732608964889e-05 -4.4688707742449603e-05 0.0000000000000000e+00  2.9412106998754992e-05 -4.9136278320022104e-05 0.0000000000000000e+00  2.9954924624333720e-05 -5.3702257641006601e-05 0.0000000000000000e+00  3.0447252995656975e-05 -5.8323239640040170e-05 0.0000000000000000e+00  3.0904430313293401e-05 -6.3037694427915656e-05 0.0000000000000000e+00  3.1314172734287349e-05 -6.7785421273875798e-05 0.0000000000000000e+00  3.1687750152173699e-05 -7.2605104781444060e-05 0.0000000000000000e+00  3.2015500807549549e-05 -7.7438488214884942e-05 0.0000000000000000e+00  3.2303392648844759e-05 -8.2320580311992536e-05 0.0000000000000000e+00  3.2554506480664944e-05 -8.7213130871512866e-05 0.0000000000000000e+00  3.2765881394004035e-05 -9.2128708919480461e-05 0.0000000000000000e+00  3.2956738557639560e-05 -9.7053102301094117e-05 0.0000000000000000e+00  3.3104362615703523e-05 -1.0197457116928255e-04 0.0000000000000000e+00  3.3252196555907339e-05 -1.0693710562908226e-04 0.0000000000000000e+00  2.9874218569782477e-05 -1.1188881025483707e-04 0.0000000000000000e+00  2.3208354449573318e-05 -1.1157383368619060e-04 0.0000000000000000e+00  1.9913769502888808e-05 -1.0655865388648630e-04 0.0000000000000000e+00  1.9794708155652456e-05 -1.0155869138505785e-04 0.0000000000000000e+00  1.9673885022628997e-05 -9.6544092913341425e-05 0.0000000000000000e+00  1.9526035306799567e-05 -9.1553958506629857e-05 0.0000000000000000e+00  1.9359526245924494e-05 -8.6575128139677570e-05 0.0000000000000000e+00  1.9165405008308931e-05 -8.1617475487538409e-05 0.0000000000000000e+00  1.8961689854825266e-05 -7.6686999697989420e-05 0.0000000000000000e+00  1.8723941168391181e-05 -7.1776105870495867e-05 0.0000000000000000e+00  1.8482569254005262e-05 -6.6922097579136226e-05 0.0000000000000000e+00  1.8207815225491998e-05 -6.2098926575515994e-05 0.0000000000000000e+00  1.7939685212825017e-05 -5.7351429741621730e-05 0.0000000000000000e+00  1.7635162535058247e-05 -5.2657284202533144e-05 0.0000000000000000e+00  1.7348043004978238e-05 -4.8060409630563774e-05 0.0000000000000000e+00  1.7019558874095424e-05 -4.3543041033665465e-05 0.0000000000000000e+00  1.6719921380392420e-05 -3.9147287308564292e-05 0.0000000000000000e+00  1.6371859512154883e-05 -3.4858346829878542e-05 0.0000000000000000e+00  1.6063626519256924e-05 -3.0717235700468445e-05 0.0000000000000000e+00  1.5700016649670783e-05 -2.6711941875431072e-05 0.0000000000000000e+00  1.5387545151272693e-05 -2.2881102167071905e-05 0.0000000000000000e+00  1.5011604798305591e-05 -1.9214647937800431e-05 0.0000000000000000e+00  1.4697880804883435e-05 -1.5749998625151255e-05 0.0000000000000000e+00  1.4312361614015024e-05 -1.2478638577998392e-05 0.0000000000000000e+00  1.3987947021014424e-05 -9.4325702353733101e-06 0.0000000000000000e+00  1.3604893004422479e-05 -6.5894247477223514e-06 0.0000000000000000e+00  1.3211884432512393e-05 -4.0188565256872820e-06 0.0000000000000000e+00  1.2872974882533588e-05 -1.6462732902541712e-06 0.0000000000000000e+00  1.2481071314073795e-05 4.5351052016770429e-07 0.0000000000000000e+00  1.2111018461176994e-05 2.2981165882070145e-06 0.0000000000000000e+00  1.1702743699241910e-05 3.8856129420382447e-06 0.0000000000000000e+00  1.1307366401985331e-05 5.2046604269313861e-06 0.0000000000000000e+00  1.0874059724286416e-05 6.2786871329032726e-06 0.0000000000000000e+00  1.0467452482598675e-05 7.0635283536120644e-06 0.0000000000000000e+00  9.9883934449969598e-06 7.6418693800184610e-06 0.0000000000000000e+00  9.4868834278346755e-06 7.9403042244608614e-06 0.0000000000000000e+00  9.0165729804754032e-06 8.0502859250127964e-06 0.0000000000000000e+00  8.4836719999352781e-06 7.9283724965310273e-06 0.0000000000000000e+00  7.9382604291827196e-06 7.6035876918974897e-06 0.0000000000000000e+00  7.3435717919790025e-06 7.1208588285461067e-06 0.0000000000000000e+00  6.7260396405138122e-06 6.4719346855451396e-06 0.0000000000000000e+00  6.0481973892463423e-06 5.7308515882573496e-06 0.0000000000000000e+00  5.3267736333193026e-06 4.9002517335047982e-06 0.0000000000000000e+00  4.5671849986200841e-06 4.0294451108489924e-06 0.0000000000000000e+00  3.7440756613530340e-06 3.1788700053125506e-06 0.0000000000000000e+00  2.8528933733454847e-06 2.3715227368895421e-06 0.0000000000000000e+00  1.9339599598798976e-06 1.6856314380034554e-06 0.0000000000000000e+00  9.5891168291611131e-07 1.1147450723279827e-06 0.0000000000000000e+00  8.5028021182936473e-07 4.9248757405867479e-07 0.0000000000000000e+00  2.6487092976140292e-05 -1.0424005009384801e-04 0.0000000000000000e+00  2.6338500568850182e-05 -9.4741814493365351e-05 0.0000000000000000e+00  2.5635725285504887e-05 -7.9320895679691676e-05 0.0000000000000000e+00  2.3807269959993063e-06 1.8775318059600355e-06 0.0000000000000000e+00  2.5005666683405407e-05 -6.9736423809827603e-05 0.0000000000000000e+00  3.8664937637265896e-06 3.5746191465822859e-06 0.0000000000000000e+00  2.4329775854136600e-05 -6.0151882163652173e-05 0.0000000000000000e+00  6.3017853208351818e-06 6.0747806186519931e-06 0.0000000000000000e+00  7.8346002259091109e-06 7.0387402360441540e-06 0.0000000000000000e+00  2.3543874949006013e-05 -5.0820257008420708e-05 0.0000000000000000e+00  1.1749308111204863e-05 5.9932825809846053e-06 0.0000000000000000e+00  2.1661437639164455e-05 -3.3305062372365824e-05 0.0000000000000000e+00  9.3423684785933321e-06 7.3241176785010681e-06 0.0000000000000000e+00  1.3244537280525538e-05 3.9064874781936303e-06 0.0000000000000000e+00  2.0576124366133749e-05 -2.5336066574211241e-05 0.0000000000000000e+00  2.2652721924014857e-05 -4.1836401865467746e-05 0.0000000000000000e+00  1.4716578238428459e-05 7.5805879533956600e-07 0.0000000000000000e+00  1.9402339038692379e-05 -1.8042010029056891e-05 0.0000000000000000e+00  1.6041690506684628e-05 -3.2253722300182158e-06 0.0000000000000000e+00  1.8230283001827837e-05 -1.1664961793804659e-05 0.0000000000000000e+00  1.7099909088024572e-05 -7.0286846102100887e-06 0.0000000000000000e+00  1.0505359839676743e-05 6.9300164563659641e-06 0.0000000000000000e+00  2.5905510864902597e-05 -8.7315766089227117e-05 0.0000000000000000e+00  5.0185786363178903e-06 4.8487504356656205e-06 0.0000000000000000e+00  2.4101019322690781e-05 -9.9380423506840952e-05 0.0000000000000000e+00  1.8704759411503833e-06 1.4222822877165527e-06 0.0000000000000000e+00  2.2828224219375291e-05 -6.4792260266927096e-05 0.0000000000000000e+00  2.3412747767479903e-05 -7.4485832714398604e-05 0.0000000000000000e+00  2.7865291720689361e-06 2.4479969811020366e-06 0.0000000000000000e+00  6.8823708073179601e-06 6.3554089300654072e-06 0.0000000000000000e+00  2.0524929666450127e-05 -3.7343590290391489e-05 0.0000000000000000e+00  2.2147935556552696e-05 -5.5309385719571485e-05 0.0000000000000000e+00  1.2910566203913255e-05 4.8235076191669877e-06 0.0000000000000000e+00  1.9595538091487008e-05 -2.9068732319336801e-05 0.0000000000000000e+00  8.5865307548483732e-06 7.0078529828361657e-06 0.0000000000000000e+00  1.4596948330100051e-05 2.1991142360940416e-06 0.0000000000000000e+00  1.8596099716447264e-05 -2.1413071940204472e-05 0.0000000000000000e+00  2.1377860979987116e-05 -4.6126158171447882e-05 0.0000000000000000e+00  1.6407020374449985e-05 -1.4952982891584845e-06 0.0000000000000000e+00  1.7529773676257887e-05 -1.4488615572583354e-05 0.0000000000000000e+00  2.6633534217033619e-07 -2.4083093227275197e-08 0.0000000000000000e+00  3.5561747608884699e-07 3.2060492629713543e-07 0.0000000000000000e+00  2.8070277485844134e-05 -1.0820546492575383e-04 0.0000000000000000e+00  1.3190378365390757e-06 7.8023795965094833e-07 0.0000000000000000e+00  1.6277249052910677e-05 -8.9887361655528260e-06 0.000000000