<?xml version="1.0"?>
<VTKFile type="UnstructuredGrid"  version="0.1"  >
<UnstructuredGrid>
<Piece  NumberOfPoints="1419" NumberOfCells="2698">
<Points>
<DataArray  type="Float64"  NumberOfComponents="3"  format="ascii">0 0 0  0 0.41 0  2.5 0 0  2.5 0.41 0  0.6 0.19 0  0.6 0.21 0  0.25 0.2 0  0.15 0.2 0  0.2489897948556636 0.21 0  0.2489897948556636 0.19 0  0.6 0.2 0  0 0.3807142857143437 0  0 0.3514285714286952 0  0 0.3221428571430699 0  0 0.29285714285744 0  0 0.2635714285718054 0  0 0.2342857142861561 0  0 0.2050000000005308 0  0 0.175714285714732 0  0 0.1464285714289574 0  0 0.1171428571431897 0  0 0.08785714285737878 0  0 0.05857142857161107 0  0 0.02928571428580012 0  0.03015443760436003 0 0  0.06140001986583606 0 0  0.09377624077125973 0 0  0.1273239957535082 0 0  0.1620856860351972 0 0  0.1981052433264291 0 0  0.235428184091502 0 0  0.2741016576309132 0 0  0.3141745521465447 0 0  0.3556974926295285 0 0  0.3987229542472677 0 0  0.4433053055141081 0 0  0.4895008759286886 0 0  0.5373680609405097 0 0  0.5869673343216626 0 0  0.6383613676634521 0 0  0.6916151138468254 0 0  0.7467958595648856 0 0  0.8039733463919316 0 0  0.8632198139502143 0 0  0.9246101326867038 0 0  0.9882218810934433 0 0  1.054135445558498 0 0  1.122434100542598 0 0  1.193204177141305 0 0  1.266535089879536 0 0  1.342519516046404 0 0  1.421253448503939 0 0  1.502836389106271 0 0  1.587371439758838 0 0  1.674965418777374 0 0  1.765729001825544 0 0  1.859776908880082 0 0  1.957227977487062 0 0  2.058205329869943 0 0  2.162836591189951 0 0  2.271253957290865 0 0  2.383594446803425 0 0  2.5 0.1024999999997612 0  2.5 0.2049999999994743 0  2.5 0.3074999999997183 0  2.383594446803656 0.41 0  2.271253957291315 0.41 0  2.162836591190598 0.41 0  2.058205329870775 0.41 0  1.957227977488067 0.41 0  1.859776908881246 0.41 0  1.765729001826854 0.41 0  1.674965418778818 0.41 0  1.58737143976041 0.41 0  1.502836389107956 0.41 0  1.421253448505726 0.41 0  1.342519516048286 0.41 0  1.266535089881505 0.41 0  1.193204177143353 0.41 0  1.122434100544716 0.41 0  1.05413544556068 0.41 0  0.9882218810956305 0.41 0  0.9246101326886647 0.41 0  0.8632198139519631 0.41 0  0.8039733463934788 0.41 0  0.7467958595662458 0.41 0  0.6916151138480078 0.41 0  0.6383613676644679 0.41 0  0.5869673343225223 0.41 0  0.5373680609412221 0.41 0  0.4895008759292634 0.41 0  0.4433053055145528 0.41 0  0.3987229542475914 0.41 0  0.3556974926297398 0.41 0  0.3141745521466497 0.41 0  0.2741016576310038 0.41 0  0.2354281840915826 0.41 0  0.1981052433265003 0.41 0  0.1620856860352591 0.41 0  0.1273239957535623 0.41 0  0.09377624077128965 0.41 0  0.06140001986584975 0.41 0  0.03015443760436654 0.41 0  0.2497468076502589 0.2050254481002335 0  0.2497468076502614 0.1949745518997913 0  0.2469965252529372 0.1829317073451959 0  0.2439893735792749 0.1762316384219906 0  0.2400332147834255 0.1700443375285386 0  0.2352133972704371 0.1645032867342007 0  0.2296339016332438 0.1597280261969788 0  0.2234150974217223 0.1558215752574715 0  0.2166911463437691 0.1528682099456123 0  0.2096071079204251 0.1509316448471593 0  0.2023158100364996 0.1500536585536553 0  0.194974551899914 0.1502531923497262 0  0.1877417105387872 0.1515259415822739 0  0.1807733240461124 0.153844448527136 0  0.1742197252835808 0.15715869474974 0  0.1682222986673531 0.1613971801805478 0  0.162910430003803 0.1664684656256651 0  0.1583987151779087 0.1722631454351573 0  0.1547844879126891 0.178656207771761 0  0.1521457199348551 0.1855097315605723 0  0.1505393388476355 0.1926758619366523 0  0.1505393388476328 0.2073241380633295 0  0.1521457199348437 0.2144902684393899 0  0.1547844879126531 0.221343792228163 0  0.1583987151778488 0.2277368545647528 0  0.1629104300036858 0.2335315343742052 0  0.1682222986671726 0.2386028198193036 0  0.1742197252833576 0.2428413052501257 0  0.1807733240458683 0.2461555514727623 0  0.1877417105384929 0.2484740584176516 0  0.1949745518995776 0.2497468076502398 0  0.202315810036185 0.2499463414463592 0  0.2096071079201568 0.2490683551528932 0  0.2166911463435495 0.2471317900544655 0  0.2234150974215506 0.2441784247426195 0  0.2296339016331197 0.2402719738031125 0  0.2352133972703547 0.2354967132658811 0  0.2400332147833751 0.2299556624715287 0  0.2439893735792577 0.2237683615780412 0  0.246996525252926 0.2170682926548348 0  0.25645809709277 0.21 0  0.2639263993298655 0.21 0  0.271394701566961 0.21 0  0.2788630038040554 0.21 0  0.2863313060411479 0.21 0  0.2937996082782405 0.21 0  0.301267910515333 0.21 0  0.3087362127524279 0.21 0  0.3162045149895234 0.21 0  0.3236728172265972 0.21 0  0.3311411194636928 0.21 0  0.3386094217007701 0.21 0  0.3460777239378666 0.21 0  0.3535460261749672 0.21 0  0.3610143284120516 0.21 0  0.3684826306491596 0.21 0  0.3759509328862226 0.21 0  0.383419235123329 0.21 0  0.3908875373604028 0.21 0  0.3983558395975142 0.21 0  0.4058241418345938 0.21 0  0.4132924440716992 0.21 0  0.4207607463087888 0.21 0  0.4282290485459029 0.21 0  0.4356973507830418 0.21 0  0.4431656530201649 0.21 0  0.4506339552573136 0.21 0  0.4581022574944306 0.21 0  0.4655705597315852 0.21 0  0.4730388619686996 0.21 0  0.480507164205851 0.21 0  0.4879754664429498 0.21 0  0.4954437686800938 0.21 0  0.502912070917267 0.21 0  0.5103803731544119 0.21 0  0.5178486753915261 0.21 0  0.5253169776286404 0.21 0  0.5327852798657868 0.21 0  0.5402535821029386 0.21 0  0.54772188434007 0.21 0  0.5551901865771842 0.21 0  0.5626584888143201 0.21 0  0.5701267910514778 0.21 0  0.5775950932886138 0.21 0  0.5850633955257281 0.21 0  0.5925316977628483 0.21 0  0.6 0.2050000000000054 0  0.6 0.1950000000000217 0  0.5925316977628897 0.19 0  0.5850633955257988 0.19 0  0.5775950932887378 0.19 0  0.5701267910515998 0.19 0  0.5626584888145268 0.19 0  0.5551901865773963 0.19 0  0.547721884340339 0.19 0  0.5402535821032429 0.19 0  0.5327852798661811 0.19 0  0.5253169776290537 0.19 0  0.5178486753919799 0.19 0  0.5103803731549078 0.19 0  0.502912070917822 0.19 0  0.4954437686807294 0.19 0  0.4879754664436223 0.19 0  0.4805071642065402 0.19 0  0.4730388619694271 0.19 0  0.4655705597323621 0.19 0  0.4581022574952563 0.19 0  0.4506339552581777 0.19 0  0.4431656530210671 0.19 0  0.4356973507839815 0.19 0  0.4282290485468779 0.19 0  0.4207607463097617 0.19 0  0.4132924440726327 0.19 0  0.4058241418354857 0.19 0  0.3983558395983636 0.19 0  0.3908875373612097 0.19 0  0.3834192351240934 0.19 0  0.3759509328869369 0.19 0  0.3684826306498175 0.19 0  0.361014328412667 0.19 0  0.3535460261755617 0.19 0  0.3460777239384295 0.19 0  0.3386094217012945 0.19 0  0.3311411194641595 0.19 0  0.3236728172270245 0.19 0  0.3162045149898895 0.19 0  0.3087362127527544 0.19 0  0.3012679105156187 0.19 0  0.2937996082784807 0.19 0  0.2863313060413428 0.19 0  0.2788630038042048 0.19 0  0.2713947015670686 0.19 0  0.2639263993299336 0.19 0  0.2564580970927985 0.19 0  0.2607803159922026 0.2000727136295815 0  0.5887803774232762 0.2001272386983733 0  0.5745072403740523 0.2002044435018727 0  0.5511891430099709 0.2001122610077113 0  0.2751288526855082 0.20000000000002 0  0.5365194309847112 0.1999999999999436 0  0.2894621222999649 0.1998691686390484 0  0.5215828265105155 0.1999999999999228 0  0.3127789816668748 0.1998657885438805 0  0.3274069683451451 0.2000000000000796 0  0.5066462220363641 0.199999999999908 0  0.3650630746574081 0.199866017807523 0  0.476773013087985 0.1999999999998713 0  0.3417402379596385 0.1998691686391011 0  0.3796850840047755 0.200000000000134 0  0.4618364086138087 0.1999999999998546 0  0.4917096175621762 0.1999999999998808 0  0.3946216884789568 0.2000000000001512 0  0.446899804139621 0.1999999999998389 0  0.4089549580935208 0.1998691686391595 0  0.4322718174608562 0.200127451265745 0  0.4201487168029707 0.1999966199048527 0  0.3528922713220932 0.2000185703532356 0  0.5633122436674589 0.1999814296467508 0  0.3006558810093873 0.1999966199048318 0  0.5815926498168407 0.1966545283159175 0  0.2677053789419034 0.1964246479135325 0  0.5290511287476175 0.1970915826863981 0  0.5439877332217911 0.197091582686394 0  0.2825131256993216 0.2035478995978015 0  0.3199386661080599 0.202908417313604 0  0.4842413153250809 0.1970915826863873 0  0.5141145242734466 0.1970915826863843 0  0.3722167817676917 0.2029084173136195 0  0.4693047108508938 0.1970915826863783 0  0.3348752705822316 0.202908417313609 0  0.3871533862418661 0.2029084173136212 0  0.4543681063767183 0.1970915826863795 0  0.4991779197992749 0.1970915826863902 0  0.4020059614928624 0.203547899597858 0  0.4394315019025246 0.1970915826863714 0  0.2550657455369551 0.2034088125358657 0  0.2548908499171161 0.1966940311614271 0  0.5946539510196798 0.2024302972968126 0  0.267698176732111 0.2039977513680092 0  0.4261685417851465 0.196409292431739 0  0.3590076176283495 0.196411355804271 0  0.5571672426447437 0.2036011176410121 0  0.3066757059912147 0.1964092924317024 0  0.594380730180568 0.1966558399668133 0  0.4842413153245942 0.2040749161535287 0  0.4693047108503577 0.2040749161535231 0  0.3871533862424271 0.1959250838464788 0  0.372246743208829 0.1959123236376545 0  0.5141145242731028 0.2040749161535395 0  0.4543681063761134 0.2040749161535186 0  0.4019979587101454 0.1959834479682427 0  0.4394608940728603 0.2040870543693135 0  0.5439623148931173 0.2040856076781014 0  0.5290511287473298 0.2040749161535501 0  0.4991779197988497 0.2040749161535382 0  0.3347912413592433 0.1959225448935183 0  0.3199680582793816 0.1959123018030061 0  0.2825051229162361 0.1959834479681729 0  0.3590471196690275 0.2036304442587945 0  0.5571594006495384 0.1963685282145804 0  0.3067669986803285 0.203627750582736 0  0.4262598344738712 0.2036568242185335 0  0.5814408164431408 0.2041285596160068 0  0.5688286748170428 0.1961819304477386 0  0.4145905603063645 0.2038180695522843 0  0.3473758401724931 0.2038180695522752 0  0.2950977245128307 0.2038180695522663 0  0.5688286748170693 0.203818069552238 0  0.2950977245127906 0.1961819304477774 0  0.3473758401723931 0.1961819304478349 0  0.4145905603061963 0.1961819304479011 0  0.2601812407614425 0.2056861609747042
[...]
<PointData  Vectors="f_46-2"> 
<DataArray  type="Float64"  Name="f_46-2"  NumberOfComponents="3" format="ascii">0.0000000000000000e+00 0.0000000000000000e+00 0.0000000000000000e+00  0.0000000000000000e+00 0.0000000000000000e+00 0.0000000000000000e+00  0.0000000000000000e+00 0.0000000000000000e+00 0.0000000000000000e+00  0.0000000000000000e+00 0.0000000000000000e+00 0.0000000000000000e+00  1.9326510353315653e-05 -3.3992898412920128e-04 0.0000000000000000e+00  4.6385841751803585e-05 -3.4067198950632347e-04 0.0000000000000000e+00  0.0000000000000000e+00 0.0000000000000000e+00 0.0000000000000000e+00  0.0000000000000000e+00 0.0000000000000000e+00 0.0000000000000000e+00  0.0000000000000000e+00 0.0000000000000000e+00 0.0000000000000000e+00  0.0000000000000000e+00 0.0000000000000000e+00 0.0000000000000000e+00  3.2537830762813973e-05 -3.4030096733019005e-04 0.0000000000000000e+00  0.0000000000000000e+00 0.0000000000000000e+00 0.0000000000000000e+00  0.0000000000000000e+00 0.0000000000000000e+00 0.0000000000000000e+00  0.0000000000000000e+00 0.0000000000000000e+00 0.0000000000000000e+00  0.0000000000000000e+00 0.0000000000000000e+00 0.0000000000000000e+00  0.0000000000000000e+00 0.0000000000000000e+00 0.0000000000000000e+00  0.0000000000000000e+00 0.0000000000000000e+00 0.0000000000000000e+00  0.0000000000000000e+00 0.0000000000000000e+00 0.0000000000000000e+00  0.0000000000000000e+00 0.0000000000000000e+00 0.0000000000000000e+00  0.0000000000000000e+00 0.0000000000000000e+00 0.0000000000000000e+00  0.0000000000000000e+00 0.0000000000000000e+00 0.0000000000000000e+00  0.0000000000000000e+00 0.0000000000000000e+00 0.0000000000000000e+00  0.0000000000000000e+00 0.0000000000000000e+00 0.0000000000000000e+00  0.0000000000000000e+00 0.0000000000000000e+00 0.0000000000000000e+00  0.0000000000000000e+00 0.0000000000000000e+00 0.0000000000000000e+00  0.0000000000000000e+00 0.0000000000000000e+00 0.0000000000000000e+00  0.0000000000000000e+00 0.0000000000000000e+00 0.0000000000000000e+00  0.0000000000000000e+00 0.0000000000000000e+00 0.0000000000000000e+00  0.0000000000000000e+00 0.0000000000000000e+00 0.0000000000000000e+00  0.0000000000000000e+00 0.0000000000000000e+00 0.0000000000000000e+00  0.0000000000000000e+00 0.0000000000000000e+00 0.0000000000000000e+00  0.0000000000000000e+00 0.0000000000000000e+00 0.0000000000000000e+00  0.0000000000000000e+00 0.0000000000000000e+00 0.0000000000000000e+00  0.0000000000000000e+00 0.0000000000000000e+00 0.0000000000000000e+00  0.0000000000000000e+00 0.0000000000000000e+00 0.0000000000000000e+00  5.8958560746985735e-13 -3.9787073734103810e-17 0.0000000000000000e+00  0.0000000000000000e+00 0.0000000000000000e+00 0.0000000000000000e+00  0.0000000000000000e+00 0.0000000000000000e+00 0.0000000000000000e+00  0.0000000000000000e+00 0.0000000000000000e+00 0.0000000000000000e+00  0.0000000000000000e+00 0.0000000000000000e+00 0.0000000000000000e+00  0.0000000000000000e+00 0.0000000000000000e+00 0.0000000000000000e+00  0.0000000000000000e+00 0.0000000000000000e+00 0.0000000000000000e+00  0.0000000000000000e+00 0.0000000000000000e+00 0.0000000000000000e+00  0.0000000000000000e+00 0.0000000000000000e+00 0.0000000000000000e+00  0.0000000000000000e+00 0.0000000000000000e+00 0.0000000000000000e+00  0.0000000000000000e+00 0.0000000000000000e+00 0.0000000000000000e+00  0.0000000000000000e+00 0.0000000000000000e+00 0.0000000000000000e+00  0.0000000000000000e+00 0.0000000000000000e+00 0.0000000000000000e+00  0.0000000000000000e+00 0.0000000000000000e+00 0.0000000000000000e+00  0.0000000000000000e+00 0.0000000000000000e+00 0.0000000000000000e+00  0.0000000000000000e+00 0.0000000000000000e+00 0.0000000000000000e+00  0.0000000000000000e+00 0.0000000000000000e+00 0.0000000000000000e+00  0.0000000000000000e+00 0.0000000000000000e+00 0.0000000000000000e+00  0.0000000000000000e+00 0.0000000000000000e+00 0.0000000000000000e+00  0.0000000000000000e+00 0.0000000000000000e+00 0.0000000000000000e+00  0.0000000000000000e+00 0.0000000000000000e+00 0.0000000000000000e+00  0.0000000000000000e+00 0.0000000000000000e+00 0.0000000000000000e+00  0.0000000000000000e+00 0.0000000000000000e+00 0.0000000000000000e+00  0.0000000000000000e+00 0.0000000000000000e+00 0.0000000000000000e+00  0.0000000000000000e+00 0.0000000000000000e+00 0.0000000000000000e+00  0.0000000000000000e+00 0.0000000000000000e+00 0.0000000000000000e+00  0.0000000000000000e+00 0.0000000000000000e+00 0.0000000000000000e+00  0.0000000000000000e+00 0.0000000000000000e+00 0.0000000000000000e+00  0.0000000000000000e+00 0.0000000000000000e+00 0.0000000000000000e+00  0.0000000000000000e+00 0.0000000000000000e+00 0.0000000000000000e+00  0.0000000000000000e+00 0.0000000000000000e+00 0.0000000000000000e+00  0.0000000000000000e+00 0.0000000000000000e+00 0.0000000000000000e+00  0.0000000000000000e+00 0.0000000000000000e+00 0.0000000000000000e+00  0.0000000000000000e+00 0.0000000000000000e+00 0.0000000000000000e+00  0.0000000000000000e+00 0.0000000000000000e+00 0.0000000000000000e+00  0.0000000000000000e+00 0.0000000000000000e+00 0.0000000000000000e+00  0.0000000000000000e+00 0.0000000000000000e+00 0.0000000000000000e+00  0.0000000000000000e+00 0.0000000000000000e+00 0.0000000000000000e+00  0.0000000000000000e+00 0.0000000000000000e+00 0.0000000000000000e+00  0.0000000000000000e+00 0.0000000000000000e+00 0.0000000000000000e+00  0.0000000000000000e+00 0.0000000000000000e+00 0.0000000000000000e+00  0.0000000000000000e+00 0.0000000000000000e+00 0.0000000000000000e+00  0.0000000000000000e+00 0.0000000000000000e+00 0.0000000000000000e+00  0.0000000000000000e+00 0.0000000000000000e+00 0.0000000000000000e+00  0.0000000000000000e+00 0.0000000000000000e+00 0.0000000000000000e+00  0.0000000000000000e+00 0.0000000000000000e+00 0.0000000000000000e+00  0.0000000000000000e+00 0.0000000000000000e+00 0.0000000000000000e+00  0.0000000000000000e+00 0.0000000000000000e+00 0.0000000000000000e+00  0.0000000000000000e+00 0.0000000000000000e+00 0.0000000000000000e+00  0.0000000000000000e+00 0.0000000000000000e+00 0.0000000000000000e+00  0.0000000000000000e+00 0.0000000000000000e+00 0.0000000000000000e+00  0.0000000000000000e+00 0.0000000000000000e+00 0.0000000000000000e+00  0.0000000000000000e+00 0.0000000000000000e+00 0.0000000000000000e+00  -2.2094507684859778e-13 0.0000000000000000e+00 0.0000000000000000e+00  0.0000000000000000e+00 0.0000000000000000e+00 0.0000000000000000e+00  0.0000000000000000e+00 0.0000000000000000e+00 0.0000000000000000e+00  0.0000000000000000e+00 0.0000000000000000e+00 0.0000000000000000e+00  0.0000000000000000e+00 0.0000000000000000e+00 0.0000000000000000e+00  0.0000000000000000e+00 0.0000000000000000e+00 0.0000000000000000e+00  -3.2112591878078212e-12 4.7693430998433622e-17 0.0000000000000000e+00  0.0000000000000000e+00 0.0000000000000000e+00 0.0000000000000000e+00  0.0000000000000000e+00 0.0000000000000000e+00 0.0000000000000000e+00  0.0000000000000000e+00 0.0000000000000000e+00 0.0000000000000000e+00  0.0000000000000000e+00 0.0000000000000000e+00 0.0000000000000000e+00  0.0000000000000000e+00 0.0000000000000000e+00 0.0000000000000000e+00  0.0000000000000000e+00 0.0000000000000000e+00 0.0000000000000000e+00  0.0000000000000000e+00 0.0000000000000000e+00 0.0000000000000000e+00  0.0000000000000000e+00 0.0000000000000000e+00 0.0000000000000000e+00  0.0000000000000000e+00 0.0000000000000000e+00 0.0000000000000000e+00  0.0000000000000000e+00 0.0000000000000000e+00 0.0000000000000000e+00  -3.1594689228510292e-13 6.4054938212873973e-14 0.0000000000000000e+00  0.0000000000000000e+00 0.0000000000000000e+00 0.0000000000000000e+00  0.0000000000000000e+00 0.0000000000000000e+00 0.0000000000000000e+00  0.0000000000000000e+00 0.0000000000000000e+00 0.0000000000000000e+00  0.0000000000000000e+00 0.0000000000000000e+00 0.0000000000000000e+00  -3.5259301777496377e-13 -3.9888446103934523e-14 0.0000000000000000e+00  0.0000000000000000e+00 0.0000000000000000e+00 0.0000000000000000e+00  0.0000000000000000e+00 0.0000000000000000e+00 0.0000000000000000e+00  0.0000000000000000e+00 0.0000000000000000e+00 0.0000000000000000e+00  0.0000000000000000e+00 0.0000000000000000e+00 0.0000000000000000e+00  0.0000000000000000e+00 0.0000000000000000e+00 0.0000000000000000e+00  0.0000000000000000e+00 0.0000000000000000e+00 0.0000000000000000e+00  0.0000000000000000e+00 0.0000000000000000e+00 0.0000000000000000e+00  0.0000000000000000e+00 0.0000000000000000e+00 0.0000000000000000e+00  0.0000000000000000e+00 0.0000000000000000e+00 0.0000000000000000e+00  0.0000000000000000e+00 0.0000000000000000e+00 0.0000000000000000e+00  0.0000000000000000e+00 0.0000000000000000e+00 0.0000000000000000e+00  0.0000000000000000e+00 0.0000000000000000e+00 0.0000000000000000e+00  0.0000000000000000e+00 0.0000000000000000e+00 0.0000000000000000e+00  0.0000000000000000e+00 0.0000000000000000e+00 0.0000000000000000e+00  0.0000000000000000e+00 0.0000000000000000e+00 0.0000000000000000e+00  0.0000000000000000e+00 0.0000000000000000e+00 0.0000000000000000e+00  0.0000000000000000e+00 0.0000000000000000e+00 0.0000000000000000e+00  0.0000000000000000e+00 0.0000000000000000e+00 0.0000000000000000e+00  0.0000000000000000e+00 0.0000000000000000e+00 0.0000000000000000e+00  0.0000000000000000e+00 0.0000000000000000e+00 0.0000000000000000e+00  0.0000000000000000e+00 0.0000000000000000e+00 0.0000000000000000e+00  0.0000000000000000e+00 0.0000000000000000e+00 0.0000000000000000e+00  0.0000000000000000e+00 0.0000000000000000e+00 0.0000000000000000e+00  0.0000000000000000e+00 0.0000000000000000e+00 0.0000000000000000e+00  0.0000000000000000e+00 0.0000000000000000e+00 0.0000000000000000e+00  0.0000000000000000e+00 0.0000000000000000e+00 0.0000000000000000e+00  0.0000000000000000e+00 0.0000000000000000e+00 0.0000000000000000e+00  0.0000000000000000e+00 0.0000000000000000e+00 0.0000000000000000e+00  0.0000000000000000e+00 0.0000000000000000e+00 0.0000000000000000e+00  0.0000000000000000e+00 0.0000000000000000e+00 0.0000000000000000e+00  0.0000000000000000e+00 0.0000000000000000e+00 0.0000000000000000e+00  -9.2481172912592909e-14 -5.0469978525130641e-13 0.0000000000000000e+00  1.3451893718968380e-06 -1.3598320194760246e-06 0.0000000000000000e+00  2.8657814053317196e-06 -2.0206321936796880e-06 0.0000000000000000e+00  4.4221855199117525e-06 -3.0778884572694782e-06 0.0000000000000000e+00  6.0941838008761977e-06 -4.5821488982956855e-06 0.0000000000000000e+00  7.6966296880063395e-06 -6.5311672106450822e-06 0.0000000000000000e+00  9.4153414146396564e-06 -8.9680703444896339e-06 0.0000000000000000e+00  1.1015547669241550e-05 -1.1780716389132134e-05 0.0000000000000000e+00  1.2619251436434104e-05 -1.5100348975376443e-05 0.0000000000000000e+00  1.4327140713089831e-05 -1.8816296396029818e-05 0.0000000000000000e+00  1.5877544899715681e-05 -2.2953279971815099e-05 0.0000000000000000e+00  1.7555833333177126e-05 -2.7519507753617230e-05 0.0000000000000000e+00  1.9063562181442336e-05 -3.2481583432480777e-05 0.0000000000000000e+00  2.0662531032932199e-05 -3.7841731193309295e-05 0.0000000000000000e+00  2.2124827580380618e-05 -4.3525401373086942e-05 0.0000000000000000e+00  2.3558232842789253e-05 -4.9615399162137295e-05 0.0000000000000000e+00  2.5044471824442129e-05 -5.6019718455155090e-05 0.0000000000000000e+00  2.6376693692609011e-05 -6.2737118363061112e-05 0.0000000000000000e+00  2.7771246221117821e-05 -6.9787606395286606e-05 0.0000000000000000e+00  2.9012902164994083e-05 -7.7106927615195895e-05 0.0000000000000000e+00  3.0297352056182975e-05 -8.4714768190211558e-05 0.0000000000000000e+00  3.1462071891759369e-05 -9.2566367689843858e-05 0.0000000000000000e+00  3.2629575307597130e-05 -1.0068062985986670e-04 0.0000000000000000e+00  3.3696069002493834e-05 -1.0897898467290283e-04 0.0000000000000000e+00  3.4716408901906568e-05 -1.1751327438446237e-04 0.0000000000000000e+00  3.5738748142466620e-05 -1.2621473151747174e-04 0.0000000000000000e+00  3.6669865090998359e-05 -1.3509056745192782e-04 0.0000000000000000e+00  3.7565906472664878e-05 -1.4414747844517165e-04 0.0000000000000000e+00  3.8398716353752142e-05 -1.5331848733690678e-04 0.0000000000000000e+00  3.9194810483575968e-05 -1.6264563706768100e-04 0.0000000000000000e+00  3.9932571178948780e-05 -1.7206009138898403e-04 0.0000000000000000e+00  4.0633388994890887e-05 -1.8160313503638923e-04 0.0000000000000000e+00  4.1279596924812594e-05 -1.9120831228086114e-04 0.0000000000000000e+00  4.1889147350003806e-05 -2.0091802929623256e-04 0.0000000000000000e+00  4.2447996064743824e-05 -2.1066830866972456e-04 0.0000000000000000e+00  4.2969280560226169e-05 -2.2050330519228031e-04 0.0000000000000000e+00  4.3444680068387271e-05 -2.3036161527266859e-04 0.0000000000000000e+00  4.3883854070767281e-05 -2.4028612684635542e-04 0.0000000000000000e+00  4.4280278571125283e-05 -2.5022049426480346e-04 0.0000000000000000e+00  4.4640499531803366e-05 -2.6020690692339399e-04 0.0000000000000000e+00  4.4959197878119666e-05 -2.7019137950715024e-04 0.0000000000000000e+00  4.5238033730437927e-05 -2.8021001535146850e-04 0.0000000000000000e+00  4.5484230611186390e-05 -2.9023144431507926e-04 0.0000000000000000e+00  4.5692014423246264e-05 -3.0026791854966830e-04 0.0000000000000000e+00  4.5879294011840209e-05 -3.1030947507225718e-04 0.0000000000000000e+00  4.6024411191167336e-05 -3.2034427750759857e-04 0.0000000000000000e+00  4.6172289225839335e-05 -3.3042159828745768e-04 0.0000000000000000e+00  3.9353892277604255e-05 -3.4048092251042498e-04 0.0000000000000000e+00  2.5837901593711883e-05 -3.4012481517416095e-04 0.0000000000000000e+00  1.9131030875052285e-05 -3.2998507170420429e-04 0.0000000000000000e+00  1.9008847943361836e-05 -3.1986798919680622e-04 0.0000000000000000e+00  1.8884292914880706e-05 -3.0973351333702141e-04 0.0000000000000000e+00  1.8726754495534914e-05 -2.9962225451934547e-04 0.0000000000000000e+00  1.8548199376823048e-05 -2.8951874368864366e-04 0.0000000000000000e+00  1.8336525811331418e-05 -2.7942832255717891e-04 0.0000000000000000e+00  1.8107126048548523e-05 -2.6935701075546164e-04 0.0000000000000000e+00  1.7840981574339145e-05 -2.5929022193671371e-04 0.0000000000000000e+00  1.7558600493268642e-05 -2.4926646947719512e-04 0.0000000000000000e+00  1.7242542993228392e-05 -2.3924985663022891e-04 0.0000000000000000e+00  1.6917494186580574e-05 -2.2928820201758771e-04 0.0000000000000000e+00  1.6556979599949107e-05 -2.1934744152159538e-04 0.0000000000000000e+00  1.6194693789812751e-05 -2.0947591397130365e-04 0.0000000000000000e+00  1.5793875283020036e-05 -1.9964343740237552e-04 0.0000000000000000e+00  1.5400672426886896e-05 -1.8989755043021024e-04 0.0000000000000000e+00  1.4963879981322881e-05 -1.8021114390990035e-04 0.0000000000000000e+00  1.4544724551252383e-05 -1.7063236054986982e-04 0.0000000000000000e+00  1.4076186213335520e-05 -1.6113687476632647e-04 0.0000000000000000e+00  1.3635868192350222e-05 -1.5177396497184306e-04 0.0000000000000000e+00  1.3139272009164388e-05 -1.4252250362887213e-04 0.0000000000000000e+00  1.2683991806183451e-05 -1.3343201452780364e-04 0.0000000000000000e+00  1.2164101234338037e-05 -1.2448483887177262e-04 0.0000000000000000e+00  1.1688887023763825e-05 -1.1572606390120378e-04 0.0000000000000000e+00  1.1160854688250175e-05 -1.0713583150309858e-04 0.0000000000000000e+00  1.0619405358142205e-05 -9.8787205196999760e-05 0.0000000000000000e+00  1.0129664227537389e-05 -9.0619068943587636e-05 0.0000000000000000e+00  9.5895497661864994e-06 -8.2710513529727530e-05 0.0000000000000000e+00  9.0758811397701911e-06 -7.5061287940142411e-05 0.0000000000000000e+00  8.5287415785367208e-06 -6.7684124419340984e-05 0.0000000000000000e+00  8.0077277232432123e-06 -6.0607465046697580e-05 0.0000000000000000e+00  7.4554216207862404e-06 -5.3824010042577113e-05 0.0000000000000000e+00  6.9643173969495879e-06 -4.7412210159960363e-05 0.0000000000000000e+00  6.3963526337971663e-06 -4.1285452197912316e-05 0.0000000000000000e+00  5.8257275662914439e-06 -3.5581922699237637e-05 0.0000000000000000e+00  5.3449782101426150e-06 -3.0180572388528474e-05 0.0000000000000000e+00  4.8119839135553659e-06 -2.5213742888923779e-05 0.0000000000000000e+00  4.3240207715774280e-06 -2.0646349364680484e-05 0.0000000000000000e+00  3.8040167148034757e-06 -1.6487824162716521e-05 0.0000000000000000e+00  3.3705320814618951e-06 -1.2806204530172489e-05 0.0000000000000000e+00  2.8469296025659305e-06 -9.4924643732335443e-06 0.0000000000000000e+00  2.3274302889392385e-06 -6.6992295660509703e-06 0.0000000000000000e+00  1.9228035182604862e-06 -4.2740005747458513e-06 0.0000000000000000e+00  1.4467549509607377e-06 -2.3355256377913347e-06 0.0000000000000000e+00  1.0665453216870602e-06 -8.6037511297820308e-07 0.0000000000000000e+00  6.2653197693395823e-07 1.3915846848899144e-07 0.0000000000000000e+00  3.2578394286181092e-07 6.3753406722866073e-07 0.0000000000000000e+00  1.1698605984893199e-06 -3.4432802764656942e-07 0.0000000000000000e+00  3.2632206270392119e-05 -3.2512700042713265e-04 0.0000000000000000e+00  3.2540551591646453e-05 -3.0585227826489811e-04 0.0000000000000000e+00  3.1758430801993528e-05 -2.7442817294273648e-04 0.0000000000000000e+00  3.2450342336174144e-06 -2.3630947072482250e-06 0.0000000000000000e+00  3.1029416245646075e-05 -2.5472478747349251e-04 0.0000000000000000e+00  5.2120896274885392e-06 -6.0470879255349219e-06 0.0000000000000000e+00  3.0322329097383278e-05 -2.3476559147635127e-04 0.0000000000000000e+00  8.4859288706231192e-06 -1.5602321316942133e-05 0.0000000000000000e+00  1.0620127717095189e-05 -2.3769976249888376e-05 0.0000000000000000e+00  2.9492742859473731e-05 -2.1495580548811484e-04 0.0000000000000000e+00  1.5646086522092949e-05 -5.1710108909931452e-05 0.0000000000000000e+00  2.7469662600017484e-05 -1.7605090126690306e-04 0.0000000000000000e+00  1.2528524669638103e-05 -3.3265344245635111e-05 0.0000000000000000e+00  1.7632233755521843e-05 -6.4972113715613898e-05 0.0000000000000000e+00  2.6277613601415364e-05 -1.5712314494862234e-04 0.0000000000000000e+00  2.8541611079484028e-05 -1.9535859517333357e-04 0.0000000000000000e+00  1.9454052833834848e-05 -7.9690042081428637e-05 0.0000000000000000e+00  2.4964846403677879e-05 -1.3868099028574836e-04 0.0000000000000000e+00  2.0965839754591388e-05 -9.4804400221101644e-05 0.0000000000000000e+00  2.3717810608747525e-05 -1.2121297987866428e-04 0.0000000000000000e+00  2.2306888254430759e-05 -1.0726571983336572e-04 0.0000000000000000e+00  1.4148497573122410e-05 -4.1721759338149138e-05 0.0000000000000000e+00  3.1948168748187929e-05 -2.9074907942792596e-04 0.0000000000000000e+00  6.8286235569421163e-06 -1.0177302119630475e-05 0.0000000000000000e+00  2.7869479472410723e-05 -3.1533374691756013e-04 0.0000000000000000e+00  1.6853615184890130e-06 -7.4748142555169988e-07 0.0000000000000000e+00  2.6813514315970572e-05 -2.4458851075495337e-04 0.0000000000000000e+00  2.7438651956704769e-05 -2.6461855377591336e-04 0.0000000000000000e+00  5.1917462414290469e-06 -4.5063060333128462e-06 0.0000000000000000e+00  1.1179121810300698e-05 -1.9777422364155912e-05 0.0000000000000000e+00  2.4275459387847550e-05 -1.8547479802678995e-04 0.0000000000000000e+00  2.6076005504334089e-05 -2.2468079387074480e-04 0.0000000000000000e+00  1.9305137030208777e-05 -5.8394951889093498e-05 0.0000000000000000e+00  2.3219440292717293e-05 -1.6632986912636783e-04 0.0000000000000000e+00  1.3581451249944760e-05 -2.8913060004793952e-05 0.0000000000000000e+00  2.1401436227171783e-05 -7.2517489283409657e-05 0.0000000000000000e+00  2.2063108969967010e-05 -1.4761614703869794e-04 0.0000000000000000e+00  2.5228738290086743e-05 -2.0495274507667841e-04 0.0000000000000000e+00  2.4039175964460266e-05 -8.7748197667837692e-05 0.0000000000000000e+00  2.0807562503055297e-05 -1.2944609252521437e-04 0.0000000000000000e+00  5.3179232146056202e-07 -2.9644245513799383e-07 0.0000000000000000e+00  3.3864119543069282e-07 1.9048921984448643e-07 0.0000000000000000e+00  3.5789085365625402e-05 -3.3312201691014471e-04 0.0000000000000000e+00  2.7639368729085977e-06 -1.6198243838889850e-06 0.0000000000000000e+00  1