<?xml version="1.0"?>
<VTKFile type="UnstructuredGrid"  version="0.1"  >
<UnstructuredGrid>
<Piece  NumberOfPoints="1419" NumberOfCells="2698">
<Points>
<DataArray  type="Float64"  NumberOfComponents="3"  format="ascii">0 0 0  0 0.41 0  2.5 0 0  2.5 0.41 0  0.6 0.19 0  0.6 0.21 0  0.25 0.2 0  0.15 0.2 0  0.2489897948556636 0.21 0  0.2489897948556636 0.19 0  0.6 0.2 0  0 0.3807142857143437 0  0 0.3514285714286952 0  0 0.3221428571430699 0  0 0.29285714285744 0  0 0.2635714285718054 0  0 0.2342857142861561 0  0 0.2050000000005308 0  0 0.175714285714732 0  0 0.1464285714289574 0  0 0.1171428571431897 0  0 0.08785714285737878 0  0 0.05857142857161107 0  0 0.02928571428580012 0  0.03015443760436003 0 0  0.06140001986583606 0 0  0.09377624077125973 0 0  0.1273239957535082 0 0  0.1620856860351972 0 0  0.1981052433264291 0 0  0.235428184091502 0 0  0.2741016576309132 0 0  0.3141745521465447 0 0  0.3556974926295285 0 0  0.3987229542472677 0 0  0.4433053055141081 0 0  0.4895008759286886 0 0  0.5373680609405097 0 0  0.5869673343216626 0 0  0.6383613676634521 0 0  0.6916151138468254 0 0  0.7467958595648856 0 0  0.8039733463919316 0 0  0.8632198139502143 0 0  0.9246101326867038 0 0  0.9882218810934433 0 0  1.054135445558498 0 0  1.122434100542598 0 0  1.193204177141305 0 0  1.266535089879536 0 0  1.342519516046404 0 0  1.421253448503939 0 0  1.502836389106271 0 0  1.587371439758838 0 0  1.674965418777374 0 0  1.765729001825544 0 0  1.859776908880082 0 0  1.957227977487062 0 0  2.058205329869943 0 0  2.162836591189951 0 0  2.271253957290865 0 0  2.383594446803425 0 0  2.5 0.1024999999997612 0  2.5 0.2049999999994743 0  2.5 0.3074999999997183 0  2.383594446803656 0.41 0  2.271253957291315 0.41 0  2.162836591190598 0.41 0  2.058205329870775 0.41 0  1.957227977488067 0.41 0  1.859776908881246 0.41 0  1.765729001826854 0.41 0  1.674965418778818 0.41 0  1.58737143976041 0.41 0  1.502836389107956 0.41 0  1.421253448505726 0.41 0  1.342519516048286 0.41 0  1.266535089881505 0.41 0  1.193204177143353 0.41 0  1.122434100544716 0.41 0  1.05413544556068 0.41 0  0.9882218810956305 0.41 0  0.9246101326886647 0.41 0  0.8632198139519631 0.41 0  0.8039733463934788 0.41 0  0.7467958595662458 0.41 0  0.6916151138480078 0.41 0  0.6383613676644679 0.41 0  0.5869673343225223 0.41 0  0.5373680609412221 0.41 0  0.4895008759292634 0.41 0  0.4433053055145528 0.41 0  0.3987229542475914 0.41 0  0.3556974926297398 0.41 0  0.3141745521466497 0.41 0  0.2741016576310038 0.41 0  0.2354281840915826 0.41 0  0.1981052433265003 0.41 0  0.1620856860352591 0.41 0  0.1273239957535623 0.41 0  0.09377624077128965 0.41 0  0.06140001986584975 0.41 0  0.03015443760436654 0.41 0  0.2497468076502589 0.2050254481002335 0  0.2497468076502614 0.1949745518997913 0  0.2469965252529372 0.1829317073451959 0  0.2439893735792749 0.1762316384219906 0  0.2400332147834255 0.1700443375285386 0  0.2352133972704371 0.1645032867342007 0  0.2296339016332438 0.1597280261969788 0  0.2234150974217223 0.1558215752574715 0  0.2166911463437691 0.1528682099456123 0  0.2096071079204251 0.1509316448471593 0  0.2023158100364996 0.1500536585536553 0  0.194974551899914 0.1502531923497262 0  0.1877417105387872 0.1515259415822739 0  0.1807733240461124 0.153844448527136 0  0.1742197252835808 0.15715869474974 0  0.1682222986673531 0.1613971801805478 0  0.162910430003803 0.1664684656256651 0  0.1583987151779087 0.1722631454351573 0  0.1547844879126891 0.178656207771761 0  0.1521457199348551 0.1855097315605723 0  0.1505393388476355 0.1926758619366523 0  0.1505393388476328 0.2073241380633295 0  0.1521457199348437 0.2144902684393899 0  0.1547844879126531 0.221343792228163 0  0.1583987151778488 0.2277368545647528 0  0.1629104300036858 0.2335315343742052 0  0.1682222986671726 0.2386028198193036 0  0.1742197252833576 0.2428413052501257 0  0.1807733240458683 0.2461555514727623 0  0.1877417105384929 0.2484740584176516 0  0.1949745518995776 0.2497468076502398 0  0.202315810036185 0.2499463414463592 0  0.2096071079201568 0.2490683551528932 0  0.2166911463435495 0.2471317900544655 0  0.2234150974215506 0.2441784247426195 0  0.2296339016331197 0.2402719738031125 0  0.2352133972703547 0.2354967132658811 0  0.2400332147833751 0.2299556624715287 0  0.2439893735792577 0.2237683615780412 0  0.246996525252926 0.2170682926548348 0  0.25645809709277 0.21 0  0.2639263993298655 0.21 0  0.271394701566961 0.21 0  0.2788630038040554 0.21 0  0.2863313060411479 0.21 0  0.2937996082782405 0.21 0  0.301267910515333 0.21 0  0.3087362127524279 0.21 0  0.3162045149895234 0.21 0  0.3236728172265972 0.21 0  0.3311411194636928 0.21 0  0.3386094217007701 0.21 0  0.3460777239378666 0.21 0  0.3535460261749672 0.21 0  0.3610143284120516 0.21 0  0.3684826306491596 0.21 0  0.3759509328862226 0.21 0  0.383419235123329 0.21 0  0.3908875373604028 0.21 0  0.3983558395975142 0.21 0  0.4058241418345938 0.21 0  0.4132924440716992 0.21 0  0.4207607463087888 0.21 0  0.4282290485459029 0.21 0  0.4356973507830418 0.21 0  0.4431656530201649 0.21 0  0.4506339552573136 0.21 0  0.4581022574944306 0.21 0  0.4655705597315852 0.21 0  0.4730388619686996 0.21 0  0.480507164205851 0.21 0  0.4879754664429498 0.21 0  0.4954437686800938 0.21 0  0.502912070917267 0.21 0  0.5103803731544119 0.21 0  0.5178486753915261 0.21 0  0.5253169776286404 0.21 0  0.5327852798657868 0.21 0  0.5402535821029386 0.21 0  0.54772188434007 0.21 0  0.5551901865771842 0.21 0  0.5626584888143201 0.21 0  0.5701267910514778 0.21 0  0.5775950932886138 0.21 0  0.5850633955257281 0.21 0  0.5925316977628483 0.21 0  0.6 0.2050000000000054 0  0.6 0.1950000000000217 0  0.5925316977628897 0.19 0  0.5850633955257988 0.19 0  0.5775950932887378 0.19 0  0.5701267910515998 0.19 0  0.5626584888145268 0.19 0  0.5551901865773963 0.19 0  0.547721884340339 0.19 0  0.5402535821032429 0.19 0  0.5327852798661811 0.19 0  0.5253169776290537 0.19 0  0.5178486753919799 0.19 0  0.5103803731549078 0.19 0  0.502912070917822 0.19 0  0.4954437686807294 0.19 0  0.4879754664436223 0.19 0  0.4805071642065402 0.19 0  0.4730388619694271 0.19 0  0.4655705597323621 0.19 0  0.4581022574952563 0.19 0  0.4506339552581777 0.19 0  0.4431656530210671 0.19 0  0.4356973507839815 0.19 0  0.4282290485468779 0.19 0  0.4207607463097617 0.19 0  0.4132924440726327 0.19 0  0.4058241418354857 0.19 0  0.3983558395983636 0.19 0  0.3908875373612097 0.19 0  0.3834192351240934 0.19 0  0.3759509328869369 0.19 0  0.3684826306498175 0.19 0  0.361014328412667 0.19 0  0.3535460261755617 0.19 0  0.3460777239384295 0.19 0  0.3386094217012945 0.19 0  0.3311411194641595 0.19 0  0.3236728172270245 0.19 0  0.3162045149898895 0.19 0  0.3087362127527544 0.19 0  0.3012679105156187 0.19 0  0.2937996082784807 0.19 0  0.2863313060413428 0.19 0  0.2788630038042048 0.19 0  0.2713947015670686 0.19 0  0.2639263993299336 0.19 0  0.2564580970927985 0.19 0  0.2607803159922026 0.2000727136295815 0  0.5887803774232762 0.2001272386983733 0  0.5745072403740523 0.2002044435018727 0  0.5511891430099709 0.2001122610077113 0  0.2751288526855082 0.20000000000002 0  0.5365194309847112 0.1999999999999436 0  0.2894621222999649 0.1998691686390484 0  0.5215828265105155 0.1999999999999228 0  0.3127789816668748 0.1998657885438805 0  0.3274069683451451 0.2000000000000796 0  0.5066462220363641 0.199999999999908 0  0.3650630746574081 0.199866017807523 0  0.476773013087985 0.1999999999998713 0  0.3417402379596385 0.1998691686391011 0  0.3796850840047755 0.200000000000134 0  0.4618364086138087 0.1999999999998546 0  0.4917096175621762 0.1999999999998808 0  0.3946216884789568 0.2000000000001512 0  0.446899804139621 0.1999999999998389 0  0.4089549580935208 0.1998691686391595 0  0.4322718174608562 0.200127451265745 0  0.4201487168029707 0.1999966199048527 0  0.3528922713220932 0.2000185703532356 0  0.5633122436674589 0.1999814296467508 0  0.3006558810093873 0.1999966199048318 0  0.5815926498168407 0.1966545283159175 0  0.2677053789419034 0.1964246479135325 0  0.5290511287476175 0.1970915826863981 0  0.5439877332217911 0.197091582686394 0  0.2825131256993216 0.2035478995978015 0  0.3199386661080599 0.202908417313604 0  0.4842413153250809 0.1970915826863873 0  0.5141145242734466 0.1970915826863843 0  0.3722167817676917 0.2029084173136195 0  0.4693047108508938 0.1970915826863783 0  0.3348752705822316 0.202908417313609 0  0.3871533862418661 0.2029084173136212 0  0.4543681063767183 0.1970915826863795 0  0.4991779197992749 0.1970915826863902 0  0.4020059614928624 0.203547899597858 0  0.4394315019025246 0.1970915826863714 0  0.2550657455369551 0.2034088125358657 0  0.2548908499171161 0.1966940311614271 0  0.5946539510196798 0.2024302972968126 0  0.267698176732111 0.2039977513680092 0  0.4261685417851465 0.196409292431739 0  0.3590076176283495 0.196411355804271 0  0.5571672426447437 0.2036011176410121 0  0.3066757059912147 0.1964092924317024 0  0.594380730180568 0.1966558399668133 0  0.4842413153245942 0.2040749161535287 0  0.4693047108503577 0.2040749161535231 0  0.3871533862424271 0.1959250838464788 0  0.372246743208829 0.1959123236376545 0  0.5141145242731028 0.2040749161535395 0  0.4543681063761134 0.2040749161535186 0  0.4019979587101454 0.1959834479682427 0  0.4394608940728603 0.2040870543693135 0  0.5439623148931173 0.2040856076781014 0  0.5290511287473298 0.2040749161535501 0  0.4991779197988497 0.2040749161535382 0  0.3347912413592433 0.1959225448935183 0  0.3199680582793816 0.1959123018030061 0  0.2825051229162361 0.1959834479681729 0  0.3590471196690275 0.2036304442587945 0  0.5571594006495384 0.1963685282145804 0  0.3067669986803285 0.203627750582736 0  0.4262598344738712 0.2036568242185335 0  0.5814408164431408 0.2041285596160068 0  0.5688286748170428 0.1961819304477386 0  0.4145905603063645 0.2038180695522843 0  0.3473758401724931 0.2038180695522752 0  0.2950977245128307 0.2038180695522663 0  0.5688286748170693 0.203818069552238 0  0.2950977245127906 0.1961819304477774 0  0.3473758401723931 0.1961819304478349 0  0.4145905603061963 0.1961819304479011 0  0.2601812407614425 0.2056861609747042
[...]
<PointData  Vectors="f_46-2"> 
<DataArray  type="Float64"  Name="f_46-2"  NumberOfComponents="3" format="ascii">0.0000000000000000e+00 0.0000000000000000e+00 0.0000000000000000e+00  0.0000000000000000e+00 0.0000000000000000e+00 0.0000000000000000e+00  0.0000000000000000e+00 0.0000000000000000e+00 0.0000000000000000e+00  0.0000000000000000e+00 0.0000000000000000e+00 0.0000000000000000e+00  2.8203379424660403e-05 -2.7415805554624776e-04 0.0000000000000000e+00  4.9558646291789544e-05 -2.7498498104340806e-04 0.0000000000000000e+00  0.0000000000000000e+00 0.0000000000000000e+00 0.0000000000000000e+00  0.0000000000000000e+00 0.0000000000000000e+00 0.0000000000000000e+00  0.0000000000000000e+00 0.0000000000000000e+00 0.0000000000000000e+00  0.0000000000000000e+00 0.0000000000000000e+00 0.0000000000000000e+00  3.8519173430115146e-05 -2.7457313946026150e-04 0.0000000000000000e+00  0.0000000000000000e+00 0.0000000000000000e+00 0.0000000000000000e+00  0.0000000000000000e+00 0.0000000000000000e+00 0.0000000000000000e+00  0.0000000000000000e+00 0.0000000000000000e+00 0.0000000000000000e+00  0.0000000000000000e+00 0.0000000000000000e+00 0.0000000000000000e+00  0.0000000000000000e+00 0.0000000000000000e+00 0.0000000000000000e+00  0.0000000000000000e+00 0.0000000000000000e+00 0.0000000000000000e+00  0.0000000000000000e+00 0.0000000000000000e+00 0.0000000000000000e+00  0.0000000000000000e+00 0.0000000000000000e+00 0.0000000000000000e+00  0.0000000000000000e+00 0.0000000000000000e+00 0.0000000000000000e+00  0.0000000000000000e+00 0.0000000000000000e+00 0.0000000000000000e+00  0.0000000000000000e+00 0.0000000000000000e+00 0.0000000000000000e+00  0.0000000000000000e+00 0.0000000000000000e+00 0.0000000000000000e+00  0.0000000000000000e+00 0.0000000000000000e+00 0.0000000000000000e+00  0.0000000000000000e+00 0.0000000000000000e+00 0.0000000000000000e+00  0.0000000000000000e+00 0.0000000000000000e+00 0.0000000000000000e+00  0.0000000000000000e+00 0.0000000000000000e+00 0.0000000000000000e+00  0.0000000000000000e+00 0.0000000000000000e+00 0.0000000000000000e+00  0.0000000000000000e+00 0.0000000000000000e+00 0.0000000000000000e+00  0.0000000000000000e+00 0.0000000000000000e+00 0.0000000000000000e+00  0.0000000000000000e+00 0.0000000000000000e+00 0.0000000000000000e+00  0.0000000000000000e+00 0.0000000000000000e+00 0.0000000000000000e+00  0.0000000000000000e+00 0.0000000000000000e+00 0.0000000000000000e+00  0.0000000000000000e+00 0.0000000000000000e+00 0.0000000000000000e+00  0.0000000000000000e+00 0.0000000000000000e+00 0.0000000000000000e+00  -7.0696533816183168e-15 0.0000000000000000e+00 0.0000000000000000e+00  0.0000000000000000e+00 0.0000000000000000e+00 0.0000000000000000e+00  0.0000000000000000e+00 0.0000000000000000e+00 0.0000000000000000e+00  0.0000000000000000e+00 0.0000000000000000e+00 0.0000000000000000e+00  0.0000000000000000e+00 0.0000000000000000e+00 0.0000000000000000e+00  0.0000000000000000e+00 0.0000000000000000e+00 0.0000000000000000e+00  0.0000000000000000e+00 0.0000000000000000e+00 0.0000000000000000e+00  0.0000000000000000e+00 0.0000000000000000e+00 0.0000000000000000e+00  0.0000000000000000e+00 0.0000000000000000e+00 0.0000000000000000e+00  0.0000000000000000e+00 0.0000000000000000e+00 0.0000000000000000e+00  0.0000000000000000e+00 0.0000000000000000e+00 0.0000000000000000e+00  0.0000000000000000e+00 0.0000000000000000e+00 0.0000000000000000e+00  0.0000000000000000e+00 0.0000000000000000e+00 0.0000000000000000e+00  0.0000000000000000e+00 0.0000000000000000e+00 0.0000000000000000e+00  0.0000000000000000e+00 0.0000000000000000e+00 0.0000000000000000e+00  0.0000000000000000e+00 0.0000000000000000e+00 0.0000000000000000e+00  0.0000000000000000e+00 0.0000000000000000e+00 0.0000000000000000e+00  0.0000000000000000e+00 0.0000000000000000e+00 0.0000000000000000e+00  0.0000000000000000e+00 0.0000000000000000e+00 0.0000000000000000e+00  0.0000000000000000e+00 0.0000000000000000e+00 0.0000000000000000e+00  0.0000000000000000e+00 0.0000000000000000e+00 0.0000000000000000e+00  0.0000000000000000e+00 0.0000000000000000e+00 0.0000000000000000e+00  0.0000000000000000e+00 0.0000000000000000e+00 0.0000000000000000e+00  0.0000000000000000e+00 0.0000000000000000e+00 0.0000000000000000e+00  0.0000000000000000e+00 0.0000000000000000e+00 0.0000000000000000e+00  0.0000000000000000e+00 0.0000000000000000e+00 0.0000000000000000e+00  0.0000000000000000e+00 0.0000000000000000e+00 0.0000000000000000e+00  0.0000000000000000e+00 0.0000000000000000e+00 0.0000000000000000e+00  0.0000000000000000e+00 0.0000000000000000e+00 0.0000000000000000e+00  0.0000000000000000e+00 0.0000000000000000e+00 0.0000000000000000e+00  0.0000000000000000e+00 0.0000000000000000e+00 0.0000000000000000e+00  0.0000000000000000e+00 0.0000000000000000e+00 0.0000000000000000e+00  0.0000000000000000e+00 0.0000000000000000e+00 0.0000000000000000e+00  0.0000000000000000e+00 0.0000000000000000e+00 0.0000000000000000e+00  0.0000000000000000e+00 0.0000000000000000e+00 0.0000000000000000e+00  0.0000000000000000e+00 0.0000000000000000e+00 0.0000000000000000e+00  0.0000000000000000e+00 0.0000000000000000e+00 0.0000000000000000e+00  0.0000000000000000e+00 0.0000000000000000e+00 0.0000000000000000e+00  0.0000000000000000e+00 0.0000000000000000e+00 0.0000000000000000e+00  0.0000000000000000e+00 0.0000000000000000e+00 0.0000000000000000e+00  0.0000000000000000e+00 0.0000000000000000e+00 0.0000000000000000e+00  0.0000000000000000e+00 0.0000000000000000e+00 0.0000000000000000e+00  0.0000000000000000e+00 0.0000000000000000e+00 0.0000000000000000e+00  0.0000000000000000e+00 0.0000000000000000e+00 0.0000000000000000e+00  0.0000000000000000e+00 0.0000000000000000e+00 0.0000000000000000e+00  0.0000000000000000e+00 0.0000000000000000e+00 0.0000000000000000e+00  0.0000000000000000e+00 0.0000000000000000e+00 0.0000000000000000e+00  0.0000000000000000e+00 0.0000000000000000e+00 0.0000000000000000e+00  0.0000000000000000e+00 0.0000000000000000e+00 0.0000000000000000e+00  0.0000000000000000e+00 0.0000000000000000e+00 0.0000000000000000e+00  0.0000000000000000e+00 0.0000000000000000e+00 0.0000000000000000e+00  0.0000000000000000e+00 0.0000000000000000e+00 0.0000000000000000e+00  0.0000000000000000e+00 0.0000000000000000e+00 0.0000000000000000e+00  8.2563117948778123e-13 0.0000000000000000e+00 0.0000000000000000e+00  0.0000000000000000e+00 0.0000000000000000e+00 0.0000000000000000e+00  0.0000000000000000e+00 0.0000000000000000e+00 0.0000000000000000e+00  0.0000000000000000e+00 0.0000000000000000e+00 0.0000000000000000e+00  0.0000000000000000e+00 0.0000000000000000e+00 0.0000000000000000e+00  0.0000000000000000e+00 0.0000000000000000e+00 0.0000000000000000e+00  1.2693677134855742e-13 9.0861877927830974e-18 0.0000000000000000e+00  0.0000000000000000e+00 0.0000000000000000e+00 0.0000000000000000e+00  0.0000000000000000e+00 0.0000000000000000e+00 0.0000000000000000e+00  0.0000000000000000e+00 0.0000000000000000e+00 0.0000000000000000e+00  0.0000000000000000e+00 0.0000000000000000e+00 0.0000000000000000e+00  0.0000000000000000e+00 0.0000000000000000e+00 0.0000000000000000e+00  0.0000000000000000e+00 0.0000000000000000e+00 0.0000000000000000e+00  0.0000000000000000e+00 0.0000000000000000e+00 0.0000000000000000e+00  0.0000000000000000e+00 0.0000000000000000e+00 0.0000000000000000e+00  0.0000000000000000e+00 0.0000000000000000e+00 0.0000000000000000e+00  0.0000000000000000e+00 0.0000000000000000e+00 0.0000000000000000e+00  9.4547860029055027e-14 5.7780327662150613e-14 0.0000000000000000e+00  0.0000000000000000e+00 0.0000000000000000e+00 0.0000000000000000e+00  0.0000000000000000e+00 0.0000000000000000e+00 0.0000000000000000e+00  0.0000000000000000e+00 0.0000000000000000e+00 0.0000000000000000e+00  0.0000000000000000e+00 0.0000000000000000e+00 0.0000000000000000e+00  1.2767392349074253e-14 4.4546992350718858e-14 0.0000000000000000e+00  0.0000000000000000e+00 0.0000000000000000e+00 0.0000000000000000e+00  0.0000000000000000e+00 0.0000000000000000e+00 0.0000000000000000e+00  0.0000000000000000e+00 0.0000000000000000e+00 0.0000000000000000e+00  0.0000000000000000e+00 0.0000000000000000e+00 0.0000000000000000e+00  0.0000000000000000e+00 0.0000000000000000e+00 0.0000000000000000e+00  0.0000000000000000e+00 0.0000000000000000e+00 0.0000000000000000e+00  0.0000000000000000e+00 0.0000000000000000e+00 0.0000000000000000e+00  0.0000000000000000e+00 0.0000000000000000e+00 0.0000000000000000e+00  0.0000000000000000e+00 0.0000000000000000e+00 0.0000000000000000e+00  0.0000000000000000e+00 0.0000000000000000e+00 0.0000000000000000e+00  0.0000000000000000e+00 0.0000000000000000e+00 0.0000000000000000e+00  0.0000000000000000e+00 0.0000000000000000e+00 0.0000000000000000e+00  0.0000000000000000e+00 0.0000000000000000e+00 0.0000000000000000e+00  0.0000000000000000e+00 0.0000000000000000e+00 0.0000000000000000e+00  0.0000000000000000e+00 0.0000000000000000e+00 0.0000000000000000e+00  0.0000000000000000e+00 0.0000000000000000e+00 0.0000000000000000e+00  0.0000000000000000e+00 0.0000000000000000e+00 0.0000000000000000e+00  0.0000000000000000e+00 0.0000000000000000e+00 0.0000000000000000e+00  0.0000000000000000e+00 0.0000000000000000e+00 0.0000000000000000e+00  0.0000000000000000e+00 0.0000000000000000e+00 0.0000000000000000e+00  0.0000000000000000e+00 0.0000000000000000e+00 0.0000000000000000e+00  0.0000000000000000e+00 0.0000000000000000e+00 0.0000000000000000e+00  0.0000000000000000e+00 0.0000000000000000e+00 0.0000000000000000e+00  0.0000000000000000e+00 0.0000000000000000e+00 0.0000000000000000e+00  0.0000000000000000e+00 0.0000000000000000e+00 0.0000000000000000e+00  0.0000000000000000e+00 0.0000000000000000e+00 0.0000000000000000e+00  0.0000000000000000e+00 0.0000000000000000e+00 0.0000000000000000e+00  0.0000000000000000e+00 0.0000000000000000e+00 0.0000000000000000e+00  0.0000000000000000e+00 0.0000000000000000e+00 0.0000000000000000e+00  0.0000000000000000e+00 0.0000000000000000e+00 0.0000000000000000e+00  0.0000000000000000e+00 0.0000000000000000e+00 0.0000000000000000e+00  1.3837552542823298e-12 -1.0885769383253851e-13 0.0000000000000000e+00  1.5472912840236834e-06 -1.6250173447226715e-06 0.0000000000000000e+00  3.2672829174606138e-06 -2.2937901967867746e-06 0.0000000000000000e+00  5.0324306503490711e-06 -3.2946909903274758e-06 0.0000000000000000e+00  6.8975497088673252e-06 -4.6824663984452682e-06 0.0000000000000000e+00  8.6917510414238952e-06 -6.4468912241481295e-06 0.0000000000000000e+00  1.0568414356927756e-05 -8.6296036192106182e-06 0.0000000000000000e+00  1.2332491734050873e-05 -1.1120597325342744e-05 0.0000000000000000e+00  1.4081931450260188e-05 -1.4025299419442032e-05 0.0000000000000000e+00  1.5901249738459092e-05 -1.7250660130958041e-05 0.0000000000000000e+00  1.7572980098889136e-05 -2.0804160425813702e-05 0.0000000000000000e+00  1.9327952626601795e-05 -2.4704829351859865e-05 0.0000000000000000e+00  2.0930206179473279e-05 -2.8902411652645259e-05 0.0000000000000000e+00  2.2582104588043292e-05 -3.3412557252306282e-05 0.0000000000000000e+00  2.4114266924512668e-05 -3.8168805646965696e-05 0.0000000000000000e+00  2.5605297606827399e-05 -4.3230309614709323e-05 0.0000000000000000e+00  2.7121680937645808e-05 -4.8531183213222466e-05 0.0000000000000000e+00  2.8503969161638524e-05 -5.4056725442189798e-05 0.0000000000000000e+00  2.9915517024784572e-05 -5.9838905254554740e-05 0.0000000000000000e+00  3.1199323754656070e-05 -6.5806661983751059e-05 0.0000000000000000e+00  3.2499453548900939e-05 -7.1995295537947729e-05 0.0000000000000000e+00  3.3697749030794908e-05 -7.8349999151750206e-05 0.0000000000000000e+00  3.4881270072019361e-05 -8.4900097280107069e-05 0.0000000000000000e+00  3.5982240418491114e-05 -9.1581653181013918e-05 0.0000000000000000e+00  3.7036343906741188e-05 -9.8430181009447900e-05 0.0000000000000000e+00  3.8081547116679459e-05 -1.0540126090201637e-04 0.0000000000000000e+00  3.9046877597901981e-05 -1.1248994850540391e-04 0.0000000000000000e+00  3.9974243946811069e-05 -1.1971585076708942e-04 0.0000000000000000e+00  4.0844594922456354e-05 -1.2701350070184805e-04 0.0000000000000000e+00  4.1676362509284627e-05 -1.3442948089583813e-04 0.0000000000000000e+00  4.2454982750460319e-05 -1.4189865492509587e-04 0.0000000000000000e+00  4.3195421221486817e-05 -1.4946581633891662e-04 0.0000000000000000e+00  4.3885086021874890e-05 -1.5706764966123894e-04 0.0000000000000000e+00  4.4536964214982497e-05 -1.6475055676943312e-04 0.0000000000000000e+00  4.5140647949638271e-05 -1.7245270360968914e-04 0.0000000000000000e+00  4.5705255784082734e-05 -1.8022269243335963e-04 0.0000000000000000e+00  4.6225434371648864e-05 -1.8799991171127695e-04 0.0000000000000000e+00  4.6707787584339121e-05 -1.9583169427850872e-04 0.0000000000000000e+00  4.7147554726248376e-05 -2.0366178362988440e-04 0.0000000000000000e+00  4.7548980469938372e-05 -2.1153680626994774e-04 0.0000000000000000e+00  4.7907618604214362e-05 -2.1940166364109280e-04 0.0000000000000000e+00  4.8223023834598902e-05 -2.2729568631328067e-04 0.0000000000000000e+00  4.8504762467584033e-05 -2.3518857275543319e-04 0.0000000000000000e+00  4.8744843168030932e-05 -2.4309339085998728e-04 0.0000000000000000e+00  4.8962188204905290e-05 -2.5100128730814916e-04 0.0000000000000000e+00  4.9133490350139181e-05 -2.5889917212702866e-04 0.0000000000000000e+00  4.9308577668185357e-05 -2.6684379667867865e-04 0.0000000000000000e+00  4.3916746880728702e-05 -2.7477298058608895e-04 0.0000000000000000e+00  3.3253527300000269e-05 -2.7437716550035731e-04 0.0000000000000000e+00  2.7970532438400984e-05 -2.6636724324109642e-04 0.0000000000000000e+00  2.7820426169524462e-05 -2.5837666609309962e-04 0.0000000000000000e+00  2.7667140615859551e-05 -2.5036515290855307e-04 0.0000000000000000e+00  2.7474230636612745e-05 -2.4237809503821104e-04 0.0000000000000000e+00  2.7257144650002513e-05 -2.3439748132329395e-04 0.0000000000000000e+00  2.7000655826977115e-05 -2.2642682340577906e-04 0.0000000000000000e+00  2.6720266274281976e-05 -2.1847283182500064e-04 0.0000000000000000e+00  2.6398475984951530e-05 -2.1051629799163967e-04 0.0000000000000000e+00  2.6051830779730920e-05 -2.0259915469709853e-04 0.0000000000000000e+00  2.5668428189735881e-05 -1.9467754233404460e-04 0.0000000000000000e+00  2.5265715274355271e-05 -1.8680404101823676e-04 0.0000000000000000e+00  2.4825470064126045e-05 -1.7893542518352071e-04 0.0000000000000000e+00  2.4370877809193537e-05 -1.7112456168423014e-04 0.0000000000000000e+00  2.3877145416584717e-05 -1.6333174775202069e-04 0.0000000000000000e+00  2.3376262672051178e-05 -1.5560842603196763e-04 0.0000000000000000e+00  2.2832649018117712e-05 -1.4791730629042571e-04 0.0000000000000000e+00  2.2289330304286905e-05 -1.4031035818778926e-04 0.0000000000000000e+00  2.1699501496821345e-05 -1.3275223809623902e-04 0.0000000000000000e+00  2.1117497416838595e-05 -1.2529618384787068e-04 0.0000000000000000e+00  2.0484178051266587e-05 -1.1790977168157401e-04 0.0000000000000000e+00  1.9868268667161462e-05 -1.1064575238030562e-04 0.0000000000000000e+00  1.9194643794450370e-05 -1.0347441431926225e-04 0.0000000000000000e+00  1.8539362211078164e-05 -9.6442472265101181e-05 0.0000000000000000e+00  1.7836846422261558e-05 -8.9527543395924786e-05 0.0000000000000000e+00  1.7111787963691775e-05 -8.2785691603096123e-05 0.0000000000000000e+00  1.6415468660749102e-05 -7.6173783584576406e-05 0.0000000000000000e+00  1.5668344634840519e-05 -6.9743146520553150e-05 0.0000000000000000e+00  1.4928457740282374e-05 -6.3507837453273043e-05 0.0000000000000000e+00  1.4152194442549402e-05 -5.7460604327032273e-05 0.0000000000000000e+00  1.3382979751044307e-05 -5.1641379124276463e-05 0.0000000000000000e+00  1.2578109981082456e-05 -4.6028166868847632e-05 0.0000000000000000e+00  1.1805187706119256e-05 -4.0697124838381610e-05 0.0000000000000000e+00  1.0966335857371865e-05 -3.5575687946200187e-05 0.0000000000000000e+00  1.0112978656495521e-05 -3.0775783556785593e-05 0.0000000000000000e+00  9.3206031580865312e-06 -2.6206161044084138e-05 0.0000000000000000e+00  8.4755131235881541e-06 -2.1968107480329704e-05 0.0000000000000000e+00  7.6553046321291065e-06 -1.8048590227826429e-05 0.0000000000000000e+00  6.8019657532449992e-06 -1.4445093220629304e-05 0.0000000000000000e+00  6.0097538967616792e-06 -1.1227243292396064e-05 0.0000000000000000e+00  5.1424317012841226e-06 -8.3071636861715170e-06 0.0000000000000000e+00  4.2751607858499930e-06 -5.8167488550077813e-06 0.0000000000000000e+00  3.5050924556309527e-06 -3.6352805947862743e-06 0.0000000000000000e+00  2.6785622995912716e-06 -1.8649851500041577e-06 0.0000000000000000e+00  1.9463604099994781e-06 -4.9620302123570371e-07 0.0000000000000000e+00  1.1817075891082616e-06 4.3648992336197762e-07 0.0000000000000000e+00  5.8145925490963944e-07 8.9738053674900560e-07 0.0000000000000000e+00  1.4861349574644560e-06 -3.6900073665323441e-07 0.0000000000000000e+00  3.8553630087769640e-05 -2.6259927931325668e-04 0.0000000000000000e+00  3.8396253136988519e-05 -2.4739615381836249e-04 0.0000000000000000e+00  3.7522813730082215e-05 -2.2261106546692314e-04 0.0000000000000000e+00  4.1174404341754134e-06 -2.2768423714194228e-06 0.0000000000000000e+00  3.6730185190904416e-05 -2.0706347913411786e-04 0.0000000000000000e+00  6.6051722623793186e-06 -5.6332268677242850e-06 0.0000000000000000e+00  3.5911447364365437e-05 -1.9130675054484999e-04 0.0000000000000000e+00  1.0661496373262472e-05 -1.4079606386741572e-05 0.0000000000000000e+00  1.3220263355510799e-05 -2.1135284590894829e-05 0.0000000000000000e+00  3.4955582971438430e-05 -1.7565408793950799e-04 0.0000000000000000e+00  1.9185791847357714e-05 -4.4632434415178399e-05 0.0000000000000000e+00  3.2638790102635269e-05 -1.4484495825536895e-04 0.0000000000000000e+00  1.5527437629303014e-05 -2.9203948212914323e-05 0.0000000000000000e+00  2.1438900795031432e-05 -5.5578678397339385e-05 0.0000000000000000e+00  3.1280307526052202e-05 -1.2980571326726232e-04 0.0000000000000000e+00  3.3864262743240901e-05 -1.6014894433328004e-04 0.0000000000000000e+00  2.3524698753900478e-05 -6.7611691779932221e-05 0.0000000000000000e+00  2.9788230428850582e-05 -1.1510759060692481e-04 0.0000000000000000e+00  2.5293818436182111e-05 -7.9870815359016489e-05 0.0000000000000000e+00  2.8322950564833163e-05 -1.0113659221988288e-04 0.0000000000000000e+00  2.6771845161467851e-05 -8.9926156448097715e-05 0.0000000000000000e+00  1.7394939991706281e-05 -3.6314164875655004e-05 0.0000000000000000e+00  3.7814205742304047e-05 -2.3548236653654517e-04 0.0000000000000000e+00  8.5986499533338593e-06 -9.3198752741708163e-06 0.0000000000000000e+00  3.4762287754983873e-05 -2.5484827930030186e-04 0.0000000000000000e+00  2.3187497919843927e-06 -6.2724443075152376e-07 0.0000000000000000e+00  3.3276638856286745e-05 -1.9901562805917656e-04 0.0000000000000000e+00  3.4012228846550805e-05 -2.1482899402593537e-04 0.0000000000000000e+00  6.2431532907676833e-06 -4.3767342732119455e-06 0.0000000000000000e+00  1.3339196810292451e-05 -1.7814322489262412e-05 0.0000000000000000e+00  3.0299039687150782e-05 -1.5225512275695357e-04 0.0000000000000000e+00  3.2410704078687628e-05 -1.8328752647283418e-04 0.0000000000000000e+00  2.2510629278267162e-05 -5.0261285953338074e-05 0.0000000000000000e+00  2.9060245889786678e-05 -1.3705738439742535e-04 0.0000000000000000e+00  1.6098103834315746e-05 -2.5630297016551985e-05 0.0000000000000000e+00  2.4824995614927576e-05 -6.1851799560356754e-05 0.0000000000000000e+00  2.7702509181353195e-05 -1.2216134825879322e-04 0.0000000000000000e+00  3.1416912278935322e-05 -1.6768434529098016e-04 0.0000000000000000e+00  2.7530679640167318e-05 -7.4266772436932502e-05 0.0000000000000000e+00  2.6226930869242029e-05 -1.0764869451085616e-04 0.0000000000000000e+00  6.4595228860966432e-07 -3.8026498394000917e-07 0.0000000000000000e+00  4.5959826806799698e-07 2.3303973003243649e-07 0.0000000000000000e+00  4.1066434800643809e-05 -2.6892380902018999e-04 0.0000000000000000e+00  3.3136223908632621e-06 -1.7272977678272965e-06 0.0000000000000000e+00  2.41953