<?xml version="1.0"?>
<VTKFile type="UnstructuredGrid"  version="0.1"  >
<UnstructuredGrid>
<Piece  NumberOfPoints="1419" NumberOfCells="2698">
<Points>
<DataArray  type="Float64"  NumberOfComponents="3"  format="ascii">0 0 0  0 0.41 0  2.5 0 0  2.5 0.41 0  0.6 0.19 0  0.6 0.21 0  0.25 0.2 0  0.15 0.2 0  0.2489897948556636 0.21 0  0.2489897948556636 0.19 0  0.6 0.2 0  0 0.3807142857143437 0  0 0.3514285714286952 0  0 0.3221428571430699 0  0 0.29285714285744 0  0 0.2635714285718054 0  0 0.2342857142861561 0  0 0.2050000000005308 0  0 0.175714285714732 0  0 0.1464285714289574 0  0 0.1171428571431897 0  0 0.08785714285737878 0  0 0.05857142857161107 0  0 0.02928571428580012 0  0.03015443760436003 0 0  0.06140001986583606 0 0  0.09377624077125973 0 0  0.1273239957535082 0 0  0.1620856860351972 0 0  0.1981052433264291 0 0  0.235428184091502 0 0  0.2741016576309132 0 0  0.3141745521465447 0 0  0.3556974926295285 0 0  0.3987229542472677 0 0  0.4433053055141081 0 0  0.4895008759286886 0 0  0.5373680609405097 0 0  0.5869673343216626 0 0  0.6383613676634521 0 0  0.6916151138468254 0 0  0.7467958595648856 0 0  0.8039733463919316 0 0  0.8632198139502143 0 0  0.9246101326867038 0 0  0.9882218810934433 0 0  1.054135445558498 0 0  1.122434100542598 0 0  1.193204177141305 0 0  1.266535089879536 0 0  1.342519516046404 0 0  1.421253448503939 0 0  1.502836389106271 0 0  1.587371439758838 0 0  1.674965418777374 0 0  1.765729001825544 0 0  1.859776908880082 0 0  1.957227977487062 0 0  2.058205329869943 0 0  2.162836591189951 0 0  2.271253957290865 0 0  2.383594446803425 0 0  2.5 0.1024999999997612 0  2.5 0.2049999999994743 0  2.5 0.3074999999997183 0  2.383594446803656 0.41 0  2.271253957291315 0.41 0  2.162836591190598 0.41 0  2.058205329870775 0.41 0  1.957227977488067 0.41 0  1.859776908881246 0.41 0  1.765729001826854 0.41 0  1.674965418778818 0.41 0  1.58737143976041 0.41 0  1.502836389107956 0.41 0  1.421253448505726 0.41 0  1.342519516048286 0.41 0  1.266535089881505 0.41 0  1.193204177143353 0.41 0  1.122434100544716 0.41 0  1.05413544556068 0.41 0  0.9882218810956305 0.41 0  0.9246101326886647 0.41 0  0.8632198139519631 0.41 0  0.8039733463934788 0.41 0  0.7467958595662458 0.41 0  0.6916151138480078 0.41 0  0.6383613676644679 0.41 0  0.5869673343225223 0.41 0  0.5373680609412221 0.41 0  0.4895008759292634 0.41 0  0.4433053055145528 0.41 0  0.3987229542475914 0.41 0  0.3556974926297398 0.41 0  0.3141745521466497 0.41 0  0.2741016576310038 0.41 0  0.2354281840915826 0.41 0  0.1981052433265003 0.41 0  0.1620856860352591 0.41 0  0.1273239957535623 0.41 0  0.09377624077128965 0.41 0  0.06140001986584975 0.41 0  0.03015443760436654 0.41 0  0.2497468076502589 0.2050254481002335 0  0.2497468076502614 0.1949745518997913 0  0.2469965252529372 0.1829317073451959 0  0.2439893735792749 0.1762316384219906 0  0.2400332147834255 0.1700443375285386 0  0.2352133972704371 0.1645032867342007 0  0.2296339016332438 0.1597280261969788 0  0.2234150974217223 0.1558215752574715 0  0.2166911463437691 0.1528682099456123 0  0.2096071079204251 0.1509316448471593 0  0.2023158100364996 0.1500536585536553 0  0.194974551899914 0.1502531923497262 0  0.1877417105387872 0.1515259415822739 0  0.1807733240461124 0.153844448527136 0  0.1742197252835808 0.15715869474974 0  0.1682222986673531 0.1613971801805478 0  0.162910430003803 0.1664684656256651 0  0.1583987151779087 0.1722631454351573 0  0.1547844879126891 0.178656207771761 0  0.1521457199348551 0.1855097315605723 0  0.1505393388476355 0.1926758619366523 0  0.1505393388476328 0.2073241380633295 0  0.1521457199348437 0.2144902684393899 0  0.1547844879126531 0.221343792228163 0  0.1583987151778488 0.2277368545647528 0  0.1629104300036858 0.2335315343742052 0  0.1682222986671726 0.2386028198193036 0  0.1742197252833576 0.2428413052501257 0  0.1807733240458683 0.2461555514727623 0  0.1877417105384929 0.2484740584176516 0  0.1949745518995776 0.2497468076502398 0  0.202315810036185 0.2499463414463592 0  0.2096071079201568 0.2490683551528932 0  0.2166911463435495 0.2471317900544655 0  0.2234150974215506 0.2441784247426195 0  0.2296339016331197 0.2402719738031125 0  0.2352133972703547 0.2354967132658811 0  0.2400332147833751 0.2299556624715287 0  0.2439893735792577 0.2237683615780412 0  0.246996525252926 0.2170682926548348 0  0.25645809709277 0.21 0  0.2639263993298655 0.21 0  0.271394701566961 0.21 0  0.2788630038040554 0.21 0  0.2863313060411479 0.21 0  0.2937996082782405 0.21 0  0.301267910515333 0.21 0  0.3087362127524279 0.21 0  0.3162045149895234 0.21 0  0.3236728172265972 0.21 0  0.3311411194636928 0.21 0  0.3386094217007701 0.21 0  0.3460777239378666 0.21 0  0.3535460261749672 0.21 0  0.3610143284120516 0.21 0  0.3684826306491596 0.21 0  0.3759509328862226 0.21 0  0.383419235123329 0.21 0  0.3908875373604028 0.21 0  0.3983558395975142 0.21 0  0.4058241418345938 0.21 0  0.4132924440716992 0.21 0  0.4207607463087888 0.21 0  0.4282290485459029 0.21 0  0.4356973507830418 0.21 0  0.4431656530201649 0.21 0  0.4506339552573136 0.21 0  0.4581022574944306 0.21 0  0.4655705597315852 0.21 0  0.4730388619686996 0.21 0  0.480507164205851 0.21 0  0.4879754664429498 0.21 0  0.4954437686800938 0.21 0  0.502912070917267 0.21 0  0.5103803731544119 0.21 0  0.5178486753915261 0.21 0  0.5253169776286404 0.21 0  0.5327852798657868 0.21 0  0.5402535821029386 0.21 0  0.54772188434007 0.21 0  0.5551901865771842 0.21 0  0.5626584888143201 0.21 0  0.5701267910514778 0.21 0  0.5775950932886138 0.21 0  0.5850633955257281 0.21 0  0.5925316977628483 0.21 0  0.6 0.2050000000000054 0  0.6 0.1950000000000217 0  0.5925316977628897 0.19 0  0.5850633955257988 0.19 0  0.5775950932887378 0.19 0  0.5701267910515998 0.19 0  0.5626584888145268 0.19 0  0.5551901865773963 0.19 0  0.547721884340339 0.19 0  0.5402535821032429 0.19 0  0.5327852798661811 0.19 0  0.5253169776290537 0.19 0  0.5178486753919799 0.19 0  0.5103803731549078 0.19 0  0.502912070917822 0.19 0  0.4954437686807294 0.19 0  0.4879754664436223 0.19 0  0.4805071642065402 0.19 0  0.4730388619694271 0.19 0  0.4655705597323621 0.19 0  0.4581022574952563 0.19 0  0.4506339552581777 0.19 0  0.4431656530210671 0.19 0  0.4356973507839815 0.19 0  0.4282290485468779 0.19 0  0.4207607463097617 0.19 0  0.4132924440726327 0.19 0  0.4058241418354857 0.19 0  0.3983558395983636 0.19 0  0.3908875373612097 0.19 0  0.3834192351240934 0.19 0  0.3759509328869369 0.19 0  0.3684826306498175 0.19 0  0.361014328412667 0.19 0  0.3535460261755617 0.19 0  0.3460777239384295 0.19 0  0.3386094217012945 0.19 0  0.3311411194641595 0.19 0  0.3236728172270245 0.19 0  0.3162045149898895 0.19 0  0.3087362127527544 0.19 0  0.3012679105156187 0.19 0  0.2937996082784807 0.19 0  0.2863313060413428 0.19 0  0.2788630038042048 0.19 0  0.2713947015670686 0.19 0  0.2639263993299336 0.19 0  0.2564580970927985 0.19 0  0.2607803159922026 0.2000727136295815 0  0.5887803774232762 0.2001272386983733 0  0.5745072403740523 0.2002044435018727 0  0.5511891430099709 0.2001122610077113 0  0.2751288526855082 0.20000000000002 0  0.5365194309847112 0.1999999999999436 0  0.2894621222999649 0.1998691686390484 0  0.5215828265105155 0.1999999999999228 0  0.3127789816668748 0.1998657885438805 0  0.3274069683451451 0.2000000000000796 0  0.5066462220363641 0.199999999999908 0  0.3650630746574081 0.199866017807523 0  0.476773013087985 0.1999999999998713 0  0.3417402379596385 0.1998691686391011 0  0.3796850840047755 0.200000000000134 0  0.4618364086138087 0.1999999999998546 0  0.4917096175621762 0.1999999999998808 0  0.3946216884789568 0.2000000000001512 0  0.446899804139621 0.1999999999998389 0  0.4089549580935208 0.1998691686391595 0  0.4322718174608562 0.200127451265745 0  0.4201487168029707 0.1999966199048527 0  0.3528922713220932 0.2000185703532356 0  0.5633122436674589 0.1999814296467508 0  0.3006558810093873 0.1999966199048318 0  0.5815926498168407 0.1966545283159175 0  0.2677053789419034 0.1964246479135325 0  0.5290511287476175 0.1970915826863981 0  0.5439877332217911 0.197091582686394 0  0.2825131256993216 0.2035478995978015 0  0.3199386661080599 0.202908417313604 0  0.4842413153250809 0.1970915826863873 0  0.5141145242734466 0.1970915826863843 0  0.3722167817676917 0.2029084173136195 0  0.4693047108508938 0.1970915826863783 0  0.3348752705822316 0.202908417313609 0  0.3871533862418661 0.2029084173136212 0  0.4543681063767183 0.1970915826863795 0  0.4991779197992749 0.1970915826863902 0  0.4020059614928624 0.203547899597858 0  0.4394315019025246 0.1970915826863714 0  0.2550657455369551 0.2034088125358657 0  0.2548908499171161 0.1966940311614271 0  0.5946539510196798 0.2024302972968126 0  0.267698176732111 0.2039977513680092 0  0.4261685417851465 0.196409292431739 0  0.3590076176283495 0.196411355804271 0  0.5571672426447437 0.2036011176410121 0  0.3066757059912147 0.1964092924317024 0  0.594380730180568 0.1966558399668133 0  0.4842413153245942 0.2040749161535287 0  0.4693047108503577 0.2040749161535231 0  0.3871533862424271 0.1959250838464788 0  0.372246743208829 0.1959123236376545 0  0.5141145242731028 0.2040749161535395 0  0.4543681063761134 0.2040749161535186 0  0.4019979587101454 0.1959834479682427 0  0.4394608940728603 0.2040870543693135 0  0.5439623148931173 0.2040856076781014 0  0.5290511287473298 0.2040749161535501 0  0.4991779197988497 0.2040749161535382 0  0.3347912413592433 0.1959225448935183 0  0.3199680582793816 0.1959123018030061 0  0.2825051229162361 0.1959834479681729 0  0.3590471196690275 0.2036304442587945 0  0.5571594006495384 0.1963685282145804 0  0.3067669986803285 0.203627750582736 0  0.4262598344738712 0.2036568242185335 0  0.5814408164431408 0.2041285596160068 0  0.5688286748170428 0.1961819304477386 0  0.4145905603063645 0.2038180695522843 0  0.3473758401724931 0.2038180695522752 0  0.2950977245128307 0.2038180695522663 0  0.5688286748170693 0.203818069552238 0  0.2950977245127906 0.1961819304477774 0  0.3473758401723931 0.1961819304478349 0  0.4145905603061963 0.1961819304479011 0  0.2601812407614425 0.2056861609747042
[...]
<PointData  Vectors="f_46-2"> 
<DataArray  type="Float64"  Name="f_46-2"  NumberOfComponents="3" format="ascii">0.0000000000000000e+00 0.0000000000000000e+00 0.0000000000000000e+00  0.0000000000000000e+00 0.0000000000000000e+00 0.0000000000000000e+00  0.0000000000000000e+00 0.0000000000000000e+00 0.0000000000000000e+00  0.0000000000000000e+00 0.0000000000000000e+00 0.0000000000000000e+00  1.6677127550435921e-05 -3.5318247036848711e-04 0.0000000000000000e+00  4.5367140370591989e-05 -3.5389935914485179e-04 0.0000000000000000e+00  0.0000000000000000e+00 0.0000000000000000e+00 0.0000000000000000e+00  0.0000000000000000e+00 0.0000000000000000e+00 0.0000000000000000e+00  0.0000000000000000e+00 0.0000000000000000e+00 0.0000000000000000e+00  0.0000000000000000e+00 0.0000000000000000e+00 0.0000000000000000e+00  3.0715927512995112e-05 -3.5354092041725202e-04 0.0000000000000000e+00  0.0000000000000000e+00 0.0000000000000000e+00 0.0000000000000000e+00  0.0000000000000000e+00 0.0000000000000000e+00 0.0000000000000000e+00  0.0000000000000000e+00 0.0000000000000000e+00 0.0000000000000000e+00  0.0000000000000000e+00 0.0000000000000000e+00 0.0000000000000000e+00  0.0000000000000000e+00 0.0000000000000000e+00 0.0000000000000000e+00  0.0000000000000000e+00 0.0000000000000000e+00 0.0000000000000000e+00  0.0000000000000000e+00 0.0000000000000000e+00 0.0000000000000000e+00  0.0000000000000000e+00 0.0000000000000000e+00 0.0000000000000000e+00  0.0000000000000000e+00 0.0000000000000000e+00 0.0000000000000000e+00  0.0000000000000000e+00 0.0000000000000000e+00 0.0000000000000000e+00  0.0000000000000000e+00 0.0000000000000000e+00 0.0000000000000000e+00  0.0000000000000000e+00 0.0000000000000000e+00 0.0000000000000000e+00  0.0000000000000000e+00 0.0000000000000000e+00 0.0000000000000000e+00  0.0000000000000000e+00 0.0000000000000000e+00 0.0000000000000000e+00  0.0000000000000000e+00 0.0000000000000000e+00 0.0000000000000000e+00  0.0000000000000000e+00 0.0000000000000000e+00 0.0000000000000000e+00  0.0000000000000000e+00 0.0000000000000000e+00 0.0000000000000000e+00  0.0000000000000000e+00 0.0000000000000000e+00 0.0000000000000000e+00  0.0000000000000000e+00 0.0000000000000000e+00 0.0000000000000000e+00  0.0000000000000000e+00 0.0000000000000000e+00 0.0000000000000000e+00  0.0000000000000000e+00 0.0000000000000000e+00 0.0000000000000000e+00  0.0000000000000000e+00 0.0000000000000000e+00 0.0000000000000000e+00  0.0000000000000000e+00 0.0000000000000000e+00 0.0000000000000000e+00  0.0000000000000000e+00 0.0000000000000000e+00 0.0000000000000000e+00  3.9452829880644367e-14 0.0000000000000000e+00 0.0000000000000000e+00  0.0000000000000000e+00 0.0000000000000000e+00 0.0000000000000000e+00  0.0000000000000000e+00 0.0000000000000000e+00 0.0000000000000000e+00  0.0000000000000000e+00 0.0000000000000000e+00 0.0000000000000000e+00  0.0000000000000000e+00 0.0000000000000000e+00 0.0000000000000000e+00  0.0000000000000000e+00 0.0000000000000000e+00 0.0000000000000000e+00  0.0000000000000000e+00 0.0000000000000000e+00 0.0000000000000000e+00  0.0000000000000000e+00 0.0000000000000000e+00 0.0000000000000000e+00  0.0000000000000000e+00 0.0000000000000000e+00 0.0000000000000000e+00  0.0000000000000000e+00 0.0000000000000000e+00 0.0000000000000000e+00  0.0000000000000000e+00 0.0000000000000000e+00 0.0000000000000000e+00  0.0000000000000000e+00 0.0000000000000000e+00 0.0000000000000000e+00  0.0000000000000000e+00 0.0000000000000000e+00 0.0000000000000000e+00  0.0000000000000000e+00 0.0000000000000000e+00 0.0000000000000000e+00  0.0000000000000000e+00 0.0000000000000000e+00 0.0000000000000000e+00  0.0000000000000000e+00 0.0000000000000000e+00 0.0000000000000000e+00  0.0000000000000000e+00 0.0000000000000000e+00 0.0000000000000000e+00  0.0000000000000000e+00 0.0000000000000000e+00 0.0000000000000000e+00  0.0000000000000000e+00 0.0000000000000000e+00 0.0000000000000000e+00  0.0000000000000000e+00 0.0000000000000000e+00 0.0000000000000000e+00  0.0000000000000000e+00 0.0000000000000000e+00 0.0000000000000000e+00  0.0000000000000000e+00 0.0000000000000000e+00 0.0000000000000000e+00  0.0000000000000000e+00 0.0000000000000000e+00 0.0000000000000000e+00  0.0000000000000000e+00 0.0000000000000000e+00 0.0000000000000000e+00  0.0000000000000000e+00 0.0000000000000000e+00 0.0000000000000000e+00  0.0000000000000000e+00 0.0000000000000000e+00 0.0000000000000000e+00  0.0000000000000000e+00 0.0000000000000000e+00 0.0000000000000000e+00  0.0000000000000000e+00 0.0000000000000000e+00 0.0000000000000000e+00  0.0000000000000000e+00 0.0000000000000000e+00 0.0000000000000000e+00  0.0000000000000000e+00 0.0000000000000000e+00 0.0000000000000000e+00  0.0000000000000000e+00 0.0000000000000000e+00 0.0000000000000000e+00  0.0000000000000000e+00 0.0000000000000000e+00 0.0000000000000000e+00  0.0000000000000000e+00 0.0000000000000000e+00 0.0000000000000000e+00  0.0000000000000000e+00 0.0000000000000000e+00 0.0000000000000000e+00  0.0000000000000000e+00 0.0000000000000000e+00 0.0000000000000000e+00  0.0000000000000000e+00 0.0000000000000000e+00 0.0000000000000000e+00  0.0000000000000000e+00 0.0000000000000000e+00 0.0000000000000000e+00  0.0000000000000000e+00 0.0000000000000000e+00 0.0000000000000000e+00  0.0000000000000000e+00 0.0000000000000000e+00 0.0000000000000000e+00  0.0000000000000000e+00 0.0000000000000000e+00 0.0000000000000000e+00  0.0000000000000000e+00 0.0000000000000000e+00 0.0000000000000000e+00  0.0000000000000000e+00 0.0000000000000000e+00 0.0000000000000000e+00  0.0000000000000000e+00 0.0000000000000000e+00 0.0000000000000000e+00  0.0000000000000000e+00 0.0000000000000000e+00 0.0000000000000000e+00  0.0000000000000000e+00 0.0000000000000000e+00 0.0000000000000000e+00  0.0000000000000000e+00 0.0000000000000000e+00 0.0000000000000000e+00  0.0000000000000000e+00 0.0000000000000000e+00 0.0000000000000000e+00  0.0000000000000000e+00 0.0000000000000000e+00 0.0000000000000000e+00  0.0000000000000000e+00 0.0000000000000000e+00 0.0000000000000000e+00  0.0000000000000000e+00 0.0000000000000000e+00 0.0000000000000000e+00  0.0000000000000000e+00 0.0000000000000000e+00 0.0000000000000000e+00  0.0000000000000000e+00 0.0000000000000000e+00 0.0000000000000000e+00  0.0000000000000000e+00 0.0000000000000000e+00 0.0000000000000000e+00  2.9063401467946646e-13 0.0000000000000000e+00 0.0000000000000000e+00  0.0000000000000000e+00 0.0000000000000000e+00 0.0000000000000000e+00  0.0000000000000000e+00 0.0000000000000000e+00 0.0000000000000000e+00  0.0000000000000000e+00 0.0000000000000000e+00 0.0000000000000000e+00  0.0000000000000000e+00 0.0000000000000000e+00 0.0000000000000000e+00  0.0000000000000000e+00 0.0000000000000000e+00 0.0000000000000000e+00  -1.4768591580147625e-13 -1.3889008323664048e-18 0.0000000000000000e+00  0.0000000000000000e+00 0.0000000000000000e+00 0.0000000000000000e+00  0.0000000000000000e+00 0.0000000000000000e+00 0.0000000000000000e+00  0.0000000000000000e+00 0.0000000000000000e+00 0.0000000000000000e+00  0.0000000000000000e+00 0.0000000000000000e+00 0.0000000000000000e+00  0.0000000000000000e+00 0.0000000000000000e+00 0.0000000000000000e+00  0.0000000000000000e+00 0.0000000000000000e+00 0.0000000000000000e+00  0.0000000000000000e+00 0.0000000000000000e+00 0.0000000000000000e+00  0.0000000000000000e+00 0.0000000000000000e+00 0.0000000000000000e+00  0.0000000000000000e+00 0.0000000000000000e+00 0.0000000000000000e+00  0.0000000000000000e+00 0.0000000000000000e+00 0.0000000000000000e+00  -1.9398289894294333e-13 -6.6186614734620146e-15 0.0000000000000000e+00  0.0000000000000000e+00 0.0000000000000000e+00 0.0000000000000000e+00  0.0000000000000000e+00 0.0000000000000000e+00 0.0000000000000000e+00  0.0000000000000000e+00 0.0000000000000000e+00 0.0000000000000000e+00  0.0000000000000000e+00 0.0000000000000000e+00 0.0000000000000000e+00  -8.1015928044534415e-13 -1.0380945491222607e-21 0.0000000000000000e+00  0.0000000000000000e+00 0.0000000000000000e+00 0.0000000000000000e+00  0.0000000000000000e+00 0.0000000000000000e+00 0.0000000000000000e+00  0.0000000000000000e+00 0.0000000000000000e+00 0.0000000000000000e+00  0.0000000000000000e+00 0.0000000000000000e+00 0.0000000000000000e+00  0.0000000000000000e+00 0.0000000000000000e+00 0.0000000000000000e+00  0.0000000000000000e+00 0.0000000000000000e+00 0.0000000000000000e+00  0.0000000000000000e+00 0.0000000000000000e+00 0.0000000000000000e+00  0.0000000000000000e+00 0.0000000000000000e+00 0.0000000000000000e+00  0.0000000000000000e+00 0.0000000000000000e+00 0.0000000000000000e+00  0.0000000000000000e+00 0.0000000000000000e+00 0.0000000000000000e+00  0.0000000000000000e+00 0.0000000000000000e+00 0.0000000000000000e+00  0.0000000000000000e+00 0.0000000000000000e+00 0.0000000000000000e+00  0.0000000000000000e+00 0.0000000000000000e+00 0.0000000000000000e+00  0.0000000000000000e+00 0.0000000000000000e+00 0.0000000000000000e+00  0.0000000000000000e+00 0.0000000000000000e+00 0.0000000000000000e+00  0.0000000000000000e+00 0.0000000000000000e+00 0.0000000000000000e+00  0.0000000000000000e+00 0.0000000000000000e+00 0.0000000000000000e+00  0.0000000000000000e+00 0.0000000000000000e+00 0.0000000000000000e+00  0.0000000000000000e+00 0.0000000000000000e+00 0.0000000000000000e+00  0.0000000000000000e+00 0.0000000000000000e+00 0.0000000000000000e+00  0.0000000000000000e+00 0.0000000000000000e+00 0.0000000000000000e+00  0.0000000000000000e+00 0.0000000000000000e+00 0.0000000000000000e+00  0.0000000000000000e+00 0.0000000000000000e+00 0.0000000000000000e+00  0.0000000000000000e+00 0.0000000000000000e+00 0.0000000000000000e+00  0.0000000000000000e+00 0.0000000000000000e+00 0.0000000000000000e+00  0.0000000000000000e+00 0.0000000000000000e+00 0.0000000000000000e+00  0.0000000000000000e+00 0.0000000000000000e+00 0.0000000000000000e+00  0.0000000000000000e+00 0.0000000000000000e+00 0.0000000000000000e+00  0.0000000000000000e+00 0.0000000000000000e+00 0.0000000000000000e+00  0.0000000000000000e+00 0.0000000000000000e+00 0.0000000000000000e+00  0.0000000000000000e+00 0.0000000000000000e+00 0.0000000000000000e+00  1.6290334856387737e-12 2.0482005120473980e-13 0.0000000000000000e+00  1.2148287219531604e-06 -1.2108407273211330e-06 0.0000000000000000e+00  2.6036188015765972e-06 -1.7819347593595035e-06 0.0000000000000000e+00  4.0384717733580675e-06 -2.7266832872233928e-06 0.0000000000000000e+00  5.5946359176691013e-06 -4.0941569692217022e-06 0.0000000000000000e+00  7.0942656413648817e-06 -5.8984945382502633e-06 0.0000000000000000e+00  8.7205543950128815e-06 -8.1833345665475410e-06 0.0000000000000000e+00  1.0237152364696698e-05 -1.0848106012671015e-05 0.0000000000000000e+00  1.1767210014454179e-05 -1.4030300654296785e-05 0.0000000000000000e+00  1.3413555912293228e-05 -1.7622084272253186e-05 0.0000000000000000e+00  1.4907753072801238e-05 -2.1657488237390373e-05 0.0000000000000000e+00  1.6546485387295963e-05 -2.6143004629467823e-05 0.0000000000000000e+00  1.8014677674992881e-05 -3.1056611960527400e-05 0.0000000000000000e+00  1.9592130293965011e-05 -3.6397173290947941e-05 0.0000000000000000e+00  2.1030618854735483e-05 -4.2090280366081607e-05 0.0000000000000000e+00  2.2448162507942754e-05 -4.8229389271033920e-05 0.0000000000000000e+00  2.3932525616518213e-05 -5.4713870012085042e-05 0.0000000000000000e+00  2.5257542308762762e-05 -6.1550349229928076e-05 0.0000000000000000e+00  2.6661981376260249e-05 -6.8753544909387818e-05 0.0000000000000000e+00  2.7904322636654104e-05 -7.6265173880432163e-05 0.0000000000000000e+00  2.9203878376476594e-05 -8.4096957350360095e-05 0.0000000000000000e+00  3.0376768152634103e-05 -9.2211217202391966e-05 0.0000000000000000e+00  3.1562826279868041e-05 -1.0062163392517952e-04 0.0000000000000000e+00  3.2639317937240422e-05 -1.0924324476132195e-04 0.0000000000000000e+00  3.3670990551936673e-05 -1.1813664777699624e-04 0.0000000000000000e+00  3.4710890742220297e-05 -1.2722087071575985e-04 0.0000000000000000e+00  3.5653938048983527e-05 -1.3650978723724980e-04 0.0000000000000000e+00  3.6563417187227454e-05 -1.4600384501032231e-04 0.0000000000000000e+00  3.7406129095600814e-05 -1.5563511603717672e-04 0.0000000000000000e+00  3.8212763450720068e-05 -1.6544390153462534e-04 0.0000000000000000e+00  3.8957438795533864e-05 -1.7535874478319166e-04 0.0000000000000000e+00  3.9665189841279301e-05 -1.8541998543968014e-04 0.0000000000000000e+00  4.0315053977870570e-05 -1.9555839045736040e-04 0.0000000000000000e+00  4.0927911791954923e-05 -2.0581549673350205e-04 0.0000000000000000e+00  4.1487343203906901e-05 -2.1612465068666958e-04 0.0000000000000000e+00  4.2008704360081533e-05 -2.2652920871360385e-04 0.0000000000000000e+00  4.2481980265767581e-05 -2.3696550333021340e-04 0.0000000000000000e+00  4.2918564183333032e-05 -2.4747565107808910e-04 0.0000000000000000e+00  4.3310840047413342e-05 -2.5800151348452546e-04 0.0000000000000000e+00  4.3666618086849285e-05 -2.6858447375027272e-04 0.0000000000000000e+00  4.3980018527441966e-05 -2.7916941285284529e-04 0.0000000000000000e+00  4.4253790060265282e-05 -2.8979194305793184e-04 0.0000000000000000e+00  4.4494260586310767e-05 -3.0041919733586034e-04 0.0000000000000000e+00  4.4696531892896589e-05 -3.1106348838298308e-04 0.0000000000000000e+00  4.4878652613583880e-05 -3.2171389903518300e-04 0.0000000000000000e+00  4.5019084072910943e-05 -3.3235889841061244e-04 0.0000000000000000e+00  4.5161671204731908e-05 -3.4304562895474266e-04 0.0000000000000000e+00  3.7937456791650200e-05 -3.5371470962566447e-04 0.0000000000000000e+00  2.3606092646703047e-05 -3.5337099854724699e-04 0.0000000000000000e+00  1.6490486912610630e-05 -3.4262333881884452e-04 0.0000000000000000e+00  1.6374539839351440e-05 -3.3189836566744008e-04 0.0000000000000000e+00  1.6256404397733536e-05 -3.2115715477651547e-04 0.0000000000000000e+00  1.6107360393956601e-05 -3.1043921442339356e-04 0.0000000000000000e+00  1.5938114419676281e-05 -2.9972983976228395e-04 0.0000000000000000e+00  1.5737575146476230e-05 -2.8903541079672448e-04 0.0000000000000000e+00  1.5521640066458849e-05 -2.7836177715819324e-04 0.0000000000000000e+00  1.5269922901181444e-05 -2.6769624858298757e-04 0.0000000000000000e+00  1.5005513744849018e-05 -2.5707676508757138e-04 0.0000000000000000e+00  1.4707691993350838e-05 -2.4647027134446430e-04 0.0000000000000000e+00  1.4405417996440722e-05 -2.3592374407842306e-04 0.0000000000000000e+00  1.4067396922245020e-05 -2.2540652980612374e-04 0.0000000000000000e+00  1.3733405730394652e-05 -2.1496624287199712e-04 0.0000000000000000e+00  1.3359913438863504e-05 -2.0457644985321573e-04 0.0000000000000000e+00  1.3001163096707595e-05 -1.9428409595195970e-04 0.0000000000000000e+00  1.2597033856356730e-05 -1.8406623151117135e-04 0.0000000000000000e+00  1.2219063319812494e-05 -1.7397036073544075e-04 0.0000000000000000e+00  1.1789035032496118e-05 -1.6397683538276831e-04 0.0000000000000000e+00  1.1397464951517621e-05 -1.5413393112088285e-04 0.0000000000000000e+00  1.0946022129049791e-05 -1.4442550842346265e-04 0.0000000000000000e+00  1.0547944824392673e-05 -1.3490005380601208e-04 0.0000000000000000e+00  1.0080802551262653e-05 -1.2554536632862243e-04 0.0000000000000000e+00  9.6714248429815100e-06 -1.1640592621367921e-04 0.0000000000000000e+00  9.2057884283633110e-06 -1.0746254403565337e-04 0.0000000000000000e+00  8.7309059417461081e-06 -9.8796551696031260e-05 0.0000000000000000e+00  8.3188726335096117e-06 -9.0337282807374482e-05 0.0000000000000000e+00  7.8560014306584522e-06 -8.2176848576875997e-05 0.0000000000000000e+00  7.4282560044761873e-06 -7.4307368429703241e-05 0.0000000000000000e+00  6.9677138621590939e-06 -6.6749894144829122e-05 0.0000000000000000e+00  6.5412172877525658e-06 -5.9526686124541899e-05 0.0000000000000000e+00  6.0842984959244785e-06 -5.2635514308430893e-05 0.0000000000000000e+00  5.6993545642224477e-06 -4.6154336219378611e-05 0.0000000000000000e+00  5.2316096195754448e-06 -3.9988980447913480e-05 0.0000000000000000e+00  4.7638748403974656e-06 -3.4286080126623127e-05 0.0000000000000000e+00  4.3946299529365411e-06 -2.8911798586974836e-05 0.0000000000000000e+00  3.9696597676371820e-06 -2.4005862253156057e-05 0.0000000000000000e+00  3.5926045800932077e-06 -1.9524704884478218e-05 0.0000000000000000e+00  3.1794550615732894e-06 -1.5476032816587141e-05 0.0000000000000000e+00  2.8528887938858200e-06 -1.1924585830940766e-05 0.0000000000000000e+00  2.4286165036916758e-06 -8.7521478210667904e-06 0.0000000000000000e+00  2.0028542820585447e-06 -6.1092522390415971e-06 0.0000000000000000e+00  1.6855813942152049e-06 -3.8364048655407259e-06 0.0000000000000000e+00  1.2870815848931882e-06 -2.0441485009328025e-06 0.0000000000000000e+00  9.6983047319629281e-07 -7.0457974285303025e-07 0.0000000000000000e+00  5.8265901683748703e-07 1.8812656858358934e-07 0.0000000000000000e+00  3.1001003615189803e-07 6.1179077079495915e-07 0.0000000000000000e+00  1.0680968113648939e-06 -2.6485787031195832e-07 0.0000000000000000e+00  3.0824420681804592e-05 -3.3745208440922502e-04 0.0000000000000000e+00  3.0747266816272217e-05 -3.1701396476361377e-04 0.0000000000000000e+00  2.9982095910500447e-05 -2.8369707851087740e-04 0.0000000000000000e+00  2.9626188283918357e-06 -2.0561282047256323e-06 0.0000000000000000e+00  2.9264011291631455e-05 -2.6281486925686543e-04 0.0000000000000000e+00  4.7593454214479727e-06 -5.4520060194281341e-06 0.0000000000000000e+00  2.8579940308229652e-05 -2.4167248796052823e-04 0.0000000000000000e+00  7.7617682980421949e-06 -1.4546389021802576e-05 0.0000000000000000e+00  9.7377455814911724e-06 -2.2500904269268770e-05 0.0000000000000000e+00  2.7776027100745404e-05 -2.2070608493173410e-04 0.0000000000000000e+00  1.4432203942172742e-05 -5.0401794161379000e-05 0.0000000000000000e+00  2.5812162616022874e-05 -1.7961513807975571e-04 0.0000000000000000e+00  1.1506931703303880e-05 -3.1885589977385777e-05 0.0000000000000000e+00  1.6323854747690042e-05 -6.3885544230271664e-05 0.0000000000000000e+00  2.4654291702915825e-05 -1.5968594947990793e-04 0.0000000000000000e+00  2.6853144106198778e-05 -1.9999022266367712e-04 0.0000000000000000e+00  1.8063135575401115e-05 -7.8976060428858759e-05 0.0000000000000000e+00  2.3379836570489935e-05 -1.4032385270673148e-04 0.0000000000000000e+00  1.9503649475899181e-05 -9.4582993343555845e-05 0.0000000000000000e+00  2.2182225875973259e-05 -1.2204885771472316e-04 0.0000000000000000e+00  2.0807075353499417e-05 -1.0751888706052631e-04 0.0000000000000000e+00  1.3031803959456545e-05 -4.0338437729075960e-05 0.0000000000000000e+00  3.0147846259708703e-05 -3.0100067382704874e-04 0.0000000000000000e+00  6.2420653337407204e-06 -9.3500878136447346e-06 0.0000000000000000e+00  2.5782256175124179e-05 -3.2707563312752173e-04 0.0000000000000000e+00  1.5384628188771769e-06 -6.0303011693194098e-07 0.0000000000000000e+00  2.4830093552791363e-05 -2.5208922972111446e-04 0.0000000000000000e+00  2.5429936389044561e-05 -2.7331160905040726e-04 0.0000000000000000e+00  4.7588876267030578e-06 -4.0180221209441259e-06 0.0000000000000000e+00  1.0337281142388735e-05 -1.8581735201836775e-05 0.0000000000000000e+00  2.2396268942909345e-05 -1.8957221713103699e-04 0.0000000000000000e+00  2.4122431715290521e-05 -2.3101089715428275e-04 0.0000000000000000e+00  1.8088467305672162e-05 -5.7163910041564961e-05 0.0000000000000000e+00  2.1385674287822510e-05 -1.6939179850673105e-04 0.0000000000000000e+00  1.2604820203681168e-05 -2.7550973490238638e-05 0.0000000000000000e+00  2.0121596665470984e-05 -7.1588420662216628e-05 0.0000000000000000e+00  2.0281398741804895e-05 -1.4971634232164538e-04 0.0000000000000000e+00  2.3309787847315070e-05 -2.1014427721143452e-04 0.0000000000000000e+00  2.2732561308594167e-05 -8.7261266528182910e-05 0.0000000000000000e+00  1.9085349423592577e-05 -1.3067420862540726e-04 0.0000000000000000e+00  4.8454278724539304e-07 -2.4947824950934583e-07 0.0000000000000000e+00  3.1016406712315849e-07 1.9414378769404984e-07 0.0000000000000000e+00  3.4166933556001415e-05 -3.4592437951766328e-04 0.0000000000000000e+00  2.5232374393148186e-06 -1.3989266645135622e-06 0.0000000000000000e+00  1.7