<?xml version="1.0"?>
<VTKFile type="UnstructuredGrid"  version="0.1"  >
<UnstructuredGrid>
<Piece  NumberOfPoints="1419" NumberOfCells="2698">
<Points>
<DataArray  type="Float64"  NumberOfComponents="3"  format="ascii">0 0 0  0 0.41 0  2.5 0 0  2.5 0.41 0  0.6 0.19 0  0.6 0.21 0  0.25 0.2 0  0.15 0.2 0  0.2489897948556636 0.21 0  0.2489897948556636 0.19 0  0.6 0.2 0  0 0.3807142857143437 0  0 0.3514285714286952 0  0 0.3221428571430699 0  0 0.29285714285744 0  0 0.2635714285718054 0  0 0.2342857142861561 0  0 0.2050000000005308 0  0 0.175714285714732 0  0 0.1464285714289574 0  0 0.1171428571431897 0  0 0.08785714285737878 0  0 0.05857142857161107 0  0 0.02928571428580012 0  0.03015443760436003 0 0  0.06140001986583606 0 0  0.09377624077125973 0 0  0.1273239957535082 0 0  0.1620856860351972 0 0  0.1981052433264291 0 0  0.235428184091502 0 0  0.2741016576309132 0 0  0.3141745521465447 0 0  0.3556974926295285 0 0  0.3987229542472677 0 0  0.4433053055141081 0 0  0.4895008759286886 0 0  0.5373680609405097 0 0  0.5869673343216626 0 0  0.6383613676634521 0 0  0.6916151138468254 0 0  0.7467958595648856 0 0  0.8039733463919316 0 0  0.8632198139502143 0 0  0.9246101326867038 0 0  0.9882218810934433 0 0  1.054135445558498 0 0  1.122434100542598 0 0  1.193204177141305 0 0  1.266535089879536 0 0  1.342519516046404 0 0  1.421253448503939 0 0  1.502836389106271 0 0  1.587371439758838 0 0  1.674965418777374 0 0  1.765729001825544 0 0  1.859776908880082 0 0  1.957227977487062 0 0  2.058205329869943 0 0  2.162836591189951 0 0  2.271253957290865 0 0  2.383594446803425 0 0  2.5 0.1024999999997612 0  2.5 0.2049999999994743 0  2.5 0.3074999999997183 0  2.383594446803656 0.41 0  2.271253957291315 0.41 0  2.162836591190598 0.41 0  2.058205329870775 0.41 0  1.957227977488067 0.41 0  1.859776908881246 0.41 0  1.765729001826854 0.41 0  1.674965418778818 0.41 0  1.58737143976041 0.41 0  1.502836389107956 0.41 0  1.421253448505726 0.41 0  1.342519516048286 0.41 0  1.266535089881505 0.41 0  1.193204177143353 0.41 0  1.122434100544716 0.41 0  1.05413544556068 0.41 0  0.9882218810956305 0.41 0  0.9246101326886647 0.41 0  0.8632198139519631 0.41 0  0.8039733463934788 0.41 0  0.7467958595662458 0.41 0  0.6916151138480078 0.41 0  0.6383613676644679 0.41 0  0.5869673343225223 0.41 0  0.5373680609412221 0.41 0  0.4895008759292634 0.41 0  0.4433053055145528 0.41 0  0.3987229542475914 0.41 0  0.3556974926297398 0.41 0  0.3141745521466497 0.41 0  0.2741016576310038 0.41 0  0.2354281840915826 0.41 0  0.1981052433265003 0.41 0  0.1620856860352591 0.41 0  0.1273239957535623 0.41 0  0.09377624077128965 0.41 0  0.06140001986584975 0.41 0  0.03015443760436654 0.41 0  0.2497468076502589 0.2050254481002335 0  0.2497468076502614 0.1949745518997913 0  0.2469965252529372 0.1829317073451959 0  0.2439893735792749 0.1762316384219906 0  0.2400332147834255 0.1700443375285386 0  0.2352133972704371 0.1645032867342007 0  0.2296339016332438 0.1597280261969788 0  0.2234150974217223 0.1558215752574715 0  0.2166911463437691 0.1528682099456123 0  0.2096071079204251 0.1509316448471593 0  0.2023158100364996 0.1500536585536553 0  0.194974551899914 0.1502531923497262 0  0.1877417105387872 0.1515259415822739 0  0.1807733240461124 0.153844448527136 0  0.1742197252835808 0.15715869474974 0  0.1682222986673531 0.1613971801805478 0  0.162910430003803 0.1664684656256651 0  0.1583987151779087 0.1722631454351573 0  0.1547844879126891 0.178656207771761 0  0.1521457199348551 0.1855097315605723 0  0.1505393388476355 0.1926758619366523 0  0.1505393388476328 0.2073241380633295 0  0.1521457199348437 0.2144902684393899 0  0.1547844879126531 0.221343792228163 0  0.1583987151778488 0.2277368545647528 0  0.1629104300036858 0.2335315343742052 0  0.1682222986671726 0.2386028198193036 0  0.1742197252833576 0.2428413052501257 0  0.1807733240458683 0.2461555514727623 0  0.1877417105384929 0.2484740584176516 0  0.1949745518995776 0.2497468076502398 0  0.202315810036185 0.2499463414463592 0  0.2096071079201568 0.2490683551528932 0  0.2166911463435495 0.2471317900544655 0  0.2234150974215506 0.2441784247426195 0  0.2296339016331197 0.2402719738031125 0  0.2352133972703547 0.2354967132658811 0  0.2400332147833751 0.2299556624715287 0  0.2439893735792577 0.2237683615780412 0  0.246996525252926 0.2170682926548348 0  0.25645809709277 0.21 0  0.2639263993298655 0.21 0  0.271394701566961 0.21 0  0.2788630038040554 0.21 0  0.2863313060411479 0.21 0  0.2937996082782405 0.21 0  0.301267910515333 0.21 0  0.3087362127524279 0.21 0  0.3162045149895234 0.21 0  0.3236728172265972 0.21 0  0.3311411194636928 0.21 0  0.3386094217007701 0.21 0  0.3460777239378666 0.21 0  0.3535460261749672 0.21 0  0.3610143284120516 0.21 0  0.3684826306491596 0.21 0  0.3759509328862226 0.21 0  0.383419235123329 0.21 0  0.3908875373604028 0.21 0  0.3983558395975142 0.21 0  0.4058241418345938 0.21 0  0.4132924440716992 0.21 0  0.4207607463087888 0.21 0  0.4282290485459029 0.21 0  0.4356973507830418 0.21 0  0.4431656530201649 0.21 0  0.4506339552573136 0.21 0  0.4581022574944306 0.21 0  0.4655705597315852 0.21 0  0.4730388619686996 0.21 0  0.480507164205851 0.21 0  0.4879754664429498 0.21 0  0.4954437686800938 0.21 0  0.502912070917267 0.21 0  0.5103803731544119 0.21 0  0.5178486753915261 0.21 0  0.5253169776286404 0.21 0  0.5327852798657868 0.21 0  0.5402535821029386 0.21 0  0.54772188434007 0.21 0  0.5551901865771842 0.21 0  0.5626584888143201 0.21 0  0.5701267910514778 0.21 0  0.5775950932886138 0.21 0  0.5850633955257281 0.21 0  0.5925316977628483 0.21 0  0.6 0.2050000000000054 0  0.6 0.1950000000000217 0  0.5925316977628897 0.19 0  0.5850633955257988 0.19 0  0.5775950932887378 0.19 0  0.5701267910515998 0.19 0  0.5626584888145268 0.19 0  0.5551901865773963 0.19 0  0.547721884340339 0.19 0  0.5402535821032429 0.19 0  0.5327852798661811 0.19 0  0.5253169776290537 0.19 0  0.5178486753919799 0.19 0  0.5103803731549078 0.19 0  0.502912070917822 0.19 0  0.4954437686807294 0.19 0  0.4879754664436223 0.19 0  0.4805071642065402 0.19 0  0.4730388619694271 0.19 0  0.4655705597323621 0.19 0  0.4581022574952563 0.19 0  0.4506339552581777 0.19 0  0.4431656530210671 0.19 0  0.4356973507839815 0.19 0  0.4282290485468779 0.19 0  0.4207607463097617 0.19 0  0.4132924440726327 0.19 0  0.4058241418354857 0.19 0  0.3983558395983636 0.19 0  0.3908875373612097 0.19 0  0.3834192351240934 0.19 0  0.3759509328869369 0.19 0  0.3684826306498175 0.19 0  0.361014328412667 0.19 0  0.3535460261755617 0.19 0  0.3460777239384295 0.19 0  0.3386094217012945 0.19 0  0.3311411194641595 0.19 0  0.3236728172270245 0.19 0  0.3162045149898895 0.19 0  0.3087362127527544 0.19 0  0.3012679105156187 0.19 0  0.2937996082784807 0.19 0  0.2863313060413428 0.19 0  0.2788630038042048 0.19 0  0.2713947015670686 0.19 0  0.2639263993299336 0.19 0  0.2564580970927985 0.19 0  0.2607803159922026 0.2000727136295815 0  0.5887803774232762 0.2001272386983733 0  0.5745072403740523 0.2002044435018727 0  0.5511891430099709 0.2001122610077113 0  0.2751288526855082 0.20000000000002 0  0.5365194309847112 0.1999999999999436 0  0.2894621222999649 0.1998691686390484 0  0.5215828265105155 0.1999999999999228 0  0.3127789816668748 0.1998657885438805 0  0.3274069683451451 0.2000000000000796 0  0.5066462220363641 0.199999999999908 0  0.3650630746574081 0.199866017807523 0  0.476773013087985 0.1999999999998713 0  0.3417402379596385 0.1998691686391011 0  0.3796850840047755 0.200000000000134 0  0.4618364086138087 0.1999999999998546 0  0.4917096175621762 0.1999999999998808 0  0.3946216884789568 0.2000000000001512 0  0.446899804139621 0.1999999999998389 0  0.4089549580935208 0.1998691686391595 0  0.4322718174608562 0.200127451265745 0  0.4201487168029707 0.1999966199048527 0  0.3528922713220932 0.2000185703532356 0  0.5633122436674589 0.1999814296467508 0  0.3006558810093873 0.1999966199048318 0  0.5815926498168407 0.1966545283159175 0  0.2677053789419034 0.1964246479135325 0  0.5290511287476175 0.1970915826863981 0  0.5439877332217911 0.197091582686394 0  0.2825131256993216 0.2035478995978015 0  0.3199386661080599 0.202908417313604 0  0.4842413153250809 0.1970915826863873 0  0.5141145242734466 0.1970915826863843 0  0.3722167817676917 0.2029084173136195 0  0.4693047108508938 0.1970915826863783 0  0.3348752705822316 0.202908417313609 0  0.3871533862418661 0.2029084173136212 0  0.4543681063767183 0.1970915826863795 0  0.4991779197992749 0.1970915826863902 0  0.4020059614928624 0.203547899597858 0  0.4394315019025246 0.1970915826863714 0  0.2550657455369551 0.2034088125358657 0  0.2548908499171161 0.1966940311614271 0  0.5946539510196798 0.2024302972968126 0  0.267698176732111 0.2039977513680092 0  0.4261685417851465 0.196409292431739 0  0.3590076176283495 0.196411355804271 0  0.5571672426447437 0.2036011176410121 0  0.3066757059912147 0.1964092924317024 0  0.594380730180568 0.1966558399668133 0  0.4842413153245942 0.2040749161535287 0  0.4693047108503577 0.2040749161535231 0  0.3871533862424271 0.1959250838464788 0  0.372246743208829 0.1959123236376545 0  0.5141145242731028 0.2040749161535395 0  0.4543681063761134 0.2040749161535186 0  0.4019979587101454 0.1959834479682427 0  0.4394608940728603 0.2040870543693135 0  0.5439623148931173 0.2040856076781014 0  0.5290511287473298 0.2040749161535501 0  0.4991779197988497 0.2040749161535382 0  0.3347912413592433 0.1959225448935183 0  0.3199680582793816 0.1959123018030061 0  0.2825051229162361 0.1959834479681729 0  0.3590471196690275 0.2036304442587945 0  0.5571594006495384 0.1963685282145804 0  0.3067669986803285 0.203627750582736 0  0.4262598344738712 0.2036568242185335 0  0.5814408164431408 0.2041285596160068 0  0.5688286748170428 0.1961819304477386 0  0.4145905603063645 0.2038180695522843 0  0.3473758401724931 0.2038180695522752 0  0.2950977245128307 0.2038180695522663 0  0.5688286748170693 0.203818069552238 0  0.2950977245127906 0.1961819304477774 0  0.3473758401723931 0.1961819304478349 0  0.4145905603061963 0.1961819304479011 0  0.2601812407614425 0.2056861609747042
[...]
<PointData  Vectors="f_46-2"> 
<DataArray  type="Float64"  Name="f_46-2"  NumberOfComponents="3" format="ascii">0.0000000000000000e+00 0.0000000000000000e+00 0.0000000000000000e+00  0.0000000000000000e+00 0.0000000000000000e+00 0.0000000000000000e+00  0.0000000000000000e+00 0.0000000000000000e+00 0.0000000000000000e+00  0.0000000000000000e+00 0.0000000000000000e+00 0.0000000000000000e+00  1.6259584462166074e-05 -2.4877862209010708e-04 0.0000000000000000e+00  3.9292461137575705e-05 -2.4944943957206847e-04 0.0000000000000000e+00  0.0000000000000000e+00 0.0000000000000000e+00 0.0000000000000000e+00  0.0000000000000000e+00 0.0000000000000000e+00 0.0000000000000000e+00  0.0000000000000000e+00 0.0000000000000000e+00 0.0000000000000000e+00  0.0000000000000000e+00 0.0000000000000000e+00 0.0000000000000000e+00  2.7484204991486571e-05 -2.4911330967525492e-04 0.0000000000000000e+00  0.0000000000000000e+00 0.0000000000000000e+00 0.0000000000000000e+00  0.0000000000000000e+00 0.0000000000000000e+00 0.0000000000000000e+00  0.0000000000000000e+00 0.0000000000000000e+00 0.0000000000000000e+00  0.0000000000000000e+00 0.0000000000000000e+00 0.0000000000000000e+00  0.0000000000000000e+00 0.0000000000000000e+00 0.0000000000000000e+00  0.0000000000000000e+00 0.0000000000000000e+00 0.0000000000000000e+00  0.0000000000000000e+00 0.0000000000000000e+00 0.0000000000000000e+00  0.0000000000000000e+00 0.0000000000000000e+00 0.0000000000000000e+00  0.0000000000000000e+00 0.0000000000000000e+00 0.0000000000000000e+00  0.0000000000000000e+00 0.0000000000000000e+00 0.0000000000000000e+00  0.0000000000000000e+00 0.0000000000000000e+00 0.0000000000000000e+00  0.0000000000000000e+00 0.0000000000000000e+00 0.0000000000000000e+00  0.0000000000000000e+00 0.0000000000000000e+00 0.0000000000000000e+00  0.0000000000000000e+00 0.0000000000000000e+00 0.0000000000000000e+00  0.0000000000000000e+00 0.0000000000000000e+00 0.0000000000000000e+00  0.0000000000000000e+00 0.0000000000000000e+00 0.0000000000000000e+00  0.0000000000000000e+00 0.0000000000000000e+00 0.0000000000000000e+00  0.0000000000000000e+00 0.0000000000000000e+00 0.0000000000000000e+00  0.0000000000000000e+00 0.0000000000000000e+00 0.0000000000000000e+00  0.0000000000000000e+00 0.0000000000000000e+00 0.0000000000000000e+00  0.0000000000000000e+00 0.0000000000000000e+00 0.0000000000000000e+00  0.0000000000000000e+00 0.0000000000000000e+00 0.0000000000000000e+00  0.0000000000000000e+00 0.0000000000000000e+00 0.0000000000000000e+00  0.0000000000000000e+00 0.0000000000000000e+00 0.0000000000000000e+00  -7.4149421757041555e-15 6.8839594291745616e-17 0.0000000000000000e+00  0.0000000000000000e+00 0.0000000000000000e+00 0.0000000000000000e+00  0.0000000000000000e+00 0.0000000000000000e+00 0.0000000000000000e+00  0.0000000000000000e+00 0.0000000000000000e+00 0.0000000000000000e+00  0.0000000000000000e+00 0.0000000000000000e+00 0.0000000000000000e+00  0.0000000000000000e+00 0.0000000000000000e+00 0.0000000000000000e+00  0.0000000000000000e+00 0.0000000000000000e+00 0.0000000000000000e+00  0.0000000000000000e+00 0.0000000000000000e+00 0.0000000000000000e+00  0.0000000000000000e+00 0.0000000000000000e+00 0.0000000000000000e+00  0.0000000000000000e+00 0.0000000000000000e+00 0.0000000000000000e+00  0.0000000000000000e+00 0.0000000000000000e+00 0.0000000000000000e+00  0.0000000000000000e+00 0.0000000000000000e+00 0.0000000000000000e+00  0.0000000000000000e+00 0.0000000000000000e+00 0.0000000000000000e+00  0.0000000000000000e+00 0.0000000000000000e+00 0.0000000000000000e+00  0.0000000000000000e+00 0.0000000000000000e+00 0.0000000000000000e+00  0.0000000000000000e+00 0.0000000000000000e+00 0.0000000000000000e+00  0.0000000000000000e+00 0.0000000000000000e+00 0.0000000000000000e+00  0.0000000000000000e+00 0.0000000000000000e+00 0.0000000000000000e+00  0.0000000000000000e+00 0.0000000000000000e+00 0.0000000000000000e+00  0.0000000000000000e+00 0.0000000000000000e+00 0.0000000000000000e+00  0.0000000000000000e+00 0.0000000000000000e+00 0.0000000000000000e+00  0.0000000000000000e+00 0.0000000000000000e+00 0.0000000000000000e+00  0.0000000000000000e+00 0.0000000000000000e+00 0.0000000000000000e+00  0.0000000000000000e+00 0.0000000000000000e+00 0.0000000000000000e+00  0.0000000000000000e+00 0.0000000000000000e+00 0.0000000000000000e+00  0.0000000000000000e+00 0.0000000000000000e+00 0.0000000000000000e+00  0.0000000000000000e+00 0.0000000000000000e+00 0.0000000000000000e+00  0.0000000000000000e+00 0.0000000000000000e+00 0.0000000000000000e+00  0.0000000000000000e+00 0.0000000000000000e+00 0.0000000000000000e+00  0.0000000000000000e+00 0.0000000000000000e+00 0.0000000000000000e+00  0.0000000000000000e+00 0.0000000000000000e+00 0.0000000000000000e+00  0.0000000000000000e+00 0.0000000000000000e+00 0.0000000000000000e+00  0.0000000000000000e+00 0.0000000000000000e+00 0.0000000000000000e+00  0.0000000000000000e+00 0.0000000000000000e+00 0.0000000000000000e+00  0.0000000000000000e+00 0.0000000000000000e+00 0.0000000000000000e+00  0.0000000000000000e+00 0.0000000000000000e+00 0.0000000000000000e+00  0.0000000000000000e+00 0.0000000000000000e+00 0.0000000000000000e+00  0.0000000000000000e+00 0.0000000000000000e+00 0.0000000000000000e+00  0.0000000000000000e+00 0.0000000000000000e+00 0.0000000000000000e+00  0.0000000000000000e+00 0.0000000000000000e+00 0.0000000000000000e+00  0.0000000000000000e+00 0.0000000000000000e+00 0.0000000000000000e+00  0.0000000000000000e+00 0.0000000000000000e+00 0.0000000000000000e+00  0.0000000000000000e+00 0.0000000000000000e+00 0.0000000000000000e+00  0.0000000000000000e+00 0.0000000000000000e+00 0.0000000000000000e+00  0.0000000000000000e+00 0.0000000000000000e+00 0.0000000000000000e+00  0.0000000000000000e+00 0.0000000000000000e+00 0.0000000000000000e+00  0.0000000000000000e+00 0.0000000000000000e+00 0.0000000000000000e+00  0.0000000000000000e+00 0.0000000000000000e+00 0.0000000000000000e+00  0.0000000000000000e+00 0.0000000000000000e+00 0.0000000000000000e+00  0.0000000000000000e+00 0.0000000000000000e+00 0.0000000000000000e+00  0.0000000000000000e+00 0.0000000000000000e+00 0.0000000000000000e+00  0.0000000000000000e+00 0.0000000000000000e+00 0.0000000000000000e+00  0.0000000000000000e+00 0.0000000000000000e+00 0.0000000000000000e+00  1.1902240080256454e-12 0.0000000000000000e+00 0.0000000000000000e+00  0.0000000000000000e+00 0.0000000000000000e+00 0.0000000000000000e+00  0.0000000000000000e+00 0.0000000000000000e+00 0.0000000000000000e+00  0.0000000000000000e+00 0.0000000000000000e+00 0.0000000000000000e+00  0.0000000000000000e+00 0.0000000000000000e+00 0.0000000000000000e+00  0.0000000000000000e+00 0.0000000000000000e+00 0.0000000000000000e+00  -7.3713844237589895e-14 -5.7792375605660910e-19 0.0000000000000000e+00  0.0000000000000000e+00 0.0000000000000000e+00 0.0000000000000000e+00  0.0000000000000000e+00 0.0000000000000000e+00 0.0000000000000000e+00  0.0000000000000000e+00 0.0000000000000000e+00 0.0000000000000000e+00  0.0000000000000000e+00 0.0000000000000000e+00 0.0000000000000000e+00  0.0000000000000000e+00 0.0000000000000000e+00 0.0000000000000000e+00  0.0000000000000000e+00 0.0000000000000000e+00 0.0000000000000000e+00  0.0000000000000000e+00 0.0000000000000000e+00 0.0000000000000000e+00  0.0000000000000000e+00 0.0000000000000000e+00 0.0000000000000000e+00  0.0000000000000000e+00 0.0000000000000000e+00 0.0000000000000000e+00  0.0000000000000000e+00 0.0000000000000000e+00 0.0000000000000000e+00  -1.7130483109915296e-13 1.0701835905671840e-13 0.0000000000000000e+00  0.0000000000000000e+00 0.0000000000000000e+00 0.0000000000000000e+00  0.0000000000000000e+00 0.0000000000000000e+00 0.0000000000000000e+00  0.0000000000000000e+00 0.0000000000000000e+00 0.0000000000000000e+00  0.0000000000000000e+00 0.0000000000000000e+00 0.0000000000000000e+00  -7.3105478035636543e-14 0.0000000000000000e+00 0.0000000000000000e+00  0.0000000000000000e+00 0.0000000000000000e+00 0.0000000000000000e+00  0.0000000000000000e+00 0.0000000000000000e+00 0.0000000000000000e+00  0.0000000000000000e+00 0.0000000000000000e+00 0.0000000000000000e+00  0.0000000000000000e+00 0.0000000000000000e+00 0.0000000000000000e+00  0.0000000000000000e+00 0.0000000000000000e+00 0.0000000000000000e+00  0.0000000000000000e+00 0.0000000000000000e+00 0.0000000000000000e+00  0.0000000000000000e+00 0.0000000000000000e+00 0.0000000000000000e+00  0.0000000000000000e+00 0.0000000000000000e+00 0.0000000000000000e+00  0.0000000000000000e+00 0.0000000000000000e+00 0.0000000000000000e+00  0.0000000000000000e+00 0.0000000000000000e+00 0.0000000000000000e+00  0.0000000000000000e+00 0.0000000000000000e+00 0.0000000000000000e+00  0.0000000000000000e+00 0.0000000000000000e+00 0.0000000000000000e+00  0.0000000000000000e+00 0.0000000000000000e+00 0.0000000000000000e+00  0.0000000000000000e+00 0.0000000000000000e+00 0.0000000000000000e+00  0.0000000000000000e+00 0.0000000000000000e+00 0.0000000000000000e+00  0.0000000000000000e+00 0.0000000000000000e+00 0.0000000000000000e+00  0.0000000000000000e+00 0.0000000000000000e+00 0.0000000000000000e+00  0.0000000000000000e+00 0.0000000000000000e+00 0.0000000000000000e+00  0.0000000000000000e+00 0.0000000000000000e+00 0.0000000000000000e+00  0.0000000000000000e+00 0.0000000000000000e+00 0.0000000000000000e+00  0.0000000000000000e+00 0.0000000000000000e+00 0.0000000000000000e+00  0.0000000000000000e+00 0.0000000000000000e+00 0.0000000000000000e+00  0.0000000000000000e+00 0.0000000000000000e+00 0.0000000000000000e+00  0.0000000000000000e+00 0.0000000000000000e+00 0.0000000000000000e+00  0.0000000000000000e+00 0.0000000000000000e+00 0.0000000000000000e+00  0.0000000000000000e+00 0.0000000000000000e+00 0.0000000000000000e+00  0.0000000000000000e+00 0.0000000000000000e+00 0.0000000000000000e+00  0.0000000000000000e+00 0.0000000000000000e+00 0.0000000000000000e+00  0.0000000000000000e+00 0.0000000000000000e+00 0.0000000000000000e+00  0.0000000000000000e+00 0.0000000000000000e+00 0.0000000000000000e+00  0.0000000000000000e+00 0.0000000000000000e+00 0.0000000000000000e+00  -1.8049581348991809e-12 5.9789584155087519e-14 0.0000000000000000e+00  6.4178197856295567e-07 -6.7103225170228762e-07 0.0000000000000000e+00  1.4151609987403138e-06 -6.5158597288270360e-07 0.0000000000000000e+00  2.3096594577903858e-06 -6.9686196104507287e-07 0.0000000000000000e+00  3.3146172075005510e-06 -8.4091915854698445e-07 0.0000000000000000e+00  4.3529243364430682e-06 -1.1801864805647489e-06 0.0000000000000000e+00  5.5011077541606141e-06 -1.7423149447321986e-06 0.0000000000000000e+00  6.6258570562593238e-06 -2.5145985257943743e-06 0.0000000000000000e+00  7.7927968699591697e-06 -3.5960219470494897e-06 0.0000000000000000e+00  9.0652899916912035e-06 -4.9446040144335864e-06 0.0000000000000000e+00  1.0264871348622062e-05 -6.6094207665015324e-06 0.0000000000000000e+00  1.1598535342144321e-05 -8.6045876473214079e-06 0.0000000000000000e+00  1.2825800831802287e-05 -1.0946455039797289e-05 0.0000000000000000e+00  1.4168738769223883e-05 -1.3640225417634321e-05 0.0000000000000000e+00  1.5414180452027427e-05 -1.6641998451308260e-05 0.0000000000000000e+00  1.6662922377674471e-05 -2.0046874924439987e-05 0.0000000000000000e+00  1.7994037870718779e-05 -2.3773883136037804e-05 0.0000000000000000e+00  1.9196707602812316e-05 -2.7848008092731273e-05 0.0000000000000000e+00  2.0499436866168059e-05 -3.2280167754986202e-05 0.0000000000000000e+00  2.1658655861019891e-05 -3.7040451605669023e-05 0.0000000000000000e+00  2.2897827978031339e-05 -4.2129077579167763e-05 0.0000000000000000e+00  2.4022162863876067e-05 -4.7534474031535619e-05 0.0000000000000000e+00  2.5183976624427711e-05 -5.3262943117461419e-05 0.0000000000000000e+00  2.6237599416191168e-05 -5.9232871717013065e-05 0.0000000000000000e+00  2.7259031838227615e-05 -6.5518888787035795e-05 0.0000000000000000e+00  2.8305234790673260e-05 -7.2026924249804381e-05 0.0000000000000000e+00  2.9257088198676845e-05 -7.8787699051424104e-05 0.0000000000000000e+00  3.0185565980473337e-05 -8.5789531396734654e-05 0.0000000000000000e+00  3.1048157110053006e-05 -9.2972994298473177e-05 0.0000000000000000e+00  3.1882160304801189e-05 -1.0037107585789761e-04 0.0000000000000000e+00  3.2651912711318507e-05 -1.0791486968921487e-04 0.0000000000000000e+00  3.3389591074021869e-05 -1.1564003392870828e-04 0.0000000000000000e+00  3.4065534740727962e-05 -1.2347692356022596e-04 0.0000000000000000e+00  3.4706784751153575e-05 -1.3146330042313208e-04 0.0000000000000000e+00  3.5290554309216775e-05 -1.3952998045347768e-04 0.0000000000000000e+00  3.5836505928414147e-05 -1.4771744531091689e-04 0.0000000000000000e+00  3.6329503319358336e-05 -1.5595808276609447e-04 0.0000000000000000e+00  3.6785100771550116e-05 -1.6429234647541828e-04 0.0000000000000000e+00  3.7191953515269770e-05 -1.7265759006549559e-04 0.0000000000000000e+00  3.7561138000119160e-05 -1.8109400384457890e-04 0.0000000000000000e+00  3.7884168308598997e-05 -1.8954226426536738e-04 0.0000000000000000e+00  3.8166616466955798e-05 -1.9803800996327767e-04 0.0000000000000000e+00  3.8412496399920630e-05 -2.0654329205148047e-04 0.0000000000000000e+00  3.8618670948064545e-05 -2.1507095184340063e-04 0.0000000000000000e+00  3.8804357387230429e-05 -2.2360719747075501e-04 0.0000000000000000e+00  3.8947146057317098e-05 -2.3214045366509668e-04 0.0000000000000000e+00  3.9090338308586494e-05 -2.4071505338240905e-04 0.0000000000000000e+00  3.3288796841684932e-05 -2.4927613538511923e-04 0.0000000000000000e+00  2.1786004661206369e-05 -2.4895453151474537e-04 0.0000000000000000e+00  1.6077786222301356e-05 -2.4032393986136402e-04 0.0000000000000000e+00  1.5963577987069863e-05 -2.3171202793563500e-04 0.0000000000000000e+00  1.5847379332010274e-05 -2.2308544551650456e-04 0.0000000000000000e+00  1.5703600063934406e-05 -2.1448317000014611e-04 0.0000000000000000e+00  1.5540758988465275e-05 -2.0589173544574568e-04 0.0000000000000000e+00  1.5349585379395044e-05 -1.9732045004410156e-04 0.0000000000000000e+00  1.5147953407748408e-05 -1.8877522414590238e-04 0.0000000000000000e+00  1.4911581288054400e-05 -1.8024767394865499e-04 0.0000000000000000e+00  1.4670494000456634e-05 -1.7177572306060671e-04 0.0000000000000000e+00  1.4395541860203032e-05 -1.6333215247429136e-04 0.0000000000000000e+00  1.4126466331143475e-05 -1.5496314459336412e-04 0.0000000000000000e+00  1.3820310033811383e-05 -1.4664531463931695e-04 0.0000000000000000e+00  1.3531392583309190e-05 -1.3842476400839854e-04 0.0000000000000000e+00  1.3200335425462888e-05 -1.3028318314198544e-04 0.0000000000000000e+00  1.2899511139609570e-05 -1.2226538147467315e-04 0.0000000000000000e+00  1.2549119673309853e-05 -1.1435697886981088e-04 0.0000000000000000e+00  1.2242163404626082e-05 -1.0660233428064450e-04 0.0000000000000000e+00  1.1877858491398980e-05 -9.8990958355868160e-05 0.0000000000000000e+00  1.1571184621270645e-05 -9.1565711648858286e-05 0.0000000000000000e+00  1.1198017932609362e-05 -8.4319426091659206e-05 0.0000000000000000e+00  1.0897814593554303e-05 -7.7294219192901957e-05 0.0000000000000000e+00  1.0521138674471413e-05 -7.0486171992988335e-05 0.0000000000000000e+00  1.0220212659844848e-05 -6.3933034186913553e-05 0.0000000000000000e+00  9.8569124486308937e-06 -5.7614363939624145e-05 0.0000000000000000e+00  9.4885590484646067e-06 -5.1616004999095215e-05 0.0000000000000000e+00  9.1919504657802457e-06 -4.5853067805320620e-05 0.0000000000000000e+00  8.8414103944234605e-06 -4.0424223596080864e-05 0.0000000000000000e+00  8.5286480536464586e-06 -3.5308123627923811e-05 0.0000000000000000e+00  8.1794133816446490e-06 -3.0523849426980508e-05 0.0000000000000000e+00  7.8610315060903779e-06 -2.6082426029555084e-05 0.0000000000000000e+00  7.5068735629716058e-06 -2.1973771135365515e-05 0.0000000000000000e+00  7.2113722589062398e-06 -1.8260107780089173e-05 0.0000000000000000e+00  6.8290948007995722e-06 -1.4841835625263611e-05 0.0000000000000000e+00  6.4350892332138604e-06 -1.1838890670003968e-05 0.0000000000000000e+00  6.1130456664497948e-06 -9.1233799494812881e-06 0.0000000000000000e+00  5.7237075567579029e-06 -6.7934057623785759e-06 0.0000000000000000e+00  5.3516364984844984e-06 -4.8054981250494318e-06 0.0000000000000000e+00  4.9292454214267493e-06 -3.1350586421974205e-06 0.0000000000000000e+00  4.5350255079469490e-06 -1.8174006397162028e-06 0.0000000000000000e+00  4.0522291906226820e-06 -7.4529242398729051e-07 0.0000000000000000e+00  3.5388271703848977e-06 9.4436065362339705e-09 0.0000000000000000e+00  3.0526233690819752e-06 5.5792485181825101e-07 0.0000000000000000e+00  2.4834672719640878e-06 8.8432020860012219e-07 0.0000000000000000e+00  1.9061817780769913e-06 1.0175762914958938e-06 0.0000000000000000e+00  1.2716984798953597e-06 1.0164052976645566e-06 0.0000000000000000e+00  6.4528569182252571e-07 8.6864814612058677e-07 0.0000000000000000e+00  8.9670714240566091e-07 1.8774614562720105e-07 0.0000000000000000e+00  2.7551853019723051e-05 -2.3619739565798636e-04 0.0000000000000000e+00  2.7449656259054478e-05 -2.1979652241725260e-04 0.0000000000000000e+00  2.6715226760007118e-05 -1.9309581638314848e-04 0.0000000000000000e+00  2.4990178595123018e-06 2.0541344958995427e-07 0.0000000000000000e+00  2.6036318853932013e-05 -1.7640901977189507e-04 0.0000000000000000e+00  4.0354535740017679e-06 -3.5687425636733572e-07 0.0000000000000000e+00  2.5362663763002741e-05 -1.5958609753486479e-04 0.0000000000000000e+00  6.5787092793392576e-06 -3.1811403227914408e-06 0.0000000000000000e+00  8.2244293527880686e-06 -6.4508976021867241e-06 0.0000000000000000e+00  2.4574046924287602e-05 -1.4301012057564317e-04 0.0000000000000000e+00  1.2288236520682698e-05 -2.0883533722261705e-05 0.0000000000000000e+00  2.2665215436445956e-05 -1.1101291584211575e-04 0.0000000000000000e+00  9.7644094138614878e-06 -1.0879821936566521e-05 0.0000000000000000e+00  1.3912068071304283e-05 -2.8922626243929955e-05 0.0000000000000000e+00  2.1553692377804438e-05 -9.5833741893660358e-05 0.0000000000000000e+00  2.3673646473301976e-05 -1.2678070278888728e-04 0.0000000000000000e+00  1.5457821103976588e-05 -3.8475617879919782e-05 0.0000000000000000e+00  2.0343710469614433e-05 -8.1380775560421911e-05 0.0000000000000000e+00  1.6789231073903923e-05 -4.8852428222351200e-05 0.0000000000000000e+00  1.9186614527552420e-05 -6.8074710834849572e-05 0.0000000000000000e+00  1.7949910477348128e-05 -5.7789502175681510e-05 0.0000000000000000e+00  1.1038640478410193e-05 -1.5299712594844498e-05 0.0000000000000000e+00  2.6915261414503328e-05 -2.0695572707203540e-04 0.0000000000000000e+00  5.2663348726960868e-06 -1.4333024224166460e-06 0.0000000000000000e+00  2.3490592232691443e-05 -2.2785942505936023e-04 0.0000000000000000e+00  1.6311396002159142e-06 5.5936256160336648e-07 0.0000000000000000e+00  2.2451218560666831e-05 -1.6784356296507426e-04 0.0000000000000000e+00  2.3032617755963228e-05 -1.8477243143387749e-04 0.0000000000000000e+00  3.4838643650053694e-06 -3.2390772663977696e-07 0.0000000000000000e+00  8.0626870056364141e-06 -4.9210626421709558e-06 0.0000000000000000e+00  2.0131680877490742e-05 -1.1866239618364249e-04 0.0000000000000000e+00  2.1770291656455734e-05 -1.5111834508716663e-04 0.0000000000000000e+00  1.4714059082029909e-05 -2.4943448212080279e-05 0.0000000000000000e+00  1.9186962614717621e-05 -1.0316077504405820e-04 0.0000000000000000e+00  9.9609563417930421e-06 -8.8992342694173661e-06 0.0000000000000000e+00  1.6539542685117752e-05 -3.3815497413008563e-05 0.0000000000000000e+00  1.8167502030512702e-05 -8.8316192968445191e-05 0.0000000000000000e+00  2.0994926795628946e-05 -1.3468850648560015e-04 0.0000000000000000e+00  1.8755082639553738e-05 -4.4018309895265934e-05 0.0000000000000000e+00  1.7077173222268153e-05 -7.4269804775028902e-05 0.0000000000000000e+00  3.4307475278346201e-07 -1.0078772992375929e-07 0.0000000000000000e+00  3.1825998860387361e-07 2.6682870041736078e-07 0.0000000000000000e+00  3.0245249413994357e-05 -2.4300509493315579e-04 0.0000000000000000e+00  1.7558273417549409e-06 -1.1351833229620079e-07 0.0000000000000000e+00  1.54847639