<?xml version="1.0"?>
<VTKFile type="UnstructuredGrid"  version="0.1"  >
<UnstructuredGrid>
<Piece  NumberOfPoints="1419" NumberOfCells="2698">
<Points>
<DataArray  type="Float64"  NumberOfComponents="3"  format="ascii">0 0 0  0 0.41 0  2.5 0 0  2.5 0.41 0  0.6 0.19 0  0.6 0.21 0  0.25 0.2 0  0.15 0.2 0  0.2489897948556636 0.21 0  0.2489897948556636 0.19 0  0.6 0.2 0  0 0.3807142857143437 0  0 0.3514285714286952 0  0 0.3221428571430699 0  0 0.29285714285744 0  0 0.2635714285718054 0  0 0.2342857142861561 0  0 0.2050000000005308 0  0 0.175714285714732 0  0 0.1464285714289574 0  0 0.1171428571431897 0  0 0.08785714285737878 0  0 0.05857142857161107 0  0 0.02928571428580012 0  0.03015443760436003 0 0  0.06140001986583606 0 0  0.09377624077125973 0 0  0.1273239957535082 0 0  0.1620856860351972 0 0  0.1981052433264291 0 0  0.235428184091502 0 0  0.2741016576309132 0 0  0.3141745521465447 0 0  0.3556974926295285 0 0  0.3987229542472677 0 0  0.4433053055141081 0 0  0.4895008759286886 0 0  0.5373680609405097 0 0  0.5869673343216626 0 0  0.6383613676634521 0 0  0.6916151138468254 0 0  0.7467958595648856 0 0  0.8039733463919316 0 0  0.8632198139502143 0 0  0.9246101326867038 0 0  0.9882218810934433 0 0  1.054135445558498 0 0  1.122434100542598 0 0  1.193204177141305 0 0  1.266535089879536 0 0  1.342519516046404 0 0  1.421253448503939 0 0  1.502836389106271 0 0  1.587371439758838 0 0  1.674965418777374 0 0  1.765729001825544 0 0  1.859776908880082 0 0  1.957227977487062 0 0  2.058205329869943 0 0  2.162836591189951 0 0  2.271253957290865 0 0  2.383594446803425 0 0  2.5 0.1024999999997612 0  2.5 0.2049999999994743 0  2.5 0.3074999999997183 0  2.383594446803656 0.41 0  2.271253957291315 0.41 0  2.162836591190598 0.41 0  2.058205329870775 0.41 0  1.957227977488067 0.41 0  1.859776908881246 0.41 0  1.765729001826854 0.41 0  1.674965418778818 0.41 0  1.58737143976041 0.41 0  1.502836389107956 0.41 0  1.421253448505726 0.41 0  1.342519516048286 0.41 0  1.266535089881505 0.41 0  1.193204177143353 0.41 0  1.122434100544716 0.41 0  1.05413544556068 0.41 0  0.9882218810956305 0.41 0  0.9246101326886647 0.41 0  0.8632198139519631 0.41 0  0.8039733463934788 0.41 0  0.7467958595662458 0.41 0  0.6916151138480078 0.41 0  0.6383613676644679 0.41 0  0.5869673343225223 0.41 0  0.5373680609412221 0.41 0  0.4895008759292634 0.41 0  0.4433053055145528 0.41 0  0.3987229542475914 0.41 0  0.3556974926297398 0.41 0  0.3141745521466497 0.41 0  0.2741016576310038 0.41 0  0.2354281840915826 0.41 0  0.1981052433265003 0.41 0  0.1620856860352591 0.41 0  0.1273239957535623 0.41 0  0.09377624077128965 0.41 0  0.06140001986584975 0.41 0  0.03015443760436654 0.41 0  0.2497468076502589 0.2050254481002335 0  0.2497468076502614 0.1949745518997913 0  0.2469965252529372 0.1829317073451959 0  0.2439893735792749 0.1762316384219906 0  0.2400332147834255 0.1700443375285386 0  0.2352133972704371 0.1645032867342007 0  0.2296339016332438 0.1597280261969788 0  0.2234150974217223 0.1558215752574715 0  0.2166911463437691 0.1528682099456123 0  0.2096071079204251 0.1509316448471593 0  0.2023158100364996 0.1500536585536553 0  0.194974551899914 0.1502531923497262 0  0.1877417105387872 0.1515259415822739 0  0.1807733240461124 0.153844448527136 0  0.1742197252835808 0.15715869474974 0  0.1682222986673531 0.1613971801805478 0  0.162910430003803 0.1664684656256651 0  0.1583987151779087 0.1722631454351573 0  0.1547844879126891 0.178656207771761 0  0.1521457199348551 0.1855097315605723 0  0.1505393388476355 0.1926758619366523 0  0.1505393388476328 0.2073241380633295 0  0.1521457199348437 0.2144902684393899 0  0.1547844879126531 0.221343792228163 0  0.1583987151778488 0.2277368545647528 0  0.1629104300036858 0.2335315343742052 0  0.1682222986671726 0.2386028198193036 0  0.1742197252833576 0.2428413052501257 0  0.1807733240458683 0.2461555514727623 0  0.1877417105384929 0.2484740584176516 0  0.1949745518995776 0.2497468076502398 0  0.202315810036185 0.2499463414463592 0  0.2096071079201568 0.2490683551528932 0  0.2166911463435495 0.2471317900544655 0  0.2234150974215506 0.2441784247426195 0  0.2296339016331197 0.2402719738031125 0  0.2352133972703547 0.2354967132658811 0  0.2400332147833751 0.2299556624715287 0  0.2439893735792577 0.2237683615780412 0  0.246996525252926 0.2170682926548348 0  0.25645809709277 0.21 0  0.2639263993298655 0.21 0  0.271394701566961 0.21 0  0.2788630038040554 0.21 0  0.2863313060411479 0.21 0  0.2937996082782405 0.21 0  0.301267910515333 0.21 0  0.3087362127524279 0.21 0  0.3162045149895234 0.21 0  0.3236728172265972 0.21 0  0.3311411194636928 0.21 0  0.3386094217007701 0.21 0  0.3460777239378666 0.21 0  0.3535460261749672 0.21 0  0.3610143284120516 0.21 0  0.3684826306491596 0.21 0  0.3759509328862226 0.21 0  0.383419235123329 0.21 0  0.3908875373604028 0.21 0  0.3983558395975142 0.21 0  0.4058241418345938 0.21 0  0.4132924440716992 0.21 0  0.4207607463087888 0.21 0  0.4282290485459029 0.21 0  0.4356973507830418 0.21 0  0.4431656530201649 0.21 0  0.4506339552573136 0.21 0  0.4581022574944306 0.21 0  0.4655705597315852 0.21 0  0.4730388619686996 0.21 0  0.480507164205851 0.21 0  0.4879754664429498 0.21 0  0.4954437686800938 0.21 0  0.502912070917267 0.21 0  0.5103803731544119 0.21 0  0.5178486753915261 0.21 0  0.5253169776286404 0.21 0  0.5327852798657868 0.21 0  0.5402535821029386 0.21 0  0.54772188434007 0.21 0  0.5551901865771842 0.21 0  0.5626584888143201 0.21 0  0.5701267910514778 0.21 0  0.5775950932886138 0.21 0  0.5850633955257281 0.21 0  0.5925316977628483 0.21 0  0.6 0.2050000000000054 0  0.6 0.1950000000000217 0  0.5925316977628897 0.19 0  0.5850633955257988 0.19 0  0.5775950932887378 0.19 0  0.5701267910515998 0.19 0  0.5626584888145268 0.19 0  0.5551901865773963 0.19 0  0.547721884340339 0.19 0  0.5402535821032429 0.19 0  0.5327852798661811 0.19 0  0.5253169776290537 0.19 0  0.5178486753919799 0.19 0  0.5103803731549078 0.19 0  0.502912070917822 0.19 0  0.4954437686807294 0.19 0  0.4879754664436223 0.19 0  0.4805071642065402 0.19 0  0.4730388619694271 0.19 0  0.4655705597323621 0.19 0  0.4581022574952563 0.19 0  0.4506339552581777 0.19 0  0.4431656530210671 0.19 0  0.4356973507839815 0.19 0  0.4282290485468779 0.19 0  0.4207607463097617 0.19 0  0.4132924440726327 0.19 0  0.4058241418354857 0.19 0  0.3983558395983636 0.19 0  0.3908875373612097 0.19 0  0.3834192351240934 0.19 0  0.3759509328869369 0.19 0  0.3684826306498175 0.19 0  0.361014328412667 0.19 0  0.3535460261755617 0.19 0  0.3460777239384295 0.19 0  0.3386094217012945 0.19 0  0.3311411194641595 0.19 0  0.3236728172270245 0.19 0  0.3162045149898895 0.19 0  0.3087362127527544 0.19 0  0.3012679105156187 0.19 0  0.2937996082784807 0.19 0  0.2863313060413428 0.19 0  0.2788630038042048 0.19 0  0.2713947015670686 0.19 0  0.2639263993299336 0.19 0  0.2564580970927985 0.19 0  0.2607803159922026 0.2000727136295815 0  0.5887803774232762 0.2001272386983733 0  0.5745072403740523 0.2002044435018727 0  0.5511891430099709 0.2001122610077113 0  0.2751288526855082 0.20000000000002 0  0.5365194309847112 0.1999999999999436 0  0.2894621222999649 0.1998691686390484 0  0.5215828265105155 0.1999999999999228 0  0.3127789816668748 0.1998657885438805 0  0.3274069683451451 0.2000000000000796 0  0.5066462220363641 0.199999999999908 0  0.3650630746574081 0.199866017807523 0  0.476773013087985 0.1999999999998713 0  0.3417402379596385 0.1998691686391011 0  0.3796850840047755 0.200000000000134 0  0.4618364086138087 0.1999999999998546 0  0.4917096175621762 0.1999999999998808 0  0.3946216884789568 0.2000000000001512 0  0.446899804139621 0.1999999999998389 0  0.4089549580935208 0.1998691686391595 0  0.4322718174608562 0.200127451265745 0  0.4201487168029707 0.1999966199048527 0  0.3528922713220932 0.2000185703532356 0  0.5633122436674589 0.1999814296467508 0  0.3006558810093873 0.1999966199048318 0  0.5815926498168407 0.1966545283159175 0  0.2677053789419034 0.1964246479135325 0  0.5290511287476175 0.1970915826863981 0  0.5439877332217911 0.197091582686394 0  0.2825131256993216 0.2035478995978015 0  0.3199386661080599 0.202908417313604 0  0.4842413153250809 0.1970915826863873 0  0.5141145242734466 0.1970915826863843 0  0.3722167817676917 0.2029084173136195 0  0.4693047108508938 0.1970915826863783 0  0.3348752705822316 0.202908417313609 0  0.3871533862418661 0.2029084173136212 0  0.4543681063767183 0.1970915826863795 0  0.4991779197992749 0.1970915826863902 0  0.4020059614928624 0.203547899597858 0  0.4394315019025246 0.1970915826863714 0  0.2550657455369551 0.2034088125358657 0  0.2548908499171161 0.1966940311614271 0  0.5946539510196798 0.2024302972968126 0  0.267698176732111 0.2039977513680092 0  0.4261685417851465 0.196409292431739 0  0.3590076176283495 0.196411355804271 0  0.5571672426447437 0.2036011176410121 0  0.3066757059912147 0.1964092924317024 0  0.594380730180568 0.1966558399668133 0  0.4842413153245942 0.2040749161535287 0  0.4693047108503577 0.2040749161535231 0  0.3871533862424271 0.1959250838464788 0  0.372246743208829 0.1959123236376545 0  0.5141145242731028 0.2040749161535395 0  0.4543681063761134 0.2040749161535186 0  0.4019979587101454 0.1959834479682427 0  0.4394608940728603 0.2040870543693135 0  0.5439623148931173 0.2040856076781014 0  0.5290511287473298 0.2040749161535501 0  0.4991779197988497 0.2040749161535382 0  0.3347912413592433 0.1959225448935183 0  0.3199680582793816 0.1959123018030061 0  0.2825051229162361 0.1959834479681729 0  0.3590471196690275 0.2036304442587945 0  0.5571594006495384 0.1963685282145804 0  0.3067669986803285 0.203627750582736 0  0.4262598344738712 0.2036568242185335 0  0.5814408164431408 0.2041285596160068 0  0.5688286748170428 0.1961819304477386 0  0.4145905603063645 0.2038180695522843 0  0.3473758401724931 0.2038180695522752 0  0.2950977245128307 0.2038180695522663 0  0.5688286748170693 0.203818069552238 0  0.2950977245127906 0.1961819304477774 0  0.3473758401723931 0.1961819304478349 0  0.4145905603061963 0.1961819304479011 0  0.2601812407614425 0.2056861609747042
[...]
<PointData  Vectors="f_46-2"> 
<DataArray  type="Float64"  Name="f_46-2"  NumberOfComponents="3" format="ascii">0.0000000000000000e+00 0.0000000000000000e+00 0.0000000000000000e+00  0.0000000000000000e+00 0.0000000000000000e+00 0.0000000000000000e+00  0.0000000000000000e+00 0.0000000000000000e+00 0.0000000000000000e+00  0.0000000000000000e+00 0.0000000000000000e+00 0.0000000000000000e+00  2.1170313175311597e-05 -7.7310853153036082e-05 0.0000000000000000e+00  3.2029235533775786e-05 -7.7966259922317548e-05 0.0000000000000000e+00  0.0000000000000000e+00 0.0000000000000000e+00 0.0000000000000000e+00  0.0000000000000000e+00 0.0000000000000000e+00 0.0000000000000000e+00  0.0000000000000000e+00 0.0000000000000000e+00 0.0000000000000000e+00  0.0000000000000000e+00 0.0000000000000000e+00 0.0000000000000000e+00  2.6308525874669375e-05 -7.7638131243472136e-05 0.0000000000000000e+00  0.0000000000000000e+00 0.0000000000000000e+00 0.0000000000000000e+00  0.0000000000000000e+00 0.0000000000000000e+00 0.0000000000000000e+00  0.0000000000000000e+00 0.0000000000000000e+00 0.0000000000000000e+00  0.0000000000000000e+00 0.0000000000000000e+00 0.0000000000000000e+00  0.0000000000000000e+00 0.0000000000000000e+00 0.0000000000000000e+00  0.0000000000000000e+00 0.0000000000000000e+00 0.0000000000000000e+00  0.0000000000000000e+00 0.0000000000000000e+00 0.0000000000000000e+00  0.0000000000000000e+00 0.0000000000000000e+00 0.0000000000000000e+00  0.0000000000000000e+00 0.0000000000000000e+00 0.0000000000000000e+00  0.0000000000000000e+00 0.0000000000000000e+00 0.0000000000000000e+00  0.0000000000000000e+00 0.0000000000000000e+00 0.0000000000000000e+00  0.0000000000000000e+00 0.0000000000000000e+00 0.0000000000000000e+00  0.0000000000000000e+00 0.0000000000000000e+00 0.0000000000000000e+00  0.0000000000000000e+00 0.0000000000000000e+00 0.0000000000000000e+00  0.0000000000000000e+00 0.0000000000000000e+00 0.0000000000000000e+00  0.0000000000000000e+00 0.0000000000000000e+00 0.0000000000000000e+00  0.0000000000000000e+00 0.0000000000000000e+00 0.0000000000000000e+00  0.0000000000000000e+00 0.0000000000000000e+00 0.0000000000000000e+00  0.0000000000000000e+00 0.0000000000000000e+00 0.0000000000000000e+00  0.0000000000000000e+00 0.0000000000000000e+00 0.0000000000000000e+00  0.0000000000000000e+00 0.0000000000000000e+00 0.0000000000000000e+00  0.0000000000000000e+00 0.0000000000000000e+00 0.0000000000000000e+00  0.0000000000000000e+00 0.0000000000000000e+00 0.0000000000000000e+00  0.0000000000000000e+00 0.0000000000000000e+00 0.0000000000000000e+00  -1.7824384577898900e-13 -8.8067424695740089e-18 0.0000000000000000e+00  0.0000000000000000e+00 0.0000000000000000e+00 0.0000000000000000e+00  0.0000000000000000e+00 0.0000000000000000e+00 0.0000000000000000e+00  0.0000000000000000e+00 0.0000000000000000e+00 0.0000000000000000e+00  0.0000000000000000e+00 0.0000000000000000e+00 0.0000000000000000e+00  0.0000000000000000e+00 0.0000000000000000e+00 0.0000000000000000e+00  0.0000000000000000e+00 0.0000000000000000e+00 0.0000000000000000e+00  0.0000000000000000e+00 0.0000000000000000e+00 0.0000000000000000e+00  0.0000000000000000e+00 0.0000000000000000e+00 0.0000000000000000e+00  0.0000000000000000e+00 0.0000000000000000e+00 0.0000000000000000e+00  0.0000000000000000e+00 0.0000000000000000e+00 0.0000000000000000e+00  0.0000000000000000e+00 0.0000000000000000e+00 0.0000000000000000e+00  0.0000000000000000e+00 0.0000000000000000e+00 0.0000000000000000e+00  0.0000000000000000e+00 0.0000000000000000e+00 0.0000000000000000e+00  0.0000000000000000e+00 0.0000000000000000e+00 0.0000000000000000e+00  0.0000000000000000e+00 0.0000000000000000e+00 0.0000000000000000e+00  0.0000000000000000e+00 0.0000000000000000e+00 0.0000000000000000e+00  0.0000000000000000e+00 0.0000000000000000e+00 0.0000000000000000e+00  0.0000000000000000e+00 0.0000000000000000e+00 0.0000000000000000e+00  0.0000000000000000e+00 0.0000000000000000e+00 0.0000000000000000e+00  0.0000000000000000e+00 0.0000000000000000e+00 0.0000000000000000e+00  0.0000000000000000e+00 0.0000000000000000e+00 0.0000000000000000e+00  0.0000000000000000e+00 0.0000000000000000e+00 0.0000000000000000e+00  0.0000000000000000e+00 0.0000000000000000e+00 0.0000000000000000e+00  0.0000000000000000e+00 0.0000000000000000e+00 0.0000000000000000e+00  0.0000000000000000e+00 0.0000000000000000e+00 0.0000000000000000e+00  0.0000000000000000e+00 0.0000000000000000e+00 0.0000000000000000e+00  0.0000000000000000e+00 0.0000000000000000e+00 0.0000000000000000e+00  0.0000000000000000e+00 0.0000000000000000e+00 0.0000000000000000e+00  0.0000000000000000e+00 0.0000000000000000e+00 0.0000000000000000e+00  0.0000000000000000e+00 0.0000000000000000e+00 0.0000000000000000e+00  0.0000000000000000e+00 0.0000000000000000e+00 0.0000000000000000e+00  0.0000000000000000e+00 0.0000000000000000e+00 0.0000000000000000e+00  0.0000000000000000e+00 0.0000000000000000e+00 0.0000000000000000e+00  0.0000000000000000e+00 0.0000000000000000e+00 0.0000000000000000e+00  0.0000000000000000e+00 0.0000000000000000e+00 0.0000000000000000e+00  0.0000000000000000e+00 0.0000000000000000e+00 0.0000000000000000e+00  0.0000000000000000e+00 0.0000000000000000e+00 0.0000000000000000e+00  0.0000000000000000e+00 0.0000000000000000e+00 0.0000000000000000e+00  0.0000000000000000e+00 0.0000000000000000e+00 0.0000000000000000e+00  0.0000000000000000e+00 0.0000000000000000e+00 0.0000000000000000e+00  0.0000000000000000e+00 0.0000000000000000e+00 0.0000000000000000e+00  0.0000000000000000e+00 0.0000000000000000e+00 0.0000000000000000e+00  0.0000000000000000e+00 0.0000000000000000e+00 0.0000000000000000e+00  0.0000000000000000e+00 0.0000000000000000e+00 0.0000000000000000e+00  0.0000000000000000e+00 0.0000000000000000e+00 0.0000000000000000e+00  0.0000000000000000e+00 0.0000000000000000e+00 0.0000000000000000e+00  0.0000000000000000e+00 0.0000000000000000e+00 0.0000000000000000e+00  0.0000000000000000e+00 0.0000000000000000e+00 0.0000000000000000e+00  0.0000000000000000e+00 0.0000000000000000e+00 0.0000000000000000e+00  0.0000000000000000e+00 0.0000000000000000e+00 0.0000000000000000e+00  0.0000000000000000e+00 0.0000000000000000e+00 0.0000000000000000e+00  0.0000000000000000e+00 0.0000000000000000e+00 0.0000000000000000e+00  -6.7700096054943117e-12 0.0000000000000000e+00 0.0000000000000000e+00  0.0000000000000000e+00 0.0000000000000000e+00 0.0000000000000000e+00  0.0000000000000000e+00 0.0000000000000000e+00 0.0000000000000000e+00  0.0000000000000000e+00 0.0000000000000000e+00 0.0000000000000000e+00  0.0000000000000000e+00 0.0000000000000000e+00 0.0000000000000000e+00  0.0000000000000000e+00 0.0000000000000000e+00 0.0000000000000000e+00  3.4510861436182739e-14 -6.6492531736191667e-18 0.0000000000000000e+00  0.0000000000000000e+00 0.0000000000000000e+00 0.0000000000000000e+00  0.0000000000000000e+00 0.0000000000000000e+00 0.0000000000000000e+00  0.0000000000000000e+00 0.0000000000000000e+00 0.0000000000000000e+00  0.0000000000000000e+00 0.0000000000000000e+00 0.0000000000000000e+00  0.0000000000000000e+00 0.0000000000000000e+00 0.0000000000000000e+00  0.0000000000000000e+00 0.0000000000000000e+00 0.0000000000000000e+00  0.0000000000000000e+00 0.0000000000000000e+00 0.0000000000000000e+00  0.0000000000000000e+00 0.0000000000000000e+00 0.0000000000000000e+00  0.0000000000000000e+00 0.0000000000000000e+00 0.0000000000000000e+00  0.0000000000000000e+00 0.0000000000000000e+00 0.0000000000000000e+00  -2.6224706814503219e-14 -4.0136289229777269e-19 0.0000000000000000e+00  0.0000000000000000e+00 0.0000000000000000e+00 0.0000000000000000e+00  0.0000000000000000e+00 0.0000000000000000e+00 0.0000000000000000e+00  0.0000000000000000e+00 0.0000000000000000e+00 0.0000000000000000e+00  0.0000000000000000e+00 0.0000000000000000e+00 0.0000000000000000e+00  1.3054428450986283e-17 -7.9050624521699507e-18 0.0000000000000000e+00  0.0000000000000000e+00 0.0000000000000000e+00 0.0000000000000000e+00  0.0000000000000000e+00 0.0000000000000000e+00 0.0000000000000000e+00  0.0000000000000000e+00 0.0000000000000000e+00 0.0000000000000000e+00  0.0000000000000000e+00 0.0000000000000000e+00 0.0000000000000000e+00  0.0000000000000000e+00 0.0000000000000000e+00 0.0000000000000000e+00  0.0000000000000000e+00 0.0000000000000000e+00 0.0000000000000000e+00  0.0000000000000000e+00 0.0000000000000000e+00 0.0000000000000000e+00  0.0000000000000000e+00 0.0000000000000000e+00 0.0000000000000000e+00  0.0000000000000000e+00 0.0000000000000000e+00 0.0000000000000000e+00  0.0000000000000000e+00 0.0000000000000000e+00 0.0000000000000000e+00  0.0000000000000000e+00 0.0000000000000000e+00 0.0000000000000000e+00  0.0000000000000000e+00 0.0000000000000000e+00 0.0000000000000000e+00  0.0000000000000000e+00 0.0000000000000000e+00 0.0000000000000000e+00  0.0000000000000000e+00 0.0000000000000000e+00 0.0000000000000000e+00  0.0000000000000000e+00 0.0000000000000000e+00 0.0000000000000000e+00  0.0000000000000000e+00 0.0000000000000000e+00 0.0000000000000000e+00  0.0000000000000000e+00 0.0000000000000000e+00 0.0000000000000000e+00  0.0000000000000000e+00 0.0000000000000000e+00 0.0000000000000000e+00  0.0000000000000000e+00 0.0000000000000000e+00 0.0000000000000000e+00  0.0000000000000000e+00 0.0000000000000000e+00 0.0000000000000000e+00  0.0000000000000000e+00 0.0000000000000000e+00 0.0000000000000000e+00  0.0000000000000000e+00 0.0000000000000000e+00 0.0000000000000000e+00  0.0000000000000000e+00 0.0000000000000000e+00 0.0000000000000000e+00  0.0000000000000000e+00 0.0000000000000000e+00 0.0000000000000000e+00  0.0000000000000000e+00 0.0000000000000000e+00 0.0000000000000000e+00  0.0000000000000000e+00 0.0000000000000000e+00 0.0000000000000000e+00  0.0000000000000000e+00 0.0000000000000000e+00 0.0000000000000000e+00  0.0000000000000000e+00 0.0000000000000000e+00 0.0000000000000000e+00  0.0000000000000000e+00 0.0000000000000000e+00 0.0000000000000000e+00  0.0000000000000000e+00 0.0000000000000000e+00 0.0000000000000000e+00  0.0000000000000000e+00 0.0000000000000000e+00 0.0000000000000000e+00  2.2682160691587404e-13 1.1525727560685971e-13 0.0000000000000000e+00  1.8633515390992478e-07 -2.8371285648339797e-07 0.0000000000000000e+00  4.5211243326865299e-07 2.5467902694122896e-07 0.0000000000000000e+00  9.0188390089434687e-07 1.0446897767982573e-06 0.0000000000000000e+00  1.4341649868547833e-06 2.0689896839337572e-06 0.0000000000000000e+00  2.0798028011552216e-06 3.1697270659966555e-06 0.0000000000000000e+00  2.7921915073332066e-06 4.3428727400858698e-06 0.0000000000000000e+00  3.5670534748914489e-06 5.5199609662399955e-06 0.0000000000000000e+00  4.3989681545650862e-06 6.6659164434683749e-06 0.0000000000000000e+00  5.2955683419478273e-06 7.7514460507685248e-06 0.0000000000000000e+00  6.2080100796927920e-06 8.7319377669419008e-06 0.0000000000000000e+00  7.2021676639947660e-06 9.5866908134161139e-06 0.0000000000000000e+00  8.1731419574022926e-06 1.0277814214651994e-05 0.0000000000000000e+00  9.2235961264517072e-06 1.0791423750858291e-05 0.0000000000000000e+00  1.0236289334908085e-05 1.1134294594273957e-05 0.0000000000000000e+00  1.1264186626763735e-05 1.1240607704760084e-05 0.0000000000000000e+00  1.2354610861227625e-05 1.1146662637565457e-05 0.0000000000000000e+00  1.3373443988548626e-05 1.0826684906101321e-05 0.0000000000000000e+00  1.4468555370181727e-05 1.0265018409235359e-05 0.0000000000000000e+00  1.5471957596998819e-05 9.4721042239494800e-06 0.0000000000000000e+00  1.6539677118587981e-05 8.4422496835641241e-06 0.0000000000000000e+00  1.7529235214691306e-05 7.1756697940398411e-06 0.0000000000000000e+00  1.8553662985883326e-05 5.6621740847962908e-06 0.0000000000000000e+00  1.9498597821756954e-05 3.9587025907530464e-06 0.0000000000000000e+00  2.0422599294027258e-05 2.0022622833436908e-06 0.0000000000000000e+00  2.1371117708146218e-05 -1.3579089337093016e-07 0.0000000000000000e+00  2.2246844059447902e-05 -2.4852245713179840e-06 0.0000000000000000e+00  2.3106920564333033e-05 -5.0390818288887861e-06 0.0000000000000000e+00  2.3914315718776011e-05 -7.7523159122493017e-06 0.0000000000000000e+00  2.4700715696628641e-05 -1.0653737779102874e-05 0.0000000000000000e+00  2.5433206583215092e-05 -1.3687759996032920e-05 0.0000000000000000e+00  2.6140381938151045e-05 -1.6886150504923998e-05 0.0000000000000000e+00  2.6793692065721739e-05 -2.0190081425932760e-05 0.0000000000000000e+00  2.7417818534819269e-05 -2.3633620421604132e-05 0.0000000000000000e+00  2.7990385814748291e-05 -2.7155866492070020e-05 0.0000000000000000e+00  2.8529319726131113e-05 -3.0793933932615022e-05 0.0000000000000000e+00  2.9018858913697970e-05 -3.4485947553940293e-05 0.0000000000000000e+00  2.9473970576715298e-05 -3.8269885514777162e-05 0.0000000000000000e+00  2.9882399144195349e-05 -4.2086638883304580e-05 0.0000000000000000e+00  3.0255221529920646e-05 -4.5974488789885185e-05 0.0000000000000000e+00  3.0582664403458817e-05 -4.9875878393193109e-05 0.0000000000000000e+00  3.0870599739842947e-05 -5.3825565498768716e-05 0.0000000000000000e+00  3.1122004244810020e-05 -5.7785639838540261e-05 0.0000000000000000e+00  3.1333858303360283e-05 -6.1768524997563267e-05 0.0000000000000000e+00  3.1525259104544068e-05 -6.5760112649724761e-05 0.0000000000000000e+00  3.1673528958083918e-05 -6.9748647124596324e-05 0.0000000000000000e+00  3.1822077724558555e-05 -7.3778085401191568e-05 0.0000000000000000e+00  2.9069751189433247e-05 -7.7797088791001421e-05 0.0000000000000000e+00  2.3653467933640619e-05 -7.7483136768153528e-05 0.0000000000000000e+00  2.0982810450765448e-05 -7.3401742530679735e-05 0.0000000000000000e+00  2.0862733209611618e-05 -6.9334912455761390e-05 0.0000000000000000e+00  2.0740963970402888e-05 -6.5253383038392705e-05 0.0000000000000000e+00  2.0592186822353335e-05 -6.1196217397949958e-05 0.0000000000000000e+00  2.0424839434437386e-05 -5.7150303454824460e-05 0.0000000000000000e+00  2.0229958923412025e-05 -5.3125459214447396e-05 0.0000000000000000e+00  2.0025428555674830e-05 -4.9127690966938416e-05 0.0000000000000000e+00  1.9787062297590015e-05 -4.5149353987601632e-05 0.0000000000000000e+00  1.9544852784126590e-05 -4.1227501111035341e-05 0.0000000000000000e+00  1.9269480830480454e-05 -3.7336065121922235e-05 0.0000000000000000e+00  1.9000224861186922e-05 -3.3519476008707388e-05 0.0000000000000000e+00  1.8694903858173793e-05 -2.9755246548269910e-05 0.0000000000000000e+00  1.8406091145440025e-05 -2.6086723851777651e-05 0.0000000000000000e+00  1.8076360735875176e-05 -2.2495755806225156e-05 0.0000000000000000e+00  1.7773976812866583e-05 -1.9023794672405951e-05 0.0000000000000000e+00  1.7423839669368462e-05 -1.5655356103512060e-05 0.0000000000000000e+00  1.7111284922799387e-05 -1.2430699196559967e-05 0.0000000000000000e+00  1.6744355642062299e-05 -9.3368097315294879e-06 0.0000000000000000e+00  1.6425414970980483e-05 -6.4114697488906817e-06 0.0000000000000000e+00  1.6044432235365522e-05 -3.6432776422826751e-06 0.0000000000000000e+00  1.5721349040900638e-05 -1.0687153540374639e-06 0.0000000000000000e+00  1.5328450532389197e-05 1.3224311340320144e-06 0.0000000000000000e+00  1.4991444148648028e-05 3.4993567148751712e-06 0.0000000000000000e+00  1.4597437907098682e-05 5.4847553821326773e-06 0.0000000000000000e+00  1.4192029602072013e-05 7.2138050159343785e-06 0.0000000000000000e+00  1.3835344342377786e-05 8.7572198479745786e-06 0.0000000000000000e+00  1.3426405953022101e-05 1.0047153253628796e-05 0.0000000000000000e+00  1.3034910304538630e-05 1.1099511765092199e-05 0.0000000000000000e+00  1.2605180047984429e-05 1.1916702260952533e-05 0.0000000000000000e+00  1.2183752062809670e-05 1.2486937404827027e-05 0.0000000000000000e+00  1.1724364183988682e-05 1.2836581447412399e-05 0.0000000000000000e+00  1.1283713465780520e-05 1.2925958272252838e-05 0.0000000000000000e+00  1.0775001004289348e-05 1.2832524274717413e-05 0.0000000000000000e+00  1.0241671600234473e-05 1.2494640839617299e-05 0.0000000000000000e+00  9.7296040931222043e-06 1.1993842902659705e-05 0.0000000000000000e+00  9.1569952441651620e-06 1.1299939142413130e-05 0.0000000000000000e+00  8.5651426138013142e-06 1.0438093832325232e-05 0.0000000000000000e+00  7.9250071065189115e-06 9.4573031458810794e-06 0.0000000000000000e+00  7.2505012700784615e-06 8.3557096917831870e-06 0.0000000000000000e+00  6.5230822397310419e-06 7.1986542763369878e-06 0.0000000000000000e+00  5.7496828740544563e-06 6.0061272265001410e-06 0.0000000000000000e+00  4.9233610382232775e-06 4.8124535458588605e-06 0.0000000000000000e+00  4.0388099991484406e-06 3.6953186137268369e-06 0.0000000000000000e+00  3.0730998101354937e-06 2.6760949806502283e-06 0.0000000000000000e+00  2.0870468956661453e-06 1.8365095687881920e-06 0.0000000000000000e+00  1.0311217944904018e-06 1.1713122103281282e-06 0.0000000000000000e+00  8.4260679299969259e-07 5.5916397264611530e-07 0.0000000000000000e+00  2.6290252109726467e-05 -7.1550853535155644e-05 0.0000000000000000e+00  2.6130519023629829e-05 -6.3835762259914302e-05 0.0000000000000000e+00  2.5437534091061884e-05 -5.1327196653845015e-05 0.0000000000000000e+00  2.3617627440658576e-06 2.2504408824890852e-06 0.0000000000000000e+00  2.4821223273059643e-05 -4.3574185092957312e-05 0.0000000000000000e+00  3.8408972498792130e-06 4.4585312030279516e-06 0.0000000000000000e+00  2.4145985033359659e-05 -3.5852781603581670e-05 0.0000000000000000e+00  6.2599817481171324e-06 8.1764076954577491e-06 0.0000000000000000e+00  7.7723261098957363e-06 1.0118974166418658e-05 0.0000000000000000e+00  2.3361947511374610e-05 -2.8380665057704850e-05 0.0000000000000000e+00  1.1667074445032330e-05 1.2218305000829179e-05 0.0000000000000000e+00  2.1487714331915890e-05 -1.4559210467201371e-05 0.0000000000000000e+00  9.2783273612986081e-06 1.1503477088097809e-05 0.0000000000000000e+00  1.3137029611936099e-05 1.1552266198327415e-05 0.0000000000000000e+00  2.0408957840419276e-05 -8.4133716392331855e-06 0.0000000000000000e+00  2.2474100564663725e-05 -2.1249467976118665e-05 0.0000000000000000e+00  1.4596285671601943e-05 9.9473314106834995e-06 0.0000000000000000e+00  1.9243408194047088e-05 -2.9165020366907106e-06 0.0000000000000000e+00  1.5924042735257507e-05 7.5195167523659677e-06 0.0000000000000000e+00  1.8065971352900462e-05 1.7349682463740397e-06 0.0000000000000000e+00  1.6959616393203573e-05 4.9760969823397838e-06 0.0000000000000000e+00  1.0419604955449958e-05 1.2055657118415951e-05 0.0000000000000000e+00  2.5724455784530238e-05 -5.7808051513211448e-05 0.0000000000000000e+00  4.9789872758645138e-06 6.2684666670007459e-06 0.0000000000000000e+00  2.4337277688890031e-05 -6.7589619192798332e-05 0.0000000000000000e+00  1.9297165799367643e-06 1.6145600816120291e-06 0.0000000000000000e+00  2.3006483228979254e-05 -3.9562472177584147e-05 0.0000000000000000e+00  2.3591312280647045e-05 -4.7391810613592107e-05 0.0000000000000000e+00  2.6385376180864030e-06 3.0682572540329890e-06 0.0000000000000000e+00  6.6340882248107352e-06 8.9222467060606845e-06 0.0000000000000000e+00  2.0706154307966468e-05 -1.7679907044473034e-05 0.0000000000000000e+00  2.2326532942450610e-05 -3.1941356024738714e-05 0.0000000000000000e+00  1.2528947539988777e-05 1.1735920730830793e-05 0.0000000000000000e+00  1.9778760007302727e-05 -1.1238132149453945e-05 0.0000000000000000e+00  8.2973060645428780e-06 1.0649700924106812e-05 0.0000000000000000e+00  1.4184564367870589e-05 1.0610033188895197e-05 0.0000000000000000e+00  1.8781444556444803e-05 -5.3937807183356949e-06 0.0000000000000000e+00  2.1557480519063200e-05 -2.4614817047651509e-05 0.0000000000000000e+00  1.5897885501024825e-05 8.4917671459615445e-06 0.0000000000000000e+00  1.7717140486023602e-05 -2.4998798830925071e-07 0.0000000000000000e+00  2.5013686079582370e-07 -8.2219022648100983e-09 0.0000000000000000e+00  3.6503028525096438e-07 3.3242990223403344e-07 0.0000000000000000e+00  2.7586310692211778e-05 -7.4782087233933960e-05 0.0000000000000000e+00  1.2257311354183588e-06 9.7747128268392931e-07 0.0000000000000000e+00  1.6544101228573639e-05 3.7026223832454048e-06 0.0000000000000000e+00  