<?xml version="1.0"?>
<VTKFile type="UnstructuredGrid"  version="0.1"  >
<UnstructuredGrid>
<Piece  NumberOfPoints="1419" NumberOfCells="2698">
<Points>
<DataArray  type="Float64"  NumberOfComponents="3"  format="ascii">0 0 0  0 0.41 0  2.5 0 0  2.5 0.41 0  0.6 0.19 0  0.6 0.21 0  0.25 0.2 0  0.15 0.2 0  0.2489897948556636 0.21 0  0.2489897948556636 0.19 0  0.6 0.2 0  0 0.3807142857143437 0  0 0.3514285714286952 0  0 0.3221428571430699 0  0 0.29285714285744 0  0 0.2635714285718054 0  0 0.2342857142861561 0  0 0.2050000000005308 0  0 0.175714285714732 0  0 0.1464285714289574 0  0 0.1171428571431897 0  0 0.08785714285737878 0  0 0.05857142857161107 0  0 0.02928571428580012 0  0.03015443760436003 0 0  0.06140001986583606 0 0  0.09377624077125973 0 0  0.1273239957535082 0 0  0.1620856860351972 0 0  0.1981052433264291 0 0  0.235428184091502 0 0  0.2741016576309132 0 0  0.3141745521465447 0 0  0.3556974926295285 0 0  0.3987229542472677 0 0  0.4433053055141081 0 0  0.4895008759286886 0 0  0.5373680609405097 0 0  0.5869673343216626 0 0  0.6383613676634521 0 0  0.6916151138468254 0 0  0.7467958595648856 0 0  0.8039733463919316 0 0  0.8632198139502143 0 0  0.9246101326867038 0 0  0.9882218810934433 0 0  1.054135445558498 0 0  1.122434100542598 0 0  1.193204177141305 0 0  1.266535089879536 0 0  1.342519516046404 0 0  1.421253448503939 0 0  1.502836389106271 0 0  1.587371439758838 0 0  1.674965418777374 0 0  1.765729001825544 0 0  1.859776908880082 0 0  1.957227977487062 0 0  2.058205329869943 0 0  2.162836591189951 0 0  2.271253957290865 0 0  2.383594446803425 0 0  2.5 0.1024999999997612 0  2.5 0.2049999999994743 0  2.5 0.3074999999997183 0  2.383594446803656 0.41 0  2.271253957291315 0.41 0  2.162836591190598 0.41 0  2.058205329870775 0.41 0  1.957227977488067 0.41 0  1.859776908881246 0.41 0  1.765729001826854 0.41 0  1.674965418778818 0.41 0  1.58737143976041 0.41 0  1.502836389107956 0.41 0  1.421253448505726 0.41 0  1.342519516048286 0.41 0  1.266535089881505 0.41 0  1.193204177143353 0.41 0  1.122434100544716 0.41 0  1.05413544556068 0.41 0  0.9882218810956305 0.41 0  0.9246101326886647 0.41 0  0.8632198139519631 0.41 0  0.8039733463934788 0.41 0  0.7467958595662458 0.41 0  0.6916151138480078 0.41 0  0.6383613676644679 0.41 0  0.5869673343225223 0.41 0  0.5373680609412221 0.41 0  0.4895008759292634 0.41 0  0.4433053055145528 0.41 0  0.3987229542475914 0.41 0  0.3556974926297398 0.41 0  0.3141745521466497 0.41 0  0.2741016576310038 0.41 0  0.2354281840915826 0.41 0  0.1981052433265003 0.41 0  0.1620856860352591 0.41 0  0.1273239957535623 0.41 0  0.09377624077128965 0.41 0  0.06140001986584975 0.41 0  0.03015443760436654 0.41 0  0.2497468076502589 0.2050254481002335 0  0.2497468076502614 0.1949745518997913 0  0.2469965252529372 0.1829317073451959 0  0.2439893735792749 0.1762316384219906 0  0.2400332147834255 0.1700443375285386 0  0.2352133972704371 0.1645032867342007 0  0.2296339016332438 0.1597280261969788 0  0.2234150974217223 0.1558215752574715 0  0.2166911463437691 0.1528682099456123 0  0.2096071079204251 0.1509316448471593 0  0.2023158100364996 0.1500536585536553 0  0.194974551899914 0.1502531923497262 0  0.1877417105387872 0.1515259415822739 0  0.1807733240461124 0.153844448527136 0  0.1742197252835808 0.15715869474974 0  0.1682222986673531 0.1613971801805478 0  0.162910430003803 0.1664684656256651 0  0.1583987151779087 0.1722631454351573 0  0.1547844879126891 0.178656207771761 0  0.1521457199348551 0.1855097315605723 0  0.1505393388476355 0.1926758619366523 0  0.1505393388476328 0.2073241380633295 0  0.1521457199348437 0.2144902684393899 0  0.1547844879126531 0.221343792228163 0  0.1583987151778488 0.2277368545647528 0  0.1629104300036858 0.2335315343742052 0  0.1682222986671726 0.2386028198193036 0  0.1742197252833576 0.2428413052501257 0  0.1807733240458683 0.2461555514727623 0  0.1877417105384929 0.2484740584176516 0  0.1949745518995776 0.2497468076502398 0  0.202315810036185 0.2499463414463592 0  0.2096071079201568 0.2490683551528932 0  0.2166911463435495 0.2471317900544655 0  0.2234150974215506 0.2441784247426195 0  0.2296339016331197 0.2402719738031125 0  0.2352133972703547 0.2354967132658811 0  0.2400332147833751 0.2299556624715287 0  0.2439893735792577 0.2237683615780412 0  0.246996525252926 0.2170682926548348 0  0.25645809709277 0.21 0  0.2639263993298655 0.21 0  0.271394701566961 0.21 0  0.2788630038040554 0.21 0  0.2863313060411479 0.21 0  0.2937996082782405 0.21 0  0.301267910515333 0.21 0  0.3087362127524279 0.21 0  0.3162045149895234 0.21 0  0.3236728172265972 0.21 0  0.3311411194636928 0.21 0  0.3386094217007701 0.21 0  0.3460777239378666 0.21 0  0.3535460261749672 0.21 0  0.3610143284120516 0.21 0  0.3684826306491596 0.21 0  0.3759509328862226 0.21 0  0.383419235123329 0.21 0  0.3908875373604028 0.21 0  0.3983558395975142 0.21 0  0.4058241418345938 0.21 0  0.4132924440716992 0.21 0  0.4207607463087888 0.21 0  0.4282290485459029 0.21 0  0.4356973507830418 0.21 0  0.4431656530201649 0.21 0  0.4506339552573136 0.21 0  0.4581022574944306 0.21 0  0.4655705597315852 0.21 0  0.4730388619686996 0.21 0  0.480507164205851 0.21 0  0.4879754664429498 0.21 0  0.4954437686800938 0.21 0  0.502912070917267 0.21 0  0.5103803731544119 0.21 0  0.5178486753915261 0.21 0  0.5253169776286404 0.21 0  0.5327852798657868 0.21 0  0.5402535821029386 0.21 0  0.54772188434007 0.21 0  0.5551901865771842 0.21 0  0.5626584888143201 0.21 0  0.5701267910514778 0.21 0  0.5775950932886138 0.21 0  0.5850633955257281 0.21 0  0.5925316977628483 0.21 0  0.6 0.2050000000000054 0  0.6 0.1950000000000217 0  0.5925316977628897 0.19 0  0.5850633955257988 0.19 0  0.5775950932887378 0.19 0  0.5701267910515998 0.19 0  0.5626584888145268 0.19 0  0.5551901865773963 0.19 0  0.547721884340339 0.19 0  0.5402535821032429 0.19 0  0.5327852798661811 0.19 0  0.5253169776290537 0.19 0  0.5178486753919799 0.19 0  0.5103803731549078 0.19 0  0.502912070917822 0.19 0  0.4954437686807294 0.19 0  0.4879754664436223 0.19 0  0.4805071642065402 0.19 0  0.4730388619694271 0.19 0  0.4655705597323621 0.19 0  0.4581022574952563 0.19 0  0.4506339552581777 0.19 0  0.4431656530210671 0.19 0  0.4356973507839815 0.19 0  0.4282290485468779 0.19 0  0.4207607463097617 0.19 0  0.4132924440726327 0.19 0  0.4058241418354857 0.19 0  0.3983558395983636 0.19 0  0.3908875373612097 0.19 0  0.3834192351240934 0.19 0  0.3759509328869369 0.19 0  0.3684826306498175 0.19 0  0.361014328412667 0.19 0  0.3535460261755617 0.19 0  0.3460777239384295 0.19 0  0.3386094217012945 0.19 0  0.3311411194641595 0.19 0  0.3236728172270245 0.19 0  0.3162045149898895 0.19 0  0.3087362127527544 0.19 0  0.3012679105156187 0.19 0  0.2937996082784807 0.19 0  0.2863313060413428 0.19 0  0.2788630038042048 0.19 0  0.2713947015670686 0.19 0  0.2639263993299336 0.19 0  0.2564580970927985 0.19 0  0.2607803159922026 0.2000727136295815 0  0.5887803774232762 0.2001272386983733 0  0.5745072403740523 0.2002044435018727 0  0.5511891430099709 0.2001122610077113 0  0.2751288526855082 0.20000000000002 0  0.5365194309847112 0.1999999999999436 0  0.2894621222999649 0.1998691686390484 0  0.5215828265105155 0.1999999999999228 0  0.3127789816668748 0.1998657885438805 0  0.3274069683451451 0.2000000000000796 0  0.5066462220363641 0.199999999999908 0  0.3650630746574081 0.199866017807523 0  0.476773013087985 0.1999999999998713 0  0.3417402379596385 0.1998691686391011 0  0.3796850840047755 0.200000000000134 0  0.4618364086138087 0.1999999999998546 0  0.4917096175621762 0.1999999999998808 0  0.3946216884789568 0.2000000000001512 0  0.446899804139621 0.1999999999998389 0  0.4089549580935208 0.1998691686391595 0  0.4322718174608562 0.200127451265745 0  0.4201487168029707 0.1999966199048527 0  0.3528922713220932 0.2000185703532356 0  0.5633122436674589 0.1999814296467508 0  0.3006558810093873 0.1999966199048318 0  0.5815926498168407 0.1966545283159175 0  0.2677053789419034 0.1964246479135325 0  0.5290511287476175 0.1970915826863981 0  0.5439877332217911 0.197091582686394 0  0.2825131256993216 0.2035478995978015 0  0.3199386661080599 0.202908417313604 0  0.4842413153250809 0.1970915826863873 0  0.5141145242734466 0.1970915826863843 0  0.3722167817676917 0.2029084173136195 0  0.4693047108508938 0.1970915826863783 0  0.3348752705822316 0.202908417313609 0  0.3871533862418661 0.2029084173136212 0  0.4543681063767183 0.1970915826863795 0  0.4991779197992749 0.1970915826863902 0  0.4020059614928624 0.203547899597858 0  0.4394315019025246 0.1970915826863714 0  0.2550657455369551 0.2034088125358657 0  0.2548908499171161 0.1966940311614271 0  0.5946539510196798 0.2024302972968126 0  0.267698176732111 0.2039977513680092 0  0.4261685417851465 0.196409292431739 0  0.3590076176283495 0.196411355804271 0  0.5571672426447437 0.2036011176410121 0  0.3066757059912147 0.1964092924317024 0  0.594380730180568 0.1966558399668133 0  0.4842413153245942 0.2040749161535287 0  0.4693047108503577 0.2040749161535231 0  0.3871533862424271 0.1959250838464788 0  0.372246743208829 0.1959123236376545 0  0.5141145242731028 0.2040749161535395 0  0.4543681063761134 0.2040749161535186 0  0.4019979587101454 0.1959834479682427 0  0.4394608940728603 0.2040870543693135 0  0.5439623148931173 0.2040856076781014 0  0.5290511287473298 0.2040749161535501 0  0.4991779197988497 0.2040749161535382 0  0.3347912413592433 0.1959225448935183 0  0.3199680582793816 0.1959123018030061 0  0.2825051229162361 0.1959834479681729 0  0.3590471196690275 0.2036304442587945 0  0.5571594006495384 0.1963685282145804 0  0.3067669986803285 0.203627750582736 0  0.4262598344738712 0.2036568242185335 0  0.5814408164431408 0.2041285596160068 0  0.5688286748170428 0.1961819304477386 0  0.4145905603063645 0.2038180695522843 0  0.3473758401724931 0.2038180695522752 0  0.2950977245128307 0.2038180695522663 0  0.5688286748170693 0.203818069552238 0  0.2950977245127906 0.1961819304477774 0  0.3473758401723931 0.1961819304478349 0  0.4145905603061963 0.1961819304479011 0  0.2601812407614425 0.2056861609747042
[...]
<PointData  Vectors="f_46-2"> 
<DataArray  type="Float64"  Name="f_46-2"  NumberOfComponents="3" format="ascii">0.0000000000000000e+00 0.0000000000000000e+00 0.0000000000000000e+00  0.0000000000000000e+00 0.0000000000000000e+00 0.0000000000000000e+00  0.0000000000000000e+00 0.0000000000000000e+00 0.0000000000000000e+00  0.0000000000000000e+00 0.0000000000000000e+00 0.0000000000000000e+00  1.5157273687068953e-05 -3.1310304445920868e-04 0.0000000000000000e+00  4.2237077156953341e-05 -3.1378706265610177e-04 0.0000000000000000e+00  0.0000000000000000e+00 0.0000000000000000e+00 0.0000000000000000e+00  0.0000000000000000e+00 0.0000000000000000e+00 0.0000000000000000e+00  0.0000000000000000e+00 0.0000000000000000e+00 0.0000000000000000e+00  0.0000000000000000e+00 0.0000000000000000e+00 0.0000000000000000e+00  2.8402895988439594e-05 -3.1344449025478373e-04 0.0000000000000000e+00  0.0000000000000000e+00 0.0000000000000000e+00 0.0000000000000000e+00  0.0000000000000000e+00 0.0000000000000000e+00 0.0000000000000000e+00  0.0000000000000000e+00 0.0000000000000000e+00 0.0000000000000000e+00  0.0000000000000000e+00 0.0000000000000000e+00 0.0000000000000000e+00  0.0000000000000000e+00 0.0000000000000000e+00 0.0000000000000000e+00  0.0000000000000000e+00 0.0000000000000000e+00 0.0000000000000000e+00  0.0000000000000000e+00 0.0000000000000000e+00 0.0000000000000000e+00  0.0000000000000000e+00 0.0000000000000000e+00 0.0000000000000000e+00  0.0000000000000000e+00 0.0000000000000000e+00 0.0000000000000000e+00  0.0000000000000000e+00 0.0000000000000000e+00 0.0000000000000000e+00  0.0000000000000000e+00 0.0000000000000000e+00 0.0000000000000000e+00  0.0000000000000000e+00 0.0000000000000000e+00 0.0000000000000000e+00  0.0000000000000000e+00 0.0000000000000000e+00 0.0000000000000000e+00  0.0000000000000000e+00 0.0000000000000000e+00 0.0000000000000000e+00  0.0000000000000000e+00 0.0000000000000000e+00 0.0000000000000000e+00  0.0000000000000000e+00 0.0000000000000000e+00 0.0000000000000000e+00  0.0000000000000000e+00 0.0000000000000000e+00 0.0000000000000000e+00  0.0000000000000000e+00 0.0000000000000000e+00 0.0000000000000000e+00  0.0000000000000000e+00 0.0000000000000000e+00 0.0000000000000000e+00  0.0000000000000000e+00 0.0000000000000000e+00 0.0000000000000000e+00  0.0000000000000000e+00 0.0000000000000000e+00 0.0000000000000000e+00  0.0000000000000000e+00 0.0000000000000000e+00 0.0000000000000000e+00  0.0000000000000000e+00 0.0000000000000000e+00 0.0000000000000000e+00  0.0000000000000000e+00 0.0000000000000000e+00 0.0000000000000000e+00  5.1898870878922334e-14 -5.5890094440714189e-18 0.0000000000000000e+00  0.0000000000000000e+00 0.0000000000000000e+00 0.0000000000000000e+00  0.0000000000000000e+00 0.0000000000000000e+00 0.0000000000000000e+00  0.0000000000000000e+00 0.0000000000000000e+00 0.0000000000000000e+00  0.0000000000000000e+00 0.0000000000000000e+00 0.0000000000000000e+00  0.0000000000000000e+00 0.0000000000000000e+00 0.0000000000000000e+00  0.0000000000000000e+00 0.0000000000000000e+00 0.0000000000000000e+00  0.0000000000000000e+00 0.0000000000000000e+00 0.0000000000000000e+00  0.0000000000000000e+00 0.0000000000000000e+00 0.0000000000000000e+00  0.0000000000000000e+00 0.0000000000000000e+00 0.0000000000000000e+00  0.0000000000000000e+00 0.0000000000000000e+00 0.0000000000000000e+00  0.0000000000000000e+00 0.0000000000000000e+00 0.0000000000000000e+00  0.0000000000000000e+00 0.0000000000000000e+00 0.0000000000000000e+00  0.0000000000000000e+00 0.0000000000000000e+00 0.0000000000000000e+00  0.0000000000000000e+00 0.0000000000000000e+00 0.0000000000000000e+00  0.0000000000000000e+00 0.0000000000000000e+00 0.0000000000000000e+00  0.0000000000000000e+00 0.0000000000000000e+00 0.0000000000000000e+00  0.0000000000000000e+00 0.0000000000000000e+00 0.0000000000000000e+00  0.0000000000000000e+00 0.0000000000000000e+00 0.0000000000000000e+00  0.0000000000000000e+00 0.0000000000000000e+00 0.0000000000000000e+00  0.0000000000000000e+00 0.0000000000000000e+00 0.0000000000000000e+00  0.0000000000000000e+00 0.0000000000000000e+00 0.0000000000000000e+00  0.0000000000000000e+00 0.0000000000000000e+00 0.0000000000000000e+00  0.0000000000000000e+00 0.0000000000000000e+00 0.0000000000000000e+00  0.0000000000000000e+00 0.0000000000000000e+00 0.0000000000000000e+00  0.0000000000000000e+00 0.0000000000000000e+00 0.0000000000000000e+00  0.0000000000000000e+00 0.0000000000000000e+00 0.0000000000000000e+00  0.0000000000000000e+00 0.0000000000000000e+00 0.0000000000000000e+00  0.0000000000000000e+00 0.0000000000000000e+00 0.0000000000000000e+00  0.0000000000000000e+00 0.0000000000000000e+00 0.0000000000000000e+00  0.0000000000000000e+00 0.0000000000000000e+00 0.0000000000000000e+00  0.0000000000000000e+00 0.0000000000000000e+00 0.0000000000000000e+00  0.0000000000000000e+00 0.0000000000000000e+00 0.0000000000000000e+00  0.0000000000000000e+00 0.0000000000000000e+00 0.0000000000000000e+00  0.0000000000000000e+00 0.0000000000000000e+00 0.0000000000000000e+00  0.0000000000000000e+00 0.0000000000000000e+00 0.0000000000000000e+00  0.0000000000000000e+00 0.0000000000000000e+00 0.0000000000000000e+00  0.0000000000000000e+00 0.0000000000000000e+00 0.0000000000000000e+00  0.0000000000000000e+00 0.0000000000000000e+00 0.0000000000000000e+00  0.0000000000000000e+00 0.0000000000000000e+00 0.0000000000000000e+00  0.0000000000000000e+00 0.0000000000000000e+00 0.0000000000000000e+00  0.0000000000000000e+00 0.0000000000000000e+00 0.0000000000000000e+00  0.0000000000000000e+00 0.0000000000000000e+00 0.0000000000000000e+00  0.0000000000000000e+00 0.0000000000000000e+00 0.0000000000000000e+00  0.0000000000000000e+00 0.0000000000000000e+00 0.0000000000000000e+00  0.0000000000000000e+00 0.0000000000000000e+00 0.0000000000000000e+00  0.0000000000000000e+00 0.0000000000000000e+00 0.0000000000000000e+00  0.0000000000000000e+00 0.0000000000000000e+00 0.0000000000000000e+00  0.0000000000000000e+00 0.0000000000000000e+00 0.0000000000000000e+00  0.0000000000000000e+00 0.0000000000000000e+00 0.0000000000000000e+00  0.0000000000000000e+00 0.0000000000000000e+00 0.0000000000000000e+00  0.0000000000000000e+00 0.0000000000000000e+00 0.0000000000000000e+00  0.0000000000000000e+00 0.0000000000000000e+00 0.0000000000000000e+00  7.6709392934071749e-14 0.0000000000000000e+00 0.0000000000000000e+00  0.0000000000000000e+00 0.0000000000000000e+00 0.0000000000000000e+00  0.0000000000000000e+00 0.0000000000000000e+00 0.0000000000000000e+00  0.0000000000000000e+00 0.0000000000000000e+00 0.0000000000000000e+00  0.0000000000000000e+00 0.0000000000000000e+00 0.0000000000000000e+00  0.0000000000000000e+00 0.0000000000000000e+00 0.0000000000000000e+00  4.4285578240134532e-13 7.3457438890868695e-19 0.0000000000000000e+00  0.0000000000000000e+00 0.0000000000000000e+00 0.0000000000000000e+00  0.0000000000000000e+00 0.0000000000000000e+00 0.0000000000000000e+00  0.0000000000000000e+00 0.0000000000000000e+00 0.0000000000000000e+00  0.0000000000000000e+00 0.0000000000000000e+00 0.0000000000000000e+00  0.0000000000000000e+00 0.0000000000000000e+00 0.0000000000000000e+00  0.0000000000000000e+00 0.0000000000000000e+00 0.0000000000000000e+00  0.0000000000000000e+00 0.0000000000000000e+00 0.0000000000000000e+00  0.0000000000000000e+00 0.0000000000000000e+00 0.0000000000000000e+00  0.0000000000000000e+00 0.0000000000000000e+00 0.0000000000000000e+00  0.0000000000000000e+00 0.0000000000000000e+00 0.0000000000000000e+00  2.2415659560462100e-13 -3.6117301375915744e-14 0.0000000000000000e+00  0.0000000000000000e+00 0.0000000000000000e+00 0.0000000000000000e+00  0.0000000000000000e+00 0.0000000000000000e+00 0.0000000000000000e+00  0.0000000000000000e+00 0.0000000000000000e+00 0.0000000000000000e+00  0.0000000000000000e+00 0.0000000000000000e+00 0.0000000000000000e+00  9.2013453672062974e-14 0.0000000000000000e+00 0.0000000000000000e+00  0.0000000000000000e+00 0.0000000000000000e+00 0.0000000000000000e+00  0.0000000000000000e+00 0.0000000000000000e+00 0.0000000000000000e+00  0.0000000000000000e+00 0.0000000000000000e+00 0.0000000000000000e+00  0.0000000000000000e+00 0.0000000000000000e+00 0.0000000000000000e+00  0.0000000000000000e+00 0.0000000000000000e+00 0.0000000000000000e+00  0.0000000000000000e+00 0.0000000000000000e+00 0.0000000000000000e+00  0.0000000000000000e+00 0.0000000000000000e+00 0.0000000000000000e+00  0.0000000000000000e+00 0.0000000000000000e+00 0.0000000000000000e+00  0.0000000000000000e+00 0.0000000000000000e+00 0.0000000000000000e+00  0.0000000000000000e+00 0.0000000000000000e+00 0.0000000000000000e+00  0.0000000000000000e+00 0.0000000000000000e+00 0.0000000000000000e+00  0.0000000000000000e+00 0.0000000000000000e+00 0.0000000000000000e+00  0.0000000000000000e+00 0.0000000000000000e+00 0.0000000000000000e+00  0.0000000000000000e+00 0.0000000000000000e+00 0.0000000000000000e+00  0.0000000000000000e+00 0.0000000000000000e+00 0.0000000000000000e+00  0.0000000000000000e+00 0.0000000000000000e+00 0.0000000000000000e+00  0.0000000000000000e+00 0.0000000000000000e+00 0.0000000000000000e+00  0.0000000000000000e+00 0.0000000000000000e+00 0.0000000000000000e+00  0.0000000000000000e+00 0.0000000000000000e+00 0.0000000000000000e+00  0.0000000000000000e+00 0.0000000000000000e+00 0.0000000000000000e+00  0.0000000000000000e+00 0.0000000000000000e+00 0.0000000000000000e+00  0.0000000000000000e+00 0.0000000000000000e+00 0.0000000000000000e+00  0.0000000000000000e+00 0.0000000000000000e+00 0.0000000000000000e+00  0.0000000000000000e+00 0.0000000000000000e+00 0.0000000000000000e+00  0.0000000000000000e+00 0.0000000000000000e+00 0.0000000000000000e+00  0.0000000000000000e+00 0.0000000000000000e+00 0.0000000000000000e+00  0.0000000000000000e+00 0.0000000000000000e+00 0.0000000000000000e+00  0.0000000000000000e+00 0.0000000000000000e+00 0.0000000000000000e+00  0.0000000000000000e+00 0.0000000000000000e+00 0.0000000000000000e+00  0.0000000000000000e+00 0.0000000000000000e+00 0.0000000000000000e+00  0.0000000000000000e+00 0.0000000000000000e+00 0.0000000000000000e+00  -4.7281675418200681e-13 -4.0641808734265530e-13 0.0000000000000000e+00  8.8255138638663716e-07 -8.8592243123695134e-07 0.0000000000000000e+00  1.9191206096027263e-06 -1.1311779738194969e-06 0.0000000000000000e+00  3.0433845239170286e-06 -1.5916007163351800e-06 0.0000000000000000e+00  4.2873430525031625e-06 -2.3088040004464346e-06 0.0000000000000000e+00  5.5239616460454492e-06 -3.3448110207565570e-06 0.0000000000000000e+00  6.8849976770138059e-06 -4.7366674720630968e-06 0.0000000000000000e+00  8.1813441662853131e-06 -6.4312918601519902e-06 0.0000000000000000e+00  9.5096474903276320e-06 -8.5521865453900212e-06 0.0000000000000000e+00  1.0955977402594255e-05 -1.1024273438340094e-05 0.0000000000000000e+00  1.2289409975523299e-05 -1.3894061793572889e-05 0.0000000000000000e+00  1.3771979537083714e-05 -1.7171623395599589e-05 0.0000000000000000e+00  1.5113164843793037e-05 -2.0859046575477295e-05 0.0000000000000000e+00  1.6577007965917064e-05 -2.4957161731573516e-05 0.0000000000000000e+00  1.7919365350651793e-05 -2.9405717435392650e-05 0.0000000000000000e+00  1.9256423695647425e-05 -3.4305711555018612e-05 0.0000000000000000e+00  2.0676157598263500e-05 -3.9560557605203019e-05 0.0000000000000000e+00  2.1947056487378009e-05 -4.5190145102579101e-05 0.0000000000000000e+00  2.3317602010895670e-05 -5.1204563809122490e-05 0.0000000000000000e+00  2.4528580189992929e-05 -5.7562083374118206e-05 0.0000000000000000e+00  2.5816401839531649e-05 -6.4264270192950607e-05 0.0000000000000000e+00  2.6978437240750532e-05 -7.1289803474897226e-05 0.0000000000000000e+00  2.8171416900542268e-05 -7.8645674381585301e-05 0.0000000000000000e+00  2.9249879587476355e-05 -8.6244188416554328e-05 0.0000000000000000e+00  3.0290131547157430e-05 -9.4157935375216938e-05 0.0000000000000000e+00  3.1350090111883941e-05 -1.0229199410470188e-04 0.0000000000000000e+00  3.2310610232928913e-05 -1.1067203178594051e-04 0.0000000000000000e+00  3.3243004546369527e-05 -1.1928893841326506e-04 0.0000000000000000e+00  3.4106615237454612e-05 -1.2807778397807716e-04 0.0000000000000000e+00  3.4937758504417364e-05 -1.3707451853449371e-04 0.0000000000000000e+00  3.5703337762442324e-05 -1.4620681390357173e-04 0.0000000000000000e+00  3.6433973457751563e-05 -1.5551247653323438e-04 0.0000000000000000e+00  3.7102605869038822e-05 -1.6491993805731216e-04 0.0000000000000000e+00  3.7734764803683032e-05 -1.7446876920227192e-04 0.0000000000000000e+00  3.8309668757529736e-05 -1.8408908052228444e-04 0.0000000000000000e+00  3.8845941319503984e-05 -1.9382279676064448e-04 0.0000000000000000e+00  3.9330265843589144e-05 -2.0360262403666980e-04 0.0000000000000000e+00  3.9776957159841702e-05 -2.1346985720380841e-04 0.0000000000000000e+00  4.0176100177507724e-05 -2.2336282015751025e-04 0.0000000000000000e+00  4.0537702884102926e-05 -2.3332225876645450e-04 0.0000000000000000e+00  4.0854438563493856e-05 -2.4329011922850184e-04 0.0000000000000000e+00  4.1130916447746685e-05 -2.5330200707119005e-04 0.0000000000000000e+00  4.1372063270274290e-05 -2.6332175854741087e-04 0.0000000000000000e+00  4.1574206264786655e-05 -2.7336205268749518e-04 0.0000000000000000e+00  4.1756105039812072e-05 -2.8341012722696193e-04 0.0000000000000000e+00  4.1895831785465000e-05 -2.9345454575822129e-04 0.0000000000000000e+00  4.2036547920487155e-05 -3.0354025456850038e-04 0.0000000000000000e+00  3.5219671471978059e-05 -3.1361048612000317e-04 0.0000000000000000e+00  2.1693430932855318e-05 -3.1328248174350849e-04 0.0000000000000000e+00  1.4976670187302581e-05 -3.0313873237902515e-04 0.0000000000000000e+00  1.4864186264288692e-05 -2.9301578106084440e-04 0.0000000000000000e+00  1.4749627741657652e-05 -2.8287780112148741e-04 0.0000000000000000e+00  1.4606575336598166e-05 -2.7276363125455360e-04 0.0000000000000000e+00  1.4444141260639388e-05 -2.6265945753145374e-04 0.0000000000000000e+00  1.4252504368667914e-05 -2.5257353506774767e-04 0.0000000000000000e+00  1.4048817397534102e-05 -2.4251168905322967e-04 0.0000000000000000e+00  1.3810086400960307e-05 -2.3246411242197669e-04 0.0000000000000000e+00  1.3564052312555977e-05 -2.2246868569719341e-04 0.0000000000000000e+00  1.3284322253081130e-05 -2.1249630920241135e-04 0.0000000000000000e+00  1.3007211915812544e-05 -2.0259351399606860e-04 0.0000000000000000e+00  1.2693385011620945e-05 -1.9273461613425030e-04 0.0000000000000000e+00  1.2392785015899223e-05 -1.8296653195065443e-04 0.0000000000000000e+00  1.2050784982256525e-05 -1.7326849067975184e-04 0.0000000000000000e+00  1.1734691194416540e-05 -1.6368647773310984e-04 0.0000000000000000e+00  1.1370164095400106e-05 -1.5420377350295142e-04 0.0000000000000000e+00  1.1044774532714676e-05 -1.4486640046481653e-04 0.0000000000000000e+00  1.0663324071069931e-05 -1.3566168395140281e-04 0.0000000000000000e+00  1.0335450331979137e-05 -1.2663504558283489e-04 0.0000000000000000e+00  9.9425692798233723e-06 -1.1777761680767231e-04 0.0000000000000000e+00  9.6196871381372737e-06 -1.0913447056597189e-04 0.0000000000000000e+00  9.2217032038742320e-06 -1.0070076907503123e-04 0.0000000000000000e+00  8.8982153898917660e-06 -9.2517649294818685e-05 0.0000000000000000e+00  8.5136248212446107e-06 -8.4565858068686608e-05 0.0000000000000000e+00  8.1245351315940144e-06 -7.6934200393932357e-05 0.0000000000000000e+00  7.8096490349899989e-06 -6.9539402287779599e-05 0.0000000000000000e+00  7.4422316000746303e-06 -6.2484984220058731e-05 0.0000000000000000e+00  7.1167332190267081e-06 -5.5752089988700327e-05 0.0000000000000000e+00  6.7570356289535837e-06 -4.9366007068123994e-05 0.0000000000000000e+00  6.4347490447039471e-06 -4.3340098162677255e-05 0.0000000000000000e+00  6.0796411303389217e-06 -3.7671247717105657e-05 0.0000000000000000e+00  5.7965792482413517e-06 -3.2430244102260587e-05 0.0000000000000000e+00  5.4245167085100675e-06 -2.7515030807824326e-05 0.0000000000000000e+00  5.0477471617587258e-06 -2.3065405105557789e-05 0.0000000000000000e+00  4.7619502596600551e-06 -1.8941931535328675e-05 0.0000000000000000e+00  4.4114302592778569e-06 -1.5269189773288662e-05 0.0000000000000000e+00  4.0952044394833347e-06 -1.1999115369111987e-05 0.0000000000000000e+00  3.7324743947583316e-06 -9.1218675823553661e-06 0.0000000000000000e+00  3.4277935664473090e-06 -6.6873755202955906e-06 0.0000000000000000e+00  3.0241984347113067e-06 -4.5762434785174354e-06 0.0000000000000000e+00  2.6010995072128323e-06 -2.9012201773129627e-06 0.0000000000000000e+00  2.2441680819696081e-06 -1.5211385931524107e-06 0.0000000000000000e+00  1.7987835238264806e-06 -4.9716453714418606e-07 0.0000000000000000e+00  1.3841277057470774e-06 2.0133433294373069e-07 0.0000000000000000e+00  8.9994311388258097e-07 6.1524078951984889e-07 0.0000000000000000e+00  4.6726502863445165e-07 7.2849308689937514e-07 0.0000000000000000e+00  9.4323846028636267e-07 -8.7440207659959637e-09 0.0000000000000000e+00  2.8500367192801299e-05 -2.9825866527529403e-04 0.0000000000000000e+00  2.8418734804783821e-05 -2.7896998179712765e-04 0.0000000000000000e+00  2.7672449692851430e-05 -2.4754427342131997e-04 0.0000000000000000e+00  2.6218836760331015e-06 -8.2490724384855935e-07 0.0000000000000000e+00  2.6974019248709343e-05 -2.2787308344342764e-04 0.0000000000000000e+00  4.2214312620303814e-06 -2.7310306598960839e-06 0.0000000000000000e+00  2.6302490664598080e-05 -2.0799477614824447e-04 0.0000000000000000e+00  6.8847036604183704e-06 -8.6309301226679444e-06 0.0000000000000000e+00  8.6310471273317282e-06 -1.4277080172649595e-05 0.0000000000000000e+00  2.5513771952914377e-05 -1.8833970497456236e-04 0.0000000000000000e+00  1.2868365975552168e-05 -3.5899301717784434e-05 0.0000000000000000e+00  2.3593164445217357e-05 -1.5008848159758117e-04 0.0000000000000000e+00  1.0225543942905555e-05 -2.1290398000994965e-05 0.0000000000000000e+00  1.4589237970868692e-05 -4.6997166811803029e-05 0.0000000000000000e+00  2.2467231113711123e-05 -1.3172717451968751e-04 0.0000000000000000e+00  2.4609843153844372e-05 -1.6900091559891782e-04 0.0000000000000000e+00  1.6199075473536595e-05 -5.9756144023492068e-05 0.0000000000000000e+00  2.1235222023965818e-05 -1.1405625512906812e-04 0.0000000000000000e+00  1.7555485605005711e-05 -7.3251829318548629e-05 0.0000000000000000e+00  2.0076011426430388e-05 -9.7570674196725983e-05 0.0000000000000000e+00  1.8777902534032763e-05 -8.4636684743147865e-05 0.0000000000000000e+00  1.1586673270016019e-05 -2.7868317769797683e-05 0.0000000000000000e+00  2.7842481633988495e-05 -2.6386214897010368e-04 0.0000000000000000e+00  5.5252423158463582e-06 -5.1772562250694596e-06 0.0000000000000000e+00  2.3738659789189848e-05 -2.8846469487140179e-04 0.0000000000000000e+00  1.5231248261430852e-06 2.6588315577640330e-08 0.0000000000000000e+00  2.2794338125681729e-05 -2.1778013694417867e-04 0.0000000000000000e+00  2.3376199856844898e-05 -2.3775540695157379e-04 0.0000000000000000e+00  3.9643926161569882e-06 -2.0179010785175990e-06 0.0000000000000000e+00  8.8915396722858281e-06 -1.1517088761825748e-05 0.0000000000000000e+00  2.0451819137582791e-05 -1.5931069536478324e-04 0.0000000000000000e+00  2.2110001055985432e-05 -1.9798806871151558e-04 0.0000000000000000e+00  1.5958658107378755e-05 -4.1458395392719585e-05 0.0000000000000000e+00  1.9489225404477282e-05 -1.4064478911912453e-04 0.0000000000000000e+00  1.0924474261892225e-05 -1.8063492260451368e-05 0.0000000000000000e+00  1.7868801693529439e-05 -5.3498521024598555e-05 0.0000000000000000e+00  1.8445385962269568e-05 -1.2259866442750482e-04 0.0000000000000000e+00  2.1327277596072652e-05 -1.7846414447388636e-04 0.0000000000000000e+00  2.0292067387050545e-05 -6.6916525756186126e-05 0.0000000000000000e+00  1.7323958286153849e-05 -1.0531747633919890e-04 0.0000000000000000e+00  3.9643535252540389e-07 -1.5650562866089278e-07 0.0000000000000000e+00  3.0244668525876836e-07 2.3256814329019996e-07 0.0000000000000000e+00  3.1657680996443148e-05 -3.0625584362501795e-04 0.0000000000000000e+00  2.0524840187614264e-06 -6.7846734006206681e-07 0.0000000000000000e+00  1.55496