<?xml version="1.0"?>
<VTKFile type="UnstructuredGrid"  version="0.1"  >
<UnstructuredGrid>
<Piece  NumberOfPoints="1419" NumberOfCells="2698">
<Points>
<DataArray  type="Float64"  NumberOfComponents="3"  format="ascii">0 0 0  0 0.41 0  2.5 0 0  2.5 0.41 0  0.6 0.19 0  0.6 0.21 0  0.25 0.2 0  0.15 0.2 0  0.2489897948556636 0.21 0  0.2489897948556636 0.19 0  0.6 0.2 0  0 0.3807142857143437 0  0 0.3514285714286952 0  0 0.3221428571430699 0  0 0.29285714285744 0  0 0.2635714285718054 0  0 0.2342857142861561 0  0 0.2050000000005308 0  0 0.175714285714732 0  0 0.1464285714289574 0  0 0.1171428571431897 0  0 0.08785714285737878 0  0 0.05857142857161107 0  0 0.02928571428580012 0  0.03015443760436003 0 0  0.06140001986583606 0 0  0.09377624077125973 0 0  0.1273239957535082 0 0  0.1620856860351972 0 0  0.1981052433264291 0 0  0.235428184091502 0 0  0.2741016576309132 0 0  0.3141745521465447 0 0  0.3556974926295285 0 0  0.3987229542472677 0 0  0.4433053055141081 0 0  0.4895008759286886 0 0  0.5373680609405097 0 0  0.5869673343216626 0 0  0.6383613676634521 0 0  0.6916151138468254 0 0  0.7467958595648856 0 0  0.8039733463919316 0 0  0.8632198139502143 0 0  0.9246101326867038 0 0  0.9882218810934433 0 0  1.054135445558498 0 0  1.122434100542598 0 0  1.193204177141305 0 0  1.266535089879536 0 0  1.342519516046404 0 0  1.421253448503939 0 0  1.502836389106271 0 0  1.587371439758838 0 0  1.674965418777374 0 0  1.765729001825544 0 0  1.859776908880082 0 0  1.957227977487062 0 0  2.058205329869943 0 0  2.162836591189951 0 0  2.271253957290865 0 0  2.383594446803425 0 0  2.5 0.1024999999997612 0  2.5 0.2049999999994743 0  2.5 0.3074999999997183 0  2.383594446803656 0.41 0  2.271253957291315 0.41 0  2.162836591190598 0.41 0  2.058205329870775 0.41 0  1.957227977488067 0.41 0  1.859776908881246 0.41 0  1.765729001826854 0.41 0  1.674965418778818 0.41 0  1.58737143976041 0.41 0  1.502836389107956 0.41 0  1.421253448505726 0.41 0  1.342519516048286 0.41 0  1.266535089881505 0.41 0  1.193204177143353 0.41 0  1.122434100544716 0.41 0  1.05413544556068 0.41 0  0.9882218810956305 0.41 0  0.9246101326886647 0.41 0  0.8632198139519631 0.41 0  0.8039733463934788 0.41 0  0.7467958595662458 0.41 0  0.6916151138480078 0.41 0  0.6383613676644679 0.41 0  0.5869673343225223 0.41 0  0.5373680609412221 0.41 0  0.4895008759292634 0.41 0  0.4433053055145528 0.41 0  0.3987229542475914 0.41 0  0.3556974926297398 0.41 0  0.3141745521466497 0.41 0  0.2741016576310038 0.41 0  0.2354281840915826 0.41 0  0.1981052433265003 0.41 0  0.1620856860352591 0.41 0  0.1273239957535623 0.41 0  0.09377624077128965 0.41 0  0.06140001986584975 0.41 0  0.03015443760436654 0.41 0  0.2497468076502589 0.2050254481002335 0  0.2497468076502614 0.1949745518997913 0  0.2469965252529372 0.1829317073451959 0  0.2439893735792749 0.1762316384219906 0  0.2400332147834255 0.1700443375285386 0  0.2352133972704371 0.1645032867342007 0  0.2296339016332438 0.1597280261969788 0  0.2234150974217223 0.1558215752574715 0  0.2166911463437691 0.1528682099456123 0  0.2096071079204251 0.1509316448471593 0  0.2023158100364996 0.1500536585536553 0  0.194974551899914 0.1502531923497262 0  0.1877417105387872 0.1515259415822739 0  0.1807733240461124 0.153844448527136 0  0.1742197252835808 0.15715869474974 0  0.1682222986673531 0.1613971801805478 0  0.162910430003803 0.1664684656256651 0  0.1583987151779087 0.1722631454351573 0  0.1547844879126891 0.178656207771761 0  0.1521457199348551 0.1855097315605723 0  0.1505393388476355 0.1926758619366523 0  0.1505393388476328 0.2073241380633295 0  0.1521457199348437 0.2144902684393899 0  0.1547844879126531 0.221343792228163 0  0.1583987151778488 0.2277368545647528 0  0.1629104300036858 0.2335315343742052 0  0.1682222986671726 0.2386028198193036 0  0.1742197252833576 0.2428413052501257 0  0.1807733240458683 0.2461555514727623 0  0.1877417105384929 0.2484740584176516 0  0.1949745518995776 0.2497468076502398 0  0.202315810036185 0.2499463414463592 0  0.2096071079201568 0.2490683551528932 0  0.2166911463435495 0.2471317900544655 0  0.2234150974215506 0.2441784247426195 0  0.2296339016331197 0.2402719738031125 0  0.2352133972703547 0.2354967132658811 0  0.2400332147833751 0.2299556624715287 0  0.2439893735792577 0.2237683615780412 0  0.246996525252926 0.2170682926548348 0  0.25645809709277 0.21 0  0.2639263993298655 0.21 0  0.271394701566961 0.21 0  0.2788630038040554 0.21 0  0.2863313060411479 0.21 0  0.2937996082782405 0.21 0  0.301267910515333 0.21 0  0.3087362127524279 0.21 0  0.3162045149895234 0.21 0  0.3236728172265972 0.21 0  0.3311411194636928 0.21 0  0.3386094217007701 0.21 0  0.3460777239378666 0.21 0  0.3535460261749672 0.21 0  0.3610143284120516 0.21 0  0.3684826306491596 0.21 0  0.3759509328862226 0.21 0  0.383419235123329 0.21 0  0.3908875373604028 0.21 0  0.3983558395975142 0.21 0  0.4058241418345938 0.21 0  0.4132924440716992 0.21 0  0.4207607463087888 0.21 0  0.4282290485459029 0.21 0  0.4356973507830418 0.21 0  0.4431656530201649 0.21 0  0.4506339552573136 0.21 0  0.4581022574944306 0.21 0  0.4655705597315852 0.21 0  0.4730388619686996 0.21 0  0.480507164205851 0.21 0  0.4879754664429498 0.21 0  0.4954437686800938 0.21 0  0.502912070917267 0.21 0  0.5103803731544119 0.21 0  0.5178486753915261 0.21 0  0.5253169776286404 0.21 0  0.5327852798657868 0.21 0  0.5402535821029386 0.21 0  0.54772188434007 0.21 0  0.5551901865771842 0.21 0  0.5626584888143201 0.21 0  0.5701267910514778 0.21 0  0.5775950932886138 0.21 0  0.5850633955257281 0.21 0  0.5925316977628483 0.21 0  0.6 0.2050000000000054 0  0.6 0.1950000000000217 0  0.5925316977628897 0.19 0  0.5850633955257988 0.19 0  0.5775950932887378 0.19 0  0.5701267910515998 0.19 0  0.5626584888145268 0.19 0  0.5551901865773963 0.19 0  0.547721884340339 0.19 0  0.5402535821032429 0.19 0  0.5327852798661811 0.19 0  0.5253169776290537 0.19 0  0.5178486753919799 0.19 0  0.5103803731549078 0.19 0  0.502912070917822 0.19 0  0.4954437686807294 0.19 0  0.4879754664436223 0.19 0  0.4805071642065402 0.19 0  0.4730388619694271 0.19 0  0.4655705597323621 0.19 0  0.4581022574952563 0.19 0  0.4506339552581777 0.19 0  0.4431656530210671 0.19 0  0.4356973507839815 0.19 0  0.4282290485468779 0.19 0  0.4207607463097617 0.19 0  0.4132924440726327 0.19 0  0.4058241418354857 0.19 0  0.3983558395983636 0.19 0  0.3908875373612097 0.19 0  0.3834192351240934 0.19 0  0.3759509328869369 0.19 0  0.3684826306498175 0.19 0  0.361014328412667 0.19 0  0.3535460261755617 0.19 0  0.3460777239384295 0.19 0  0.3386094217012945 0.19 0  0.3311411194641595 0.19 0  0.3236728172270245 0.19 0  0.3162045149898895 0.19 0  0.3087362127527544 0.19 0  0.3012679105156187 0.19 0  0.2937996082784807 0.19 0  0.2863313060413428 0.19 0  0.2788630038042048 0.19 0  0.2713947015670686 0.19 0  0.2639263993299336 0.19 0  0.2564580970927985 0.19 0  0.2607803159922026 0.2000727136295815 0  0.5887803774232762 0.2001272386983733 0  0.5745072403740523 0.2002044435018727 0  0.5511891430099709 0.2001122610077113 0  0.2751288526855082 0.20000000000002 0  0.5365194309847112 0.1999999999999436 0  0.2894621222999649 0.1998691686390484 0  0.5215828265105155 0.1999999999999228 0  0.3127789816668748 0.1998657885438805 0  0.3274069683451451 0.2000000000000796 0  0.5066462220363641 0.199999999999908 0  0.3650630746574081 0.199866017807523 0  0.476773013087985 0.1999999999998713 0  0.3417402379596385 0.1998691686391011 0  0.3796850840047755 0.200000000000134 0  0.4618364086138087 0.1999999999998546 0  0.4917096175621762 0.1999999999998808 0  0.3946216884789568 0.2000000000001512 0  0.446899804139621 0.1999999999998389 0  0.4089549580935208 0.1998691686391595 0  0.4322718174608562 0.200127451265745 0  0.4201487168029707 0.1999966199048527 0  0.3528922713220932 0.2000185703532356 0  0.5633122436674589 0.1999814296467508 0  0.3006558810093873 0.1999966199048318 0  0.5815926498168407 0.1966545283159175 0  0.2677053789419034 0.1964246479135325 0  0.5290511287476175 0.1970915826863981 0  0.5439877332217911 0.197091582686394 0  0.2825131256993216 0.2035478995978015 0  0.3199386661080599 0.202908417313604 0  0.4842413153250809 0.1970915826863873 0  0.5141145242734466 0.1970915826863843 0  0.3722167817676917 0.2029084173136195 0  0.4693047108508938 0.1970915826863783 0  0.3348752705822316 0.202908417313609 0  0.3871533862418661 0.2029084173136212 0  0.4543681063767183 0.1970915826863795 0  0.4991779197992749 0.1970915826863902 0  0.4020059614928624 0.203547899597858 0  0.4394315019025246 0.1970915826863714 0  0.2550657455369551 0.2034088125358657 0  0.2548908499171161 0.1966940311614271 0  0.5946539510196798 0.2024302972968126 0  0.267698176732111 0.2039977513680092 0  0.4261685417851465 0.196409292431739 0  0.3590076176283495 0.196411355804271 0  0.5571672426447437 0.2036011176410121 0  0.3066757059912147 0.1964092924317024 0  0.594380730180568 0.1966558399668133 0  0.4842413153245942 0.2040749161535287 0  0.4693047108503577 0.2040749161535231 0  0.3871533862424271 0.1959250838464788 0  0.372246743208829 0.1959123236376545 0  0.5141145242731028 0.2040749161535395 0  0.4543681063761134 0.2040749161535186 0  0.4019979587101454 0.1959834479682427 0  0.4394608940728603 0.2040870543693135 0  0.5439623148931173 0.2040856076781014 0  0.5290511287473298 0.2040749161535501 0  0.4991779197988497 0.2040749161535382 0  0.3347912413592433 0.1959225448935183 0  0.3199680582793816 0.1959123018030061 0  0.2825051229162361 0.1959834479681729 0  0.3590471196690275 0.2036304442587945 0  0.5571594006495384 0.1963685282145804 0  0.3067669986803285 0.203627750582736 0  0.4262598344738712 0.2036568242185335 0  0.5814408164431408 0.2041285596160068 0  0.5688286748170428 0.1961819304477386 0  0.4145905603063645 0.2038180695522843 0  0.3473758401724931 0.2038180695522752 0  0.2950977245128307 0.2038180695522663 0  0.5688286748170693 0.203818069552238 0  0.2950977245127906 0.1961819304477774 0  0.3473758401723931 0.1961819304478349 0  0.4145905603061963 0.1961819304479011 0  0.2601812407614425 0.2056861609747042
[...]
<PointData  Vectors="f_46-2"> 
<DataArray  type="Float64"  Name="f_46-2"  NumberOfComponents="3" format="ascii">0.0000000000000000e+00 0.0000000000000000e+00 0.0000000000000000e+00  0.0000000000000000e+00 0.0000000000000000e+00 0.0000000000000000e+00  0.0000000000000000e+00 0.0000000000000000e+00 0.0000000000000000e+00  0.0000000000000000e+00 0.0000000000000000e+00 0.0000000000000000e+00  1.5214856999081557e-05 -3.3834458103236618e-04 0.0000000000000000e+00  4.3642539609535521e-05 -3.3903901512303929e-04 0.0000000000000000e+00  0.0000000000000000e+00 0.0000000000000000e+00 0.0000000000000000e+00  0.0000000000000000e+00 0.0000000000000000e+00 0.0000000000000000e+00  0.0000000000000000e+00 0.0000000000000000e+00 0.0000000000000000e+00  0.0000000000000000e+00 0.0000000000000000e+00 0.0000000000000000e+00  2.9131320637014999e-05 -3.3869140855993888e-04 0.0000000000000000e+00  0.0000000000000000e+00 0.0000000000000000e+00 0.0000000000000000e+00  0.0000000000000000e+00 0.0000000000000000e+00 0.0000000000000000e+00  0.0000000000000000e+00 0.0000000000000000e+00 0.0000000000000000e+00  0.0000000000000000e+00 0.0000000000000000e+00 0.0000000000000000e+00  0.0000000000000000e+00 0.0000000000000000e+00 0.0000000000000000e+00  0.0000000000000000e+00 0.0000000000000000e+00 0.0000000000000000e+00  0.0000000000000000e+00 0.0000000000000000e+00 0.0000000000000000e+00  0.0000000000000000e+00 0.0000000000000000e+00 0.0000000000000000e+00  0.0000000000000000e+00 0.0000000000000000e+00 0.0000000000000000e+00  0.0000000000000000e+00 0.0000000000000000e+00 0.0000000000000000e+00  0.0000000000000000e+00 0.0000000000000000e+00 0.0000000000000000e+00  0.0000000000000000e+00 0.0000000000000000e+00 0.0000000000000000e+00  0.0000000000000000e+00 0.0000000000000000e+00 0.0000000000000000e+00  0.0000000000000000e+00 0.0000000000000000e+00 0.0000000000000000e+00  0.0000000000000000e+00 0.0000000000000000e+00 0.0000000000000000e+00  0.0000000000000000e+00 0.0000000000000000e+00 0.0000000000000000e+00  0.0000000000000000e+00 0.0000000000000000e+00 0.0000000000000000e+00  0.0000000000000000e+00 0.0000000000000000e+00 0.0000000000000000e+00  0.0000000000000000e+00 0.0000000000000000e+00 0.0000000000000000e+00  0.0000000000000000e+00 0.0000000000000000e+00 0.0000000000000000e+00  0.0000000000000000e+00 0.0000000000000000e+00 0.0000000000000000e+00  0.0000000000000000e+00 0.0000000000000000e+00 0.0000000000000000e+00  0.0000000000000000e+00 0.0000000000000000e+00 0.0000000000000000e+00  0.0000000000000000e+00 0.0000000000000000e+00 0.0000000000000000e+00  -3.1385046739058752e-13 0.0000000000000000e+00 0.0000000000000000e+00  0.0000000000000000e+00 0.0000000000000000e+00 0.0000000000000000e+00  0.0000000000000000e+00 0.0000000000000000e+00 0.0000000000000000e+00  0.0000000000000000e+00 0.0000000000000000e+00 0.0000000000000000e+00  0.0000000000000000e+00 0.0000000000000000e+00 0.0000000000000000e+00  0.0000000000000000e+00 0.0000000000000000e+00 0.0000000000000000e+00  0.0000000000000000e+00 0.0000000000000000e+00 0.0000000000000000e+00  0.0000000000000000e+00 0.0000000000000000e+00 0.0000000000000000e+00  0.0000000000000000e+00 0.0000000000000000e+00 0.0000000000000000e+00  0.0000000000000000e+00 0.0000000000000000e+00 0.0000000000000000e+00  0.0000000000000000e+00 0.0000000000000000e+00 0.0000000000000000e+00  0.0000000000000000e+00 0.0000000000000000e+00 0.0000000000000000e+00  0.0000000000000000e+00 0.0000000000000000e+00 0.0000000000000000e+00  0.0000000000000000e+00 0.0000000000000000e+00 0.0000000000000000e+00  0.0000000000000000e+00 0.0000000000000000e+00 0.0000000000000000e+00  0.0000000000000000e+00 0.0000000000000000e+00 0.0000000000000000e+00  0.0000000000000000e+00 0.0000000000000000e+00 0.0000000000000000e+00  0.0000000000000000e+00 0.0000000000000000e+00 0.0000000000000000e+00  0.0000000000000000e+00 0.0000000000000000e+00 0.0000000000000000e+00  0.0000000000000000e+00 0.0000000000000000e+00 0.0000000000000000e+00  0.0000000000000000e+00 0.0000000000000000e+00 0.0000000000000000e+00  0.0000000000000000e+00 0.0000000000000000e+00 0.0000000000000000e+00  0.0000000000000000e+00 0.0000000000000000e+00 0.0000000000000000e+00  0.0000000000000000e+00 0.0000000000000000e+00 0.0000000000000000e+00  0.0000000000000000e+00 0.0000000000000000e+00 0.0000000000000000e+00  0.0000000000000000e+00 0.0000000000000000e+00 0.0000000000000000e+00  0.0000000000000000e+00 0.0000000000000000e+00 0.0000000000000000e+00  0.0000000000000000e+00 0.0000000000000000e+00 0.0000000000000000e+00  0.0000000000000000e+00 0.0000000000000000e+00 0.0000000000000000e+00  0.0000000000000000e+00 0.0000000000000000e+00 0.0000000000000000e+00  0.0000000000000000e+00 0.0000000000000000e+00 0.0000000000000000e+00  0.0000000000000000e+00 0.0000000000000000e+00 0.0000000000000000e+00  0.0000000000000000e+00 0.0000000000000000e+00 0.0000000000000000e+00  0.0000000000000000e+00 0.0000000000000000e+00 0.0000000000000000e+00  0.0000000000000000e+00 0.0000000000000000e+00 0.0000000000000000e+00  0.0000000000000000e+00 0.0000000000000000e+00 0.0000000000000000e+00  0.0000000000000000e+00 0.0000000000000000e+00 0.0000000000000000e+00  0.0000000000000000e+00 0.0000000000000000e+00 0.0000000000000000e+00  0.0000000000000000e+00 0.0000000000000000e+00 0.0000000000000000e+00  0.0000000000000000e+00 0.0000000000000000e+00 0.0000000000000000e+00  0.0000000000000000e+00 0.0000000000000000e+00 0.0000000000000000e+00  0.0000000000000000e+00 0.0000000000000000e+00 0.0000000000000000e+00  0.0000000000000000e+00 0.0000000000000000e+00 0.0000000000000000e+00  0.0000000000000000e+00 0.0000000000000000e+00 0.0000000000000000e+00  0.0000000000000000e+00 0.0000000000000000e+00 0.0000000000000000e+00  0.0000000000000000e+00 0.0000000000000000e+00 0.0000000000000000e+00  0.0000000000000000e+00 0.0000000000000000e+00 0.0000000000000000e+00  0.0000000000000000e+00 0.0000000000000000e+00 0.0000000000000000e+00  0.0000000000000000e+00 0.0000000000000000e+00 0.0000000000000000e+00  0.0000000000000000e+00 0.0000000000000000e+00 0.0000000000000000e+00  0.0000000000000000e+00 0.0000000000000000e+00 0.0000000000000000e+00  0.0000000000000000e+00 0.0000000000000000e+00 0.0000000000000000e+00  0.0000000000000000e+00 0.0000000000000000e+00 0.0000000000000000e+00  1.7261740281542260e-13 0.0000000000000000e+00 0.0000000000000000e+00  0.0000000000000000e+00 0.0000000000000000e+00 0.0000000000000000e+00  0.0000000000000000e+00 0.0000000000000000e+00 0.0000000000000000e+00  0.0000000000000000e+00 0.0000000000000000e+00 0.0000000000000000e+00  0.0000000000000000e+00 0.0000000000000000e+00 0.0000000000000000e+00  0.0000000000000000e+00 0.0000000000000000e+00 0.0000000000000000e+00  9.5390192333969150e-14 4.3043470503762819e-18 0.0000000000000000e+00  0.0000000000000000e+00 0.0000000000000000e+00 0.0000000000000000e+00  0.0000000000000000e+00 0.0000000000000000e+00 0.0000000000000000e+00  0.0000000000000000e+00 0.0000000000000000e+00 0.0000000000000000e+00  0.0000000000000000e+00 0.0000000000000000e+00 0.0000000000000000e+00  0.0000000000000000e+00 0.0000000000000000e+00 0.0000000000000000e+00  0.0000000000000000e+00 0.0000000000000000e+00 0.0000000000000000e+00  0.0000000000000000e+00 0.0000000000000000e+00 0.0000000000000000e+00  0.0000000000000000e+00 0.0000000000000000e+00 0.0000000000000000e+00  0.0000000000000000e+00 0.0000000000000000e+00 0.0000000000000000e+00  0.0000000000000000e+00 0.0000000000000000e+00 0.0000000000000000e+00  3.2105098059607646e-13 1.5897016759247647e-13 0.0000000000000000e+00  0.0000000000000000e+00 0.0000000000000000e+00 0.0000000000000000e+00  0.0000000000000000e+00 0.0000000000000000e+00 0.0000000000000000e+00  0.0000000000000000e+00 0.0000000000000000e+00 0.0000000000000000e+00  0.0000000000000000e+00 0.0000000000000000e+00 0.0000000000000000e+00  -2.5760853965353142e-13 0.0000000000000000e+00 0.0000000000000000e+00  0.0000000000000000e+00 0.0000000000000000e+00 0.0000000000000000e+00  0.0000000000000000e+00 0.0000000000000000e+00 0.0000000000000000e+00  0.0000000000000000e+00 0.0000000000000000e+00 0.0000000000000000e+00  0.0000000000000000e+00 0.0000000000000000e+00 0.0000000000000000e+00  0.0000000000000000e+00 0.0000000000000000e+00 0.0000000000000000e+00  0.0000000000000000e+00 0.0000000000000000e+00 0.0000000000000000e+00  0.0000000000000000e+00 0.0000000000000000e+00 0.0000000000000000e+00  0.0000000000000000e+00 0.0000000000000000e+00 0.0000000000000000e+00  0.0000000000000000e+00 0.0000000000000000e+00 0.0000000000000000e+00  0.0000000000000000e+00 0.0000000000000000e+00 0.0000000000000000e+00  0.0000000000000000e+00 0.0000000000000000e+00 0.0000000000000000e+00  0.0000000000000000e+00 0.0000000000000000e+00 0.0000000000000000e+00  0.0000000000000000e+00 0.0000000000000000e+00 0.0000000000000000e+00  0.0000000000000000e+00 0.0000000000000000e+00 0.0000000000000000e+00  0.0000000000000000e+00 0.0000000000000000e+00 0.0000000000000000e+00  0.0000000000000000e+00 0.0000000000000000e+00 0.0000000000000000e+00  0.0000000000000000e+00 0.0000000000000000e+00 0.0000000000000000e+00  0.0000000000000000e+00 0.0000000000000000e+00 0.0000000000000000e+00  0.0000000000000000e+00 0.0000000000000000e+00 0.0000000000000000e+00  0.0000000000000000e+00 0.0000000000000000e+00 0.0000000000000000e+00  0.0000000000000000e+00 0.0000000000000000e+00 0.0000000000000000e+00  0.0000000000000000e+00 0.0000000000000000e+00 0.0000000000000000e+00  0.0000000000000000e+00 0.0000000000000000e+00 0.0000000000000000e+00  0.0000000000000000e+00 0.0000000000000000e+00 0.0000000000000000e+00  0.0000000000000000e+00 0.0000000000000000e+00 0.0000000000000000e+00  0.0000000000000000e+00 0.0000000000000000e+00 0.0000000000000000e+00  0.0000000000000000e+00 0.0000000000000000e+00 0.0000000000000000e+00  0.0000000000000000e+00 0.0000000000000000e+00 0.0000000000000000e+00  0.0000000000000000e+00 0.0000000000000000e+00 0.0000000000000000e+00  0.0000000000000000e+00 0.0000000000000000e+00 0.0000000000000000e+00  0.0000000000000000e+00 0.0000000000000000e+00 0.0000000000000000e+00  1.6504460263439946e-12 6.6006937158721312e-13 0.0000000000000000e+00  1.0198879517181452e-06 -1.0143882428220543e-06 0.0000000000000000e+00  2.2040646808781965e-06 -1.4033340986583449e-06 0.0000000000000000e+00  3.4574746594033596e-06 -2.0832408105422115e-06 0.0000000000000000e+00  4.8332528123988292e-06 -3.0993452331580430e-06 0.0000000000000000e+00  6.1797771064854916e-06 -4.4936206008440063e-06 0.0000000000000000e+00  7.6549727440134786e-06 -6.3069627036463038e-06 0.0000000000000000e+00  9.0444235742027377e-06 -8.4648793227457941e-06 0.0000000000000000e+00  1.0458954306311459e-05 -1.1100304457608591e-05 0.0000000000000000e+00  1.1994255473832972e-05 -1.4121949864959878e-05 0.0000000000000000e+00  1.3397402822550534e-05 -1.7572671465698460e-05 0.0000000000000000e+00  1.4952353890504287e-05 -2.1460426970115342e-05 0.0000000000000000e+00  1.6350345782139122e-05 -2.5778014053315341e-05 0.0000000000000000e+00  1.7869494669648533e-05 -3.0524431667612734e-05 0.0000000000000000e+00  1.9257094099916995e-05 -3.5631936732057771e-05 0.0000000000000000e+00  2.0633541183899296e-05 -4.1200972056782267e-05 0.0000000000000000e+00  2.2088739734705486e-05 -4.7130061518815545e-05 0.0000000000000000e+00  2.3387725635937193e-05 -5.3434536333899314e-05 0.0000000000000000e+00  2.4781111964910141e-05 -6.0125245862510748e-05 0.0000000000000000e+00  2.6010587006327725e-05 -6.7153516565853663e-05 0.0000000000000000e+00  2.7311102677584523e-05 -7.4523680128286241e-05 0.0000000000000000e+00  2.8483114157415730e-05 -8.2207946493046747e-05 0.0000000000000000e+00  2.9679920287756193e-05 -9.0215081657029109e-05 0.0000000000000000e+00  3.0762076018383531e-05 -9.8456734996389252e-05 0.0000000000000000e+00  3.1802919990458385e-05 -1.0700182671435838e-04 0.0000000000000000e+00  3.2859265179727459e-05 -1.1575891788027061e-04 0.0000000000000000e+00  3.3815730257432562e-05 -1.2474939462631986e-04 0.0000000000000000e+00  3.4741554006109575e-05 -1.3396723798912851e-04 0.0000000000000000e+00  3.5598503275888927e-05 -1.4334550865070466e-04 0.0000000000000000e+00  3.6421162049004616e-05 -1.5292194880843412e-04 0.0000000000000000e+00  3.7178960301745480e-05 -1.6262373727923349e-04 0.0000000000000000e+00  3.7900661236876736e-05 -1.7248980375597322e-04 0.0000000000000000e+00  3.8561448754708441e-05 -1.8244883025217380e-04 0.0000000000000000e+00  3.9185256371440453e-05 -1.9254126787556061e-04 0.0000000000000000e+00  3.9752937528325211e-05 -2.0269800188064756e-04 0.0000000000000000e+00  4.0282009022488003e-05 -2.1296159969366060e-04 0.0000000000000000e+00  4.0760457740829876e-05 -2.2326589413198617e-04 0.0000000000000000e+00  4.1201533146324100e-05 -2.3365251042869119e-04 0.0000000000000000e+00  4.1596266996128765e-05 -2.4406102805375927e-04 0.0000000000000000e+00  4.1953838413951427e-05 -2.5453240523673384e-04 0.0000000000000000e+00  4.2267577897578140e-05 -2.6500975599467319e-04 0.0000000000000000e+00  4.2541388238977952e-05 -2.7552861028817761e-04 0.0000000000000000e+00  4.2780749904358676e-05 -2.8605413791146387e-04 0.0000000000000000e+00  4.2981562210701104e-05 -2.9659886059985204e-04 0.0000000000000000e+00  4.3162259231390935e-05 -3.0715075020996626e-04 0.0000000000000000e+00  4.3301160706831961e-05 -3.1769840567339591e-04 0.0000000000000000e+00  4.3441499178349236e-05 -3.2828739049583957e-04 0.0000000000000000e+00  3.6285644744688556e-05 -3.3885988075954370e-04 0.0000000000000000e+00  2.2085451100009292e-05 -3.3852687702989371e-04 0.0000000000000000e+00  1.5033372278570115e-05 -3.2787871346476609e-04 0.0000000000000000e+00  1.4920673562406423e-05 -3.1725234019422074e-04 0.0000000000000000e+00  1.4805865728409518e-05 -3.0661059082519819e-04 0.0000000000000000e+00  1.4661800098489953e-05 -2.9599236790072076e-04 0.0000000000000000e+00  1.4498106440157509e-05 -2.8538357440059052e-04 0.0000000000000000e+00  1.4304536363326167e-05 -2.7479172869495039e-04 0.0000000000000000e+00  1.4097719833376163e-05 -2.6422262511490861e-04 0.0000000000000000e+00  1.3855667968995402e-05 -2.5366540306830506e-04 0.0000000000000000e+00  1.3604349982157820e-05 -2.4315787074427435e-04 0.0000000000000000e+00  1.3319510464929433e-05 -2.3266953056310329e-04 0.0000000000000000e+00  1.3034718159585026e-05 -2.2224701362825856e-04 0.0000000000000000e+00  1.2713603110224448e-05 -2.1186287099192650e-04 0.0000000000000000e+00  1.2402394073158082e-05 -2.0156430132321976e-04 0.0000000000000000e+00  1.2050504164797246e-05 -1.9132853144640638e-04 0.0000000000000000e+00  1.1720588298937442e-05 -1.8120199659639268e-04 0.0000000000000000e+00  1.1343353873494799e-05 -1.7116584200010951e-04 0.0000000000000000e+00  1.1000832480087359e-05 -1.6126679812061433e-04 0.0000000000000000e+00  1.0603648734501721e-05 -1.5148988544028626e-04 0.0000000000000000e+00  1.0255095393685233e-05 -1.4188181173335469e-04 0.0000000000000000e+00  9.8432893354021156e-06 -1.3243142831899241e-04 0.0000000000000000e+00  9.4963852665173211e-06 -1.2318533974164055e-04 0.0000000000000000e+00  9.0763650675656203e-06 -1.1413659836528272e-04 0.0000000000000000e+00  8.7261370385336978e-06 -1.0532796727922050e-04 0.0000000000000000e+00  8.3164664422878294e-06 -9.6740538963726051e-05 0.0000000000000000e+00  7.9012560248294339e-06 -8.8461805757690759e-05 0.0000000000000000e+00  7.5578805280026290e-06 -8.0412239674046318e-05 0.0000000000000000e+00  7.1629097083762602e-06 -7.2693553508265945e-05 0.0000000000000000e+00  6.8091759404602332e-06 -6.5290263286192944e-05 0.0000000000000000e+00  6.4223288101973320e-06 -5.8228243467510650e-05 0.0000000000000000e+00  6.0737567856156342e-06 -5.1523542093313023e-05 0.0000000000000000e+00  5.6939381200612456e-06 -4.5175227381160179e-05 0.0000000000000000e+00  5.3896028120313839e-06 -3.9257769679330524e-05 0.0000000000000000e+00  4.9975602462919539e-06 -3.3670800831450004e-05 0.0000000000000000e+00  4.6040074064906924e-06 -2.8560531358212565e-05 0.0000000000000000e+00  4.3080929687232139e-06 -2.3786295610879527e-05 0.0000000000000000e+00  3.9507252851797635e-06 -1.9482966895220868e-05 0.0000000000000000e+00  3.6354758555288661e-06 -1.5602335761503867e-05 0.0000000000000000e+00  3.2775157800999266e-06 -1.2142863861687772e-05 0.0000000000000000e+00  2.9922398114180379e-06 -9.1615000890893892e-06 0.0000000000000000e+00  2.6059551819111568e-06 -6.5363115902299672e-06 0.0000000000000000e+00  2.2074731314972825e-06 -4.3993253559197119e-06 0.0000000000000000e+00  1.8951656320432079e-06 -2.5974872681758683e-06 0.0000000000000000e+00  1.4948322380520219e-06 -1.2152107469109075e-06 0.0000000000000000e+00  1.1470495096472462e-06 -2.2203676395820026e-07 0.0000000000000000e+00  7.2642190400647661e-07 4.1017101626475101e-07 0.0000000000000000e+00  3.8296220122770551e-07 6.6299801824508216e-07 0.0000000000000000e+00  9.8163690104415602e-07 -1.1878202411917119e-07 0.0000000000000000e+00  2.9238716635360558e-05 -3.2274960521499075e-04 0.0000000000000000e+00  2.9163442771601137e-05 -3.0249899295823929e-04 0.0000000000000000e+00  2.8410987177614488e-05 -2.6949666344254259e-04 0.0000000000000000e+00  2.7254188328433182e-06 -1.3764684402517815e-06 0.0000000000000000e+00  2.7704231703999077e-05 -2.4882528963109698e-04 0.0000000000000000e+00  4.3826785060786895e-06 -3.9753345922548485e-06 0.0000000000000000e+00  2.7031461221193920e-05 -2.2791651140619437e-04 0.0000000000000000e+00  7.1493562673613853e-06 -1.1410086609002677e-05 0.0000000000000000e+00  8.9717761056256967e-06 -1.8203743664115865e-05 0.0000000000000000e+00  2.6240525128810898e-05 -2.0721292004215457e-04 0.0000000000000000e+00  1.3354644965860621e-05 -4.3122885478355866e-05 0.0000000000000000e+00  2.4309998183322040e-05 -1.6678462121840390e-04 0.0000000000000000e+00  1.0618421754326649e-05 -2.6430942859590461e-05 0.0000000000000000e+00  1.5138712299064790e-05 -5.5550698803050441e-05 0.0000000000000000e+00  2.3174638129584962e-05 -1.4728248654658033e-04 0.0000000000000000e+00  2.5332801959931735e-05 -1.8680109107490782e-04 0.0000000000000000e+00  1.6793843229626088e-05 -6.9659631182200125e-05 0.0000000000000000e+00  2.1928789530324918e-05 -1.2842945508569864e-04 0.0000000000000000e+00  1.8175210614370004e-05 -8.4427294708825347e-05 0.0000000000000000e+00  2.0761410843220755e-05 -1.1074401601019233e-04 0.0000000000000000e+00  1.9431076240194138e-05 -9.6782264162117984e-05 0.0000000000000000e+00  1.2038428361998190e-05 -3.3996092447859058e-05 0.0000000000000000e+00  2.8572204232872317e-05 -2.8663521731312142e-04 0.0000000000000000e+00  5.7437158721775234e-06 -7.1120020369976947e-06 0.0000000000000000e+00  2.4243447975116761e-05 -3.1247000586430174e-04 0.0000000000000000e+00  1.4939036577260767e-06 -2.5787291343389321e-07 0.0000000000000000e+00  2.3322590814947195e-05 -2.3821727452898053e-04 0.0000000000000000e+00  2.3907864062325074e-05 -2.5921640307693548e-04 0.0000000000000000e+00  4.2632598955435633e-06 -2.9183603117148103e-06 0.0000000000000000e+00  9.4210349197044233e-06 -1.4857654312606914e-05 0.0000000000000000e+00  2.0956294196279057e-05 -1.7656027714449540e-04 0.0000000000000000e+00  2.2632989237419867e-05 -2.1738621915307004e-04 0.0000000000000000e+00  1.6744272117269565e-05 -4.9341938438607633e-05 0.0000000000000000e+00  1.9979097948470918e-05 -1.5677195762422741e-04 0.0000000000000000e+00  1.1539837603182730e-05 -2.2626795981012131e-05 0.0000000000000000e+00  1.8702537690639231e-05 -6.2737142195433697e-05 0.0000000000000000e+00  1.8915981738912869e-05 -1.3756409307631089e-04 0.0000000000000000e+00  2.1842558045936428e-05 -1.9680198234004798e-04 0.0000000000000000e+00  2.1219685512751640e-05 -7.7487038708602403e-05 0.0000000000000000e+00  1.7770091878725786e-05 -1.1907823346212733e-04 0.0000000000000000e+00  4.2969146035531193e-07 -1.9182816598557861e-07 0.0000000000000000e+00  2.9923476796211200e-07 2.1433049891780090e-07 0.0000000000000000e+00  3.2550585380862387e-05 -3.3114335463743129e-04 0.0000000000000000e+00  2.2333745257024164e-06 -9.9028986654399394e-07 0.0000000000000000e+00  1.59114