<?xml version="1.0"?>
<VTKFile type="UnstructuredGrid"  version="0.1"  >
<UnstructuredGrid>
<Piece  NumberOfPoints="1419" NumberOfCells="2698">
<Points>
<DataArray  type="Float64"  NumberOfComponents="3"  format="ascii">0 0 0  0 0.41 0  2.5 0 0  2.5 0.41 0  0.6 0.19 0  0.6 0.21 0  0.25 0.2 0  0.15 0.2 0  0.2489897948556636 0.21 0  0.2489897948556636 0.19 0  0.6 0.2 0  0 0.3807142857143437 0  0 0.3514285714286952 0  0 0.3221428571430699 0  0 0.29285714285744 0  0 0.2635714285718054 0  0 0.2342857142861561 0  0 0.2050000000005308 0  0 0.175714285714732 0  0 0.1464285714289574 0  0 0.1171428571431897 0  0 0.08785714285737878 0  0 0.05857142857161107 0  0 0.02928571428580012 0  0.03015443760436003 0 0  0.06140001986583606 0 0  0.09377624077125973 0 0  0.1273239957535082 0 0  0.1620856860351972 0 0  0.1981052433264291 0 0  0.235428184091502 0 0  0.2741016576309132 0 0  0.3141745521465447 0 0  0.3556974926295285 0 0  0.3987229542472677 0 0  0.4433053055141081 0 0  0.4895008759286886 0 0  0.5373680609405097 0 0  0.5869673343216626 0 0  0.6383613676634521 0 0  0.6916151138468254 0 0  0.7467958595648856 0 0  0.8039733463919316 0 0  0.8632198139502143 0 0  0.9246101326867038 0 0  0.9882218810934433 0 0  1.054135445558498 0 0  1.122434100542598 0 0  1.193204177141305 0 0  1.266535089879536 0 0  1.342519516046404 0 0  1.421253448503939 0 0  1.502836389106271 0 0  1.587371439758838 0 0  1.674965418777374 0 0  1.765729001825544 0 0  1.859776908880082 0 0  1.957227977487062 0 0  2.058205329869943 0 0  2.162836591189951 0 0  2.271253957290865 0 0  2.383594446803425 0 0  2.5 0.1024999999997612 0  2.5 0.2049999999994743 0  2.5 0.3074999999997183 0  2.383594446803656 0.41 0  2.271253957291315 0.41 0  2.162836591190598 0.41 0  2.058205329870775 0.41 0  1.957227977488067 0.41 0  1.859776908881246 0.41 0  1.765729001826854 0.41 0  1.674965418778818 0.41 0  1.58737143976041 0.41 0  1.502836389107956 0.41 0  1.421253448505726 0.41 0  1.342519516048286 0.41 0  1.266535089881505 0.41 0  1.193204177143353 0.41 0  1.122434100544716 0.41 0  1.05413544556068 0.41 0  0.9882218810956305 0.41 0  0.9246101326886647 0.41 0  0.8632198139519631 0.41 0  0.8039733463934788 0.41 0  0.7467958595662458 0.41 0  0.6916151138480078 0.41 0  0.6383613676644679 0.41 0  0.5869673343225223 0.41 0  0.5373680609412221 0.41 0  0.4895008759292634 0.41 0  0.4433053055145528 0.41 0  0.3987229542475914 0.41 0  0.3556974926297398 0.41 0  0.3141745521466497 0.41 0  0.2741016576310038 0.41 0  0.2354281840915826 0.41 0  0.1981052433265003 0.41 0  0.1620856860352591 0.41 0  0.1273239957535623 0.41 0  0.09377624077128965 0.41 0  0.06140001986584975 0.41 0  0.03015443760436654 0.41 0  0.2497468076502589 0.2050254481002335 0  0.2497468076502614 0.1949745518997913 0  0.2469965252529372 0.1829317073451959 0  0.2439893735792749 0.1762316384219906 0  0.2400332147834255 0.1700443375285386 0  0.2352133972704371 0.1645032867342007 0  0.2296339016332438 0.1597280261969788 0  0.2234150974217223 0.1558215752574715 0  0.2166911463437691 0.1528682099456123 0  0.2096071079204251 0.1509316448471593 0  0.2023158100364996 0.1500536585536553 0  0.194974551899914 0.1502531923497262 0  0.1877417105387872 0.1515259415822739 0  0.1807733240461124 0.153844448527136 0  0.1742197252835808 0.15715869474974 0  0.1682222986673531 0.1613971801805478 0  0.162910430003803 0.1664684656256651 0  0.1583987151779087 0.1722631454351573 0  0.1547844879126891 0.178656207771761 0  0.1521457199348551 0.1855097315605723 0  0.1505393388476355 0.1926758619366523 0  0.1505393388476328 0.2073241380633295 0  0.1521457199348437 0.2144902684393899 0  0.1547844879126531 0.221343792228163 0  0.1583987151778488 0.2277368545647528 0  0.1629104300036858 0.2335315343742052 0  0.1682222986671726 0.2386028198193036 0  0.1742197252833576 0.2428413052501257 0  0.1807733240458683 0.2461555514727623 0  0.1877417105384929 0.2484740584176516 0  0.1949745518995776 0.2497468076502398 0  0.202315810036185 0.2499463414463592 0  0.2096071079201568 0.2490683551528932 0  0.2166911463435495 0.2471317900544655 0  0.2234150974215506 0.2441784247426195 0  0.2296339016331197 0.2402719738031125 0  0.2352133972703547 0.2354967132658811 0  0.2400332147833751 0.2299556624715287 0  0.2439893735792577 0.2237683615780412 0  0.246996525252926 0.2170682926548348 0  0.25645809709277 0.21 0  0.2639263993298655 0.21 0  0.271394701566961 0.21 0  0.2788630038040554 0.21 0  0.2863313060411479 0.21 0  0.2937996082782405 0.21 0  0.301267910515333 0.21 0  0.3087362127524279 0.21 0  0.3162045149895234 0.21 0  0.3236728172265972 0.21 0  0.3311411194636928 0.21 0  0.3386094217007701 0.21 0  0.3460777239378666 0.21 0  0.3535460261749672 0.21 0  0.3610143284120516 0.21 0  0.3684826306491596 0.21 0  0.3759509328862226 0.21 0  0.383419235123329 0.21 0  0.3908875373604028 0.21 0  0.3983558395975142 0.21 0  0.4058241418345938 0.21 0  0.4132924440716992 0.21 0  0.4207607463087888 0.21 0  0.4282290485459029 0.21 0  0.4356973507830418 0.21 0  0.4431656530201649 0.21 0  0.4506339552573136 0.21 0  0.4581022574944306 0.21 0  0.4655705597315852 0.21 0  0.4730388619686996 0.21 0  0.480507164205851 0.21 0  0.4879754664429498 0.21 0  0.4954437686800938 0.21 0  0.502912070917267 0.21 0  0.5103803731544119 0.21 0  0.5178486753915261 0.21 0  0.5253169776286404 0.21 0  0.5327852798657868 0.21 0  0.5402535821029386 0.21 0  0.54772188434007 0.21 0  0.5551901865771842 0.21 0  0.5626584888143201 0.21 0  0.5701267910514778 0.21 0  0.5775950932886138 0.21 0  0.5850633955257281 0.21 0  0.5925316977628483 0.21 0  0.6 0.2050000000000054 0  0.6 0.1950000000000217 0  0.5925316977628897 0.19 0  0.5850633955257988 0.19 0  0.5775950932887378 0.19 0  0.5701267910515998 0.19 0  0.5626584888145268 0.19 0  0.5551901865773963 0.19 0  0.547721884340339 0.19 0  0.5402535821032429 0.19 0  0.5327852798661811 0.19 0  0.5253169776290537 0.19 0  0.5178486753919799 0.19 0  0.5103803731549078 0.19 0  0.502912070917822 0.19 0  0.4954437686807294 0.19 0  0.4879754664436223 0.19 0  0.4805071642065402 0.19 0  0.4730388619694271 0.19 0  0.4655705597323621 0.19 0  0.4581022574952563 0.19 0  0.4506339552581777 0.19 0  0.4431656530210671 0.19 0  0.4356973507839815 0.19 0  0.4282290485468779 0.19 0  0.4207607463097617 0.19 0  0.4132924440726327 0.19 0  0.4058241418354857 0.19 0  0.3983558395983636 0.19 0  0.3908875373612097 0.19 0  0.3834192351240934 0.19 0  0.3759509328869369 0.19 0  0.3684826306498175 0.19 0  0.361014328412667 0.19 0  0.3535460261755617 0.19 0  0.3460777239384295 0.19 0  0.3386094217012945 0.19 0  0.3311411194641595 0.19 0  0.3236728172270245 0.19 0  0.3162045149898895 0.19 0  0.3087362127527544 0.19 0  0.3012679105156187 0.19 0  0.2937996082784807 0.19 0  0.2863313060413428 0.19 0  0.2788630038042048 0.19 0  0.2713947015670686 0.19 0  0.2639263993299336 0.19 0  0.2564580970927985 0.19 0  0.2607803159922026 0.2000727136295815 0  0.5887803774232762 0.2001272386983733 0  0.5745072403740523 0.2002044435018727 0  0.5511891430099709 0.2001122610077113 0  0.2751288526855082 0.20000000000002 0  0.5365194309847112 0.1999999999999436 0  0.2894621222999649 0.1998691686390484 0  0.5215828265105155 0.1999999999999228 0  0.3127789816668748 0.1998657885438805 0  0.3274069683451451 0.2000000000000796 0  0.5066462220363641 0.199999999999908 0  0.3650630746574081 0.199866017807523 0  0.476773013087985 0.1999999999998713 0  0.3417402379596385 0.1998691686391011 0  0.3796850840047755 0.200000000000134 0  0.4618364086138087 0.1999999999998546 0  0.4917096175621762 0.1999999999998808 0  0.3946216884789568 0.2000000000001512 0  0.446899804139621 0.1999999999998389 0  0.4089549580935208 0.1998691686391595 0  0.4322718174608562 0.200127451265745 0  0.4201487168029707 0.1999966199048527 0  0.3528922713220932 0.2000185703532356 0  0.5633122436674589 0.1999814296467508 0  0.3006558810093873 0.1999966199048318 0  0.5815926498168407 0.1966545283159175 0  0.2677053789419034 0.1964246479135325 0  0.5290511287476175 0.1970915826863981 0  0.5439877332217911 0.197091582686394 0  0.2825131256993216 0.2035478995978015 0  0.3199386661080599 0.202908417313604 0  0.4842413153250809 0.1970915826863873 0  0.5141145242734466 0.1970915826863843 0  0.3722167817676917 0.2029084173136195 0  0.4693047108508938 0.1970915826863783 0  0.3348752705822316 0.202908417313609 0  0.3871533862418661 0.2029084173136212 0  0.4543681063767183 0.1970915826863795 0  0.4991779197992749 0.1970915826863902 0  0.4020059614928624 0.203547899597858 0  0.4394315019025246 0.1970915826863714 0  0.2550657455369551 0.2034088125358657 0  0.2548908499171161 0.1966940311614271 0  0.5946539510196798 0.2024302972968126 0  0.267698176732111 0.2039977513680092 0  0.4261685417851465 0.196409292431739 0  0.3590076176283495 0.196411355804271 0  0.5571672426447437 0.2036011176410121 0  0.3066757059912147 0.1964092924317024 0  0.594380730180568 0.1966558399668133 0  0.4842413153245942 0.2040749161535287 0  0.4693047108503577 0.2040749161535231 0  0.3871533862424271 0.1959250838464788 0  0.372246743208829 0.1959123236376545 0  0.5141145242731028 0.2040749161535395 0  0.4543681063761134 0.2040749161535186 0  0.4019979587101454 0.1959834479682427 0  0.4394608940728603 0.2040870543693135 0  0.5439623148931173 0.2040856076781014 0  0.5290511287473298 0.2040749161535501 0  0.4991779197988497 0.2040749161535382 0  0.3347912413592433 0.1959225448935183 0  0.3199680582793816 0.1959123018030061 0  0.2825051229162361 0.1959834479681729 0  0.3590471196690275 0.2036304442587945 0  0.5571594006495384 0.1963685282145804 0  0.3067669986803285 0.203627750582736 0  0.4262598344738712 0.2036568242185335 0  0.5814408164431408 0.2041285596160068 0  0.5688286748170428 0.1961819304477386 0  0.4145905603063645 0.2038180695522843 0  0.3473758401724931 0.2038180695522752 0  0.2950977245128307 0.2038180695522663 0  0.5688286748170693 0.203818069552238 0  0.2950977245127906 0.1961819304477774 0  0.3473758401723931 0.1961819304478349 0  0.4145905603061963 0.1961819304479011 0  0.2601812407614425 0.2056861609747042
[...]
<PointData  Vectors="f_46-2"> 
<DataArray  type="Float64"  Name="f_46-2"  NumberOfComponents="3" format="ascii">0.0000000000000000e+00 0.0000000000000000e+00 0.0000000000000000e+00  0.0000000000000000e+00 0.0000000000000000e+00 0.0000000000000000e+00  0.0000000000000000e+00 0.0000000000000000e+00 0.0000000000000000e+00  0.0000000000000000e+00 0.0000000000000000e+00 0.0000000000000000e+00  1.5162816863481768e-05 -3.3487555563857323e-04 0.0000000000000000e+00  4.3423272574396445e-05 -3.3556806403077023e-04 0.0000000000000000e+00  0.0000000000000000e+00 0.0000000000000000e+00 0.0000000000000000e+00  0.0000000000000000e+00 0.0000000000000000e+00 0.0000000000000000e+00  0.0000000000000000e+00 0.0000000000000000e+00 0.0000000000000000e+00  0.0000000000000000e+00 0.0000000000000000e+00 0.0000000000000000e+00  2.8996301318488662e-05 -3.3522138756891774e-04 0.0000000000000000e+00  0.0000000000000000e+00 0.0000000000000000e+00 0.0000000000000000e+00  0.0000000000000000e+00 0.0000000000000000e+00 0.0000000000000000e+00  0.0000000000000000e+00 0.0000000000000000e+00 0.0000000000000000e+00  0.0000000000000000e+00 0.0000000000000000e+00 0.0000000000000000e+00  0.0000000000000000e+00 0.0000000000000000e+00 0.0000000000000000e+00  0.0000000000000000e+00 0.0000000000000000e+00 0.0000000000000000e+00  0.0000000000000000e+00 0.0000000000000000e+00 0.0000000000000000e+00  0.0000000000000000e+00 0.0000000000000000e+00 0.0000000000000000e+00  0.0000000000000000e+00 0.0000000000000000e+00 0.0000000000000000e+00  0.0000000000000000e+00 0.0000000000000000e+00 0.0000000000000000e+00  0.0000000000000000e+00 0.0000000000000000e+00 0.0000000000000000e+00  0.0000000000000000e+00 0.0000000000000000e+00 0.0000000000000000e+00  0.0000000000000000e+00 0.0000000000000000e+00 0.0000000000000000e+00  0.0000000000000000e+00 0.0000000000000000e+00 0.0000000000000000e+00  0.0000000000000000e+00 0.0000000000000000e+00 0.0000000000000000e+00  0.0000000000000000e+00 0.0000000000000000e+00 0.0000000000000000e+00  0.0000000000000000e+00 0.0000000000000000e+00 0.0000000000000000e+00  0.0000000000000000e+00 0.0000000000000000e+00 0.0000000000000000e+00  0.0000000000000000e+00 0.0000000000000000e+00 0.0000000000000000e+00  0.0000000000000000e+00 0.0000000000000000e+00 0.0000000000000000e+00  0.0000000000000000e+00 0.0000000000000000e+00 0.0000000000000000e+00  0.0000000000000000e+00 0.0000000000000000e+00 0.0000000000000000e+00  0.0000000000000000e+00 0.0000000000000000e+00 0.0000000000000000e+00  0.0000000000000000e+00 0.0000000000000000e+00 0.0000000000000000e+00  -4.2147223397431985e-13 -6.0528778528032046e-18 0.0000000000000000e+00  0.0000000000000000e+00 0.0000000000000000e+00 0.0000000000000000e+00  0.0000000000000000e+00 0.0000000000000000e+00 0.0000000000000000e+00  0.0000000000000000e+00 0.0000000000000000e+00 0.0000000000000000e+00  0.0000000000000000e+00 0.0000000000000000e+00 0.0000000000000000e+00  0.0000000000000000e+00 0.0000000000000000e+00 0.0000000000000000e+00  0.0000000000000000e+00 0.0000000000000000e+00 0.0000000000000000e+00  0.0000000000000000e+00 0.0000000000000000e+00 0.0000000000000000e+00  0.0000000000000000e+00 0.0000000000000000e+00 0.0000000000000000e+00  0.0000000000000000e+00 0.0000000000000000e+00 0.0000000000000000e+00  0.0000000000000000e+00 0.0000000000000000e+00 0.0000000000000000e+00  0.0000000000000000e+00 0.0000000000000000e+00 0.0000000000000000e+00  0.0000000000000000e+00 0.0000000000000000e+00 0.0000000000000000e+00  0.0000000000000000e+00 0.0000000000000000e+00 0.0000000000000000e+00  0.0000000000000000e+00 0.0000000000000000e+00 0.0000000000000000e+00  0.0000000000000000e+00 0.0000000000000000e+00 0.0000000000000000e+00  0.0000000000000000e+00 0.0000000000000000e+00 0.0000000000000000e+00  0.0000000000000000e+00 0.0000000000000000e+00 0.0000000000000000e+00  0.0000000000000000e+00 0.0000000000000000e+00 0.0000000000000000e+00  0.0000000000000000e+00 0.0000000000000000e+00 0.0000000000000000e+00  0.0000000000000000e+00 0.0000000000000000e+00 0.0000000000000000e+00  0.0000000000000000e+00 0.0000000000000000e+00 0.0000000000000000e+00  0.0000000000000000e+00 0.0000000000000000e+00 0.0000000000000000e+00  0.0000000000000000e+00 0.0000000000000000e+00 0.0000000000000000e+00  0.0000000000000000e+00 0.0000000000000000e+00 0.0000000000000000e+00  0.0000000000000000e+00 0.0000000000000000e+00 0.0000000000000000e+00  0.0000000000000000e+00 0.0000000000000000e+00 0.0000000000000000e+00  0.0000000000000000e+00 0.0000000000000000e+00 0.0000000000000000e+00  0.0000000000000000e+00 0.0000000000000000e+00 0.0000000000000000e+00  0.0000000000000000e+00 0.0000000000000000e+00 0.0000000000000000e+00  0.0000000000000000e+00 0.0000000000000000e+00 0.0000000000000000e+00  0.0000000000000000e+00 0.0000000000000000e+00 0.0000000000000000e+00  0.0000000000000000e+00 0.0000000000000000e+00 0.0000000000000000e+00  0.0000000000000000e+00 0.0000000000000000e+00 0.0000000000000000e+00  0.0000000000000000e+00 0.0000000000000000e+00 0.0000000000000000e+00  0.0000000000000000e+00 0.0000000000000000e+00 0.0000000000000000e+00  0.0000000000000000e+00 0.0000000000000000e+00 0.0000000000000000e+00  0.0000000000000000e+00 0.0000000000000000e+00 0.0000000000000000e+00  0.0000000000000000e+00 0.0000000000000000e+00 0.0000000000000000e+00  0.0000000000000000e+00 0.0000000000000000e+00 0.0000000000000000e+00  0.0000000000000000e+00 0.0000000000000000e+00 0.0000000000000000e+00  0.0000000000000000e+00 0.0000000000000000e+00 0.0000000000000000e+00  0.0000000000000000e+00 0.0000000000000000e+00 0.0000000000000000e+00  0.0000000000000000e+00 0.0000000000000000e+00 0.0000000000000000e+00  0.0000000000000000e+00 0.0000000000000000e+00 0.0000000000000000e+00  0.0000000000000000e+00 0.0000000000000000e+00 0.0000000000000000e+00  0.0000000000000000e+00 0.0000000000000000e+00 0.0000000000000000e+00  0.0000000000000000e+00 0.0000000000000000e+00 0.0000000000000000e+00  0.0000000000000000e+00 0.0000000000000000e+00 0.0000000000000000e+00  0.0000000000000000e+00 0.0000000000000000e+00 0.0000000000000000e+00  0.0000000000000000e+00 0.0000000000000000e+00 0.0000000000000000e+00  0.0000000000000000e+00 0.0000000000000000e+00 0.0000000000000000e+00  0.0000000000000000e+00 0.0000000000000000e+00 0.0000000000000000e+00  2.4474436636415628e-13 0.0000000000000000e+00 0.0000000000000000e+00  0.0000000000000000e+00 0.0000000000000000e+00 0.0000000000000000e+00  0.0000000000000000e+00 0.0000000000000000e+00 0.0000000000000000e+00  0.0000000000000000e+00 0.0000000000000000e+00 0.0000000000000000e+00  0.0000000000000000e+00 0.0000000000000000e+00 0.0000000000000000e+00  0.0000000000000000e+00 0.0000000000000000e+00 0.0000000000000000e+00  -2.0671006120196966e-13 -5.4486368663689904e-18 0.0000000000000000e+00  0.0000000000000000e+00 0.0000000000000000e+00 0.0000000000000000e+00  0.0000000000000000e+00 0.0000000000000000e+00 0.0000000000000000e+00  0.0000000000000000e+00 0.0000000000000000e+00 0.0000000000000000e+00  0.0000000000000000e+00 0.0000000000000000e+00 0.0000000000000000e+00  0.0000000000000000e+00 0.0000000000000000e+00 0.0000000000000000e+00  0.0000000000000000e+00 0.0000000000000000e+00 0.0000000000000000e+00  0.0000000000000000e+00 0.0000000000000000e+00 0.0000000000000000e+00  0.0000000000000000e+00 0.0000000000000000e+00 0.0000000000000000e+00  0.0000000000000000e+00 0.0000000000000000e+00 0.0000000000000000e+00  0.0000000000000000e+00 0.0000000000000000e+00 0.0000000000000000e+00  1.8787027983378520e-13 1.2294820460185951e-13 0.0000000000000000e+00  0.0000000000000000e+00 0.0000000000000000e+00 0.0000000000000000e+00  0.0000000000000000e+00 0.0000000000000000e+00 0.0000000000000000e+00  0.0000000000000000e+00 0.0000000000000000e+00 0.0000000000000000e+00  0.0000000000000000e+00 0.0000000000000000e+00 0.0000000000000000e+00  -1.1242317813656960e-13 0.0000000000000000e+00 0.0000000000000000e+00  0.0000000000000000e+00 0.0000000000000000e+00 0.0000000000000000e+00  0.0000000000000000e+00 0.0000000000000000e+00 0.0000000000000000e+00  0.0000000000000000e+00 0.0000000000000000e+00 0.0000000000000000e+00  0.0000000000000000e+00 0.0000000000000000e+00 0.0000000000000000e+00  0.0000000000000000e+00 0.0000000000000000e+00 0.0000000000000000e+00  0.0000000000000000e+00 0.0000000000000000e+00 0.0000000000000000e+00  0.0000000000000000e+00 0.0000000000000000e+00 0.0000000000000000e+00  0.0000000000000000e+00 0.0000000000000000e+00 0.0000000000000000e+00  0.0000000000000000e+00 0.0000000000000000e+00 0.0000000000000000e+00  0.0000000000000000e+00 0.0000000000000000e+00 0.0000000000000000e+00  0.0000000000000000e+00 0.0000000000000000e+00 0.0000000000000000e+00  0.0000000000000000e+00 0.0000000000000000e+00 0.0000000000000000e+00  0.0000000000000000e+00 0.0000000000000000e+00 0.0000000000000000e+00  0.0000000000000000e+00 0.0000000000000000e+00 0.0000000000000000e+00  0.0000000000000000e+00 0.0000000000000000e+00 0.0000000000000000e+00  0.0000000000000000e+00 0.0000000000000000e+00 0.0000000000000000e+00  0.0000000000000000e+00 0.0000000000000000e+00 0.0000000000000000e+00  0.0000000000000000e+00 0.0000000000000000e+00 0.0000000000000000e+00  0.0000000000000000e+00 0.0000000000000000e+00 0.0000000000000000e+00  0.0000000000000000e+00 0.0000000000000000e+00 0.0000000000000000e+00  0.0000000000000000e+00 0.0000000000000000e+00 0.0000000000000000e+00  0.0000000000000000e+00 0.0000000000000000e+00 0.0000000000000000e+00  0.0000000000000000e+00 0.0000000000000000e+00 0.0000000000000000e+00  0.0000000000000000e+00 0.0000000000000000e+00 0.0000000000000000e+00  0.0000000000000000e+00 0.0000000000000000e+00 0.0000000000000000e+00  0.0000000000000000e+00 0.0000000000000000e+00 0.0000000000000000e+00  0.0000000000000000e+00 0.0000000000000000e+00 0.0000000000000000e+00  0.0000000000000000e+00 0.0000000000000000e+00 0.0000000000000000e+00  0.0000000000000000e+00 0.0000000000000000e+00 0.0000000000000000e+00  0.0000000000000000e+00 0.0000000000000000e+00 0.0000000000000000e+00  0.0000000000000000e+00 0.0000000000000000e+00 0.0000000000000000e+00  4.3680494254671090e-13 9.2758569930947767e-14 0.0000000000000000e+00  9.9732754718497828e-07 -9.9287244675452345e-07 0.0000000000000000e+00  2.1574142246621949e-06 -1.3587973436572089e-06 0.0000000000000000e+00  3.3896970265057472e-06 -2.0039481728033119e-06 0.0000000000000000e+00  4.7440667276425839e-06 -2.9730100340708758e-06 0.0000000000000000e+00  6.0726779790485631e-06 -4.3112511262251935e-06 0.0000000000000000e+00  7.5295155201569917e-06 -6.0590269096142056e-06 0.0000000000000000e+00  8.9038918330451552e-06 -8.1452416586838483e-06 0.0000000000000000e+00  1.0304537550182093e-05 -1.0701564136795036e-05 0.0000000000000000e+00  1.1825771719660360e-05 -1.3639181205359775e-05 0.0000000000000000e+00  1.3217784998673522e-05 -1.7001674223581803e-05 0.0000000000000000e+00  1.4761522460315201e-05 -2.0797316200915455e-05 0.0000000000000000e+00  1.6150585411289729e-05 -2.5020490627517757e-05 0.0000000000000000e+00  1.7661374976399814e-05 -2.9670434289280552e-05 0.0000000000000000e+00  1.9042045649977801e-05 -3.4680511732075978e-05 0.0000000000000000e+00  2.0412576954343151e-05 -4.0151472256912513e-05 0.0000000000000000e+00  2.1862726968576095e-05 -4.5982391413848613e-05 0.0000000000000000e+00  2.3157629642554948e-05 -5.2189431017962842e-05 0.0000000000000000e+00  2.4548060520065308e-05 -5.8783227693199089e-05 0.0000000000000000e+00  2.5775021955832368e-05 -6.5716246204573851e-05 0.0000000000000000e+00  2.7074179524894528e-05 -7.2992244726597543e-05 0.0000000000000000e+00  2.8245083832951375e-05 -8.0584527957584565e-05 0.0000000000000000e+00  2.9441902635958323e-05 -8.8501486257480013e-05 0.0000000000000000e+00  3.0523908166126955e-05 -9.6654724839212211e-05 0.0000000000000000e+00  3.1565084137962968e-05 -1.0511388033889893e-04 0.0000000000000000e+00  3.2622502902827699e-05 -1.1378674213922704e-04 0.0000000000000000e+00  3.3579985564815616e-05 -1.2269545356668495e-04 0.0000000000000000e+00  3.4507219073464834e-05 -1.3183341025431092e-04 0.0000000000000000e+00  3.5365513140999552e-05 -1.4113393710595056e-04 0.0000000000000000e+00  3.6189788144914324e-05 -1.5063447964975771e-04 0.0000000000000000e+00  3.6949016716113270e-05 -1.6026222154719651e-04 0.0000000000000000e+00  3.7672307838907253e-05 -1.7005591500325251e-04 0.0000000000000000e+00  3.8334450056801271e-05 -1.7994413533576522e-04 0.0000000000000000e+00  3.8959668287802502e-05 -1.8996719719830587e-04 0.0000000000000000e+00  3.9528531948582925e-05 -2.0005580522994553e-04 0.0000000000000000e+00  4.0058759849873047e-05 -2.1025242958762908e-04 0.0000000000000000e+00  4.0538119423384075e-05 -2.2049067997697265e-04 0.0000000000000000e+00  4.0980047303665770e-05 -2.3081213193949904e-04 0.0000000000000000e+00  4.1375419532325386e-05 -2.4115613489800137e-04 0.0000000000000000e+00  4.1733557705575740e-05 -2.5156361349289771e-04 0.0000000000000000e+00  4.2047689826812581e-05 -2.6197748036499376e-04 0.0000000000000000e+00  4.2321839047734615e-05 -2.7243327558467860e-04 0.0000000000000000e+00  4.2561395551453613e-05 -2.8289594548239558e-04 0.0000000000000000e+00  4.2762333973351695e-05 -2.9337803841294715e-04 0.0000000000000000e+00  4.2943140801588960e-05 -3.0386740368034662e-04 0.0000000000000000e+00  4.3082101417094624e-05 -3.1435263936285281e-04 0.0000000000000000e+00  4.3222422049389381e-05 -3.2487918869382893e-04 0.0000000000000000e+00  3.6108700848401958e-05 -3.3538940261242654e-04 0.0000000000000000e+00  2.1992122619923796e-05 -3.3505732095309335e-04 0.0000000000000000e+00  1.4981588404106488e-05 -3.2447178146014839e-04 0.0000000000000000e+00  1.4869008810182162e-05 -3.1390788442729728e-04 0.0000000000000000e+00  1.4754325236897137e-05 -3.0332867764546433e-04 0.0000000000000000e+00  1.4610523579334459e-05 -2.9277303901951757e-04 0.0000000000000000e+00  1.4447139317418185e-05 -2.8222692329418943e-04 0.0000000000000000e+00  1.4253999946241993e-05 -2.7169797208814739e-04 0.0000000000000000e+00  1.4047822011310178e-05 -2.6119198237467783e-04 0.0000000000000000e+00  1.3806445151609682e-05 -2.5069827541122826e-04 0.0000000000000000e+00  1.3556141902440106e-05 -2.4025466775694915e-04 0.0000000000000000e+00  1.3272289938296112e-05 -2.2983090592209026e-04 0.0000000000000000e+00  1.2988932892086812e-05 -2.1947360381209335e-04 0.0000000000000000e+00  1.2669185396326521e-05 -2.0915562199829856e-04 0.0000000000000000e+00  1.2359926962096481e-05 -1.9892411797904774e-04 0.0000000000000000e+00  1.2009862782522380e-05 -1.8875667311207014e-04 0.0000000000000000e+00  1.1682475373265014e-05 -1.7869965765292988e-04 0.0000000000000000e+00  1.1307573307212534e-05 -1.6873460364008361e-04 0.0000000000000000e+00  1.0968192206338077e-05 -1.5890813669913850e-04 0.0000000000000000e+00  1.0573898191239972e-05 -1.4920570608970452e-04 0.0000000000000000e+00  1.0229162270386528e-05 -1.3967381834793774e-04 0.0000000000000000e+00  9.8208551973928525e-06 -1.3030176460161183e-04 0.0000000000000000e+00  9.4784451533614717e-06 -1.2113590747768725e-04 0.0000000000000000e+00  9.0625499232217879e-06 -1.1216972965541178e-04 0.0000000000000000e+00  8.7174154415266183e-06 -1.0344574667329857e-04 0.0000000000000000e+00  8.3125359946851823e-06 -9.4945021901147203e-05 0.0000000000000000e+00  7.9023684651532268e-06 -8.6755416815905486e-05 0.0000000000000000e+00  7.5646258249581849e-06 -7.8796658913656800e-05 0.0000000000000000e+00  7.1751510033244998e-06 -7.1171005686967932e-05 0.0000000000000000e+00  6.8272036310989823e-06 -6.3862318195575255e-05 0.0000000000000000e+00  6.4460007522576911e-06 -5.6896564322700398e-05 0.0000000000000000e+00  6.1031127174775965e-06 -5.0289268547341068e-05 0.0000000000000000e+00  5.7287554291072904e-06 -4.4039277823921464e-05 0.0000000000000000e+00  5.4295876579589913e-06 -3.8220518836530986e-05 0.0000000000000000e+00  5.0423811323123044e-06 -3.2732201343133380e-05 0.0000000000000000e+00  4.6532200934374583e-06 -2.7719771950630832e-05 0.0000000000000000e+00  4.3608741721997896e-06 -2.3042470053528057e-05 0.0000000000000000e+00  4.0064715623054897e-06 -1.8833785855545626e-05 0.0000000000000000e+00  3.6930503031898452e-06 -1.5045379996332141e-05 0.0000000000000000e+00  3.3362278940621363e-06 -1.1674399740370666e-05 0.0000000000000000e+00  3.0498735208336103e-06 -8.7767166493548415e-06 0.0000000000000000e+00  2.6626353278219583e-06 -6.2305618967284712e-06 0.0000000000000000e+00  2.2619633070871395e-06 -4.1650660290492343e-06 0.0000000000000000e+00  1.9443465793451044e-06 -2.4287960452412535e-06 0.0000000000000000e+00  1.5384213691149871e-06 -1.1025393870070821e-06 0.0000000000000000e+00  1.1815087780288513e-06 -1.5573695124057742e-07 0.0000000000000000e+00  7.5205585893298364e-07 4.4199051550935979e-07 0.0000000000000000e+00  3.9551238776921190e-07 6.7262493680257003e-07 0.0000000000000000e+00  9.7443862453369033e-07 -1.0093635513201534e-07 0.0000000000000000e+00  2.9102483212487144e-05 -3.1937337336895925e-04 0.0000000000000000e+00  2.9026501221455121e-05 -2.9924211417014281e-04 0.0000000000000000e+00  2.8275121720370619e-05 -2.6643563270668249e-04 0.0000000000000000e+00  2.7058957824733122e-06 -1.2886730579697452e-06 0.0000000000000000e+00  2.7569655514736282e-05 -2.4588886097649549e-04 0.0000000000000000e+00  4.3520547521482981e-06 -3.7790700329692290e-06 0.0000000000000000e+00  2.6897323415609222e-05 -2.2510898913642271e-04 0.0000000000000000e+00  7.0991865695803612e-06 -1.0976955930213511e-05 0.0000000000000000e+00  8.9077669119296894e-06 -1.7596175532729521e-05 0.0000000000000000e+00  2.6106980069547390e-05 -2.0453738593863177e-04 0.0000000000000000e+00  1.3263535067596904e-05 -4.2026152781163291e-05 0.0000000000000000e+00  2.4178491245716026e-05 -1.6438703050647858e-04 0.0000000000000000e+00  1.0544384330348509e-05 -2.5641223839626336e-05 0.0000000000000000e+00  1.5036683534845595e-05 -5.4261718382625164e-05 0.0000000000000000e+00  2.3044859303593872e-05 -1.4503323153431831e-04 0.0000000000000000e+00  2.5200093876675282e-05 -1.8426179450842860e-04 0.0000000000000000e+00  1.6683784842343221e-05 -6.8178653411808015e-05 0.0000000000000000e+00  2.1801460412193495e-05 -1.2633617154296172e-04 0.0000000000000000e+00  1.8060349119942167e-05 -8.2768395564683796e-05 0.0000000000000000e+00  2.0635924408192610e-05 -1.0881154864907596e-04 0.0000000000000000e+00  1.9310778188307308e-05 -9.4989731130963275e-05 0.0000000000000000e+00  1.1954072363603966e-05 -3.3060073154335839e-05 0.0000000000000000e+00  2.8437265137815924e-05 -2.8347220068195180e-04 0.0000000000000000e+00  5.7025364196403892e-06 -6.8087010081220862e-06 0.0000000000000000e+00  2.4136229453812586e-05 -3.0915409702099347e-04 0.0000000000000000e+00  1.4962922158163608e-06 -2.1270765040602511e-07 0.0000000000000000e+00  2.3213455514711558e-05 -2.3534529462108759e-04 0.0000000000000000e+00  2.3797920533027791e-05 -2.5621663380790696e-04 0.0000000000000000e+00  4.2122220725370287e-06 -2.7753974213268116e-06 0.0000000000000000e+00  9.3295555760066342e-06 -1.4338565673288530e-05 0.0000000000000000e+00  2.0851883780346283e-05 -1.7409157501392840e-04 0.0000000000000000e+00  2.2524980254128526e-05 -2.1464459304231176e-04 0.0000000000000000e+00  1.6608993773866835e-05 -4.8149176732655646e-05 0.0000000000000000e+00  1.9877394544752303e-05 -1.5444824693203958e-04 0.0000000000000000e+00  1.1433508371019615e-05 -2.1923062938484482e-05 0.0000000000000000e+00  1.8559232548517775e-05 -6.1350116562692577e-05 0.0000000000000000e+00  1.8817795279753699e-05 -1.3539254944067142e-04 0.0000000000000000e+00  2.1736087143625490e-05 -1.9419437659035828e-04 0.0000000000000000e+00  2.1062324724486120e-05 -7.5912176146164726e-05 0.0000000000000000e+00  1.7676339007908159e-05 -1.1706692396593475e-04 0.0000000000000000e+00  4.2401582753033295e-07 -1.8579384815595563e-07 0.0000000000000000e+00  2.9932897870254265e-07 2.1719183049727170e-07 0.0000000000000000e+00  3.2395164100167249e-05 -3.2771787864063003e-04 0.0000000000000000e+00  2.2027545725052110e-06 -9.3994679422843696e-07 0.0000000000000000e+00  1.58