<?xml version="1.0"?>
<VTKFile type="UnstructuredGrid"  version="0.1"  >
<UnstructuredGrid>
<Piece  NumberOfPoints="1419" NumberOfCells="2698">
<Points>
<DataArray  type="Float64"  NumberOfComponents="3"  format="ascii">0 0 0  0 0.41 0  2.5 0 0  2.5 0.41 0  0.6 0.19 0  0.6 0.21 0  0.25 0.2 0  0.15 0.2 0  0.2489897948556636 0.21 0  0.2489897948556636 0.19 0  0.6 0.2 0  0 0.3807142857143437 0  0 0.3514285714286952 0  0 0.3221428571430699 0  0 0.29285714285744 0  0 0.2635714285718054 0  0 0.2342857142861561 0  0 0.2050000000005308 0  0 0.175714285714732 0  0 0.1464285714289574 0  0 0.1171428571431897 0  0 0.08785714285737878 0  0 0.05857142857161107 0  0 0.02928571428580012 0  0.03015443760436003 0 0  0.06140001986583606 0 0  0.09377624077125973 0 0  0.1273239957535082 0 0  0.1620856860351972 0 0  0.1981052433264291 0 0  0.235428184091502 0 0  0.2741016576309132 0 0  0.3141745521465447 0 0  0.3556974926295285 0 0  0.3987229542472677 0 0  0.4433053055141081 0 0  0.4895008759286886 0 0  0.5373680609405097 0 0  0.5869673343216626 0 0  0.6383613676634521 0 0  0.6916151138468254 0 0  0.7467958595648856 0 0  0.8039733463919316 0 0  0.8632198139502143 0 0  0.9246101326867038 0 0  0.9882218810934433 0 0  1.054135445558498 0 0  1.122434100542598 0 0  1.193204177141305 0 0  1.266535089879536 0 0  1.342519516046404 0 0  1.421253448503939 0 0  1.502836389106271 0 0  1.587371439758838 0 0  1.674965418777374 0 0  1.765729001825544 0 0  1.859776908880082 0 0  1.957227977487062 0 0  2.058205329869943 0 0  2.162836591189951 0 0  2.271253957290865 0 0  2.383594446803425 0 0  2.5 0.1024999999997612 0  2.5 0.2049999999994743 0  2.5 0.3074999999997183 0  2.383594446803656 0.41 0  2.271253957291315 0.41 0  2.162836591190598 0.41 0  2.058205329870775 0.41 0  1.957227977488067 0.41 0  1.859776908881246 0.41 0  1.765729001826854 0.41 0  1.674965418778818 0.41 0  1.58737143976041 0.41 0  1.502836389107956 0.41 0  1.421253448505726 0.41 0  1.342519516048286 0.41 0  1.266535089881505 0.41 0  1.193204177143353 0.41 0  1.122434100544716 0.41 0  1.05413544556068 0.41 0  0.9882218810956305 0.41 0  0.9246101326886647 0.41 0  0.8632198139519631 0.41 0  0.8039733463934788 0.41 0  0.7467958595662458 0.41 0  0.6916151138480078 0.41 0  0.6383613676644679 0.41 0  0.5869673343225223 0.41 0  0.5373680609412221 0.41 0  0.4895008759292634 0.41 0  0.4433053055145528 0.41 0  0.3987229542475914 0.41 0  0.3556974926297398 0.41 0  0.3141745521466497 0.41 0  0.2741016576310038 0.41 0  0.2354281840915826 0.41 0  0.1981052433265003 0.41 0  0.1620856860352591 0.41 0  0.1273239957535623 0.41 0  0.09377624077128965 0.41 0  0.06140001986584975 0.41 0  0.03015443760436654 0.41 0  0.2497468076502589 0.2050254481002335 0  0.2497468076502614 0.1949745518997913 0  0.2469965252529372 0.1829317073451959 0  0.2439893735792749 0.1762316384219906 0  0.2400332147834255 0.1700443375285386 0  0.2352133972704371 0.1645032867342007 0  0.2296339016332438 0.1597280261969788 0  0.2234150974217223 0.1558215752574715 0  0.2166911463437691 0.1528682099456123 0  0.2096071079204251 0.1509316448471593 0  0.2023158100364996 0.1500536585536553 0  0.194974551899914 0.1502531923497262 0  0.1877417105387872 0.1515259415822739 0  0.1807733240461124 0.153844448527136 0  0.1742197252835808 0.15715869474974 0  0.1682222986673531 0.1613971801805478 0  0.162910430003803 0.1664684656256651 0  0.1583987151779087 0.1722631454351573 0  0.1547844879126891 0.178656207771761 0  0.1521457199348551 0.1855097315605723 0  0.1505393388476355 0.1926758619366523 0  0.1505393388476328 0.2073241380633295 0  0.1521457199348437 0.2144902684393899 0  0.1547844879126531 0.221343792228163 0  0.1583987151778488 0.2277368545647528 0  0.1629104300036858 0.2335315343742052 0  0.1682222986671726 0.2386028198193036 0  0.1742197252833576 0.2428413052501257 0  0.1807733240458683 0.2461555514727623 0  0.1877417105384929 0.2484740584176516 0  0.1949745518995776 0.2497468076502398 0  0.202315810036185 0.2499463414463592 0  0.2096071079201568 0.2490683551528932 0  0.2166911463435495 0.2471317900544655 0  0.2234150974215506 0.2441784247426195 0  0.2296339016331197 0.2402719738031125 0  0.2352133972703547 0.2354967132658811 0  0.2400332147833751 0.2299556624715287 0  0.2439893735792577 0.2237683615780412 0  0.246996525252926 0.2170682926548348 0  0.25645809709277 0.21 0  0.2639263993298655 0.21 0  0.271394701566961 0.21 0  0.2788630038040554 0.21 0  0.2863313060411479 0.21 0  0.2937996082782405 0.21 0  0.301267910515333 0.21 0  0.3087362127524279 0.21 0  0.3162045149895234 0.21 0  0.3236728172265972 0.21 0  0.3311411194636928 0.21 0  0.3386094217007701 0.21 0  0.3460777239378666 0.21 0  0.3535460261749672 0.21 0  0.3610143284120516 0.21 0  0.3684826306491596 0.21 0  0.3759509328862226 0.21 0  0.383419235123329 0.21 0  0.3908875373604028 0.21 0  0.3983558395975142 0.21 0  0.4058241418345938 0.21 0  0.4132924440716992 0.21 0  0.4207607463087888 0.21 0  0.4282290485459029 0.21 0  0.4356973507830418 0.21 0  0.4431656530201649 0.21 0  0.4506339552573136 0.21 0  0.4581022574944306 0.21 0  0.4655705597315852 0.21 0  0.4730388619686996 0.21 0  0.480507164205851 0.21 0  0.4879754664429498 0.21 0  0.4954437686800938 0.21 0  0.502912070917267 0.21 0  0.5103803731544119 0.21 0  0.5178486753915261 0.21 0  0.5253169776286404 0.21 0  0.5327852798657868 0.21 0  0.5402535821029386 0.21 0  0.54772188434007 0.21 0  0.5551901865771842 0.21 0  0.5626584888143201 0.21 0  0.5701267910514778 0.21 0  0.5775950932886138 0.21 0  0.5850633955257281 0.21 0  0.5925316977628483 0.21 0  0.6 0.2050000000000054 0  0.6 0.1950000000000217 0  0.5925316977628897 0.19 0  0.5850633955257988 0.19 0  0.5775950932887378 0.19 0  0.5701267910515998 0.19 0  0.5626584888145268 0.19 0  0.5551901865773963 0.19 0  0.547721884340339 0.19 0  0.5402535821032429 0.19 0  0.5327852798661811 0.19 0  0.5253169776290537 0.19 0  0.5178486753919799 0.19 0  0.5103803731549078 0.19 0  0.502912070917822 0.19 0  0.4954437686807294 0.19 0  0.4879754664436223 0.19 0  0.4805071642065402 0.19 0  0.4730388619694271 0.19 0  0.4655705597323621 0.19 0  0.4581022574952563 0.19 0  0.4506339552581777 0.19 0  0.4431656530210671 0.19 0  0.4356973507839815 0.19 0  0.4282290485468779 0.19 0  0.4207607463097617 0.19 0  0.4132924440726327 0.19 0  0.4058241418354857 0.19 0  0.3983558395983636 0.19 0  0.3908875373612097 0.19 0  0.3834192351240934 0.19 0  0.3759509328869369 0.19 0  0.3684826306498175 0.19 0  0.361014328412667 0.19 0  0.3535460261755617 0.19 0  0.3460777239384295 0.19 0  0.3386094217012945 0.19 0  0.3311411194641595 0.19 0  0.3236728172270245 0.19 0  0.3162045149898895 0.19 0  0.3087362127527544 0.19 0  0.3012679105156187 0.19 0  0.2937996082784807 0.19 0  0.2863313060413428 0.19 0  0.2788630038042048 0.19 0  0.2713947015670686 0.19 0  0.2639263993299336 0.19 0  0.2564580970927985 0.19 0  0.2607803159922026 0.2000727136295815 0  0.5887803774232762 0.2001272386983733 0  0.5745072403740523 0.2002044435018727 0  0.5511891430099709 0.2001122610077113 0  0.2751288526855082 0.20000000000002 0  0.5365194309847112 0.1999999999999436 0  0.2894621222999649 0.1998691686390484 0  0.5215828265105155 0.1999999999999228 0  0.3127789816668748 0.1998657885438805 0  0.3274069683451451 0.2000000000000796 0  0.5066462220363641 0.199999999999908 0  0.3650630746574081 0.199866017807523 0  0.476773013087985 0.1999999999998713 0  0.3417402379596385 0.1998691686391011 0  0.3796850840047755 0.200000000000134 0  0.4618364086138087 0.1999999999998546 0  0.4917096175621762 0.1999999999998808 0  0.3946216884789568 0.2000000000001512 0  0.446899804139621 0.1999999999998389 0  0.4089549580935208 0.1998691686391595 0  0.4322718174608562 0.200127451265745 0  0.4201487168029707 0.1999966199048527 0  0.3528922713220932 0.2000185703532356 0  0.5633122436674589 0.1999814296467508 0  0.3006558810093873 0.1999966199048318 0  0.5815926498168407 0.1966545283159175 0  0.2677053789419034 0.1964246479135325 0  0.5290511287476175 0.1970915826863981 0  0.5439877332217911 0.197091582686394 0  0.2825131256993216 0.2035478995978015 0  0.3199386661080599 0.202908417313604 0  0.4842413153250809 0.1970915826863873 0  0.5141145242734466 0.1970915826863843 0  0.3722167817676917 0.2029084173136195 0  0.4693047108508938 0.1970915826863783 0  0.3348752705822316 0.202908417313609 0  0.3871533862418661 0.2029084173136212 0  0.4543681063767183 0.1970915826863795 0  0.4991779197992749 0.1970915826863902 0  0.4020059614928624 0.203547899597858 0  0.4394315019025246 0.1970915826863714 0  0.2550657455369551 0.2034088125358657 0  0.2548908499171161 0.1966940311614271 0  0.5946539510196798 0.2024302972968126 0  0.267698176732111 0.2039977513680092 0  0.4261685417851465 0.196409292431739 0  0.3590076176283495 0.196411355804271 0  0.5571672426447437 0.2036011176410121 0  0.3066757059912147 0.1964092924317024 0  0.594380730180568 0.1966558399668133 0  0.4842413153245942 0.2040749161535287 0  0.4693047108503577 0.2040749161535231 0  0.3871533862424271 0.1959250838464788 0  0.372246743208829 0.1959123236376545 0  0.5141145242731028 0.2040749161535395 0  0.4543681063761134 0.2040749161535186 0  0.4019979587101454 0.1959834479682427 0  0.4394608940728603 0.2040870543693135 0  0.5439623148931173 0.2040856076781014 0  0.5290511287473298 0.2040749161535501 0  0.4991779197988497 0.2040749161535382 0  0.3347912413592433 0.1959225448935183 0  0.3199680582793816 0.1959123018030061 0  0.2825051229162361 0.1959834479681729 0  0.3590471196690275 0.2036304442587945 0  0.5571594006495384 0.1963685282145804 0  0.3067669986803285 0.203627750582736 0  0.4262598344738712 0.2036568242185335 0  0.5814408164431408 0.2041285596160068 0  0.5688286748170428 0.1961819304477386 0  0.4145905603063645 0.2038180695522843 0  0.3473758401724931 0.2038180695522752 0  0.2950977245128307 0.2038180695522663 0  0.5688286748170693 0.203818069552238 0  0.2950977245127906 0.1961819304477774 0  0.3473758401723931 0.1961819304478349 0  0.4145905603061963 0.1961819304479011 0  0.2601812407614425 0.2056861609747042
[...]
<PointData  Vectors="f_46-2"> 
<DataArray  type="Float64"  Name="f_46-2"  NumberOfComponents="3" format="ascii">0.0000000000000000e+00 0.0000000000000000e+00 0.0000000000000000e+00  0.0000000000000000e+00 0.0000000000000000e+00 0.0000000000000000e+00  0.0000000000000000e+00 0.0000000000000000e+00 0.0000000000000000e+00  0.0000000000000000e+00 0.0000000000000000e+00 0.0000000000000000e+00  1.5447334729104707e-05 -3.4596386582424251e-04 0.0000000000000000e+00  4.4197617464344964e-05 -3.4666387246759354e-04 0.0000000000000000e+00  0.0000000000000000e+00 0.0000000000000000e+00 0.0000000000000000e+00  0.0000000000000000e+00 0.0000000000000000e+00 0.0000000000000000e+00  0.0000000000000000e+00 0.0000000000000000e+00 0.0000000000000000e+00  0.0000000000000000e+00 0.0000000000000000e+00 0.0000000000000000e+00  2.9523132354980974e-05 -3.4631357539151607e-04 0.0000000000000000e+00  0.0000000000000000e+00 0.0000000000000000e+00 0.0000000000000000e+00  0.0000000000000000e+00 0.0000000000000000e+00 0.0000000000000000e+00  0.0000000000000000e+00 0.0000000000000000e+00 0.0000000000000000e+00  0.0000000000000000e+00 0.0000000000000000e+00 0.0000000000000000e+00  0.0000000000000000e+00 0.0000000000000000e+00 0.0000000000000000e+00  0.0000000000000000e+00 0.0000000000000000e+00 0.0000000000000000e+00  0.0000000000000000e+00 0.0000000000000000e+00 0.0000000000000000e+00  0.0000000000000000e+00 0.0000000000000000e+00 0.0000000000000000e+00  0.0000000000000000e+00 0.0000000000000000e+00 0.0000000000000000e+00  0.0000000000000000e+00 0.0000000000000000e+00 0.0000000000000000e+00  0.0000000000000000e+00 0.0000000000000000e+00 0.0000000000000000e+00  0.0000000000000000e+00 0.0000000000000000e+00 0.0000000000000000e+00  0.0000000000000000e+00 0.0000000000000000e+00 0.0000000000000000e+00  0.0000000000000000e+00 0.0000000000000000e+00 0.0000000000000000e+00  0.0000000000000000e+00 0.0000000000000000e+00 0.0000000000000000e+00  0.0000000000000000e+00 0.0000000000000000e+00 0.0000000000000000e+00  0.0000000000000000e+00 0.0000000000000000e+00 0.0000000000000000e+00  0.0000000000000000e+00 0.0000000000000000e+00 0.0000000000000000e+00  0.0000000000000000e+00 0.0000000000000000e+00 0.0000000000000000e+00  0.0000000000000000e+00 0.0000000000000000e+00 0.0000000000000000e+00  0.0000000000000000e+00 0.0000000000000000e+00 0.0000000000000000e+00  0.0000000000000000e+00 0.0000000000000000e+00 0.0000000000000000e+00  0.0000000000000000e+00 0.0000000000000000e+00 0.0000000000000000e+00  0.0000000000000000e+00 0.0000000000000000e+00 0.0000000000000000e+00  -1.3491086057853029e-13 0.0000000000000000e+00 0.0000000000000000e+00  0.0000000000000000e+00 0.0000000000000000e+00 0.0000000000000000e+00  0.0000000000000000e+00 0.0000000000000000e+00 0.0000000000000000e+00  0.0000000000000000e+00 0.0000000000000000e+00 0.0000000000000000e+00  0.0000000000000000e+00 0.0000000000000000e+00 0.0000000000000000e+00  0.0000000000000000e+00 0.0000000000000000e+00 0.0000000000000000e+00  0.0000000000000000e+00 0.0000000000000000e+00 0.0000000000000000e+00  0.0000000000000000e+00 0.0000000000000000e+00 0.0000000000000000e+00  0.0000000000000000e+00 0.0000000000000000e+00 0.0000000000000000e+00  0.0000000000000000e+00 0.0000000000000000e+00 0.0000000000000000e+00  0.0000000000000000e+00 0.0000000000000000e+00 0.0000000000000000e+00  0.0000000000000000e+00 0.0000000000000000e+00 0.0000000000000000e+00  0.0000000000000000e+00 0.0000000000000000e+00 0.0000000000000000e+00  0.0000000000000000e+00 0.0000000000000000e+00 0.0000000000000000e+00  0.0000000000000000e+00 0.0000000000000000e+00 0.0000000000000000e+00  0.0000000000000000e+00 0.0000000000000000e+00 0.0000000000000000e+00  0.0000000000000000e+00 0.0000000000000000e+00 0.0000000000000000e+00  0.0000000000000000e+00 0.0000000000000000e+00 0.0000000000000000e+00  0.0000000000000000e+00 0.0000000000000000e+00 0.0000000000000000e+00  0.0000000000000000e+00 0.0000000000000000e+00 0.0000000000000000e+00  0.0000000000000000e+00 0.0000000000000000e+00 0.0000000000000000e+00  0.0000000000000000e+00 0.0000000000000000e+00 0.0000000000000000e+00  0.0000000000000000e+00 0.0000000000000000e+00 0.0000000000000000e+00  0.0000000000000000e+00 0.0000000000000000e+00 0.0000000000000000e+00  0.0000000000000000e+00 0.0000000000000000e+00 0.0000000000000000e+00  0.0000000000000000e+00 0.0000000000000000e+00 0.0000000000000000e+00  0.0000000000000000e+00 0.0000000000000000e+00 0.0000000000000000e+00  0.0000000000000000e+00 0.0000000000000000e+00 0.0000000000000000e+00  0.0000000000000000e+00 0.0000000000000000e+00 0.0000000000000000e+00  0.0000000000000000e+00 0.0000000000000000e+00 0.0000000000000000e+00  0.0000000000000000e+00 0.0000000000000000e+00 0.0000000000000000e+00  0.0000000000000000e+00 0.0000000000000000e+00 0.0000000000000000e+00  0.0000000000000000e+00 0.0000000000000000e+00 0.0000000000000000e+00  0.0000000000000000e+00 0.0000000000000000e+00 0.0000000000000000e+00  0.0000000000000000e+00 0.0000000000000000e+00 0.0000000000000000e+00  0.0000000000000000e+00 0.0000000000000000e+00 0.0000000000000000e+00  0.0000000000000000e+00 0.0000000000000000e+00 0.0000000000000000e+00  0.0000000000000000e+00 0.0000000000000000e+00 0.0000000000000000e+00  0.0000000000000000e+00 0.0000000000000000e+00 0.0000000000000000e+00  0.0000000000000000e+00 0.0000000000000000e+00 0.0000000000000000e+00  0.0000000000000000e+00 0.0000000000000000e+00 0.0000000000000000e+00  0.0000000000000000e+00 0.0000000000000000e+00 0.0000000000000000e+00  0.0000000000000000e+00 0.0000000000000000e+00 0.0000000000000000e+00  0.0000000000000000e+00 0.0000000000000000e+00 0.0000000000000000e+00  0.0000000000000000e+00 0.0000000000000000e+00 0.0000000000000000e+00  0.0000000000000000e+00 0.0000000000000000e+00 0.0000000000000000e+00  0.0000000000000000e+00 0.0000000000000000e+00 0.0000000000000000e+00  0.0000000000000000e+00 0.0000000000000000e+00 0.0000000000000000e+00  0.0000000000000000e+00 0.0000000000000000e+00 0.0000000000000000e+00  0.0000000000000000e+00 0.0000000000000000e+00 0.0000000000000000e+00  0.0000000000000000e+00 0.0000000000000000e+00 0.0000000000000000e+00  0.0000000000000000e+00 0.0000000000000000e+00 0.0000000000000000e+00  0.0000000000000000e+00 0.0000000000000000e+00 0.0000000000000000e+00  -1.1781802449709966e-14 0.0000000000000000e+00 0.0000000000000000e+00  0.0000000000000000e+00 0.0000000000000000e+00 0.0000000000000000e+00  0.0000000000000000e+00 0.0000000000000000e+00 0.0000000000000000e+00  0.0000000000000000e+00 0.0000000000000000e+00 0.0000000000000000e+00  0.0000000000000000e+00 0.0000000000000000e+00 0.0000000000000000e+00  0.0000000000000000e+00 0.0000000000000000e+00 0.0000000000000000e+00  1.4302786484527138e-13 -3.3418879161922710e-18 0.0000000000000000e+00  0.0000000000000000e+00 0.0000000000000000e+00 0.0000000000000000e+00  0.0000000000000000e+00 0.0000000000000000e+00 0.0000000000000000e+00  0.0000000000000000e+00 0.0000000000000000e+00 0.0000000000000000e+00  0.0000000000000000e+00 0.0000000000000000e+00 0.0000000000000000e+00  0.0000000000000000e+00 0.0000000000000000e+00 0.0000000000000000e+00  0.0000000000000000e+00 0.0000000000000000e+00 0.0000000000000000e+00  0.0000000000000000e+00 0.0000000000000000e+00 0.0000000000000000e+00  0.0000000000000000e+00 0.0000000000000000e+00 0.0000000000000000e+00  0.0000000000000000e+00 0.0000000000000000e+00 0.0000000000000000e+00  0.0000000000000000e+00 0.0000000000000000e+00 0.0000000000000000e+00  -7.3038502036855419e-13 1.9356784255839318e-13 0.0000000000000000e+00  0.0000000000000000e+00 0.0000000000000000e+00 0.0000000000000000e+00  0.0000000000000000e+00 0.0000000000000000e+00 0.0000000000000000e+00  0.0000000000000000e+00 0.0000000000000000e+00 0.0000000000000000e+00  0.0000000000000000e+00 0.0000000000000000e+00 0.0000000000000000e+00  -7.4587934605078245e-15 0.0000000000000000e+00 0.0000000000000000e+00  0.0000000000000000e+00 0.0000000000000000e+00 0.0000000000000000e+00  0.0000000000000000e+00 0.0000000000000000e+00 0.0000000000000000e+00  0.0000000000000000e+00 0.0000000000000000e+00 0.0000000000000000e+00  0.0000000000000000e+00 0.0000000000000000e+00 0.0000000000000000e+00  0.0000000000000000e+00 0.0000000000000000e+00 0.0000000000000000e+00  0.0000000000000000e+00 0.0000000000000000e+00 0.0000000000000000e+00  0.0000000000000000e+00 0.0000000000000000e+00 0.0000000000000000e+00  0.0000000000000000e+00 0.0000000000000000e+00 0.0000000000000000e+00  0.0000000000000000e+00 0.0000000000000000e+00 0.0000000000000000e+00  0.0000000000000000e+00 0.0000000000000000e+00 0.0000000000000000e+00  0.0000000000000000e+00 0.0000000000000000e+00 0.0000000000000000e+00  0.0000000000000000e+00 0.0000000000000000e+00 0.0000000000000000e+00  0.0000000000000000e+00 0.0000000000000000e+00 0.0000000000000000e+00  0.0000000000000000e+00 0.0000000000000000e+00 0.0000000000000000e+00  0.0000000000000000e+00 0.0000000000000000e+00 0.0000000000000000e+00  0.0000000000000000e+00 0.0000000000000000e+00 0.0000000000000000e+00  0.0000000000000000e+00 0.0000000000000000e+00 0.0000000000000000e+00  0.0000000000000000e+00 0.0000000000000000e+00 0.0000000000000000e+00  0.0000000000000000e+00 0.0000000000000000e+00 0.0000000000000000e+00  0.0000000000000000e+00 0.0000000000000000e+00 0.0000000000000000e+00  0.0000000000000000e+00 0.0000000000000000e+00 0.0000000000000000e+00  0.0000000000000000e+00 0.0000000000000000e+00 0.0000000000000000e+00  0.0000000000000000e+00 0.0000000000000000e+00 0.0000000000000000e+00  0.0000000000000000e+00 0.0000000000000000e+00 0.0000000000000000e+00  0.0000000000000000e+00 0.0000000000000000e+00 0.0000000000000000e+00  0.0000000000000000e+00 0.0000000000000000e+00 0.0000000000000000e+00  0.0000000000000000e+00 0.0000000000000000e+00 0.0000000000000000e+00  0.0000000000000000e+00 0.0000000000000000e+00 0.0000000000000000e+00  0.0000000000000000e+00 0.0000000000000000e+00 0.0000000000000000e+00  0.0000000000000000e+00 0.0000000000000000e+00 0.0000000000000000e+00  0.0000000000000000e+00 0.0000000000000000e+00 0.0000000000000000e+00  -7.7627332684291315e-13 -3.3552658532253112e-14 0.0000000000000000e+00  1.0790216918356007e-06 -1.0717605061699757e-06 0.0000000000000000e+00  2.3259947531031506e-06 -1.5195604417537858e-06 0.0000000000000000e+00  3.6346377716088615e-06 -2.2873613115602325e-06 0.0000000000000000e+00  5.0660436267093756e-06 -3.4217516027149805e-06 0.0000000000000000e+00  6.4592978426556142e-06 -4.9561036186169662e-06 0.0000000000000000e+00  7.9818259512888071e-06 -6.9325324983517949e-06 0.0000000000000000e+00  9.4104174392684425e-06 -9.2679399377032823e-06 0.0000000000000000e+00  1.0860842962373123e-05 -1.2097951460938920e-05 0.0000000000000000e+00  1.2431926643267720e-05 -1.5325238096188117e-05 0.0000000000000000e+00  1.3863687044626041e-05 -1.8990494112174668e-05 0.0000000000000000e+00  1.5446680315539859e-05 -2.3100950919499165e-05 0.0000000000000000e+00  1.6867328994194283e-05 -2.7645133082515789e-05 0.0000000000000000e+00  1.8406950592974944e-05 -3.2621584044628583e-05 0.0000000000000000e+00  1.9811758666793088e-05 -3.7959937617212156e-05 0.0000000000000000e+00  2.1202653376870489e-05 -4.3759392031330608e-05 0.0000000000000000e+00  2.2669572459729603e-05 -4.9917577525976095e-05 0.0000000000000000e+00  2.3978268778466124e-05 -5.6447488903967952e-05 0.0000000000000000e+00  2.5377872383052480e-05 -6.3360734341324338e-05 0.0000000000000000e+00  2.6612971979369856e-05 -7.0605673044813898e-05 0.0000000000000000e+00  2.7915685391127970e-05 -7.8188391467223090e-05 0.0000000000000000e+00  2.9089639837681595e-05 -8.6078179196279910e-05 0.0000000000000000e+00  3.0285247783772537e-05 -9.4284962656945363e-05 0.0000000000000000e+00  3.1367005600028999e-05 -1.0272081434717314e-04 0.0000000000000000e+00  3.2406250274372862e-05 -1.1145255971188260e-04 0.0000000000000000e+00  3.3458962620412903e-05 -1.2039117506432791e-04 0.0000000000000000e+00  3.4412199130216069e-05 -1.2955596434677128e-04 0.0000000000000000e+00  3.5333814266561779e-05 -1.3894259138233543e-04 0.0000000000000000e+00  3.6186883110855685e-05 -1.4848355809525448e-04 0.0000000000000000e+00  3.7005009001949640e-05 -1.5821738580950391e-04 0.0000000000000000e+00  3.7758896751892002e-05 -1.6807138894152823e-04 0.0000000000000000e+00  3.8476327808173356e-05 -1.7808494808167660e-04 0.0000000000000000e+00  3.9133567700155094e-05 -1.8818714891724641e-04 0.0000000000000000e+00  3.9753732639744381e-05 -1.9841878623503100e-04 0.0000000000000000e+00  4.0318446563429094e-05 -2.0871131629492950e-04 0.0000000000000000e+00  4.0844657862012997e-05 -2.1910754958895953e-04 0.0000000000000000e+00  4.1320936134007928e-05 -2.2954196836109573e-04 0.0000000000000000e+00  4.1760018185427366e-05 -2.4005632625925653e-04 0.0000000000000000e+00  4.2153342037810707e-05 -2.5059084137201321e-04 0.0000000000000000e+00  4.2509701931634029e-05 -2.6118656555403785e-04 0.0000000000000000e+00  4.2822684596542356e-05 -2.7178714798487328e-04 0.0000000000000000e+00  4.3095868702586997e-05 -2.8242810391450578e-04 0.0000000000000000e+00  4.3334972899535798e-05 -2.9307519121766113e-04 0.0000000000000000e+00  4.3535687181034090e-05 -3.0374086258185007e-04 0.0000000000000000e+00  4.3716313897272961e-05 -3.1441341390511769e-04 0.0000000000000000e+00  4.3855247295048323e-05 -3.2508143361808492e-04 0.0000000000000000e+00  4.3995824760582585e-05 -3.3579084769232756e-04 0.0000000000000000e+00  3.6758470237564561e-05 -3.4648336929558090e-04 0.0000000000000000e+00  2.2396972400307435e-05 -3.4614770149693871e-04 0.0000000000000000e+00  1.5264910480909442e-05 -3.3537860564633999e-04 0.0000000000000000e+00  1.5151697864198137e-05 -3.2463165214271925e-04 0.0000000000000000e+00  1.5036361431775286e-05 -3.1386912424314684e-04 0.0000000000000000e+00  1.4891364250191340e-05 -3.0313002487380899e-04 0.0000000000000000e+00  1.4726605755138061e-05 -2.9240010793777933e-04 0.0000000000000000e+00  1.4531623825961918e-05 -2.8168656451986815e-04 0.0000000000000000e+00  1.4322823108978387e-05 -2.7099518891138497e-04 0.0000000000000000e+00  1.4078674629452848e-05 -2.6031462383067932e-04 0.0000000000000000e+00  1.3824331050036224e-05 -2.4968267053340488e-04 0.0000000000000000e+00  1.3536528533682805e-05 -2.3906815665873554e-04 0.0000000000000000e+00  1.3247547778761739e-05 -2.2851776975003346e-04 0.0000000000000000e+00  1.2922423105643055e-05 -2.1800320599291292e-04 0.0000000000000000e+00  1.2605602825268782e-05 -2.0757176968936458e-04 0.0000000000000000e+00  1.2248438642140068e-05 -1.9719970577897580e-04 0.0000000000000000e+00  1.1911298469708067e-05 -1.8693360780410248e-04 0.0000000000000000e+00  1.1527375770808629e-05 -1.7675353582462131e-04 0.0000000000000000e+00  1.1175895426124678e-05 -1.6670647610695039e-04 0.0000000000000000e+00  1.0770447715683505e-05 -1.5677622824019998e-04 0.0000000000000000e+00  1.0410981392643360e-05 -1.4701000802951297e-04 0.0000000000000000e+00  9.9891524681438981e-06 -1.3739538870362350e-04 0.0000000000000000e+00  9.6293159002610690e-06 -1.2797958836957587e-04 0.0000000000000000e+00  9.1974090847515492e-06 -1.1875436788870169e-04 0.0000000000000000e+00  8.8323755358817336e-06 -1.0976309738980489e-04 0.0000000000000000e+00  8.4087425663753661e-06 -1.0098688643961510e-04 0.0000000000000000e+00  7.9787451038790247e-06 -9.2511955485278011e-05 0.0000000000000000e+00  7.6186332516964540e-06 -8.4260975135446006e-05 0.0000000000000000e+00  7.2072353685450485e-06 -7.6333727898407350e-05 0.0000000000000000e+00  6.8359417086335385e-06 -6.8716648533971613e-05 0.0000000000000000e+00  6.4318137662444039e-06 -6.1434956523224567e-05 0.0000000000000000e+00  6.0654635565010650e-06 -5.4506247498271453e-05 0.0000000000000000e+00  5.6683466159891920e-06 -4.7929851173537152e-05 0.0000000000000000e+00  5.3468846934845349e-06 -4.1781541656150961e-05 0.0000000000000000e+00  4.9388032953124491e-06 -3.5962327053316706e-05 0.0000000000000000e+00  4.5301646910477839e-06 -3.0619803693729778e-05 0.0000000000000000e+00  4.2207133149516668e-06 -2.5614166024833322e-05 0.0000000000000000e+00  3.8514775828009659e-06 -2.1083224829694854e-05 0.0000000000000000e+00  3.5269728496166725e-06 -1.6979451514673693e-05 0.0000000000000000e+00  3.1616672534499802e-06 -1.3304586245087077e-05 0.0000000000000000e+00  2.8743841353506887e-06 -1.0118244512583600e-05 0.0000000000000000e+00  2.4862186775806380e-06 -7.2985886473702626e-06 0.0000000000000000e+00  2.0891352400824853e-06 -4.9846173112352917e-06 0.0000000000000000e+00  1.7859874188848011e-06 -3.0197629732101100e-06 0.0000000000000000e+00  1.3960018042795512e-06 -1.4974711954135739e-06 0.0000000000000000e+00  1.0676947296155005e-06 -3.8770573461559819e-07 0.0000000000000000e+00  6.6628311425840977e-07 3.3148435619660204e-07 0.0000000000000000e+00  3.5327436506783981e-07 6.4061816777156294e-07 0.0000000000000000e+00  1.0027011887518866e-06 -1.6488649274518703e-07 0.0000000000000000e+00  2.9632803202828477e-05 -3.3019084951694887e-04 0.0000000000000000e+00  2.9558627398356070e-05 -3.0970996286202831e-04 0.0000000000000000e+00  2.8803095945419600e-05 -2.7632912640790494e-04 0.0000000000000000e+00  2.7827953951544651e-06 -1.5995296282124420e-06 0.0000000000000000e+00  2.8093018549554630e-05 -2.5541592719894907e-04 0.0000000000000000e+00  4.4731223635495197e-06 -4.4698457565041408e-06 0.0000000000000000e+00  2.7418462228561278e-05 -2.3425549372298074e-04 0.0000000000000000e+00  7.2972183122244304e-06 -1.2489419783676387e-05 0.0000000000000000e+00  9.1591106339803500e-06 -1.9707666646109862e-05 0.0000000000000000e+00  2.6625325002036446e-05 -2.1329196322885074e-04 0.0000000000000000e+00  1.3620428230959672e-05 -4.5789966157700805e-05 0.0000000000000000e+00  2.4688215954367142e-05 -1.7230570243966978e-04 0.0000000000000000e+00  1.0835459687105423e-05 -2.8372752595837161e-05 0.0000000000000000e+00  1.5434378309465336e-05 -5.8663196244081156e-05 0.0000000000000000e+00  2.3547750025150951e-05 -1.5249862281940384e-04 0.0000000000000000e+00  2.5714773915003902e-05 -1.9260866133059728e-04 0.0000000000000000e+00  1.7111942470798947e-05 -7.3209589985124486e-05 0.0000000000000000e+00  2.2294916160761327e-05 -1.3331904139904778e-04 0.0000000000000000e+00  1.8507542518676570e-05 -8.8375550829527790e-05 0.0000000000000000e+00  2.1121456421656254e-05 -1.1529050345994527e-04 0.0000000000000000e+00  1.9777630095311363e-05 -1.0102470698785648e-04 0.0000000000000000e+00  1.2284023333130548e-05 -3.6285369580171739e-05 0.0000000000000000e+00  2.8963067225751354e-05 -2.9366490036355787e-04 0.0000000000000000e+00  5.8646347895825702e-06 -7.8719133202156089e-06 0.0000000000000000e+00  2.4581437822889407e-05 -3.1979466657363682e-04 0.0000000000000000e+00  1.4935626412906207e-06 -3.7226214272405823e-07 0.0000000000000000e+00  2.3661153739947215e-05 -2.4468202288046865e-04 0.0000000000000000e+00  2.4249193502175066e-05 -2.6592982816888577e-04 0.0000000000000000e+00  4.4019282333946635e-06 -3.2808325102968325e-06 0.0000000000000000e+00  9.6721499402446379e-06 -1.6147727155903500e-05 0.0000000000000000e+00  2.1280272410745772e-05 -1.8222529003629245e-04 0.0000000000000000e+00  2.2967902888755896e-05 -2.2359543040866809e-04 0.0000000000000000e+00  1.7114706039394906e-05 -5.2233052427572381e-05 0.0000000000000000e+00  2.0295164794561259e-05 -1.6214138103224894e-04 0.0000000000000000e+00  1.1831755508555111e-05 -2.4363447118850533e-05 0.0000000000000000e+00  1.9094457358685650e-05 -6.6074535541473572e-05 0.0000000000000000e+00  1.9221936273394746e-05 -1.4261779451253925e-04 0.0000000000000000e+00  2.2172706471458547e-05 -2.0274575707233641e-04 0.0000000000000000e+00  2.1645641474022023e-05 -8.1248637010681053e-05 0.0000000000000000e+00  1.8063411291183135e-05 -1.2379316570098139e-04 0.0000000000000000e+00  4.4509381841762859e-07 -2.0817103716048928e-07 0.0000000000000000e+00  3.0005343073871479e-07 2.0721098053937620e-07 0.0000000000000000e+00  3.2981734099324164e-05 -3.3867972193944278e-04 0.0000000000000000e+00  2.3159012522384161e-06 -1.1199420921261750e-06 0.0000000000000000e+00  1.