<?xml version="1.0"?>
<VTKFile type="UnstructuredGrid"  version="0.1"  >
<UnstructuredGrid>
<Piece  NumberOfPoints="1419" NumberOfCells="2698">
<Points>
<DataArray  type="Float64"  NumberOfComponents="3"  format="ascii">0 0 0  0 0.41 0  2.5 0 0  2.5 0.41 0  0.6 0.19 0  0.6 0.21 0  0.25 0.2 0  0.15 0.2 0  0.2489897948556636 0.21 0  0.2489897948556636 0.19 0  0.6 0.2 0  0 0.3807142857143437 0  0 0.3514285714286952 0  0 0.3221428571430699 0  0 0.29285714285744 0  0 0.2635714285718054 0  0 0.2342857142861561 0  0 0.2050000000005308 0  0 0.175714285714732 0  0 0.1464285714289574 0  0 0.1171428571431897 0  0 0.08785714285737878 0  0 0.05857142857161107 0  0 0.02928571428580012 0  0.03015443760436003 0 0  0.06140001986583606 0 0  0.09377624077125973 0 0  0.1273239957535082 0 0  0.1620856860351972 0 0  0.1981052433264291 0 0  0.235428184091502 0 0  0.2741016576309132 0 0  0.3141745521465447 0 0  0.3556974926295285 0 0  0.3987229542472677 0 0  0.4433053055141081 0 0  0.4895008759286886 0 0  0.5373680609405097 0 0  0.5869673343216626 0 0  0.6383613676634521 0 0  0.6916151138468254 0 0  0.7467958595648856 0 0  0.8039733463919316 0 0  0.8632198139502143 0 0  0.9246101326867038 0 0  0.9882218810934433 0 0  1.054135445558498 0 0  1.122434100542598 0 0  1.193204177141305 0 0  1.266535089879536 0 0  1.342519516046404 0 0  1.421253448503939 0 0  1.502836389106271 0 0  1.587371439758838 0 0  1.674965418777374 0 0  1.765729001825544 0 0  1.859776908880082 0 0  1.957227977487062 0 0  2.058205329869943 0 0  2.162836591189951 0 0  2.271253957290865 0 0  2.383594446803425 0 0  2.5 0.1024999999997612 0  2.5 0.2049999999994743 0  2.5 0.3074999999997183 0  2.383594446803656 0.41 0  2.271253957291315 0.41 0  2.162836591190598 0.41 0  2.058205329870775 0.41 0  1.957227977488067 0.41 0  1.859776908881246 0.41 0  1.765729001826854 0.41 0  1.674965418778818 0.41 0  1.58737143976041 0.41 0  1.502836389107956 0.41 0  1.421253448505726 0.41 0  1.342519516048286 0.41 0  1.266535089881505 0.41 0  1.193204177143353 0.41 0  1.122434100544716 0.41 0  1.05413544556068 0.41 0  0.9882218810956305 0.41 0  0.9246101326886647 0.41 0  0.8632198139519631 0.41 0  0.8039733463934788 0.41 0  0.7467958595662458 0.41 0  0.6916151138480078 0.41 0  0.6383613676644679 0.41 0  0.5869673343225223 0.41 0  0.5373680609412221 0.41 0  0.4895008759292634 0.41 0  0.4433053055145528 0.41 0  0.3987229542475914 0.41 0  0.3556974926297398 0.41 0  0.3141745521466497 0.41 0  0.2741016576310038 0.41 0  0.2354281840915826 0.41 0  0.1981052433265003 0.41 0  0.1620856860352591 0.41 0  0.1273239957535623 0.41 0  0.09377624077128965 0.41 0  0.06140001986584975 0.41 0  0.03015443760436654 0.41 0  0.2497468076502589 0.2050254481002335 0  0.2497468076502614 0.1949745518997913 0  0.2469965252529372 0.1829317073451959 0  0.2439893735792749 0.1762316384219906 0  0.2400332147834255 0.1700443375285386 0  0.2352133972704371 0.1645032867342007 0  0.2296339016332438 0.1597280261969788 0  0.2234150974217223 0.1558215752574715 0  0.2166911463437691 0.1528682099456123 0  0.2096071079204251 0.1509316448471593 0  0.2023158100364996 0.1500536585536553 0  0.194974551899914 0.1502531923497262 0  0.1877417105387872 0.1515259415822739 0  0.1807733240461124 0.153844448527136 0  0.1742197252835808 0.15715869474974 0  0.1682222986673531 0.1613971801805478 0  0.162910430003803 0.1664684656256651 0  0.1583987151779087 0.1722631454351573 0  0.1547844879126891 0.178656207771761 0  0.1521457199348551 0.1855097315605723 0  0.1505393388476355 0.1926758619366523 0  0.1505393388476328 0.2073241380633295 0  0.1521457199348437 0.2144902684393899 0  0.1547844879126531 0.221343792228163 0  0.1583987151778488 0.2277368545647528 0  0.1629104300036858 0.2335315343742052 0  0.1682222986671726 0.2386028198193036 0  0.1742197252833576 0.2428413052501257 0  0.1807733240458683 0.2461555514727623 0  0.1877417105384929 0.2484740584176516 0  0.1949745518995776 0.2497468076502398 0  0.202315810036185 0.2499463414463592 0  0.2096071079201568 0.2490683551528932 0  0.2166911463435495 0.2471317900544655 0  0.2234150974215506 0.2441784247426195 0  0.2296339016331197 0.2402719738031125 0  0.2352133972703547 0.2354967132658811 0  0.2400332147833751 0.2299556624715287 0  0.2439893735792577 0.2237683615780412 0  0.246996525252926 0.2170682926548348 0  0.25645809709277 0.21 0  0.2639263993298655 0.21 0  0.271394701566961 0.21 0  0.2788630038040554 0.21 0  0.2863313060411479 0.21 0  0.2937996082782405 0.21 0  0.301267910515333 0.21 0  0.3087362127524279 0.21 0  0.3162045149895234 0.21 0  0.3236728172265972 0.21 0  0.3311411194636928 0.21 0  0.3386094217007701 0.21 0  0.3460777239378666 0.21 0  0.3535460261749672 0.21 0  0.3610143284120516 0.21 0  0.3684826306491596 0.21 0  0.3759509328862226 0.21 0  0.383419235123329 0.21 0  0.3908875373604028 0.21 0  0.3983558395975142 0.21 0  0.4058241418345938 0.21 0  0.4132924440716992 0.21 0  0.4207607463087888 0.21 0  0.4282290485459029 0.21 0  0.4356973507830418 0.21 0  0.4431656530201649 0.21 0  0.4506339552573136 0.21 0  0.4581022574944306 0.21 0  0.4655705597315852 0.21 0  0.4730388619686996 0.21 0  0.480507164205851 0.21 0  0.4879754664429498 0.21 0  0.4954437686800938 0.21 0  0.502912070917267 0.21 0  0.5103803731544119 0.21 0  0.5178486753915261 0.21 0  0.5253169776286404 0.21 0  0.5327852798657868 0.21 0  0.5402535821029386 0.21 0  0.54772188434007 0.21 0  0.5551901865771842 0.21 0  0.5626584888143201 0.21 0  0.5701267910514778 0.21 0  0.5775950932886138 0.21 0  0.5850633955257281 0.21 0  0.5925316977628483 0.21 0  0.6 0.2050000000000054 0  0.6 0.1950000000000217 0  0.5925316977628897 0.19 0  0.5850633955257988 0.19 0  0.5775950932887378 0.19 0  0.5701267910515998 0.19 0  0.5626584888145268 0.19 0  0.5551901865773963 0.19 0  0.547721884340339 0.19 0  0.5402535821032429 0.19 0  0.5327852798661811 0.19 0  0.5253169776290537 0.19 0  0.5178486753919799 0.19 0  0.5103803731549078 0.19 0  0.502912070917822 0.19 0  0.4954437686807294 0.19 0  0.4879754664436223 0.19 0  0.4805071642065402 0.19 0  0.4730388619694271 0.19 0  0.4655705597323621 0.19 0  0.4581022574952563 0.19 0  0.4506339552581777 0.19 0  0.4431656530210671 0.19 0  0.4356973507839815 0.19 0  0.4282290485468779 0.19 0  0.4207607463097617 0.19 0  0.4132924440726327 0.19 0  0.4058241418354857 0.19 0  0.3983558395983636 0.19 0  0.3908875373612097 0.19 0  0.3834192351240934 0.19 0  0.3759509328869369 0.19 0  0.3684826306498175 0.19 0  0.361014328412667 0.19 0  0.3535460261755617 0.19 0  0.3460777239384295 0.19 0  0.3386094217012945 0.19 0  0.3311411194641595 0.19 0  0.3236728172270245 0.19 0  0.3162045149898895 0.19 0  0.3087362127527544 0.19 0  0.3012679105156187 0.19 0  0.2937996082784807 0.19 0  0.2863313060413428 0.19 0  0.2788630038042048 0.19 0  0.2713947015670686 0.19 0  0.2639263993299336 0.19 0  0.2564580970927985 0.19 0  0.2607803159922026 0.2000727136295815 0  0.5887803774232762 0.2001272386983733 0  0.5745072403740523 0.2002044435018727 0  0.5511891430099709 0.2001122610077113 0  0.2751288526855082 0.20000000000002 0  0.5365194309847112 0.1999999999999436 0  0.2894621222999649 0.1998691686390484 0  0.5215828265105155 0.1999999999999228 0  0.3127789816668748 0.1998657885438805 0  0.3274069683451451 0.2000000000000796 0  0.5066462220363641 0.199999999999908 0  0.3650630746574081 0.199866017807523 0  0.476773013087985 0.1999999999998713 0  0.3417402379596385 0.1998691686391011 0  0.3796850840047755 0.200000000000134 0  0.4618364086138087 0.1999999999998546 0  0.4917096175621762 0.1999999999998808 0  0.3946216884789568 0.2000000000001512 0  0.446899804139621 0.1999999999998389 0  0.4089549580935208 0.1998691686391595 0  0.4322718174608562 0.200127451265745 0  0.4201487168029707 0.1999966199048527 0  0.3528922713220932 0.2000185703532356 0  0.5633122436674589 0.1999814296467508 0  0.3006558810093873 0.1999966199048318 0  0.5815926498168407 0.1966545283159175 0  0.2677053789419034 0.1964246479135325 0  0.5290511287476175 0.1970915826863981 0  0.5439877332217911 0.197091582686394 0  0.2825131256993216 0.2035478995978015 0  0.3199386661080599 0.202908417313604 0  0.4842413153250809 0.1970915826863873 0  0.5141145242734466 0.1970915826863843 0  0.3722167817676917 0.2029084173136195 0  0.4693047108508938 0.1970915826863783 0  0.3348752705822316 0.202908417313609 0  0.3871533862418661 0.2029084173136212 0  0.4543681063767183 0.1970915826863795 0  0.4991779197992749 0.1970915826863902 0  0.4020059614928624 0.203547899597858 0  0.4394315019025246 0.1970915826863714 0  0.2550657455369551 0.2034088125358657 0  0.2548908499171161 0.1966940311614271 0  0.5946539510196798 0.2024302972968126 0  0.267698176732111 0.2039977513680092 0  0.4261685417851465 0.196409292431739 0  0.3590076176283495 0.196411355804271 0  0.5571672426447437 0.2036011176410121 0  0.3066757059912147 0.1964092924317024 0  0.594380730180568 0.1966558399668133 0  0.4842413153245942 0.2040749161535287 0  0.4693047108503577 0.2040749161535231 0  0.3871533862424271 0.1959250838464788 0  0.372246743208829 0.1959123236376545 0  0.5141145242731028 0.2040749161535395 0  0.4543681063761134 0.2040749161535186 0  0.4019979587101454 0.1959834479682427 0  0.4394608940728603 0.2040870543693135 0  0.5439623148931173 0.2040856076781014 0  0.5290511287473298 0.2040749161535501 0  0.4991779197988497 0.2040749161535382 0  0.3347912413592433 0.1959225448935183 0  0.3199680582793816 0.1959123018030061 0  0.2825051229162361 0.1959834479681729 0  0.3590471196690275 0.2036304442587945 0  0.5571594006495384 0.1963685282145804 0  0.3067669986803285 0.203627750582736 0  0.4262598344738712 0.2036568242185335 0  0.5814408164431408 0.2041285596160068 0  0.5688286748170428 0.1961819304477386 0  0.4145905603063645 0.2038180695522843 0  0.3473758401724931 0.2038180695522752 0  0.2950977245128307 0.2038180695522663 0  0.5688286748170693 0.203818069552238 0  0.2950977245127906 0.1961819304477774 0  0.3473758401723931 0.1961819304478349 0  0.4145905603061963 0.1961819304479011 0  0.2601812407614425 0.2056861609747042
[...]
<PointData  Vectors="f_46-2"> 
<DataArray  type="Float64"  Name="f_46-2"  NumberOfComponents="3" format="ascii">0.0000000000000000e+00 0.0000000000000000e+00 0.0000000000000000e+00  0.0000000000000000e+00 0.0000000000000000e+00 0.0000000000000000e+00  0.0000000000000000e+00 0.0000000000000000e+00 0.0000000000000000e+00  0.0000000000000000e+00 0.0000000000000000e+00 0.0000000000000000e+00  1.5249856376239292e-05 -3.4004514622962880e-04 0.0000000000000000e+00  4.3755891883430442e-05 -3.4074063190869070e-04 0.0000000000000000e+00  0.0000000000000000e+00 0.0000000000000000e+00 0.0000000000000000e+00  0.0000000000000000e+00 0.0000000000000000e+00 0.0000000000000000e+00  0.0000000000000000e+00 0.0000000000000000e+00 0.0000000000000000e+00  0.0000000000000000e+00 0.0000000000000000e+00 0.0000000000000000e+00  2.9205139909249407e-05 -3.4039251748735528e-04 0.0000000000000000e+00  0.0000000000000000e+00 0.0000000000000000e+00 0.0000000000000000e+00  0.0000000000000000e+00 0.0000000000000000e+00 0.0000000000000000e+00  0.0000000000000000e+00 0.0000000000000000e+00 0.0000000000000000e+00  0.0000000000000000e+00 0.0000000000000000e+00 0.0000000000000000e+00  0.0000000000000000e+00 0.0000000000000000e+00 0.0000000000000000e+00  0.0000000000000000e+00 0.0000000000000000e+00 0.0000000000000000e+00  0.0000000000000000e+00 0.0000000000000000e+00 0.0000000000000000e+00  0.0000000000000000e+00 0.0000000000000000e+00 0.0000000000000000e+00  0.0000000000000000e+00 0.0000000000000000e+00 0.0000000000000000e+00  0.0000000000000000e+00 0.0000000000000000e+00 0.0000000000000000e+00  0.0000000000000000e+00 0.0000000000000000e+00 0.0000000000000000e+00  0.0000000000000000e+00 0.0000000000000000e+00 0.0000000000000000e+00  0.0000000000000000e+00 0.0000000000000000e+00 0.0000000000000000e+00  0.0000000000000000e+00 0.0000000000000000e+00 0.0000000000000000e+00  0.0000000000000000e+00 0.0000000000000000e+00 0.0000000000000000e+00  0.0000000000000000e+00 0.0000000000000000e+00 0.0000000000000000e+00  0.0000000000000000e+00 0.0000000000000000e+00 0.0000000000000000e+00  0.0000000000000000e+00 0.0000000000000000e+00 0.0000000000000000e+00  0.0000000000000000e+00 0.0000000000000000e+00 0.0000000000000000e+00  0.0000000000000000e+00 0.0000000000000000e+00 0.0000000000000000e+00  0.0000000000000000e+00 0.0000000000000000e+00 0.0000000000000000e+00  0.0000000000000000e+00 0.0000000000000000e+00 0.0000000000000000e+00  0.0000000000000000e+00 0.0000000000000000e+00 0.0000000000000000e+00  0.0000000000000000e+00 0.0000000000000000e+00 0.0000000000000000e+00  -3.4713612294484582e-14 0.0000000000000000e+00 0.0000000000000000e+00  0.0000000000000000e+00 0.0000000000000000e+00 0.0000000000000000e+00  0.0000000000000000e+00 0.0000000000000000e+00 0.0000000000000000e+00  0.0000000000000000e+00 0.0000000000000000e+00 0.0000000000000000e+00  0.0000000000000000e+00 0.0000000000000000e+00 0.0000000000000000e+00  0.0000000000000000e+00 0.0000000000000000e+00 0.0000000000000000e+00  0.0000000000000000e+00 0.0000000000000000e+00 0.0000000000000000e+00  0.0000000000000000e+00 0.0000000000000000e+00 0.0000000000000000e+00  0.0000000000000000e+00 0.0000000000000000e+00 0.0000000000000000e+00  0.0000000000000000e+00 0.0000000000000000e+00 0.0000000000000000e+00  0.0000000000000000e+00 0.0000000000000000e+00 0.0000000000000000e+00  0.0000000000000000e+00 0.0000000000000000e+00 0.0000000000000000e+00  0.0000000000000000e+00 0.0000000000000000e+00 0.0000000000000000e+00  0.0000000000000000e+00 0.0000000000000000e+00 0.0000000000000000e+00  0.0000000000000000e+00 0.0000000000000000e+00 0.0000000000000000e+00  0.0000000000000000e+00 0.0000000000000000e+00 0.0000000000000000e+00  0.0000000000000000e+00 0.0000000000000000e+00 0.0000000000000000e+00  0.0000000000000000e+00 0.0000000000000000e+00 0.0000000000000000e+00  0.0000000000000000e+00 0.0000000000000000e+00 0.0000000000000000e+00  0.0000000000000000e+00 0.0000000000000000e+00 0.0000000000000000e+00  0.0000000000000000e+00 0.0000000000000000e+00 0.0000000000000000e+00  0.0000000000000000e+00 0.0000000000000000e+00 0.0000000000000000e+00  0.0000000000000000e+00 0.0000000000000000e+00 0.0000000000000000e+00  0.0000000000000000e+00 0.0000000000000000e+00 0.0000000000000000e+00  0.0000000000000000e+00 0.0000000000000000e+00 0.0000000000000000e+00  0.0000000000000000e+00 0.0000000000000000e+00 0.0000000000000000e+00  0.0000000000000000e+00 0.0000000000000000e+00 0.0000000000000000e+00  0.0000000000000000e+00 0.0000000000000000e+00 0.0000000000000000e+00  0.0000000000000000e+00 0.0000000000000000e+00 0.0000000000000000e+00  0.0000000000000000e+00 0.0000000000000000e+00 0.0000000000000000e+00  0.0000000000000000e+00 0.0000000000000000e+00 0.0000000000000000e+00  0.0000000000000000e+00 0.0000000000000000e+00 0.0000000000000000e+00  0.0000000000000000e+00 0.0000000000000000e+00 0.0000000000000000e+00  0.0000000000000000e+00 0.0000000000000000e+00 0.0000000000000000e+00  0.0000000000000000e+00 0.0000000000000000e+00 0.0000000000000000e+00  0.0000000000000000e+00 0.0000000000000000e+00 0.0000000000000000e+00  0.0000000000000000e+00 0.0000000000000000e+00 0.0000000000000000e+00  0.0000000000000000e+00 0.0000000000000000e+00 0.0000000000000000e+00  0.0000000000000000e+00 0.0000000000000000e+00 0.0000000000000000e+00  0.0000000000000000e+00 0.0000000000000000e+00 0.0000000000000000e+00  0.0000000000000000e+00 0.0000000000000000e+00 0.0000000000000000e+00  0.0000000000000000e+00 0.0000000000000000e+00 0.0000000000000000e+00  0.0000000000000000e+00 0.0000000000000000e+00 0.0000000000000000e+00  0.0000000000000000e+00 0.0000000000000000e+00 0.0000000000000000e+00  0.0000000000000000e+00 0.0000000000000000e+00 0.0000000000000000e+00  0.0000000000000000e+00 0.0000000000000000e+00 0.0000000000000000e+00  0.0000000000000000e+00 0.0000000000000000e+00 0.0000000000000000e+00  0.0000000000000000e+00 0.0000000000000000e+00 0.0000000000000000e+00  0.0000000000000000e+00 0.0000000000000000e+00 0.0000000000000000e+00  0.0000000000000000e+00 0.0000000000000000e+00 0.0000000000000000e+00  0.0000000000000000e+00 0.0000000000000000e+00 0.0000000000000000e+00  0.0000000000000000e+00 0.0000000000000000e+00 0.0000000000000000e+00  0.0000000000000000e+00 0.0000000000000000e+00 0.0000000000000000e+00  -1.5204184111524111e-13 0.0000000000000000e+00 0.0000000000000000e+00  0.0000000000000000e+00 0.0000000000000000e+00 0.0000000000000000e+00  0.0000000000000000e+00 0.0000000000000000e+00 0.0000000000000000e+00  0.0000000000000000e+00 0.0000000000000000e+00 0.0000000000000000e+00  0.0000000000000000e+00 0.0000000000000000e+00 0.0000000000000000e+00  0.0000000000000000e+00 0.0000000000000000e+00 0.0000000000000000e+00  -1.5841310742082585e-13 1.4193624666534277e-17 0.0000000000000000e+00  0.0000000000000000e+00 0.0000000000000000e+00 0.0000000000000000e+00  0.0000000000000000e+00 0.0000000000000000e+00 0.0000000000000000e+00  0.0000000000000000e+00 0.0000000000000000e+00 0.0000000000000000e+00  0.0000000000000000e+00 0.0000000000000000e+00 0.0000000000000000e+00  0.0000000000000000e+00 0.0000000000000000e+00 0.0000000000000000e+00  0.0000000000000000e+00 0.0000000000000000e+00 0.0000000000000000e+00  0.0000000000000000e+00 0.0000000000000000e+00 0.0000000000000000e+00  0.0000000000000000e+00 0.0000000000000000e+00 0.0000000000000000e+00  0.0000000000000000e+00 0.0000000000000000e+00 0.0000000000000000e+00  0.0000000000000000e+00 0.0000000000000000e+00 0.0000000000000000e+00  -4.8692135696792406e-14 -3.0770080450015526e-14 0.0000000000000000e+00  0.0000000000000000e+00 0.0000000000000000e+00 0.0000000000000000e+00  0.0000000000000000e+00 0.0000000000000000e+00 0.0000000000000000e+00  0.0000000000000000e+00 0.0000000000000000e+00 0.0000000000000000e+00  0.0000000000000000e+00 0.0000000000000000e+00 0.0000000000000000e+00  1.8796075666268177e-14 0.0000000000000000e+00 0.0000000000000000e+00  0.0000000000000000e+00 0.0000000000000000e+00 0.0000000000000000e+00  0.0000000000000000e+00 0.0000000000000000e+00 0.0000000000000000e+00  0.0000000000000000e+00 0.0000000000000000e+00 0.0000000000000000e+00  0.0000000000000000e+00 0.0000000000000000e+00 0.0000000000000000e+00  0.0000000000000000e+00 0.0000000000000000e+00 0.0000000000000000e+00  0.0000000000000000e+00 0.0000000000000000e+00 0.0000000000000000e+00  0.0000000000000000e+00 0.0000000000000000e+00 0.0000000000000000e+00  0.0000000000000000e+00 0.0000000000000000e+00 0.0000000000000000e+00  0.0000000000000000e+00 0.0000000000000000e+00 0.0000000000000000e+00  0.0000000000000000e+00 0.0000000000000000e+00 0.0000000000000000e+00  0.0000000000000000e+00 0.0000000000000000e+00 0.0000000000000000e+00  0.0000000000000000e+00 0.0000000000000000e+00 0.0000000000000000e+00  0.0000000000000000e+00 0.0000000000000000e+00 0.0000000000000000e+00  0.0000000000000000e+00 0.0000000000000000e+00 0.0000000000000000e+00  0.0000000000000000e+00 0.0000000000000000e+00 0.0000000000000000e+00  0.0000000000000000e+00 0.0000000000000000e+00 0.0000000000000000e+00  0.0000000000000000e+00 0.0000000000000000e+00 0.0000000000000000e+00  0.0000000000000000e+00 0.0000000000000000e+00 0.0000000000000000e+00  0.0000000000000000e+00 0.0000000000000000e+00 0.0000000000000000e+00  0.0000000000000000e+00 0.0000000000000000e+00 0.0000000000000000e+00  0.0000000000000000e+00 0.0000000000000000e+00 0.0000000000000000e+00  0.0000000000000000e+00 0.0000000000000000e+00 0.0000000000000000e+00  0.0000000000000000e+00 0.0000000000000000e+00 0.0000000000000000e+00  0.0000000000000000e+00 0.0000000000000000e+00 0.0000000000000000e+00  0.0000000000000000e+00 0.0000000000000000e+00 0.0000000000000000e+00  0.0000000000000000e+00 0.0000000000000000e+00 0.0000000000000000e+00  0.0000000000000000e+00 0.0000000000000000e+00 0.0000000000000000e+00  0.0000000000000000e+00 0.0000000000000000e+00 0.0000000000000000e+00  0.0000000000000000e+00 0.0000000000000000e+00 0.0000000000000000e+00  0.0000000000000000e+00 0.0000000000000000e+00 0.0000000000000000e+00  0.0000000000000000e+00 0.0000000000000000e+00 0.0000000000000000e+00  3.9463898434365886e-13 2.1025724665157420e-13 0.0000000000000000e+00  1.0317208541587552e-06 -1.0257508016224419e-06 0.0000000000000000e+00  2.2285047963850781e-06 -1.4266547381791927e-06 0.0000000000000000e+00  3.4929834539556741e-06 -2.1245383753164796e-06 0.0000000000000000e+00  4.8799500795765708e-06 -3.1649203058663307e-06 0.0000000000000000e+00  6.2358502529135482e-06 -4.5880477659857425e-06 0.0000000000000000e+00  7.7206098153517905e-06 -6.4350838929255936e-06 0.0000000000000000e+00  9.1179353415321872e-06 -8.6297784020050891e-06 0.0000000000000000e+00  1.0539706559979768e-05 -1.1305678435222815e-05 0.0000000000000000e+00  1.2082296113813637e-05 -1.4370232987763861e-05 0.0000000000000000e+00  1.3491235253754108e-05 -1.7865896232962660e-05 0.0000000000000000e+00  1.5051956837032718e-05 -2.1800467962342028e-05 0.0000000000000000e+00  1.6454569693641256e-05 -2.6165904529751665e-05 0.0000000000000000e+00  1.7977984761998570e-05 -3.0961093104923860e-05 0.0000000000000000e+00  1.9369139375512264e-05 -3.6117732156058708e-05 0.0000000000000000e+00  2.0748601750283186e-05 -4.1736067607283509e-05 0.0000000000000000e+00  2.2206323553849942e-05 -4.7714378609584104e-05 0.0000000000000000e+00  2.3507368823289913e-05 -5.4067547617491768e-05 0.0000000000000000e+00  2.4902178969736183e-05 -6.0806551710400320e-05 0.0000000000000000e+00  2.6132892268924619e-05 -6.7882121574486438e-05 0.0000000000000000e+00  2.7434007383478898e-05 -7.5298910210788356e-05 0.0000000000000000e+00  2.8606519661599641e-05 -8.3028549088436251e-05 0.0000000000000000e+00  2.9803222211379925e-05 -9.1080015645569057e-05 0.0000000000000000e+00  3.0885390408849034e-05 -9.9365007688307749e-05 0.0000000000000000e+00  3.1925998986296379e-05 -1.0795205183201746e-04 0.0000000000000000e+00  3.2981712412130280e-05 -1.1675014624066799e-04 0.0000000000000000e+00  3.3937596222301358e-05 -1.2578027192787885e-04 0.0000000000000000e+00  3.4862636951728787e-05 -1.3503672928182980e-04 0.0000000000000000e+00  3.5718850256800614e-05 -1.4445245145472540e-04 0.0000000000000000e+00  3.6540635584782659e-05 -1.5406533644466401e-04 0.0000000000000000e+00  3.7297669049826648e-05 -1.6380257283976277e-04 0.0000000000000000e+00  3.8018526303291117e-05 -1.7370318225303500e-04 0.0000000000000000e+00  3.8678602335450781e-05 -1.8369591298311082e-04 0.0000000000000000e+00  3.9301673464775269e-05 -1.9382128650546505e-04 0.0000000000000000e+00  3.9868744172814630e-05 -2.0401029093974573e-04 0.0000000000000000e+00  4.0397222200646988e-05 -2.1430554366411080e-04 0.0000000000000000e+00  4.0875210073395464e-05 -2.2464099994241291e-04 0.0000000000000000e+00  4.1315857336388968e-05 -2.3505831077283668e-04 0.0000000000000000e+00  4.1710277186774353e-05 -2.4549717930393765e-04 0.0000000000000000e+00  4.2067573152179548e-05 -2.5599858168363942e-04 0.0000000000000000e+00  4.2381128400767225e-05 -2.6650573822237336e-04 0.0000000000000000e+00  4.2654781973235156e-05 -2.7705417443770104e-04 0.0000000000000000e+00  4.2894061670366879e-05 -2.8760917745016240e-04 0.0000000000000000e+00  4.3094826402169994e-05 -2.9818325507729619e-04 0.0000000000000000e+00  4.3275483218631851e-05 -3.0876444358653534e-04 0.0000000000000000e+00  4.3414368584036815e-05 -3.1934134133708620e-04 0.0000000000000000e+00  4.3554731707927975e-05 -3.2995957858104685e-04 0.0000000000000000e+00  3.6379118357193023e-05 -3.4056123924924712e-04 0.0000000000000000e+00  2.2139747326062500e-05 -3.4022773231356517e-04 0.0000000000000000e+00  1.5068216118397965e-05 -3.2955021667963931e-04 0.0000000000000000e+00  1.4955438991958799e-05 -3.1889456611527034e-04 0.0000000000000000e+00  1.4840549985769104e-05 -3.0822350279948563e-04 0.0000000000000000e+00  1.4696327101968681e-05 -2.9757594503776463e-04 0.0000000000000000e+00  1.4532451284137972e-05 -2.8693776764116609e-04 0.0000000000000000e+00  1.4338633223790191e-05 -2.7631642409900849e-04 0.0000000000000000e+00  1.4131457641927755e-05 -2.6571770788953194e-04 0.0000000000000000e+00  1.3889026339027996e-05 -2.5513066157000110e-04 0.0000000000000000e+00  1.3637147851552014e-05 -2.4459309004719131e-04 0.0000000000000000e+00  1.3351761402774825e-05 -2.3407436508945622e-04 0.0000000000000000e+00  1.3066183371926367e-05 -2.2362112757398289e-04 0.0000000000000000e+00  1.2744318172722410e-05 -2.1320576284911298e-04 0.0000000000000000e+00  1.2432047413203244e-05 -2.0287549083337675e-04 0.0000000000000000e+00  1.2079161946608265e-05 -1.9260734820956727e-04 0.0000000000000000e+00  1.1747873256510749e-05 -1.8244780319169037e-04 0.0000000000000000e+00  1.1369370491069626e-05 -1.7237779231672783e-04 0.0000000000000000e+00  1.1025144531322063e-05 -1.6244409938952843e-04 0.0000000000000000e+00  1.0626390537048011e-05 -1.5263151197976462e-04 0.0000000000000000e+00  1.0275762494356870e-05 -1.4298684179638469e-04 0.0000000000000000e+00  9.8620530615179580e-06 -1.3349869902800843e-04 0.0000000000000000e+00  9.5126988411150101e-06 -1.2421381344222178e-04 0.0000000000000000e+00  9.0904282974938904e-06 -1.1512499807349583e-04 0.0000000000000000e+00  8.7374104855473216e-06 -1.0627514244051366e-04 0.0000000000000000e+00  8.3251127430165903e-06 -9.7645349332362290e-05 0.0000000000000000e+00  7.9071294687520448e-06 -8.9322892432763644e-05 0.0000000000000000e+00  7.5606385026604089e-06 -8.1228654563804094e-05 0.0000000000000000e+00  7.1626199552326269e-06 -7.3464021572658333e-05 0.0000000000000000e+00  6.8056556951640760e-06 -6.6013869585627714e-05 0.0000000000000000e+00  6.4156451350383468e-06 -5.8903990656178342e-05 0.0000000000000000e+00  6.0638568785442239e-06 -5.2150721704844575e-05 0.0000000000000000e+00  5.6809306781889788e-06 -4.5753221404330857e-05 0.0000000000000000e+00  5.3735936136918067e-06 -3.9786235234346414e-05 0.0000000000000000e+00  4.9787415092171149e-06 -3.4149638943492124e-05 0.0000000000000000e+00  4.5825956372459311e-06 -2.8989993571183796e-05 0.0000000000000000e+00  4.2844709925397235e-06 -2.4166733313304731e-05 0.0000000000000000e+00  3.9252177344992178e-06 -1.9815401571902669e-05 0.0000000000000000e+00  3.6086501672371134e-06 -1.5887884387553261e-05 0.0000000000000000e+00  3.2497431378310106e-06 -1.2383320466053396e-05 0.0000000000000000e+00  2.9646456978212273e-06 -9.3592108138939495e-06 0.0000000000000000e+00  2.5785113302639246e-06 -6.6935795466748505e-06 0.0000000000000000e+00  2.1808319985818140e-06 -4.5199232027132685e-06 0.0000000000000000e+00  1.8709306765042267e-06 -2.6843966819620336e-06 0.0000000000000000e+00  1.4731882243711539e-06 -1.2732780134493511e-06 0.0000000000000000e+00  1.1298412050836831e-06 -2.5617353350958858e-07 0.0000000000000000e+00  7.1353287231370919e-07 3.9385152782296777e-07 0.0000000000000000e+00  3.7663227593856703e-07 6.5817254510698930e-07 0.0000000000000000e+00  9.8558546584748530e-07 -1.2809078141212314e-07 0.0000000000000000e+00  2.9313099569113336e-05 -3.2440677052289344e-04 0.0000000000000000e+00  2.9238136302674310e-05 -3.0410023400937602e-04 0.0000000000000000e+00  2.8485097186202302e-05 -2.7100608636205267e-04 0.0000000000000000e+00  2.7361474588202760e-06 -1.4219627550167475e-06 0.0000000000000000e+00  2.7777671582042404e-05 -2.5027621561769640e-04 0.0000000000000000e+00  4.3995427805031780e-06 -4.0767032176999944e-06 0.0000000000000000e+00  2.7104621499491198e-05 -2.2930680173655258e-04 0.0000000000000000e+00  7.1769623892311374e-06 -1.1632826577378480e-05 0.0000000000000000e+00  9.0068955719898243e-06 -1.8515371880820102e-05 0.0000000000000000e+00  2.6313324348563748e-05 -2.0854094323368526e-04 0.0000000000000000e+00  1.3404573304083173e-05 -4.3681538496255884e-05 0.0000000000000000e+00  2.4381633274948122e-05 -1.6798066909955560e-04 0.0000000000000000e+00  1.0659074371231032e-05 -2.6834944369542870e-05 0.0000000000000000e+00  1.5194469447406938e-05 -5.6205478603252470e-05 0.0000000000000000e+00  2.3245322875740794e-05 -1.4840752121144998e-04 0.0000000000000000e+00  2.5405113392772875e-05 -1.8806458779528314e-04 0.0000000000000000e+00  1.6853923534787219e-05 -7.0409809730399386e-05 0.0000000000000000e+00  2.1998146242030243e-05 -1.2947934190060543e-04 0.0000000000000000e+00  1.8237942180926832e-05 -8.5265298412063863e-05 0.0000000000000000e+00  2.0829701966241655e-05 -1.1171589999401701e-04 0.0000000000000000e+00  1.9496656089539604e-05 -9.7685826209422991e-05 0.0000000000000000e+00  1.2084614410785004e-05 -3.4473941054733901e-05 0.0000000000000000e+00  2.8645923129344183e-05 -2.8819246281656030e-04 0.0000000000000000e+00  5.7663386836291066e-06 -7.2683078082735839e-06 0.0000000000000000e+00  2.4304226454403443e-05 -3.1409889007939659e-04 0.0000000000000000e+00  1.4931177046315634e-06 -2.8124951800020356e-07 0.0000000000000000e+00  2.3384019469936370e-05 -2.3963787920235302e-04 0.0000000000000000e+00  2.3969767150771704e-05 -2.6069705411930827e-04 0.0000000000000000e+00  4.2904130244039401e-06 -2.9923794244033328e-06 0.0000000000000000e+00  9.4699060849757381e-06 -1.5124317399171888e-05 0.0000000000000000e+00  2.1015074337565838e-05 -1.7779018610424130e-04 0.0000000000000000e+00  2.2693773059302524e-05 -2.1874542272614891e-04 0.0000000000000000e+00  1.6816471888200888e-05 -4.9948732813715414e-05 0.0000000000000000e+00  2.0036394938936585e-05 -1.5793265512824251e-04 0.0000000000000000e+00  1.1596645850326691e-05 -2.2987316692347838e-05 0.0000000000000000e+00  1.8778981937102384e-05 -6.3440760343777498e-05 0.0000000000000000e+00  1.8971364142397437e-05 -1.3865170800496460e-04 0.0000000000000000e+00  2.1902478402327191e-05 -1.9809783987972173e-04 0.0000000000000000e+00  2.1303273638198556e-05 -7.8283679626847674e-05 0.0000000000000000e+00  1.7823068676931243e-05 -1.2008837900424523e-04 0.0000000000000000e+00  4.3270973785201913e-07 -1.9503531649709400e-07 0.0000000000000000e+00  2.9926937047046401e-07 2.1285894569318225e-07 0.0000000000000000e+00  3.2633962258504754e-05 -3.3282360304943254e-04 0.0000000000000000e+00  2.2496127774973961e-06 -1.0165153463368668e-06 0.0000000000000000e+00  1.59