<?xml version="1.0"?>
<VTKFile type="UnstructuredGrid"  version="0.1"  >
<UnstructuredGrid>
<Piece  NumberOfPoints="1419" NumberOfCells="2698">
<Points>
<DataArray  type="Float64"  NumberOfComponents="3"  format="ascii">0 0 0  0 0.41 0  2.5 0 0  2.5 0.41 0  0.6 0.19 0  0.6 0.21 0  0.25 0.2 0  0.15 0.2 0  0.2489897948556636 0.21 0  0.2489897948556636 0.19 0  0.6 0.2 0  0 0.3807142857143437 0  0 0.3514285714286952 0  0 0.3221428571430699 0  0 0.29285714285744 0  0 0.2635714285718054 0  0 0.2342857142861561 0  0 0.2050000000005308 0  0 0.175714285714732 0  0 0.1464285714289574 0  0 0.1171428571431897 0  0 0.08785714285737878 0  0 0.05857142857161107 0  0 0.02928571428580012 0  0.03015443760436003 0 0  0.06140001986583606 0 0  0.09377624077125973 0 0  0.1273239957535082 0 0  0.1620856860351972 0 0  0.1981052433264291 0 0  0.235428184091502 0 0  0.2741016576309132 0 0  0.3141745521465447 0 0  0.3556974926295285 0 0  0.3987229542472677 0 0  0.4433053055141081 0 0  0.4895008759286886 0 0  0.5373680609405097 0 0  0.5869673343216626 0 0  0.6383613676634521 0 0  0.6916151138468254 0 0  0.7467958595648856 0 0  0.8039733463919316 0 0  0.8632198139502143 0 0  0.9246101326867038 0 0  0.9882218810934433 0 0  1.054135445558498 0 0  1.122434100542598 0 0  1.193204177141305 0 0  1.266535089879536 0 0  1.342519516046404 0 0  1.421253448503939 0 0  1.502836389106271 0 0  1.587371439758838 0 0  1.674965418777374 0 0  1.765729001825544 0 0  1.859776908880082 0 0  1.957227977487062 0 0  2.058205329869943 0 0  2.162836591189951 0 0  2.271253957290865 0 0  2.383594446803425 0 0  2.5 0.1024999999997612 0  2.5 0.2049999999994743 0  2.5 0.3074999999997183 0  2.383594446803656 0.41 0  2.271253957291315 0.41 0  2.162836591190598 0.41 0  2.058205329870775 0.41 0  1.957227977488067 0.41 0  1.859776908881246 0.41 0  1.765729001826854 0.41 0  1.674965418778818 0.41 0  1.58737143976041 0.41 0  1.502836389107956 0.41 0  1.421253448505726 0.41 0  1.342519516048286 0.41 0  1.266535089881505 0.41 0  1.193204177143353 0.41 0  1.122434100544716 0.41 0  1.05413544556068 0.41 0  0.9882218810956305 0.41 0  0.9246101326886647 0.41 0  0.8632198139519631 0.41 0  0.8039733463934788 0.41 0  0.7467958595662458 0.41 0  0.6916151138480078 0.41 0  0.6383613676644679 0.41 0  0.5869673343225223 0.41 0  0.5373680609412221 0.41 0  0.4895008759292634 0.41 0  0.4433053055145528 0.41 0  0.3987229542475914 0.41 0  0.3556974926297398 0.41 0  0.3141745521466497 0.41 0  0.2741016576310038 0.41 0  0.2354281840915826 0.41 0  0.1981052433265003 0.41 0  0.1620856860352591 0.41 0  0.1273239957535623 0.41 0  0.09377624077128965 0.41 0  0.06140001986584975 0.41 0  0.03015443760436654 0.41 0  0.2497468076502589 0.2050254481002335 0  0.2497468076502614 0.1949745518997913 0  0.2469965252529372 0.1829317073451959 0  0.2439893735792749 0.1762316384219906 0  0.2400332147834255 0.1700443375285386 0  0.2352133972704371 0.1645032867342007 0  0.2296339016332438 0.1597280261969788 0  0.2234150974217223 0.1558215752574715 0  0.2166911463437691 0.1528682099456123 0  0.2096071079204251 0.1509316448471593 0  0.2023158100364996 0.1500536585536553 0  0.194974551899914 0.1502531923497262 0  0.1877417105387872 0.1515259415822739 0  0.1807733240461124 0.153844448527136 0  0.1742197252835808 0.15715869474974 0  0.1682222986673531 0.1613971801805478 0  0.162910430003803 0.1664684656256651 0  0.1583987151779087 0.1722631454351573 0  0.1547844879126891 0.178656207771761 0  0.1521457199348551 0.1855097315605723 0  0.1505393388476355 0.1926758619366523 0  0.1505393388476328 0.2073241380633295 0  0.1521457199348437 0.2144902684393899 0  0.1547844879126531 0.221343792228163 0  0.1583987151778488 0.2277368545647528 0  0.1629104300036858 0.2335315343742052 0  0.1682222986671726 0.2386028198193036 0  0.1742197252833576 0.2428413052501257 0  0.1807733240458683 0.2461555514727623 0  0.1877417105384929 0.2484740584176516 0  0.1949745518995776 0.2497468076502398 0  0.202315810036185 0.2499463414463592 0  0.2096071079201568 0.2490683551528932 0  0.2166911463435495 0.2471317900544655 0  0.2234150974215506 0.2441784247426195 0  0.2296339016331197 0.2402719738031125 0  0.2352133972703547 0.2354967132658811 0  0.2400332147833751 0.2299556624715287 0  0.2439893735792577 0.2237683615780412 0  0.246996525252926 0.2170682926548348 0  0.25645809709277 0.21 0  0.2639263993298655 0.21 0  0.271394701566961 0.21 0  0.2788630038040554 0.21 0  0.2863313060411479 0.21 0  0.2937996082782405 0.21 0  0.301267910515333 0.21 0  0.3087362127524279 0.21 0  0.3162045149895234 0.21 0  0.3236728172265972 0.21 0  0.3311411194636928 0.21 0  0.3386094217007701 0.21 0  0.3460777239378666 0.21 0  0.3535460261749672 0.21 0  0.3610143284120516 0.21 0  0.3684826306491596 0.21 0  0.3759509328862226 0.21 0  0.383419235123329 0.21 0  0.3908875373604028 0.21 0  0.3983558395975142 0.21 0  0.4058241418345938 0.21 0  0.4132924440716992 0.21 0  0.4207607463087888 0.21 0  0.4282290485459029 0.21 0  0.4356973507830418 0.21 0  0.4431656530201649 0.21 0  0.4506339552573136 0.21 0  0.4581022574944306 0.21 0  0.4655705597315852 0.21 0  0.4730388619686996 0.21 0  0.480507164205851 0.21 0  0.4879754664429498 0.21 0  0.4954437686800938 0.21 0  0.502912070917267 0.21 0  0.5103803731544119 0.21 0  0.5178486753915261 0.21 0  0.5253169776286404 0.21 0  0.5327852798657868 0.21 0  0.5402535821029386 0.21 0  0.54772188434007 0.21 0  0.5551901865771842 0.21 0  0.5626584888143201 0.21 0  0.5701267910514778 0.21 0  0.5775950932886138 0.21 0  0.5850633955257281 0.21 0  0.5925316977628483 0.21 0  0.6 0.2050000000000054 0  0.6 0.1950000000000217 0  0.5925316977628897 0.19 0  0.5850633955257988 0.19 0  0.5775950932887378 0.19 0  0.5701267910515998 0.19 0  0.5626584888145268 0.19 0  0.5551901865773963 0.19 0  0.547721884340339 0.19 0  0.5402535821032429 0.19 0  0.5327852798661811 0.19 0  0.5253169776290537 0.19 0  0.5178486753919799 0.19 0  0.5103803731549078 0.19 0  0.502912070917822 0.19 0  0.4954437686807294 0.19 0  0.4879754664436223 0.19 0  0.4805071642065402 0.19 0  0.4730388619694271 0.19 0  0.4655705597323621 0.19 0  0.4581022574952563 0.19 0  0.4506339552581777 0.19 0  0.4431656530210671 0.19 0  0.4356973507839815 0.19 0  0.4282290485468779 0.19 0  0.4207607463097617 0.19 0  0.4132924440726327 0.19 0  0.4058241418354857 0.19 0  0.3983558395983636 0.19 0  0.3908875373612097 0.19 0  0.3834192351240934 0.19 0  0.3759509328869369 0.19 0  0.3684826306498175 0.19 0  0.361014328412667 0.19 0  0.3535460261755617 0.19 0  0.3460777239384295 0.19 0  0.3386094217012945 0.19 0  0.3311411194641595 0.19 0  0.3236728172270245 0.19 0  0.3162045149898895 0.19 0  0.3087362127527544 0.19 0  0.3012679105156187 0.19 0  0.2937996082784807 0.19 0  0.2863313060413428 0.19 0  0.2788630038042048 0.19 0  0.2713947015670686 0.19 0  0.2639263993299336 0.19 0  0.2564580970927985 0.19 0  0.2607803159922026 0.2000727136295815 0  0.5887803774232762 0.2001272386983733 0  0.5745072403740523 0.2002044435018727 0  0.5511891430099709 0.2001122610077113 0  0.2751288526855082 0.20000000000002 0  0.5365194309847112 0.1999999999999436 0  0.2894621222999649 0.1998691686390484 0  0.5215828265105155 0.1999999999999228 0  0.3127789816668748 0.1998657885438805 0  0.3274069683451451 0.2000000000000796 0  0.5066462220363641 0.199999999999908 0  0.3650630746574081 0.199866017807523 0  0.476773013087985 0.1999999999998713 0  0.3417402379596385 0.1998691686391011 0  0.3796850840047755 0.200000000000134 0  0.4618364086138087 0.1999999999998546 0  0.4917096175621762 0.1999999999998808 0  0.3946216884789568 0.2000000000001512 0  0.446899804139621 0.1999999999998389 0  0.4089549580935208 0.1998691686391595 0  0.4322718174608562 0.200127451265745 0  0.4201487168029707 0.1999966199048527 0  0.3528922713220932 0.2000185703532356 0  0.5633122436674589 0.1999814296467508 0  0.3006558810093873 0.1999966199048318 0  0.5815926498168407 0.1966545283159175 0  0.2677053789419034 0.1964246479135325 0  0.5290511287476175 0.1970915826863981 0  0.5439877332217911 0.197091582686394 0  0.2825131256993216 0.2035478995978015 0  0.3199386661080599 0.202908417313604 0  0.4842413153250809 0.1970915826863873 0  0.5141145242734466 0.1970915826863843 0  0.3722167817676917 0.2029084173136195 0  0.4693047108508938 0.1970915826863783 0  0.3348752705822316 0.202908417313609 0  0.3871533862418661 0.2029084173136212 0  0.4543681063767183 0.1970915826863795 0  0.4991779197992749 0.1970915826863902 0  0.4020059614928624 0.203547899597858 0  0.4394315019025246 0.1970915826863714 0  0.2550657455369551 0.2034088125358657 0  0.2548908499171161 0.1966940311614271 0  0.5946539510196798 0.2024302972968126 0  0.267698176732111 0.2039977513680092 0  0.4261685417851465 0.196409292431739 0  0.3590076176283495 0.196411355804271 0  0.5571672426447437 0.2036011176410121 0  0.3066757059912147 0.1964092924317024 0  0.594380730180568 0.1966558399668133 0  0.4842413153245942 0.2040749161535287 0  0.4693047108503577 0.2040749161535231 0  0.3871533862424271 0.1959250838464788 0  0.372246743208829 0.1959123236376545 0  0.5141145242731028 0.2040749161535395 0  0.4543681063761134 0.2040749161535186 0  0.4019979587101454 0.1959834479682427 0  0.4394608940728603 0.2040870543693135 0  0.5439623148931173 0.2040856076781014 0  0.5290511287473298 0.2040749161535501 0  0.4991779197988497 0.2040749161535382 0  0.3347912413592433 0.1959225448935183 0  0.3199680582793816 0.1959123018030061 0  0.2825051229162361 0.1959834479681729 0  0.3590471196690275 0.2036304442587945 0  0.5571594006495384 0.1963685282145804 0  0.3067669986803285 0.203627750582736 0  0.4262598344738712 0.2036568242185335 0  0.5814408164431408 0.2041285596160068 0  0.5688286748170428 0.1961819304477386 0  0.4145905603063645 0.2038180695522843 0  0.3473758401724931 0.2038180695522752 0  0.2950977245128307 0.2038180695522663 0  0.5688286748170693 0.203818069552238 0  0.2950977245127906 0.1961819304477774 0  0.3473758401723931 0.1961819304478349 0  0.4145905603061963 0.1961819304479011 0  0.2601812407614425 0.2056861609747042
[...]
<PointData  Vectors="f_46-2"> 
<DataArray  type="Float64"  Name="f_46-2"  NumberOfComponents="3" format="ascii">0.0000000000000000e+00 0.0000000000000000e+00 0.0000000000000000e+00  0.0000000000000000e+00 0.0000000000000000e+00 0.0000000000000000e+00  0.0000000000000000e+00 0.0000000000000000e+00 0.0000000000000000e+00  0.0000000000000000e+00 0.0000000000000000e+00 0.0000000000000000e+00  1.5160058521958190e-05 -3.1274069152874517e-04 0.0000000000000000e+00  4.2218938755732303e-05 -3.1342459993250529e-04 0.0000000000000000e+00  0.0000000000000000e+00 0.0000000000000000e+00 0.0000000000000000e+00  0.0000000000000000e+00 0.0000000000000000e+00 0.0000000000000000e+00  0.0000000000000000e+00 0.0000000000000000e+00 0.0000000000000000e+00  0.0000000000000000e+00 0.0000000000000000e+00 0.0000000000000000e+00  2.8395247083510998e-05 -3.1308208068006935e-04 0.0000000000000000e+00  0.0000000000000000e+00 0.0000000000000000e+00 0.0000000000000000e+00  0.0000000000000000e+00 0.0000000000000000e+00 0.0000000000000000e+00  0.0000000000000000e+00 0.0000000000000000e+00 0.0000000000000000e+00  0.0000000000000000e+00 0.0000000000000000e+00 0.0000000000000000e+00  0.0000000000000000e+00 0.0000000000000000e+00 0.0000000000000000e+00  0.0000000000000000e+00 0.0000000000000000e+00 0.0000000000000000e+00  0.0000000000000000e+00 0.0000000000000000e+00 0.0000000000000000e+00  0.0000000000000000e+00 0.0000000000000000e+00 0.0000000000000000e+00  0.0000000000000000e+00 0.0000000000000000e+00 0.0000000000000000e+00  0.0000000000000000e+00 0.0000000000000000e+00 0.0000000000000000e+00  0.0000000000000000e+00 0.0000000000000000e+00 0.0000000000000000e+00  0.0000000000000000e+00 0.0000000000000000e+00 0.0000000000000000e+00  0.0000000000000000e+00 0.0000000000000000e+00 0.0000000000000000e+00  0.0000000000000000e+00 0.0000000000000000e+00 0.0000000000000000e+00  0.0000000000000000e+00 0.0000000000000000e+00 0.0000000000000000e+00  0.0000000000000000e+00 0.0000000000000000e+00 0.0000000000000000e+00  0.0000000000000000e+00 0.0000000000000000e+00 0.0000000000000000e+00  0.0000000000000000e+00 0.0000000000000000e+00 0.0000000000000000e+00  0.0000000000000000e+00 0.0000000000000000e+00 0.0000000000000000e+00  0.0000000000000000e+00 0.0000000000000000e+00 0.0000000000000000e+00  0.0000000000000000e+00 0.0000000000000000e+00 0.0000000000000000e+00  0.0000000000000000e+00 0.0000000000000000e+00 0.0000000000000000e+00  0.0000000000000000e+00 0.0000000000000000e+00 0.0000000000000000e+00  0.0000000000000000e+00 0.0000000000000000e+00 0.0000000000000000e+00  -4.6853185195271919e-15 6.4681301654141288e-18 0.0000000000000000e+00  0.0000000000000000e+00 0.0000000000000000e+00 0.0000000000000000e+00  0.0000000000000000e+00 0.0000000000000000e+00 0.0000000000000000e+00  0.0000000000000000e+00 0.0000000000000000e+00 0.0000000000000000e+00  0.0000000000000000e+00 0.0000000000000000e+00 0.0000000000000000e+00  0.0000000000000000e+00 0.0000000000000000e+00 0.0000000000000000e+00  0.0000000000000000e+00 0.0000000000000000e+00 0.0000000000000000e+00  0.0000000000000000e+00 0.0000000000000000e+00 0.0000000000000000e+00  0.0000000000000000e+00 0.0000000000000000e+00 0.0000000000000000e+00  0.0000000000000000e+00 0.0000000000000000e+00 0.0000000000000000e+00  0.0000000000000000e+00 0.0000000000000000e+00 0.0000000000000000e+00  0.0000000000000000e+00 0.0000000000000000e+00 0.0000000000000000e+00  0.0000000000000000e+00 0.0000000000000000e+00 0.0000000000000000e+00  0.0000000000000000e+00 0.0000000000000000e+00 0.0000000000000000e+00  0.0000000000000000e+00 0.0000000000000000e+00 0.0000000000000000e+00  0.0000000000000000e+00 0.0000000000000000e+00 0.0000000000000000e+00  0.0000000000000000e+00 0.0000000000000000e+00 0.0000000000000000e+00  0.0000000000000000e+00 0.0000000000000000e+00 0.0000000000000000e+00  0.0000000000000000e+00 0.0000000000000000e+00 0.0000000000000000e+00  0.0000000000000000e+00 0.0000000000000000e+00 0.0000000000000000e+00  0.0000000000000000e+00 0.0000000000000000e+00 0.0000000000000000e+00  0.0000000000000000e+00 0.0000000000000000e+00 0.0000000000000000e+00  0.0000000000000000e+00 0.0000000000000000e+00 0.0000000000000000e+00  0.0000000000000000e+00 0.0000000000000000e+00 0.0000000000000000e+00  0.0000000000000000e+00 0.0000000000000000e+00 0.0000000000000000e+00  0.0000000000000000e+00 0.0000000000000000e+00 0.0000000000000000e+00  0.0000000000000000e+00 0.0000000000000000e+00 0.0000000000000000e+00  0.0000000000000000e+00 0.0000000000000000e+00 0.0000000000000000e+00  0.0000000000000000e+00 0.0000000000000000e+00 0.0000000000000000e+00  0.0000000000000000e+00 0.0000000000000000e+00 0.0000000000000000e+00  0.0000000000000000e+00 0.0000000000000000e+00 0.0000000000000000e+00  0.0000000000000000e+00 0.0000000000000000e+00 0.0000000000000000e+00  0.0000000000000000e+00 0.0000000000000000e+00 0.0000000000000000e+00  0.0000000000000000e+00 0.0000000000000000e+00 0.0000000000000000e+00  0.0000000000000000e+00 0.0000000000000000e+00 0.0000000000000000e+00  0.0000000000000000e+00 0.0000000000000000e+00 0.0000000000000000e+00  0.0000000000000000e+00 0.0000000000000000e+00 0.0000000000000000e+00  0.0000000000000000e+00 0.0000000000000000e+00 0.0000000000000000e+00  0.0000000000000000e+00 0.0000000000000000e+00 0.0000000000000000e+00  0.0000000000000000e+00 0.0000000000000000e+00 0.0000000000000000e+00  0.0000000000000000e+00 0.0000000000000000e+00 0.0000000000000000e+00  0.0000000000000000e+00 0.0000000000000000e+00 0.0000000000000000e+00  0.0000000000000000e+00 0.0000000000000000e+00 0.0000000000000000e+00  0.0000000000000000e+00 0.0000000000000000e+00 0.0000000000000000e+00  0.0000000000000000e+00 0.0000000000000000e+00 0.0000000000000000e+00  0.0000000000000000e+00 0.0000000000000000e+00 0.0000000000000000e+00  0.0000000000000000e+00 0.0000000000000000e+00 0.0000000000000000e+00  0.0000000000000000e+00 0.0000000000000000e+00 0.0000000000000000e+00  0.0000000000000000e+00 0.0000000000000000e+00 0.0000000000000000e+00  0.0000000000000000e+00 0.0000000000000000e+00 0.0000000000000000e+00  0.0000000000000000e+00 0.0000000000000000e+00 0.0000000000000000e+00  0.0000000000000000e+00 0.0000000000000000e+00 0.0000000000000000e+00  0.0000000000000000e+00 0.0000000000000000e+00 0.0000000000000000e+00  5.2500409344326556e-13 0.0000000000000000e+00 0.0000000000000000e+00  0.0000000000000000e+00 0.0000000000000000e+00 0.0000000000000000e+00  0.0000000000000000e+00 0.0000000000000000e+00 0.0000000000000000e+00  0.0000000000000000e+00 0.0000000000000000e+00 0.0000000000000000e+00  0.0000000000000000e+00 0.0000000000000000e+00 0.0000000000000000e+00  0.0000000000000000e+00 0.0000000000000000e+00 0.0000000000000000e+00  -3.2992886428634519e-14 4.8192836084402611e-18 0.0000000000000000e+00  0.0000000000000000e+00 0.0000000000000000e+00 0.0000000000000000e+00  0.0000000000000000e+00 0.0000000000000000e+00 0.0000000000000000e+00  0.0000000000000000e+00 0.0000000000000000e+00 0.0000000000000000e+00  0.0000000000000000e+00 0.0000000000000000e+00 0.0000000000000000e+00  0.0000000000000000e+00 0.0000000000000000e+00 0.0000000000000000e+00  0.0000000000000000e+00 0.0000000000000000e+00 0.0000000000000000e+00  0.0000000000000000e+00 0.0000000000000000e+00 0.0000000000000000e+00  0.0000000000000000e+00 0.0000000000000000e+00 0.0000000000000000e+00  0.0000000000000000e+00 0.0000000000000000e+00 0.0000000000000000e+00  0.0000000000000000e+00 0.0000000000000000e+00 0.0000000000000000e+00  6.4098752803837990e-15 -3.8790737377909955e-14 0.0000000000000000e+00  0.0000000000000000e+00 0.0000000000000000e+00 0.0000000000000000e+00  0.0000000000000000e+00 0.0000000000000000e+00 0.0000000000000000e+00  0.0000000000000000e+00 0.0000000000000000e+00 0.0000000000000000e+00  0.0000000000000000e+00 0.0000000000000000e+00 0.0000000000000000e+00  -1.3801372160401208e-13 0.0000000000000000e+00 0.0000000000000000e+00  0.0000000000000000e+00 0.0000000000000000e+00 0.0000000000000000e+00  0.0000000000000000e+00 0.0000000000000000e+00 0.0000000000000000e+00  0.0000000000000000e+00 0.0000000000000000e+00 0.0000000000000000e+00  0.0000000000000000e+00 0.0000000000000000e+00 0.0000000000000000e+00  0.0000000000000000e+00 0.0000000000000000e+00 0.0000000000000000e+00  0.0000000000000000e+00 0.0000000000000000e+00 0.0000000000000000e+00  0.0000000000000000e+00 0.0000000000000000e+00 0.0000000000000000e+00  0.0000000000000000e+00 0.0000000000000000e+00 0.0000000000000000e+00  0.0000000000000000e+00 0.0000000000000000e+00 0.0000000000000000e+00  0.0000000000000000e+00 0.0000000000000000e+00 0.0000000000000000e+00  0.0000000000000000e+00 0.0000000000000000e+00 0.0000000000000000e+00  0.0000000000000000e+00 0.0000000000000000e+00 0.0000000000000000e+00  0.0000000000000000e+00 0.0000000000000000e+00 0.0000000000000000e+00  0.0000000000000000e+00 0.0000000000000000e+00 0.0000000000000000e+00  0.0000000000000000e+00 0.0000000000000000e+00 0.0000000000000000e+00  0.0000000000000000e+00 0.0000000000000000e+00 0.0000000000000000e+00  0.0000000000000000e+00 0.0000000000000000e+00 0.0000000000000000e+00  0.0000000000000000e+00 0.0000000000000000e+00 0.0000000000000000e+00  0.0000000000000000e+00 0.0000000000000000e+00 0.0000000000000000e+00  0.0000000000000000e+00 0.0000000000000000e+00 0.0000000000000000e+00  0.0000000000000000e+00 0.0000000000000000e+00 0.0000000000000000e+00  0.0000000000000000e+00 0.0000000000000000e+00 0.0000000000000000e+00  0.0000000000000000e+00 0.0000000000000000e+00 0.0000000000000000e+00  0.0000000000000000e+00 0.0000000000000000e+00 0.0000000000000000e+00  0.0000000000000000e+00 0.0000000000000000e+00 0.0000000000000000e+00  0.0000000000000000e+00 0.0000000000000000e+00 0.0000000000000000e+00  0.0000000000000000e+00 0.0000000000000000e+00 0.0000000000000000e+00  0.0000000000000000e+00 0.0000000000000000e+00 0.0000000000000000e+00  0.0000000000000000e+00 0.0000000000000000e+00 0.0000000000000000e+00  0.0000000000000000e+00 0.0000000000000000e+00 0.0000000000000000e+00  0.0000000000000000e+00 0.0000000000000000e+00 0.0000000000000000e+00  6.8244395729556228e-13 4.3693167682606890e-13 0.0000000000000000e+00  8.8088633826958941e-07 -8.8439724789730364e-07 0.0000000000000000e+00  1.9156531585124408e-06 -1.1278667450589738e-06 0.0000000000000000e+00  3.0383432971025512e-06 -1.5855287454013370e-06 0.0000000000000000e+00  4.2806826563692421e-06 -2.2989491171619272e-06 0.0000000000000000e+00  5.5159556392157866e-06 -3.3303933302344634e-06 0.0000000000000000e+00  6.8755738519223426e-06 -4.7168527835863704e-06 0.0000000000000000e+00  8.1707715224045332e-06 -6.4055148467087639e-06 0.0000000000000000e+00  9.4980044120741669e-06 -8.5197443112177631e-06 0.0000000000000000e+00  1.0943208579024105e-05 -1.0984674305768219e-05 0.0000000000000000e+00  1.2275767445952506e-05 -1.3846847799666360e-05 0.0000000000000000e+00  1.3757401383878761e-05 -1.7116364211300977e-05 0.0000000000000000e+00  1.5097862250474916e-05 -2.0795419269236835e-05 0.0000000000000000e+00  1.6560972177329305e-05 -2.4884870082393572e-05 0.0000000000000000e+00  1.7902736645270948e-05 -2.9324565858981727e-05 0.0000000000000000e+00  1.9239268592852075e-05 -3.4215492764426943e-05 0.0000000000000000e+00  2.0658504520262933e-05 -3.9461144149468838e-05 0.0000000000000000e+00  2.1929015543425650e-05 -4.5081457502580346e-05 0.0000000000000000e+00  2.3299213726212308e-05 -5.1086520311639902e-05 0.0000000000000000e+00  2.4509920231861864e-05 -5.7434686161749916e-05 0.0000000000000000e+00  2.5797522644325673e-05 -6.4127497885584111e-05 0.0000000000000000e+00  2.6959388417417181e-05 -7.1143709817723878e-05 0.0000000000000000e+00  2.8152262893498994e-05 -7.8490298596926972e-05 0.0000000000000000e+00  2.9230638006486593e-05 -8.6079590766729332e-05 0.0000000000000000e+00  3.0270842031300642e-05 -9.3984210178195892e-05 0.0000000000000000e+00  3.1330798659490599e-05 -1.0210921111047338e-04 0.0000000000000000e+00  3.2291333388701811e-05 -1.1048030735462686e-04 0.0000000000000000e+00  3.3223774303212642e-05 -1.1908835842759023e-04 0.0000000000000000e+00  3.4087439706036895e-05 -1.2786846420250660e-04 0.0000000000000000e+00  3.4918661992399131e-05 -1.3685655329741689e-04 0.0000000000000000e+00  3.5684318047531311e-05 -1.4598031014869488e-04 0.0000000000000000e+00  3.6415046975149034e-05 -1.5527752701208780e-04 0.0000000000000000e+00  3.7083764598004360e-05 -1.6467663835290354e-04 0.0000000000000000e+00  3.7716017246202651e-05 -1.7421720349694318e-04 0.0000000000000000e+00  3.8291005262999925e-05 -1.8382932851911070e-04 0.0000000000000000e+00  3.8827363692008211e-05 -1.9355492958326296e-04 0.0000000000000000e+00  3.9311760816430469e-05 -2.0332670283730960e-04 0.0000000000000000e+00  3.9758523119830447e-05 -2.1318593859768418e-04 0.0000000000000000e+00  4.0157724258521322e-05 -2.2307094804114804e-04 0.0000000000000000e+00  4.0519381562056178e-05 -2.3302247418950897e-04 0.0000000000000000e+00  4.0836160030319820e-05 -2.4298245037038138e-04 0.0000000000000000e+00  4.1112676968032699e-05 -2.5298648304658723e-04 0.0000000000000000e+00  4.1353852399136398e-05 -2.6299839308146204e-04 0.0000000000000000e+00  4.1556018266685758e-05 -2.7303086126097438e-04 0.0000000000000000e+00  4.1737938075137165e-05 -2.8307111677433339e-04 0.0000000000000000e+00  4.1877680613356126e-05 -2.9310772244608762e-04 0.0000000000000000e+00  4.2018407491538427e-05 -3.0318561855841427e-04 0.0000000000000000e+00  3.5206786515828792e-05 -3.1324805037814016e-04 0.0000000000000000e+00  2.1691007746481570e-05 -3.1292009888151480e-04 0.0000000000000000e+00  1.4979456969839712e-05 -3.0278417597601447e-04 0.0000000000000000e+00  1.4866969030499756e-05 -2.9266903789044801e-04 0.0000000000000000e+00  1.4752406958111880e-05 -2.8253887466842513e-04 0.0000000000000000e+00  1.4609359083055647e-05 -2.7243252524246006e-04 0.0000000000000000e+00  1.4446932144405724e-05 -2.6233617868347758e-04 0.0000000000000000e+00  1.4255309681619429e-05 -2.5225809869144190e-04 0.0000000000000000e+00  1.4051650544653662e-05 -2.4220411098630138e-04 0.0000000000000000e+00  1.3812949411520390e-05 -2.3216442039322144e-04 0.0000000000000000e+00  1.3566967237560131e-05 -2.2217690840627244e-04 0.0000000000000000e+00  1.3287287045967136e-05 -2.1221249098169132e-04 0.0000000000000000e+00  1.3010255212747793e-05 -2.0231769781283836e-04 0.0000000000000000e+00  1.2696502538227079e-05 -1.9246686455359809e-04 0.0000000000000000e+00  1.2396013277876585e-05 -1.8270690349176839e-04 0.0000000000000000e+00  1.2054116147698864e-05 -1.7301706577088269e-04 0.0000000000000000e+00  1.1738167403783691e-05 -1.6344333046192889e-04 0.0000000000000000e+00  1.1373773342876998e-05 -1.5396900056126550e-04 0.0000000000000000e+00  1.1048562738599253e-05 -1.4464008890306663e-04 0.0000000000000000e+00  1.0667276532275956e-05 -1.3544394426628835e-04 0.0000000000000000e+00  1.0339616306837430e-05 -1.2642597181821064e-04 0.0000000000000000e+00  9.9469306547924586e-06 -1.1757732488079050e-04 0.0000000000000000e+00  9.6242913436220161e-06 -1.0894305702874879e-04 0.0000000000000000e+00  9.2265305016870158e-06 -1.0051834878789387e-04 0.0000000000000000e+00  8.9033053442080659e-06 -9.2344315808392196e-05 0.0000000000000000e+00  8.5189604567888373e-06 -8.4401698641603005e-05 0.0000000000000000e+00  8.1301222993764621e-06 -7.6779304717820453e-05 0.0000000000000000e+00  7.8154990446463178e-06 -6.9393826457781203e-05 0.0000000000000000e+00  7.4483323386253878e-06 -6.2348784914008769e-05 0.0000000000000000e+00  7.1230779822332640e-06 -5.5625291853515087e-05 0.0000000000000000e+00  6.7636088534269586e-06 -4.9248612166690400e-05 0.0000000000000000e+00  6.4415253849759275e-06 -4.3232082855548738e-05 0.0000000000000000e+00  6.0865992995686255e-06 -3.7572551278275069e-05 0.0000000000000000e+00  5.8036556147139261e-06 -3.2340755815385192e-05 0.0000000000000000e+00  5.4317064488413084e-06 -2.7434632639106258e-05 0.0000000000000000e+00  5.0550057486961374e-06 -2.2993877114233246e-05 0.0000000000000000e+00  4.7691749651534846e-06 -1.8879094032796496e-05 0.0000000000000000e+00  4.4185882078779255e-06 -1.5214713347798251e-05 0.0000000000000000e+00  4.1021895480498056e-06 -1.1952684940528320e-05 0.0000000000000000e+00  3.7392471958474365e-06 -9.0830646338546726e-06 0.0000000000000000e+00  3.4341624195420488e-06 -6.6556900327414383e-06 0.0000000000000000e+00  3.0302072140906024e-06 -4.5512175098888404e-06 0.0000000000000000e+00  2.6066633696731498e-06 -2.8821404565285347e-06 0.0000000000000000e+00  2.2490316807164782e-06 -1.5074629457235388e-06 0.0000000000000000e+00  1.8029593687589721e-06 -4.8805407166691899e-07 0.0000000000000000e+00  1.3873481935199116e-06 2.0671480517552888e-07 0.0000000000000000e+00  9.0226783096682036e-07 6.1786846554087099e-07 0.0000000000000000e+00  4.6838672733075510e-07 7.2937295381772666e-07 0.0000000000000000e+00  9.4284133117108245e-07 -7.3940227922400389e-09 0.0000000000000000e+00  2.8492563204365561e-05 -2.9790799108569765e-04 0.0000000000000000e+00  2.8410826206800106e-05 -2.7863423891748182e-04 0.0000000000000000e+00  2.7664613403472986e-05 -2.4723298317448481e-04 0.0000000000000000e+00  2.6208215702002531e-06 -8.1800666062596535e-07 0.0000000000000000e+00  2.6966292910675931e-05 -2.2757727341788644e-04 0.0000000000000000e+00  4.2197942648068135e-06 -2.7153173000525687e-06 0.0000000000000000e+00  2.6294762493986397e-05 -2.0771486746697446e-04 0.0000000000000000e+00  6.8820116429166599e-06 -8.5954075578359954e-06 0.0000000000000000e+00  8.6275378515338410e-06 -1.4226528403829041e-05 0.0000000000000000e+00  2.5506054673606963e-05 -1.8807590249665375e-04 0.0000000000000000e+00  1.2863345973155800e-05 -3.5804561846547021e-05 0.0000000000000000e+00  2.3585540200005650e-05 -1.4985777460021048e-04 0.0000000000000000e+00  1.0221518133841005e-05 -2.1223749507340865e-05 0.0000000000000000e+00  1.4583494676840483e-05 -4.6884170517742186e-05 0.0000000000000000e+00  2.2459709650472544e-05 -1.3151357201393984e-04 0.0000000000000000e+00  2.4602157411392666e-05 -1.6875349235040968e-04 0.0000000000000000e+00  1.6192830085876965e-05 -5.9624346836899184e-05 0.0000000000000000e+00  2.1227856932944901e-05 -1.1386017601421660e-04 0.0000000000000000e+00  1.7548994051557386e-05 -7.3102059164234769e-05 0.0000000000000000e+00  2.0068706587405514e-05 -9.7392161389150543e-05 0.0000000000000000e+00  1.8770999120261447e-05 -8.4473027476097057e-05 0.0000000000000000e+00  1.1581985008948621e-05 -2.7788423000854893e-05 0.0000000000000000e+00  2.7834794764557014e-05 -2.6353813411489720e-04 0.0000000000000000e+00  5.5230008845141572e-06 -5.1526715332960912e-06 0.0000000000000000e+00  2.3734478529011945e-05 -2.8812155321107798e-04 0.0000000000000000e+00  1.5236648132739968e-06 3.0154722409185085e-08 0.0000000000000000e+00  2.2789714541733343e-05 -2.1749227443153995e-04 0.0000000000000000e+00  2.3371553728660299e-05 -2.3745171907657567e-04 0.0000000000000000e+00  3.9609165569194051e-06 -2.0066038360225331e-06 0.0000000000000000e+00  8.8854609146147538e-06 -1.1474262740384829e-05 0.0000000000000000e+00  2.0447421671159662e-05 -1.5907161637439084e-04 0.0000000000000000e+00  2.2105421518204953e-05 -1.9771620484536240e-04 0.0000000000000000e+00  1.5949601416823175e-05 -4.1354648676665887e-05 0.0000000000000000e+00  1.9484981052485318e-05 -1.4042262260809723e-04 0.0000000000000000e+00  1.0917410637957979e-05 -1.8004549678309257e-05 0.0000000000000000e+00  1.7859168006014838e-05 -5.3376034621807583e-05 0.0000000000000000e+00  1.8441347506424259e-05 -1.2239381781030739e-04 0.0000000000000000e+00  2.1322770921281294e-05 -1.7820851917073007e-04 0.0000000000000000e+00  2.0281179182752316e-05 -6.6775352587927574e-05 0.0000000000000000e+00  1.7320182764093420e-05 -1.0513037443180578e-04 0.0000000000000000e+00  3.9604848379209127e-07 -1.5609595861732288e-07 0.0000000000000000e+00  3.0251898890023511e-07 2.3279874044976192e-07 0.0000000000000000e+00  3.1647478680076273e-05 -3.0589901691735689e-04 0.0000000000000000e+00  2.0503597960195332e-06 -6.7462148956129791e-07 0.0000000000000000e+00  1.55469