<?xml version="1.0"?>
<VTKFile type="UnstructuredGrid"  version="0.1"  >
<UnstructuredGrid>
<Piece  NumberOfPoints="1419" NumberOfCells="2698">
<Points>
<DataArray  type="Float64"  NumberOfComponents="3"  format="ascii">0 0 0  0 0.41 0  2.5 0 0  2.5 0.41 0  0.6 0.19 0  0.6 0.21 0  0.25 0.2 0  0.15 0.2 0  0.2489897948556636 0.21 0  0.2489897948556636 0.19 0  0.6 0.2 0  0 0.3807142857143437 0  0 0.3514285714286952 0  0 0.3221428571430699 0  0 0.29285714285744 0  0 0.2635714285718054 0  0 0.2342857142861561 0  0 0.2050000000005308 0  0 0.175714285714732 0  0 0.1464285714289574 0  0 0.1171428571431897 0  0 0.08785714285737878 0  0 0.05857142857161107 0  0 0.02928571428580012 0  0.03015443760436003 0 0  0.06140001986583606 0 0  0.09377624077125973 0 0  0.1273239957535082 0 0  0.1620856860351972 0 0  0.1981052433264291 0 0  0.235428184091502 0 0  0.2741016576309132 0 0  0.3141745521465447 0 0  0.3556974926295285 0 0  0.3987229542472677 0 0  0.4433053055141081 0 0  0.4895008759286886 0 0  0.5373680609405097 0 0  0.5869673343216626 0 0  0.6383613676634521 0 0  0.6916151138468254 0 0  0.7467958595648856 0 0  0.8039733463919316 0 0  0.8632198139502143 0 0  0.9246101326867038 0 0  0.9882218810934433 0 0  1.054135445558498 0 0  1.122434100542598 0 0  1.193204177141305 0 0  1.266535089879536 0 0  1.342519516046404 0 0  1.421253448503939 0 0  1.502836389106271 0 0  1.587371439758838 0 0  1.674965418777374 0 0  1.765729001825544 0 0  1.859776908880082 0 0  1.957227977487062 0 0  2.058205329869943 0 0  2.162836591189951 0 0  2.271253957290865 0 0  2.383594446803425 0 0  2.5 0.1024999999997612 0  2.5 0.2049999999994743 0  2.5 0.3074999999997183 0  2.383594446803656 0.41 0  2.271253957291315 0.41 0  2.162836591190598 0.41 0  2.058205329870775 0.41 0  1.957227977488067 0.41 0  1.859776908881246 0.41 0  1.765729001826854 0.41 0  1.674965418778818 0.41 0  1.58737143976041 0.41 0  1.502836389107956 0.41 0  1.421253448505726 0.41 0  1.342519516048286 0.41 0  1.266535089881505 0.41 0  1.193204177143353 0.41 0  1.122434100544716 0.41 0  1.05413544556068 0.41 0  0.9882218810956305 0.41 0  0.9246101326886647 0.41 0  0.8632198139519631 0.41 0  0.8039733463934788 0.41 0  0.7467958595662458 0.41 0  0.6916151138480078 0.41 0  0.6383613676644679 0.41 0  0.5869673343225223 0.41 0  0.5373680609412221 0.41 0  0.4895008759292634 0.41 0  0.4433053055145528 0.41 0  0.3987229542475914 0.41 0  0.3556974926297398 0.41 0  0.3141745521466497 0.41 0  0.2741016576310038 0.41 0  0.2354281840915826 0.41 0  0.1981052433265003 0.41 0  0.1620856860352591 0.41 0  0.1273239957535623 0.41 0  0.09377624077128965 0.41 0  0.06140001986584975 0.41 0  0.03015443760436654 0.41 0  0.2497468076502589 0.2050254481002335 0  0.2497468076502614 0.1949745518997913 0  0.2469965252529372 0.1829317073451959 0  0.2439893735792749 0.1762316384219906 0  0.2400332147834255 0.1700443375285386 0  0.2352133972704371 0.1645032867342007 0  0.2296339016332438 0.1597280261969788 0  0.2234150974217223 0.1558215752574715 0  0.2166911463437691 0.1528682099456123 0  0.2096071079204251 0.1509316448471593 0  0.2023158100364996 0.1500536585536553 0  0.194974551899914 0.1502531923497262 0  0.1877417105387872 0.1515259415822739 0  0.1807733240461124 0.153844448527136 0  0.1742197252835808 0.15715869474974 0  0.1682222986673531 0.1613971801805478 0  0.162910430003803 0.1664684656256651 0  0.1583987151779087 0.1722631454351573 0  0.1547844879126891 0.178656207771761 0  0.1521457199348551 0.1855097315605723 0  0.1505393388476355 0.1926758619366523 0  0.1505393388476328 0.2073241380633295 0  0.1521457199348437 0.2144902684393899 0  0.1547844879126531 0.221343792228163 0  0.1583987151778488 0.2277368545647528 0  0.1629104300036858 0.2335315343742052 0  0.1682222986671726 0.2386028198193036 0  0.1742197252833576 0.2428413052501257 0  0.1807733240458683 0.2461555514727623 0  0.1877417105384929 0.2484740584176516 0  0.1949745518995776 0.2497468076502398 0  0.202315810036185 0.2499463414463592 0  0.2096071079201568 0.2490683551528932 0  0.2166911463435495 0.2471317900544655 0  0.2234150974215506 0.2441784247426195 0  0.2296339016331197 0.2402719738031125 0  0.2352133972703547 0.2354967132658811 0  0.2400332147833751 0.2299556624715287 0  0.2439893735792577 0.2237683615780412 0  0.246996525252926 0.2170682926548348 0  0.25645809709277 0.21 0  0.2639263993298655 0.21 0  0.271394701566961 0.21 0  0.2788630038040554 0.21 0  0.2863313060411479 0.21 0  0.2937996082782405 0.21 0  0.301267910515333 0.21 0  0.3087362127524279 0.21 0  0.3162045149895234 0.21 0  0.3236728172265972 0.21 0  0.3311411194636928 0.21 0  0.3386094217007701 0.21 0  0.3460777239378666 0.21 0  0.3535460261749672 0.21 0  0.3610143284120516 0.21 0  0.3684826306491596 0.21 0  0.3759509328862226 0.21 0  0.383419235123329 0.21 0  0.3908875373604028 0.21 0  0.3983558395975142 0.21 0  0.4058241418345938 0.21 0  0.4132924440716992 0.21 0  0.4207607463087888 0.21 0  0.4282290485459029 0.21 0  0.4356973507830418 0.21 0  0.4431656530201649 0.21 0  0.4506339552573136 0.21 0  0.4581022574944306 0.21 0  0.4655705597315852 0.21 0  0.4730388619686996 0.21 0  0.480507164205851 0.21 0  0.4879754664429498 0.21 0  0.4954437686800938 0.21 0  0.502912070917267 0.21 0  0.5103803731544119 0.21 0  0.5178486753915261 0.21 0  0.5253169776286404 0.21 0  0.5327852798657868 0.21 0  0.5402535821029386 0.21 0  0.54772188434007 0.21 0  0.5551901865771842 0.21 0  0.5626584888143201 0.21 0  0.5701267910514778 0.21 0  0.5775950932886138 0.21 0  0.5850633955257281 0.21 0  0.5925316977628483 0.21 0  0.6 0.2050000000000054 0  0.6 0.1950000000000217 0  0.5925316977628897 0.19 0  0.5850633955257988 0.19 0  0.5775950932887378 0.19 0  0.5701267910515998 0.19 0  0.5626584888145268 0.19 0  0.5551901865773963 0.19 0  0.547721884340339 0.19 0  0.5402535821032429 0.19 0  0.5327852798661811 0.19 0  0.5253169776290537 0.19 0  0.5178486753919799 0.19 0  0.5103803731549078 0.19 0  0.502912070917822 0.19 0  0.4954437686807294 0.19 0  0.4879754664436223 0.19 0  0.4805071642065402 0.19 0  0.4730388619694271 0.19 0  0.4655705597323621 0.19 0  0.4581022574952563 0.19 0  0.4506339552581777 0.19 0  0.4431656530210671 0.19 0  0.4356973507839815 0.19 0  0.4282290485468779 0.19 0  0.4207607463097617 0.19 0  0.4132924440726327 0.19 0  0.4058241418354857 0.19 0  0.3983558395983636 0.19 0  0.3908875373612097 0.19 0  0.3834192351240934 0.19 0  0.3759509328869369 0.19 0  0.3684826306498175 0.19 0  0.361014328412667 0.19 0  0.3535460261755617 0.19 0  0.3460777239384295 0.19 0  0.3386094217012945 0.19 0  0.3311411194641595 0.19 0  0.3236728172270245 0.19 0  0.3162045149898895 0.19 0  0.3087362127527544 0.19 0  0.3012679105156187 0.19 0  0.2937996082784807 0.19 0  0.2863313060413428 0.19 0  0.2788630038042048 0.19 0  0.2713947015670686 0.19 0  0.2639263993299336 0.19 0  0.2564580970927985 0.19 0  0.2607803159922026 0.2000727136295815 0  0.5887803774232762 0.2001272386983733 0  0.5745072403740523 0.2002044435018727 0  0.5511891430099709 0.2001122610077113 0  0.2751288526855082 0.20000000000002 0  0.5365194309847112 0.1999999999999436 0  0.2894621222999649 0.1998691686390484 0  0.5215828265105155 0.1999999999999228 0  0.3127789816668748 0.1998657885438805 0  0.3274069683451451 0.2000000000000796 0  0.5066462220363641 0.199999999999908 0  0.3650630746574081 0.199866017807523 0  0.476773013087985 0.1999999999998713 0  0.3417402379596385 0.1998691686391011 0  0.3796850840047755 0.200000000000134 0  0.4618364086138087 0.1999999999998546 0  0.4917096175621762 0.1999999999998808 0  0.3946216884789568 0.2000000000001512 0  0.446899804139621 0.1999999999998389 0  0.4089549580935208 0.1998691686391595 0  0.4322718174608562 0.200127451265745 0  0.4201487168029707 0.1999966199048527 0  0.3528922713220932 0.2000185703532356 0  0.5633122436674589 0.1999814296467508 0  0.3006558810093873 0.1999966199048318 0  0.5815926498168407 0.1966545283159175 0  0.2677053789419034 0.1964246479135325 0  0.5290511287476175 0.1970915826863981 0  0.5439877332217911 0.197091582686394 0  0.2825131256993216 0.2035478995978015 0  0.3199386661080599 0.202908417313604 0  0.4842413153250809 0.1970915826863873 0  0.5141145242734466 0.1970915826863843 0  0.3722167817676917 0.2029084173136195 0  0.4693047108508938 0.1970915826863783 0  0.3348752705822316 0.202908417313609 0  0.3871533862418661 0.2029084173136212 0  0.4543681063767183 0.1970915826863795 0  0.4991779197992749 0.1970915826863902 0  0.4020059614928624 0.203547899597858 0  0.4394315019025246 0.1970915826863714 0  0.2550657455369551 0.2034088125358657 0  0.2548908499171161 0.1966940311614271 0  0.5946539510196798 0.2024302972968126 0  0.267698176732111 0.2039977513680092 0  0.4261685417851465 0.196409292431739 0  0.3590076176283495 0.196411355804271 0  0.5571672426447437 0.2036011176410121 0  0.3066757059912147 0.1964092924317024 0  0.594380730180568 0.1966558399668133 0  0.4842413153245942 0.2040749161535287 0  0.4693047108503577 0.2040749161535231 0  0.3871533862424271 0.1959250838464788 0  0.372246743208829 0.1959123236376545 0  0.5141145242731028 0.2040749161535395 0  0.4543681063761134 0.2040749161535186 0  0.4019979587101454 0.1959834479682427 0  0.4394608940728603 0.2040870543693135 0  0.5439623148931173 0.2040856076781014 0  0.5290511287473298 0.2040749161535501 0  0.4991779197988497 0.2040749161535382 0  0.3347912413592433 0.1959225448935183 0  0.3199680582793816 0.1959123018030061 0  0.2825051229162361 0.1959834479681729 0  0.3590471196690275 0.2036304442587945 0  0.5571594006495384 0.1963685282145804 0  0.3067669986803285 0.203627750582736 0  0.4262598344738712 0.2036568242185335 0  0.5814408164431408 0.2041285596160068 0  0.5688286748170428 0.1961819304477386 0  0.4145905603063645 0.2038180695522843 0  0.3473758401724931 0.2038180695522752 0  0.2950977245128307 0.2038180695522663 0  0.5688286748170693 0.203818069552238 0  0.2950977245127906 0.1961819304477774 0  0.3473758401723931 0.1961819304478349 0  0.4145905603061963 0.1961819304479011 0  0.2601812407614425 0.2056861609747042
[...]
<PointData  Vectors="f_46-2"> 
<DataArray  type="Float64"  Name="f_46-2"  NumberOfComponents="3" format="ascii">0.0000000000000000e+00 0.0000000000000000e+00 0.0000000000000000e+00  0.0000000000000000e+00 0.0000000000000000e+00 0.0000000000000000e+00  0.0000000000000000e+00 0.0000000000000000e+00 0.0000000000000000e+00  0.0000000000000000e+00 0.0000000000000000e+00 0.0000000000000000e+00  1.7183494252530723e-05 -2.1168340972030063e-04 0.0000000000000000e+00  3.7694393401837069e-05 -2.1234946621630061e-04 0.0000000000000000e+00  0.0000000000000000e+00 0.0000000000000000e+00 0.0000000000000000e+00  0.0000000000000000e+00 0.0000000000000000e+00 0.0000000000000000e+00  0.0000000000000000e+00 0.0000000000000000e+00 0.0000000000000000e+00  0.0000000000000000e+00 0.0000000000000000e+00 0.0000000000000000e+00  2.7147534468337941e-05 -2.1201571591540790e-04 0.0000000000000000e+00  0.0000000000000000e+00 0.0000000000000000e+00 0.0000000000000000e+00  0.0000000000000000e+00 0.0000000000000000e+00 0.0000000000000000e+00  0.0000000000000000e+00 0.0000000000000000e+00 0.0000000000000000e+00  0.0000000000000000e+00 0.0000000000000000e+00 0.0000000000000000e+00  0.0000000000000000e+00 0.0000000000000000e+00 0.0000000000000000e+00  0.0000000000000000e+00 0.0000000000000000e+00 0.0000000000000000e+00  0.0000000000000000e+00 0.0000000000000000e+00 0.0000000000000000e+00  0.0000000000000000e+00 0.0000000000000000e+00 0.0000000000000000e+00  0.0000000000000000e+00 0.0000000000000000e+00 0.0000000000000000e+00  0.0000000000000000e+00 0.0000000000000000e+00 0.0000000000000000e+00  0.0000000000000000e+00 0.0000000000000000e+00 0.0000000000000000e+00  0.0000000000000000e+00 0.0000000000000000e+00 0.0000000000000000e+00  0.0000000000000000e+00 0.0000000000000000e+00 0.0000000000000000e+00  0.0000000000000000e+00 0.0000000000000000e+00 0.0000000000000000e+00  0.0000000000000000e+00 0.0000000000000000e+00 0.0000000000000000e+00  0.0000000000000000e+00 0.0000000000000000e+00 0.0000000000000000e+00  0.0000000000000000e+00 0.0000000000000000e+00 0.0000000000000000e+00  0.0000000000000000e+00 0.0000000000000000e+00 0.0000000000000000e+00  0.0000000000000000e+00 0.0000000000000000e+00 0.0000000000000000e+00  0.0000000000000000e+00 0.0000000000000000e+00 0.0000000000000000e+00  0.0000000000000000e+00 0.0000000000000000e+00 0.0000000000000000e+00  0.0000000000000000e+00 0.0000000000000000e+00 0.0000000000000000e+00  0.0000000000000000e+00 0.0000000000000000e+00 0.0000000000000000e+00  0.0000000000000000e+00 0.0000000000000000e+00 0.0000000000000000e+00  -6.8586554781104901e-13 3.9294737166612470e-17 0.0000000000000000e+00  0.0000000000000000e+00 0.0000000000000000e+00 0.0000000000000000e+00  0.0000000000000000e+00 0.0000000000000000e+00 0.0000000000000000e+00  0.0000000000000000e+00 0.0000000000000000e+00 0.0000000000000000e+00  0.0000000000000000e+00 0.0000000000000000e+00 0.0000000000000000e+00  0.0000000000000000e+00 0.0000000000000000e+00 0.0000000000000000e+00  0.0000000000000000e+00 0.0000000000000000e+00 0.0000000000000000e+00  0.0000000000000000e+00 0.0000000000000000e+00 0.0000000000000000e+00  0.0000000000000000e+00 0.0000000000000000e+00 0.0000000000000000e+00  0.0000000000000000e+00 0.0000000000000000e+00 0.0000000000000000e+00  0.0000000000000000e+00 0.0000000000000000e+00 0.0000000000000000e+00  0.0000000000000000e+00 0.0000000000000000e+00 0.0000000000000000e+00  0.0000000000000000e+00 0.0000000000000000e+00 0.0000000000000000e+00  0.0000000000000000e+00 0.0000000000000000e+00 0.0000000000000000e+00  0.0000000000000000e+00 0.0000000000000000e+00 0.0000000000000000e+00  0.0000000000000000e+00 0.0000000000000000e+00 0.0000000000000000e+00  0.0000000000000000e+00 0.0000000000000000e+00 0.0000000000000000e+00  0.0000000000000000e+00 0.0000000000000000e+00 0.0000000000000000e+00  0.0000000000000000e+00 0.0000000000000000e+00 0.0000000000000000e+00  0.0000000000000000e+00 0.0000000000000000e+00 0.0000000000000000e+00  0.0000000000000000e+00 0.0000000000000000e+00 0.0000000000000000e+00  0.0000000000000000e+00 0.0000000000000000e+00 0.0000000000000000e+00  0.0000000000000000e+00 0.0000000000000000e+00 0.0000000000000000e+00  0.0000000000000000e+00 0.0000000000000000e+00 0.0000000000000000e+00  0.0000000000000000e+00 0.0000000000000000e+00 0.0000000000000000e+00  0.0000000000000000e+00 0.0000000000000000e+00 0.0000000000000000e+00  0.0000000000000000e+00 0.0000000000000000e+00 0.0000000000000000e+00  0.0000000000000000e+00 0.0000000000000000e+00 0.0000000000000000e+00  0.0000000000000000e+00 0.0000000000000000e+00 0.0000000000000000e+00  0.0000000000000000e+00 0.0000000000000000e+00 0.0000000000000000e+00  0.0000000000000000e+00 0.0000000000000000e+00 0.0000000000000000e+00  0.0000000000000000e+00 0.0000000000000000e+00 0.0000000000000000e+00  0.0000000000000000e+00 0.0000000000000000e+00 0.0000000000000000e+00  0.0000000000000000e+00 0.0000000000000000e+00 0.0000000000000000e+00  0.0000000000000000e+00 0.0000000000000000e+00 0.0000000000000000e+00  0.0000000000000000e+00 0.0000000000000000e+00 0.0000000000000000e+00  0.0000000000000000e+00 0.0000000000000000e+00 0.0000000000000000e+00  0.0000000000000000e+00 0.0000000000000000e+00 0.0000000000000000e+00  0.0000000000000000e+00 0.0000000000000000e+00 0.0000000000000000e+00  0.0000000000000000e+00 0.0000000000000000e+00 0.0000000000000000e+00  0.0000000000000000e+00 0.0000000000000000e+00 0.0000000000000000e+00  0.0000000000000000e+00 0.0000000000000000e+00 0.0000000000000000e+00  0.0000000000000000e+00 0.0000000000000000e+00 0.0000000000000000e+00  0.0000000000000000e+00 0.0000000000000000e+00 0.0000000000000000e+00  0.0000000000000000e+00 0.0000000000000000e+00 0.0000000000000000e+00  0.0000000000000000e+00 0.0000000000000000e+00 0.0000000000000000e+00  0.0000000000000000e+00 0.0000000000000000e+00 0.0000000000000000e+00  0.0000000000000000e+00 0.0000000000000000e+00 0.0000000000000000e+00  0.0000000000000000e+00 0.0000000000000000e+00 0.0000000000000000e+00  0.0000000000000000e+00 0.0000000000000000e+00 0.0000000000000000e+00  0.0000000000000000e+00 0.0000000000000000e+00 0.0000000000000000e+00  0.0000000000000000e+00 0.0000000000000000e+00 0.0000000000000000e+00  0.0000000000000000e+00 0.0000000000000000e+00 0.0000000000000000e+00  2.9917301054223421e-12 0.0000000000000000e+00 0.0000000000000000e+00  0.0000000000000000e+00 0.0000000000000000e+00 0.0000000000000000e+00  0.0000000000000000e+00 0.0000000000000000e+00 0.0000000000000000e+00  0.0000000000000000e+00 0.0000000000000000e+00 0.0000000000000000e+00  0.0000000000000000e+00 0.0000000000000000e+00 0.0000000000000000e+00  0.0000000000000000e+00 0.0000000000000000e+00 0.0000000000000000e+00  -6.2309078565965125e-13 1.1360050285170094e-18 0.0000000000000000e+00  0.0000000000000000e+00 0.0000000000000000e+00 0.0000000000000000e+00  0.0000000000000000e+00 0.0000000000000000e+00 0.0000000000000000e+00  0.0000000000000000e+00 0.0000000000000000e+00 0.0000000000000000e+00  0.0000000000000000e+00 0.0000000000000000e+00 0.0000000000000000e+00  0.0000000000000000e+00 0.0000000000000000e+00 0.0000000000000000e+00  0.0000000000000000e+00 0.0000000000000000e+00 0.0000000000000000e+00  0.0000000000000000e+00 0.0000000000000000e+00 0.0000000000000000e+00  0.0000000000000000e+00 0.0000000000000000e+00 0.0000000000000000e+00  0.0000000000000000e+00 0.0000000000000000e+00 0.0000000000000000e+00  0.0000000000000000e+00 0.0000000000000000e+00 0.0000000000000000e+00  -3.4047297353487245e-14 1.6360767743418763e-13 0.0000000000000000e+00  0.0000000000000000e+00 0.0000000000000000e+00 0.0000000000000000e+00  0.0000000000000000e+00 0.0000000000000000e+00 0.0000000000000000e+00  0.0000000000000000e+00 0.0000000000000000e+00 0.0000000000000000e+00  0.0000000000000000e+00 0.0000000000000000e+00 0.0000000000000000e+00  1.6754426458922769e-14 0.0000000000000000e+00 0.0000000000000000e+00  0.0000000000000000e+00 0.0000000000000000e+00 0.0000000000000000e+00  0.0000000000000000e+00 0.0000000000000000e+00 0.0000000000000000e+00  0.0000000000000000e+00 0.0000000000000000e+00 0.0000000000000000e+00  0.0000000000000000e+00 0.0000000000000000e+00 0.0000000000000000e+00  0.0000000000000000e+00 0.0000000000000000e+00 0.0000000000000000e+00  0.0000000000000000e+00 0.0000000000000000e+00 0.0000000000000000e+00  0.0000000000000000e+00 0.0000000000000000e+00 0.0000000000000000e+00  0.0000000000000000e+00 0.0000000000000000e+00 0.0000000000000000e+00  0.0000000000000000e+00 0.0000000000000000e+00 0.0000000000000000e+00  0.0000000000000000e+00 0.0000000000000000e+00 0.0000000000000000e+00  0.0000000000000000e+00 0.0000000000000000e+00 0.0000000000000000e+00  0.0000000000000000e+00 0.0000000000000000e+00 0.0000000000000000e+00  0.0000000000000000e+00 0.0000000000000000e+00 0.0000000000000000e+00  0.0000000000000000e+00 0.0000000000000000e+00 0.0000000000000000e+00  0.0000000000000000e+00 0.0000000000000000e+00 0.0000000000000000e+00  0.0000000000000000e+00 0.0000000000000000e+00 0.0000000000000000e+00  0.0000000000000000e+00 0.0000000000000000e+00 0.0000000000000000e+00  0.0000000000000000e+00 0.0000000000000000e+00 0.0000000000000000e+00  0.0000000000000000e+00 0.0000000000000000e+00 0.0000000000000000e+00  0.0000000000000000e+00 0.0000000000000000e+00 0.0000000000000000e+00  0.0000000000000000e+00 0.0000000000000000e+00 0.0000000000000000e+00  0.0000000000000000e+00 0.0000000000000000e+00 0.0000000000000000e+00  0.0000000000000000e+00 0.0000000000000000e+00 0.0000000000000000e+00  0.0000000000000000e+00 0.0000000000000000e+00 0.0000000000000000e+00  0.0000000000000000e+00 0.0000000000000000e+00 0.0000000000000000e+00  0.0000000000000000e+00 0.0000000000000000e+00 0.0000000000000000e+00  0.0000000000000000e+00 0.0000000000000000e+00 0.0000000000000000e+00  0.0000000000000000e+00 0.0000000000000000e+00 0.0000000000000000e+00  0.0000000000000000e+00 0.0000000000000000e+00 0.0000000000000000e+00  0.0000000000000000e+00 0.0000000000000000e+00 0.0000000000000000e+00  0.0000000000000000e+00 0.0000000000000000e+00 0.0000000000000000e+00  -2.7380223963467735e-14 -1.5148049565866075e-11 0.0000000000000000e+00  5.3001959860936180e-07 -5.7425407484071102e-07 0.0000000000000000e+00  1.1797556902403336e-06 -4.2904699174467334e-07 0.0000000000000000e+00  1.9661204922040679e-06 -2.7382473111830261e-07 0.0000000000000000e+00  2.8570862417243577e-06 -1.3875762965829443e-07 0.0000000000000000e+00  3.8007793607421374e-06 -1.3571913089699449e-07 0.0000000000000000e+00  4.8452407395592648e-06 -2.8711299672344067e-07 0.0000000000000000e+00  5.8866348195451638e-06 -5.9971598185318622e-07 0.0000000000000000e+00  6.9742938717840711e-06 -1.1584813196132503e-06 0.0000000000000000e+00  8.1591128219577420e-06 -1.9381303002759408e-06 0.0000000000000000e+00  9.2915589748037840e-06 -2.9875363640025728e-06 0.0000000000000000e+00  1.0547514478027405e-05 -4.3225866743021126e-06 0.0000000000000000e+00  1.1715868839777063e-05 -5.9654444344725365e-06 0.0000000000000000e+00  1.2993230185439741e-05 -7.9234768817794473e-06 0.0000000000000000e+00  1.4186385830416681e-05 -1.0161339549698262e-05 0.0000000000000000e+00  1.5386194736604973e-05 -1.2768757889718330e-05 0.0000000000000000e+00  1.6665449175852550e-05 -1.5674319022549215e-05 0.0000000000000000e+00  1.7828429626099514e-05 -1.8904136697564008e-05 0.0000000000000000e+00  1.9088154124059189e-05 -2.2470058780389668e-05 0.0000000000000000e+00  2.0214976516900253e-05 -2.6347334034451978e-05 0.0000000000000000e+00  2.1420199380692906e-05 -3.0536753789308723e-05 0.0000000000000000e+00  2.2518018679041305e-05 -3.5030386262616193e-05 0.0000000000000000e+00  2.3654357752652563e-05 -3.9835010434045325e-05 0.0000000000000000e+00  2.4687865247130470e-05 -4.4873757281370555e-05 0.0000000000000000e+00  2.5692055060370069e-05 -5.0220131860923571e-05 0.0000000000000000e+00  2.6722127275154821e-05 -5.5783405693372272e-05 0.0000000000000000e+00  2.7661953605235837e-05 -6.1595326209284908e-05 0.0000000000000000e+00  2.8580554519783052e-05 -6.7644300227659267e-05 0.0000000000000000e+00  2.9435739897235509e-05 -7.3874129015047890e-05 0.0000000000000000e+00  3.0264275400016201e-05 -8.0316565847875332e-05 0.0000000000000000e+00  3.1030279751635756e-05 -8.6905314668825904e-05 0.0000000000000000e+00  3.1765801447694408e-05 -9.3675011040994819e-05 0.0000000000000000e+00  3.2440722222910858e-05 -1.0055792542261429e-04 0.0000000000000000e+00  3.3082113769266434e-05 -1.0759090091104666e-04 0.0000000000000000e+00  3.3666772653982976e-05 -1.1470603588918025e-04 0.0000000000000000e+00  3.4214367559645556e-05 -1.2194302284241350e-04 0.0000000000000000e+00  3.4709245352222205e-05 -1.2923493921889888e-04 0.0000000000000000e+00  3.5167172537117213e-05 -1.3662171701393010e-04 0.0000000000000000e+00  3.5576340939891078e-05 -1.4404094482701012e-04 0.0000000000000000e+00  3.5948080155973075e-05 -1.5153243915383058e-04 0.0000000000000000e+00  3.6273449684770469e-05 -1.5903679673798943e-04 0.0000000000000000e+00  3.6558288558826747e-05 -1.6658956315418781e-04 0.0000000000000000e+00  3.6806258520015196e-05 -1.7415236521184518e-04 0.0000000000000000e+00  3.7014357857014002e-05 -1.8173803445966548e-04 0.0000000000000000e+00  3.7201905271220188e-05 -1.8933249353451199e-04 0.0000000000000000e+00  3.7346324248113939e-05 -1.9692410459985616e-04 0.0000000000000000e+00  3.7490994836688365e-05 -2.0455704641672497e-04 0.0000000000000000e+00  3.2321579542279805e-05 -2.1217737657636663e-04 0.0000000000000000e+00  2.2079724611431624e-05 -2.1185810992445459e-04 0.0000000000000000e+00  1.7000447628481895e-05 -2.0417017592781940e-04 0.0000000000000000e+00  1.6884896159128994e-05 -1.9649985572149577e-04 0.0000000000000000e+00  1.6767407192198505e-05 -1.8881493718713534e-04 0.0000000000000000e+00  1.6622598377349878e-05 -1.8115447213913247e-04 0.0000000000000000e+00  1.6458851408629590e-05 -1.7350510744746831e-04 0.0000000000000000e+00  1.6267057550030715e-05 -1.6587646572667857e-04 0.0000000000000000e+00  1.6065269087119675e-05 -1.5827449250773739e-04 0.0000000000000000e+00  1.5828915065969709e-05 -1.5069122418638115e-04 0.0000000000000000e+00  1.5588553988536154e-05 -1.4316449547058404e-04 0.0000000000000000e+00  1.5314373582768845e-05 -1.3566766387439473e-04 0.0000000000000000e+00  1.5046855869043986e-05 -1.2824661305277767e-04 0.0000000000000000e+00  1.4742305333948557e-05 -1.2087860388971825e-04 0.0000000000000000e+00  1.4455830416066716e-05 -1.1360918859136911e-04 0.0000000000000000e+00  1.4127204141621236e-05 -1.0642064670281381e-04 0.0000000000000000e+00  1.3829430260453851e-05 -9.9357067533016455e-05 0.0000000000000000e+00  1.3482062739973634e-05 -9.2404457956652856e-05 0.0000000000000000e+00  1.3178338093074199e-05 -8.5606239702180122e-05 0.0000000000000000e+00  1.2817352716080250e-05 -7.8952069990733450e-05 0.0000000000000000e+00  1.2513619185702172e-05 -7.2483534128602815e-05 0.0000000000000000e+00  1.2143623040827572e-05 -6.6193248953336632e-05 0.0000000000000000e+00  1.1845199575950680e-05 -6.0121895924857024e-05 0.0000000000000000e+00  1.1470849040798304e-05 -5.4264856872899764e-05 0.0000000000000000e+00  1.1169780283383624e-05 -4.8658165548519128e-05 0.0000000000000000e+00  1.0806725527898459e-05 -4.3280757968715291e-05 0.0000000000000000e+00  1.0437554159783349e-05 -3.8214917488380385e-05 0.0000000000000000e+00  1.0136359153436382e-05 -3.3377317862312218e-05 0.0000000000000000e+00  9.7810607245226596e-06 -2.8861253822292381e-05 0.0000000000000000e+00  9.4597424272866513e-06 -2.4645630880498435e-05 0.0000000000000000e+00  9.1011284992012120e-06 -2.0745080278282427e-05 0.0000000000000000e+00  8.7687316563705245e-06 -1.7170326371951691e-05 0.0000000000000000e+00  8.3995389583209000e-06 -1.3907409667283677e-05 0.0000000000000000e+00  8.0805013985963148e-06 -1.1013682736268014e-05 0.0000000000000000e+00  7.6777386798779746e-06 -8.3931125875206366e-06 0.0000000000000000e+00  7.2599124349731652e-06 -6.1533442971153236e-06 0.0000000000000000e+00  6.9029403707487264e-06 -4.1754126989553964e-06 0.0000000000000000e+00  6.4790763680638029e-06 -2.5424149949573551e-06 0.0000000000000000e+00  6.0638285932194401e-06 -1.2144692267101162e-06 0.0000000000000000e+00  5.5977981952570155e-06 -1.6053559380750574e-07 0.0000000000000000e+00  5.1450712394655298e-06 5.9169959768434386e-07 0.0000000000000000e+00  4.6109651573051480e-06 1.1410200747005218e-06 0.0000000000000000e+00  4.0419099470671256e-06 1.4367957637049783e-06 0.0000000000000000e+00  3.4809581033566932e-06 1.5731737926895810e-06 0.0000000000000000e+00  2.8417703301756892e-06 1.5565778885294937e-06 0.0000000000000000e+00  2.1764655344451098e-06 1.4145098360148261e-06 0.0000000000000000e+00  1.4617582584643302e-06 1.2123416037474692e-06 0.0000000000000000e+00  7.3559801766747721e-07 9.3966165862480889e-07 0.0000000000000000e+00  8.8040649517659919e-07 2.7902379549215888e-07 0.0000000000000000e+00  2.7196897160087240e-05 -2.0051441865560329e-04 0.0000000000000000e+00  2.7082120216443672e-05 -1.8591305372314923e-04 0.0000000000000000e+00  2.6355061766205117e-05 -1.6215422181302730e-04 0.0000000000000000e+00  2.4568895472737543e-06 6.9881970608132554e-07 0.0000000000000000e+00  2.5688262525615960e-05 -1.4732168422135452e-04 0.0000000000000000e+00  3.9737808098610379e-06 7.9570086032110448e-07 0.0000000000000000e+00  2.5013312698034637e-05 -1.3239137113188625e-04 0.0000000000000000e+00  6.4774112207213795e-06 -4.8945530285791742e-07 0.0000000000000000e+00  8.0852296783408329e-06 -2.5463198726373831e-06 0.0000000000000000e+00  2.4224722188932243e-05 -1.1771388405558990e-04 0.0000000000000000e+00  1.2092329200642715e-05 -1.3196316652502825e-05 0.0000000000000000e+00  2.2322045112821221e-05 -8.9531871991242742e-05 0.0000000000000000e+00  9.6104243457983320e-06 -5.6345671369146326e-06 0.0000000000000000e+00  1.3675239977270716e-05 -1.9576576688282662e-05 0.0000000000000000e+00  2.1217666970333472e-05 -7.6265855804137886e-05 0.0000000000000000e+00  2.3326209815638916e-05 -1.0338931369659775e-04 0.0000000000000000e+00  1.5196046592181417e-05 -2.7359432764938821e-05 0.0000000000000000e+00  2.0018150481121799e-05 -6.3723929926213710e-05 0.0000000000000000e+00  1.6521964299065663e-05 -3.5983665221543646e-05 0.0000000000000000e+00  1.8858492999017750e-05 -5.2280067038590690e-05 0.0000000000000000e+00  1.7652542093905704e-05 -4.3523749894329531e-05 0.0000000000000000e+00  1.0848964354960182e-05 -8.9175716466889908e-06 0.0000000000000000e+00  2.6573770009694168e-05 -1.7448423486934864e-04 0.0000000000000000e+00  5.1778929669629063e-06 4.0061833622656617e-07 0.0000000000000000e+00  2.3572164445752189e-05 -1.9308338241366698e-04 0.0000000000000000e+00  1.6959883705296983e-06 8.1423631912335288e-07 0.0000000000000000e+00  2.2471068275658174e-05 -1.3970280964481556e-04 0.0000000000000000e+00  2.3053380613455512e-05 -1.5474144806463218e-04 0.0000000000000000e+00  3.2709342516297967e-06 4.9176194880404256e-07 0.0000000000000000e+00  7.7002850410948711e-06 -1.6486606398493011e-06 0.0000000000000000e+00  2.0157649416460427e-05 -9.6227346605421988e-05 0.0000000000000000e+00  2.1790473228553870e-05 -1.2487323568314814e-04 0.0000000000000000e+00  1.4163401331498130e-05 -1.6448408605476656e-05 0.0000000000000000e+00  1.9218804632020224e-05 -8.2638285910897107e-05 0.0000000000000000e+00  9.5392013429529265e-06 -4.3051503963390469e-06 0.0000000000000000e+00  1.5948045845128966e-05 -2.3586587641910329e-05 0.0000000000000000e+00  1.8207352225239122e-05 -6.9706904167905816e-05 0.0000000000000000e+00  2.1017061983320558e-05 -1.1034533326014332e-04 0.0000000000000000e+00  1.8050871460562843e-05 -3.1998086733145860e-05 0.0000000000000000e+00  1.7127047508543337e-05 -5.7568175888751191e-05 0.0000000000000000e+00  3.1955316135862528e-07 -7.6884530993560402e-08 0.0000000000000000e+00  3.2822697648635362e-07 2.8291363437477141e-07 0.0000000000000000e+00  2.9601057285268926e-05 -2.0658108398423258e-04 0.0000000000000000e+00  1.6230275019958051e-06 1.5233657562212896e-07 0.0000000000000000e+00  1.563066146864119