<?xml version="1.0"?>
<VTKFile type="UnstructuredGrid"  version="0.1"  >
<UnstructuredGrid>
<Piece  NumberOfPoints="1419" NumberOfCells="2698">
<Points>
<DataArray  type="Float64"  NumberOfComponents="3"  format="ascii">0 0 0  0 0.41 0  2.5 0 0  2.5 0.41 0  0.6 0.19 0  0.6 0.21 0  0.25 0.2 0  0.15 0.2 0  0.2489897948556636 0.21 0  0.2489897948556636 0.19 0  0.6 0.2 0  0 0.3807142857143437 0  0 0.3514285714286952 0  0 0.3221428571430699 0  0 0.29285714285744 0  0 0.2635714285718054 0  0 0.2342857142861561 0  0 0.2050000000005308 0  0 0.175714285714732 0  0 0.1464285714289574 0  0 0.1171428571431897 0  0 0.08785714285737878 0  0 0.05857142857161107 0  0 0.02928571428580012 0  0.03015443760436003 0 0  0.06140001986583606 0 0  0.09377624077125973 0 0  0.1273239957535082 0 0  0.1620856860351972 0 0  0.1981052433264291 0 0  0.235428184091502 0 0  0.2741016576309132 0 0  0.3141745521465447 0 0  0.3556974926295285 0 0  0.3987229542472677 0 0  0.4433053055141081 0 0  0.4895008759286886 0 0  0.5373680609405097 0 0  0.5869673343216626 0 0  0.6383613676634521 0 0  0.6916151138468254 0 0  0.7467958595648856 0 0  0.8039733463919316 0 0  0.8632198139502143 0 0  0.9246101326867038 0 0  0.9882218810934433 0 0  1.054135445558498 0 0  1.122434100542598 0 0  1.193204177141305 0 0  1.266535089879536 0 0  1.342519516046404 0 0  1.421253448503939 0 0  1.502836389106271 0 0  1.587371439758838 0 0  1.674965418777374 0 0  1.765729001825544 0 0  1.859776908880082 0 0  1.957227977487062 0 0  2.058205329869943 0 0  2.162836591189951 0 0  2.271253957290865 0 0  2.383594446803425 0 0  2.5 0.1024999999997612 0  2.5 0.2049999999994743 0  2.5 0.3074999999997183 0  2.383594446803656 0.41 0  2.271253957291315 0.41 0  2.162836591190598 0.41 0  2.058205329870775 0.41 0  1.957227977488067 0.41 0  1.859776908881246 0.41 0  1.765729001826854 0.41 0  1.674965418778818 0.41 0  1.58737143976041 0.41 0  1.502836389107956 0.41 0  1.421253448505726 0.41 0  1.342519516048286 0.41 0  1.266535089881505 0.41 0  1.193204177143353 0.41 0  1.122434100544716 0.41 0  1.05413544556068 0.41 0  0.9882218810956305 0.41 0  0.9246101326886647 0.41 0  0.8632198139519631 0.41 0  0.8039733463934788 0.41 0  0.7467958595662458 0.41 0  0.6916151138480078 0.41 0  0.6383613676644679 0.41 0  0.5869673343225223 0.41 0  0.5373680609412221 0.41 0  0.4895008759292634 0.41 0  0.4433053055145528 0.41 0  0.3987229542475914 0.41 0  0.3556974926297398 0.41 0  0.3141745521466497 0.41 0  0.2741016576310038 0.41 0  0.2354281840915826 0.41 0  0.1981052433265003 0.41 0  0.1620856860352591 0.41 0  0.1273239957535623 0.41 0  0.09377624077128965 0.41 0  0.06140001986584975 0.41 0  0.03015443760436654 0.41 0  0.2497468076502589 0.2050254481002335 0  0.2497468076502614 0.1949745518997913 0  0.2469965252529372 0.1829317073451959 0  0.2439893735792749 0.1762316384219906 0  0.2400332147834255 0.1700443375285386 0  0.2352133972704371 0.1645032867342007 0  0.2296339016332438 0.1597280261969788 0  0.2234150974217223 0.1558215752574715 0  0.2166911463437691 0.1528682099456123 0  0.2096071079204251 0.1509316448471593 0  0.2023158100364996 0.1500536585536553 0  0.194974551899914 0.1502531923497262 0  0.1877417105387872 0.1515259415822739 0  0.1807733240461124 0.153844448527136 0  0.1742197252835808 0.15715869474974 0  0.1682222986673531 0.1613971801805478 0  0.162910430003803 0.1664684656256651 0  0.1583987151779087 0.1722631454351573 0  0.1547844879126891 0.178656207771761 0  0.1521457199348551 0.1855097315605723 0  0.1505393388476355 0.1926758619366523 0  0.1505393388476328 0.2073241380633295 0  0.1521457199348437 0.2144902684393899 0  0.1547844879126531 0.221343792228163 0  0.1583987151778488 0.2277368545647528 0  0.1629104300036858 0.2335315343742052 0  0.1682222986671726 0.2386028198193036 0  0.1742197252833576 0.2428413052501257 0  0.1807733240458683 0.2461555514727623 0  0.1877417105384929 0.2484740584176516 0  0.1949745518995776 0.2497468076502398 0  0.202315810036185 0.2499463414463592 0  0.2096071079201568 0.2490683551528932 0  0.2166911463435495 0.2471317900544655 0  0.2234150974215506 0.2441784247426195 0  0.2296339016331197 0.2402719738031125 0  0.2352133972703547 0.2354967132658811 0  0.2400332147833751 0.2299556624715287 0  0.2439893735792577 0.2237683615780412 0  0.246996525252926 0.2170682926548348 0  0.25645809709277 0.21 0  0.2639263993298655 0.21 0  0.271394701566961 0.21 0  0.2788630038040554 0.21 0  0.2863313060411479 0.21 0  0.2937996082782405 0.21 0  0.301267910515333 0.21 0  0.3087362127524279 0.21 0  0.3162045149895234 0.21 0  0.3236728172265972 0.21 0  0.3311411194636928 0.21 0  0.3386094217007701 0.21 0  0.3460777239378666 0.21 0  0.3535460261749672 0.21 0  0.3610143284120516 0.21 0  0.3684826306491596 0.21 0  0.3759509328862226 0.21 0  0.383419235123329 0.21 0  0.3908875373604028 0.21 0  0.3983558395975142 0.21 0  0.4058241418345938 0.21 0  0.4132924440716992 0.21 0  0.4207607463087888 0.21 0  0.4282290485459029 0.21 0  0.4356973507830418 0.21 0  0.4431656530201649 0.21 0  0.4506339552573136 0.21 0  0.4581022574944306 0.21 0  0.4655705597315852 0.21 0  0.4730388619686996 0.21 0  0.480507164205851 0.21 0  0.4879754664429498 0.21 0  0.4954437686800938 0.21 0  0.502912070917267 0.21 0  0.5103803731544119 0.21 0  0.5178486753915261 0.21 0  0.5253169776286404 0.21 0  0.5327852798657868 0.21 0  0.5402535821029386 0.21 0  0.54772188434007 0.21 0  0.5551901865771842 0.21 0  0.5626584888143201 0.21 0  0.5701267910514778 0.21 0  0.5775950932886138 0.21 0  0.5850633955257281 0.21 0  0.5925316977628483 0.21 0  0.6 0.2050000000000054 0  0.6 0.1950000000000217 0  0.5925316977628897 0.19 0  0.5850633955257988 0.19 0  0.5775950932887378 0.19 0  0.5701267910515998 0.19 0  0.5626584888145268 0.19 0  0.5551901865773963 0.19 0  0.547721884340339 0.19 0  0.5402535821032429 0.19 0  0.5327852798661811 0.19 0  0.5253169776290537 0.19 0  0.5178486753919799 0.19 0  0.5103803731549078 0.19 0  0.502912070917822 0.19 0  0.4954437686807294 0.19 0  0.4879754664436223 0.19 0  0.4805071642065402 0.19 0  0.4730388619694271 0.19 0  0.4655705597323621 0.19 0  0.4581022574952563 0.19 0  0.4506339552581777 0.19 0  0.4431656530210671 0.19 0  0.4356973507839815 0.19 0  0.4282290485468779 0.19 0  0.4207607463097617 0.19 0  0.4132924440726327 0.19 0  0.4058241418354857 0.19 0  0.3983558395983636 0.19 0  0.3908875373612097 0.19 0  0.3834192351240934 0.19 0  0.3759509328869369 0.19 0  0.3684826306498175 0.19 0  0.361014328412667 0.19 0  0.3535460261755617 0.19 0  0.3460777239384295 0.19 0  0.3386094217012945 0.19 0  0.3311411194641595 0.19 0  0.3236728172270245 0.19 0  0.3162045149898895 0.19 0  0.3087362127527544 0.19 0  0.3012679105156187 0.19 0  0.2937996082784807 0.19 0  0.2863313060413428 0.19 0  0.2788630038042048 0.19 0  0.2713947015670686 0.19 0  0.2639263993299336 0.19 0  0.2564580970927985 0.19 0  0.2607803159922026 0.2000727136295815 0  0.5887803774232762 0.2001272386983733 0  0.5745072403740523 0.2002044435018727 0  0.5511891430099709 0.2001122610077113 0  0.2751288526855082 0.20000000000002 0  0.5365194309847112 0.1999999999999436 0  0.2894621222999649 0.1998691686390484 0  0.5215828265105155 0.1999999999999228 0  0.3127789816668748 0.1998657885438805 0  0.3274069683451451 0.2000000000000796 0  0.5066462220363641 0.199999999999908 0  0.3650630746574081 0.199866017807523 0  0.476773013087985 0.1999999999998713 0  0.3417402379596385 0.1998691686391011 0  0.3796850840047755 0.200000000000134 0  0.4618364086138087 0.1999999999998546 0  0.4917096175621762 0.1999999999998808 0  0.3946216884789568 0.2000000000001512 0  0.446899804139621 0.1999999999998389 0  0.4089549580935208 0.1998691686391595 0  0.4322718174608562 0.200127451265745 0  0.4201487168029707 0.1999966199048527 0  0.3528922713220932 0.2000185703532356 0  0.5633122436674589 0.1999814296467508 0  0.3006558810093873 0.1999966199048318 0  0.5815926498168407 0.1966545283159175 0  0.2677053789419034 0.1964246479135325 0  0.5290511287476175 0.1970915826863981 0  0.5439877332217911 0.197091582686394 0  0.2825131256993216 0.2035478995978015 0  0.3199386661080599 0.202908417313604 0  0.4842413153250809 0.1970915826863873 0  0.5141145242734466 0.1970915826863843 0  0.3722167817676917 0.2029084173136195 0  0.4693047108508938 0.1970915826863783 0  0.3348752705822316 0.202908417313609 0  0.3871533862418661 0.2029084173136212 0  0.4543681063767183 0.1970915826863795 0  0.4991779197992749 0.1970915826863902 0  0.4020059614928624 0.203547899597858 0  0.4394315019025246 0.1970915826863714 0  0.2550657455369551 0.2034088125358657 0  0.2548908499171161 0.1966940311614271 0  0.5946539510196798 0.2024302972968126 0  0.267698176732111 0.2039977513680092 0  0.4261685417851465 0.196409292431739 0  0.3590076176283495 0.196411355804271 0  0.5571672426447437 0.2036011176410121 0  0.3066757059912147 0.1964092924317024 0  0.594380730180568 0.1966558399668133 0  0.4842413153245942 0.2040749161535287 0  0.4693047108503577 0.2040749161535231 0  0.3871533862424271 0.1959250838464788 0  0.372246743208829 0.1959123236376545 0  0.5141145242731028 0.2040749161535395 0  0.4543681063761134 0.2040749161535186 0  0.4019979587101454 0.1959834479682427 0  0.4394608940728603 0.2040870543693135 0  0.5439623148931173 0.2040856076781014 0  0.5290511287473298 0.2040749161535501 0  0.4991779197988497 0.2040749161535382 0  0.3347912413592433 0.1959225448935183 0  0.3199680582793816 0.1959123018030061 0  0.2825051229162361 0.1959834479681729 0  0.3590471196690275 0.2036304442587945 0  0.5571594006495384 0.1963685282145804 0  0.3067669986803285 0.203627750582736 0  0.4262598344738712 0.2036568242185335 0  0.5814408164431408 0.2041285596160068 0  0.5688286748170428 0.1961819304477386 0  0.4145905603063645 0.2038180695522843 0  0.3473758401724931 0.2038180695522752 0  0.2950977245128307 0.2038180695522663 0  0.5688286748170693 0.203818069552238 0  0.2950977245127906 0.1961819304477774 0  0.3473758401723931 0.1961819304478349 0  0.4145905603061963 0.1961819304479011 0  0.2601812407614425 0.2056861609747042
[...]
<PointData  Vectors="f_46-2"> 
<DataArray  type="Float64"  Name="f_46-2"  NumberOfComponents="3" format="ascii">0.0000000000000000e+00 0.0000000000000000e+00 0.0000000000000000e+00  0.0000000000000000e+00 0.0000000000000000e+00 0.0000000000000000e+00  0.0000000000000000e+00 0.0000000000000000e+00 0.0000000000000000e+00  0.0000000000000000e+00 0.0000000000000000e+00 0.0000000000000000e+00  1.5199257901480284e-05 -3.3745530310201415e-04 0.0000000000000000e+00  4.3584943492332731e-05 -3.3814921784758095e-04 0.0000000000000000e+00  0.0000000000000000e+00 0.0000000000000000e+00 0.0000000000000000e+00  0.0000000000000000e+00 0.0000000000000000e+00 0.0000000000000000e+00  0.0000000000000000e+00 0.0000000000000000e+00 0.0000000000000000e+00  0.0000000000000000e+00 0.0000000000000000e+00 0.0000000000000000e+00  2.9094896509005246e-05 -3.3780186211227750e-04 0.0000000000000000e+00  0.0000000000000000e+00 0.0000000000000000e+00 0.0000000000000000e+00  0.0000000000000000e+00 0.0000000000000000e+00 0.0000000000000000e+00  0.0000000000000000e+00 0.0000000000000000e+00 0.0000000000000000e+00  0.0000000000000000e+00 0.0000000000000000e+00 0.0000000000000000e+00  0.0000000000000000e+00 0.0000000000000000e+00 0.0000000000000000e+00  0.0000000000000000e+00 0.0000000000000000e+00 0.0000000000000000e+00  0.0000000000000000e+00 0.0000000000000000e+00 0.0000000000000000e+00  0.0000000000000000e+00 0.0000000000000000e+00 0.0000000000000000e+00  0.0000000000000000e+00 0.0000000000000000e+00 0.0000000000000000e+00  0.0000000000000000e+00 0.0000000000000000e+00 0.0000000000000000e+00  0.0000000000000000e+00 0.0000000000000000e+00 0.0000000000000000e+00  0.0000000000000000e+00 0.0000000000000000e+00 0.0000000000000000e+00  0.0000000000000000e+00 0.0000000000000000e+00 0.0000000000000000e+00  0.0000000000000000e+00 0.0000000000000000e+00 0.0000000000000000e+00  0.0000000000000000e+00 0.0000000000000000e+00 0.0000000000000000e+00  0.0000000000000000e+00 0.0000000000000000e+00 0.0000000000000000e+00  0.0000000000000000e+00 0.0000000000000000e+00 0.0000000000000000e+00  0.0000000000000000e+00 0.0000000000000000e+00 0.0000000000000000e+00  0.0000000000000000e+00 0.0000000000000000e+00 0.0000000000000000e+00  0.0000000000000000e+00 0.0000000000000000e+00 0.0000000000000000e+00  0.0000000000000000e+00 0.0000000000000000e+00 0.0000000000000000e+00  0.0000000000000000e+00 0.0000000000000000e+00 0.0000000000000000e+00  0.0000000000000000e+00 0.0000000000000000e+00 0.0000000000000000e+00  0.0000000000000000e+00 0.0000000000000000e+00 0.0000000000000000e+00  -4.7449457534391472e-13 -7.5185885697524753e-18 0.0000000000000000e+00  0.0000000000000000e+00 0.0000000000000000e+00 0.0000000000000000e+00  0.0000000000000000e+00 0.0000000000000000e+00 0.0000000000000000e+00  0.0000000000000000e+00 0.0000000000000000e+00 0.0000000000000000e+00  0.0000000000000000e+00 0.0000000000000000e+00 0.0000000000000000e+00  0.0000000000000000e+00 0.0000000000000000e+00 0.0000000000000000e+00  0.0000000000000000e+00 0.0000000000000000e+00 0.0000000000000000e+00  0.0000000000000000e+00 0.0000000000000000e+00 0.0000000000000000e+00  0.0000000000000000e+00 0.0000000000000000e+00 0.0000000000000000e+00  0.0000000000000000e+00 0.0000000000000000e+00 0.0000000000000000e+00  0.0000000000000000e+00 0.0000000000000000e+00 0.0000000000000000e+00  0.0000000000000000e+00 0.0000000000000000e+00 0.0000000000000000e+00  0.0000000000000000e+00 0.0000000000000000e+00 0.0000000000000000e+00  0.0000000000000000e+00 0.0000000000000000e+00 0.0000000000000000e+00  0.0000000000000000e+00 0.0000000000000000e+00 0.0000000000000000e+00  0.0000000000000000e+00 0.0000000000000000e+00 0.0000000000000000e+00  0.0000000000000000e+00 0.0000000000000000e+00 0.0000000000000000e+00  0.0000000000000000e+00 0.0000000000000000e+00 0.0000000000000000e+00  0.0000000000000000e+00 0.0000000000000000e+00 0.0000000000000000e+00  0.0000000000000000e+00 0.0000000000000000e+00 0.0000000000000000e+00  0.0000000000000000e+00 0.0000000000000000e+00 0.0000000000000000e+00  0.0000000000000000e+00 0.0000000000000000e+00 0.0000000000000000e+00  0.0000000000000000e+00 0.0000000000000000e+00 0.0000000000000000e+00  0.0000000000000000e+00 0.0000000000000000e+00 0.0000000000000000e+00  0.0000000000000000e+00 0.0000000000000000e+00 0.0000000000000000e+00  0.0000000000000000e+00 0.0000000000000000e+00 0.0000000000000000e+00  0.0000000000000000e+00 0.0000000000000000e+00 0.0000000000000000e+00  0.0000000000000000e+00 0.0000000000000000e+00 0.0000000000000000e+00  0.0000000000000000e+00 0.0000000000000000e+00 0.0000000000000000e+00  0.0000000000000000e+00 0.0000000000000000e+00 0.0000000000000000e+00  0.0000000000000000e+00 0.0000000000000000e+00 0.0000000000000000e+00  0.0000000000000000e+00 0.0000000000000000e+00 0.0000000000000000e+00  0.0000000000000000e+00 0.0000000000000000e+00 0.0000000000000000e+00  0.0000000000000000e+00 0.0000000000000000e+00 0.0000000000000000e+00  0.0000000000000000e+00 0.0000000000000000e+00 0.0000000000000000e+00  0.0000000000000000e+00 0.0000000000000000e+00 0.0000000000000000e+00  0.0000000000000000e+00 0.0000000000000000e+00 0.0000000000000000e+00  0.0000000000000000e+00 0.0000000000000000e+00 0.0000000000000000e+00  0.0000000000000000e+00 0.0000000000000000e+00 0.0000000000000000e+00  0.0000000000000000e+00 0.0000000000000000e+00 0.0000000000000000e+00  0.0000000000000000e+00 0.0000000000000000e+00 0.0000000000000000e+00  0.0000000000000000e+00 0.0000000000000000e+00 0.0000000000000000e+00  0.0000000000000000e+00 0.0000000000000000e+00 0.0000000000000000e+00  0.0000000000000000e+00 0.0000000000000000e+00 0.0000000000000000e+00  0.0000000000000000e+00 0.0000000000000000e+00 0.0000000000000000e+00  0.0000000000000000e+00 0.0000000000000000e+00 0.0000000000000000e+00  0.0000000000000000e+00 0.0000000000000000e+00 0.0000000000000000e+00  0.0000000000000000e+00 0.0000000000000000e+00 0.0000000000000000e+00  0.0000000000000000e+00 0.0000000000000000e+00 0.0000000000000000e+00  0.0000000000000000e+00 0.0000000000000000e+00 0.0000000000000000e+00  0.0000000000000000e+00 0.0000000000000000e+00 0.0000000000000000e+00  0.0000000000000000e+00 0.0000000000000000e+00 0.0000000000000000e+00  0.0000000000000000e+00 0.0000000000000000e+00 0.0000000000000000e+00  2.4903989722434563e-13 0.0000000000000000e+00 0.0000000000000000e+00  0.0000000000000000e+00 0.0000000000000000e+00 0.0000000000000000e+00  0.0000000000000000e+00 0.0000000000000000e+00 0.0000000000000000e+00  0.0000000000000000e+00 0.0000000000000000e+00 0.0000000000000000e+00  0.0000000000000000e+00 0.0000000000000000e+00 0.0000000000000000e+00  0.0000000000000000e+00 0.0000000000000000e+00 0.0000000000000000e+00  -1.0033440559963174e-13 3.3665017950005827e-18 0.0000000000000000e+00  0.0000000000000000e+00 0.0000000000000000e+00 0.0000000000000000e+00  0.0000000000000000e+00 0.0000000000000000e+00 0.0000000000000000e+00  0.0000000000000000e+00 0.0000000000000000e+00 0.0000000000000000e+00  0.0000000000000000e+00 0.0000000000000000e+00 0.0000000000000000e+00  0.0000000000000000e+00 0.0000000000000000e+00 0.0000000000000000e+00  0.0000000000000000e+00 0.0000000000000000e+00 0.0000000000000000e+00  0.0000000000000000e+00 0.0000000000000000e+00 0.0000000000000000e+00  0.0000000000000000e+00 0.0000000000000000e+00 0.0000000000000000e+00  0.0000000000000000e+00 0.0000000000000000e+00 0.0000000000000000e+00  0.0000000000000000e+00 0.0000000000000000e+00 0.0000000000000000e+00  1.0092145338732747e-13 -2.2733506801377573e-13 0.0000000000000000e+00  0.0000000000000000e+00 0.0000000000000000e+00 0.0000000000000000e+00  0.0000000000000000e+00 0.0000000000000000e+00 0.0000000000000000e+00  0.0000000000000000e+00 0.0000000000000000e+00 0.0000000000000000e+00  0.0000000000000000e+00 0.0000000000000000e+00 0.0000000000000000e+00  -5.6706186581677100e-14 0.0000000000000000e+00 0.0000000000000000e+00  0.0000000000000000e+00 0.0000000000000000e+00 0.0000000000000000e+00  0.0000000000000000e+00 0.0000000000000000e+00 0.0000000000000000e+00  0.0000000000000000e+00 0.0000000000000000e+00 0.0000000000000000e+00  0.0000000000000000e+00 0.0000000000000000e+00 0.0000000000000000e+00  0.0000000000000000e+00 0.0000000000000000e+00 0.0000000000000000e+00  0.0000000000000000e+00 0.0000000000000000e+00 0.0000000000000000e+00  0.0000000000000000e+00 0.0000000000000000e+00 0.0000000000000000e+00  0.0000000000000000e+00 0.0000000000000000e+00 0.0000000000000000e+00  0.0000000000000000e+00 0.0000000000000000e+00 0.0000000000000000e+00  0.0000000000000000e+00 0.0000000000000000e+00 0.0000000000000000e+00  0.0000000000000000e+00 0.0000000000000000e+00 0.0000000000000000e+00  0.0000000000000000e+00 0.0000000000000000e+00 0.0000000000000000e+00  0.0000000000000000e+00 0.0000000000000000e+00 0.0000000000000000e+00  0.0000000000000000e+00 0.0000000000000000e+00 0.0000000000000000e+00  0.0000000000000000e+00 0.0000000000000000e+00 0.0000000000000000e+00  0.0000000000000000e+00 0.0000000000000000e+00 0.0000000000000000e+00  0.0000000000000000e+00 0.0000000000000000e+00 0.0000000000000000e+00  0.0000000000000000e+00 0.0000000000000000e+00 0.0000000000000000e+00  0.0000000000000000e+00 0.0000000000000000e+00 0.0000000000000000e+00  0.0000000000000000e+00 0.0000000000000000e+00 0.0000000000000000e+00  0.0000000000000000e+00 0.0000000000000000e+00 0.0000000000000000e+00  0.0000000000000000e+00 0.0000000000000000e+00 0.0000000000000000e+00  0.0000000000000000e+00 0.0000000000000000e+00 0.0000000000000000e+00  0.0000000000000000e+00 0.0000000000000000e+00 0.0000000000000000e+00  0.0000000000000000e+00 0.0000000000000000e+00 0.0000000000000000e+00  0.0000000000000000e+00 0.0000000000000000e+00 0.0000000000000000e+00  0.0000000000000000e+00 0.0000000000000000e+00 0.0000000000000000e+00  0.0000000000000000e+00 0.0000000000000000e+00 0.0000000000000000e+00  0.0000000000000000e+00 0.0000000000000000e+00 0.0000000000000000e+00  0.0000000000000000e+00 0.0000000000000000e+00 0.0000000000000000e+00  0.0000000000000000e+00 0.0000000000000000e+00 0.0000000000000000e+00  -1.3221967562865023e-13 -5.0396470750044394e-13 0.0000000000000000e+00  1.0139194900730984e-06 -1.0086776807410970e-06 0.0000000000000000e+00  2.1917297897384726e-06 -1.3915605013476146e-06 0.0000000000000000e+00  3.4395536116417444e-06 -2.0623318480357749e-06 0.0000000000000000e+00  4.8096778522058159e-06 -3.0660844460938981e-06 0.0000000000000000e+00  6.1514680945086738e-06 -4.4456628140438370e-06 0.0000000000000000e+00  7.6218227956477568e-06 -6.2418236492043660e-06 0.0000000000000000e+00  9.0072935564923456e-06 -8.3809677800430575e-06 0.0000000000000000e+00  1.0418161395499913e-05 -1.0995706562336907e-05 0.0000000000000000e+00  1.1949762917278048e-05 -1.3995398155488536e-05 0.0000000000000000e+00  1.3349976592364611e-05 -1.7423095526742257e-05 0.0000000000000000e+00  1.4901988049497949e-05 -2.1286838074457145e-05 0.0000000000000000e+00  1.6297633089155254e-05 -2.5579845340241078e-05 0.0000000000000000e+00  1.7814599277051620e-05 -3.0301176148334343e-05 0.0000000000000000e+00  1.9200385050266979e-05 -3.5383375082523116e-05 0.0000000000000000e+00  2.0575288538594864e-05 -4.0926974752099546e-05 0.0000000000000000e+00  2.2029181898349544e-05 -4.6830634293309097e-05 0.0000000000000000e+00  2.3327107786067105e-05 -5.3109907841906037e-05 0.0000000000000000e+00  2.4719743094877954e-05 -5.9775584623198399e-05 0.0000000000000000e+00  2.5948572884413773e-05 -6.6779291961451725e-05 0.0000000000000000e+00  2.7248756924942881e-05 -7.4125204879177276e-05 0.0000000000000000e+00  2.8420495208932860e-05 -8.1785823999944195e-05 0.0000000000000000e+00  2.9617328536871198e-05 -8.9769812468157341e-05 0.0000000000000000e+00  3.0699460977907639e-05 -9.7988801874001306e-05 0.0000000000000000e+00  3.1740408014716974e-05 -1.0651190627685162e-04 0.0000000000000000e+00  3.2797054260398418e-05 -1.1524747476150458e-04 0.0000000000000000e+00  3.3753800469139893e-05 -1.2421709571557808e-04 0.0000000000000000e+00  3.4680008147445846e-05 -1.3341459231883804e-04 0.0000000000000000e+00  3.5537321012897940e-05 -1.4277309247657448e-04 0.0000000000000000e+00  3.6360414003598328e-05 -1.5233025985075991e-04 0.0000000000000000e+00  3.7118594578932021e-05 -1.6201327154733325e-04 0.0000000000000000e+00  3.7840718922112966e-05 -1.7186101059093624e-04 0.0000000000000000e+00  3.8501865429542675e-05 -1.8180212825278435e-04 0.0000000000000000e+00  3.9126045767224135e-05 -1.9187703984095128e-04 0.0000000000000000e+00  3.9694037732097858e-05 -2.0201658083878274e-04 0.0000000000000000e+00  4.0223412311313188e-05 -2.1226329321347720e-04 0.0000000000000000e+00  4.0702098206529820e-05 -2.2255094942126981e-04 0.0000000000000000e+00  4.1143394819169175e-05 -2.3292116164115101e-04 0.0000000000000000e+00  4.1538292768548934e-05 -2.4331344772916404e-04 0.0000000000000000e+00  4.1896009077556496e-05 -2.5376875697800575e-04 0.0000000000000000e+00  4.2209847393077801e-05 -2.6423014994644373e-04 0.0000000000000000e+00  4.2483742495094874e-05 -2.7473315907969705e-04 0.0000000000000000e+00  4.2723150981952300e-05 -2.8524289501855754e-04 0.0000000000000000e+00  4.2923992303685702e-05 -2.9577188653472937e-04 0.0000000000000000e+00  4.3104714296594935e-05 -3.0630807303509542e-04 0.0000000000000000e+00  4.3243627918917775e-05 -3.1684005346573318e-04 0.0000000000000000e+00  4.3383958066934680e-05 -3.2741335864987665e-04 0.0000000000000000e+00  3.6238689157982201e-05 -3.3797021104118072e-04 0.0000000000000000e+00  2.2059494521401381e-05 -3.3763745590772233e-04 0.0000000000000000e+00  1.5017845975781163e-05 -3.2700502202537908e-04 0.0000000000000000e+00  1.4905182524798582e-05 -3.1639433998079835e-04 0.0000000000000000e+00  1.4790411315158510e-05 -3.0576829982516853e-04 0.0000000000000000e+00  1.4646419918622903e-05 -2.9516579691139788e-04 0.0000000000000000e+00  1.4482812755607078e-05 -2.8457274815167952e-04 0.0000000000000000e+00  1.4289361767953705e-05 -2.7399670457438330e-04 0.0000000000000000e+00  1.4082719792438896e-05 -2.6344346108471319e-04 0.0000000000000000e+00  1.3840852403978538e-05 -2.5290220554244407e-04 0.0000000000000000e+00  1.3589809438110690e-05 -2.4241074810030664e-04 0.0000000000000000e+00  1.3305237900593916e-05 -2.3193865636592469e-04 0.0000000000000000e+00  1.3020832952943480e-05 -2.2153255673461089e-04 0.0000000000000000e+00  1.2700087323062544e-05 -2.1116508293761741e-04 0.0000000000000000e+00  1.2389403328748793e-05 -2.0088342285576915e-04 0.0000000000000000e+00  1.2038005260161177e-05 -1.9066489810842362e-04 0.0000000000000000e+00  1.1708769233917084e-05 -1.8055592702190612e-04 0.0000000000000000e+00  1.1332162372190384e-05 -1.7053775855600583e-04 0.0000000000000000e+00  1.0990485297877965e-05 -1.6065709584827973e-04 0.0000000000000000e+00  1.0594078883739185e-05 -1.5089907475960979e-04 0.0000000000000000e+00  1.0246552631700501e-05 -1.4131035022069670e-04 0.0000000000000000e+00  9.8356883765010258e-06 -1.3187989244220954e-04 0.0000000000000000e+00  9.4899953840212622e-06 -1.2265424237009712e-04 0.0000000000000000e+00  9.0710871130010101e-06 -1.1362656951685124e-04 0.0000000000000000e+00  8.7222348659807649e-06 -1.0483957230285050e-04 0.0000000000000000e+00  8.3138590667760555e-06 -9.6274336705353953e-05 0.0000000000000000e+00  7.9000133451703351e-06 -8.8018458779617239e-05 0.0000000000000000e+00  7.5581666408425954e-06 -7.9992208648853419e-05 0.0000000000000000e+00  7.1646893588933639e-06 -7.2297453172446010e-05 0.0000000000000000e+00  6.8125332893252763e-06 -6.4918531096622482e-05 0.0000000000000000e+00  6.4272280250935128e-06 -5.7881349619819861e-05 0.0000000000000000e+00  6.0802160486011516e-06 -5.1201814840488330e-05 0.0000000000000000e+00  5.7019004261201093e-06 -4.4878942547179736e-05 0.0000000000000000e+00  5.3990019978729723e-06 -3.8987061680161776e-05 0.0000000000000000e+00  5.0083041374836881e-06 -3.3425686935659918e-05 0.0000000000000000e+00  4.6159823627177974e-06 -2.8340838783734790e-05 0.0000000000000000e+00  4.3210928925395761e-06 -2.3591814390457244e-05 0.0000000000000000e+00  3.9645884699835523e-06 -1.9313134380651954e-05 0.0000000000000000e+00  3.6499083552987844e-06 -1.5456548388302022e-05 0.0000000000000000e+00  3.2923326593701926e-06 -1.2020173172690311e-05 0.0000000000000000e+00  3.0068634940422613e-06 -9.0606757239911468e-06 0.0000000000000000e+00  2.6204097243122181e-06 -6.4561562233025087e-06 0.0000000000000000e+00  2.2214303932101392e-06 -4.3378872077949941e-06 0.0000000000000000e+00  1.9078080834898654e-06 -2.5532292561241663e-06 0.0000000000000000e+00  1.5060763184518643e-06 -1.1856453036133252e-06 0.0000000000000000e+00  1.1559617134780315e-06 -2.0464676867485735e-07 0.0000000000000000e+00  7.3307245229213069e-07 4.1850214762361901e-07 0.0000000000000000e+00  3.8622292300204054e-07 6.6549225132238474e-07 0.0000000000000000e+00  9.7969181154669217e-07 -1.1407264993508750e-07 0.0000000000000000e+00  2.9201988776516380e-05 -3.2188361264677285e-04 0.0000000000000000e+00  2.9126542013963875e-05 -3.0166297502293751e-04 0.0000000000000000e+00  2.8374375292578836e-05 -2.6870984352410972e-04 0.0000000000000000e+00  2.7201387744190453e-06 -1.3533719463910191e-06 0.0000000000000000e+00  2.7667959090075325e-05 -2.4806978963895607e-04 0.0000000000000000e+00  4.3743878166092063e-06 -3.9237825732046641e-06 0.0000000000000000e+00  2.6995316058399865e-05 -2.2719344150714144e-04 0.0000000000000000e+00  7.1357788961338236e-06 -1.1296549758359646e-05 0.0000000000000000e+00  8.9544772807567860e-06 -1.8044677435320170e-05 0.0000000000000000e+00  2.6204548297214623e-05 -2.0652309912296799e-04 0.0000000000000000e+00  1.3330035817632942e-05 -4.2836682392725925e-05 0.0000000000000000e+00  2.4274582151341010e-05 -1.6616502109735663e-04 0.0000000000000000e+00  1.0598405198079616e-05 -2.6224441049221747e-05 0.0000000000000000e+00  1.5111190620141060e-05 -5.5214759805390077e-05 0.0000000000000000e+00  2.3139689153518987e-05 -1.4670050174596773e-04 0.0000000000000000e+00  2.5297057676915631e-05 -1.8614565066810360e-04 0.0000000000000000e+00  1.6764171090986252e-05 -6.9274166290191741e-05 0.0000000000000000e+00  2.1894498309665982e-05 -1.2788713713113057e-04 0.0000000000000000e+00  1.8144236726682186e-05 -8.3996074494063099e-05 0.0000000000000000e+00  2.0727630206986402e-05 -1.1024272235216953e-04 0.0000000000000000e+00  1.9398665301325756e-05 -9.6316775629007111e-05 0.0000000000000000e+00  1.2015653343072754e-05 -3.3751574375617980e-05 0.0000000000000000e+00  2.8535814923005220e-05 -2.8582277582285103e-04 0.0000000000000000e+00  5.7325802164116218e-06 -7.0324180952522006e-06 0.0000000000000000e+00  2.4214009129743913e-05 -3.1161916680349719e-04 0.0000000000000000e+00  1.4944255219635897e-06 -2.4599747927661747e-07 0.0000000000000000e+00  2.3292728980650075e-05 -2.3747798975158908e-04 0.0000000000000000e+00  2.3877776695996627e-05 -2.5844498452314138e-04 0.0000000000000000e+00  4.2496674454069736e-06 -2.8807659552714206e-06 0.0000000000000000e+00  9.3966246155566031e-06 -1.4721652904243782e-05 0.0000000000000000e+00  2.0927721595037945e-05 -1.7592268814026706e-04 0.0000000000000000e+00  2.2603437867038123e-05 -2.1667974886366582e-04 0.0000000000000000e+00  1.6708191936700518e-05 -4.9030861905188195e-05 0.0000000000000000e+00  1.9951256079950176e-05 -1.5617108764163671e-04 0.0000000000000000e+00  1.1511463979018645e-05 -2.2442656767496439e-05 0.0000000000000000e+00  1.8664326450663349e-05 -6.2375883079879388e-05 0.0000000000000000e+00  1.8889086466382226e-05 -1.3700186651979823e-04 0.0000000000000000e+00  2.1813426650045577e-05 -1.9612930177032736e-04 0.0000000000000000e+00  2.1177811135008770e-05 -7.7077401307397599e-05 0.0000000000000000e+00  1.7744388182570619e-05 -1.1855682226752347e-04 0.0000000000000000e+00  4.2818020951016554e-07 -1.9022167981931622e-07 0.0000000000000000e+00  2.9923990799366605e-07 2.1508072211099921e-07 0.0000000000000000e+00  3.2509037894789245e-05 -3.3026499256841221e-04 0.0000000000000000e+00  2.2252320189053018e-06 -9.7701321760683273e-07 0.0000000000000000e+00  1.